<event>
 4    1  0.5131465E-005  0.7217394E+03  0.7818608E-02  0.9680761E-01
          2   -1    0    0  501    0  0.00000000000E+00  0.00000000000E+00  0.16330532049E+04  0.16330532049E+04  0.25500000000E-02 0.  1.
         -2   -1    0    0    0  501 -0.00000000000E+00 -0.00000000000E+00 -0.79744462972E+02  0.79744463013E+02  0.25500000000E-02 0. -1.
    5000001    1    1    2    0    0 -0.20223977358E+03 -0.17658855823E+03  0.45350885521E+03  0.56334334705E+03  0.19900000000E+03 0.  0.
   -5000001    1    1    2    0    0  0.20223977358E+03  0.17658855823E+03  0.10997998867E+04  0.11494543208E+04  0.19900000000E+03 0.  0.
<mgrwt>
<rscale>  0 0.72173943E+03</rscale>
<asrwt>0</asrwt>
<pdfrwt beam="1">  1        2 0.23329329E+00 0.72173943E+03</pdfrwt>
<pdfrwt beam="2">  1       -2 0.11392067E-01 0.72173943E+03</pdfrwt>
<totfact> 0.69869794E+02</totfact>
</mgrwt>
</event>
<event>
 4    1  0.5131465E-005  0.5921157E+03  0.7818608E-02  0.9921900E-01
         -2   -1    0    0    0  501 -0.00000000000E+00  0.00000000000E+00  0.56968419451E+02  0.56968419508E+02  0.25500000000E-02 0. -1.
          2   -1    0    0  501    0  0.00000000000E+00 -0.00000000000E+00 -0.15385761361E+04  0.15385761361E+04  0.25500000000E-02 0.  1.
    5000001    1    1    2    0    0 -0.11453061976E+03 -0.74343486888E+02 -0.12028796337E+04  0.12268515110E+04  0.19900000000E+03 0.  0.
   -5000001    1    1    2    0    0  0.11453061976E+03  0.74343486888E+02 -0.27872808293E+03  0.36869304458E+03  0.19900000000E+03 0.  0.
<mgrwt>
<rscale>  0 0.59211570E+03</rscale>
<asrwt>0</asrwt>
<pdfrwt beam="1">  1        2 0.21979657E+00 0.59211570E+03</pdfrwt>
<pdfrwt beam="2">  1       -2 0.81383466E-02 0.59211570E+03</pdfrwt>
<totfact> 0.13554798E+03</totfact>
</mgrwt>
</event>
<event>
 4    1  0.5131465E-005  0.5470858E+03  0.7818608E-02  0.1002171E+00
          2   -1    0    0  501    0  0.00000000000E+00  0.00000000000E+00  0.37830375595E+03  0.37830375595E+03  0.25500000000E-02 0.  1.
         -2   -1    0    0    0  501 -0.00000000000E+00 -0.00000000000E+00 -0.19779268578E+03  0.19779268580E+03  0.25500000000E-02 0. -1.
    5000001    1    1    2    0    0  0.11379590977E+03  0.18025524235E+02  0.24626820224E+03  0.33693242058E+03  0.19900000000E+03 0.  0.
   -5000001    1    1    2    0    0 -0.11379590977E+03 -0.18025524235E+02 -0.65757132072E+02  0.23916402117E+03  0.19900000000E+03 0.  0.
<mgrwt>
<rscale>  0 0.54708579E+03</rscale>
<asrwt>0</asrwt>
<pdfrwt beam="1">  1        2 0.54043393E-01 0.54708579E+03</pdfrwt>
<pdfrwt beam="2">  1       -2 0.28256099E-01 0.54708579E+03</pdfrwt>
<totfact> 0.10560113E+03</totfact>
</mgrwt>
</event>
<event>
 4    1  0.5131465E-005  0.4787144E+03  0.7818608E-02  0.1019489E+00
         -2   -1    0    0    0  501 -0.00000000000E+00  0.00000000000E+00  0.40637993818E+03  0.40637993819E+03  0.25500000000E-02 0. -1.
          2   -1    0    0  501    0  0.00000000000E+00 -0.00000000000E+00 -0.14098102612E+03  0.14098102614E+03  0.25500000000E-02 0.  1.
    5000001    1    1    2    0    0 -0.82268427226E+02 -0.58299215854E+02  0.33520203117E+02  0.22559143757E+03  0.19900000000E+03 0.  0.
   -5000001    1    1    2    0    0  0.82268427226E+02  0.58299215854E+02  0.23187870895E+03  0.32176952676E+03  0.19900000000E+03 0.  0.
<mgrwt>
<rscale>  0 0.47871436E+03</rscale>
<asrwt>0</asrwt>
<pdfrwt beam="1">  1        2 0.20140146E-01 0.47871436E+03</pdfrwt>
<pdfrwt beam="2">  1       -2 0.58054277E-01 0.47871436E+03</pdfrwt>
<totfact> 0.78599151E+02</totfact>
</mgrwt>
</event>
<event>
 4    1  0.5131465E-005  0.8752930E+03  0.7818608E-02  0.9457004E-01
          2   -1    0    0  501    0  0.00000000000E+00  0.00000000000E+00  0.10352305074E+04  0.10352305074E+04  0.25500000000E-02 0.  1.
         -2   -1    0    0    0  501 -0.00000000000E+00 -0.00000000000E+00 -0.18501626023E+03  0.18501626025E+03  0.25500000000E-02 0. -1.
    5000001    1    1    2    0    0  0.30798998316E+03  0.38396490461E+02  0.75383526535E+03  0.83916668636E+03  0.19900000000E+03 0.  0.
   -5000001    1    1    2    0    0 -0.30798998316E+03 -0.38396490461E+02  0.96378981779E+02  0.38108008126E+03  0.19900000000E+03 0.  0.
<mgrwt>
<rscale>  0 0.87529304E+03</rscale>
<asrwt>0</asrwt>
<pdfrwt beam="1">  1        2 0.14789008E+00 0.87529304E+03</pdfrwt>
<pdfrwt beam="2">  1       -2 0.26430893E-01 0.87529304E+03</pdfrwt>
<totfact> 0.34628387E+02</totfact>
</mgrwt>
</event>
<event>
 4    1  0.5131465E-005  0.4656960E+03  0.7818608E-02  0.1023142E+00
          2   -1    0    0  501    0  0.00000000000E+00  0.00000000000E+00  0.11117676636E+04  0.11117676637E+04  0.25500000000E-02 0.  1.
         -2   -1    0    0    0  501 -0.00000000000E+00 -0.00000000000E+00 -0.48767558684E+02  0.48767558750E+02  0.25500000000E-02 0. -1.
    5000001    1    1    2    0    0  0.75083188689E+02  0.90045365095E+02  0.60506991072E+03  0.64765442163E+03  0.19900000000E+03 0.  0.
   -5000001    1    1    2    0    0 -0.75083188689E+02 -0.90045365095E+02  0.45793019425E+03  0.51288080077E+03  0.19900000000E+03 0.  0.
<mgrwt>
<rscale>  0 0.46569602E+03</rscale>
<asrwt>0</asrwt>
<pdfrwt beam="1">  1        2 0.15882395E+00 0.46569602E+03</pdfrwt>
<pdfrwt beam="2">  1       -2 0.69667940E-02 0.46569602E+03</pdfrwt>
<totfact> 0.29551801E+03</totfact>
</mgrwt>
</event>
<event>
 4    1  0.5131465E-005  0.5162397E+03  0.7818608E-02  0.1009625E+00
          2   -1    0    0  501    0  0.00000000000E+00  0.00000000000E+00  0.40069848944E+03  0.40069848945E+03  0.25500000000E-02 0.  1.
         -2   -1    0    0    0  501 -0.00000000000E+00 -0.00000000000E+00 -0.16627430544E+03  0.16627430546E+03  0.25500000000E-02 0. -1.
    5000001    1    1    2    0    0 -0.13078294804E+03  0.99410096991E+02  0.12401041384E+03  0.28629727491E+03  0.19900000000E+03 0.  0.
   -5000001    1    1    2    0    0  0.13078294804E+03 -0.99410096991E+02  0.11041377017E+03  0.28067552000E+03  0.19900000000E+03 0.  0.
<mgrwt>
<rscale>  0 0.51623972E+03</rscale>
<asrwt>0</asrwt>
<pdfrwt beam="1">  1        2 0.57242642E-01 0.51623972E+03</pdfrwt>
<pdfrwt beam="2">  1       -2 0.23753472E-01 0.51623972E+03</pdfrwt>
<totfact> 0.13545499E+03</totfact>
</mgrwt>
</event>
<event>
 4    1  0.5131465E-005  0.4380068E+03  0.7818608E-02  0.1031360E+00
          2   -1    0    0  501    0  0.00000000000E+00  0.00000000000E+00  0.30821291862E+03  0.30821291863E+03  0.25500000000E-02 0.  1.
         -2   -1    0    0    0  501 -0.00000000000E+00 -0.00000000000E+00 -0.15561480924E+03  0.15561480927E+03  0.25500000000E-02 0. -1.
    5000001    1    1    2    0    0  0.72514591206E+02  0.44477480830E+02  0.40782619145E+02  0.22022904954E+03  0.19900000000E+03 0.  0.
   -5000001    1    1    2    0    0 -0.72514591206E+02 -0.44477480830E+02  0.11181549023E+03  0.24359867835E+03  0.19900000000E+03 0.  0.
<mgrwt>
<rscale>  0 0.43800682E+03</rscale>
<asrwt>0</asrwt>
<pdfrwt beam="1">  1        2 0.44030417E-01 0.43800682E+03</pdfrwt>
<pdfrwt beam="2">  1       -2 0.22230687E-01 0.43800682E+03</pdfrwt>
<totfact> 0.20292153E+03</totfact>
</mgrwt>
</event>
<event>
 4    1  0.5131465E-005  0.6431637E+03  0.7818608E-02  0.9819692E-01
          2   -1    0    0  501    0  0.00000000000E+00  0.00000000000E+00  0.43119250928E+03  0.43119250929E+03  0.25500000000E-02 0.  1.
         -2   -1    0    0    0  501 -0.00000000000E+00 -0.00000000000E+00 -0.23983458090E+03  0.23983458091E+03  0.25500000000E-02 0. -1.
    5000001    1    1    2    0    0  0.69554887759E+02 -0.24267576326E+03  0.10526767493E+03  0.33824797393E+03  0.19900000000E+03 0.  0.
   -5000001    1    1    2    0    0 -0.69554887759E+02  0.24267576326E+03  0.86090253450E+02  0.33277911627E+03  0.19900000000E+03 0.  0.
<mgrwt>
<rscale>  0 0.64316366E+03</rscale>
<asrwt>0</asrwt>
<pdfrwt beam="1">  1        2 0.61598929E-01 0.64316366E+03</pdfrwt>
<pdfrwt beam="2">  1       -2 0.34262083E-01 0.64316366E+03</pdfrwt>
<totfact> 0.63743642E+02</totfact>
</mgrwt>
</event>
<event>
 4    1  0.5131465E-005  0.6886502E+03  0.7818608E-02  0.9736841E-01
         -2   -1    0    0    0  501 -0.00000000000E+00  0.00000000000E+00  0.35357197653E+03  0.35357197654E+03  0.25500000000E-02 0. -1.
          2   -1    0    0  501    0  0.00000000000E+00 -0.00000000000E+00 -0.33532008383E+03  0.33532008384E+03  0.25500000000E-02 0.  1.
    5000001    1    1    2    0    0  0.15346254785E+03  0.22067324465E+03 -0.72825653643E+02  0.34227475853E+03  0.19900000000E+03 0.  0.
   -5000001    1    1    2    0    0 -0.15346254785E+03 -0.22067324465E+03  0.91077546337E+02  0.34661730185E+03  0.19900000000E+03 0.  0.
<mgrwt>
<rscale>  0 0.68865023E+03</rscale>
<asrwt>0</asrwt>
<pdfrwt beam="1">  1        2 0.47902869E-01 0.68865023E+03</pdfrwt>
<pdfrwt beam="2">  1       -2 0.50510282E-01 0.68865023E+03</pdfrwt>
<totfact> 0.39366537E+02</totfact>
</mgrwt>
</event>
<event>
 4    1  0.5131465E-005  0.5655498E+03  0.7818608E-02  0.9979575E-01
          2   -1    0    0  501    0  0.00000000000E+00  0.00000000000E+00  0.70029217665E+03  0.70029217665E+03  0.25500000000E-02 0.  1.
         -2   -1    0    0    0  501 -0.00000000000E+00 -0.00000000000E+00 -0.11418327741E+03  0.11418327744E+03  0.25500000000E-02 0. -1.
    5000001    1    1    2    0    0 -0.13398991795E+03  0.82895613511E+02  0.47255764314E+03  0.53641094968E+03  0.19900000000E+03 0.  0.
   -5000001    1    1    2    0    0  0.13398991795E+03 -0.82895613511E+02  0.11355125610E+03  0.27806450441E+03  0.19900000000E+03 0.  0.
<mgrwt>
<rscale>  0 0.56554984E+03</rscale>
<asrwt>0</asrwt>
<pdfrwt beam="1">  1        2 0.10004174E+00 0.56554984E+03</pdfrwt>
<pdfrwt beam="2">  1       -2 0.16311897E-01 0.56554984E+03</pdfrwt>
<totfact> 0.13673826E+03</totfact>
</mgrwt>
</event>
<event>
 4    1  0.5131465E-005  0.5539130E+03  0.7818608E-02  0.1000592E+00
         -2   -1    0    0    0  501 -0.00000000000E+00  0.00000000000E+00  0.15210368834E+03  0.15210368836E+03  0.25500000000E-02 0. -1.
          2   -1    0    0  501    0  0.00000000000E+00 -0.00000000000E+00 -0.50429352046E+03  0.50429352047E+03  0.25500000000E-02 0.  1.
    5000001    1    1    2    0    0 -0.51583064358E+02 -0.18547493855E+03 -0.16840240956E+03  0.32407119111E+03  0.19900000000E+03 0.  0.
   -5000001    1    1    2    0    0  0.51583064358E+02  0.18547493855E+03 -0.18378742257E+03  0.33232601772E+03  0.19900000000E+03 0.  0.
<mgrwt>
<rscale>  0 0.55391301E+03</rscale>
<asrwt>0</asrwt>
<pdfrwt beam="1">  1        2 0.72041931E-01 0.55391301E+03</pdfrwt>
<pdfrwt beam="2">  1       -2 0.21729099E-01 0.55391301E+03</pdfrwt>
<totfact> 0.12256226E+03</totfact>
</mgrwt>
</event>
<event>
 4    1  0.5131465E-005  0.8111165E+03  0.7818608E-02  0.9544064E-01
          2   -1    0    0  501    0  0.00000000000E+00  0.00000000000E+00  0.99421512057E+03  0.99421512057E+03  0.25500000000E-02 0.  1.
         -2   -1    0    0    0  501 -0.00000000000E+00 -0.00000000000E+00 -0.16543452138E+03  0.16543452140E+03  0.25500000000E-02 0. -1.
    5000001    1    1    2    0    0  0.23251997212E+03  0.24640190176E+03  0.27072853663E+03  0.47715236055E+03  0.19900000000E+03 0.  0.
   -5000001    1    1    2    0    0 -0.23251997212E+03 -0.24640190176E+03  0.55805206256E+03  0.68249728143E+03  0.19900000000E+03 0.  0.
<mgrwt>
<rscale>  0 0.81111652E+03</rscale>
<asrwt>0</asrwt>
<pdfrwt beam="1">  1        2 0.14203073E+00 0.81111652E+03</pdfrwt>
<pdfrwt beam="2">  1       -2 0.23633504E-01 0.81111652E+03</pdfrwt>
<totfact> 0.45023986E+02</totfact>
</mgrwt>
</event>
<event>
 4    1  0.5131465E-005  0.6459685E+03  0.7818608E-02  0.9814374E-01
         -2   -1    0    0    0  501 -0.00000000000E+00  0.00000000000E+00  0.22136992343E+03  0.22136992344E+03  0.25500000000E-02 0. -1.
          2   -1    0    0  501    0  0.00000000000E+00 -0.00000000000E+00 -0.47124209664E+03  0.47124209665E+03  0.25500000000E-02 0.  1.
    5000001    1    1    2    0    0 -0.23919873086E+03  0.89064407101E+01 -0.32561419322E+02  0.31298019675E+03  0.19900000000E+03 0.  0.
   -5000001    1    1    2    0    0  0.23919873086E+03 -0.89064407101E+01 -0.21731075389E+03  0.37963182334E+03  0.19900000000E+03 0.  0.
<mgrwt>
<rscale>  0 0.64596850E+03</rscale>
<asrwt>0</asrwt>
<pdfrwt beam="1">  1        2 0.67320299E-01 0.64596850E+03</pdfrwt>
<pdfrwt beam="2">  1       -2 0.31624275E-01 0.64596850E+03</pdfrwt>
<totfact> 0.67042158E+02</totfact>
</mgrwt>
</event>
<event>
 4    1  0.5131465E-005  0.7536998E+03  0.7818608E-02  0.9629564E-01
         -2   -1    0    0    0  501 -0.00000000000E+00  0.00000000000E+00  0.18361989783E+03  0.18361989785E+03  0.25500000000E-02 0.  1.
          2   -1    0    0  501    0  0.00000000000E+00 -0.00000000000E+00 -0.77342299221E+03  0.77342299221E+03  0.25500000000E-02 0. -1.
    5000001    1    1    2    0    0  0.17099900149E+03  0.25063705839E+03 -0.16568639538E+03  0.39888917654E+03  0.19900000000E+03 0.  0.
   -5000001    1    1    2    0    0 -0.17099900149E+03 -0.25063705839E+03 -0.42411669899E+03  0.55815371352E+03  0.19900000000E+03 0.  0.
<mgrwt>
<rscale>  0 0.75369981E+03</rscale>
<asrwt>0</asrwt>
<pdfrwt beam="1">  1        2 0.11048900E+00 0.75369981E+03</pdfrwt>
<pdfrwt beam="2">  1       -2 0.26231414E-01 0.75369981E+03</pdfrwt>
<totfact> 0.52307799E+02</totfact>
</mgrwt>
</event>
<event>
 4    1  0.5131465E-005  0.8809632E+03  0.7818608E-02  0.9449696E-01
          2   -1    0    0  501    0  0.00000000000E+00  0.00000000000E+00  0.16447511406E+04  0.16447511406E+04  0.25500000000E-02 0.  1.
         -2   -1    0    0    0  501 -0.00000000000E+00 -0.00000000000E+00 -0.11796559556E+03  0.11796559559E+03  0.25500000000E-02 0. -1.
    5000001    1    1    2    0    0 -0.20852516415E+03  0.33293406386E+03  0.74386859759E+03  0.86444741046E+03  0.19900000000E+03 0.  0.
   -5000001    1    1    2    0    0  0.20852516415E+03 -0.33293406386E+03  0.78291694744E+03  0.89826932573E+03  0.19900000000E+03 0.  0.
<mgrwt>
<rscale>  0 0.88096322E+03</rscale>
<asrwt>0</asrwt>
<pdfrwt beam="1">  1        2 0.23496446E+00 0.88096322E+03</pdfrwt>
<pdfrwt beam="2">  1       -2 0.16852227E-01 0.88096322E+03</pdfrwt>
<totfact> 0.35393512E+02</totfact>
</mgrwt>
</event>
<event>
 4    1  0.5131465E-005  0.8054790E+03  0.7818608E-02  0.9552120E-01
          2   -1    0    0  501    0  0.00000000000E+00  0.00000000000E+00  0.25556266789E+04  0.25556266789E+04  0.25500000000E-02 0.  1.
         -2   -1    0    0    0  501 -0.00000000000E+00 -0.00000000000E+00 -0.63467448808E+02  0.63467448859E+02  0.25500000000E-02 0. -1.
    5000001    1    1    2    0    0  0.15373674385E+02  0.34943188137E+03  0.12984208439E+04  0.13593515651E+04  0.19900000000E+03 0.  0.
   -5000001    1    1    2    0    0 -0.15373674385E+02 -0.34943188137E+03  0.11937383861E+04  0.12597425626E+04  0.19900000000E+03 0.  0.
<mgrwt>
<rscale>  0 0.80547900E+03</rscale>
<asrwt>0</asrwt>
<pdfrwt beam="1">  1        2 0.36508959E+00 0.80547900E+03</pdfrwt>
<pdfrwt beam="2">  1       -2 0.90667768E-02 0.80547900E+03</pdfrwt>
<totfact> 0.34113357E+02</totfact>
</mgrwt>
</event>
<event>
 4    1  0.5131465E-005  0.5767651E+03  0.7818608E-02  0.9954819E-01
         -2   -1    0    0    0  501 -0.00000000000E+00  0.00000000000E+00  0.96824941523E+02  0.96824941557E+02  0.25500000000E-02 0. -1.
          2   -1    0    0  501    0  0.00000000000E+00 -0.00000000000E+00 -0.85891600669E+03  0.85891600669E+03  0.25500000000E-02 0.  1.
    5000001    1    1    2    0    0  0.15143781498E+03  0.12569469613E+03 -0.26587103748E+03  0.38603235228E+03  0.19900000000E+03 0.  0.
   -5000001    1    1    2    0    0 -0.15143781498E+03 -0.12569469613E+03 -0.49622002769E+03  0.56970859597E+03  0.19900000000E+03 0.  0.
<mgrwt>
<rscale>  0 0.57676509E+03</rscale>
<asrwt>0</asrwt>
<pdfrwt beam="1">  1        2 0.12270228E+00 0.57676509E+03</pdfrwt>
<pdfrwt beam="2">  1       -2 0.13832135E-01 0.57676509E+03</pdfrwt>
<totfact> 0.13941064E+03</totfact>
</mgrwt>
</event>
<event>
 4    1  0.5131465E-005  0.7149231E+03  0.7818608E-02  0.9692047E-01
          2   -1    0    0  501    0  0.00000000000E+00  0.00000000000E+00  0.90512179361E+03  0.90512179361E+03  0.25500000000E-02 0.  1.
         -2   -1    0    0    0  501 -0.00000000000E+00 -0.00000000000E+00 -0.14117299793E+03  0.14117299795E+03  0.25500000000E-02 0. -1.
    5000001    1    1    2    0    0 -0.13505188378E+03 -0.26373179758E+03  0.41066378728E+03  0.54409486172E+03  0.19900000000E+03 0.  0.
   -5000001    1    1    2    0    0  0.13505188378E+03  0.26373179758E+03  0.35328500840E+03  0.50219992984E+03  0.19900000000E+03 0.  0.
<mgrwt>
<rscale>  0 0.71492309E+03</rscale>
<asrwt>0</asrwt>
<pdfrwt beam="1">  1        2 0.12930312E+00 0.71492309E+03</pdfrwt>
<pdfrwt beam="2">  1       -2 0.20167571E-01 0.71492309E+03</pdfrwt>
<totfact> 0.68097255E+02</totfact>
</mgrwt>
</event>
<event>
 4    1  0.5131465E-005  0.5537742E+03  0.7818608E-02  0.1000624E+00
          2   -1    0    0  501    0  0.00000000000E+00  0.00000000000E+00  0.91702295273E+02  0.91702295308E+02  0.25500000000E-02 0.  1.
         -2   -1    0    0    0  501 -0.00000000000E+00 -0.00000000000E+00 -0.83603640430E+03  0.83603640431E+03  0.25500000000E-02 0. -1.
    5000001    1    1    2    0    0  0.13684727554E+03  0.11557041162E+03 -0.49041249305E+03  0.55873885690E+03  0.19900000000E+03 0.  0.
   -5000001    1    1    2    0    0 -0.13684727554E+03 -0.11557041162E+03 -0.25392161598E+03  0.36899984272E+03  0.19900000000E+03 0.  0.
<mgrwt>
<rscale>  0 0.55377417E+03</rscale>
<asrwt>0</asrwt>
<pdfrwt beam="1">  1        2 0.13100328E-01 0.55377417E+03</pdfrwt>
<pdfrwt beam="2">  1       -2 0.11943377E+00 0.55377417E+03</pdfrwt>
<totfact> 0.25776027E+02</totfact>
</mgrwt>
</event>
<event>
 4    1  0.5131465E-005  0.1197374E+04  0.7818608E-02  0.9115159E-01
         -2   -1    0    0    0  501 -0.00000000000E+00  0.00000000000E+00  0.35156732699E+03  0.35156732700E+03  0.25500000000E-02 0. -1.
          2   -1    0    0  501    0  0.00000000000E+00 -0.00000000000E+00 -0.10195085301E+04  0.10195085301E+04  0.25500000000E-02 0.  1.
    5000001    1    1    2    0    0  0.34854387008E+03  0.33134788630E+03 -0.67278468877E+03  0.85059654865E+03  0.19900000000E+03 0.  0.
   -5000001    1    1    2    0    0 -0.34854387008E+03 -0.33134788630E+03  0.48434857007E+01  0.52047930841E+03  0.19900000000E+03 0.  0.
<mgrwt>
<rscale>  0 0.11973736E+04</rscale>
<asrwt>0</asrwt>
<pdfrwt beam="1">  1        2 0.14564407E+00 0.11973736E+04</pdfrwt>
<pdfrwt beam="2">  1       -2 0.50223904E-01 0.11973736E+04</pdfrwt>
<totfact> 0.10110422E+02</totfact>
</mgrwt>
</event>
<event>
 4    1  0.5131465E-005  0.7342934E+03  0.7818608E-02  0.9660319E-01
          2   -1    0    0  501    0  0.00000000000E+00  0.00000000000E+00  0.82495443109E+03  0.82495443109E+03  0.25500000000E-02 0.  1.
         -2   -1    0    0    0  501 -0.00000000000E+00 -0.00000000000E+00 -0.16339896895E+03  0.16339896897E+03  0.25500000000E-02 0. -1.
    5000001    1    1    2    0    0  0.18502585021E+03 -0.23629774527E+03  0.23442390525E+03  0.42968215813E+03  0.19900000000E+03 0.  0.
   -5000001    1    1    2    0    0 -0.18502585021E+03  0.23629774527E+03  0.42713155689E+03  0.55867124193E+03  0.19900000000E+03 0.  0.
<mgrwt>
<rscale>  0 0.73429341E+03</rscale>
<asrwt>0</asrwt>
<pdfrwt beam="1">  1        2 0.11785064E+00 0.73429341E+03</pdfrwt>
<pdfrwt beam="2">  1       -2 0.23342709E-01 0.73429341E+03</pdfrwt>
<totfact> 0.59431756E+02</totfact>
</mgrwt>
</event>
<event>
 4    1  0.5131465E-005  0.5194884E+03  0.7818608E-02  0.1008814E+00
          2   -1    0    0  501    0  0.00000000000E+00  0.00000000000E+00  0.29370825869E+04  0.29370825869E+04  0.25500000000E-02 0.  1.
         -2   -1    0    0    0  501 -0.00000000000E+00 -0.00000000000E+00 -0.22970768655E+02  0.22970768796E+02  0.25500000000E-02 0. -1.
    5000001    1    1    2    0    0 -0.99090991746E+02 -0.12613210504E+03  0.17205059831E+04  0.17393878724E+04  0.19900000000E+03 0.  0.
   -5000001    1    1    2    0    0  0.99090991746E+02  0.12613210504E+03  0.11936058352E+04  0.12206654834E+04  0.19900000000E+03 0.  0.
<mgrwt>
<rscale>  0 0.51948838E+03</rscale>
<asrwt>0</asrwt>
<pdfrwt beam="1">  1        2 0.41958290E+00 0.51948838E+03</pdfrwt>
<pdfrwt beam="2">  1       -2 0.32815409E-02 0.51948838E+03</pdfrwt>
<totfact> 0.10769550E+03</totfact>
</mgrwt>
</event>
<event>
 4    1  0.5131465E-005  0.2947989E+04  0.7818608E-02  0.8258741E-01
          2   -1    0    0  501    0  0.00000000000E+00  0.00000000000E+00  0.14329368631E+04  0.14329368631E+04  0.25500000000E-02 0.  1.
         -2   -1    0    0    0  501 -0.00000000000E+00 -0.00000000000E+00 -0.15162290181E+04  0.15162290181E+04  0.25500000000E-02 0. -1.
    5000001    1    1    2    0    0 -0.10116539974E+04 -0.31645055081E+03  0.96348104729E+03  0.14461955227E+04  0.19900000000E+03 0.  0.
   -5000001    1    1    2    0    0  0.10116539974E+04  0.31645055081E+03 -0.10467732023E+04  0.15029703585E+04  0.19900000000E+03 0.  0.
<mgrwt>
<rscale>  0 0.29479895E+04</rscale>
<asrwt>0</asrwt>
<pdfrwt beam="1">  1        2 0.20470527E+00 0.29479895E+04</pdfrwt>
<pdfrwt beam="2">  1       -2 0.21660414E+00 0.29479895E+04</pdfrwt>
<totfact> 0.14285486E+00</totfact>
</mgrwt>
</event>
<event>
 4    1  0.5131465E-005  0.4607834E+03  0.7818608E-02  0.1024554E+00
          2   -1    0    0  501    0  0.00000000000E+00  0.00000000000E+00  0.32798540561E+03  0.32798540562E+03  0.25500000000E-02 0.  1.
         -2   -1    0    0    0  501 -0.00000000000E+00 -0.00000000000E+00 -0.16183751153E+03  0.16183751155E+03  0.25500000000E-02 0. -1.
    5000001    1    1    2    0    0  0.14678518780E+02  0.46080650237E+02  0.19527417653E+03  0.28296976739E+03  0.19900000000E+03 0.  0.
   -5000001    1    1    2    0    0 -0.14678518780E+02 -0.46080650237E+02 -0.29126282448E+02  0.20685314977E+03  0.19900000000E+03 0.  0.
<mgrwt>
<rscale>  0 0.46078343E+03</rscale>
<asrwt>0</asrwt>
<pdfrwt beam="1">  1        2 0.46855058E-01 0.46078343E+03</pdfrwt>
<pdfrwt beam="2">  1       -2 0.23119644E-01 0.46078343E+03</pdfrwt>
<totfact> 0.17702445E+03</totfact>
</mgrwt>
</event>
<event>
 4    1  0.5131465E-005  0.8589293E+03  0.7818608E-02  0.9478430E-01
          2   -1    0    0  501    0  0.00000000000E+00  0.00000000000E+00  0.21063742199E+04  0.21063742199E+04  0.25500000000E-02 0.  1.
         -2   -1    0    0    0  501 -0.00000000000E+00 -0.00000000000E+00 -0.87562742545E+02  0.87562742583E+02  0.25500000000E-02 0. -1.
    5000001    1    1    2    0    0 -0.25990196494E+03 -0.13384976206E+03  0.16317995632E+04  0.16696812884E+04  0.19900000000E+03 0.  0.
   -5000001    1    1    2    0    0  0.25990196494E+03  0.13384976206E+03  0.38701191419E+03  0.52425567418E+03  0.19900000000E+03 0.  0.
<mgrwt>
<rscale>  0 0.85892934E+03</rscale>
<asrwt>0</asrwt>
<pdfrwt beam="1">  1        2 0.30091057E+00 0.85892934E+03</pdfrwt>
<pdfrwt beam="2">  1       -2 0.12508965E-01 0.85892934E+03</pdfrwt>
<totfact> 0.34074798E+02</totfact>
</mgrwt>
</event>
<event>
 4    1  0.5131465E-005  0.7866522E+03  0.7818608E-02  0.9579541E-01
         -2   -1    0    0    0  501 -0.00000000000E+00  0.00000000000E+00  0.10001845638E+03  0.10001845642E+03  0.25500000000E-02 0. -1.
          2   -1    0    0  501    0  0.00000000000E+00 -0.00000000000E+00 -0.15467687988E+04  0.15467687988E+04  0.25500000000E-02 0.  1.
    5000001    1    1    2    0    0  0.19187543923E+03  0.22500022247E+03 -0.37519383309E+03  0.51750622864E+03  0.19900000000E+03 0.  0.
   -5000001    1    1    2    0    0 -0.19187543923E+03 -0.22500022247E+03 -0.10715565093E+04  0.11292810265E+04  0.19900000000E+03 0.  0.
<mgrwt>
<rscale>  0 0.78665222E+03</rscale>
<asrwt>0</asrwt>
<pdfrwt beam="1">  1        2 0.22096696E+00 0.78665222E+03</pdfrwt>
<pdfrwt beam="2">  1       -2 0.14288352E-01 0.78665222E+03</pdfrwt>
<totfact> 0.52960729E+02</totfact>
</mgrwt>
</event>
<event>
 4    1  0.5131465E-005  0.6239376E+03  0.7818608E-02  0.9856951E-01
         -2   -1    0    0    0  501 -0.00000000000E+00  0.00000000000E+00  0.14147489860E+03  0.14147489863E+03  0.25500000000E-02 0. -1.
          2   -1    0    0  501    0  0.00000000000E+00 -0.00000000000E+00 -0.68792784871E+03  0.68792784872E+03  0.25500000000E-02 0.  1.
    5000001    1    1    2    0    0  0.11356998237E+03  0.10606166881E+03 -0.29646950719E+02  0.25421872506E+03  0.19900000000E+03 0.  0.
   -5000001    1    1    2    0    0 -0.11356998237E+03 -0.10606166881E+03 -0.51680599939E+03  0.57518402228E+03  0.19900000000E+03 0.  0.
<mgrwt>
<rscale>  0 0.62393757E+03</rscale>
<asrwt>0</asrwt>
<pdfrwt beam="1">  1        2 0.98275405E-01 0.62393757E+03</pdfrwt>
<pdfrwt beam="2">  1       -2 0.20210700E-01 0.62393757E+03</pdfrwt>
<totfact> 0.96577261E+02</totfact>
</mgrwt>
</event>
<event>
 4    1  0.5131465E-005  0.1047131E+04  0.7818608E-02  0.9258311E-01
         -2   -1    0    0    0  501 -0.00000000000E+00  0.00000000000E+00  0.13058564245E+03  0.13058564247E+03  0.25500000000E-02 0.  1.
          2   -1    0    0  501    0  0.00000000000E+00 -0.00000000000E+00 -0.20991655199E+04  0.20991655199E+04  0.25500000000E-02 0. -1.
    5000001    1    1    2    0    0 -0.14128825950E+03  0.12611363608E+03 -0.35210087662E+02  0.27696167921E+03  0.19900000000E+03 0.  0.
   -5000001    1    1    2    0    0  0.14128825950E+03 -0.12611363608E+03 -0.19333697898E+04  0.19527894831E+04  0.19900000000E+03 0.  0.
<mgrwt>
<rscale>  0 0.10471311E+04</rscale>
<asrwt>0</asrwt>
<pdfrwt beam="1">  1        2 0.29988077E+00 0.10471311E+04</pdfrwt>
<pdfrwt beam="2">  1       -2 0.18655093E-01 0.10471311E+04</pdfrwt>
<totfact> 0.17186461E+02</totfact>
</mgrwt>
</event>
<event>
 4    1  0.5131465E-005  0.4678071E+03  0.7818608E-02  0.1022541E+00
          2   -1    0    0  501    0  0.00000000000E+00  0.00000000000E+00  0.31061426892E+04  0.31061426892E+04  0.25500000000E-02 0.  1.
         -2   -1    0    0    0  501 -0.00000000000E+00 -0.00000000000E+00 -0.17613765484E+02  0.17613765668E+02  0.25500000000E-02 0. -1.
    5000001    1    1    2    0    0 -0.58266142463E+02 -0.10037691221E+03  0.12738978846E+04  0.12945606545E+04  0.19900000000E+03 0.  0.
   -5000001    1    1    2    0    0  0.58266142463E+02  0.10037691221E+03  0.18146310391E+04  0.18291958003E+04  0.19900000000E+03 0.  0.
<mgrwt>
<rscale>  0 0.46780709E+03</rscale>
<asrwt>0</asrwt>
<pdfrwt beam="1">  1        2 0.44373521E+00 0.46780709E+03</pdfrwt>
<pdfrwt beam="2">  1       -2 0.25162492E-02 0.46780709E+03</pdfrwt>
<totfact> 0.13086669E+03</totfact>
</mgrwt>
</event>
<event>
 4    1  0.5131465E-005  0.5989149E+03  0.7818608E-02  0.9907660E-01
          2   -1    0    0  501    0  0.00000000000E+00  0.00000000000E+00  0.95124844969E+03  0.95124844970E+03  0.25500000000E-02 0.  1.
         -2   -1    0    0    0  501 -0.00000000000E+00 -0.00000000000E+00 -0.94270593922E+02  0.94270593956E+02  0.25500000000E-02 0. -1.
    5000001    1    1    2    0    0 -0.18697525754E+03 -0.32643708583E+02  0.63539833963E+03  0.69235641735E+03  0.19900000000E+03 0.  0.
   -5000001    1    1    2    0    0  0.18697525754E+03  0.32643708583E+02  0.22157951614E+03  0.35316262630E+03  0.19900000000E+03 0.  0.
<mgrwt>
<rscale>  0 0.59891487E+03</rscale>
<asrwt>0</asrwt>
<pdfrwt beam="1">  1        2 0.13589263E+00 0.59891487E+03</pdfrwt>
<pdfrwt beam="2">  1       -2 0.13467228E-01 0.59891487E+03</pdfrwt>
<totfact> 0.12708192E+03</totfact>
</mgrwt>
</event>
<event>
 4    1  0.5131465E-005  0.6577984E+03  0.7818608E-02  0.9792255E-01
          2   -1    0    0  501    0  0.00000000000E+00  0.00000000000E+00  0.23044808036E+04  0.23044808036E+04  0.25500000000E-02 0.  1.
         -2   -1    0    0    0  501 -0.00000000000E+00 -0.00000000000E+00 -0.46941021385E+02  0.46941021454E+02  0.25500000000E-02 0. -1.
    5000001    1    1    2    0    0 -0.59805016942E+02  0.24763309428E+03  0.91206929656E+03  0.96766222989E+03  0.19900000000E+03 0.  0.
   -5000001    1    1    2    0    0  0.59805016942E+02 -0.24763309428E+03  0.13454704857E+04  0.13837595952E+04  0.19900000000E+03 0.  0.
<mgrwt>
<rscale>  0 0.65779840E+03</rscale>
<asrwt>0</asrwt>
<pdfrwt beam="1">  1        2 0.32921168E+00 0.65779840E+03</pdfrwt>
<pdfrwt beam="2">  1       -2 0.67058574E-02 0.65779840E+03</pdfrwt>
<totfact> 0.75177693E+02</totfact>
</mgrwt>
</event>
<event>
 4    1  0.5131465E-005  0.8949501E+03  0.7818608E-02  0.9431916E-01
         -2   -1    0    0    0  501 -0.00000000000E+00  0.00000000000E+00  0.91238932773E+02  0.91238932809E+02  0.25500000000E-02 0. -1.
          2   -1    0    0  501    0  0.00000000000E+00 -0.00000000000E+00 -0.21946105190E+04  0.21946105190E+04  0.25500000000E-02 0.  1.
    5000001    1    1    2    0    0  0.39608743866E+03  0.22166912289E+02 -0.11974364022E+04  0.12770401593E+04  0.19900000000E+03 0.  0.
   -5000001    1    1    2    0    0 -0.39608743866E+03 -0.22166912289E+02 -0.90593518403E+03  0.10088092925E+04  0.19900000000E+03 0.  0.
<mgrwt>
<rscale>  0 0.89495010E+03</rscale>
<asrwt>0</asrwt>
<pdfrwt beam="1">  1        2 0.31351576E+00 0.89495010E+03</pdfrwt>
<pdfrwt beam="2">  1       -2 0.13034135E-01 0.89495010E+03</pdfrwt>
<totfact> 0.28617787E+02</totfact>
</mgrwt>
</event>
<event>
 4    1  0.5131465E-005  0.7587462E+03  0.7818608E-02  0.9621728E-01
          2   -1    0    0  501    0  0.00000000000E+00  0.00000000000E+00  0.52720434491E+03  0.52720434491E+03  0.25500000000E-02 0.  1.
         -2   -1    0    0    0  501 -0.00000000000E+00 -0.00000000000E+00 -0.27299463184E+03  0.27299463185E+03  0.25500000000E-02 0. -1.
    5000001    1    1    2    0    0  0.92888563486E+02 -0.30916586688E+03  0.13822299094E+03  0.40363153209E+03  0.19900000000E+03 0.  0.
   -5000001    1    1    2    0    0 -0.92888563486E+02  0.30916586688E+03  0.11598672213E+03  0.39656744468E+03  0.19900000000E+03 0.  0.
<mgrwt>
<rscale>  0 0.75874622E+03</rscale>
<asrwt>0</asrwt>
<pdfrwt beam="1">  1        2 0.75314908E-01 0.75874622E+03</pdfrwt>
<pdfrwt beam="2">  1       -2 0.38999232E-01 0.75874622E+03</pdfrwt>
<totfact> 0.39470027E+02</totfact>
</mgrwt>
</event>
<event>
 4    1  0.5131465E-005  0.4502490E+03  0.7818608E-02  0.1027648E+00
          2   -1    0    0  501    0  0.00000000000E+00  0.00000000000E+00  0.10590988191E+04  0.10590988191E+04  0.25500000000E-02 0.  1.
         -2   -1    0    0    0  501 -0.00000000000E+00 -0.00000000000E+00 -0.47852991078E+02  0.47852991146E+02  0.25500000000E-02 0. -1.
    5000001    1    1    2    0    0  0.55120886571E+02 -0.89366986555E+02  0.52390156180E+03  0.57017419872E+03  0.19900000000E+03 0.  0.
   -5000001    1    1    2    0    0 -0.55120886571E+02  0.89366986555E+02  0.48734426617E+03  0.53677761149E+03  0.19900000000E+03 0.  0.
<mgrwt>
<rscale>  0 0.45024903E+03</rscale>
<asrwt>0</asrwt>
<pdfrwt beam="1">  1        2 0.15129984E+00 0.45024903E+03</pdfrwt>
<pdfrwt beam="2">  1       -2 0.68361412E-02 0.45024903E+03</pdfrwt>
<totfact> 0.32655113E+03</totfact>
</mgrwt>
</event>
<event>
 4    1  0.5131465E-005  0.5795051E+03  0.7818608E-02  0.9948863E-01
          2   -1    0    0  501    0  0.00000000000E+00  0.00000000000E+00  0.90706989460E+03  0.90706989460E+03  0.25500000000E-02 0.  1.
         -2   -1    0    0    0  501 -0.00000000000E+00 -0.00000000000E+00 -0.92557950192E+02  0.92557950227E+02  0.25500000000E-02 0. -1.
    5000001    1    1    2    0    0  0.15937421643E+03  0.18396940942E+02  0.17189454996E+03  0.30803786229E+03  0.19900000000E+03 0.  0.
   -5000001    1    1    2    0    0 -0.15937421643E+03 -0.18396940942E+02  0.64261739444E+03  0.69158998253E+03  0.19900000000E+03 0.  0.
<mgrwt>
<rscale>  0 0.57950507E+03</rscale>
<asrwt>0</asrwt>
<pdfrwt beam="1">  1        2 0.12958142E+00 0.57950507E+03</pdfrwt>
<pdfrwt beam="2">  1       -2 0.13222563E-01 0.57950507E+03</pdfrwt>
<totfact> 0.13978442E+03</totfact>
</mgrwt>
</event>
<event>
 4    1  0.5131465E-005  0.7516231E+03  0.7818608E-02  0.9632807E-01
          2   -1    0    0  501    0  0.00000000000E+00  0.00000000000E+00  0.14637458619E+04  0.14637458619E+04  0.25500000000E-02 0.  1.
         -2   -1    0    0    0  501 -0.00000000000E+00 -0.00000000000E+00 -0.96488273318E+02  0.96488273352E+02  0.25500000000E-02 0. -1.
    5000001    1    1    2    0    0 -0.18527968922E+03  0.24202647702E+03  0.48969863727E+03  0.61017303624E+03  0.19900000000E+03 0.  0.
   -5000001    1    1    2    0    0  0.18527968922E+03 -0.24202647702E+03  0.87755895131E+03  0.95006109900E+03  0.19900000000E+03 0.  0.
<mgrwt>
<rscale>  0 0.75162307E+03</rscale>
<asrwt>0</asrwt>
<pdfrwt beam="1">  1        2 0.20910654E+00 0.75162307E+03</pdfrwt>
<pdfrwt beam="2">  1       -2 0.13784040E-01 0.75162307E+03</pdfrwt>
<totfact> 0.62307421E+02</totfact>
</mgrwt>
</event>
<event>
 4    1  0.5131465E-005  0.8241128E+03  0.7818608E-02  0.9525756E-01
          2   -1    0    0  501    0  0.00000000000E+00  0.00000000000E+00  0.10508756585E+04  0.10508756585E+04  0.25500000000E-02 0.  1.
         -2   -1    0    0    0  501 -0.00000000000E+00 -0.00000000000E+00 -0.16157047405E+03  0.16157047407E+03  0.25500000000E-02 0. -1.
    5000001    1    1    2    0    0 -0.26644282439E+03 -0.16226940984E+02  0.87494764576E+02  0.34425488539E+03  0.19900000000E+03 0.  0.
   -5000001    1    1    2    0    0  0.26644282439E+03  0.16226940984E+02  0.80181041992E+03  0.86819124723E+03  0.19900000000E+03 0.  0.
<mgrwt>
<rscale>  0 0.82411280E+03</rscale>
<asrwt>0</asrwt>
<pdfrwt beam="1">  1        2 0.15012510E+00 0.82411280E+03</pdfrwt>
<pdfrwt beam="2">  1       -2 0.23081495E-01 0.82411280E+03</pdfrwt>
<totfact> 0.43357488E+02</totfact>
</mgrwt>
</event>
<event>
 4    1  0.5131465E-005  0.5417698E+03  0.7818608E-02  0.1003417E+00
         -2   -1    0    0    0  501 -0.00000000000E+00  0.00000000000E+00  0.27915548964E+03  0.27915548965E+03  0.25500000000E-02 0. -1.
          2   -1    0    0  501    0  0.00000000000E+00 -0.00000000000E+00 -0.26285932600E+03  0.26285932601E+03  0.25500000000E-02 0.  1.
    5000001    1    1    2    0    0  0.12362660456E+03  0.12858152596E+03 -0.36153744803E+02  0.26967543351E+03  0.19900000000E+03 0.  0.
   -5000001    1    1    2    0    0 -0.12362660456E+03 -0.12858152596E+03  0.52449908442E+02  0.27233938215E+03  0.19900000000E+03 0.  0.
<mgrwt>
<rscale>  0 0.54176978E+03</rscale>
<asrwt>0</asrwt>
<pdfrwt beam="1">  1        2 0.37551332E-01 0.54176978E+03</pdfrwt>
<pdfrwt beam="2">  1       -2 0.39879356E-01 0.54176978E+03</pdfrwt>
<totfact> 0.82555369E+02</totfact>
</mgrwt>
</event>
<event>
 4    1  0.5131465E-005  0.6916835E+03  0.7818608E-02  0.9731561E-01
         -2   -1    0    0    0  501 -0.00000000000E+00  0.00000000000E+00  0.90693134719E+03  0.90693134719E+03  0.25500000000E-02 0. -1.
          2   -1    0    0  501    0  0.00000000000E+00 -0.00000000000E+00 -0.13188044747E+03  0.13188044749E+03  0.25500000000E-02 0.  1.
    5000001    1    1    2    0    0  0.19472505509E+03  0.98574810857E+01  0.79770561258E+02  0.28979192441E+03  0.19900000000E+03 0.  0.
   -5000001    1    1    2    0    0 -0.19472505509E+03 -0.98574810857E+01  0.69528033846E+03  0.74901987027E+03  0.19900000000E+03 0.  0.
<mgrwt>
<rscale>  0 0.69168349E+03</rscale>
<asrwt>0</asrwt>
<pdfrwt beam="1">  1        2 0.18840063E-01 0.69168349E+03</pdfrwt>
<pdfrwt beam="2">  1       -2 0.12956162E+00 0.69168349E+03</pdfrwt>
<totfact> 0.13514749E+02</totfact>
</mgrwt>
</event>
<event>
 4    1  0.5131465E-005  0.6048194E+03  0.7818608E-02  0.9895458E-01
          2   -1    0    0  501    0  0.00000000000E+00  0.00000000000E+00  0.23095726702E+04  0.23095726702E+04  0.25500000000E-02 0.  1.
         -2   -1    0    0    0  501 -0.00000000000E+00 -0.00000000000E+00 -0.39596771628E+02  0.39596771710E+02  0.25500000000E-02 0. -1.
    5000001    1    1    2    0    0 -0.13986434322E+03  0.17964901999E+03  0.11200371055E+04  0.11601378895E+04  0.19900000000E+03 0.  0.
   -5000001    1    1    2    0    0  0.13986434322E+03 -0.17964901999E+03  0.11499387931E+04  0.11890315524E+04  0.19900000000E+03 0.  0.
<mgrwt>
<rscale>  0 0.60481938E+03</rscale>
<asrwt>0</asrwt>
<pdfrwt beam="1">  1        2 0.32993893E+00 0.60481938E+03</pdfrwt>
<pdfrwt beam="2">  1       -2 0.56566821E-02 0.60481938E+03</pdfrwt>
<totfact> 0.97967068E+02</totfact>
</mgrwt>
</event>
<event>
 4    1  0.5131465E-005  0.7414552E+03  0.7818608E-02  0.9648852E-01
         -2   -1    0    0    0  501 -0.00000000000E+00  0.00000000000E+00  0.92045278171E+02  0.92045278207E+02  0.25500000000E-02 0. -1.
          2   -1    0    0  501    0  0.00000000000E+00 -0.00000000000E+00 -0.14931669760E+04  0.14931669760E+04  0.25500000000E-02 0.  1.
    5000001    1    1    2    0    0  0.17982140560E+03 -0.12860210264E+03 -0.22747524631E+03  0.37445991294E+03  0.19900000000E+03 0.  0.
   -5000001    1    1    2    0    0 -0.17982140560E+03  0.12860210264E+03 -0.11736464515E+04  0.12107523412E+04  0.19900000000E+03 0.  0.
<mgrwt>
<rscale>  0 0.74145524E+03</rscale>
<asrwt>0</asrwt>
<pdfrwt beam="1">  1        2 0.21330955E+00 0.74145524E+03</pdfrwt>
<pdfrwt beam="2">  1       -2 0.13149326E-01 0.74145524E+03</pdfrwt>
<totfact> 0.65083767E+02</totfact>
</mgrwt>
</event>
<event>
 4    1  0.5131465E-005  0.5825020E+03  0.7818608E-02  0.9942389E-01
         -2   -1    0    0    0  501 -0.00000000000E+00  0.00000000000E+00  0.44338149825E+02  0.44338149898E+02  0.25500000000E-02 0. -1.
          2   -1    0    0  501    0  0.00000000000E+00 -0.00000000000E+00 -0.19131862158E+04  0.19131862158E+04  0.25500000000E-02 0.  1.
    5000001    1    1    2    0    0 -0.77293721188E+02  0.19679675950E+03 -0.85758185072E+03  0.90540096894E+03  0.19900000000E+03 0.  0.
   -5000001    1    1    2    0    0  0.77293721188E+02 -0.19679675950E+03 -0.10112662153E+04  0.10521233968E+04  0.19900000000E+03 0.  0.
<mgrwt>
<rscale>  0 0.58250197E+03</rscale>
<asrwt>0</asrwt>
<pdfrwt beam="1">  1        2 0.27331227E+00 0.58250197E+03</pdfrwt>
<pdfrwt beam="2">  1       -2 0.63340226E-02 0.58250197E+03</pdfrwt>
<totfact> 0.13006326E+03</totfact>
</mgrwt>
</event>
<event>
 4    1  0.5131465E-005  0.6005231E+03  0.7818608E-02  0.9904321E-01
          2   -1    0    0  501    0  0.00000000000E+00  0.00000000000E+00  0.61556833879E+03  0.61556833879E+03  0.25500000000E-02 0.  1.
         -2   -1    0    0    0  501 -0.00000000000E+00 -0.00000000000E+00 -0.14646138951E+03  0.14646138953E+03  0.25500000000E-02 0. -1.
    5000001    1    1    2    0    0 -0.12585587040E+03  0.14348515357E+03  0.38538330237E+03  0.47386599282E+03  0.19900000000E+03 0.  0.
   -5000001    1    1    2    0    0  0.12585587040E+03 -0.14348515357E+03  0.83723646912E+02  0.28816373550E+03  0.19900000000E+03 0.  0.
<mgrwt>
<rscale>  0 0.60052309E+03</rscale>
<asrwt>0</asrwt>
<pdfrwt beam="1">  1        2 0.87938337E-01 0.60052309E+03</pdfrwt>
<pdfrwt beam="2">  1       -2 0.20923055E-01 0.60052309E+03</pdfrwt>
<totfact> 0.10391757E+03</totfact>
</mgrwt>
</event>
<event>
 4    1  0.5131465E-005  0.5138415E+03  0.7818608E-02  0.1010228E+00
          2   -1    0    0  501    0  0.00000000000E+00  0.00000000000E+00  0.93151962102E+03  0.93151962103E+03  0.25500000000E-02 0.  1.
         -2   -1    0    0    0  501 -0.00000000000E+00 -0.00000000000E+00 -0.70860847409E+02  0.70860847455E+02  0.25500000000E-02 0. -1.
    5000001    1    1    2    0    0 -0.80053282034E+02  0.14119731084E+03  0.41496152321E+03  0.48799515807E+03  0.19900000000E+03 0.  0.
   -5000001    1    1    2    0    0  0.80053282034E+02 -0.14119731084E+03  0.44569725041E+03  0.51438531042E+03  0.19900000000E+03 0.  0.
<mgrwt>
<rscale>  0 0.51384149E+03</rscale>
<asrwt>0</asrwt>
<pdfrwt beam="1">  1        2 0.13307423E+00 0.51384149E+03</pdfrwt>
<pdfrwt beam="2">  1       -2 0.10122978E-01 0.51384149E+03</pdfrwt>
<totfact> 0.20901887E+03</totfact>
</mgrwt>
</event>
<event>
 4    1  0.5131465E-005  0.7656453E+03  0.7818608E-02  0.9611120E-01
         -2   -1    0    0    0  501 -0.00000000000E+00  0.00000000000E+00  0.13818159891E+03  0.13818159894E+03  0.25500000000E-02 0. -1.
          2   -1    0    0  501    0  0.00000000000E+00 -0.00000000000E+00 -0.10605838473E+04  0.10605838473E+04  0.25500000000E-02 0.  1.
    5000001    1    1    2    0    0  0.28865617660E+03  0.89358734200E+02 -0.26536553485E+03  0.44869503981E+03  0.19900000000E+03 0.  0.
   -5000001    1    1    2    0    0 -0.28865617660E+03 -0.89358734200E+02 -0.65703671355E+03  0.75007040644E+03  0.19900000000E+03 0.  0.
<mgrwt>
<rscale>  0 0.76564528E+03</rscale>
<asrwt>0</asrwt>
<pdfrwt beam="1">  1        2 0.15151197E+00 0.76564528E+03</pdfrwt>
<pdfrwt beam="2">  1       -2 0.19740229E-01 0.76564528E+03</pdfrwt>
<totfact> 0.56517702E+02</totfact>
</mgrwt>
</event>
<event>
 4    1  0.5131465E-005  0.5143676E+03  0.7818608E-02  0.1010095E+00
         -2   -1    0    0    0  501 -0.00000000000E+00  0.00000000000E+00  0.10554126372E+03  0.10554126375E+03  0.25500000000E-02 0. -1.
          2   -1    0    0  501    0  0.00000000000E+00 -0.00000000000E+00 -0.62670752494E+03  0.62670752495E+03  0.25500000000E-02 0.  1.
    5000001    1    1    2    0    0 -0.33551422483E+02 -0.14038489150E+03 -0.36814562025E+03  0.44268026093E+03  0.19900000000E+03 0.  0.
   -5000001    1    1    2    0    0  0.33551422483E+02  0.14038489150E+03 -0.15302064097E+03  0.28956852777E+03  0.19900000000E+03 0.  0.
<mgrwt>
<rscale>  0 0.51436759E+03</rscale>
<asrwt>0</asrwt>
<pdfrwt beam="1">  1        2 0.89529644E-01 0.51436759E+03</pdfrwt>
<pdfrwt beam="2">  1       -2 0.15077324E-01 0.51436759E+03</pdfrwt>
<totfact> 0.17846382E+03</totfact>
</mgrwt>
</event>
<event>
 4    1  0.5131465E-005  0.4820560E+03  0.7818608E-02  0.1018572E+00
          2   -1    0    0  501    0  0.00000000000E+00  0.00000000000E+00  0.32741309521E+03  0.32741309522E+03  0.25500000000E-02 0.  1.
         -2   -1    0    0    0  501 -0.00000000000E+00 -0.00000000000E+00 -0.17743488363E+03  0.17743488365E+03  0.25500000000E-02 0. -1.
    5000001    1    1    2    0    0  0.13568283039E+03  0.74346134655E+01  0.69407923507E+02  0.25076595420E+03  0.19900000000E+03 0.  0.
   -5000001    1    1    2    0    0 -0.13568283039E+03 -0.74346134655E+01  0.80570288077E+02  0.25408202467E+03  0.19900000000E+03 0.  0.
<mgrwt>
<rscale>  0 0.48205603E+03</rscale>
<asrwt>0</asrwt>
<pdfrwt beam="1">  1        2 0.46773299E-01 0.48205603E+03</pdfrwt>
<pdfrwt beam="2">  1       -2 0.25347841E-01 0.48205603E+03</pdfrwt>
<totfact> 0.15064379E+03</totfact>
</mgrwt>
</event>
<event>
 4    1  0.5131465E-005  0.5389639E+03  0.7818608E-02  0.1004081E+00
          2   -1    0    0  501    0  0.00000000000E+00  0.00000000000E+00  0.59526859934E+03  0.59526859935E+03  0.25500000000E-02 0.  1.
         -2   -1    0    0    0  501 -0.00000000000E+00 -0.00000000000E+00 -0.12199620968E+03  0.12199620971E+03  0.25500000000E-02 0. -1.
    5000001    1    1    2    0    0 -0.15040398494E+03  0.24563969682E+02  0.10492675720E+03  0.27172664880E+03  0.19900000000E+03 0.  0.
   -5000001    1    1    2    0    0  0.15040398494E+03 -0.24563969682E+02  0.36834563246E+03  0.44553816026E+03  0.19900000000E+03 0.  0.
<mgrwt>
<rscale>  0 0.53896387E+03</rscale>
<asrwt>0</asrwt>
<pdfrwt beam="1">  1        2 0.85038371E-01 0.53896387E+03</pdfrwt>
<pdfrwt beam="2">  1       -2 0.17428030E-01 0.53896387E+03</pdfrwt>
<totfact> 0.14835739E+03</totfact>
</mgrwt>
</event>
<event>
 4    1  0.5131465E-005  0.6206827E+03  0.7818608E-02  0.9863401E-01
          2   -1    0    0  501    0  0.00000000000E+00  0.00000000000E+00  0.19767371891E+04  0.19767371891E+04  0.25500000000E-02 0.  1.
         -2   -1    0    0    0  501 -0.00000000000E+00 -0.00000000000E+00 -0.48722586910E+02  0.48722586976E+02  0.25500000000E-02 0. -1.
    5000001    1    1    2    0    0  0.18494143170E+03  0.14298811243E+03  0.11121836725E+04  0.11537774720E+04  0.19900000000E+03 0.  0.
   -5000001    1    1    2    0    0 -0.18494143170E+03 -0.14298811243E+03  0.81583092970E+03  0.87168230412E+03  0.19900000000E+03 0.  0.
<mgrwt>
<rscale>  0 0.62068269E+03</rscale>
<asrwt>0</asrwt>
<pdfrwt beam="1">  1        2 0.28239109E+00 0.62068269E+03</pdfrwt>
<pdfrwt beam="2">  1       -2 0.69603681E-02 0.62068269E+03</pdfrwt>
<totfact> 0.10395313E+03</totfact>
</mgrwt>
</event>
<event>
 4    1  0.5131465E-005  0.6349376E+03  0.7818608E-02  0.9835460E-01
         -2   -1    0    0    0  501 -0.00000000000E+00  0.00000000000E+00  0.58028853314E+02  0.58028853370E+02  0.25500000000E-02 0. -1.
          2   -1    0    0  501    0  0.00000000000E+00 -0.00000000000E+00 -0.17368333663E+04  0.17368333663E+04  0.25500000000E-02 0.  1.
    5000001    1    1    2    0    0 -0.13516962504E+03  0.15324676686E+03 -0.12334392565E+04  0.12659892569E+04  0.19900000000E+03 0.  0.
   -5000001    1    1    2    0    0  0.13516962504E+03 -0.15324676686E+03 -0.44536525655E+03  0.52887296285E+03  0.19900000000E+03 0.  0.
<mgrwt>
<rscale>  0 0.63493763E+03</rscale>
<asrwt>0</asrwt>
<pdfrwt beam="1">  1        2 0.24811902E+00 0.63493763E+03</pdfrwt>
<pdfrwt beam="2">  1       -2 0.82898373E-02 0.63493763E+03</pdfrwt>
<totfact> 0.10397280E+03</totfact>
</mgrwt>
</event>
<event>
 4    1  0.5131465E-005  0.7265907E+03  0.7818608E-02  0.9672809E-01
         -2   -1    0    0    0  501 -0.00000000000E+00  0.00000000000E+00  0.75544038196E+02  0.75544038239E+02  0.25500000000E-02 0. -1.
          2   -1    0    0  501    0  0.00000000000E+00 -0.00000000000E+00 -0.17471066952E+04  0.17471066952E+04  0.25500000000E-02 0.  1.
    5000001    1    1    2    0    0 -0.19484838283E+03  0.21297389263E+03 -0.59702925385E+03  0.69236457245E+03  0.19900000000E+03 0.  0.
   -5000001    1    1    2    0    0  0.19484838283E+03 -0.21297389263E+03 -0.10745334031E+04  0.11302861610E+04  0.19900000000E+03 0.  0.
<mgrwt>
<rscale>  0 0.72659065E+03</rscale>
<asrwt>0</asrwt>
<pdfrwt beam="1">  1        2 0.24958665E+00 0.72659065E+03</pdfrwt>
<pdfrwt beam="2">  1       -2 0.10792007E-01 0.72659065E+03</pdfrwt>
<totfact> 0.66724879E+02</totfact>
</mgrwt>
</event>
<event>
 4    1  0.5131465E-005  0.4883429E+03  0.7818608E-02  0.1016867E+00
         -2   -1    0    0    0  501 -0.00000000000E+00  0.00000000000E+00  0.74964313326E+02  0.74964313370E+02  0.25500000000E-02 0. -1.
          2   -1    0    0  501    0  0.00000000000E+00 -0.00000000000E+00 -0.79530781092E+03  0.79530781092E+03  0.25500000000E-02 0.  1.
    5000001    1    1    2    0    0 -0.96323640033E+02 -0.10287071090E+03 -0.38257776932E+03  0.45368202121E+03  0.19900000000E+03 0.  0.
   -5000001    1    1    2    0    0  0.96323640033E+02  0.10287071090E+03 -0.33776572827E+03  0.41659010308E+03  0.19900000000E+03 0.  0.
<mgrwt>
<rscale>  0 0.48834293E+03</rscale>
<asrwt>0</asrwt>
<pdfrwt beam="1">  1        2 0.11361540E+00 0.48834293E+03</pdfrwt>
<pdfrwt beam="2">  1       -2 0.10709188E-01 0.48834293E+03</pdfrwt>
<totfact> 0.23454594E+03</totfact>
</mgrwt>
</event>
<event>
 4    1  0.5131465E-005  0.4340871E+03  0.7818608E-02  0.1032577E+00
         -2   -1    0    0    0  501 -0.00000000000E+00  0.00000000000E+00  0.13756286023E+02  0.13756286259E+02  0.25500000000E-02 0. -1.
          2   -1    0    0  501    0  0.00000000000E+00 -0.00000000000E+00 -0.34244641131E+04  0.34244641131E+04  0.25500000000E-02 0.  1.
    5000001    1    1    2    0    0  0.19904724204E+02 -0.54203111069E+02 -0.11937108374E+04  0.12115612814E+04  0.19900000000E+03 0.  0.
   -5000001    1    1    2    0    0 -0.19904724204E+02  0.54203111069E+02 -0.22169969896E+04  0.22266591179E+04  0.19900000000E+03 0.  0.
<mgrwt>
<rscale>  0 0.43408713E+03</rscale>
<asrwt>0</asrwt>
<pdfrwt beam="1">  1        2 0.48920861E+00 0.43408713E+03</pdfrwt>
<pdfrwt beam="2">  1       -2 0.19651859E-02 0.43408713E+03</pdfrwt>
<totfact> 0.12580793E+03</totfact>
</mgrwt>
</event>
<event>
 4    1  0.5131465E-005  0.7703141E+03  0.7818608E-02  0.9604009E-01
          2   -1    0    0  501    0  0.00000000000E+00  0.00000000000E+00  0.66879223248E+03  0.66879223248E+03  0.25500000000E-02 0.  1.
         -2   -1    0    0    0  501 -0.00000000000E+00 -0.00000000000E+00 -0.22181170655E+03  0.22181170656E+03  0.25500000000E-02 0. -1.
    5000001    1    1    2    0    0 -0.29809959485E+02  0.32839862940E+03  0.21971670047E+03  0.44340807609E+03  0.19900000000E+03 0.  0.
   -5000001    1    1    2    0    0  0.29809959485E+02 -0.32839862940E+03  0.22726382546E+03  0.44719586295E+03  0.19900000000E+03 0.  0.
<mgrwt>
<rscale>  0 0.77031408E+03</rscale>
<asrwt>0</asrwt>
<pdfrwt beam="1">  1        2 0.95541748E-01 0.77031408E+03</pdfrwt>
<pdfrwt beam="2">  1       -2 0.31687386E-01 0.77031408E+03</pdfrwt>
<totfact> 0.44213862E+02</totfact>
</mgrwt>
</event>
<event>
 4    1  0.5131465E-005  0.5855485E+03  0.7818608E-02  0.9935850E-01
         -2   -1    0    0    0  501 -0.00000000000E+00  0.00000000000E+00  0.87825552212E+02  0.87825552249E+02  0.25500000000E-02 0. -1.
          2   -1    0    0  501    0  0.00000000000E+00 -0.00000000000E+00 -0.97598887992E+03  0.97598887992E+03  0.25500000000E-02 0.  1.
    5000001    1    1    2    0    0 -0.34959800128E+02 -0.18148517937E+03 -0.24542243329E+03  0.36604948944E+03  0.19900000000E+03 0.  0.
   -5000001    1    1    2    0    0  0.34959800128E+02  0.18148517937E+03 -0.64274089441E+03  0.69776494273E+03  0.19900000000E+03 0.  0.
<mgrwt>
<rscale>  0 0.58554850E+03</rscale>
<asrwt>0</asrwt>
<pdfrwt beam="1">  1        2 0.13942698E+00 0.58554850E+03</pdfrwt>
<pdfrwt beam="2">  1       -2 0.12546508E-01 0.58554850E+03</pdfrwt>
<totfact> 0.13798431E+03</totfact>
</mgrwt>
</event>
<event>
 4    1  0.5131465E-005  0.5157676E+03  0.7818608E-02  0.1009743E+00
          2   -1    0    0  501    0  0.00000000000E+00  0.00000000000E+00  0.13936745962E+04  0.13936745962E+04  0.25500000000E-02 0.  1.
         -2   -1    0    0    0  501 -0.00000000000E+00 -0.00000000000E+00 -0.47718502961E+02  0.47718503029E+02  0.25500000000E-02 0. -1.
    5000001    1    1    2    0    0  0.11954087164E+03 -0.11363568131E+02  0.36072711538E+03  0.42912026571E+03  0.19900000000E+03 0.  0.
   -5000001    1    1    2    0    0 -0.11954087164E+03  0.11363568131E+02  0.98522897781E+03  0.10122728335E+04  0.19900000000E+03 0.  0.
<mgrwt>
<rscale>  0 0.51576764E+03</rscale>
<asrwt>0</asrwt>
<pdfrwt beam="1">  1        2 0.19909635E+00 0.51576764E+03</pdfrwt>
<pdfrwt beam="2">  1       -2 0.68169296E-02 0.51576764E+03</pdfrwt>
<totfact> 0.21412254E+03</totfact>
</mgrwt>
</event>
<event>
 4    1  0.5131465E-005  0.5310895E+03  0.7818608E-02  0.1005968E+00
         -2   -1    0    0    0  501 -0.00000000000E+00  0.00000000000E+00  0.10063659227E+04  0.10063659227E+04  0.25500000000E-02 0. -1.
          2   -1    0    0  501    0  0.00000000000E+00 -0.00000000000E+00 -0.70067977707E+02  0.70067977753E+02  0.25500000000E-02 0.  1.
    5000001    1    1    2    0    0  0.13533315416E+03  0.10711760427E+03  0.40020350064E+03  0.47911698539E+03  0.19900000000E+03 0.  0.
   -5000001    1    1    2    0    0 -0.13533315416E+03 -0.10711760427E+03  0.53609444430E+03  0.59731691502E+03  0.19900000000E+03 0.  0.
<mgrwt>
<rscale>  0 0.53108954E+03</rscale>
<asrwt>0</asrwt>
<pdfrwt beam="1">  1        2 0.10009711E-01 0.53108954E+03</pdfrwt>
<pdfrwt beam="2">  1       -2 0.14376656E+00 0.53108954E+03</pdfrwt>
<totfact> 0.22603157E+02</totfact>
</mgrwt>
</event>
<event>
 4    1  0.5131465E-005  0.1275258E+04  0.7818608E-02  0.9049419E-01
          2   -1    0    0  501    0  0.00000000000E+00  0.00000000000E+00  0.48296781913E+04  0.48296781913E+04  0.25500000000E-02 0.  1.
         -2   -1    0    0    0  501 -0.00000000000E+00 -0.00000000000E+00 -0.84181774740E+02  0.84181774779E+02  0.25500000000E-02 0. -1.
    5000001    1    1    2    0    0 -0.10657782927E+03  0.59536374241E+03  0.22419050521E+04  0.23305699050E+04  0.19900000000E+03 0.  0.
   -5000001    1    1    2    0    0  0.10657782927E+03 -0.59536374241E+03  0.25035913644E+04  0.25832900611E+04  0.19900000000E+03 0.  0.
<mgrwt>
<rscale>  0 0.12752582E+04</rscale>
<asrwt>0</asrwt>
<pdfrwt beam="1">  1        2 0.68995403E+00 0.12752582E+04</pdfrwt>
<pdfrwt beam="2">  1       -2 0.12025968E-01 0.12752582E+04</pdfrwt>
<totfact> 0.67004294E+00</totfact>
</mgrwt>
</event>
<event>
 4    1  0.5131465E-005  0.5676898E+03  0.7818608E-02  0.9974804E-01
         -2   -1    0    0    0  501 -0.00000000000E+00  0.00000000000E+00  0.13155718744E+03  0.13155718747E+03  0.25500000000E-02 0. -1.
          2   -1    0    0  501    0  0.00000000000E+00 -0.00000000000E+00 -0.61241750439E+03  0.61241750439E+03  0.25500000000E-02 0.  1.
    5000001    1    1    2    0    0 -0.87477689987E+02  0.17591038397E+03 -0.30423179048E+03  0.41322486829E+03  0.19900000000E+03 0.  0.
   -5000001    1    1    2    0    0  0.87477689987E+02 -0.17591038397E+03 -0.17662852646E+03  0.33074982357E+03  0.19900000000E+03 0.  0.
<mgrwt>
<rscale>  0 0.56768979E+03</rscale>
<asrwt>0</asrwt>
<pdfrwt beam="1">  1        2 0.87488213E-01 0.56768979E+03</pdfrwt>
<pdfrwt beam="2">  1       -2 0.18793884E-01 0.56768979E+03</pdfrwt>
<totfact> 0.12604147E+03</totfact>
</mgrwt>
</event>
<event>
 4    1  0.5131465E-005  0.5749847E+03  0.7818608E-02  0.9958708E-01
         -2   -1    0    0    0  501 -0.00000000000E+00  0.00000000000E+00  0.13084493012E+03  0.13084493015E+03  0.25500000000E-02 0. -1.
          2   -1    0    0  501    0  0.00000000000E+00 -0.00000000000E+00 -0.63167798438E+03  0.63167798438E+03  0.25500000000E-02 0.  1.
    5000001    1    1    2    0    0 -0.92532515277E+02 -0.13819441517E+03 -0.41494026844E+03  0.48932237752E+03  0.19900000000E+03 0.  0.
   -5000001    1    1    2    0    0  0.92532515277E+02  0.13819441517E+03 -0.85892785809E+02  0.27320053701E+03  0.19900000000E+03 0.  0.
<mgrwt>
<rscale>  0 0.57498474E+03</rscale>
<asrwt>0</asrwt>
<pdfrwt beam="1">  1        2 0.90239710E-01 0.57498474E+03</pdfrwt>
<pdfrwt beam="2">  1       -2 0.18692133E-01 0.57498474E+03</pdfrwt>
<totfact> 0.12263923E+03</totfact>
</mgrwt>
</event>
<event>
 4    1  0.5131465E-005  0.6193437E+03  0.7818608E-02  0.9866067E-01
          2   -1    0    0  501    0  0.00000000000E+00  0.00000000000E+00  0.24732147765E+04  0.24732147765E+04  0.25500000000E-02 0.  1.
         -2   -1    0    0    0  501 -0.00000000000E+00 -0.00000000000E+00 -0.38774087397E+02  0.38774087481E+02  0.25500000000E-02 0. -1.
    5000001    1    1    2    0    0  0.12276551755E+01  0.21284543524E+03  0.79201001114E+03  0.84391086270E+03  0.19900000000E+03 0.  0.
   -5000001    1    1    2    0    0 -0.12276551755E+01 -0.21284543524E+03  0.16424306780E+04  0.16680780013E+04  0.19900000000E+03 0.  0.
<mgrwt>
<rscale>  0 0.61934367E+03</rscale>
<asrwt>0</asrwt>
<pdfrwt beam="1">  1        2 0.35331637E+00 0.61934367E+03</pdfrwt>
<pdfrwt beam="2">  1       -2 0.55391558E-02 0.61934367E+03</pdfrwt>
<totfact> 0.83469100E+02</totfact>
</mgrwt>
</event>
<event>
 4    1  0.5131465E-005  0.5160862E+03  0.7818608E-02  0.1009663E+00
          2   -1    0    0  501    0  0.00000000000E+00  0.00000000000E+00  0.21909358176E+04  0.21909358176E+04  0.25500000000E-02 0.  1.
         -2   -1    0    0    0  501 -0.00000000000E+00 -0.00000000000E+00 -0.30391689973E+02  0.30391690080E+02  0.25500000000E-02 0. -1.
    5000001    1    1    2    0    0 -0.64617851973E+02  0.14997189138E+03  0.10034925467E+04  0.10359851960E+04  0.19900000000E+03 0.  0.
   -5000001    1    1    2    0    0  0.64617851973E+02 -0.14997189138E+03  0.11570515809E+04  0.11853423117E+04  0.19900000000E+03 0.  0.
<mgrwt>
<rscale>  0 0.51608620E+03</rscale>
<asrwt>0</asrwt>
<pdfrwt beam="1">  1        2 0.31299084E+00 0.51608620E+03</pdfrwt>
<pdfrwt beam="2">  1       -2 0.43416699E-02 0.51608620E+03</pdfrwt>
<totfact> 0.17025258E+03</totfact>
</mgrwt>
</event>
<event>
 4    1  0.5131465E-005  0.7202107E+03  0.7818608E-02  0.9683280E-01
         -2   -1    0    0    0  501 -0.00000000000E+00  0.00000000000E+00  0.27393204899E+03  0.27393204900E+03  0.25500000000E-02 0. -1.
          2   -1    0    0  501    0  0.00000000000E+00 -0.00000000000E+00 -0.47338696850E+03  0.47338696851E+03  0.25500000000E-02 0.  1.
    5000001    1    1    2    0    0  0.20513672419E+03 -0.12797299758E+03  0.84776089657E+02  0.32441662889E+03  0.19900000000E+03 0.  0.
   -5000001    1    1    2    0    0 -0.20513672419E+03  0.12797299758E+03 -0.28423100917E+03  0.42290238862E+03  0.19900000000E+03 0.  0.
<mgrwt>
<rscale>  0 0.72021070E+03</rscale>
<asrwt>0</asrwt>
<pdfrwt beam="1">  1        2 0.67626709E-01 0.72021070E+03</pdfrwt>
<pdfrwt beam="2">  1       -2 0.39133150E-01 0.72021070E+03</pdfrwt>
<totfact> 0.44403765E+02</totfact>
</mgrwt>
</event>
<event>
 4    1  0.5131465E-005  0.5367768E+03  0.7818608E-02  0.1004602E+00
          2   -1    0    0  501    0  0.00000000000E+00  0.00000000000E+00  0.17870357758E+04  0.17870357758E+04  0.25500000000E-02 0.  1.
         -2   -1    0    0    0  501 -0.00000000000E+00 -0.00000000000E+00 -0.40308273233E+02  0.40308273314E+02  0.25500000000E-02 0. -1.
    5000001    1    1    2    0    0  0.79439397876E+01  0.17814426847E+03  0.78772437177E+03  0.83181077923E+03  0.19900000000E+03 0.  0.
   -5000001    1    1    2    0    0 -0.79439397876E+01 -0.17814426847E+03  0.95900313079E+03  0.99553326987E+03  0.19900000000E+03 0.  0.
<mgrwt>
<rscale>  0 0.53677677E+03</rscale>
<asrwt>0</asrwt>
<pdfrwt beam="1">  1        2 0.25529085E+00 0.53677677E+03</pdfrwt>
<pdfrwt beam="2">  1       -2 0.57583241E-02 0.53677677E+03</pdfrwt>
<totfact> 0.17505314E+03</totfact>
</mgrwt>
</event>
<event>
 4    1  0.5131465E-005  0.7258543E+03  0.7818608E-02  0.9674012E-01
         -2   -1    0    0    0  501 -0.00000000000E+00  0.00000000000E+00  0.89836762859E+02  0.89836762896E+02  0.25500000000E-02 0. -1.
          2   -1    0    0  501    0  0.00000000000E+00 -0.00000000000E+00 -0.14661718534E+04  0.14661718534E+04  0.25500000000E-02 0.  1.
    5000001    1    1    2    0    0  0.22382416129E+03 -0.20362357472E+03 -0.63765103928E+03  0.73332098242E+03  0.19900000000E+03 0.  0.
   -5000001    1    1    2    0    0 -0.22382416129E+03  0.20362357472E+03 -0.73868405126E+03  0.82268763388E+03  0.19900000000E+03 0.  0.
<mgrwt>
<rscale>  0 0.72585435E+03</rscale>
<asrwt>0</asrwt>
<pdfrwt beam="1">  1        2 0.20945311E+00 0.72585435E+03</pdfrwt>
<pdfrwt beam="2">  1       -2 0.12833824E-01 0.72585435E+03</pdfrwt>
<totfact> 0.70077109E+02</totfact>
</mgrwt>
</event>
<event>
 4    1  0.5131465E-005  0.7299770E+03  0.7818608E-02  0.9667298E-01
          2   -1    0    0  501    0  0.00000000000E+00  0.00000000000E+00  0.10623438267E+04  0.10623438267E+04  0.25500000000E-02 0.  1.
         -2   -1    0    0    0  501 -0.00000000000E+00 -0.00000000000E+00 -0.12539876641E+03  0.12539876644E+03  0.25500000000E-02 0. -1.
    5000001    1    1    2    0    0 -0.17829727438E+03 -0.11732983464E+03  0.82517187657E+03  0.87525186890E+03  0.19900000000E+03 0.  0.
   -5000001    1    1    2    0    0  0.17829727438E+03  0.11732983464E+03  0.11177318375E+03  0.31249072426E+03  0.19900000000E+03 0.  0.
<mgrwt>
<rscale>  0 0.72997700E+03</rscale>
<asrwt>0</asrwt>
<pdfrwt beam="1">  1        2 0.15176340E+00 0.72997700E+03</pdfrwt>
<pdfrwt beam="2">  1       -2 0.17914110E-01 0.72997700E+03</pdfrwt>
<totfact> 0.66813469E+02</totfact>
</mgrwt>
</event>
<event>
 4    1  0.5131465E-005  0.5568909E+03  0.7818608E-02  0.9999114E-01
          2   -1    0    0  501    0  0.00000000000E+00  0.00000000000E+00  0.16198859123E+04  0.16198859123E+04  0.25500000000E-02 0.  1.
         -2   -1    0    0    0  501 -0.00000000000E+00 -0.00000000000E+00 -0.47862550314E+02  0.47862550382E+02  0.25500000000E-02 0. -1.
    5000001    1    1    2    0    0 -0.19036247887E+03 -0.37653077302E+02  0.83569595134E+03  0.88070673364E+03  0.19900000000E+03 0.  0.
   -5000001    1    1    2    0    0  0.19036247887E+03  0.37653077302E+02  0.73632741065E+03  0.78704172905E+03  0.19900000000E+03 0.  0.
<mgrwt>
<rscale>  0 0.55689091E+03</rscale>
<asrwt>0</asrwt>
<pdfrwt beam="1">  1        2 0.23141234E+00 0.55689091E+03</pdfrwt>
<pdfrwt beam="2">  1       -2 0.68375052E-02 0.55689091E+03</pdfrwt>
<totfact> 0.16244340E+03</totfact>
</mgrwt>
</event>
<event>
 4    1  0.5131465E-005  0.5995757E+03  0.7818608E-02  0.9906287E-01
          2   -1    0    0  501    0  0.00000000000E+00  0.00000000000E+00  0.23588892080E+04  0.23588892080E+04  0.25500000000E-02 0.  1.
         -2   -1    0    0    0  501 -0.00000000000E+00 -0.00000000000E+00 -0.38099605269E+02  0.38099605355E+02  0.25500000000E-02 0. -1.
    5000001    1    1    2    0    0  0.15593776746E+03  0.15792378038E+03  0.12877763067E+04  0.13218265105E+04  0.19900000000E+03 0.  0.
   -5000001    1    1    2    0    0 -0.15593776746E+03 -0.15792378038E+03  0.10330132960E+04  0.10751623028E+04  0.19900000000E+03 0.  0.
<mgrwt>
<rscale>  0 0.59957568E+03</rscale>
<asrwt>0</asrwt>
<pdfrwt beam="1">  1        2 0.33698407E+00 0.59957568E+03</pdfrwt>
<pdfrwt beam="2">  1       -2 0.54428024E-02 0.59957568E+03</pdfrwt>
<totfact> 0.98248495E+02</totfact>
</mgrwt>
</event>
<event>
 4    1  0.5131465E-005  0.6502701E+03  0.7818608E-02  0.9806273E-01
          2   -1    0    0  501    0  0.00000000000E+00  0.00000000000E+00  0.64834953023E+03  0.64834953023E+03  0.25500000000E-02 0.  1.
         -2   -1    0    0    0  501 -0.00000000000E+00 -0.00000000000E+00 -0.16304907365E+03  0.16304907367E+03  0.25500000000E-02 0. -1.
    5000001    1    1    2    0    0  0.23776972195E+03  0.72249166772E+02  0.16028297521E+03  0.35643514826E+03  0.19900000000E+03 0.  0.
   -5000001    1    1    2    0    0 -0.23776972195E+03 -0.72249166772E+02  0.32501748136E+03  0.45496345564E+03  0.19900000000E+03 0.  0.
<mgrwt>
<rscale>  0 0.65027007E+03</rscale>
<asrwt>0</asrwt>
<pdfrwt beam="1">  1        2 0.92621363E-01 0.65027007E+03</pdfrwt>
<pdfrwt beam="2">  1       -2 0.23292725E-01 0.65027007E+03</pdfrwt>
<totfact> 0.80752373E+02</totfact>
</mgrwt>
</event>
<event>
 4    1  0.5131465E-005  0.4425996E+03  0.7818608E-02  0.1029952E+00
          2   -1    0    0  501    0  0.00000000000E+00  0.00000000000E+00  0.79683809492E+03  0.79683809493E+03  0.25500000000E-02 0.  1.
         -2   -1    0    0    0  501 -0.00000000000E+00 -0.00000000000E+00 -0.61459913217E+02  0.61459913270E+02  0.25500000000E-02 0. -1.
    5000001    1    1    2    0    0  0.27625788773E+02 -0.87297763225E+02  0.30671868885E+03  0.37691038426E+03  0.19900000000E+03 0.  0.
   -5000001    1    1    2    0    0 -0.27625788773E+02  0.87297763225E+02  0.42865949285E+03  0.48138762394E+03  0.19900000000E+03 0.  0.
<mgrwt>
<rscale>  0 0.44259959E+03</rscale>
<asrwt>0</asrwt>
<pdfrwt beam="1">  1        2 0.11383402E+00 0.44259959E+03</pdfrwt>
<pdfrwt beam="2">  1       -2 0.87799875E-02 0.44259959E+03</pdfrwt>
<totfact> 0.32177731E+03</totfact>
</mgrwt>
</event>
<event>
 4    1  0.5131465E-005  0.5691153E+03  0.7818608E-02  0.9971638E-01
          2   -1    0    0  501    0  0.00000000000E+00  0.00000000000E+00  0.36033064148E+03  0.36033064149E+03  0.25500000000E-02 0.  1.
         -2   -1    0    0    0  501 -0.00000000000E+00 -0.00000000000E+00 -0.22471876073E+03  0.22471876075E+03  0.25500000000E-02 0. -1.
    5000001    1    1    2    0    0  0.45590528077E+02  0.16094593856E+03  0.18676074365E+03  0.32009790184E+03  0.19900000000E+03 0.  0.
   -5000001    1    1    2    0    0 -0.45590528077E+02 -0.16094593856E+03 -0.51148862900E+02  0.26495150040E+03  0.19900000000E+03 0.  0.
<mgrwt>
<rscale>  0 0.56911530E+03</rscale>
<asrwt>0</asrwt>
<pdfrwt beam="1">  1        2 0.51475806E-01 0.56911530E+03</pdfrwt>
<pdfrwt beam="2">  1       -2 0.32102680E-01 0.56911530E+03</pdfrwt>
<totfact> 0.88036424E+02</totfact>
</mgrwt>
</event>
<event>
 4    1  0.5131465E-005  0.6433267E+03  0.7818608E-02  0.9819382E-01
         -2   -1    0    0    0  501 -0.00000000000E+00  0.00000000000E+00  0.57695802120E+02  0.57695802176E+02  0.25500000000E-02 0. -1.
          2   -1    0    0  501    0  0.00000000000E+00 -0.00000000000E+00 -0.17933246841E+04  0.17933246841E+04  0.25500000000E-02 0.  1.
    5000001    1    1    2    0    0  0.75485428290E+02 -0.22834931145E+03 -0.10911473458E+04  0.11349206969E+04  0.19900000000E+03 0.  0.
   -5000001    1    1    2    0    0 -0.75485428290E+02  0.22834931145E+03 -0.64448153621E+03  0.71609978945E+03  0.19900000000E+03 0.  0.
<mgrwt>
<rscale>  0 0.64332669E+03</rscale>
<asrwt>0</asrwt>
<pdfrwt beam="1">  1        2 0.25618921E+00 0.64332669E+03</pdfrwt>
<pdfrwt beam="2">  1       -2 0.82422586E-02 0.64332669E+03</pdfrwt>
<totfact> 0.98193862E+02</totfact>
</mgrwt>
</event>
<event>
 4    1  0.5131465E-005  0.5441400E+03  0.7818608E-02  0.1002859E+00
         -2   -1    0    0    0  501 -0.00000000000E+00  0.00000000000E+00  0.32014847916E+02  0.32014848017E+02  0.25500000000E-02 0. -1.
          2   -1    0    0  501    0  0.00000000000E+00 -0.00000000000E+00 -0.23121173287E+04  0.23121173288E+04  0.25500000000E-02 0.  1.
    5000001    1    1    2    0    0 -0.17531272221E+03  0.60125771926E+02 -0.11036430717E+04  0.11366524045E+04  0.19900000000E+03 0.  0.
   -5000001    1    1    2    0    0  0.17531272221E+03 -0.60125771926E+02 -0.11764594092E+04  0.12074797723E+04  0.19900000000E+03 0.  0.
<mgrwt>
<rscale>  0 0.54414000E+03</rscale>
<asrwt>0</asrwt>
<pdfrwt beam="1">  1        2 0.33030237E+00 0.54414000E+03</pdfrwt>
<pdfrwt beam="2">  1       -2 0.45735512E-02 0.54414000E+03</pdfrwt>
<totfact> 0.13636236E+03</totfact>
</mgrwt>
</event>
<event>
 4    1  0.5131465E-005  0.6347540E+03  0.7818608E-02  0.9835815E-01
         -2   -1    0    0    0  501 -0.00000000000E+00  0.00000000000E+00  0.20373022505E+03  0.20373022506E+03  0.25500000000E-02 0. -1.
          2   -1    0    0  501    0  0.00000000000E+00 -0.00000000000E+00 -0.49441937384E+03  0.49441937385E+03  0.25500000000E-02 0.  1.
    5000001    1    1    2    0    0 -0.13284849178E+03  0.20759423840E+03 -0.16687180563E+03  0.35803811123E+03  0.19900000000E+03 0.  0.
   -5000001    1    1    2    0    0  0.13284849178E+03 -0.20759423840E+03 -0.12381734317E+03  0.34011148768E+03  0.19900000000E+03 0.  0.
<mgrwt>
<rscale>  0 0.63475403E+03</rscale>
<asrwt>0</asrwt>
<pdfrwt beam="1">  1        2 0.70631339E-01 0.63475403E+03</pdfrwt>
<pdfrwt beam="2">  1       -2 0.29104318E-01 0.63475403E+03</pdfrwt>
<totfact> 0.74062691E+02</totfact>
</mgrwt>
</event>
<event>
 4    1  0.5131465E-005  0.7126992E+03  0.7818608E-02  0.9695758E-01
         -2   -1    0    0    0  501 -0.00000000000E+00  0.00000000000E+00  0.48500593643E+03  0.48500593643E+03  0.25500000000E-02 0. -1.
          2   -1    0    0  501    0  0.00000000000E+00 -0.00000000000E+00 -0.26182159286E+03  0.26182159288E+03  0.25500000000E-02 0.  1.
    5000001    1    1    2    0    0 -0.17034666218E+03 -0.23662437084E+03  0.60525074076E+02  0.35815270875E+03  0.19900000000E+03 0.  0.
   -5000001    1    1    2    0    0  0.17034666218E+03  0.23662437084E+03  0.16265926949E+03  0.38867482056E+03  0.19900000000E+03 0.  0.
<mgrwt>
<rscale>  0 0.71269917E+03</rscale>
<asrwt>0</asrwt>
<pdfrwt beam="1">  1        2 0.37403085E-01 0.71269917E+03</pdfrwt>
<pdfrwt beam="2">  1       -2 0.69286561E-01 0.71269917E+03</pdfrwt>
<totfact> 0.26632915E+02</totfact>
</mgrwt>
</event>
<event>
 4    1  0.5131465E-005  0.6411381E+03  0.7818608E-02  0.9823551E-01
         -2   -1    0    0    0  501 -0.00000000000E+00  0.00000000000E+00  0.10474530515E+03  0.10474530518E+03  0.25500000000E-02 0. -1.
          2   -1    0    0  501    0  0.00000000000E+00 -0.00000000000E+00 -0.98108942639E+03  0.98108942639E+03  0.25500000000E-02 0.  1.
    5000001    1    1    2    0    0  0.24344557263E+03  0.38775686279E+02 -0.52104129656E+03  0.60979860069E+03  0.19900000000E+03 0.  0.
   -5000001    1    1    2    0    0 -0.24344557263E+03 -0.38775686279E+02 -0.35530282468E+03  0.47603613088E+03  0.19900000000E+03 0.  0.
<mgrwt>
<rscale>  0 0.64113809E+03</rscale>
<asrwt>0</asrwt>
<pdfrwt beam="1">  1        2 0.14015563E+00 0.64113809E+03</pdfrwt>
<pdfrwt beam="2">  1       -2 0.14963616E-01 0.64113809E+03</pdfrwt>
<totfact> 0.10197081E+03</totfact>
</mgrwt>
</event>
<event>
 4    1  0.5131465E-005  0.5876824E+03  0.7818608E-02  0.9931296E-01
          2   -1    0    0  501    0  0.00000000000E+00  0.00000000000E+00  0.39619053749E+03  0.39619053749E+03  0.25500000000E-02 0.  1.
         -2   -1    0    0    0  501 -0.00000000000E+00 -0.00000000000E+00 -0.21793215524E+03  0.21793215525E+03  0.25500000000E-02 0. -1.
    5000001    1    1    2    0    0  0.18367420554E+01 -0.20754282359E+03  0.15238575730E+03  0.32542251961E+03  0.19900000000E+03 0.  0.
   -5000001    1    1    2    0    0 -0.18367420554E+01  0.20754282359E+03  0.25872624949E+02  0.28870017313E+03  0.19900000000E+03 0.  0.
<mgrwt>
<rscale>  0 0.58768242E+03</rscale>
<asrwt>0</asrwt>
<pdfrwt beam="1">  1        2 0.56598648E-01 0.58768242E+03</pdfrwt>
<pdfrwt beam="2">  1       -2 0.31133165E-01 0.58768242E+03</pdfrwt>
<totfact> 0.83896105E+02</totfact>
</mgrwt>
</event>
<event>
 4    1  0.5131465E-005  0.7683993E+03  0.7818608E-02  0.9606919E-01
          2   -1    0    0  501    0  0.00000000000E+00  0.00000000000E+00  0.61452982082E+03  0.61452982082E+03  0.25500000000E-02 0.  1.
         -2   -1    0    0    0  501 -0.00000000000E+00 -0.00000000000E+00 -0.24019887864E+03  0.24019887865E+03  0.25500000000E-02 0. -1.
    5000001    1    1    2    0    0  0.15917700991E+03  0.28723287316E+03  0.20159732156E+03  0.43368482100E+03  0.19900000000E+03 0.  0.
   -5000001    1    1    2    0    0 -0.15917700991E+03 -0.28723287316E+03  0.17273362062E+03  0.42104387847E+03  0.19900000000E+03 0.  0.
<mgrwt>
<rscale>  0 0.76839931E+03</rscale>
<asrwt>0</asrwt>
<pdfrwt beam="1">  1        2 0.87789974E-01 0.76839931E+03</pdfrwt>
<pdfrwt beam="2">  1       -2 0.34314126E-01 0.76839931E+03</pdfrwt>
<totfact> 0.42138346E+02</totfact>
</mgrwt>
</event>
<event>
 4    1  0.5131465E-005  0.5617248E+03  0.7818608E-02  0.9988160E-01
          2   -1    0    0  501    0  0.00000000000E+00  0.00000000000E+00  0.23920602416E+04  0.23920602416E+04  0.25500000000E-02 0.  1.
         -2   -1    0    0    0  501 -0.00000000000E+00 -0.00000000000E+00 -0.32977299563E+02  0.32977299662E+02  0.25500000000E-02 0. -1.
    5000001    1    1    2    0    0 -0.75624930896E+02  0.17644199827E+03  0.96665068600E+03  0.10054180512E+04  0.19900000000E+03 0.  0.
   -5000001    1    1    2    0    0  0.75624930896E+02 -0.17644199827E+03  0.13924322561E+04  0.14196194901E+04  0.19900000000E+03 0.  0.
<mgrwt>
<rscale>  0 0.56172480E+03</rscale>
<asrwt>0</asrwt>
<pdfrwt beam="1">  1        2 0.34172298E+00 0.56172480E+03</pdfrwt>
<pdfrwt beam="2">  1       -2 0.47110415E-02 0.56172480E+03</pdfrwt>
<totfact> 0.11854370E+03</totfact>
</mgrwt>
</event>
<event>
 4    1  0.5131465E-005  0.4745090E+03  0.7818608E-02  0.1020655E+00
          2   -1    0    0  501    0  0.00000000000E+00  0.00000000000E+00  0.15624983807E+04  0.15624983807E+04  0.25500000000E-02 0.  1.
         -2   -1    0    0    0  501 -0.00000000000E+00 -0.00000000000E+00 -0.36025438891E+02  0.36025438981E+02  0.25500000000E-02 0. -1.
    5000001    1    1    2    0    0  0.40232791475E+02  0.15627847972E+02  0.11734249947E+04  0.11909618489E+04  0.19900000000E+03 0.  0.
   -5000001    1    1    2    0    0 -0.40232791475E+02 -0.15627847972E+02  0.35304794711E+03  0.40756197087E+03  0.19900000000E+03 0.  0.
<mgrwt>
<rscale>  0 0.47450897E+03</rscale>
<asrwt>0</asrwt>
<pdfrwt beam="1">  1        2 0.22321401E+00 0.47450897E+03</pdfrwt>
<pdfrwt beam="2">  1       -2 0.51464923E-02 0.47450897E+03</pdfrwt>
<totfact> 0.27130503E+03</totfact>
</mgrwt>
</event>
<event>
 4    1  0.5131465E-005  0.4962607E+03  0.7818608E-02  0.1014760E+00
          2   -1    0    0  501    0  0.00000000000E+00  0.00000000000E+00  0.12612923808E+03  0.12612923811E+03  0.25500000000E-02 0.  1.
         -2   -1    0    0    0  501 -0.00000000000E+00 -0.00000000000E+00 -0.48813957729E+03  0.48813957730E+03  0.25500000000E-02 0. -1.
    5000001    1    1    2    0    0 -0.63541005509E+02 -0.13030252647E+03 -0.21918596988E+03  0.32963570374E+03  0.19900000000E+03 0.  0.
   -5000001    1    1    2    0    0  0.63541005509E+02  0.13030252647E+03 -0.14282436932E+03  0.28463311167E+03  0.19900000000E+03 0.  0.
<mgrwt>
<rscale>  0 0.49626071E+03</rscale>
<asrwt>0</asrwt>
<pdfrwt beam="1">  1        2 0.18018463E-01 0.49626071E+03</pdfrwt>
<pdfrwt beam="2">  1       -2 0.69734224E-01 0.49626071E+03</pdfrwt>
<totfact> 0.60699151E+02</totfact>
</mgrwt>
</event>
<event>
 4    1  0.5131465E-005  0.7781758E+03  0.7818608E-02  0.9592155E-01
         -2   -1    0    0    0  501 -0.00000000000E+00  0.00000000000E+00  0.20651684126E+03  0.20651684127E+03  0.25500000000E-02 0. -1.
          2   -1    0    0  501    0  0.00000000000E+00 -0.00000000000E+00 -0.73306083212E+03  0.73306083212E+03  0.25500000000E-02 0.  1.
    5000001    1    1    2    0    0 -0.60311531783E+02 -0.17936921237E+03 -0.59608306941E+03  0.65629781414E+03  0.19900000000E+03 0.  0.
   -5000001    1    1    2    0    0  0.60311531783E+02  0.17936921237E+03  0.69539078552E+02  0.28327985925E+03  0.19900000000E+03 0.  0.
<mgrwt>
<rscale>  0 0.77817583E+03</rscale>
<asrwt>0</asrwt>
<pdfrwt beam="1">  1        2 0.10472297E+00 0.77817583E+03</pdfrwt>
<pdfrwt beam="2">  1       -2 0.29502406E-01 0.77817583E+03</pdfrwt>
<totfact> 0.45083858E+02</totfact>
</mgrwt>
</event>
<event>
 4    1  0.5131465E-005  0.6416903E+03  0.7818608E-02  0.9822498E-01
         -2   -1    0    0    0  501 -0.00000000000E+00  0.00000000000E+00  0.12141415520E+03  0.12141415523E+03  0.25500000000E-02 0. -1.
          2   -1    0    0  501    0  0.00000000000E+00 -0.00000000000E+00 -0.84785516565E+03  0.84785516565E+03  0.25500000000E-02 0.  1.
    5000001    1    1    2    0    0 -0.24231933114E+03 -0.10497816955E+02 -0.26176122185E+03  0.40859368530E+03  0.19900000000E+03 0.  0.
   -5000001    1    1    2    0    0  0.24231933114E+03  0.10497816955E+02 -0.46467978860E+03  0.56067563558E+03  0.19900000000E+03 0.  0.
<mgrwt>
<rscale>  0 0.64169033E+03</rscale>
<asrwt>0</asrwt>
<pdfrwt beam="1">  1        2 0.12112216E+00 0.64169033E+03</pdfrwt>
<pdfrwt beam="2">  1       -2 0.17344880E-01 0.64169033E+03</pdfrwt>
<totfact> 0.96616395E+02</totfact>
</mgrwt>
</event>
<event>
 4    1  0.5131465E-005  0.5049627E+03  0.7818608E-02  0.1012492E+00
          2   -1    0    0  501    0  0.00000000000E+00  0.00000000000E+00  0.24439131645E+03  0.24439131646E+03  0.25500000000E-02 0.  1.
         -2   -1    0    0    0  501 -0.00000000000E+00 -0.00000000000E+00 -0.26083918351E+03  0.26083918352E+03  0.25500000000E-02 0. -1.
    5000001    1    1    2    0    0 -0.14907562919E+03 -0.21153549452E+02 -0.46647628031E+02  0.25386614007E+03  0.19900000000E+03 0.  0.
   -5000001    1    1    2    0    0  0.14907562919E+03  0.21153549452E+02  0.30199760968E+02  0.25136435991E+03  0.19900000000E+03 0.  0.
<mgrwt>
<rscale>  0 0.50496270E+03</rscale>
<asrwt>0</asrwt>
<pdfrwt beam="1">  1        2 0.34913045E-01 0.50496270E+03</pdfrwt>
<pdfrwt beam="2">  1       -2 0.37262740E-01 0.50496270E+03</pdfrwt>
<totfact> 0.10197090E+03</totfact>
</mgrwt>
</event>
<event>
 4    1  0.5131465E-005  0.4374084E+03  0.7818608E-02  0.1031545E+00
         -2   -1    0    0    0  501 -0.00000000000E+00  0.00000000000E+00  0.12364632815E+03  0.12364632817E+03  0.25500000000E-02 0. -1.
          2   -1    0    0  501    0  0.00000000000E+00 -0.00000000000E+00 -0.38684145348E+03  0.38684145349E+03  0.25500000000E-02 0.  1.
    5000001    1    1    2    0    0  0.46697132573E+02 -0.62476067617E+02 -0.77524836764E+02  0.22736530415E+03  0.19900000000E+03 0.  0.
   -5000001    1    1    2    0    0 -0.46697132573E+02  0.62476067617E+02 -0.18567028857E+03  0.28312247751E+03  0.19900000000E+03 0.  0.
<mgrwt>
<rscale>  0 0.43740839E+03</rscale>
<asrwt>0</asrwt>
<pdfrwt beam="1">  1        2 0.55263064E-01 0.43740839E+03</pdfrwt>
<pdfrwt beam="2">  1       -2 0.17663761E-01 0.43740839E+03</pdfrwt>
<totfact> 0.23541525E+03</totfact>
</mgrwt>
</event>
<event>
 4    1  0.5131465E-005  0.5540348E+03  0.7818608E-02  0.1000564E+00
          2   -1    0    0  501    0  0.00000000000E+00  0.00000000000E+00  0.10975979214E+03  0.10975979217E+03  0.25500000000E-02 0.  1.
         -2   -1    0    0    0  501 -0.00000000000E+00 -0.00000000000E+00 -0.69915069104E+03  0.69915069104E+03  0.25500000000E-02 0. -1.
    5000001    1    1    2    0    0  0.10341599856E+03  0.11652194419E+03 -0.12908981074E+03  0.28379114058E+03  0.19900000000E+03 0.  0.
   -5000001    1    1    2    0    0 -0.10341599856E+03 -0.11652194419E+03 -0.46030108816E+03  0.52511934263E+03  0.19900000000E+03 0.  0.
<mgrwt>
<rscale>  0 0.55403478E+03</rscale>
<asrwt>0</asrwt>
<pdfrwt beam="1">  1        2 0.15679971E-01 0.55403478E+03</pdfrwt>
<pdfrwt beam="2">  1       -2 0.99878668E-01 0.55403478E+03</pdfrwt>
<totfact> 0.31839768E+02</totfact>
</mgrwt>
</event>
<event>
 4    1  0.5131465E-005  0.4416865E+03  0.7818608E-02  0.1030231E+00
          2   -1    0    0  501    0  0.00000000000E+00  0.00000000000E+00  0.12091549878E+03  0.12091549881E+03  0.25500000000E-02 0.  1.
         -2   -1    0    0    0  501 -0.00000000000E+00 -0.00000000000E+00 -0.40335385157E+03  0.40335385158E+03  0.25500000000E-02 0. -1.
    5000001    1    1    2    0    0 -0.83095531909E+02  0.45947804569E+02 -0.15598082928E+03  0.27008718457E+03  0.19900000000E+03 0.  0.
   -5000001    1    1    2    0    0  0.83095531909E+02 -0.45947804569E+02 -0.12645752351E+03  0.25418216582E+03  0.19900000000E+03 0.  0.
<mgrwt>
<rscale>  0 0.44168646E+03</rscale>
<asrwt>0</asrwt>
<pdfrwt beam="1">  1        2 0.17273643E-01 0.44168646E+03</pdfrwt>
<pdfrwt beam="2">  1       -2 0.57621978E-01 0.44168646E+03</pdfrwt>
<totfact> 0.95552773E+02</totfact>
</mgrwt>
</event>
<event>
 4    1  0.5131465E-005  0.5289903E+03  0.7818608E-02  0.1006477E+00
         -2   -1    0    0    0  501 -0.00000000000E+00  0.00000000000E+00  0.12331746119E+03  0.12331746122E+03  0.25500000000E-02 0. -1.
          2   -1    0    0  501    0  0.00000000000E+00 -0.00000000000E+00 -0.56729739949E+03  0.56729739950E+03  0.25500000000E-02 0.  1.
    5000001    1    1    2    0    0  0.98251403707E+02  0.35633140514E+02 -0.40398731246E+03  0.46230921218E+03  0.19900000000E+03 0.  0.
   -5000001    1    1    2    0    0 -0.98251403707E+02 -0.35633140514E+02 -0.39992625831E+02  0.22830564854E+03  0.19900000000E+03 0.  0.
<mgrwt>
<rscale>  0 0.52899026E+03</rscale>
<asrwt>0</asrwt>
<pdfrwt beam="1">  1        2 0.81042484E-01 0.52899026E+03</pdfrwt>
<pdfrwt beam="2">  1       -2 0.17616780E-01 0.52899026E+03</pdfrwt>
<totfact> 0.15404695E+03</totfact>
</mgrwt>
</event>
<event>
 4    1  0.5131465E-005  0.8903554E+03  0.7818608E-02  0.9437719E-01
          2   -1    0    0  501    0  0.00000000000E+00  0.00000000000E+00  0.61394199363E+03  0.61394199363E+03  0.25500000000E-02 0.  1.
         -2   -1    0    0    0  501 -0.00000000000E+00 -0.00000000000E+00 -0.32280440386E+03  0.32280440387E+03  0.25500000000E-02 0. -1.
    5000001    1    1    2    0    0 -0.26899355285E+03  0.22601761594E+03  0.34279460668E+03  0.52967030931E+03  0.19900000000E+03 0.  0.
   -5000001    1    1    2    0    0  0.26899355285E+03 -0.22601761594E+03 -0.51657016915E+02  0.40707608820E+03  0.19900000000E+03 0.  0.
<mgrwt>
<rscale>  0 0.89035539E+03</rscale>
<asrwt>0</asrwt>
<pdfrwt beam="1">  1        2 0.87705996E-01 0.89035539E+03</pdfrwt>
<pdfrwt beam="2">  1       -2 0.46114916E-01 0.89035539E+03</pdfrwt>
<totfact> 0.23602860E+02</totfact>
</mgrwt>
</event>
<event>
 4    1  0.5131465E-005  0.6871342E+03  0.7818608E-02  0.9739491E-01
          2   -1    0    0  501    0  0.00000000000E+00  0.00000000000E+00  0.23006101269E+04  0.23006101269E+04  0.25500000000E-02 0.  1.
         -2   -1    0    0    0  501 -0.00000000000E+00 -0.00000000000E+00 -0.51307415961E+02  0.51307416024E+02  0.25500000000E-02 0. -1.
    5000001    1    1    2    0    0 -0.20106312580E+03  0.18313715660E+03  0.13535376868E+04  0.13948587270E+04  0.19900000000E+03 0.  0.
   -5000001    1    1    2    0    0  0.20106312580E+03 -0.18313715660E+03  0.89576502413E+03  0.95705881593E+03  0.19900000000E+03 0.  0.
<mgrwt>
<rscale>  0 0.68713423E+03</rscale>
<asrwt>0</asrwt>
<pdfrwt beam="1">  1        2 0.32865860E+00 0.68713423E+03</pdfrwt>
<pdfrwt beam="2">  1       -2 0.73296306E-02 0.68713423E+03</pdfrwt>
<totfact> 0.65458541E+02</totfact>
</mgrwt>
</event>
<event>
 4    1  0.5131465E-005  0.4596945E+03  0.7818608E-02  0.1024870E+00
         -2   -1    0    0    0  501 -0.00000000000E+00  0.00000000000E+00  0.34988230225E+02  0.34988230318E+02  0.25500000000E-02 0. -1.
          2   -1    0    0  501    0  0.00000000000E+00 -0.00000000000E+00 -0.15099293191E+04  0.15099293191E+04  0.25500000000E-02 0.  1.
    5000001    1    1    2    0    0 -0.60104070815E+02 -0.94795587725E+02 -0.65311294987E+03  0.69192212573E+03  0.19900000000E+03 0.  0.
   -5000001    1    1    2    0    0  0.60104070815E+02  0.94795587725E+02 -0.82182813896E+03  0.85299542365E+03  0.19900000000E+03 0.  0.
<mgrwt>
<rscale>  0 0.45969448E+03</rscale>
<asrwt>0</asrwt>
<pdfrwt beam="1">  1        2 0.21570415E+00 0.45969448E+03</pdfrwt>
<pdfrwt beam="2">  1       -2 0.49983196E-02 0.45969448E+03</pdfrwt>
<totfact> 0.30207877E+03</totfact>
</mgrwt>
</event>
<event>
 4    1  0.5131465E-005  0.4670973E+03  0.7818608E-02  0.1022743E+00
          2   -1    0    0  501    0  0.00000000000E+00  0.00000000000E+00  0.10626270424E+04  0.10626270424E+04  0.25500000000E-02 0.  1.
         -2   -1    0    0    0  501 -0.00000000000E+00 -0.00000000000E+00 -0.51330297344E+02  0.51330297407E+02  0.25500000000E-02 0. -1.
    5000001    1    1    2    0    0  0.99376741106E+02 -0.61058418909E+02  0.41834540255E+03  0.47772140734E+03  0.19900000000E+03 0.  0.
   -5000001    1    1    2    0    0 -0.99376741106E+02  0.61058418909E+02  0.59295134252E+03  0.63623593249E+03  0.19900000000E+03 0.  0.
<mgrwt>
<rscale>  0 0.46709726E+03</rscale>
<asrwt>0</asrwt>
<pdfrwt beam="1">  1        2 0.15180386E+00 0.46709726E+03</pdfrwt>
<pdfrwt beam="2">  1       -2 0.73329000E-02 0.46709726E+03</pdfrwt>
<totfact> 0.29111946E+03</totfact>
</mgrwt>
</event>
<event>
 4    1  0.5131465E-005  0.8311667E+03  0.7818608E-02  0.9515969E-01
          2   -1    0    0  501    0  0.00000000000E+00  0.00000000000E+00  0.25793015100E+04  0.25793015100E+04  0.25500000000E-02 0.  1.
         -2   -1    0    0    0  501 -0.00000000000E+00 -0.00000000000E+00 -0.66959798757E+02  0.66959798806E+02  0.25500000000E-02 0. -1.
    5000001    1    1    2    0    0 -0.19082784313E+03 -0.25895634375E+03  0.70808825028E+03  0.80278491756E+03  0.19900000000E+03 0.  0.
   -5000001    1    1    2    0    0  0.19082784313E+03  0.25895634375E+03  0.18042534610E+04  0.18434763913E+04  0.19900000000E+03 0.  0.
<mgrwt>
<rscale>  0 0.83116667E+03</rscale>
<asrwt>0</asrwt>
<pdfrwt beam="1">  1        2 0.36847166E+00 0.83116667E+03</pdfrwt>
<pdfrwt beam="2">  1       -2 0.95656851E-02 0.83116667E+03</pdfrwt>
<totfact> 0.30335548E+02</totfact>
</mgrwt>
</event>
<event>
 4    1  0.5131465E-005  0.1015449E+04  0.7818608E-02  0.9291761E-01
          2   -1    0    0  501    0  0.00000000000E+00  0.00000000000E+00  0.89173782811E+03  0.89173782811E+03  0.25500000000E-02 0.  1.
         -2   -1    0    0    0  501 -0.00000000000E+00 -0.00000000000E+00 -0.28908081005E+03  0.28908081006E+03  0.25500000000E-02 0. -1.
    5000001    1    1    2    0    0 -0.42504178515E+03 -0.99296331512E+02  0.10792038221E+03  0.49169918596E+03  0.19900000000E+03 0.  0.
   -5000001    1    1    2    0    0  0.42504178515E+03  0.99296331512E+02  0.49473663585E+03  0.68911945222E+03  0.19900000000E+03 0.  0.
<mgrwt>
<rscale>  0 0.10154492E+04</rscale>
<asrwt>0</asrwt>
<pdfrwt beam="1">  1        2 0.12739112E+00 0.10154492E+04</pdfrwt>
<pdfrwt beam="2">  1       -2 0.41297258E-01 0.10154492E+04</pdfrwt>
<totfact> 0.18220843E+02</totfact>
</mgrwt>
</event>
<event>
 4    1  0.5131465E-005  0.5678953E+03  0.7818608E-02  0.9974347E-01
          2   -1    0    0  501    0  0.00000000000E+00  0.00000000000E+00  0.10561311362E+04  0.10561311363E+04  0.25500000000E-02 0.  1.
         -2   -1    0    0    0  501 -0.00000000000E+00 -0.00000000000E+00 -0.76341159146E+02  0.76341159189E+02  0.25500000000E-02 0. -1.
    5000001    1    1    2    0    0  0.10336603133E+03  0.17384428013E+03  0.46814999061E+03  0.54742285655E+03  0.19900000000E+03 0.  0.
   -5000001    1    1    2    0    0 -0.10336603133E+03 -0.17384428013E+03  0.51163998650E+03  0.58504943889E+03  0.19900000000E+03 0.  0.
<mgrwt>
<rscale>  0 0.56789533E+03</rscale>
<asrwt>0</asrwt>
<pdfrwt beam="1">  1        2 0.15087586E+00 0.56789533E+03</pdfrwt>
<pdfrwt beam="2">  1       -2 0.10905881E-01 0.56789533E+03</pdfrwt>
<totfact> 0.15539965E+03</totfact>
</mgrwt>
</event>
<event>
 4    1  0.5131465E-005  0.9009368E+03  0.7818608E-02  0.9424411E-01
          2   -1    0    0  501    0  0.00000000000E+00  0.00000000000E+00  0.10793685681E+04  0.10793685681E+04  0.25500000000E-02 0.  1.
         -2   -1    0    0    0  501 -0.00000000000E+00 -0.00000000000E+00 -0.18800043303E+03  0.18800043305E+03  0.25500000000E-02 0. -1.
    5000001    1    1    2    0    0 -0.11468289695E+03  0.37982566615E+03  0.33762191937E+03  0.55768204558E+03  0.19900000000E+03 0.  0.
   -5000001    1    1    2    0    0  0.11468289695E+03 -0.37982566615E+03  0.55374621568E+03  0.70968695557E+03  0.19900000000E+03 0.  0.
<mgrwt>
<rscale>  0 0.90093675E+03</rscale>
<asrwt>0</asrwt>
<pdfrwt beam="1">  1        2 0.15419551E+00 0.90093675E+03</pdfrwt>
<pdfrwt beam="2">  1       -2 0.26857204E-01 0.90093675E+03</pdfrwt>
<totfact> 0.31604535E+02</totfact>
</mgrwt>
</event>
<event>
 4    1  0.5131465E-005  0.4974288E+03  0.7818608E-02  0.1014452E+00
          2   -1    0    0  501    0  0.00000000000E+00  0.00000000000E+00  0.41852672942E+03  0.41852672943E+03  0.25500000000E-02 0.  1.
         -2   -1    0    0    0  501 -0.00000000000E+00 -0.00000000000E+00 -0.14780142083E+03  0.14780142085E+03  0.25500000000E-02 0. -1.
    5000001    1    1    2    0    0 -0.43089053720E+02  0.64652983892E+02 -0.96407981596E+01  0.21384718812E+03  0.19900000000E+03 0.  0.
   -5000001    1    1    2    0    0  0.43089053720E+02 -0.64652983892E+02  0.28036610675E+03  0.35248096217E+03  0.19900000000E+03 0.  0.
<mgrwt>
<rscale>  0 0.49742877E+03</rscale>
<asrwt>0</asrwt>
<pdfrwt beam="1">  1        2 0.59789533E-01 0.49742877E+03</pdfrwt>
<pdfrwt beam="2">  1       -2 0.21114489E-01 0.49742877E+03</pdfrwt>
<totfact> 0.15883153E+03</totfact>
</mgrwt>
</event>
<event>
 4    1  0.5131465E-005  0.4360185E+03  0.7818608E-02  0.1031975E+00
          2   -1    0    0  501    0  0.00000000000E+00  0.00000000000E+00  0.62151907009E+03  0.62151907010E+03  0.25500000000E-02 0.  1.
         -2   -1    0    0    0  501 -0.00000000000E+00 -0.00000000000E+00 -0.76470769404E+02  0.76470769447E+02  0.25500000000E-02 0. -1.
    5000001    1    1    2    0    0  0.51583544917E+02 -0.71772053922E+02  0.25536081062E+03  0.33559236199E+03  0.19900000000E+03 0.  0.
   -5000001    1    1    2    0    0 -0.51583544917E+02  0.71772053922E+02  0.28968749007E+03  0.36239747755E+03  0.19900000000E+03 0.  0.
<mgrwt>
<rscale>  0 0.43601854E+03</rscale>
<asrwt>0</asrwt>
<pdfrwt beam="1">  1        2 0.88788437E-01 0.43601854E+03</pdfrwt>
<pdfrwt beam="2">  1       -2 0.10924396E-01 0.43601854E+03</pdfrwt>
<totfact> 0.30617931E+03</totfact>
</mgrwt>
</event>
<event>
 4    1  0.5131465E-005  0.5710029E+03  0.7818608E-02  0.9967462E-01
         -2   -1    0    0    0  501 -0.00000000000E+00  0.00000000000E+00  0.62150341858E+02  0.62150341910E+02  0.25500000000E-02 0. -1.
          2   -1    0    0  501    0  0.00000000000E+00 -0.00000000000E+00 -0.13115144103E+04  0.13115144103E+04  0.25500000000E-02 0.  1.
    5000001    1    1    2    0    0  0.15495454306E+03 -0.11040501162E+03 -0.44289771807E+03  0.52149742634E+03  0.19900000000E+03 0.  0.
   -5000001    1    1    2    0    0 -0.15495454306E+03  0.11040501162E+03 -0.80646635035E+03  0.85216732585E+03  0.19900000000E+03 0.  0.
<mgrwt>
<rscale>  0 0.57100287E+03</rscale>
<asrwt>0</asrwt>
<pdfrwt beam="1">  1        2 0.18735919E+00 0.57100287E+03</pdfrwt>
<pdfrwt beam="2">  1       -2 0.88786210E-02 0.57100287E+03</pdfrwt>
<totfact> 0.15555056E+03</totfact>
</mgrwt>
</event>
<event>
 4    1  0.5131465E-005  0.5577777E+03  0.7818608E-02  0.9997096E-01
          2   -1    0    0  501    0  0.00000000000E+00  0.00000000000E+00  0.31141734258E+04  0.31141734258E+04  0.25500000000E-02 0.  1.
         -2   -1    0    0    0  501 -0.00000000000E+00 -0.00000000000E+00 -0.24975806888E+02  0.24975807018E+02  0.25500000000E-02 0. -1.
    5000001    1    1    2    0    0 -0.52397104932E+02  0.18463787459E+03  0.17507229306E+04  0.17724187940E+04  0.19900000000E+03 0.  0.
   -5000001    1    1    2    0    0  0.52397104932E+02 -0.18463787459E+03  0.13384746882E+04  0.13667304388E+04  0.19900000000E+03 0.  0.
<mgrwt>
<rscale>  0 0.55777771E+03</rscale>
<asrwt>0</asrwt>
<pdfrwt beam="1">  1        2 0.44488168E+00 0.55777771E+03</pdfrwt>
<pdfrwt beam="2">  1       -2 0.35679743E-02 0.55777771E+03</pdfrwt>
<totfact> 0.75657481E+02</totfact>
</mgrwt>
</event>
<event>
 4    1  0.5131465E-005  0.6842267E+03  0.7818608E-02  0.9744593E-01
         -2   -1    0    0    0  501 -0.00000000000E+00  0.00000000000E+00  0.18389598883E+03  0.18389598885E+03  0.25500000000E-02 0. -1.
          2   -1    0    0  501    0  0.00000000000E+00 -0.00000000000E+00 -0.63645512199E+03  0.63645512199E+03  0.25500000000E-02 0.  1.
    5000001    1    1    2    0    0  0.67577123450E+02 -0.26764505928E+03 -0.18406033174E+03  0.38688467415E+03  0.19900000000E+03 0.  0.
   -5000001    1    1    2    0    0 -0.67577123450E+02  0.26764505928E+03 -0.26849880142E+03  0.43346643669E+03  0.19900000000E+03 0.  0.
<mgrwt>
<rscale>  0 0.68422670E+03</rscale>
<asrwt>0</asrwt>
<pdfrwt beam="1">  1        2 0.90922159E-01 0.68422670E+03</pdfrwt>
<pdfrwt beam="2">  1       -2 0.26270856E-01 0.68422670E+03</pdfrwt>
<totfact> 0.66466516E+02</totfact>
</mgrwt>
</event>
<event>
 4    1  0.5131465E-005  0.6448057E+03  0.7818608E-02  0.9816575E-01
         -2   -1    0    0    0  501 -0.00000000000E+00  0.00000000000E+00  0.47566728285E+02  0.47566728354E+02  0.25500000000E-02 0. -1.
          2   -1    0    0  501    0  0.00000000000E+00 -0.00000000000E+00 -0.21852162089E+04  0.21852162089E+04  0.25500000000E-02 0.  1.
    5000001    1    1    2    0    0  0.82662844054E+02 -0.22780433015E+03 -0.80936013578E+03  0.86798202056E+03  0.19900000000E+03 0.  0.
   -5000001    1    1    2    0    0 -0.82662844054E+02  0.22780433015E+03 -0.13282893449E+04  0.13648009167E+04  0.19900000000E+03 0.  0.
<mgrwt>
<rscale>  0 0.64480566E+03</rscale>
<asrwt>0</asrwt>
<pdfrwt beam="1">  1        2 0.31217368E+00 0.64480566E+03</pdfrwt>
<pdfrwt beam="2">  1       -2 0.67952483E-02 0.64480566E+03</pdfrwt>
<totfact> 0.84673007E+02</totfact>
</mgrwt>
</event>
<event>
 4    1  0.5131465E-005  0.7402632E+03  0.7818608E-02  0.9650751E-01
          2   -1    0    0  501    0  0.00000000000E+00  0.00000000000E+00  0.18336995636E+04  0.18336995636E+04  0.25500000000E-02 0.  1.
         -2   -1    0    0    0  501 -0.00000000000E+00 -0.00000000000E+00 -0.74710939827E+02  0.74710939871E+02  0.25500000000E-02 0. -1.
    5000001    1    1    2    0    0 -0.22018121429E+03 -0.21471113670E+03  0.10162939198E+04  0.10802939279E+04  0.19900000000E+03 0.  0.
   -5000001    1    1    2    0    0  0.22018121429E+03  0.21471113670E+03  0.74269470399E+03  0.82811657554E+03  0.19900000000E+03 0.  0.
<mgrwt>
<rscale>  0 0.74026324E+03</rscale>
<asrwt>0</asrwt>
<pdfrwt beam="1">  1        2 0.26195709E+00 0.74026324E+03</pdfrwt>
<pdfrwt beam="2">  1       -2 0.10672991E-01 0.74026324E+03</pdfrwt>
<totfact> 0.61344551E+02</totfact>
</mgrwt>
</event>
<event>
 4    1  0.5131465E-005  0.4345273E+03  0.7818608E-02  0.1032439E+00
          2   -1    0    0  501    0  0.00000000000E+00  0.00000000000E+00  0.27142364133E+03  0.27142364135E+03  0.25500000000E-02 0.  1.
         -2   -1    0    0    0  501 -0.00000000000E+00 -0.00000000000E+00 -0.17391076771E+03  0.17391076773E+03  0.25500000000E-02 0. -1.
    5000001    1    1    2    0    0  0.57128623868E+02  0.32699353614E+02 -0.98458102123E+01  0.20983533394E+03  0.19900000000E+03 0.  0.
   -5000001    1    1    2    0    0 -0.57128623868E+02 -0.32699353614E+02  0.10735868384E+03  0.23549907513E+03  0.19900000000E+03 0.  0.
<mgrwt>
<rscale>  0 0.43452730E+03</rscale>
<asrwt>0</asrwt>
<pdfrwt beam="1">  1        2 0.38774806E-01 0.43452730E+03</pdfrwt>
<pdfrwt beam="2">  1       -2 0.24844395E-01 0.43452730E+03</pdfrwt>
<totfact> 0.19158324E+03</totfact>
</mgrwt>
</event>
<event>
 4    1  0.5131465E-005  0.7536613E+03  0.7818608E-02  0.9629624E-01
          2   -1    0    0  501    0  0.00000000000E+00  0.00000000000E+00  0.16019363988E+04  0.16019363988E+04  0.25500000000E-02 0.  1.
         -2   -1    0    0    0  501 -0.00000000000E+00 -0.00000000000E+00 -0.88643547369E+02  0.88643547406E+02  0.25500000000E-02 0. -1.
    5000001    1    1    2    0    0 -0.30095062629E+03 -0.38466190505E+02  0.52844568007E+03  0.64102009646E+03  0.19900000000E+03 0.  0.
   -5000001    1    1    2    0    0  0.30095062629E+03  0.38466190505E+02  0.98484717134E+03  0.10495598497E+04  0.19900000000E+03 0.  0.
<mgrwt>
<rscale>  0 0.75366126E+03</rscale>
<asrwt>0</asrwt>
<pdfrwt beam="1">  1        2 0.22884805E+00 0.75366126E+03</pdfrwt>
<pdfrwt beam="2">  1       -2 0.12663364E-01 0.75366126E+03</pdfrwt>
<totfact> 0.60772327E+02</totfact>
</mgrwt>
</event>
<event>
 4    1  0.5131465E-005  0.4525335E+03  0.7818608E-02  0.1026969E+00
         -2   -1    0    0    0  501 -0.00000000000E+00  0.00000000000E+00  0.40429074293E+02  0.40429074373E+02  0.25500000000E-02 0. -1.
          2   -1    0    0  501    0  0.00000000000E+00 -0.00000000000E+00 -0.12663325515E+04  0.12663325515E+04  0.25500000000E-02 0.  1.
    5000001    1    1    2    0    0  0.16144272525E+02 -0.88102767791E+02 -0.78555821806E+03  0.81530696623E+03  0.19900000000E+03 0.  0.
   -5000001    1    1    2    0    0 -0.16144272525E+02  0.88102767791E+02 -0.44034525912E+03  0.49145465962E+03  0.19900000000E+03 0.  0.
<mgrwt>
<rscale>  0 0.45253355E+03</rscale>
<asrwt>0</asrwt>
<pdfrwt beam="1">  1        2 0.18090463E+00 0.45253355E+03</pdfrwt>
<pdfrwt beam="2">  1       -2 0.57755828E-02 0.45253355E+03</pdfrwt>
<totfact> 0.32476559E+03</totfact>
</mgrwt>
</event>
<event>
 4    1  0.5131465E-005  0.7736701E+03  0.7818608E-02  0.9598930E-01
          2   -1    0    0  501    0  0.00000000000E+00  0.00000000000E+00  0.15665200142E+04  0.15665200142E+04  0.25500000000E-02 0.  1.
         -2   -1    0    0    0  501 -0.00000000000E+00 -0.00000000000E+00 -0.95524696714E+02  0.95524696749E+02  0.25500000000E-02 0. -1.
    5000001    1    1    2    0    0  0.28278415241E+03  0.11217469167E+03  0.10196070993E+04  0.10824738681E+04  0.19900000000E+03 0.  0.
   -5000001    1    1    2    0    0 -0.28278415241E+03 -0.11217469167E+03  0.45138821824E+03  0.57957084284E+03  0.19900000000E+03 0.  0.
<mgrwt>
<rscale>  0 0.77367008E+03</rscale>
<asrwt>0</asrwt>
<pdfrwt beam="1">  1        2 0.22378856E+00 0.77367008E+03</pdfrwt>
<pdfrwt beam="2">  1       -2 0.13646386E-01 0.77367008E+03</pdfrwt>
<totfact> 0.55907744E+02</totfact>
</mgrwt>
</event>
<event>
 4    1  0.5131465E-005  0.6606666E+03  0.7818608E-02  0.9786967E-01
          2   -1    0    0  501    0  0.00000000000E+00  0.00000000000E+00  0.94711944149E+03  0.94711944149E+03  0.25500000000E-02 0.  1.
         -2   -1    0    0    0  501 -0.00000000000E+00 -0.00000000000E+00 -0.11521260541E+03  0.11521260544E+03  0.25500000000E-02 0. -1.
    5000001    1    1    2    0    0 -0.14229426514E+03 -0.22529467732E+02  0.60872800224E+02  0.25310419320E+03  0.19900000000E+03 0.  0.
   -5000001    1    1    2    0    0  0.14229426514E+03  0.22529467732E+02  0.77103403585E+03  0.80922785373E+03  0.19900000000E+03 0.  0.
<mgrwt>
<rscale>  0 0.66066663E+03</rscale>
<asrwt>0</asrwt>
<pdfrwt beam="1">  1        2 0.13530278E+00 0.66066663E+03</pdfrwt>
<pdfrwt beam="2">  1       -2 0.16458943E-01 0.66066663E+03</pdfrwt>
<totfact> 0.91059869E+02</totfact>
</mgrwt>
</event>
<event>
 4    1  0.5131465E-005  0.5016615E+03  0.7818608E-02  0.1013346E+00
          2   -1    0    0  501    0  0.00000000000E+00  0.00000000000E+00  0.36804694485E+03  0.36804694486E+03  0.25500000000E-02 0.  1.
         -2   -1    0    0    0  501 -0.00000000000E+00 -0.00000000000E+00 -0.17094577926E+03  0.17094577928E+03  0.25500000000E-02 0. -1.
    5000001    1    1    2    0    0  0.10710792479E+03 -0.10807252456E+03  0.84821017098E+02  0.26447567574E+03  0.19900000000E+03 0.  0.
   -5000001    1    1    2    0    0 -0.10710792479E+03  0.10807252456E+03  0.11228014849E+03  0.27451704840E+03  0.19900000000E+03 0.  0.
<mgrwt>
<rscale>  0 0.50166153E+03</rscale>
<asrwt>0</asrwt>
<pdfrwt beam="1">  1        2 0.52578135E-01 0.50166153E+03</pdfrwt>
<pdfrwt beam="2">  1       -2 0.24420825E-01 0.50166153E+03</pdfrwt>
<totfact> 0.14161905E+03</totfact>
</mgrwt>
</event>
<event>
 4    1  0.5131465E-005  0.5923769E+03  0.7818608E-02  0.9921349E-01
         -2   -1    0    0    0  501 -0.00000000000E+00  0.00000000000E+00  0.10967001919E+03  0.10967001922E+03  0.25500000000E-02 0. -1.
          2   -1    0    0  501    0  0.00000000000E+00 -0.00000000000E+00 -0.79992313282E+03  0.79992313282E+03  0.25500000000E-02 0.  1.
    5000001    1    1    2    0    0  0.16627369970E+03  0.13437944335E+03 -0.42069124482E+03  0.51213953321E+03  0.19900000000E+03 0.  0.
   -5000001    1    1    2    0    0 -0.16627369970E+03 -0.13437944335E+03 -0.26956186881E+03  0.39745361884E+03  0.19900000000E+03 0.  0.
<mgrwt>
<rscale>  0 0.59237686E+03</rscale>
<asrwt>0</asrwt>
<pdfrwt beam="1">  1        2 0.11427473E+00 0.59237686E+03</pdfrwt>
<pdfrwt beam="2">  1       -2 0.15667146E-01 0.59237686E+03</pdfrwt>
<totfact> 0.12397226E+03</totfact>
</mgrwt>
</event>
<event>
 4    1  0.5131465E-005  0.4768100E+03  0.7818608E-02  0.1020016E+00
          2   -1    0    0  501    0  0.00000000000E+00  0.00000000000E+00  0.27542845743E+04  0.27542845743E+04  0.25500000000E-02 0.  1.
         -2   -1    0    0    0  501 -0.00000000000E+00 -0.00000000000E+00 -0.20635832633E+02  0.20635832790E+02  0.25500000000E-02 0. -1.
    5000001    1    1    2    0    0 -0.59100356904E+02 -0.11347601364E+03  0.15381170301E+04  0.15562052101E+04  0.19900000000E+03 0.  0.
   -5000001    1    1    2    0    0  0.59100356904E+02  0.11347601364E+03  0.11955317116E+04  0.12187151969E+04  0.19900000000E+03 0.  0.
<mgrwt>
<rscale>  0 0.47681005E+03</rscale>
<asrwt>0</asrwt>
<pdfrwt beam="1">  1        2 0.39346872E+00 0.47681005E+03</pdfrwt>
<pdfrwt beam="2">  1       -2 0.29479799E-02 0.47681005E+03</pdfrwt>
<totfact> 0.15888492E+03</totfact>
</mgrwt>
</event>
<event>
 4    1  0.5131465E-005  0.6173746E+03  0.7818608E-02  0.9870001E-01
         -2   -1    0    0    0  501 -0.00000000000E+00  0.00000000000E+00  0.62372929089E+02  0.62372929141E+02  0.25500000000E-02 0. -1.
          2   -1    0    0  501    0  0.00000000000E+00 -0.00000000000E+00 -0.15277114114E+04  0.15277114114E+04  0.25500000000E-02 0.  1.
    5000001    1    1    2    0    0  0.41504365176E+02  0.23148439367E+03 -0.68251532246E+03  0.74882294451E+03  0.19900000000E+03 0.  0.
   -5000001    1    1    2    0    0 -0.41504365176E+02 -0.23148439367E+03 -0.78282315980E+03  0.84126139598E+03  0.19900000000E+03 0.  0.
<mgrwt>
<rscale>  0 0.61737456E+03</rscale>
<asrwt>0</asrwt>
<pdfrwt beam="1">  1        2 0.21824446E+00 0.61737456E+03</pdfrwt>
<pdfrwt beam="2">  1       -2 0.89104194E-02 0.61737456E+03</pdfrwt>
<totfact> 0.11865694E+03</totfact>
</mgrwt>
</event>
<event>
 4    1  0.5131465E-005  0.5725780E+03  0.7818608E-02  0.9963990E-01
         -2   -1    0    0    0  501 -0.00000000000E+00  0.00000000000E+00  0.37686469586E+02  0.37686469672E+02  0.25500000000E-02 0. -1.
          2   -1    0    0  501    0  0.00000000000E+00 -0.00000000000E+00 -0.21748226386E+04  0.21748226386E+04  0.25500000000E-02 0.  1.
    5000001    1    1    2    0    0 -0.13388691436E+03 -0.15100721728E+03 -0.91248918234E+03  0.95549274900E+03  0.19900000000E+03 0.  0.
   -5000001    1    1    2    0    0  0.13388691436E+03  0.15100721728E+03 -0.12246469867E+04  0.12570163593E+04  0.19900000000E+03 0.  0.
<mgrwt>
<rscale>  0 0.57257799E+03</rscale>
<asrwt>0</asrwt>
<pdfrwt beam="1">  1        2 0.31068887E+00 0.57257799E+03</pdfrwt>
<pdfrwt beam="2">  1       -2 0.53837828E-02 0.57257799E+03</pdfrwt>
<totfact> 0.12399211E+03</totfact>
</mgrwt>
</event>
<event>
 4    1  0.5131465E-005  0.7910016E+03  0.7818608E-02  0.9573134E-01
          2   -1    0    0  501    0  0.00000000000E+00  0.00000000000E+00  0.18214958896E+04  0.18214958896E+04  0.25500000000E-02 0.  1.
         -2   -1    0    0    0  501 -0.00000000000E+00 -0.00000000000E+00 -0.85874964805E+02  0.85874964843E+02  0.25500000000E-02 0. -1.
    5000001    1    1    2    0    0  0.22934274243E+03  0.18867112453E+03  0.12757826680E+04  0.13249216213E+04  0.19900000000E+03 0.  0.
   -5000001    1    1    2    0    0 -0.22934274243E+03 -0.18867112453E+03  0.45983825684E+03  0.58244923315E+03  0.19900000000E+03 0.  0.
<mgrwt>
<rscale>  0 0.79100163E+03</rscale>
<asrwt>0</asrwt>
<pdfrwt beam="1">  1        2 0.26021366E+00 0.79100163E+03</pdfrwt>
<pdfrwt beam="2">  1       -2 0.12267854E-01 0.79100163E+03</pdfrwt>
<totfact> 0.49326708E+02</totfact>
</mgrwt>
</event>
<event>
 4    1  0.5131465E-005  0.8923461E+03  0.7818608E-02  0.9435200E-01
          2   -1    0    0  501    0  0.00000000000E+00  0.00000000000E+00  0.43981820008E+03  0.43981820009E+03  0.25500000000E-02 0.  1.
         -2   -1    0    0    0  501 -0.00000000000E+00 -0.00000000000E+00 -0.45261970906E+03  0.45261970907E+03  0.25500000000E-02 0. -1.
    5000001    1    1    2    0    0 -0.37272485895E+03 -0.48688217378E+02 -0.14122939863E+03  0.44815299400E+03  0.19900000000E+03 0.  0.
   -5000001    1    1    2    0    0  0.37272485895E+03  0.48688217378E+02  0.12842788966E+03  0.44428491516E+03  0.19900000000E+03 0.  0.
<mgrwt>
<rscale>  0 0.89234609E+03</rscale>
<asrwt>0</asrwt>
<pdfrwt beam="1">  1        2 0.62831171E-01 0.89234609E+03</pdfrwt>
<pdfrwt beam="2">  1       -2 0.64659958E-01 0.89234609E+03</pdfrwt>
<totfact> 0.17228076E+02</totfact>
</mgrwt>
</event>
<event>
 4    1  0.5131465E-005  0.4976963E+03  0.7818608E-02  0.1014382E+00
         -2   -1    0    0    0  501 -0.00000000000E+00  0.00000000000E+00  0.19281718389E+03  0.19281718390E+03  0.25500000000E-02 0. -1.
          2   -1    0    0  501    0  0.00000000000E+00 -0.00000000000E+00 -0.32116126893E+03  0.32116126894E+03  0.25500000000E-02 0.  1.
    5000001    1    1    2    0    0  0.32831718379E+02 -0.13794975850E+03 -0.15553714853E+02  0.24484888329E+03  0.19900000000E+03 0.  0.
   -5000001    1    1    2    0    0 -0.32831718379E+02  0.13794975850E+03 -0.11279037019E+03  0.26912956955E+03  0.19900000000E+03 0.  0.
<mgrwt>
<rscale>  0 0.49769634E+03</rscale>
<asrwt>0</asrwt>
<pdfrwt beam="1">  1        2 0.45880181E-01 0.49769634E+03</pdfrwt>
<pdfrwt beam="2">  1       -2 0.27545312E-01 0.49769634E+03</pdfrwt>
<totfact> 0.13246693E+03</totfact>
</mgrwt>
</event>
<event>
 4    1  0.5131465E-005  0.7298624E+03  0.7818608E-02  0.9667484E-01
          2   -1    0    0  501    0  0.00000000000E+00  0.00000000000E+00  0.25370065937E+04  0.25370065937E+04  0.25500000000E-02 0. -1.
         -2   -1    0    0    0  501 -0.00000000000E+00 -0.00000000000E+00 -0.52492883360E+02  0.52492883421E+02  0.25500000000E-02 0.  1.
    5000001    1    1    2    0    0 -0.26697680644E+03  0.14651386111E+03  0.13445248992E+04  0.13928715415E+04  0.19900000000E+03 0.  0.
   -5000001    1    1    2    0    0  0.26697680644E+03 -0.14651386111E+03  0.11399888111E+04  0.11966279356E+04  0.19900000000E+03 0.  0.
<mgrwt>
<rscale>  0 0.72986243E+03</rscale>
<asrwt>0</asrwt>
<pdfrwt beam="1">  1        2 0.36242956E+00 0.72986243E+03</pdfrwt>
<pdfrwt beam="2">  1       -2 0.74989824E-02 0.72986243E+03</pdfrwt>
<totfact> 0.47594347E+02</totfact>
</mgrwt>
</event>
<event>
 4    1  0.5131465E-005  0.5367921E+03  0.7818608E-02  0.1004598E+00
          2   -1    0    0  501    0  0.00000000000E+00  0.00000000000E+00  0.52416358129E+03  0.52416358130E+03  0.25500000000E-02 0.  1.
         -2   -1    0    0    0  501 -0.00000000000E+00 -0.00000000000E+00 -0.13743123605E+03  0.13743123607E+03  0.25500000000E-02 0. -1.
    5000001    1    1    2    0    0  0.74154018546E+02 -0.16066355043E+03  0.23468432506E+03  0.35494975325E+03  0.19900000000E+03 0.  0.
   -5000001    1    1    2    0    0 -0.74154018546E+02  0.16066355043E+03  0.15204802019E+03  0.30664506412E+03  0.19900000000E+03 0.  0.
<mgrwt>
<rscale>  0 0.53679213E+03</rscale>
<asrwt>0</asrwt>
<pdfrwt beam="1">  1        2 0.74880510E-01 0.53679213E+03</pdfrwt>
<pdfrwt beam="2">  1       -2 0.19633034E-01 0.53679213E+03</pdfrwt>
<totfact> 0.14000753E+03</totfact>
</mgrwt>
</event>
<event>
 4    1  0.5131465E-005  0.1072221E+04  0.7818608E-02  0.9232698E-01
          2   -1    0    0  501    0  0.00000000000E+00  0.00000000000E+00  0.34557268685E+03  0.34557268686E+03  0.25500000000E-02 0.  1.
         -2   -1    0    0    0  501 -0.00000000000E+00 -0.00000000000E+00 -0.83170446582E+03  0.83170446582E+03  0.25500000000E-02 0. -1.
    5000001    1    1    2    0    0 -0.48229537234E+03  0.11810482001E+03 -0.28197487762E+03  0.60470522265E+03  0.19900000000E+03 0.  0.
   -5000001    1    1    2    0    0  0.48229537234E+03 -0.11810482001E+03 -0.20415690135E+03  0.57257193003E+03  0.19900000000E+03 0.  0.
<mgrwt>
<rscale>  0 0.10722208E+04</rscale>
<asrwt>0</asrwt>
<pdfrwt beam="1">  1        2 0.49367527E-01 0.10722208E+04</pdfrwt>
<pdfrwt beam="2">  1       -2 0.11881492E+00 0.10722208E+04</pdfrwt>
<totfact> 0.55151369E+01</totfact>
</mgrwt>
</event>
<event>
 4    1  0.5131465E-005  0.5962188E+03  0.7818608E-02  0.9913282E-01
         -2   -1    0    0    0  501 -0.00000000000E+00  0.00000000000E+00  0.66319651427E+02  0.66319651476E+02  0.25500000000E-02 0.  1.
          2   -1    0    0  501    0  0.00000000000E+00 -0.00000000000E+00 -0.13400133211E+04  0.13400133211E+04  0.25500000000E-02 0. -1.
    5000001    1    1    2    0    0  0.74481220633E+02  0.69785456484E+02 -0.11017711023E+04  0.11242410880E+04  0.19900000000E+03 0.  0.
   -5000001    1    1    2    0    0 -0.74481220633E+02 -0.69785456484E+02 -0.17192256742E+03  0.28209188459E+03  0.19900000000E+03 0.  0.
<mgrwt>
<rscale>  0 0.59621881E+03</rscale>
<asrwt>0</asrwt>
<pdfrwt beam="1">  1        2 0.19143046E+00 0.59621881E+03</pdfrwt>
<pdfrwt beam="2">  1       -2 0.94742368E-02 0.59621881E+03</pdfrwt>
<totfact> 0.13514847E+03</totfact>
</mgrwt>
</event>
<event>
 4    1  0.5131465E-005  0.4661731E+03  0.7818608E-02  0.1023006E+00
         -2   -1    0    0    0  501 -0.00000000000E+00  0.00000000000E+00  0.65287749408E+02  0.65287749457E+02  0.25500000000E-02 0. -1.
          2   -1    0    0  501    0  0.00000000000E+00 -0.00000000000E+00 -0.83215215899E+03  0.83215215900E+03  0.25500000000E-02 0.  1.
    5000001    1    1    2    0    0 -0.50987454055E+02 -0.84606604305E+02 -0.24770985454E+03  0.33274490229E+03  0.19900000000E+03 0.  0.
   -5000001    1    1    2    0    0  0.50987454055E+02  0.84606604305E+02 -0.51915455505E+03  0.56469500617E+03  0.19900000000E+03 0.  0.
<mgrwt>
<rscale>  0 0.46617311E+03</rscale>
<asrwt>0</asrwt>
<pdfrwt beam="1">  1        2 0.11887887E+00 0.46617311E+03</pdfrwt>
<pdfrwt beam="2">  1       -2 0.93268219E-02 0.46617311E+03</pdfrwt>
<totfact> 0.27658971E+03</totfact>
</mgrwt>
</event>
<event>
 4    1  0.5131465E-005  0.9124771E+03  0.7818608E-02  0.9410117E-01
          2   -1    0    0  501    0  0.00000000000E+00  0.00000000000E+00  0.38186659213E+03  0.38186659214E+03  0.25500000000E-02 0.  1.
         -2   -1    0    0    0  501 -0.00000000000E+00 -0.00000000000E+00 -0.54509508308E+03  0.54509508309E+03  0.25500000000E-02 0. -1.
    5000001    1    1    2    0    0 -0.30038361060E+03 -0.18380124643E+03 -0.29600791162E+03  0.50123337424E+03  0.19900000000E+03 0.  0.
   -5000001    1    1    2    0    0  0.30038361060E+03  0.18380124643E+03  0.13277942067E+03  0.42572830099E+03  0.19900000000E+03 0.  0.
<mgrwt>
<rscale>  0 0.91247707E+03</rscale>
<asrwt>0</asrwt>
<pdfrwt beam="1">  1        2 0.54552370E-01 0.91247707E+03</pdfrwt>
<pdfrwt beam="2">  1       -2 0.77870726E-01 0.91247707E+03</pdfrwt>
<totfact> 0.13424269E+02</totfact>
</mgrwt>
</event>
<event>
 4    1  0.5131465E-005  0.4622531E+03  0.7818608E-02  0.1024130E+00
          2   -1    0    0  501    0  0.00000000000E+00  0.00000000000E+00  0.42104078537E+03  0.42104078538E+03  0.25500000000E-02 0.  1.
         -2   -1    0    0    0  501 -0.00000000000E+00 -0.00000000000E+00 -0.12687484250E+03  0.12687484252E+03  0.25500000000E-02 0. -1.
    5000001    1    1    2    0    0 -0.10783496109E+03  0.44127767018E+02  0.12861164223E+03  0.26404089299E+03  0.19900000000E+03 0.  0.
   -5000001    1    1    2    0    0  0.10783496109E+03 -0.44127767018E+02  0.16555430065E+03  0.28387473491E+03  0.19900000000E+03 0.  0.
<mgrwt>
<rscale>  0 0.46225311E+03</rscale>
<asrwt>0</asrwt>
<pdfrwt beam="1">  1        2 0.60148684E-01 0.46225311E+03</pdfrwt>
<pdfrwt beam="2">  1       -2 0.18124977E-01 0.46225311E+03</pdfrwt>
<totfact> 0.20532107E+03</totfact>
</mgrwt>
</event>
<event>
 4    1  0.5131465E-005  0.6188679E+03  0.7818608E-02  0.9867016E-01
         -2   -1    0    0    0  501 -0.00000000000E+00  0.00000000000E+00  0.31109247246E+02  0.31109247351E+02  0.25500000000E-02 0. -1.
          2   -1    0    0  501    0  0.00000000000E+00 -0.00000000000E+00 -0.30778431605E+04  0.30778431605E+04  0.25500000000E-02 0.  1.
    5000001    1    1    2    0    0 -0.75624565970E+02 -0.22272794547E+03 -0.13793748355E+04  0.14133657522E+04  0.19900000000E+03 0.  0.
   -5000001    1    1    2    0    0  0.75624565970E+02  0.22272794547E+03 -0.16673590778E+04  0.16955866557E+04  0.19900000000E+03 0.  0.
<mgrwt>
<rscale>  0 0.61886795E+03</rscale>
<asrwt>0</asrwt>
<pdfrwt beam="1">  1        2 0.43969168E+00 0.61886795E+03</pdfrwt>
<pdfrwt beam="2">  1       -2 0.44441802E-02 0.61886795E+03</pdfrwt>
<totfact> 0.56211516E+02</totfact>
</mgrwt>
</event>
<event>
 4    1  0.5131465E-005  0.1493503E+04  0.7818608E-02  0.8888785E-01
         -2   -1    0    0    0  501 -0.00000000000E+00  0.00000000000E+00  0.97417361548E+03  0.97417361549E+03  0.25500000000E-02 0. -1.
          2   -1    0    0  501    0  0.00000000000E+00 -0.00000000000E+00 -0.57242130163E+03  0.57242130163E+03  0.25500000000E-02 0.  1.
    5000001    1    1    2    0    0  0.11185947899E+03 -0.64574197045E+03  0.50901321351E+03  0.85334089727E+03  0.19900000000E+03 0.  0.
   -5000001    1    1    2    0    0 -0.11185947899E+03  0.64574197045E+03 -0.10726089965E+03  0.69325401984E+03  0.19900000000E+03 0.  0.
<mgrwt>
<rscale>  0 0.14935029E+04</rscale>
<asrwt>0</asrwt>
<pdfrwt beam="1">  1        2 0.81774471E-01 0.14935029E+04</pdfrwt>
<pdfrwt beam="2">  1       -2 0.13916766E+00 0.14935029E+04</pdfrwt>
<totfact> 0.20258546E+01</totfact>
</mgrwt>
</event>
<event>
 4    1  0.5131465E-005  0.5516190E+03  0.7818608E-02  0.1001120E+00
         -2   -1    0    0    0  501 -0.00000000000E+00  0.00000000000E+00  0.70014704192E+02  0.70014704239E+02  0.25500000000E-02 0. -1.
          2   -1    0    0  501    0  0.00000000000E+00 -0.00000000000E+00 -0.10864986148E+04  0.10864986148E+04  0.25500000000E-02 0.  1.
    5000001    1    1    2    0    0  0.14568864947E+03  0.12125945482E+03 -0.55700000240E+03  0.62111113389E+03  0.19900000000E+03 0.  0.
   -5000001    1    1    2    0    0 -0.14568864947E+03 -0.12125945482E+03 -0.45948390822E+03  0.53540218516E+03  0.19900000000E+03 0.  0.
<mgrwt>
<rscale>  0 0.55161900E+03</rscale>
<asrwt>0</asrwt>
<pdfrwt beam="1">  1        2 0.15521408E+00 0.55161900E+03</pdfrwt>
<pdfrwt beam="2">  1       -2 0.10002101E-01 0.55161900E+03</pdfrwt>
<totfact> 0.17168854E+03</totfact>
</mgrwt>
</event>
<event>
 4    1  0.5131465E-005  0.4501066E+03  0.7818608E-02  0.1027690E+00
          2   -1    0    0  501    0  0.00000000000E+00  0.00000000000E+00  0.69807998536E+02  0.69807998583E+02  0.25500000000E-02 0.  1.
         -2   -1    0    0    0  501 -0.00000000000E+00 -0.00000000000E+00 -0.72554710349E+03  0.72554710350E+03  0.25500000000E-02 0. -1.
    5000001    1    1    2    0    0 -0.71034250115E+02 -0.33454771704E+02 -0.20439291308E+03  0.29587590195E+03  0.19900000000E+03 0.  0.
   -5000001    1    1    2    0    0  0.71034250115E+02  0.33454771704E+02 -0.45134619187E+03  0.49947920013E+03  0.19900000000E+03 0.  0.
<mgrwt>
<rscale>  0 0.45010661E+03</rscale>
<asrwt>0</asrwt>
<pdfrwt beam="1">  1        2 0.99725716E-02 0.45010661E+03</pdfrwt>
<pdfrwt beam="2">  1       -2 0.10364958E+00 0.45010661E+03</pdfrwt>
<totfact> 0.51008988E+02</totfact>
</mgrwt>
</event>
<event>
 4    1  0.5131465E-005  0.6216893E+03  0.7818608E-02  0.9861402E-01
          2   -1    0    0  501    0  0.00000000000E+00  0.00000000000E+00  0.44112122957E+03  0.44112122958E+03  0.25500000000E-02 0.  1.
         -2   -1    0    0    0  501 -0.00000000000E+00 -0.00000000000E+00 -0.21904270435E+03  0.21904270437E+03  0.25500000000E-02 0. -1.
    5000001    1    1    2    0    0  0.48992102935E+02  0.22242112760E+03  0.34819696332E+02  0.30444177671E+03  0.19900000000E+03 0.  0.
   -5000001    1    1    2    0    0 -0.48992102935E+02 -0.22242112760E+03  0.18725882888E+03  0.35572215723E+03  0.19900000000E+03 0.  0.
<mgrwt>
<rscale>  0 0.62168927E+03</rscale>
<asrwt>0</asrwt>
<pdfrwt beam="1">  1        2 0.63017319E-01 0.62168927E+03</pdfrwt>
<pdfrwt beam="2">  1       -2 0.31291815E-01 0.62168927E+03</pdfrwt>
<totfact> 0.73688109E+02</totfact>
</mgrwt>
</event>
<event>
 4    1  0.5131465E-005  0.8120590E+03  0.7818608E-02  0.9542724E-01
          2   -1    0    0  501    0  0.00000000000E+00  0.00000000000E+00  0.32067701459E+04  0.32067701459E+04  0.25500000000E-02 0.  1.
         -2   -1    0    0    0  501 -0.00000000000E+00 -0.00000000000E+00 -0.51409965735E+02  0.51409965798E+02  0.25500000000E-02 0. -1.
    5000001    1    1    2    0    0 -0.17962889284E+03 -0.26958498018E+03  0.21495671697E+04  0.21829298243E+04  0.19900000000E+03 0.  0.
   -5000001    1    1    2    0    0  0.17962889284E+03  0.26958498018E+03  0.10057930104E+04  0.10752502873E+04  0.19900000000E+03 0.  0.
<mgrwt>
<rscale>  0 0.81205897E+03</rscale>
<asrwt>0</asrwt>
<pdfrwt beam="1">  1        2 0.45811005E+00 0.81205897E+03</pdfrwt>
<pdfrwt beam="2">  1       -2 0.73442804E-02 0.81205897E+03</pdfrwt>
<totfact> 0.21244312E+02</totfact>
</mgrwt>
</event>
<event>
 4    1  0.5131465E-005  0.7968457E+03  0.7818608E-02  0.9564594E-01
          2   -1    0    0  501    0  0.00000000000E+00  0.00000000000E+00  0.51822038581E+03  0.51822038582E+03  0.25500000000E-02 0.  1.
         -2   -1    0    0    0  501 -0.00000000000E+00 -0.00000000000E+00 -0.30631903964E+03  0.30631903965E+03  0.25500000000E-02 0. -1.
    5000001    1    1    2    0    0  0.31710035716E+03 -0.84827723936E+02 -0.44891189159E+01  0.38388739423E+03  0.19900000000E+03 0.  0.
   -5000001    1    1    2    0    0 -0.31710035716E+03  0.84827723936E+02  0.21639046509E+03  0.44065203124E+03  0.19900000000E+03 0.  0.
<mgrwt>
<rscale>  0 0.79684571E+03</rscale>
<asrwt>0</asrwt>
<pdfrwt beam="1">  1        2 0.74031484E-01 0.79684571E+03</pdfrwt>
<pdfrwt beam="2">  1       -2 0.43759863E-01 0.79684571E+03</pdfrwt>
<totfact> 0.32081522E+02</totfact>
</mgrwt>
</event>
<event>
 4    1  0.5131465E-005  0.5550489E+03  0.7818608E-02  0.1000332E+00
          2   -1    0    0  501    0  0.00000000000E+00  0.00000000000E+00  0.17366090288E+04  0.17366090288E+04  0.25500000000E-02 0.  1.
         -2   -1    0    0    0  501 -0.00000000000E+00 -0.00000000000E+00 -0.44350694131E+02  0.44350694204E+02  0.25500000000E-02 0. -1.
    5000001    1    1    2    0    0  0.18341930034E+03 -0.17876146823E+02  0.10347756257E+04  0.10697307100E+04  0.19900000000E+03 0.  0.
   -5000001    1    1    2    0    0 -0.18341930034E+03  0.17876146823E+02  0.65748270903E+03  0.71122901307E+03  0.19900000000E+03 0.  0.
<mgrwt>
<rscale>  0 0.55504888E+03</rscale>
<asrwt>0</asrwt>
<pdfrwt beam="1">  1        2 0.24808703E+00 0.55504888E+03</pdfrwt>
<pdfrwt beam="2">  1       -2 0.63358127E-02 0.55504888E+03</pdfrwt>
<totfact> 0.15974213E+03</totfact>
</mgrwt>
</event>
<event>
 4    1  0.5131465E-005  0.5834826E+03  0.7818608E-02  0.9940280E-01
         -2   -1    0    0    0  501 -0.00000000000E+00  0.00000000000E+00  0.89090268592E+02  0.89090268628E+02  0.25500000000E-02 0.  1.
          2   -1    0    0  501    0  0.00000000000E+00 -0.00000000000E+00 -0.95535681364E+03  0.95535681365E+03  0.25500000000E-02 0. -1.
    5000001    1    1    2    0    0 -0.19495154104E+03  0.62346338985E+02 -0.32545146227E+03  0.43291202759E+03  0.19900000000E+03 0.  0.
   -5000001    1    1    2    0    0  0.19495154104E+03 -0.62346338985E+02 -0.54081508278E+03  0.61153505468E+03  0.19900000000E+03 0.  0.
<mgrwt>
<rscale>  0 0.58348263E+03</rscale>
<asrwt>0</asrwt>
<pdfrwt beam="1">  1        2 0.13647954E+00 0.58348263E+03</pdfrwt>
<pdfrwt beam="2">  1       -2 0.12727182E-01 0.58348263E+03</pdfrwt>
<totfact> 0.13879544E+03</totfact>
</mgrwt>
</event>
<event>
 4    1  0.5131465E-005  0.6498555E+03  0.7818608E-02  0.9807050E-01
          2   -1    0    0  501    0  0.00000000000E+00  0.00000000000E+00  0.13845482184E+03  0.13845482186E+03  0.25500000000E-02 0.  1.
         -2   -1    0    0    0  501 -0.00000000000E+00 -0.00000000000E+00 -0.76254514012E+03  0.76254514013E+03  0.25500000000E-02 0. -1.
    5000001    1    1    2    0    0 -0.10543053520E+02 -0.25122934571E+03 -0.23934229613E+03  0.40014131859E+03  0.19900000000E+03 0.  0.
   -5000001    1    1    2    0    0  0.10543053520E+02  0.25122934571E+03 -0.38474802215E+03  0.50085864340E+03  0.19900000000E+03 0.  0.
<mgrwt>
<rscale>  0 0.64985553E+03</rscale>
<asrwt>0</asrwt>
<pdfrwt beam="1">  1        2 0.19779261E-01 0.64985553E+03</pdfrwt>
<pdfrwt beam="2">  1       -2 0.10893502E+00 0.64985553E+03</pdfrwt>
<totfact> 0.19590045E+02</totfact>
</mgrwt>
</event>
<event>
 4    1  0.5131465E-005  0.6289819E+03  0.7818608E-02  0.9847038E-01
          2   -1    0    0  501    0  0.00000000000E+00  0.00000000000E+00  0.10599429318E+04  0.10599429319E+04  0.25500000000E-02 0.  1.
         -2   -1    0    0    0  501 -0.00000000000E+00 -0.00000000000E+00 -0.93311202367E+02  0.93311202402E+02  0.25500000000E-02 0. -1.
    5000001    1    1    2    0    0  0.10160428629E+03  0.37928836829E+02  0.83533686764E+02  0.24153861903E+03  0.19900000000E+03 0.  0.
   -5000001    1    1    2    0    0 -0.10160428629E+03 -0.37928836829E+02  0.88309804272E+03  0.91171551523E+03  0.19900000000E+03 0.  0.
<mgrwt>
<rscale>  0 0.62898187E+03</rscale>
<asrwt>0</asrwt>
<pdfrwt beam="1">  1        2 0.15142041E+00 0.62898187E+03</pdfrwt>
<pdfrwt beam="2">  1       -2 0.13330172E-01 0.62898187E+03</pdfrwt>
<totfact> 0.11092443E+03</totfact>
</mgrwt>
</event>
<event>
 4    1  0.5131465E-005  0.5550708E+03  0.7818608E-02  0.1000327E+00
          2   -1    0    0  501    0  0.00000000000E+00  0.00000000000E+00  0.18329750530E+04  0.18329750530E+04  0.25500000000E-02 0.  1.
         -2   -1    0    0    0  501 -0.00000000000E+00 -0.00000000000E+00 -0.42022337847E+02  0.42022337925E+02  0.25500000000E-02 0. -1.
    5000001    1    1    2    0    0  0.17004342955E+03  0.41801637640E+02  0.11732647062E+04  0.12028354898E+04  0.19900000000E+03 0.  0.
   -5000001    1    1    2    0    0 -0.17004342955E+03 -0.41801637640E+02  0.61768800894E+03  0.67216190106E+03  0.19900000000E+03 0.  0.
<mgrwt>
<rscale>  0 0.55507080E+03</rscale>
<asrwt>0</asrwt>
<pdfrwt beam="1">  1        2 0.26185360E+00 0.55507080E+03</pdfrwt>
<pdfrwt beam="2">  1       -2 0.60031907E-02 0.55507080E+03</pdfrwt>
<totfact> 0.15542002E+03</totfact>
</mgrwt>
</event>
<event>
 4    1  0.5131465E-005  0.8271443E+03  0.7818608E-02  0.9521537E-01
         -2   -1    0    0    0  501 -0.00000000000E+00  0.00000000000E+00  0.10024304860E+03  0.10024304864E+03  0.25500000000E-02 0.  1.
          2   -1    0    0  501    0  0.00000000000E+00 -0.00000000000E+00 -0.17062721791E+04  0.17062721791E+04  0.25500000000E-02 0. -1.
    5000001    1    1    2    0    0 -0.41816632618E+02 -0.35265565894E+03 -0.64362042229E+03  0.76155294795E+03  0.19900000000E+03 0.  0.
   -5000001    1    1    2    0    0  0.41816632618E+02  0.35265565894E+03 -0.96240870821E+03  0.10449622798E+04  0.19900000000E+03 0.  0.
<mgrwt>
<rscale>  0 0.82714430E+03</rscale>
<asrwt>0</asrwt>
<pdfrwt beam="1">  1        2 0.24375315E+00 0.82714430E+03</pdfrwt>
<pdfrwt beam="2">  1       -2 0.14320437E-01 0.82714430E+03</pdfrwt>
<totfact> 0.43528663E+02</totfact>
</mgrwt>
</event>
<event>
 4    1  0.5131465E-005  0.4670957E+03  0.7818608E-02  0.1022743E+00
         -2   -1    0    0    0  501 -0.00000000000E+00  0.00000000000E+00  0.29088635695E+02  0.29088635807E+02  0.25500000000E-02 0. -1.
          2   -1    0    0  501    0  0.00000000000E+00 -0.00000000000E+00 -0.18751172057E+04  0.18751172057E+04  0.25500000000E-02 0.  1.
    5000001    1    1    2    0    0  0.72708182451E+02  0.86979266989E+02 -0.73656501394E+03  0.77135004534E+03  0.19900000000E+03 0.  0.
   -5000001    1    1    2    0    0 -0.72708182451E+02 -0.86979266989E+02 -0.11094635560E+04  0.11328557962E+04  0.19900000000E+03 0.  0.
<mgrwt>
<rscale>  0 0.46709571E+03</rscale>
<asrwt>0</asrwt>
<pdfrwt beam="1">  1        2 0.26787381E+00 0.46709571E+03</pdfrwt>
<pdfrwt beam="2">  1       -2 0.41555206E-02 0.46709571E+03</pdfrwt>
<totfact> 0.26227325E+03</totfact>
</mgrwt>
</event>
<event>
 4    1  0.5131465E-005  0.6338102E+03  0.7818608E-02  0.9837642E-01
          2   -1    0    0  501    0  0.00000000000E+00  0.00000000000E+00  0.22808972416E+04  0.22808972416E+04  0.25500000000E-02 0.  1.
         -2   -1    0    0    0  501 -0.00000000000E+00 -0.00000000000E+00 -0.44030405192E+02  0.44030405265E+02  0.25500000000E-02 0. -1.
    5000001    1    1    2    0    0 -0.19261163016E+03  0.14878401194E+03  0.12647889583E+04  0.13032758845E+04  0.19900000000E+03 0.  0.
   -5000001    1    1    2    0    0  0.19261163016E+03 -0.14878401194E+03  0.97207787813E+03  0.10216517623E+04  0.19900000000E+03 0.  0.
<mgrwt>
<rscale>  0 0.63381016E+03</rscale>
<asrwt>0</asrwt>
<pdfrwt beam="1">  1        2 0.32584253E+00 0.63381016E+03</pdfrwt>
<pdfrwt beam="2">  1       -2 0.62900566E-02 0.63381016E+03</pdfrwt>
<totfact> 0.85617666E+02</totfact>
</mgrwt>
</event>
<event>
 4    1  0.5131465E-005  0.4491268E+03  0.7818608E-02  0.1027983E+00
          2   -1    0    0  501    0  0.00000000000E+00  0.00000000000E+00  0.15013798416E+03  0.15013798418E+03  0.25500000000E-02 0.  1.
         -2   -1    0    0    0  501 -0.00000000000E+00 -0.00000000000E+00 -0.33588246282E+03  0.33588246283E+03  0.25500000000E-02 0. -1.
    5000001    1    1    2    0    0 -0.10042508578E+03 -0.27232942359E+02 -0.93890195785E+02  0.24339926021E+03  0.19900000000E+03 0.  0.
   -5000001    1    1    2    0    0  0.10042508578E+03  0.27232942359E+02 -0.91854282870E+02  0.24262118680E+03  0.19900000000E+03 0.  0.
<mgrwt>
<rscale>  0 0.44912678E+03</rscale>
<asrwt>0</asrwt>
<pdfrwt beam="1">  1        2 0.21448284E-01 0.44912678E+03</pdfrwt>
<pdfrwt beam="2">  1       -2 0.47983209E-01 0.44912678E+03</pdfrwt>
<totfact> 0.10774264E+03</totfact>
</mgrwt>
</event>
<event>
 4    1  0.5131465E-005  0.7222004E+03  0.7818608E-02  0.9680002E-01
         -2   -1    0    0    0  501 -0.00000000000E+00  0.00000000000E+00  0.64245567512E+02  0.64245567563E+02  0.25500000000E-02 0.  1.
          2   -1    0    0  501    0  0.00000000000E+00 -0.00000000000E+00 -0.20296088312E+04  0.20296088312E+04  0.25500000000E-02 0. -1.
    5000001    1    1    2    0    0 -0.27437727174E+03  0.11576780557E+03 -0.84958967028E+03  0.92200253790E+03  0.19900000000E+03 0.  0.
   -5000001    1    1    2    0    0  0.27437727174E+03 -0.11576780557E+03 -0.11157735934E+04  0.11718518608E+04  0.19900000000E+03 0.  0.
<mgrwt>
<rscale>  0 0.72220045E+03</rscale>
<asrwt>0</asrwt>
<pdfrwt beam="1">  1        2 0.28994408E+00 0.72220045E+03</pdfrwt>
<pdfrwt beam="2">  1       -2 0.91779395E-02 0.72220045E+03</pdfrwt>
<totfact> 0.62468306E+02</totfact>
</mgrwt>
</event>
<event>
 4    1  0.5131465E-005  0.4308211E+03  0.7818608E-02  0.1033601E+00
          2   -1    0    0  501    0  0.00000000000E+00  0.00000000000E+00  0.68318345567E+03  0.68318345567E+03  0.25500000000E-02 0.  1.
         -2   -1    0    0    0  501 -0.00000000000E+00 -0.00000000000E+00 -0.67919828940E+02  0.67919828988E+02  0.25500000000E-02 0. -1.
    5000001    1    1    2    0    0  0.65924912026E+02  0.22753456087E+02  0.38436003726E+03  0.43840329838E+03  0.19900000000E+03 0.  0.
   -5000001    1    1    2    0    0 -0.65924912026E+02 -0.22753456087E+02  0.23090358947E+03  0.31269998628E+03  0.19900000000E+03 0.  0.
<mgrwt>
<rscale>  0 0.43082109E+03</rscale>
<asrwt>0</asrwt>
<pdfrwt beam="1">  1        2 0.97597631E-01 0.43082109E+03</pdfrwt>
<pdfrwt beam="2">  1       -2 0.97028333E-02 0.43082109E+03</pdfrwt>
<totfact> 0.33129685E+03</totfact>
</mgrwt>
</event>
<event>
 4    1  0.5131465E-005  0.4665671E+03  0.7818608E-02  0.1022894E+00
          2   -1    0    0  501    0  0.00000000000E+00  0.00000000000E+00  0.65938779283E+03  0.65938779284E+03  0.25500000000E-02 0.  1.
         -2   -1    0    0    0  501 -0.00000000000E+00 -0.00000000000E+00 -0.82532928475E+02  0.82532928514E+02  0.25500000000E-02 0. -1.
    5000001    1    1    2    0    0 -0.38721030864E+02 -0.11541603530E+03  0.28868445425E+03  0.37116019932E+03  0.19900000000E+03 0.  0.
   -5000001    1    1    2    0    0  0.38721030864E+02  0.11541603530E+03  0.28817041011E+03  0.37076052203E+03  0.19900000000E+03 0.  0.
<mgrwt>
<rscale>  0 0.46656706E+03</rscale>
<asrwt>0</asrwt>
<pdfrwt beam="1">  1        2 0.94198249E-01 0.46656706E+03</pdfrwt>
<pdfrwt beam="2">  1       -2 0.11790419E-01 0.46656706E+03</pdfrwt>
<totfact> 0.25233356E+03</totfact>
</mgrwt>
</event>
<event>
 4    1  0.5131465E-005  0.8306417E+03  0.7818608E-02  0.9516694E-01
          2   -1    0    0  501    0  0.00000000000E+00  0.00000000000E+00  0.10158145866E+04  0.10158145866E+04  0.25500000000E-02 0.  1.
         -2   -1    0    0    0  501 -0.00000000000E+00 -0.00000000000E+00 -0.16980597735E+03  0.16980597737E+03  0.25500000000E-02 0. -1.
    5000001    1    1    2    0    0  0.31684092291E+03  0.11978071365E+03  0.23068284798E+03  0.45557783763E+03  0.19900000000E+03 0.  0.
   -5000001    1    1    2    0    0 -0.31684092291E+03 -0.11978071365E+03  0.61532576127E+03  0.73004272633E+03  0.19900000000E+03 0.  0.
<mgrwt>
<rscale>  0 0.83064165E+03</rscale>
<asrwt>0</asrwt>
<pdfrwt beam="1">  1        2 0.14511637E+00 0.83064165E+03</pdfrwt>
<pdfrwt beam="2">  1       -2 0.24257996E-01 0.83064165E+03</pdfrwt>
<totfact> 0.41639693E+02</totfact>
</mgrwt>
</event>
<event>
 4    1  0.5131465E-005  0.5526222E+03  0.7818608E-02  0.1000889E+00
          2   -1    0    0  501    0  0.00000000000E+00  0.00000000000E+00  0.11332395448E+03  0.11332395451E+03  0.25500000000E-02 0.  1.
         -2   -1    0    0    0  501 -0.00000000000E+00 -0.00000000000E+00 -0.67371309607E+03  0.67371309607E+03  0.25500000000E-02 0. -1.
    5000001    1    1    2    0    0  0.16954522166E+03  0.11116033135E+02 -0.40660010867E+03  0.48352228155E+03  0.19900000000E+03 0.  0.
   -5000001    1    1    2    0    0 -0.16954522166E+03 -0.11116033135E+02 -0.15378903291E+03  0.30351476904E+03  0.19900000000E+03 0.  0.
<mgrwt>
<rscale>  0 0.55262223E+03</rscale>
<asrwt>0</asrwt>
<pdfrwt beam="1">  1        2 0.16189137E-01 0.55262223E+03</pdfrwt>
<pdfrwt beam="2">  1       -2 0.96244727E-01 0.55262223E+03</pdfrwt>
<totfact> 0.33418940E+02</totfact>
</mgrwt>
</event>
<event>
 4    1  0.5131465E-005  0.4678137E+03  0.7818608E-02  0.1022539E+00
         -2   -1    0    0    0  501 -0.00000000000E+00  0.00000000000E+00  0.16928410971E+03  0.16928410973E+03  0.25500000000E-02 0. -1.
          2   -1    0    0  501    0  0.00000000000E+00 -0.00000000000E+00 -0.32319875966E+03  0.32319875967E+03  0.25500000000E-02 0.  1.
    5000001    1    1    2    0    0  0.19786852372E+02  0.12047920722E+03 -0.92017492100E+02  0.25094815750E+03  0.19900000000E+03 0.  0.
   -5000001    1    1    2    0    0 -0.19786852372E+02 -0.12047920722E+03 -0.61897157851E+02  0.24153471190E+03  0.19900000000E+03 0.  0.
<mgrwt>
<rscale>  0 0.46781370E+03</rscale>
<asrwt>0</asrwt>
<pdfrwt beam="1">  1        2 0.46171251E-01 0.46781370E+03</pdfrwt>
<pdfrwt beam="2">  1       -2 0.24183444E-01 0.46781370E+03</pdfrwt>
<totfact> 0.16613716E+03</totfact>
</mgrwt>
</event>
<event>
 4    1  0.5131465E-005  0.7041034E+03  0.7818608E-02  0.9710241E-01
         -2   -1    0    0    0  501 -0.00000000000E+00  0.00000000000E+00  0.23004505389E+03  0.23004505391E+03  0.25500000000E-02 0. -1.
          2   -1    0    0  501    0  0.00000000000E+00 -0.00000000000E+00 -0.53876569433E+03  0.53876569434E+03  0.25500000000E-02 0.  1.
    5000001    1    1    2    0    0 -0.28022712265E+03 -0.24560820028E+02 -0.23316580054E+03  0.41605019492E+03  0.19900000000E+03 0.  0.
   -5000001    1    1    2    0    0  0.28022712265E+03  0.24560820028E+02 -0.75554839896E+02  0.35276055332E+03  0.19900000000E+03 0.  0.
<mgrwt>
<rscale>  0 0.70410335E+03</rscale>
<asrwt>0</asrwt>
<pdfrwt beam="1">  1        2 0.76966527E-01 0.70410335E+03</pdfrwt>
<pdfrwt beam="2">  1       -2 0.32863579E-01 0.70410335E+03</pdfrwt>
<totfact> 0.53456444E+02</totfact>
</mgrwt>
</event>
<event>
 4    1  0.5131465E-005  0.8422799E+03  0.7818608E-02  0.9500758E-01
          2   -1    0    0  501    0  0.00000000000E+00  0.00000000000E+00  0.25105344006E+04  0.25105344006E+04  0.25500000000E-02 0.  1.
         -2   -1    0    0    0  501 -0.00000000000E+00 -0.00000000000E+00 -0.70645850020E+02  0.70645850066E+02  0.25500000000E-02 0. -1.
    5000001    1    1    2    0    0  0.49034109777E+02 -0.30845611680E+03  0.18344414195E+04  0.18714501974E+04  0.19900000000E+03 0.  0.
   -5000001    1    1    2    0    0 -0.49034109777E+02  0.30845611680E+03  0.60544713104E+03  0.70973005319E+03  0.19900000000E+03 0.  0.
<mgrwt>
<rscale>  0 0.84227985E+03</rscale>
<asrwt>0</asrwt>
<pdfrwt beam="1">  1        2 0.35864770E+00 0.84227985E+03</pdfrwt>
<pdfrwt beam="2">  1       -2 0.10092266E-01 0.84227985E+03</pdfrwt>
<totfact> 0.30160805E+02</totfact>
</mgrwt>
</event>
<event>
 4    1  0.5131465E-005  0.1228083E+04  0.7818608E-02  0.9088624E-01
          2   -1    0    0  501    0  0.00000000000E+00  0.00000000000E+00  0.95386075644E+03  0.95386075644E+03  0.25500000000E-02 0.  1.
         -2   -1    0    0    0  501 -0.00000000000E+00 -0.00000000000E+00 -0.39528524626E+03  0.39528524627E+03  0.25500000000E-02 0. -1.
    5000001    1    1    2    0    0  0.38047055783E+03  0.43292256267E+03  0.19956474523E+03  0.64156595778E+03  0.19900000000E+03 0.  0.
   -5000001    1    1    2    0    0 -0.38047055783E+03 -0.43292256267E+03  0.35901076494E+03  0.70758004493E+03  0.19900000000E+03 0.  0.
<mgrwt>
<rscale>  0 0.12280832E+04</rscale>
<asrwt>0</asrwt>
<pdfrwt beam="1">  1        2 0.13626582E+00 0.12280832E+04</pdfrwt>
<pdfrwt beam="2">  1       -2 0.56469322E-01 0.12280832E+04</pdfrwt>
<totfact> 0.87052792E+01</totfact>
</mgrwt>
</event>
<event>
 4    1  0.5131465E-005  0.5252369E+03  0.7818608E-02  0.1007394E+00
         -2   -1    0    0    0  501 -0.00000000000E+00  0.00000000000E+00  0.63261172908E+02  0.63261172959E+02  0.25500000000E-02 0.  1.
          2   -1    0    0  501    0  0.00000000000E+00 -0.00000000000E+00 -0.10902176598E+04  0.10902176598E+04  0.25500000000E-02 0. -1.
    5000001    1    1    2    0    0  0.15620573523E+03  0.48782267913E+02 -0.62518903645E+03  0.67619691856E+03  0.19900000000E+03 0.  0.
   -5000001    1    1    2    0    0 -0.15620573523E+03 -0.48782267913E+02 -0.40176745042E+03  0.47728191418E+03  0.19900000000E+03 0.  0.
<mgrwt>
<rscale>  0 0.52523689E+03</rscale>
<asrwt>0</asrwt>
<pdfrwt beam="1">  1        2 0.15574537E+00 0.52523689E+03</pdfrwt>
<pdfrwt beam="2">  1       -2 0.90373111E-02 0.52523689E+03</pdfrwt>
<totfact> 0.20122244E+03</totfact>
</mgrwt>
</event>
<event>
 4    1  0.5131465E-005  0.1128709E+04  0.7818608E-02  0.9177654E-01
         -2   -1    0    0    0  501 -0.00000000000E+00  0.00000000000E+00  0.84224057521E+02  0.84224057559E+02  0.25500000000E-02 0. -1.
          2   -1    0    0  501    0  0.00000000000E+00 -0.00000000000E+00 -0.37815298236E+04  0.37815298236E+04  0.25500000000E-02 0.  1.
    5000001    1    1    2    0    0 -0.38941359402E+03 -0.57029278948E+02 -0.30546945888E+04  0.30863660374E+04  0.19900000000E+03 0.  0.
   -5000001    1    1    2    0    0  0.38941359402E+03  0.57029278948E+02 -0.64261117729E+03  0.77938784379E+03  0.19900000000E+03 0.  0.
<mgrwt>
<rscale>  0 0.11287086E+04</rscale>
<asrwt>0</asrwt>
<pdfrwt beam="1">  1        2 0.54021844E+00 0.11287086E+04</pdfrwt>
<pdfrwt beam="2">  1       -2 0.12032011E-01 0.11287086E+04</pdfrwt>
<totfact> 0.41481908E+01</totfact>
</mgrwt>
</event>
<event>
 4    1  0.5131465E-005  0.5194937E+03  0.7818608E-02  0.1008812E+00
         -2   -1    0    0    0  501 -0.00000000000E+00  0.00000000000E+00  0.65872494656E+02  0.65872494705E+02  0.25500000000E-02 0. -1.
          2   -1    0    0  501    0  0.00000000000E+00 -0.00000000000E+00 -0.10242275050E+04  0.10242275050E+04  0.25500000000E-02 0.  1.
    5000001    1    1    2    0    0  0.13562841499E+03  0.37730024999E+02 -0.66743471418E+03  0.71055521913E+03  0.19900000000E+03 0.  0.
   -5000001    1    1    2    0    0 -0.13562841499E+03 -0.37730024999E+02 -0.29092029614E+03  0.37954478056E+03  0.19900000000E+03 0.  0.
<mgrwt>
<rscale>  0 0.51949368E+03</rscale>
<asrwt>0</asrwt>
<pdfrwt beam="1">  1        2 0.14631821E+00 0.51949368E+03</pdfrwt>
<pdfrwt beam="2">  1       -2 0.94103570E-02 0.51949368E+03</pdfrwt>
<totfact> 0.20625860E+03</totfact>
</mgrwt>
</event>
<event>
 4    1  0.5131465E-005  0.4987046E+03  0.7818608E-02  0.1014118E+00
         -2   -1    0    0    0  501 -0.00000000000E+00  0.00000000000E+00  0.31516441336E+02  0.31516441440E+02  0.25500000000E-02 0.  1.
          2   -1    0    0  501    0  0.00000000000E+00 -0.00000000000E+00 -0.19728298991E+04  0.19728298991E+04  0.25500000000E-02 0. -1.
    5000001    1    1    2    0    0  0.13096623734E+03 -0.71213224356E+02 -0.89524100423E+03  0.92912912681E+03  0.19900000000E+03 0.  0.
   -5000001    1    1    2    0    0 -0.13096623734E+03  0.71213224356E+02 -0.10460724535E+04  0.10752172137E+04  0.19900000000E+03 0.  0.
<mgrwt>
<rscale>  0 0.49870463E+03</rscale>
<asrwt>0</asrwt>
<pdfrwt beam="1">  1        2 0.28183277E+00 0.49870463E+03</pdfrwt>
<pdfrwt beam="2">  1       -2 0.45023500E-02 0.49870463E+03</pdfrwt>
<totfact> 0.20708449E+03</totfact>
</mgrwt>
</event>
<event>
 4    1  0.5131465E-005  0.6985048E+03  0.7818608E-02  0.9719793E-01
         -2   -1    0    0    0  501 -0.00000000000E+00  0.00000000000E+00  0.13591352469E+03  0.13591352471E+03  0.25500000000E-02 0. -1.
          2   -1    0    0  501    0  0.00000000000E+00 -0.00000000000E+00 -0.89746215495E+03  0.89746215495E+03  0.25500000000E-02 0.  1.
    5000001    1    1    2    0    0  0.17558444241E+03 -0.20592644079E+03 -0.52221597853E+03  0.62092360534E+03  0.19900000000E+03 0.  0.
   -5000001    1    1    2    0    0 -0.17558444241E+03  0.20592644079E+03 -0.23933265173E+03  0.41245207432E+03  0.19900000000E+03 0.  0.
<mgrwt>
<rscale>  0 0.69850482E+03</rscale>
<asrwt>0</asrwt>
<pdfrwt beam="1">  1        2 0.12820888E+00 0.69850482E+03</pdfrwt>
<pdfrwt beam="2">  1       -2 0.19416218E-01 0.69850482E+03</pdfrwt>
<totfact> 0.73634999E+02</totfact>
</mgrwt>
</event>
<event>
 4    1  0.5131465E-005  0.7405530E+03  0.7818608E-02  0.9650289E-01
          2   -1    0    0  501    0  0.00000000000E+00  0.00000000000E+00  0.38776401866E+03  0.38776401867E+03  0.25500000000E-02 0.  1.
         -2   -1    0    0    0  501 -0.00000000000E+00 -0.00000000000E+00 -0.35357761631E+03  0.35357761632E+03  0.25500000000E-02 0. -1.
    5000001    1    1    2    0    0  0.11013037851E+03  0.25810555877E+03 -0.12000701323E+03  0.36434854599E+03  0.19900000000E+03 0.  0.
   -5000001    1    1    2    0    0 -0.11013037851E+03 -0.25810555877E+03  0.15419341558E+03  0.37699308899E+03  0.19900000000E+03 0.  0.
<mgrwt>
<rscale>  0 0.74055298E+03</rscale>
<asrwt>0</asrwt>
<pdfrwt beam="1">  1        2 0.55394860E-01 0.74055298E+03</pdfrwt>
<pdfrwt beam="2">  1       -2 0.50511088E-01 0.74055298E+03</pdfrwt>
<totfact> 0.33444304E+02</totfact>
</mgrwt>
</event>
<event>
 4    1  0.5131465E-005  0.9674675E+03  0.7818608E-02  0.9344964E-01
          2   -1    0    0  501    0  0.00000000000E+00  0.00000000000E+00  0.52429439667E+03  0.52429439668E+03  0.25500000000E-02 0.  1.
         -2   -1    0    0    0  501 -0.00000000000E+00 -0.00000000000E+00 -0.44631097366E+03  0.44631097367E+03  0.25500000000E-02 0. -1.
    5000001    1    1    2    0    0  0.14907465792E+03 -0.40336766817E+03 -0.58630691532E+02  0.47745919967E+03  0.19900000000E+03 0.  0.
   -5000001    1    1    2    0    0 -0.14907465792E+03  0.40336766817E+03  0.13661411455E+03  0.49314617068E+03  0.19900000000E+03 0.  0.
<mgrwt>
<rscale>  0 0.96746750E+03</rscale>
<asrwt>0</asrwt>
<pdfrwt beam="1">  1        2 0.74899200E-01 0.96746750E+03</pdfrwt>
<pdfrwt beam="2">  1       -2 0.63758710E-01 0.96746750E+03</pdfrwt>
<totfact> 0.14474448E+02</totfact>
</mgrwt>
</event>
<event>
 4    1  0.5131465E-005  0.5842604E+03  0.7818608E-02  0.9938610E-01
         -2   -1    0    0    0  501 -0.00000000000E+00  0.00000000000E+00  0.44587811376E+02  0.44587811449E+02  0.25500000000E-02 0. -1.
          2   -1    0    0  501    0  0.00000000000E+00 -0.00000000000E+00 -0.19139771102E+04  0.19139771102E+04  0.25500000000E-02 0.  1.
    5000001    1    1    2    0    0 -0.16017208951E+03 -0.13720190545E+03 -0.10536669923E+04  0.10928378617E+04  0.19900000000E+03 0.  0.
   -5000001    1    1    2    0    0  0.16017208951E+03  0.13720190545E+03 -0.81572230650E+03  0.86572706001E+03  0.19900000000E+03 0.  0.
<mgrwt>
<rscale>  0 0.58426039E+03</rscale>
<asrwt>0</asrwt>
<pdfrwt beam="1">  1        2 0.27342525E+00 0.58426039E+03</pdfrwt>
<pdfrwt beam="2">  1       -2 0.63696886E-02 0.58426039E+03</pdfrwt>
<totfact> 0.12879236E+03</totfact>
</mgrwt>
</event>
<event>
 4    1  0.5131465E-005  0.5461050E+03  0.7818608E-02  0.1002400E+00
         -2   -1    0    0    0  501 -0.00000000000E+00  0.00000000000E+00  0.30036438311E+02  0.30036438419E+02  0.25500000000E-02 0. -1.
          2   -1    0    0  501    0  0.00000000000E+00 -0.00000000000E+00 -0.24822407426E+04  0.24822407426E+04  0.25500000000E-02 0.  1.
    5000001    1    1    2    0    0  0.61020278519E+02  0.17401929177E+03 -0.13679306545E+04  0.13945757289E+04  0.19900000000E+03 0.  0.
   -5000001    1    1    2    0    0 -0.61020278519E+02 -0.17401929177E+03 -0.10842736498E+04  0.11177014521E+04  0.19900000000E+03 0.  0.
<mgrwt>
<rscale>  0 0.54610501E+03</rscale>
<asrwt>0</asrwt>
<pdfrwt beam="1">  1        2 0.35460569E+00 0.54610501E+03</pdfrwt>
<pdfrwt beam="2">  1       -2 0.42909213E-02 0.54610501E+03</pdfrwt>
<totfact> 0.12329381E+03</totfact>
</mgrwt>
</event>
<event>
 4    1  0.5131465E-005  0.1055916E+04  0.7818608E-02  0.9249257E-01
          2   -1    0    0  501    0  0.00000000000E+00  0.00000000000E+00  0.14649150124E+03  0.14649150126E+03  0.25500000000E-02 0.  1.
         -2   -1    0    0    0  501 -0.00000000000E+00 -0.00000000000E+00 -0.19027697151E+04  0.19027697151E+04  0.25500000000E-02 0. -1.
    5000001    1    1    2    0    0  0.46045271388E+03 -0.15620276484E+03 -0.77687422748E+03  0.93784357480E+03  0.19900000000E+03 0.  0.
   -5000001    1    1    2    0    0 -0.46045271388E+03  0.15620276484E+03 -0.97940398641E+03  0.11114176416E+04  0.19900000000E+03 0.  0.
<mgrwt>
<rscale>  0 0.10559159E+04</rscale>
<asrwt>0</asrwt>
<pdfrwt beam="1">  1        2 0.20927358E-01 0.10559159E+04</pdfrwt>
<pdfrwt beam="2">  1       -2 0.27182423E+00 0.10559159E+04</pdfrwt>
<totfact> 0.12806997E+01</totfact>
</mgrwt>
</event>
<event>
 4    1  0.5131465E-005  0.4968847E+03  0.7818608E-02  0.1014595E+00
          2   -1    0    0  501    0  0.00000000000E+00  0.00000000000E+00  0.11672747466E+04  0.11672747467E+04  0.25500000000E-02 0.  1.
         -2   -1    0    0    0  501 -0.00000000000E+00 -0.00000000000E+00 -0.52878393174E+02  0.52878393235E+02  0.25500000000E-02 0. -1.
    5000001    1    1    2    0    0 -0.27222775112E+02  0.11469884355E+03  0.33448529229E+03  0.40666732713E+03  0.19900000000E+03 0.  0.
   -5000001    1    1    2    0    0  0.27222775112E+02 -0.11469884355E+03  0.77991106118E+03  0.81348581275E+03  0.19900000000E+03 0.  0.
<mgrwt>
<rscale>  0 0.49688475E+03</rscale>
<asrwt>0</asrwt>
<pdfrwt beam="1">  1        2 0.16675352E+00 0.49688475E+03</pdfrwt>
<pdfrwt beam="2">  1       -2 0.75540568E-02 0.49688475E+03</pdfrwt>
<totfact> 0.24191475E+03</totfact>
</mgrwt>
</event>
<event>
 4    1  0.5131465E-005  0.7685604E+03  0.7818608E-02  0.9606674E-01
         -2   -1    0    0    0  501 -0.00000000000E+00  0.00000000000E+00  0.43137610114E+03  0.43137610115E+03  0.25500000000E-02 0. -1.
          2   -1    0    0  501    0  0.00000000000E+00 -0.00000000000E+00 -0.34232607503E+03  0.34232607504E+03  0.25500000000E-02 0.  1.
    5000001    1    1    2    0    0 -0.21759271794E+03 -0.24188392841E+03  0.91912876889E+02  0.39230524169E+03  0.19900000000E+03 0.  0.
   -5000001    1    1    2    0    0  0.21759271794E+03  0.24188392841E+03 -0.28628507776E+01  0.38139693449E+03  0.19900000000E+03 0.  0.
<mgrwt>
<rscale>  0 0.76856044E+03</rscale>
<asrwt>0</asrwt>
<pdfrwt beam="1">  1        2 0.48903725E-01 0.76856044E+03</pdfrwt>
<pdfrwt beam="2">  1       -2 0.61625157E-01 0.76856044E+03</pdfrwt>
<totfact> 0.25389044E+02</totfact>
</mgrwt>
</event>
<event>
 4    1  0.5131465E-005  0.6136046E+03  0.7818608E-02  0.9877576E-01
         -2   -1    0    0    0  501 -0.00000000000E+00  0.00000000000E+00  0.81354364483E+02  0.81354364523E+02  0.25500000000E-02 0. -1.
          2   -1    0    0  501    0  0.00000000000E+00 -0.00000000000E+00 -0.11570081186E+04  0.11570081186E+04  0.25500000000E-02 0.  1.
    5000001    1    1    2    0    0  0.12726611859E+03  0.18773439374E+03 -0.64993640693E+03  0.71656067474E+03  0.19900000000E+03 0.  0.
   -5000001    1    1    2    0    0 -0.12726611859E+03 -0.18773439374E+03 -0.42571734719E+03  0.52180180838E+03  0.19900000000E+03 0.  0.
<mgrwt>
<rscale>  0 0.61360463E+03</rscale>
<asrwt>0</asrwt>
<pdfrwt beam="1">  1        2 0.16528686E+00 0.61360463E+03</pdfrwt>
<pdfrwt beam="2">  1       -2 0.11622053E-01 0.61360463E+03</pdfrwt>
<totfact> 0.12226172E+03</totfact>
</mgrwt>
</event>
<event>
 4    1  0.5131465E-005  0.6645841E+03  0.7818608E-02  0.9779792E-01
         -2   -1    0    0    0  501 -0.00000000000E+00  0.00000000000E+00  0.15149253482E+03  0.15149253484E+03  0.25500000000E-02 0. -1.
          2   -1    0    0  501    0  0.00000000000E+00 -0.00000000000E+00 -0.72886763088E+03  0.72886763089E+03  0.25500000000E-02 0.  1.
    5000001    1    1    2    0    0 -0.20997733268E+03 -0.11099504881E+03 -0.44768550669E+03  0.54445724717E+03  0.19900000000E+03 0.  0.
   -5000001    1    1    2    0    0  0.20997733268E+03  0.11099504881E+03 -0.12968958937E+03  0.33590291855E+03  0.19900000000E+03 0.  0.
<mgrwt>
<rscale>  0 0.66458410E+03</rscale>
<asrwt>0</asrwt>
<pdfrwt beam="1">  1        2 0.10412395E+00 0.66458410E+03</pdfrwt>
<pdfrwt beam="2">  1       -2 0.21641791E-01 0.66458410E+03</pdfrwt>
<totfact> 0.79704037E+02</totfact>
</mgrwt>
</event>
<event>
 4    1  0.5131465E-005  0.5428311E+03  0.7818608E-02  0.1003167E+00
          2   -1    0    0  501    0  0.00000000000E+00  0.00000000000E+00  0.12840047075E+04  0.12840047075E+04  0.25500000000E-02 0.  1.
         -2   -1    0    0    0  501 -0.00000000000E+00 -0.00000000000E+00 -0.57372373810E+02  0.57372373866E+02  0.25500000000E-02 0. -1.
    5000001    1    1    2    0    0  0.18076639330E+03  0.24980131661E+01  0.52143102436E+03  0.58666348291E+03  0.19900000000E+03 0.  0.
   -5000001    1    1    2    0    0 -0.18076639330E+03 -0.24980131661E+01  0.70520130936E+03  0.75471359849E+03  0.19900000000E+03 0.  0.
<mgrwt>
<rscale>  0 0.54283109E+03</rscale>
<asrwt>0</asrwt>
<pdfrwt beam="1">  1        2 0.18342926E+00 0.54283109E+03</pdfrwt>
<pdfrwt beam="2">  1       -2 0.81960527E-02 0.54283109E+03</pdfrwt>
<totfact> 0.18306706E+03</totfact>
</mgrwt>
</event>
<event>
 4    1  0.5131465E-005  0.8313950E+03  0.7818608E-02  0.9515654E-01
         -2   -1    0    0    0  501 -0.00000000000E+00  0.00000000000E+00  0.45623305294E+03  0.45623305294E+03  0.25500000000E-02 0. -1.
          2   -1    0    0  501    0  0.00000000000E+00 -0.00000000000E+00 -0.37876342428E+03  0.37876342429E+03  0.25500000000E-02 0.  1.
    5000001    1    1    2    0    0  0.13958751728E+03  0.32594554481E+03 -0.48116497704E+02  0.40944031373E+03  0.19900000000E+03 0.  0.
   -5000001    1    1    2    0    0 -0.13958751728E+03 -0.32594554481E+03  0.12558612636E+03  0.42555616350E+03  0.19900000000E+03 0.  0.
<mgrwt>
<rscale>  0 0.83139496E+03</rscale>
<asrwt>0</asrwt>
<pdfrwt beam="1">  1        2 0.54109060E-01 0.83139496E+03</pdfrwt>
<pdfrwt beam="2">  1       -2 0.65176151E-01 0.83139496E+03</pdfrwt>
<totfact> 0.20080132E+02</totfact>
</mgrwt>
</event>
<event>
 4    1  0.5131465E-005  0.9072477E+03  0.7818608E-02  0.9416567E-01
          2   -1    0    0  501    0  0.00000000000E+00  0.00000000000E+00  0.17956854663E+03  0.17956854664E+03  0.25500000000E-02 0.  1.
         -2   -1    0    0    0  501 -0.00000000000E+00 -0.00000000000E+00 -0.11459388681E+04  0.11459388681E+04  0.25500000000E-02 0. -1.
    5000001    1    1    2    0    0  0.33935486373E+03 -0.65584890550E+02 -0.16742055220E+03  0.43254334199E+03  0.19900000000E+03 0.  0.
   -5000001    1    1    2    0    0 -0.33935486373E+03  0.65584890550E+02 -0.79894976929E+03  0.89296407277E+03  0.19900000000E+03 0.  0.
<mgrwt>
<rscale>  0 0.90724766E+03</rscale>
<asrwt>0</asrwt>
<pdfrwt beam="1">  1        2 0.25652650E-01 0.90724766E+03</pdfrwt>
<pdfrwt beam="2">  1       -2 0.16370555E+00 0.90724766E+03</pdfrwt>
<totfact> 0.50538533E+01</totfact>
</mgrwt>
</event>
<event>
 4    1  0.5131465E-005  0.5620390E+03  0.7818608E-02  0.9987452E-01
          2   -1    0    0  501    0  0.00000000000E+00  0.00000000000E+00  0.19274281098E+04  0.19274281098E+04  0.25500000000E-02 0.  1.
         -2   -1    0    0    0  501 -0.00000000000E+00 -0.00000000000E+00 -0.40972706474E+02  0.40972706553E+02  0.25500000000E-02 0. -1.
    5000001    1    1    2    0    0 -0.60768439278E+02 -0.11668426986E+03  0.42301774903E+03  0.48564703030E+03  0.19900000000E+03 0.  0.
   -5000001    1    1    2    0    0  0.60768439278E+02  0.11668426986E+03  0.14634376543E+04  0.14827537861E+04  0.19900000000E+03 0.  0.
<mgrwt>
<rscale>  0 0.56203895E+03</rscale>
<asrwt>0</asrwt>
<pdfrwt beam="1">  1        2 0.27534689E+00 0.56203895E+03</pdfrwt>
<pdfrwt beam="2">  1       -2 0.58532434E-02 0.56203895E+03</pdfrwt>
<totfact> 0.14491531E+03</totfact>
</mgrwt>
</event>
<event>
 4    1  0.5131465E-005  0.5690136E+03  0.7818608E-02  0.9971864E-01
         -2   -1    0    0    0  501 -0.00000000000E+00  0.00000000000E+00  0.68790140135E+02  0.68790140182E+02  0.25500000000E-02 0. -1.
          2   -1    0    0  501    0  0.00000000000E+00 -0.00000000000E+00 -0.11766820520E+04  0.11766820520E+04  0.25500000000E-02 0.  1.
    5000001    1    1    2    0    0 -0.81963891137E+02  0.16401830714E+03 -0.74630184422E+03  0.79384351557E+03  0.19900000000E+03 0.  0.
   -5000001    1    1    2    0    0  0.81963891137E+02 -0.16401830714E+03 -0.36159006767E+03  0.45162867664E+03  0.19900000000E+03 0.  0.
<mgrwt>
<rscale>  0 0.56901361E+03</rscale>
<asrwt>0</asrwt>
<pdfrwt beam="1">  1        2 0.16809742E+00 0.56901361E+03</pdfrwt>
<pdfrwt beam="2">  1       -2 0.98271636E-02 0.56901361E+03</pdfrwt>
<totfact> 0.15678618E+03</totfact>
</mgrwt>
</event>
<event>
 4    1  0.5131465E-005  0.5022324E+03  0.7818608E-02  0.1013198E+00
         -2   -1    0    0    0  501 -0.00000000000E+00  0.00000000000E+00  0.97165086305E+02  0.97165086339E+02  0.25500000000E-02 0. -1.
          2   -1    0    0  501    0  0.00000000000E+00 -0.00000000000E+00 -0.64899189127E+03  0.64899189128E+03  0.25500000000E-02 0.  1.
    5000001    1    1    2    0    0 -0.61802131946E+02  0.13831232558E+03 -0.24240973287E+03  0.34830056203E+03  0.19900000000E+03 0.  0.
   -5000001    1    1    2    0    0  0.61802131946E+02 -0.13831232558E+03 -0.30941707209E+03  0.39785641559E+03  0.19900000000E+03 0.  0.
<mgrwt>
<rscale>  0 0.50223243E+03</rscale>
<asrwt>0</asrwt>
<pdfrwt beam="1">  1        2 0.92713125E-01 0.50223243E+03</pdfrwt>
<pdfrwt beam="2">  1       -2 0.13880727E-01 0.50223243E+03</pdfrwt>
<totfact> 0.19657753E+03</totfact>
</mgrwt>
</event>
<event>
 4    1  0.5131465E-005  0.7945474E+03  0.7818608E-02  0.9567943E-01
          2   -1    0    0  501    0  0.00000000000E+00  0.00000000000E+00  0.16634999049E+04  0.16634999049E+04  0.25500000000E-02 0.  1.
         -2   -1    0    0    0  501 -0.00000000000E+00 -0.00000000000E+00 -0.94876103905E+02  0.94876103939E+02  0.25500000000E-02 0. -1.
    5000001    1    1    2    0    0  0.14858412154E+03  0.30240849212E+03  0.63263693693E+03  0.74388079102E+03  0.19900000000E+03 0.  0.
   -5000001    1    1    2    0    0 -0.14858412154E+03 -0.30240849212E+03  0.93598686409E+03  0.10144952178E+04  0.19900000000E+03 0.  0.
<mgrwt>
<rscale>  0 0.79454739E+03</rscale>
<asrwt>0</asrwt>
<pdfrwt beam="1">  1        2 0.23764282E+00 0.79454739E+03</pdfrwt>
<pdfrwt beam="2">  1       -2 0.13553730E-01 0.79454739E+03</pdfrwt>
<totfact> 0.50318746E+02</totfact>
</mgrwt>
</event>
<event>
 4    1  0.5131465E-005  0.5667079E+03  0.7818608E-02  0.9976990E-01
         -2   -1    0    0    0  501 -0.00000000000E+00  0.00000000000E+00  0.10005664717E+03  0.10005664721E+03  0.25500000000E-02 0. -1.
          2   -1    0    0  501    0  0.00000000000E+00 -0.00000000000E+00 -0.80244018462E+03  0.80244018462E+03  0.25500000000E-02 0.  1.
    5000001    1    1    2    0    0 -0.13344177657E+03 -0.11919848200E+03 -0.20287737908E+03  0.33582021498E+03  0.19900000000E+03 0.  0.
   -5000001    1    1    2    0    0  0.13344177657E+03  0.11919848200E+03 -0.49950615836E+03  0.56667661685E+03  0.19900000000E+03 0.  0.
<mgrwt>
<rscale>  0 0.56670795E+03</rscale>
<asrwt>0</asrwt>
<pdfrwt beam="1">  1        2 0.11463431E+00 0.56670795E+03</pdfrwt>
<pdfrwt beam="2">  1       -2 0.14293807E-01 0.56670795E+03</pdfrwt>
<totfact> 0.14412028E+03</totfact>
</mgrwt>
</event>
<event>
 4    1  0.5131465E-005  0.7306115E+03  0.7818608E-02  0.9666269E-01
          2   -1    0    0  501    0  0.00000000000E+00  0.00000000000E+00  0.63564125376E+03  0.63564125376E+03  0.25500000000E-02 0.  1.
         -2   -1    0    0    0  501 -0.00000000000E+00 -0.00000000000E+00 -0.20994276068E+03  0.20994276069E+03  0.25500000000E-02 0. -1.
    5000001    1    1    2    0    0 -0.30110229376E+02 -0.26210926329E+03  0.39303941957E+03  0.51350645288E+03  0.19900000000E+03 0.  0.
   -5000001    1    1    2    0    0  0.30110229376E+02  0.26210926329E+03  0.32659073509E+02  0.33207756157E+03  0.19900000000E+03 0.  0.
<mgrwt>
<rscale>  0 0.73061147E+03</rscale>
<asrwt>0</asrwt>
<pdfrwt beam="1">  1        2 0.90805894E-01 0.73061147E+03</pdfrwt>
<pdfrwt beam="2">  1       -2 0.29991823E-01 0.73061147E+03</pdfrwt>
<totfact> 0.52151802E+02</totfact>
</mgrwt>
</event>
<event>
 4    1  0.5131465E-005  0.9501864E+03  0.7818608E-02  0.9364933E-01
          2   -1    0    0  501    0  0.00000000000E+00  0.00000000000E+00  0.10272305432E+04  0.10272305432E+04  0.25500000000E-02 0.  1.
         -2   -1    0    0    0  501 -0.00000000000E+00 -0.00000000000E+00 -0.21973018550E+03  0.21973018552E+03  0.25500000000E-02 0. -1.
    5000001    1    1    2    0    0  0.31702474820E+03 -0.21419405523E+03  0.14217499664E+03  0.45409086529E+03  0.19900000000E+03 0.  0.
   -5000001    1    1    2    0    0 -0.31702474820E+03  0.21419405523E+03  0.66532536111E+03  0.79286986347E+03  0.19900000000E+03 0.  0.
<mgrwt>
<rscale>  0 0.95018642E+03</rscale>
<asrwt>0</asrwt>
<pdfrwt beam="1">  1        2 0.14674723E+00 0.95018642E+03</pdfrwt>
<pdfrwt beam="2">  1       -2 0.31390025E-01 0.95018642E+03</pdfrwt>
<totfact> 0.25397985E+02</totfact>
</mgrwt>
</event>
<event>
 4    1  0.5131465E-005  0.7625677E+03  0.7818608E-02  0.9615837E-01
         -2   -1    0    0    0  501 -0.00000000000E+00  0.00000000000E+00  0.78252470001E+03  0.78252470002E+03  0.25500000000E-02 0. -1.
          2   -1    0    0  501    0  0.00000000000E+00 -0.00000000000E+00 -0.18577992619E+03  0.18577992621E+03  0.25500000000E-02 0.  1.
    5000001    1    1    2    0    0 -0.54216698663E+02  0.30250811350E+03  0.43350727787E+03  0.56743296443E+03  0.19900000000E+03 0.  0.
   -5000001    1    1    2    0    0  0.54216698663E+02 -0.30250811350E+03  0.16323749595E+03  0.40087166180E+03  0.19900000000E+03 0.  0.
<mgrwt>
<rscale>  0 0.76256772E+03</rscale>
<asrwt>0</asrwt>
<pdfrwt beam="1">  1        2 0.26539989E-01 0.76256772E+03</pdfrwt>
<pdfrwt beam="2">  1       -2 0.11178924E+00 0.76256772E+03</pdfrwt>
<totfact> 0.13038876E+02</totfact>
</mgrwt>
</event>
<event>
 4    1  0.5131465E-005  0.5240228E+03  0.7818608E-02  0.1007692E+00
          2   -1    0    0  501    0  0.00000000000E+00  0.00000000000E+00  0.79838929687E+02  0.79838929728E+02  0.25500000000E-02 0.  1.
         -2   -1    0    0    0  501 -0.00000000000E+00 -0.00000000000E+00 -0.85985595948E+03  0.85985595949E+03  0.25500000000E-02 0. -1.
    5000001    1    1    2    0    0 -0.11650232739E+03  0.12098362009E+03 -0.33806196674E+03  0.42672792499E+03  0.19900000000E+03 0.  0.
   -5000001    1    1    2    0    0  0.11650232739E+03 -0.12098362009E+03 -0.44195506306E+03  0.51296696422E+03  0.19900000000E+03 0.  0.
<mgrwt>
<rscale>  0 0.52402282E+03</rscale>
<asrwt>0</asrwt>
<pdfrwt beam="1">  1        2 0.11405562E-01 0.52402282E+03</pdfrwt>
<pdfrwt beam="2">  1       -2 0.12283656E+00 0.52402282E+03</pdfrwt>
<totfact> 0.28566241E+02</totfact>
</mgrwt>
</event>
<event>
 4    1  0.5131465E-005  0.7977592E+03  0.7818608E-02  0.9563266E-01
          2   -1    0    0  501    0  0.00000000000E+00  0.00000000000E+00  0.11173021037E+03  0.11173021040E+03  0.25500000000E-02 0.  1.
         -2   -1    0    0    0  501 -0.00000000000E+00 -0.00000000000E+00 -0.14240099966E+04  0.14240099966E+04  0.25500000000E-02 0. -1.
    5000001    1    1    2    0    0  0.27847261293E+03  0.11818475103E+03 -0.97820374958E+03  0.10430715255E+04  0.19900000000E+03 0.  0.
   -5000001    1    1    2    0    0 -0.27847261293E+03 -0.11818475103E+03 -0.33407603669E+03  0.49266868159E+03  0.19900000000E+03 0.  0.
<mgrwt>
<rscale>  0 0.79775920E+03</rscale>
<asrwt>0</asrwt>
<pdfrwt beam="1">  1        2 0.15961459E-01 0.79775920E+03</pdfrwt>
<pdfrwt beam="2">  1       -2 0.20342999E+00 0.79775920E+03</pdfrwt>
<totfact> 0.47684501E+01</totfact>
</mgrwt>
</event>
<event>
 4    1  0.5131465E-005  0.4768135E+03  0.7818608E-02  0.1020015E+00
         -2   -1    0    0    0  501 -0.00000000000E+00  0.00000000000E+00  0.12081843900E+03  0.12081843903E+03  0.25500000000E-02 0. -1.
          2   -1    0    0  501    0  0.00000000000E+00 -0.00000000000E+00 -0.47043953307E+03  0.47043953308E+03  0.25500000000E-02 0.  1.
    5000001    1    1    2    0    0 -0.11029102038E+03 -0.69946843297E+02 -0.15816932076E+03  0.28578874032E+03  0.19900000000E+03 0.  0.
   -5000001    1    1    2    0    0  0.11029102038E+03  0.69946843297E+02 -0.19145177331E+03  0.30546923179E+03  0.19900000000E+03 0.  0.
<mgrwt>
<rscale>  0 0.47681346E+03</rscale>
<asrwt>0</asrwt>
<pdfrwt beam="1">  1        2 0.67205647E-01 0.47681346E+03</pdfrwt>
<pdfrwt beam="2">  1       -2 0.17259777E-01 0.47681346E+03</pdfrwt>
<totfact> 0.19731817E+03</totfact>
</mgrwt>
</event>
<event>
 4    1  0.5131465E-005  0.7938918E+03  0.7818608E-02  0.9568901E-01
          2   -1    0    0  501    0  0.00000000000E+00  0.00000000000E+00  0.13383175414E+04  0.13383175414E+04  0.25500000000E-02 0.  1.
         -2   -1    0    0    0  501 -0.00000000000E+00 -0.00000000000E+00 -0.11773441810E+03  0.11773441812E+03  0.25500000000E-02 0. -1.
    5000001    1    1    2    0    0 -0.18189668415E+03 -0.19645826156E+03  0.10048626978E+04  0.10587881250E+04  0.19900000000E+03 0.  0.
   -5000001    1    1    2    0    0  0.18189668415E+03  0.19645826156E+03  0.21572042553E+03  0.39726383454E+03  0.19900000000E+03 0.  0.
<mgrwt>
<rscale>  0 0.79389177E+03</rscale>
<asrwt>0</asrwt>
<pdfrwt beam="1">  1        2 0.19118821E+00 0.79389177E+03</pdfrwt>
<pdfrwt beam="2">  1       -2 0.16819204E-01 0.79389177E+03</pdfrwt>
<totfact> 0.51812254E+02</totfact>
</mgrwt>
</event>
<event>
 4    1  0.5131465E-005  0.5866998E+03  0.7818608E-02  0.9933391E-01
          2   -1    0    0  501    0  0.00000000000E+00  0.00000000000E+00  0.30876628108E+03  0.30876628109E+03  0.25500000000E-02 0.  1.
         -2   -1    0    0    0  501 -0.00000000000E+00 -0.00000000000E+00 -0.27870323045E+03  0.27870323046E+03  0.25500000000E-02 0. -1.
    5000001    1    1    2    0    0 -0.14682372150E+03  0.41247057490E+02 -0.13746613263E+03  0.28593087026E+03  0.19900000000E+03 0.  0.
   -5000001    1    1    2    0    0  0.14682372150E+03 -0.41247057490E+02  0.16752918327E+03  0.30153864129E+03  0.19900000000E+03 0.  0.
<mgrwt>
<rscale>  0 0.58669979E+03</rscale>
<asrwt>0</asrwt>
<pdfrwt beam="1">  1        2 0.44109469E-01 0.58669979E+03</pdfrwt>
<pdfrwt beam="2">  1       -2 0.39814747E-01 0.58669979E+03</pdfrwt>
<totfact> 0.69310765E+02</totfact>
</mgrwt>
</event>
<event>
 4    1  0.5131465E-005  0.6212127E+03  0.7818608E-02  0.9862348E-01
          2   -1    0    0  501    0  0.00000000000E+00  0.00000000000E+00  0.42032005933E+04  0.42032005933E+04  0.25500000000E-02 0.  1.
         -2   -1    0    0    0  501 -0.00000000000E+00 -0.00000000000E+00 -0.22953061042E+02  0.22953061184E+02  0.25500000000E-02 0. -1.
    5000001    1    1    2    0    0  0.16041837430E+03  0.17331192396E+02  0.32848500253E+04  0.32948255058E+04  0.19900000000E+03 0.  0.
   -5000001    1    1    2    0    0 -0.16041837430E+03 -0.17331192396E+02  0.89539750697E+03  0.93132814868E+03  0.19900000000E+03 0.  0.
<mgrwt>
<rscale>  0 0.62121275E+03</rscale>
<asrwt>0</asrwt>
<pdfrwt beam="1">  1        2 0.60045676E+00 0.62121275E+03</pdfrwt>
<pdfrwt beam="2">  1       -2 0.32790113E-02 0.62121275E+03</pdfrwt>
<totfact> 0.18083757E+02</totfact>
</mgrwt>
</event>
<event>
 4    1  0.5131465E-005  0.9135082E+03  0.7818608E-02  0.9408851E-01
         -2   -1    0    0    0  501 -0.00000000000E+00  0.00000000000E+00  0.81033271293E+02  0.81033271334E+02  0.25500000000E-02 0. -1.
          2   -1    0    0  501    0  0.00000000000E+00 -0.00000000000E+00 -0.25745512202E+04  0.25745512202E+04  0.25500000000E-02 0.  1.
    5000001    1    1    2    0    0 -0.37048263915E+03 -0.83184208581E+02 -0.17049838011E+04  0.17580522633E+04  0.19900000000E+03 0.  0.
   -5000001    1    1    2    0    0  0.37048263915E+03  0.83184208581E+02 -0.78853414779E+03  0.89753222822E+03  0.19900000000E+03 0.  0.
<mgrwt>
<rscale>  0 0.91350820E+03</rscale>
<asrwt>0</asrwt>
<pdfrwt beam="1">  1        2 0.36779298E+00 0.91350820E+03</pdfrwt>
<pdfrwt beam="2">  1       -2 0.11576183E-01 0.91350820E+03</pdfrwt>
<totfact> 0.22168174E+02</totfact>
</mgrwt>
</event>
<event>
 4    1  0.5131465E-005  0.4565205E+03  0.7818608E-02  0.1025795E+00
          2   -1    0    0  501    0  0.00000000000E+00  0.00000000000E+00  0.32314097021E+03  0.32314097022E+03  0.25500000000E-02 0.  1.
         -2   -1    0    0    0  501 -0.00000000000E+00 -0.00000000000E+00 -0.16123839336E+03  0.16123839338E+03  0.25500000000E-02 0. -1.
    5000001    1    1    2    0    0 -0.87999355536E+02  0.49836775756E+02  0.30353212851E+02  0.22527740305E+03  0.19900000000E+03 0.  0.
   -5000001    1    1    2    0    0  0.87999355536E+02 -0.49836775756E+02  0.13154936400E+03  0.25910196055E+03  0.19900000000E+03 0.  0.
<mgrwt>
<rscale>  0 0.45652045E+03</rscale>
<asrwt>0</asrwt>
<pdfrwt beam="1">  1        2 0.46162995E-01 0.45652045E+03</pdfrwt>
<pdfrwt beam="2">  1       -2 0.23034057E-01 0.45652045E+03</pdfrwt>
<totfact> 0.18109899E+03</totfact>
</mgrwt>
</event>
<event>
 4    1  0.5131465E-005  0.5476547E+03  0.7818608E-02  0.1002038E+00
         -2   -1    0    0    0  501 -0.00000000000E+00  0.00000000000E+00  0.26466286982E+02  0.26466287105E+02  0.25500000000E-02 0. -1.
          2   -1    0    0  501    0  0.00000000000E+00 -0.00000000000E+00 -0.28330915775E+04  0.28330915775E+04  0.25500000000E-02 0.  1.
    5000001    1    1    2    0    0  0.39845150309E+02  0.15767626342E+03 -0.90986451090E+03  0.94546489530E+03  0.19900000000E+03 0.  0.
   -5000001    1    1    2    0    0 -0.39845150309E+02 -0.15767626342E+03 -0.18967607796E+04  0.19140929693E+04  0.19900000000E+03 0.  0.
<mgrwt>
<rscale>  0 0.54765469E+03</rscale>
<asrwt>0</asrwt>
<pdfrwt beam="1">  1        2 0.40472717E+00 0.54765469E+03</pdfrwt>
<pdfrwt beam="2">  1       -2 0.37809000E-02 0.54765469E+03</pdfrwt>
<totfact> 0.98357313E+02</totfact>
</mgrwt>
</event>
<event>
 4    1  0.5131465E-005  0.1012693E+04  0.7818608E-02  0.9294732E-01
         -2   -1    0    0    0  501 -0.00000000000E+00  0.00000000000E+00  0.11264305906E+03  0.11264305909E+03  0.25500000000E-02 0. -1.
          2   -1    0    0  501    0  0.00000000000E+00 -0.00000000000E+00 -0.22760975920E+04  0.22760975920E+04  0.25500000000E-02 0.  1.
    5000001    1    1    2    0    0 -0.36535311949E+03 -0.27938021027E+03 -0.91082578092E+03  0.10395868444E+04  0.19900000000E+03 0.  0.
   -5000001    1    1    2    0    0  0.36535311949E+03  0.27938021027E+03 -0.12526287520E+04  0.13491538067E+04  0.19900000000E+03 0.  0.
<mgrwt>
<rscale>  0 0.10126926E+04</rscale>
<asrwt>0</asrwt>
<pdfrwt beam="1">  1        2 0.32515677E+00 0.10126926E+04</pdfrwt>
<pdfrwt beam="2">  1       -2 0.16091867E-01 0.10126926E+04</pdfrwt>
<totfact> 0.18048599E+02</totfact>
</mgrwt>
</event>
<event>
 4    1  0.5131465E-005  0.5139007E+03  0.7818608E-02  0.1010213E+00
         -2   -1    0    0    0  501 -0.00000000000E+00  0.00000000000E+00  0.54270180656E+02  0.54270180716E+02  0.25500000000E-02 0. -1.
          2   -1    0    0  501    0  0.00000000000E+00 -0.00000000000E+00 -0.12165703146E+04  0.12165703146E+04  0.25500000000E-02 0.  1.
    5000001    1    1    2    0    0  0.59456819002E+02  0.15083557712E+03 -0.60998978910E+03  0.66179681735E+03  0.19900000000E+03 0.  0.
   -5000001    1    1    2    0    0 -0.59456819002E+02 -0.15083557712E+03 -0.55231034484E+03  0.60904367797E+03  0.19900000000E+03 0.  0.
<mgrwt>
<rscale>  0 0.51390073E+03</rscale>
<asrwt>0</asrwt>
<pdfrwt beam="1">  1        2 0.17379574E+00 0.51390073E+03</pdfrwt>
<pdfrwt beam="2">  1       -2 0.77528837E-02 0.51390073E+03</pdfrwt>
<totfact> 0.21787140E+03</totfact>
</mgrwt>
</event>
<event>
 4    1  0.5131465E-005  0.6157489E+03  0.7818608E-02  0.9873260E-01
         -2   -1    0    0    0  501 -0.00000000000E+00  0.00000000000E+00  0.52219369642E+02  0.52219369704E+02  0.25500000000E-02 0. -1.
          2   -1    0    0  501    0  0.00000000000E+00 -0.00000000000E+00 -0.18151632361E+04  0.18151632361E+04  0.25500000000E-02 0.  1.
    5000001    1    1    2    0    0 -0.16939989798E+03 -0.69563485227E+02 -0.43523924858E+03  0.51241546368E+03  0.19900000000E+03 0.  0.
   -5000001    1    1    2    0    0  0.16939989798E+03  0.69563485227E+02 -0.13277046179E+04  0.13549671421E+04  0.19900000000E+03 0.  0.
<mgrwt>
<rscale>  0 0.61574891E+03</rscale>
<asrwt>0</asrwt>
<pdfrwt beam="1">  1        2 0.25930899E+00 0.61574891E+03</pdfrwt>
<pdfrwt beam="2">  1       -2 0.74599111E-02 0.61574891E+03</pdfrwt>
<totfact> 0.11236864E+03</totfact>
</mgrwt>
</event>
<event>
 4    1  0.5131465E-005  0.6591865E+03  0.7818608E-02  0.9789692E-01
         -2   -1    0    0    0  501 -0.00000000000E+00  0.00000000000E+00  0.16264655770E+03  0.16264655772E+03  0.25500000000E-02 0. -1.
          2   -1    0    0  501    0  0.00000000000E+00 -0.00000000000E+00 -0.66790045787E+03  0.66790045788E+03  0.25500000000E-02 0.  1.
    5000001    1    1    2    0    0 -0.23575497273E+03 -0.10159626031E+03 -0.18215371440E+03  0.37240191050E+03  0.19900000000E+03 0.  0.
   -5000001    1    1    2    0    0  0.23575497273E+03  0.10159626031E+03 -0.32310018577E+03  0.45814510510E+03  0.19900000000E+03 0.  0.
<mgrwt>
<rscale>  0 0.65918650E+03</rscale>
<asrwt>0</asrwt>
<pdfrwt beam="1">  1        2 0.95414350E-01 0.65918650E+03</pdfrwt>
<pdfrwt beam="2">  1       -2 0.23235223E-01 0.65918650E+03</pdfrwt>
<totfact> 0.78237724E+02</totfact>
</mgrwt>
</event>
<event>
 4    1  0.5131465E-005  0.4288622E+03  0.7818608E-02  0.1034220E+00
          2   -1    0    0  501    0  0.00000000000E+00  0.00000000000E+00  0.18720853949E+03  0.18720853951E+03  0.25500000000E-02 0.  1.
         -2   -1    0    0    0  501 -0.00000000000E+00 -0.00000000000E+00 -0.24561215989E+03  0.24561215991E+03  0.25500000000E-02 0. -1.
    5000001    1    1    2    0    0 -0.63094257177E+01 -0.71143462812E+02  0.68842421061E+01  0.21154099826E+03  0.19900000000E+03 0.  0.
   -5000001    1    1    2    0    0  0.63094257177E+01  0.71143462812E+02 -0.65287862509E+02  0.22127970116E+03  0.19900000000E+03 0.  0.
<mgrwt>
<rscale>  0 0.42886219E+03</rscale>
<asrwt>0</asrwt>
<pdfrwt beam="1">  1        2 0.26744077E-01 0.42886219E+03</pdfrwt>
<pdfrwt beam="2">  1       -2 0.35087451E-01 0.42886219E+03</pdfrwt>
<totfact> 0.15371551E+03</totfact>
</mgrwt>
</event>
<event>
 4    1  0.5131465E-005  0.8261920E+03  0.7818608E-02  0.9522860E-01
         -2   -1    0    0    0  501 -0.00000000000E+00  0.00000000000E+00  0.82771712981E+02  0.82771713020E+02  0.25500000000E-02 0. -1.
          2   -1    0    0  501    0  0.00000000000E+00 -0.00000000000E+00 -0.20616742165E+04  0.20616742165E+04  0.25500000000E-02 0.  1.
    5000001    1    1    2    0    0  0.36048033340E+03  0.22097540498E+02 -0.92519118952E+03  0.10129235456E+04  0.19900000000E+03 0.  0.
   -5000001    1    1    2    0    0 -0.36048033340E+03 -0.22097540498E+02 -0.10537113140E+04  0.11315223839E+04  0.19900000000E+03 0.  0.
<mgrwt>
<rscale>  0 0.82619200E+03</rscale>
<asrwt>0</asrwt>
<pdfrwt beam="1">  1        2 0.29452486E+00 0.82619200E+03</pdfrwt>
<pdfrwt beam="2">  1       -2 0.11824532E-01 0.82619200E+03</pdfrwt>
<totfact> 0.39503741E+02</totfact>
</mgrwt>
</event>
<event>
 4    1  0.5131465E-005  0.5767444E+03  0.7818608E-02  0.9954864E-01
          2   -1    0    0  501    0  0.00000000000E+00  0.00000000000E+00  0.87441881231E+03  0.87441881232E+03  0.25500000000E-02 0.  1.
         -2   -1    0    0    0  501 -0.00000000000E+00 -0.00000000000E+00 -0.95101494820E+02  0.95101494854E+02  0.25500000000E-02 0. -1.
    5000001    1    1    2    0    0  0.72502289598E+02  0.13745799133E+03  0.15548159245E+03  0.29652454699E+03  0.19900000000E+03 0.  0.
   -5000001    1    1    2    0    0 -0.72502289598E+02 -0.13745799133E+03  0.62383572504E+03  0.67299576018E+03  0.19900000000E+03 0.  0.
<mgrwt>
<rscale>  0 0.57674444E+03</rscale>
<asrwt>0</asrwt>
<pdfrwt beam="1">  1        2 0.12491697E+00 0.57674444E+03</pdfrwt>
<pdfrwt beam="2">  1       -2 0.13585928E-01 0.57674444E+03</pdfrwt>
<totfact> 0.14030596E+03</totfact>
</mgrwt>
</event>
<event>
 4    1  0.5131465E-005  0.6674456E+03  0.7818608E-02  0.9774583E-01
          2   -1    0    0  501    0  0.00000000000E+00  0.00000000000E+00  0.27534309894E+03  0.27534309895E+03  0.25500000000E-02 0.  1.
         -2   -1    0    0    0  501 -0.00000000000E+00 -0.00000000000E+00 -0.40448047117E+03  0.40448047118E+03  0.25500000000E-02 0. -1.
    5000001    1    1    2    0    0 -0.18060590594E+03  0.15127588287E+03  0.65338851494E+02  0.31523491480E+03  0.19900000000E+03 0.  0.
   -5000001    1    1    2    0    0  0.18060590594E+03 -0.15127588287E+03 -0.19447622372E+03  0.36458865532E+03  0.19900000000E+03 0.  0.
<mgrwt>
<rscale>  0 0.66744560E+03</rscale>
<asrwt>0</asrwt>
<pdfrwt beam="1">  1        2 0.39334728E-01 0.66744560E+03</pdfrwt>
<pdfrwt beam="2">  1       -2 0.57782925E-01 0.66744560E+03</pdfrwt>
<totfact> 0.37124728E+02</totfact>
</mgrwt>
</event>
<event>
 4    1  0.5131465E-005  0.6777726E+03  0.7818608E-02  0.9756018E-01
         -2   -1    0    0    0  501 -0.00000000000E+00  0.00000000000E+00  0.76714846076E+02  0.76714846118E+02  0.25500000000E-02 0. -1.
          2   -1    0    0  501    0  0.00000000000E+00 -0.00000000000E+00 -0.14970236625E+04  0.14970236625E+04  0.25500000000E-02 0.  1.
    5000001    1    1    2    0    0  0.10217565736E+03  0.25401274774E+03 -0.74904920619E+03  0.82197205200E+03  0.19900000000E+03 0.  0.
   -5000001    1    1    2    0    0 -0.10217565736E+03 -0.25401274774E+03 -0.67125961026E+03  0.75176645664E+03  0.19900000000E+03 0.  0.
<mgrwt>
<rscale>  0 0.67777265E+03</rscale>
<asrwt>0</asrwt>
<pdfrwt beam="1">  1        2 0.21386051E+00 0.67777265E+03</pdfrwt>
<pdfrwt beam="2">  1       -2 0.10959265E-01 0.67777265E+03</pdfrwt>
<totfact> 0.87784748E+02</totfact>
</mgrwt>
</event>
<event>
 4    1  0.5131465E-005  0.1444936E+04  0.7818608E-02  0.8921918E-01
          2   -1    0    0  501    0  0.00000000000E+00  0.00000000000E+00  0.12342029789E+04  0.12342029789E+04  0.25500000000E-02 0.  1.
         -2   -1    0    0    0  501 -0.00000000000E+00 -0.00000000000E+00 -0.42291290421E+03  0.42291290422E+03  0.25500000000E-02 0. -1.
    5000001    1    1    2    0    0 -0.59549874860E+03  0.31867842345E+03  0.59122353960E+03  0.91941338414E+03  0.19900000000E+03 0.  0.
   -5000001    1    1    2    0    0  0.59549874860E+03 -0.31867842345E+03  0.22006653512E+03  0.73770249900E+03  0.19900000000E+03 0.  0.
<mgrwt>
<rscale>  0 0.14449365E+04</rscale>
<asrwt>0</asrwt>
<pdfrwt beam="1">  1        2 0.17631471E+00 0.14449365E+04</pdfrwt>
<pdfrwt beam="2">  1       -2 0.60416129E-01 0.14449365E+04</pdfrwt>
<totfact> 0.50670069E+01</totfact>
</mgrwt>
</event>
<event>
 4    1  0.5131465E-005  0.6493857E+03  0.7818608E-02  0.9807933E-01
         -2   -1    0    0    0  501 -0.00000000000E+00  0.00000000000E+00  0.13300329989E+03  0.13300329991E+03  0.25500000000E-02 0. -1.
          2   -1    0    0  501    0  0.00000000000E+00 -0.00000000000E+00 -0.79265276210E+03  0.79265276211E+03  0.25500000000E-02 0.  1.
    5000001    1    1    2    0    0  0.20376588996E+03  0.39004458460E+02 -0.54497807386E+03  0.61615256770E+03  0.19900000000E+03 0.  0.
   -5000001    1    1    2    0    0 -0.20376588996E+03 -0.39004458460E+02 -0.11467138836E+03  0.30950349432E+03  0.19900000000E+03 0.  0.
<mgrwt>
<rscale>  0 0.64938566E+03</rscale>
<asrwt>0</asrwt>
<pdfrwt beam="1">  1        2 0.11323611E+00 0.64938566E+03</pdfrwt>
<pdfrwt beam="2">  1       -2 0.19000472E-01 0.64938566E+03</pdfrwt>
<totfact> 0.90065481E+02</totfact>
</mgrwt>
</event>
<event>
 4    1  0.5131465E-005  0.5408533E+03  0.7818608E-02  0.1003633E+00
          2   -1    0    0  501    0  0.00000000000E+00  0.00000000000E+00  0.19724702290E+04  0.19724702290E+04  0.25500000000E-02 0.  1.
         -2   -1    0    0    0  501 -0.00000000000E+00 -0.00000000000E+00 -0.37075629007E+02  0.37075629095E+02  0.25500000000E-02 0. -1.
    5000001    1    1    2    0    0  0.18612510228E+02 -0.16785631346E+03  0.12306180606E+04  0.12579920423E+04  0.19900000000E+03 0.  0.
   -5000001    1    1    2    0    0 -0.18612510228E+02  0.16785631346E+03  0.70477653941E+03  0.75155381577E+03  0.19900000000E+03 0.  0.
<mgrwt>
<rscale>  0 0.54085331E+03</rscale>
<asrwt>0</asrwt>
<pdfrwt beam="1">  1        2 0.28178159E+00 0.54085331E+03</pdfrwt>
<pdfrwt beam="2">  1       -2 0.52965161E-02 0.54085331E+03</pdfrwt>
<totfact> 0.16090030E+03</totfact>
</mgrwt>
</event>
<event>
 4    1  0.5131465E-005  0.7238910E+03  0.7818608E-02  0.9677226E-01
         -2   -1    0    0    0  501 -0.00000000000E+00  0.00000000000E+00  0.28374592110E+03  0.28374592111E+03  0.25500000000E-02 0. -1.
          2   -1    0    0  501    0  0.00000000000E+00 -0.00000000000E+00 -0.46169665817E+03  0.46169665818E+03  0.25500000000E-02 0.  1.
    5000001    1    1    2    0    0  0.76011488004E+02 -0.20067132751E+03 -0.30828731976E+03  0.42507505163E+03  0.19900000000E+03 0.  0.
   -5000001    1    1    2    0    0 -0.76011488004E+02  0.20067132751E+03  0.13033658269E+03  0.32036752766E+03  0.19900000000E+03 0.  0.
<mgrwt>
<rscale>  0 0.72389100E+03</rscale>
<asrwt>0</asrwt>
<pdfrwt beam="1">  1        2 0.65956665E-01 0.72389100E+03</pdfrwt>
<pdfrwt beam="2">  1       -2 0.40535132E-01 0.72389100E+03</pdfrwt>
<totfact> 0.42652388E+02</totfact>
</mgrwt>
</event>
<event>
 4    1  0.5131465E-005  0.4350088E+03  0.7818608E-02  0.1032289E+00
          2   -1    0    0  501    0  0.00000000000E+00  0.00000000000E+00  0.27388891563E+03  0.27388891564E+03  0.25500000000E-02 0.  1.
         -2   -1    0    0    0  501 -0.00000000000E+00 -0.00000000000E+00 -0.17272756435E+03  0.17272756437E+03  0.25500000000E-02 0. -1.
    5000001    1    1    2    0    0 -0.84195794930E+02  0.93216089917E+00  0.25070848169E+02  0.21753010880E+03  0.19900000000E+03 0.  0.
   -5000001    1    1    2    0    0  0.84195794930E+02 -0.93216089917E+00  0.76090503116E+02  0.22908637121E+03  0.19900000000E+03 0.  0.
<mgrwt>
<rscale>  0 0.43500881E+03</rscale>
<asrwt>0</asrwt>
<pdfrwt beam="1">  1        2 0.39126988E-01 0.43500881E+03</pdfrwt>
<pdfrwt beam="2">  1       -2 0.24675366E-01 0.43500881E+03</pdfrwt>
<totfact> 0.19201437E+03</totfact>
</mgrwt>
</event>
<event>
 4    1  0.5131465E-005  0.4866018E+03  0.7818608E-02  0.1017336E+00
          2   -1    0    0  501    0  0.00000000000E+00  0.00000000000E+00  0.52775323205E+03  0.52775323206E+03  0.25500000000E-02 0.  1.
         -2   -1    0    0    0  501 -0.00000000000E+00 -0.00000000000E+00 -0.11216477376E+03  0.11216477379E+03  0.25500000000E-02 0. -1.
    5000001    1    1    2    0    0  0.56881740393E+01 -0.13163975781E+03  0.26993680326E+03  0.36031688680E+03  0.19900000000E+03 0.  0.
   -5000001    1    1    2    0    0 -0.56881740393E+01  0.13163975781E+03  0.14565165503E+03  0.27960111905E+03  0.19900000000E+03 0.  0.
<mgrwt>
<rscale>  0 0.48660178E+03</rscale>
<asrwt>0</asrwt>
<pdfrwt beam="1">  1        2 0.75393320E-01 0.48660178E+03</pdfrwt>
<pdfrwt beam="2">  1       -2 0.16023539E-01 0.48660178E+03</pdfrwt>
<totfact> 0.19657323E+03</totfact>
</mgrwt>
</event>
<event>
 4    1  0.5131465E-005  0.5693667E+03  0.7818608E-02  0.9971081E-01
          2   -1    0    0  501    0  0.00000000000E+00  0.00000000000E+00  0.28059421296E+04  0.28059421296E+04  0.25500000000E-02 0.  1.
         -2   -1    0    0    0  501 -0.00000000000E+00 -0.00000000000E+00 -0.28883203633E+02  0.28883203746E+02  0.25500000000E-02 0. -1.
    5000001    1    1    2    0    0  0.10637073810E+03  0.16902236884E+03  0.15851997457E+04  0.16100753178E+04  0.19900000000E+03 0.  0.
   -5000001    1    1    2    0    0 -0.10637073810E+03 -0.16902236884E+03  0.11918591802E+04  0.12247500155E+04  0.19900000000E+03 0.  0.
<mgrwt>
<rscale>  0 0.56936666E+03</rscale>
<asrwt>0</asrwt>
<pdfrwt beam="1">  1        2 0.40084859E+00 0.56936666E+03</pdfrwt>
<pdfrwt beam="2">  1       -2 0.41261749E-02 0.56936666E+03</pdfrwt>
<totfact> 0.88755204E+02</totfact>
</mgrwt>
</event>
<event>
 4    1  0.5131465E-005  0.1554931E+04  0.7818608E-02  0.8848725E-01
         -2   -1    0    0    0  501 -0.00000000000E+00  0.00000000000E+00  0.25561139987E+03  0.25561139988E+03  0.25500000000E-02 0. -1.
          2   -1    0    0  501    0  0.00000000000E+00 -0.00000000000E+00 -0.23647312065E+04  0.23647312065E+04  0.25500000000E-02 0.  1.
    5000001    1    1    2    0    0 -0.85573835224E+02  0.74044031356E+03 -0.89225206147E+03  0.11795293470E+04  0.19900000000E+03 0.  0.
   -5000001    1    1    2    0    0  0.85573835224E+02 -0.74044031356E+03 -0.12168677451E+04  0.14408132594E+04  0.19900000000E+03 0.  0.
<mgrwt>
<rscale>  0 0.15549306E+04</rscale>
<asrwt>0</asrwt>
<pdfrwt beam="1">  1        2 0.33781873E+00 0.15549306E+04</pdfrwt>
<pdfrwt beam="2">  1       -2 0.36515916E-01 0.15549306E+04</pdfrwt>
<totfact> 0.35362133E+01</totfact>
</mgrwt>
</event>
<event>
 4    1  0.5131465E-005  0.4404034E+03  0.7818608E-02  0.1030623E+00
          2   -1    0    0  501    0  0.00000000000E+00  0.00000000000E+00  0.27307906099E+03  0.27307906100E+03  0.25500000000E-02 0.  1.
         -2   -1    0    0    0  501 -0.00000000000E+00 -0.00000000000E+00 -0.17756316464E+03  0.17756316466E+03  0.25500000000E-02 0. -1.
    5000001    1    1    2    0    0  0.70536361666E+02  0.62294408763E+02  0.41986734891E+02  0.22409787502E+03  0.19900000000E+03 0.  0.
   -5000001    1    1    2    0    0 -0.70536361666E+02 -0.62294408763E+02  0.53529161460E+02  0.22654435064E+03  0.19900000000E+03 0.  0.
<mgrwt>
<rscale>  0 0.44040337E+03</rscale>
<asrwt>0</asrwt>
<pdfrwt beam="1">  1        2 0.39011294E-01 0.44040337E+03</pdfrwt>
<pdfrwt beam="2">  1       -2 0.25366167E-01 0.44040337E+03</pdfrwt>
<totfact> 0.18340515E+03</totfact>
</mgrwt>
</event>
<event>
 4    1  0.5131465E-005  0.7766124E+03  0.7818608E-02  0.9594501E-01
         -2   -1    0    0    0  501 -0.00000000000E+00  0.00000000000E+00  0.57442166903E+02  0.57442166959E+02  0.25500000000E-02 0. -1.
          2   -1    0    0  501    0  0.00000000000E+00 -0.00000000000E+00 -0.26249306121E+04  0.26249306121E+04  0.25500000000E-02 0.  1.
    5000001    1    1    2    0    0 -0.32532458800E+03 -0.61189102361E+02 -0.11455646573E+04  0.12089249678E+04  0.19900000000E+03 0.  0.
   -5000001    1    1    2    0    0  0.32532458800E+03  0.61189102361E+02 -0.14219237879E+04  0.14734478112E+04  0.19900000000E+03 0.  0.
<mgrwt>
<rscale>  0 0.77661239E+03</rscale>
<asrwt>0</asrwt>
<pdfrwt beam="1">  1        2 0.37499001E+00 0.77661239E+03</pdfrwt>
<pdfrwt beam="2">  1       -2 0.82060255E-02 0.77661239E+03</pdfrwt>
<totfact> 0.36946796E+02</totfact>
</mgrwt>
</event>
<event>
 4    1  0.5131465E-005  0.5191174E+03  0.7818608E-02  0.1008906E+00
         -2   -1    0    0    0  501 -0.00000000000E+00  0.00000000000E+00  0.45473751169E+03  0.45473751170E+03  0.25500000000E-02 0. -1.
          2   -1    0    0  501    0  0.00000000000E+00 -0.00000000000E+00 -0.14815296239E+03  0.14815296241E+03  0.25500000000E-02 0.  1.
    5000001    1    1    2    0    0 -0.10039262299E+03 -0.13138037742E+03  0.17738144129E+03  0.31369516737E+03  0.19900000000E+03 0.  0.
   -5000001    1    1    2    0    0  0.10039262299E+03  0.13138037742E+03  0.12920310802E+03  0.28919530674E+03  0.19900000000E+03 0.  0.
<mgrwt>
<rscale>  0 0.51911736E+03</rscale>
<asrwt>0</asrwt>
<pdfrwt beam="1">  1        2 0.21164709E-01 0.51911736E+03</pdfrwt>
<pdfrwt beam="2">  1       -2 0.64962501E-01 0.51911736E+03</pdfrwt>
<totfact> 0.58547292E+02</totfact>
</mgrwt>
</event>
<event>
 4    1  0.5131465E-005  0.5151947E+03  0.7818608E-02  0.1009887E+00
         -2   -1    0    0    0  501 -0.00000000000E+00  0.00000000000E+00  0.57308881970E+02  0.57308882026E+02  0.25500000000E-02 0. -1.
          2   -1    0    0  501    0  0.00000000000E+00 -0.00000000000E+00 -0.11578726444E+04  0.11578726444E+04  0.25500000000E-02 0.  1.
    5000001    1    1    2    0    0 -0.35995872925E+02 -0.14925970354E+03 -0.41724655572E+03  0.48710353133E+03  0.19900000000E+03 0.  0.
   -5000001    1    1    2    0    0  0.35995872925E+02  0.14925970354E+03 -0.68331720667E+03  0.72807799507E+03  0.19900000000E+03 0.  0.
<mgrwt>
<rscale>  0 0.51519467E+03</rscale>
<asrwt>0</asrwt>
<pdfrwt beam="1">  1        2 0.16541036E+00 0.51519467E+03</pdfrwt>
<pdfrwt beam="2">  1       -2 0.81869838E-02 0.51519467E+03</pdfrwt>
<totfact> 0.21551460E+03</totfact>
</mgrwt>
</event>
<event>
 4    1  0.5131465E-005  0.6725874E+03  0.7818608E-02  0.9765295E-01
          2   -1    0    0  501    0  0.00000000000E+00  0.00000000000E+00  0.53193119753E+03  0.53193119754E+03  0.25500000000E-02 0.  1.
         -2   -1    0    0    0  501 -0.00000000000E+00 -0.00000000000E+00 -0.21260916347E+03  0.21260916349E+03  0.25500000000E-02 0. -1.
    5000001    1    1    2    0    0 -0.11929425072E+03 -0.71990097668E+02  0.41708729048E+03  0.48267639294E+03  0.19900000000E+03 0.  0.
   -5000001    1    1    2    0    0  0.11929425072E+03  0.71990097668E+02 -0.97765256425E+02  0.26186396808E+03  0.19900000000E+03 0.  0.
<mgrwt>
<rscale>  0 0.67258738E+03</rscale>
<asrwt>0</asrwt>
<pdfrwt beam="1">  1        2 0.75990171E-01 0.67258738E+03</pdfrwt>
<pdfrwt beam="2">  1       -2 0.30372738E-01 0.67258738E+03</pdfrwt>
<totfact> 0.62900980E+02</totfact>
</mgrwt>
</event>
<event>
 4    1  0.5131465E-005  0.5902783E+03  0.7818608E-02  0.9925783E-01
          2   -1    0    0  501    0  0.00000000000E+00  0.00000000000E+00  0.20837237636E+03  0.20837237638E+03  0.25500000000E-02 0.  1.
         -2   -1    0    0    0  501 -0.00000000000E+00 -0.00000000000E+00 -0.41803575737E+03  0.41803575738E+03  0.25500000000E-02 0. -1.
    5000001    1    1    2    0    0 -0.23199373225E+02 -0.14093649428E+03  0.69880693878E+02  0.25472655479E+03  0.19900000000E+03 0.  0.
   -5000001    1    1    2    0    0  0.23199373225E+02  0.14093649428E+03 -0.27954407488E+03  0.37168157896E+03  0.19900000000E+03 0.  0.
<mgrwt>
<rscale>  0 0.59027825E+03</rscale>
<asrwt>0</asrwt>
<pdfrwt beam="1">  1        2 0.29767482E-01 0.59027825E+03</pdfrwt>
<pdfrwt beam="2">  1       -2 0.59719394E-01 0.59027825E+03</pdfrwt>
<totfact> 0.47365105E+02</totfact>
</mgrwt>
</event>
<event>
 4    1  0.5131465E-005  0.5226620E+03  0.7818608E-02  0.1008027E+00
         -2   -1    0    0    0  501 -0.00000000000E+00  0.00000000000E+00  0.94840033936E+02  0.94840033970E+02  0.25500000000E-02 0. -1.
          2   -1    0    0  501    0  0.00000000000E+00 -0.00000000000E+00 -0.72009550484E+03  0.72009550485E+03  0.25500000000E-02 0.  1.
    5000001    1    1    2    0    0 -0.75263793618E+02  0.94826702458E+02 -0.49735296174E+03  0.54919733310E+03  0.19900000000E+03 0.  0.
   -5000001    1    1    2    0    0  0.75263793618E+02 -0.94826702458E+02 -0.12790250917E+03  0.26573820572E+03  0.19900000000E+03 0.  0.
<mgrwt>
<rscale>  0 0.52266196E+03</rscale>
<asrwt>0</asrwt>
<pdfrwt beam="1">  1        2 0.10287078E+00 0.52266196E+03</pdfrwt>
<pdfrwt beam="2">  1       -2 0.13548577E-01 0.52266196E+03</pdfrwt>
<totfact> 0.18048543E+03</totfact>
</mgrwt>
</event>
<event>
 4    1  0.5131465E-005  0.8624957E+03  0.7818608E-02  0.9473717E-01
          2   -1    0    0  501    0  0.00000000000E+00  0.00000000000E+00  0.47169190104E+03  0.47169190105E+03  0.25500000000E-02 0.  1.
         -2   -1    0    0    0  501 -0.00000000000E+00 -0.00000000000E+00 -0.39427159615E+03  0.39427159616E+03  0.25500000000E-02 0. -1.
    5000001    1    1    2    0    0 -0.22259394246E+03  0.16770076984E+03  0.30187487052E+03  0.45650963722E+03  0.19900000000E+03 0.  0.
   -5000001    1    1    2    0    0  0.22259394246E+03 -0.16770076984E+03 -0.22445456563E+03  0.40945385999E+03  0.19900000000E+03 0.  0.
<mgrwt>
<rscale>  0 0.86249572E+03</rscale>
<asrwt>0</asrwt>
<pdfrwt beam="1">  1        2 0.67384558E-01 0.86249572E+03</pdfrwt>
<pdfrwt beam="2">  1       -2 0.56324513E-01 0.86249572E+03</pdfrwt>
<totfact> 0.21336277E+02</totfact>
</mgrwt>
</event>
<event>
 4    1  0.5131465E-005  0.4542990E+03  0.7818608E-02  0.1026448E+00
         -2   -1    0    0    0  501 -0.00000000000E+00  0.00000000000E+00  0.37298860302E+03  0.37298860303E+03  0.25500000000E-02 0. -1.
          2   -1    0    0  501    0  0.00000000000E+00 -0.00000000000E+00 -0.13833369019E+03  0.13833369021E+03  0.25500000000E-02 0.  1.
    5000001    1    1    2    0    0 -0.35737722063E+02  0.87868077238E+02  0.55701739845E+02  0.22738000703E+03  0.19900000000E+03 0.  0.
   -5000001    1    1    2    0    0  0.35737722063E+02 -0.87868077238E+02  0.17895317299E+03  0.28394228621E+03  0.19900000000E+03 0.  0.
<mgrwt>
<rscale>  0 0.45429898E+03</rscale>
<asrwt>0</asrwt>
<pdfrwt beam="1">  1        2 0.19761956E-01 0.45429898E+03</pdfrwt>
<pdfrwt beam="2">  1       -2 0.53284086E-01 0.45429898E+03</pdfrwt>
<totfact> 0.95868701E+02</totfact>
</mgrwt>
</event>
<event>
 4    1  0.5131465E-005  0.6526275E+03  0.7818608E-02  0.9801861E-01
          2   -1    0    0  501    0  0.00000000000E+00  0.00000000000E+00  0.14662076911E+04  0.14662076911E+04  0.25500000000E-02 0.  1.
         -2   -1    0    0    0  501 -0.00000000000E+00 -0.00000000000E+00 -0.72623174708E+02  0.72623174753E+02  0.25500000000E-02 0. -1.
    5000001    1    1    2    0    0 -0.22905219150E+03  0.48294094080E+01  0.41392839284E+03  0.51325037168E+03  0.19900000000E+03 0.  0.
   -5000001    1    1    2    0    0  0.22905219150E+03 -0.48294094080E+01  0.97965612351E+03  0.10255804941E+04  0.19900000000E+03 0.  0.
<mgrwt>
<rscale>  0 0.65262748E+03</rscale>
<asrwt>0</asrwt>
<pdfrwt beam="1">  1        2 0.20945821E+00 0.65262748E+03</pdfrwt>
<pdfrwt beam="2">  1       -2 0.10374741E-01 0.65262748E+03</pdfrwt>
<totfact> 0.99751124E+02</totfact>
</mgrwt>
</event>
<event>
 4    1  0.5131465E-005  0.4865230E+03  0.7818608E-02  0.1017358E+00
          2   -1    0    0  501    0  0.00000000000E+00  0.00000000000E+00  0.10646877255E+03  0.10646877258E+03  0.25500000000E-02 0.  1.
         -2   -1    0    0    0  501 -0.00000000000E+00 -0.00000000000E+00 -0.55580764712E+03  0.55580764713E+03  0.25500000000E-02 0. -1.
    5000001    1    1    2    0    0  0.11977004682E+03 -0.71648479360E+02 -0.23806156303E+03  0.34022445018E+03  0.19900000000E+03 0.  0.
   -5000001    1    1    2    0    0 -0.11977004682E+03  0.71648479360E+02 -0.21127731154E+03  0.32205196953E+03  0.19900000000E+03 0.  0.
<mgrwt>
<rscale>  0 0.48652300E+03</rscale>
<asrwt>0</asrwt>
<pdfrwt beam="1">  1        2 0.15209825E-01 0.48652300E+03</pdfrwt>
<pdfrwt beam="2">  1       -2 0.79401091E-01 0.48652300E+03</pdfrwt>
<totfact> 0.55864499E+02</totfact>
</mgrwt>
</event>
<event>
 4    1  0.5131465E-005  0.5845834E+03  0.7818608E-02  0.9937917E-01
         -2   -1    0    0    0  501 -0.00000000000E+00  0.00000000000E+00  0.46638704751E+02  0.46638704820E+02  0.25500000000E-02 0. -1.
          2   -1    0    0  501    0  0.00000000000E+00 -0.00000000000E+00 -0.18318358354E+04  0.18318358354E+04  0.25500000000E-02 0.  1.
    5000001    1    1    2    0    0 -0.37615870555E+02 -0.21025881233E+03 -0.93913444290E+03  0.98346236517E+03  0.19900000000E+03 0.  0.
   -5000001    1    1    2    0    0  0.37615870555E+02  0.21025881233E+03 -0.84606268778E+03  0.89501217507E+03  0.19900000000E+03 0.  0.
<mgrwt>
<rscale>  0 0.58458344E+03</rscale>
<asrwt>0</asrwt>
<pdfrwt beam="1">  1        2 0.26169079E+00 0.58458344E+03</pdfrwt>
<pdfrwt beam="2">  1       -2 0.66626733E-02 0.58458344E+03</pdfrwt>
<totfact> 0.13197233E+03</totfact>
</mgrwt>
</event>
<event>
 4    1  0.5131465E-005  0.4558503E+03  0.7818608E-02  0.1025992E+00
         -2   -1    0    0    0  501 -0.00000000000E+00  0.00000000000E+00  0.75036386178E+02  0.75036386222E+02  0.25500000000E-02 0. -1.
          2   -1    0    0  501    0  0.00000000000E+00 -0.00000000000E+00 -0.69232912323E+03  0.69232912323E+03  0.25500000000E-02 0.  1.
    5000001    1    1    2    0    0  0.90958122951E+02 -0.41246647554E+02 -0.22662263476E+03  0.31770030634E+03  0.19900000000E+03 0.  0.
   -5000001    1    1    2    0    0 -0.90958122951E+02  0.41246647554E+02 -0.39067010229E+03  0.44966520311E+03  0.19900000000E+03 0.  0.
<mgrwt>
<rscale>  0 0.45585031E+03</rscale>
<asrwt>0</asrwt>
<pdfrwt beam="1">  1        2 0.98904157E-01 0.45585031E+03</pdfrwt>
<pdfrwt beam="2">  1       -2 0.10719484E-01 0.45585031E+03</pdfrwt>
<totfact> 0.27781630E+03</totfact>
</mgrwt>
</event>
<event>
 4    1  0.5131465E-005  0.4639385E+03  0.7818608E-02  0.1023645E+00
         -2   -1    0    0    0  501 -0.00000000000E+00  0.00000000000E+00  0.37254156002E+02  0.37254156089E+02  0.25500000000E-02 0. -1.
          2   -1    0    0  501    0  0.00000000000E+00 -0.00000000000E+00 -0.14443953799E+04  0.14443953799E+04  0.25500000000E-02 0.  1.
    5000001    1    1    2    0    0  0.11218731349E+03 -0.15160212902E+02 -0.82276228416E+03  0.85402260017E+03  0.19900000000E+03 0.  0.
   -5000001    1    1    2    0    0 -0.11218731349E+03  0.15160212902E+02 -0.58437893976E+03  0.62762693585E+03  0.19900000000E+03 0.  0.
<mgrwt>
<rscale>  0 0.46393849E+03</rscale>
<asrwt>0</asrwt>
<pdfrwt beam="1">  1        2 0.20634216E+00 0.46393849E+03</pdfrwt>
<pdfrwt beam="2">  1       -2 0.53220232E-02 0.46393849E+03</pdfrwt>
<totfact> 0.29646799E+03</totfact>
</mgrwt>
</event>
<event>
 4    1  0.5131465E-005  0.7372463E+03  0.7818608E-02  0.9655574E-01
         -2   -1    0    0    0  501 -0.00000000000E+00  0.00000000000E+00  0.46004491972E+02  0.46004492043E+02  0.25500000000E-02 0. -1.
          2   -1    0    0  501    0  0.00000000000E+00 -0.00000000000E+00 -0.29536904531E+04  0.29536904531E+04  0.25500000000E-02 0.  1.
    5000001    1    1    2    0    0  0.22009860231E+03  0.79202316047E+02 -0.62431382373E+03  0.69576228132E+03  0.19900000000E+03 0.  0.
   -5000001    1    1    2    0    0 -0.22009860231E+03 -0.79202316047E+02 -0.22833721374E+04  0.23039326639E+04  0.19900000000E+03 0.  0.
<mgrwt>
<rscale>  0 0.73724631E+03</rscale>
<asrwt>0</asrwt>
<pdfrwt beam="1">  1        2 0.42195566E+00 0.73724631E+03</pdfrwt>
<pdfrwt beam="2">  1       -2 0.65720722E-02 0.73724631E+03</pdfrwt>
<totfact> 0.35274603E+02</totfact>
</mgrwt>
</event>
<event>
 4    1  0.5131465E-005  0.4338634E+03  0.7818608E-02  0.1032646E+00
         -2   -1    0    0    0  501 -0.00000000000E+00  0.00000000000E+00  0.52564335026E+03  0.52564335027E+03  0.25500000000E-02 0. -1.
          2   -1    0    0  501    0  0.00000000000E+00 -0.00000000000E+00 -0.89527168963E+02  0.89527169000E+02  0.25500000000E-02 0.  1.
    5000001    1    1    2    0    0 -0.85800303943E+02 -0.25815035637E+01  0.20460645269E+03  0.29804891679E+03  0.19900000000E+03 0.  0.
   -5000001    1    1    2    0    0  0.85800303943E+02  0.25815035637E+01  0.23150972860E+03  0.31712160247E+03  0.19900000000E+03 0.  0.
<mgrwt>
<rscale>  0 0.43386339E+03</rscale>
<asrwt>0</asrwt>
<pdfrwt beam="1">  1        2 0.12789595E-01 0.43386339E+03</pdfrwt>
<pdfrwt beam="2">  1       -2 0.75091911E-01 0.43386339E+03</pdfrwt>
<totfact> 0.77987583E+02</totfact>
</mgrwt>
</event>
<event>
 4    1  0.5131465E-005  0.6847741E+03  0.7818608E-02  0.9743631E-01
          2   -1    0    0  501    0  0.00000000000E+00  0.00000000000E+00  0.35476089053E+03  0.35476089054E+03  0.25500000000E-02 0.  1.
         -2   -1    0    0    0  501 -0.00000000000E+00 -0.00000000000E+00 -0.33044484174E+03  0.33044484175E+03  0.25500000000E-02 0. -1.
    5000001    1    1    2    0    0 -0.36629023724E+01 -0.25067937664E+03 -0.10946832565E+03  0.33828668471E+03  0.19900000000E+03 0.  0.
   -5000001    1    1    2    0    0  0.36629023724E+01  0.25067937664E+03  0.13378437445E+03  0.34691904758E+03  0.19900000000E+03 0.  0.
<mgrwt>
<rscale>  0 0.68477414E+03</rscale>
<asrwt>0</asrwt>
<pdfrwt beam="1">  1        2 0.50680128E-01 0.68477414E+03</pdfrwt>
<pdfrwt beam="2">  1       -2 0.47206406E-01 0.68477414E+03</pdfrwt>
<totfact> 0.42403859E+02</totfact>
</mgrwt>
</event>
<event>
 4    1  0.5131465E-005  0.7995450E+03  0.7818608E-02  0.9560676E-01
          2   -1    0    0  501    0  0.00000000000E+00  0.00000000000E+00  0.37261104919E+03  0.37261104920E+03  0.25500000000E-02 0.  1.
         -2   -1    0    0    0  501 -0.00000000000E+00 -0.00000000000E+00 -0.42891389563E+03  0.42891389563E+03  0.25500000000E-02 0. -1.
    5000001    1    1    2    0    0  0.57076975319E+01  0.29562480434E+03 -0.20968118544E+03  0.41351396866E+03  0.19900000000E+03 0.  0.
   -5000001    1    1    2    0    0 -0.57076975319E+01 -0.29562480434E+03  0.15337833901E+03  0.38801097617E+03  0.19900000000E+03 0.  0.
<mgrwt>
<rscale>  0 0.79954501E+03</rscale>
<asrwt>0</asrwt>
<pdfrwt beam="1">  1        2 0.53230150E-01 0.79954501E+03</pdfrwt>
<pdfrwt beam="2">  1       -2 0.61273413E-01 0.79954501E+03</pdfrwt>
<totfact> 0.23359530E+02</totfact>
</mgrwt>
</event>
<event>
 4    1  0.5131465E-005  0.6938198E+03  0.7818608E-02  0.9727860E-01
         -2   -1    0    0    0  501 -0.00000000000E+00  0.00000000000E+00  0.22881260353E+03  0.22881260354E+03  0.25500000000E-02 0. -1.
          2   -1    0    0  501    0  0.00000000000E+00 -0.00000000000E+00 -0.52596095564E+03  0.52596095565E+03  0.25500000000E-02 0.  1.
    5000001    1    1    2    0    0  0.15925589753E+03 -0.91551064044E+01 -0.40439125421E+03  0.47809993030E+03  0.19900000000E+03 0.  0.
   -5000001    1    1    2    0    0 -0.15925589753E+03  0.91551064044E+01  0.10724290210E+03  0.27667362889E+03  0.19900000000E+03 0.  0.
<mgrwt>
<rscale>  0 0.69381985E+03</rscale>
<asrwt>0</asrwt>
<pdfrwt beam="1">  1        2 0.75137279E-01 0.69381985E+03</pdfrwt>
<pdfrwt beam="2">  1       -2 0.32687515E-01 0.69381985E+03</pdfrwt>
<totfact> 0.55534048E+02</totfact>
</mgrwt>
</event>
<event>
 4    1  0.5131465E-005  0.4791623E+03  0.7818608E-02  0.1019366E+00
          2   -1    0    0  501    0  0.00000000000E+00  0.00000000000E+00  0.44960737828E+04  0.44960737828E+04  0.25500000000E-02 0.  1.
         -2   -1    0    0    0  501 -0.00000000000E+00 -0.00000000000E+00 -0.12766499042E+02  0.12766499296E+02  0.25500000000E-02 0. -1.
    5000001    1    1    2    0    0 -0.12460051431E+02  0.10023892510E+03  0.30617160382E+04  0.30698386266E+04  0.19900000000E+03 0.  0.
   -5000001    1    1    2    0    0  0.12460051431E+02 -0.10023892510E+03  0.14215912456E+04  0.14390016555E+04  0.19900000000E+03 0.  0.
<mgrwt>
<rscale>  0 0.47916228E+03</rscale>
<asrwt>0</asrwt>
<pdfrwt beam="1">  1        2 0.64229676E+00 0.47916228E+03</pdfrwt>
<pdfrwt beam="2">  1       -2 0.18237842E-02 0.47916228E+03</pdfrwt>
<totfact> 0.27312924E+02</totfact>
</mgrwt>
</event>
<event>
 4    1  0.5131465E-005  0.7400204E+03  0.7818608E-02  0.9651138E-01
          2   -1    0    0  501    0  0.00000000000E+00  0.00000000000E+00  0.18380925558E+03  0.18380925560E+03  0.25500000000E-02 0.  1.
         -2   -1    0    0    0  501 -0.00000000000E+00 -0.00000000000E+00 -0.74483498790E+03  0.74483498791E+03  0.25500000000E-02 0. -1.
    5000001    1    1    2    0    0 -0.58037791182E+02  0.30099197869E+03 -0.20796754459E+03  0.42049501310E+03  0.19900000000E+03 0.  0.
   -5000001    1    1    2    0    0  0.58037791182E+02 -0.30099197869E+03 -0.35305818773E+03  0.50814923040E+03  0.19900000000E+03 0.  0.
<mgrwt>
<rscale>  0 0.74002044E+03</rscale>
<asrwt>0</asrwt>
<pdfrwt beam="1">  1        2 0.26258465E-01 0.74002044E+03</pdfrwt>
<pdfrwt beam="2">  1       -2 0.10640500E+00 0.74002044E+03</pdfrwt>
<totfact> 0.14882753E+02</totfact>
</mgrwt>
</event>
<event>
 4    1  0.5131465E-005  0.6917141E+03  0.7818608E-02  0.9731508E-01
         -2   -1    0    0    0  501 -0.00000000000E+00  0.00000000000E+00  0.12829423407E+03  0.12829423409E+03  0.25500000000E-02 0. -1.
          2   -1    0    0  501    0  0.00000000000E+00 -0.00000000000E+00 -0.93236530421E+03  0.93236530421E+03  0.25500000000E-02 0.  1.
    5000001    1    1    2    0    0  0.21713256122E+03  0.71308894983E+02 -0.14644113065E+03  0.33656724795E+03  0.19900000000E+03 0.  0.
   -5000001    1    1    2    0    0 -0.21713256122E+03 -0.71308894983E+02 -0.65762993949E+03  0.72409229036E+03  0.19900000000E+03 0.  0.
<mgrwt>
<rscale>  0 0.69171408E+03</rscale>
<asrwt>0</asrwt>
<pdfrwt beam="1">  1        2 0.13319504E+00 0.69171408E+03</pdfrwt>
<pdfrwt beam="2">  1       -2 0.18327748E-01 0.69171408E+03</pdfrwt>
<totfact> 0.77298427E+02</totfact>
</mgrwt>
</event>
<event>
 4    1  0.5131465E-005  0.4907082E+03  0.7818608E-02  0.1016233E+00
          2   -1    0    0  501    0  0.00000000000E+00  0.00000000000E+00  0.26029948004E+04  0.26029948004E+04  0.25500000000E-02 0.  1.
         -2   -1    0    0    0  501 -0.00000000000E+00 -0.00000000000E+00 -0.23126682469E+02  0.23126682610E+02  0.25500000000E-02 0. -1.
    5000001    1    1    2    0    0  0.90814806721E+02 -0.88152578221E+02  0.16520912607E+04  0.16688393392E+04  0.19900000000E+03 0.  0.
   -5000001    1    1    2    0    0 -0.90814806721E+02  0.88152578221E+02  0.92777685719E+03  0.95728214384E+03  0.19900000000E+03 0.  0.
<mgrwt>
<rscale>  0 0.49070820E+03</rscale>
<asrwt>0</asrwt>
<pdfrwt beam="1">  1        2 0.37185654E+00 0.49070820E+03</pdfrwt>
<pdfrwt beam="2">  1       -2 0.33038105E-02 0.49070820E+03</pdfrwt>
<totfact> 0.15999813E+03</totfact>
</mgrwt>
</event>
<event>
 4    1  0.5131465E-005  0.7588816E+03  0.7818608E-02  0.9621519E-01
         -2   -1    0    0    0  501 -0.00000000000E+00  0.00000000000E+00  0.19510496113E+03  0.19510496115E+03  0.25500000000E-02 0. -1.
          2   -1    0    0  501    0  0.00000000000E+00 -0.00000000000E+00 -0.73793783749E+03  0.73793783750E+03  0.25500000000E-02 0.  1.
    5000001    1    1    2    0    0  0.13067181873E+03  0.27334367546E+03 -0.13350190732E+03  0.38628441385E+03  0.19900000000E+03 0.  0.
   -5000001    1    1    2    0    0 -0.13067181873E+03 -0.27334367546E+03 -0.40933096904E+03  0.54675838480E+03  0.19900000000E+03 0.  0.
<mgrwt>
<rscale>  0 0.75888163E+03</rscale>
<asrwt>0</asrwt>
<pdfrwt beam="1">  1        2 0.10541969E+00 0.75888163E+03</pdfrwt>
<pdfrwt beam="2">  1       -2 0.27872138E-01 0.75888163E+03</pdfrwt>
<totfact> 0.49678651E+02</totfact>
</mgrwt>
</event>
<event>
 4    1  0.5131465E-005  0.5994678E+03  0.7818608E-02  0.9906511E-01
         -2   -1    0    0    0  501 -0.00000000000E+00  0.00000000000E+00  0.42757716822E+03  0.42757716823E+03  0.25500000000E-02 0.  1.
          2   -1    0    0  501    0  0.00000000000E+00 -0.00000000000E+00 -0.21011506374E+03  0.21011506376E+03  0.25500000000E-02 0. -1.
    5000001    1    1    2    0    0 -0.16736632592E+03 -0.14477023389E+03  0.14663295397E+03  0.33177120258E+03  0.19900000000E+03 0.  0.
   -5000001    1    1    2    0    0  0.16736632592E+03  0.14477023389E+03  0.70829150505E+02  0.30592102941E+03  0.19900000000E+03 0.  0.
<mgrwt>
<rscale>  0 0.59946778E+03</rscale>
<asrwt>0</asrwt>
<pdfrwt beam="1">  1        2 0.30016438E-01 0.59946778E+03</pdfrwt>
<pdfrwt beam="2">  1       -2 0.61082452E-01 0.59946778E+03</pdfrwt>
<totfact> 0.44739831E+02</totfact>
</mgrwt>
</event>
<event>
 4    1  0.5131465E-005  0.4380038E+03  0.7818608E-02  0.1031361E+00
          2   -1    0    0  501    0  0.00000000000E+00  0.00000000000E+00  0.57722567329E+03  0.57722567329E+03  0.25500000000E-02 0.  1.
         -2   -1    0    0    0  501 -0.00000000000E+00 -0.00000000000E+00 -0.83090278168E+02  0.83090278207E+02  0.25500000000E-02 0. -1.
    5000001    1    1    2    0    0 -0.19009748411E+02  0.71704179253E+02  0.16647353157E+03  0.26984680204E+03  0.19900000000E+03 0.  0.
   -5000001    1    1    2    0    0  0.19009748411E+02 -0.71704179253E+02  0.32766186355E+03  0.39046914946E+03  0.19900000000E+03 0.  0.
<mgrwt>
<rscale>  0 0.43800384E+03</rscale>
<asrwt>0</asrwt>
<pdfrwt beam="1">  1        2 0.82460808E-01 0.43800384E+03</pdfrwt>
<pdfrwt beam="2">  1       -2 0.11870040E-01 0.43800384E+03</pdfrwt>
<totfact> 0.29154067E+03</totfact>
</mgrwt>
</event>
<event>
 4    1  0.5131465E-005  0.5374622E+03  0.7818608E-02  0.1004438E+00
          2   -1    0    0  501    0  0.00000000000E+00  0.00000000000E+00  0.17187834941E+04  0.17187834941E+04  0.25500000000E-02 0.  1.
         -2   -1    0    0    0  501 -0.00000000000E+00 -0.00000000000E+00 -0.42015995625E+02  0.42015995702E+02  0.25500000000E-02 0. -1.
    5000001    1    1    2    0    0  0.15603569870E+03  0.78744075227E+02  0.68941384859E+03  0.73853924965E+03  0.19900000000E+03 0.  0.
   -5000001    1    1    2    0    0 -0.15603569870E+03 -0.78744075227E+02  0.98735364992E+03  0.10222602402E+04  0.19900000000E+03 0.  0.
<mgrwt>
<rscale>  0 0.53746218E+03</rscale>
<asrwt>0</asrwt>
<pdfrwt beam="1">  1        2 0.24554046E+00 0.53746218E+03</pdfrwt>
<pdfrwt beam="2">  1       -2 0.60022860E-02 0.53746218E+03</pdfrwt>
<totfact> 0.17761496E+03</totfact>
</mgrwt>
</event>
<event>
 4    1  0.5131465E-005  0.7256032E+03  0.7818608E-02  0.9674422E-01
         -2   -1    0    0    0  501 -0.00000000000E+00  0.00000000000E+00  0.14960548269E+03  0.14960548271E+03  0.25500000000E-02 0. -1.
          2   -1    0    0  501    0  0.00000000000E+00 -0.00000000000E+00 -0.87981394969E+03  0.87981394969E+03  0.25500000000E-02 0.  1.
    5000001    1    1    2    0    0  0.22831247971E+03  0.16843888475E+03 -0.51741397498E+03  0.62274912107E+03  0.19900000000E+03 0.  0.
   -5000001    1    1    2    0    0 -0.22831247971E+03 -0.16843888475E+03 -0.21279449202E+03  0.40667031133E+03  0.19900000000E+03 0.  0.
<mgrwt>
<rscale>  0 0.72560317E+03</rscale>
<asrwt>0</asrwt>
<pdfrwt beam="1">  1        2 0.12568770E+00 0.72560317E+03</pdfrwt>
<pdfrwt beam="2">  1       -2 0.21372212E-01 0.72560317E+03</pdfrwt>
<totfact> 0.63863571E+02</totfact>
</mgrwt>
</event>
<event>
 4    1  0.5131465E-005  0.5535101E+03  0.7818608E-02  0.1000685E+00
         -2   -1    0    0    0  501 -0.00000000000E+00  0.00000000000E+00  0.27204012262E+02  0.27204012382E+02  0.25500000000E-02 0. -1.
          2   -1    0    0  501    0  0.00000000000E+00 -0.00000000000E+00 -0.28155172874E+04  0.28155172874E+04  0.25500000000E-02 0.  1.
    5000001    1    1    2    0    0 -0.46363259722E+01 -0.17619497144E+03 -0.17895205154E+04  0.18091574941E+04  0.19900000000E+03 0.  0.
   -5000001    1    1    2    0    0  0.46363259722E+01  0.17619497144E+03 -0.99879275979E+03  0.10335638057E+04  0.19900000000E+03 0.  0.
<mgrwt>
<rscale>  0 0.55351013E+03</rscale>
<asrwt>0</asrwt>
<pdfrwt beam="1">  1        2 0.40221657E+00 0.55351013E+03</pdfrwt>
<pdfrwt beam="2">  1       -2 0.38862893E-02 0.55351013E+03</pdfrwt>
<totfact> 0.96299018E+02</totfact>
</mgrwt>
</event>
<event>
 4    1  0.5131465E-005  0.6248537E+03  0.7818608E-02  0.9855143E-01
         -2   -1    0    0    0  501 -0.00000000000E+00  0.00000000000E+00  0.10913849297E+03  0.10913849300E+03  0.25500000000E-02 0. -1.
          2   -1    0    0  501    0  0.00000000000E+00 -0.00000000000E+00 -0.89437313863E+03  0.89437313864E+03  0.25500000000E-02 0.  1.
    5000001    1    1    2    0    0  0.13196425588E+03  0.14035339934E+03 -0.16046418741E+03  0.32009904245E+03  0.19900000000E+03 0.  0.
   -5000001    1    1    2    0    0 -0.13196425588E+03 -0.14035339934E+03 -0.62477045826E+03  0.68341258918E+03  0.19900000000E+03 0.  0.
<mgrwt>
<rscale>  0 0.62485370E+03</rscale>
<asrwt>0</asrwt>
<pdfrwt beam="1">  1        2 0.12776759E+00 0.62485370E+03</pdfrwt>
<pdfrwt beam="2">  1       -2 0.15591214E-01 0.62485370E+03</pdfrwt>
<totfact> 0.10797961E+03</totfact>
</mgrwt>
</event>
<event>
 4    1  0.5131465E-005  0.6067260E+03  0.7818608E-02  0.9891549E-01
          2   -1    0    0  501    0  0.00000000000E+00  0.00000000000E+00  0.18505163918E+04  0.18505163918E+04  0.25500000000E-02 0.  1.
         -2   -1    0    0    0  501 -0.00000000000E+00 -0.00000000000E+00 -0.49731575391E+02  0.49731575457E+02  0.25500000000E-02 0. -1.
    5000001    1    1    2    0    0 -0.17818022568E+03 -0.14078393326E+03  0.99222843752E+03  0.10371531135E+04  0.19900000000E+03 0.  0.
   -5000001    1    1    2    0    0  0.17818022568E+03  0.14078393326E+03  0.80855637892E+03  0.86309485375E+03  0.19900000000E+03 0.  0.
<mgrwt>
<rscale>  0 0.60672595E+03</rscale>
<asrwt>0</asrwt>
<pdfrwt beam="1">  1        2 0.26435952E+00 0.60672595E+03</pdfrwt>
<pdfrwt beam="2">  1       -2 0.71045099E-02 0.60672595E+03</pdfrwt>
<totfact> 0.11657199E+03</totfact>
</mgrwt>
</event>
<event>
 4    1  0.5131465E-005  0.5734962E+03  0.7818608E-02  0.9961972E-01
         -2   -1    0    0    0  501 -0.00000000000E+00  0.00000000000E+00  0.81720006392E+02  0.81720006432E+02  0.25500000000E-02 0. -1.
          2   -1    0    0  501    0  0.00000000000E+00 -0.00000000000E+00 -0.10061732671E+04  0.10061732671E+04  0.25500000000E-02 0.  1.
    5000001    1    1    2    0    0  0.89054539406E+02 -0.12336119755E+03 -0.19750337063E+03  0.31899416524E+03  0.19900000000E+03 0.  0.
   -5000001    1    1    2    0    0 -0.89054539406E+02  0.12336119755E+03 -0.72694989012E+03  0.76889910833E+03  0.19900000000E+03 0.  0.
<mgrwt>
<rscale>  0 0.57349625E+03</rscale>
<asrwt>0</asrwt>
<pdfrwt beam="1">  1        2 0.14373903E+00 0.57349625E+03</pdfrwt>
<pdfrwt beam="2">  1       -2 0.11674287E-01 0.57349625E+03</pdfrwt>
<totfact> 0.14892725E+03</totfact>
</mgrwt>
</event>
<event>
 4    1  0.5131465E-005  0.1012129E+04  0.7818608E-02  0.9295341E-01
          2   -1    0    0  501    0  0.00000000000E+00  0.00000000000E+00  0.53963572539E+03  0.53963572540E+03  0.25500000000E-02 0.  1.
         -2   -1    0    0    0  501 -0.00000000000E+00 -0.00000000000E+00 -0.47458153048E+03  0.47458153048E+03  0.25500000000E-02 0. -1.
    5000001    1    1    2    0    0 -0.44795240184E+03  0.10035530328E+03 -0.43574377914E+02  0.50222730672E+03  0.19900000000E+03 0.  0.
   -5000001    1    1    2    0    0  0.44795240184E+03 -0.10035530328E+03  0.10862857283E+03  0.51198994916E+03  0.19900000000E+03 0.  0.
<mgrwt>
<rscale>  0 0.10121287E+04</rscale>
<asrwt>0</asrwt>
<pdfrwt beam="1">  1        2 0.77090818E-01 0.10121287E+04</pdfrwt>
<pdfrwt beam="2">  1       -2 0.67797361E-01 0.10121287E+04</pdfrwt>
<totfact> 0.12234779E+02</totfact>
</mgrwt>
</event>
<event>
 4    1  0.5131465E-005  0.5356602E+03  0.7818608E-02  0.1004869E+00
         -2   -1    0    0    0  501 -0.00000000000E+00  0.00000000000E+00  0.20324399973E+04  0.20324399973E+04  0.25500000000E-02 0. -1.
          2   -1    0    0  501    0  0.00000000000E+00 -0.00000000000E+00 -0.35294018733E+02  0.35294018825E+02  0.25500000000E-02 0.  1.
    5000001    1    1    2    0    0 -0.14944844469E+03 -0.49818339091E+02  0.13287299522E+04  0.13527531151E+04  0.19900000000E+03 0.  0.
   -5000001    1    1    2    0    0  0.14944844469E+03  0.49818339091E+02  0.66841602635E+03  0.71498090102E+03  0.19900000000E+03 0.  0.
<mgrwt>
<rscale>  0 0.53566025E+03</rscale>
<asrwt>0</asrwt>
<pdfrwt beam="1">  1        2 0.50420013E-02 0.53566025E+03</pdfrwt>
<pdfrwt beam="2">  1       -2 0.29034865E+00 0.53566025E+03</pdfrwt>
<totfact> 0.63021928E+01</totfact>
</mgrwt>
</event>
<event>
 4    1  0.5131465E-005  0.9429897E+03  0.7818608E-02  0.9373382E-01
          2   -1    0    0  501    0  0.00000000000E+00  0.00000000000E+00  0.12239664805E+04  0.12239664805E+04  0.25500000000E-02 0.  1.
         -2   -1    0    0    0  501 -0.00000000000E+00 -0.00000000000E+00 -0.18162866189E+03  0.18162866191E+03  0.25500000000E-02 0. -1.
    5000001    1    1    2    0    0  0.64607571548E+02  0.34644561711E+03  0.88171415609E+03  0.97016470610E+03  0.19900000000E+03 0.  0.
   -5000001    1    1    2    0    0 -0.64607571548E+02 -0.34644561711E+03  0.16062366254E+03  0.43543043633E+03  0.19900000000E+03 0.  0.
<mgrwt>
<rscale>  0 0.94298970E+03</rscale>
<asrwt>0</asrwt>
<pdfrwt beam="1">  1        2 0.17485235E+00 0.94298970E+03</pdfrwt>
<pdfrwt beam="2">  1       -2 0.25946952E-01 0.94298970E+03</pdfrwt>
<totfact> 0.27701200E+02</totfact>
</mgrwt>
</event>
<event>
 4    1  0.5131465E-005  0.7915224E+03  0.7818608E-02  0.9572370E-01
         -2   -1    0    0    0  501 -0.00000000000E+00  0.00000000000E+00  0.35293541899E+03  0.35293541900E+03  0.25500000000E-02 0. -1.
          2   -1    0    0  501    0  0.00000000000E+00 -0.00000000000E+00 -0.44378357375E+03  0.44378357376E+03  0.25500000000E-02 0.  1.
    5000001    1    1    2    0    0  0.20929660719E+03 -0.26860986052E+03 -0.78343757202E+02  0.40211325673E+03  0.19900000000E+03 0.  0.
   -5000001    1    1    2    0    0 -0.20929660719E+03  0.26860986052E+03 -0.12504397556E+02  0.39460573603E+03  0.19900000000E+03 0.  0.
<mgrwt>
<rscale>  0 0.79152244E+03</rscale>
<asrwt>0</asrwt>
<pdfrwt beam="1">  1        2 0.63397653E-01 0.79152244E+03</pdfrwt>
<pdfrwt beam="2">  1       -2 0.50419346E-01 0.79152244E+03</pdfrwt>
<totfact> 0.28805197E+02</totfact>
</mgrwt>
</event>
<event>
 4    1  0.5131465E-005  0.5390232E+03  0.7818608E-02  0.1004067E+00
          2   -1    0    0  501    0  0.00000000000E+00  0.00000000000E+00  0.56545101712E+03  0.56545101713E+03  0.25500000000E-02 0.  1.
         -2   -1    0    0    0  501 -0.00000000000E+00 -0.00000000000E+00 -0.12845765916E+03  0.12845765918E+03  0.25500000000E-02 0. -1.
    5000001    1    1    2    0    0 -0.53636206915E+02  0.15405460560E+03  0.32169202501E+03  0.41194225707E+03  0.19900000000E+03 0.  0.
   -5000001    1    1    2    0    0  0.53636206915E+02 -0.15405460560E+03  0.11530133295E+03  0.28196641924E+03  0.19900000000E+03 0.  0.
<mgrwt>
<rscale>  0 0.53902324E+03</rscale>
<asrwt>0</asrwt>
<pdfrwt beam="1">  1        2 0.80778717E-01 0.53902324E+03</pdfrwt>
<pdfrwt beam="2">  1       -2 0.18351094E-01 0.53902324E+03</pdfrwt>
<totfact> 0.14417682E+03</totfact>
</mgrwt>
</event>
<event>
 4    1  0.5131465E-005  0.8769376E+03  0.7818608E-02  0.9454879E-01
          2   -1    0    0  501    0  0.00000000000E+00  0.00000000000E+00  0.72510727482E+03  0.72510727482E+03  0.25500000000E-02 0.  1.
         -2   -1    0    0    0  501 -0.00000000000E+00 -0.00000000000E+00 -0.26513989586E+03  0.26513989587E+03  0.25500000000E-02 0. -1.
    5000001    1    1    2    0    0 -0.35054117817E+03  0.16882207489E+03  0.27028649171E+03  0.51384413801E+03  0.19900000000E+03 0.  0.
   -5000001    1    1    2    0    0  0.35054117817E+03 -0.16882207489E+03  0.18968088725E+03  0.47640303269E+03  0.19900000000E+03 0.  0.
<mgrwt>
<rscale>  0 0.87693755E+03</rscale>
<asrwt>0</asrwt>
<pdfrwt beam="1">  1        2 0.10358675E+00 0.87693755E+03</pdfrwt>
<pdfrwt beam="2">  1       -2 0.37877129E-01 0.87693755E+03</pdfrwt>
<totfact> 0.28389254E+02</totfact>
</mgrwt>
</event>
<event>
 4    1  0.5131465E-005  0.7908436E+03  0.7818608E-02  0.9573366E-01
          2   -1    0    0  501    0  0.00000000000E+00  0.00000000000E+00  0.11266271809E+04  0.11266271809E+04  0.25500000000E-02 0.  1.
         -2   -1    0    0    0  501 -0.00000000000E+00 -0.00000000000E+00 -0.13878451463E+03  0.13878451465E+03  0.25500000000E-02 0. -1.
    5000001    1    1    2    0    0  0.16575821206E+03 -0.24439922249E+03  0.76897959133E+03  0.84742986535E+03  0.19900000000E+03 0.  0.
   -5000001    1    1    2    0    0 -0.16575821206E+03  0.24439922249E+03  0.21886307499E+03  0.41798183024E+03  0.19900000000E+03 0.  0.
<mgrwt>
<rscale>  0 0.79084362E+03</rscale>
<asrwt>0</asrwt>
<pdfrwt beam="1">  1        2 0.16094674E+00 0.79084362E+03</pdfrwt>
<pdfrwt beam="2">  1       -2 0.19826359E-01 0.79084362E+03</pdfrwt>
<totfact> 0.51234691E+02</totfact>
</mgrwt>
</event>
<event>
 4    1  0.5131465E-005  0.6456488E+03  0.7818608E-02  0.9814978E-01
         -2   -1    0    0    0  501 -0.00000000000E+00  0.00000000000E+00  0.72844742618E+02  0.72844742663E+02  0.25500000000E-02 0.  1.
          2   -1    0    0  501    0  0.00000000000E+00 -0.00000000000E+00 -0.14306534618E+04  0.14306534618E+04  0.25500000000E-02 0. -1.
    5000001    1    1    2    0    0 -0.18988168075E+03 -0.16664034663E+03 -0.61343101766E+03  0.69262014931E+03  0.19900000000E+03 0.  0.
   -5000001    1    1    2    0    0  0.18988168075E+03  0.16664034663E+03 -0.74437770154E+03  0.81087805517E+03  0.19900000000E+03 0.  0.
<mgrwt>
<rscale>  0 0.64564877E+03</rscale>
<asrwt>0</asrwt>
<pdfrwt beam="1">  1        2 0.20437905E+00 0.64564877E+03</pdfrwt>
<pdfrwt beam="2">  1       -2 0.10406393E-01 0.64564877E+03</pdfrwt>
<totfact> 0.10366632E+03</totfact>
</mgrwt>
</event>
<event>
 4    1  0.5131465E-005  0.4269467E+03  0.7818608E-02  0.1034829E+00
         -2   -1    0    0    0  501 -0.00000000000E+00  0.00000000000E+00  0.41044641168E+02  0.41044641247E+02  0.25500000000E-02 0. -1.
          2   -1    0    0  501    0  0.00000000000E+00 -0.00000000000E+00 -0.11102757077E+04  0.11102757077E+04  0.25500000000E-02 0.  1.
    5000001    1    1    2    0    0 -0.63173729811E+02 -0.43683006585E+02 -0.55729661975E+03  0.59672409670E+03  0.19900000000E+03 0.  0.
   -5000001    1    1    2    0    0  0.63173729811E+02  0.43683006585E+02 -0.51193444677E+03  0.55459625224E+03  0.19900000000E+03 0.  0.
<mgrwt>
<rscale>  0 0.42694669E+03</rscale>
<asrwt>0</asrwt>
<pdfrwt beam="1">  1        2 0.15861080E+00 0.42694669E+03</pdfrwt>
<pdfrwt beam="2">  1       -2 0.58635209E-02 0.42694669E+03</pdfrwt>
<totfact> 0.38736817E+03</totfact>
</mgrwt>
</event>
<event>
 4    1  0.5131465E-005  0.4641578E+03  0.7818608E-02  0.1023582E+00
         -2   -1    0    0    0  501 -0.00000000000E+00  0.00000000000E+00  0.80451257965E+02  0.80451258006E+02  0.25500000000E-02 0. -1.
          2   -1    0    0  501    0  0.00000000000E+00 -0.00000000000E+00 -0.66948121381E+03  0.66948121381E+03  0.25500000000E-02 0.  1.
    5000001    1    1    2    0    0  0.62275380768E+02 -0.10188321679E+03 -0.29275029887E+03  0.37358017934E+03  0.19900000000E+03 0.  0.
   -5000001    1    1    2    0    0 -0.62275380768E+02  0.10188321679E+03 -0.29627965698E+03  0.37635229247E+03  0.19900000000E+03 0.  0.
<mgrwt>
<rscale>  0 0.46415776E+03</rscale>
<asrwt>0</asrwt>
<pdfrwt beam="1">  1        2 0.95640170E-01 0.46415776E+03</pdfrwt>
<pdfrwt beam="2">  1       -2 0.11493037E-01 0.46415776E+03</pdfrwt>
<totfact> 0.25833275E+03</totfact>
</mgrwt>
</event>
<event>
 4    1  0.5131465E-005  0.6021276E+03  0.7818608E-02  0.9901002E-01
          2   -1    0    0  501    0  0.00000000000E+00  0.00000000000E+00  0.25563705806E+04  0.25563705806E+04  0.25500000000E-02 0.  1.
         -2   -1    0    0    0  501 -0.00000000000E+00 -0.00000000000E+00 -0.35456284539E+02  0.35456284630E+02  0.25500000000E-02 0. -1.
    5000001    1    1    2    0    0 -0.55196186715E+02  0.17140407148E+03  0.67321260485E+03  0.72473594231E+03  0.19900000000E+03 0.  0.
   -5000001    1    1    2    0    0  0.55196186715E+02 -0.17140407148E+03  0.18477016912E+04  0.18670909230E+04  0.19900000000E+03 0.  0.
<mgrwt>
<rscale>  0 0.60212757E+03</rscale>
<asrwt>0</asrwt>
<pdfrwt beam="1">  1        2 0.36519573E+00 0.60212757E+03</pdfrwt>
<pdfrwt beam="2">  1       -2 0.50651844E-02 0.60212757E+03</pdfrwt>
<totfact> 0.87054273E+02</totfact>
</mgrwt>
</event>
<event>
 4    1  0.5131465E-005  0.6046471E+03  0.7818608E-02  0.9895811E-01
          2   -1    0    0  501    0  0.00000000000E+00  0.00000000000E+00  0.54910318874E+03  0.54910318875E+03  0.25500000000E-02 0.  1.
         -2   -1    0    0    0  501 -0.00000000000E+00 -0.00000000000E+00 -0.16645237193E+03  0.16645237195E+03  0.25500000000E-02 0. -1.
    5000001    1    1    2    0    0 -0.78758817389E+02 -0.11699323134E+03  0.40271922210E+03  0.47082283223E+03  0.19900000000E+03 0.  0.
   -5000001    1    1    2    0    0  0.78758817389E+02  0.11699323134E+03 -0.20068405295E+02  0.24473272847E+03  0.19900000000E+03 0.  0.
<mgrwt>
<rscale>  0 0.60464710E+03</rscale>
<asrwt>0</asrwt>
<pdfrwt beam="1">  1        2 0.78443313E-01 0.60464710E+03</pdfrwt>
<pdfrwt beam="2">  1       -2 0.23778910E-01 0.60464710E+03</pdfrwt>
<totfact> 0.94729726E+02</totfact>
</mgrwt>
</event>
<event>
 4    1  0.5131465E-005  0.5329567E+03  0.7818608E-02  0.1005518E+00
         -2   -1    0    0    0  501 -0.00000000000E+00  0.00000000000E+00  0.24336291737E+03  0.24336291739E+03  0.25500000000E-02 0. -1.
          2   -1    0    0  501    0  0.00000000000E+00 -0.00000000000E+00 -0.29178940836E+03  0.29178940838E+03  0.25500000000E-02 0.  1.
    5000001    1    1    2    0    0  0.15955176576E+03  0.14627837709E+02  0.51854911310E+02  0.26069267619E+03  0.19900000000E+03 0.  0.
   -5000001    1    1    2    0    0 -0.15955176576E+03 -0.14627837709E+02 -0.10028140230E+03  0.27445964957E+03  0.19900000000E+03 0.  0.
<mgrwt>
<rscale>  0 0.53295674E+03</rscale>
<asrwt>0</asrwt>
<pdfrwt beam="1">  1        2 0.41684201E-01 0.53295674E+03</pdfrwt>
<pdfrwt beam="2">  1       -2 0.34766131E-01 0.53295674E+03</pdfrwt>
<totfact> 0.95652473E+02</totfact>
</mgrwt>
</event>
<event>
 4    1  0.5131465E-005  0.5195891E+03  0.7818608E-02  0.1008789E+00
         -2   -1    0    0    0  501 -0.00000000000E+00  0.00000000000E+00  0.14419460145E+03  0.14419460147E+03  0.25500000000E-02 0. -1.
          2   -1    0    0  501    0  0.00000000000E+00 -0.00000000000E+00 -0.46807026170E+03  0.46807026171E+03  0.25500000000E-02 0.  1.
    5000001    1    1    2    0    0 -0.15069499183E+03 -0.44259786981E+02 -0.95026950866E+02  0.27073793731E+03  0.19900000000E+03 0.  0.
   -5000001    1    1    2    0    0  0.15069499183E+03  0.44259786981E+02 -0.22884870939E+03  0.34152692587E+03  0.19900000000E+03 0.  0.
<mgrwt>
<rscale>  0 0.51958909E+03</rscale>
<asrwt>0</asrwt>
<pdfrwt beam="1">  1        2 0.66867180E-01 0.51958909E+03</pdfrwt>
<pdfrwt beam="2">  1       -2 0.20599229E-01 0.51958909E+03</pdfrwt>
<totfact> 0.14639545E+03</totfact>
</mgrwt>
</event>
<event>
 4    1  0.5131465E-005  0.4257705E+03  0.7818608E-02  0.1035204E+00
         -2   -1    0    0    0  501 -0.00000000000E+00  0.00000000000E+00  0.21090659291E+02  0.21090659445E+02  0.25500000000E-02 0. -1.
          2   -1    0    0  501    0  0.00000000000E+00 -0.00000000000E+00 -0.21488250371E+04  0.21488250371E+04  0.25500000000E-02 0.  1.
    5000001    1    1    2    0    0 -0.63679424117E+02  0.24318045147E+02 -0.89694790762E+03  0.92128333609E+03  0.19900000000E+03 0.  0.
   -5000001    1    1    2    0    0  0.63679424117E+02 -0.24318045147E+02 -0.12307864702E+04  0.12486323605E+04  0.19900000000E+03 0.  0.
<mgrwt>
<rscale>  0 0.42577053E+03</rscale>
<asrwt>0</asrwt>
<pdfrwt beam="1">  1        2 0.30697487E+00 0.42577053E+03</pdfrwt>
<pdfrwt beam="2">  1       -2 0.30129527E-02 0.42577053E+03</pdfrwt>
<totfact> 0.31277990E+03</totfact>
</mgrwt>
</event>
<event>
 4    1  0.5131465E-005  0.4681217E+03  0.7818608E-02  0.1022452E+00
          2   -1    0    0  501    0  0.00000000000E+00  0.00000000000E+00  0.18633816847E+04  0.18633816847E+04  0.25500000000E-02 0.  1.
         -2   -1    0    0    0  501 -0.00000000000E+00 -0.00000000000E+00 -0.29400566429E+02  0.29400566539E+02  0.25500000000E-02 0. -1.
    5000001    1    1    2    0    0  0.24163365287E+02  0.72986599082E+02  0.52763906321E+03  0.56913521495E+03  0.19900000000E+03 0.  0.
   -5000001    1    1    2    0    0 -0.24163365287E+02 -0.72986599082E+02  0.13063420550E+04  0.13236470363E+04  0.19900000000E+03 0.  0.
<mgrwt>
<rscale>  0 0.46812168E+03</rscale>
<asrwt>0</asrwt>
<pdfrwt beam="1">  1        2 0.26619743E+00 0.46812168E+03</pdfrwt>
<pdfrwt beam="2">  1       -2 0.42000801E-02 0.46812168E+03</pdfrwt>
<totfact> 0.26152271E+03</totfact>
</mgrwt>
</event>
<event>
 4    1  0.5131465E-005  0.6512062E+03  0.7818608E-02  0.9804518E-01
         -2   -1    0    0    0  501 -0.00000000000E+00  0.00000000000E+00  0.90069027424E+02  0.90069027460E+02  0.25500000000E-02 0. -1.
          2   -1    0    0  501    0  0.00000000000E+00 -0.00000000000E+00 -0.11770682650E+04  0.11770682650E+04  0.25500000000E-02 0.  1.
    5000001    1    1    2    0    0  0.43348820432E+02  0.19569178787E+03 -0.85871221372E+03  0.90397016658E+03  0.19900000000E+03 0.  0.
   -5000001    1    1    2    0    0 -0.43348820432E+02 -0.19569178787E+03 -0.22828702389E+03  0.36316712592E+03  0.19900000000E+03 0.  0.
<mgrwt>
<rscale>  0 0.65120625E+03</rscale>
<asrwt>0</asrwt>
<pdfrwt beam="1">  1        2 0.16815260E+00 0.65120625E+03</pdfrwt>
<pdfrwt beam="2">  1       -2 0.12867005E-01 0.65120625E+03</pdfrwt>
<totfact> 0.10056705E+03</totfact>
</mgrwt>
</event>
<event>
 4    1  0.5131465E-005  0.6597147E+03  0.7818608E-02  0.9788719E-01
          2   -1    0    0  501    0  0.00000000000E+00  0.00000000000E+00  0.10933366047E+04  0.10933366047E+04  0.25500000000E-02 0.  1.
         -2   -1    0    0    0  501 -0.00000000000E+00 -0.00000000000E+00 -0.99517259863E+02  0.99517259896E+02  0.25500000000E-02 0. -1.
    5000001    1    1    2    0    0 -0.14311740921E+03 -0.20447316761E+03  0.34657325892E+03  0.47117501302E+03  0.19900000000E+03 0.  0.
   -5000001    1    1    2    0    0  0.14311740921E+03  0.20447316761E+03  0.64724608593E+03  0.72167885160E+03  0.19900000000E+03 0.  0.
<mgrwt>
<rscale>  0 0.65971467E+03</rscale>
<asrwt>0</asrwt>
<pdfrwt beam="1">  1        2 0.15619093E+00 0.65971467E+03</pdfrwt>
<pdfrwt beam="2">  1       -2 0.14216752E-01 0.65971467E+03</pdfrwt>
<totfact> 0.95113658E+02</totfact>
</mgrwt>
</event>
<event>
 4    1  0.5131465E-005  0.7967111E+03  0.7818608E-02  0.9564790E-01
         -2   -1    0    0    0  501 -0.00000000000E+00  0.00000000000E+00  0.32650875072E+03  0.32650875073E+03  0.25500000000E-02 0. -1.
          2   -1    0    0  501    0  0.00000000000E+00 -0.00000000000E+00 -0.48601189720E+03  0.48601189720E+03  0.25500000000E-02 0.  1.
    5000001    1    1    2    0    0 -0.18490173202E+03  0.28183901040E+03 -0.15513904692E+03  0.42105938081E+03  0.19900000000E+03 0.  0.
   -5000001    1    1    2    0    0  0.18490173202E+03 -0.28183901040E+03 -0.43640995595E+01  0.39146126712E+03  0.19900000000E+03 0.  0.
<mgrwt>
<rscale>  0 0.79671108E+03</rscale>
<asrwt>0</asrwt>
<pdfrwt beam="1">  1        2 0.69430271E-01 0.79671108E+03</pdfrwt>
<pdfrwt beam="2">  1       -2 0.46644107E-01 0.79671108E+03</pdfrwt>
<totfact> 0.30404446E+02</totfact>
</mgrwt>
</event>
<event>
 4    1  0.5131465E-005  0.5769674E+03  0.7818608E-02  0.9954378E-01
         -2   -1    0    0    0  501 -0.00000000000E+00  0.00000000000E+00  0.25073085888E+02  0.25073086017E+02  0.25500000000E-02 0. -1.
          2   -1    0    0  501    0  0.00000000000E+00 -0.00000000000E+00 -0.33192097702E+04  0.33192097702E+04  0.25500000000E-02 0.  1.
    5000001    1    1    2    0    0  0.49141045795E+02 -0.17755959585E+03 -0.10767990249E+04  0.11104230691E+04  0.19900000000E+03 0.  0.
   -5000001    1    1    2    0    0 -0.49141045795E+02  0.17755959585E+03 -0.22173376594E+04  0.22338597871E+04  0.19900000000E+03 0.  0.
<mgrwt>
<rscale>  0 0.57696735E+03</rscale>
<asrwt>0</asrwt>
<pdfrwt beam="1">  1        2 0.47417254E+00 0.57696735E+03</pdfrwt>
<pdfrwt beam="2">  1       -2 0.35818715E-02 0.57696735E+03</pdfrwt>
<totfact> 0.57555161E+02</totfact>
</mgrwt>
</event>
<event>
 4    1  0.5131465E-005  0.6734641E+03  0.7818608E-02  0.9763720E-01
         -2   -1    0    0    0  501 -0.00000000000E+00  0.00000000000E+00  0.12801887493E+03  0.12801887496E+03  0.25500000000E-02 0. -1.
          2   -1    0    0  501    0  0.00000000000E+00 -0.00000000000E+00 -0.88571693391E+03  0.88571693392E+03  0.25500000000E-02 0.  1.
    5000001    1    1    2    0    0  0.12958858656E+03  0.23499150963E+03 -0.44223574411E+03  0.55424513055E+03  0.19900000000E+03 0.  0.
   -5000001    1    1    2    0    0 -0.12958858656E+03 -0.23499150963E+03 -0.31546231487E+03  0.45949067832E+03  0.19900000000E+03 0.  0.
<mgrwt>
<rscale>  0 0.67346414E+03</rscale>
<asrwt>0</asrwt>
<pdfrwt beam="1">  1        2 0.12653099E+00 0.67346414E+03</pdfrwt>
<pdfrwt beam="2">  1       -2 0.18288411E-01 0.67346414E+03</pdfrwt>
<totfact> 0.83192744E+02</totfact>
</mgrwt>
</event>
<event>
 4    1  0.5131465E-005  0.6429037E+03  0.7818608E-02  0.9820187E-01
          2   -1    0    0  501    0  0.00000000000E+00  0.00000000000E+00  0.21986523654E+04  0.21986523654E+04  0.25500000000E-02 0.  1.
         -2   -1    0    0    0  501 -0.00000000000E+00 -0.00000000000E+00 -0.46997556345E+02  0.46997556414E+02  0.25500000000E-02 0. -1.
    5000001    1    1    2    0    0 -0.22506152967E+03 -0.10199852871E+03  0.89520632516E+03  0.94976405312E+03  0.19900000000E+03 0.  0.
   -5000001    1    1    2    0    0  0.22506152967E+03  0.10199852871E+03  0.12564484839E+04  0.12958858687E+04  0.19900000000E+03 0.  0.
<mgrwt>
<rscale>  0 0.64290369E+03</rscale>
<asrwt>0</asrwt>
<pdfrwt beam="1">  1        2 0.31409328E+00 0.64290369E+03</pdfrwt>
<pdfrwt beam="2">  1       -2 0.67139348E-02 0.64290369E+03</pdfrwt>
<totfact> 0.84971101E+02</totfact>
</mgrwt>
</event>
<event>
 4    1  0.5131465E-005  0.6001254E+03  0.7818608E-02  0.9905146E-01
         -2   -1    0    0    0  501 -0.00000000000E+00  0.00000000000E+00  0.33180643557E+02  0.33180643655E+02  0.25500000000E-02 0. -1.
          2   -1    0    0  501    0  0.00000000000E+00 -0.00000000000E+00 -0.27135583660E+04  0.27135583660E+04  0.25500000000E-02 0.  1.
    5000001    1    1    2    0    0  0.41975212829E+02 -0.16063273780E+03 -0.20323795572E+04  0.20488368553E+04  0.19900000000E+03 0.  0.
   -5000001    1    1    2    0    0 -0.41975212829E+02  0.16063273780E+03 -0.64799816516E+03  0.69790215432E+03  0.19900000000E+03 0.  0.
<mgrwt>
<rscale>  0 0.60012536E+03</rscale>
<asrwt>0</asrwt>
<pdfrwt beam="1">  1        2 0.38765106E+00 0.60012536E+03</pdfrwt>
<pdfrwt beam="2">  1       -2 0.47400937E-02 0.60012536E+03</pdfrwt>
<totfact> 0.79947715E+02</totfact>
</mgrwt>
</event>
<event>
 4    1  0.5131465E-005  0.7592654E+03  0.7818608E-02  0.9620925E-01
         -2   -1    0    0    0  501 -0.00000000000E+00  0.00000000000E+00  0.72746653378E+02  0.72746653423E+02  0.25500000000E-02 0. -1.
          2   -1    0    0  501    0  0.00000000000E+00 -0.00000000000E+00 -0.19811356430E+04  0.19811356430E+04  0.25500000000E-02 0.  1.
    5000001    1    1    2    0    0  0.31574260095E+03 -0.29558390647E+02 -0.78411975142E+03  0.86891419201E+03  0.19900000000E+03 0.  0.
   -5000001    1    1    2    0    0 -0.31574260095E+03  0.29558390647E+02 -0.11242692382E+04  0.11849681044E+04  0.19900000000E+03 0.  0.
<mgrwt>
<rscale>  0 0.75926540E+03</rscale>
<asrwt>0</asrwt>
<pdfrwt beam="1">  1        2 0.28301934E+00 0.75926540E+03</pdfrwt>
<pdfrwt beam="2">  1       -2 0.10392380E-01 0.75926540E+03</pdfrwt>
<totfact> 0.53887133E+02</totfact>
</mgrwt>
</event>
<event>
 4    1  0.5131465E-005  0.5019066E+03  0.7818608E-02  0.1013282E+00
          2   -1    0    0  501    0  0.00000000000E+00  0.00000000000E+00  0.40049403756E+03  0.40049403756E+03  0.25500000000E-02 0.  1.
         -2   -1    0    0    0  501 -0.00000000000E+00 -0.00000000000E+00 -0.15724967133E+03  0.15724967135E+03  0.25500000000E-02 0. -1.
    5000001    1    1    2    0    0  0.13399287900E+03 -0.40678959336E+02  0.18983235744E+03  0.30861981998E+03  0.19900000000E+03 0.  0.
   -5000001    1    1    2    0    0 -0.13399287900E+03  0.40678959336E+02  0.53412008784E+02  0.24912388893E+03  0.19900000000E+03 0.  0.
<mgrwt>
<rscale>  0 0.50190659E+03</rscale>
<asrwt>0</asrwt>
<pdfrwt beam="1">  1        2 0.57213433E-01 0.50190659E+03</pdfrwt>
<pdfrwt beam="2">  1       -2 0.22464239E-01 0.50190659E+03</pdfrwt>
<totfact> 0.14958822E+03</totfact>
</mgrwt>
</event>
<event>
 4    1  0.5131465E-005  0.6722509E+03  0.7818608E-02  0.9765900E-01
         -2   -1    0    0    0  501 -0.00000000000E+00  0.00000000000E+00  0.81573718495E+02  0.81573718535E+02  0.25500000000E-02 0. -1.
          2   -1    0    0  501    0  0.00000000000E+00 -0.00000000000E+00 -0.13850089414E+04  0.13850089414E+04  0.25500000000E-02 0.  1.
    5000001    1    1    2    0    0 -0.18968664273E+03  0.18282339471E+03 -0.78924346014E+03  0.85551835484E+03  0.19900000000E+03 0.  0.
   -5000001    1    1    2    0    0  0.18968664273E+03 -0.18282339471E+03 -0.51419176280E+03  0.61106430514E+03  0.19900000000E+03 0.  0.
<mgrwt>
<rscale>  0 0.67225093E+03</rscale>
<asrwt>0</asrwt>
<pdfrwt beam="1">  1        2 0.19785841E+00 0.67225093E+03</pdfrwt>
<pdfrwt beam="2">  1       -2 0.11653389E-01 0.67225093E+03</pdfrwt>
<totfact> 0.90992380E+02</totfact>
</mgrwt>
</event>
<event>
 4    1  0.5131465E-005  0.5634068E+03  0.7818608E-02  0.9984375E-01
         -2   -1    0    0    0  501 -0.00000000000E+00  0.00000000000E+00  0.31431671131E+02  0.31431671235E+02  0.25500000000E-02 0. -1.
          2   -1    0    0  501    0  0.00000000000E+00 -0.00000000000E+00 -0.25247404319E+04  0.25247404319E+04  0.25500000000E-02 0.  1.
    5000001    1    1    2    0    0  0.43413803993E+02 -0.19024783989E+03 -0.10608695741E+04  0.10968702076E+04  0.19900000000E+03 0.  0.
   -5000001    1    1    2    0    0 -0.43413803993E+02  0.19024783989E+03 -0.14324391866E+04  0.14593018955E+04  0.19900000000E+03 0.  0.
<mgrwt>
<rscale>  0 0.56340682E+03</rscale>
<asrwt>0</asrwt>
<pdfrwt beam="1">  1        2 0.36067708E+00 0.56340682E+03</pdfrwt>
<pdfrwt beam="2">  1       -2 0.44902403E-02 0.56340682E+03</pdfrwt>
<totfact> 0.10921542E+03</totfact>
</mgrwt>
</event>
<event>
 4    1  0.5131465E-005  0.4867276E+03  0.7818608E-02  0.1017302E+00
          2   -1    0    0  501    0  0.00000000000E+00  0.00000000000E+00  0.91831681274E+02  0.91831681310E+02  0.25500000000E-02 0.  1.
         -2   -1    0    0    0  501 -0.00000000000E+00 -0.00000000000E+00 -0.64494028157E+03  0.64494028158E+03  0.25500000000E-02 0. -1.
    5000001    1    1    2    0    0  0.73004215287E+02  0.94363857777E+02 -0.38769511500E+03  0.45182148610E+03  0.19900000000E+03 0.  0.
   -5000001    1    1    2    0    0 -0.73004215287E+02 -0.94363857777E+02 -0.16541348530E+03  0.28495047679E+03  0.19900000000E+03 0.  0.
<mgrwt>
<rscale>  0 0.48672765E+03</rscale>
<asrwt>0</asrwt>
<pdfrwt beam="1">  1        2 0.13118812E-01 0.48672765E+03</pdfrwt>
<pdfrwt beam="2">  1       -2 0.92134324E-01 0.48672765E+03</pdfrwt>
<totfact> 0.47747058E+02</totfact>
</mgrwt>
</event>
<event>
 4    1  0.5131465E-005  0.5497515E+03  0.7818608E-02  0.1001551E+00
         -2   -1    0    0    0  501 -0.00000000000E+00  0.00000000000E+00  0.51179778632E+02  0.51179778695E+02  0.25500000000E-02 0. -1.
          2   -1    0    0  501    0  0.00000000000E+00 -0.00000000000E+00 -0.14762994595E+04  0.14762994595E+04  0.25500000000E-02 0.  1.
    5000001    1    1    2    0    0 -0.18561425161E+03 -0.25560972382E+02 -0.79355013433E+03  0.83930258513E+03  0.19900000000E+03 0.  0.
   -5000001    1    1    2    0    0  0.18561425161E+03  0.25560972382E+02 -0.63156954653E+03  0.68817665306E+03  0.19900000000E+03 0.  0.
<mgrwt>
<rscale>  0 0.54975151E+03</rscale>
<asrwt>0</asrwt>
<pdfrwt beam="1">  1        2 0.21089990E+00 0.54975151E+03</pdfrwt>
<pdfrwt beam="2">  1       -2 0.73113979E-02 0.54975151E+03</pdfrwt>
<totfact> 0.17336822E+03</totfact>
</mgrwt>
</event>
<event>
 4    1  0.5131465E-005  0.4920036E+03  0.7818608E-02  0.1015887E+00
          2   -1    0    0  501    0  0.00000000000E+00  0.00000000000E+00  0.18815757340E+04  0.18815757340E+04  0.25500000000E-02 0.  1.
         -2   -1    0    0    0  501 -0.00000000000E+00 -0.00000000000E+00 -0.32162873391E+02  0.32162873492E+02  0.25500000000E-02 0. -1.
    5000001    1    1    2    0    0  0.31219777821E+02  0.10284350004E+03  0.54830189944E+03  0.59311671107E+03  0.19900000000E+03 0.  0.
   -5000001    1    1    2    0    0 -0.31219777821E+02 -0.10284350004E+03  0.13011109612E+04  0.13206218965E+04  0.19900000000E+03 0.  0.
<mgrwt>
<rscale>  0 0.49200359E+03</rscale>
<asrwt>0</asrwt>
<pdfrwt beam="1">  1        2 0.26879659E+00 0.49200359E+03</pdfrwt>
<pdfrwt beam="2">  1       -2 0.45946952E-02 0.49200359E+03</pdfrwt>
<totfact> 0.22297303E+03</totfact>
</mgrwt>
</event>
<event>
 4    1  0.5131465E-005  0.6292547E+03  0.7818608E-02  0.9846504E-01
          2   -1    0    0  501    0  0.00000000000E+00  0.00000000000E+00  0.25848165147E+04  0.25848165147E+04  0.25500000000E-02 0.  1.
         -2   -1    0    0    0  501 -0.00000000000E+00 -0.00000000000E+00 -0.38296867932E+02  0.38296868017E+02  0.25500000000E-02 0. -1.
    5000001    1    1    2    0    0  0.12739378940E+03 -0.78849487234E+02  0.47203128546E+03  0.53372366789E+03  0.19900000000E+03 0.  0.
   -5000001    1    1    2    0    0 -0.12739378940E+03  0.78849487234E+02  0.20744883614E+04  0.20893897149E+04  0.19900000000E+03 0.  0.
<mgrwt>
<rscale>  0 0.62925472E+03</rscale>
<asrwt>0</asrwt>
<pdfrwt beam="1">  1        2 0.36925963E+00 0.62925472E+03</pdfrwt>
<pdfrwt beam="2">  1       -2 0.54709793E-02 0.62925472E+03</pdfrwt>
<totfact> 0.74490586E+02</totfact>
</mgrwt>
</event>
<event>
 4    1  0.5131465E-005  0.7210255E+03  0.7818608E-02  0.9681936E-01
          2   -1    0    0  501    0  0.00000000000E+00  0.00000000000E+00  0.40391036399E+03  0.40391036400E+03  0.25500000000E-02 0.  1.
         -2   -1    0    0    0  501 -0.00000000000E+00 -0.00000000000E+00 -0.32177789239E+03  0.32177789240E+03  0.25500000000E-02 0. -1.
    5000001    1    1    2    0    0  0.25657410758E+03 -0.11774877566E+03 -0.62913919291E+02  0.35107578682E+03  0.19900000000E+03 0.  0.
   -5000001    1    1    2    0    0 -0.25657410758E+03  0.11774877566E+03  0.14504639089E+03  0.37461246958E+03  0.19900000000E+03 0.  0.
<mgrwt>
<rscale>  0 0.72102545E+03</rscale>
<asrwt>0</asrwt>
<pdfrwt beam="1">  1        2 0.57701480E-01 0.72102545E+03</pdfrwt>
<pdfrwt beam="2">  1       -2 0.45968270E-01 0.72102545E+03</pdfrwt>
<totfact> 0.38668642E+02</totfact>
</mgrwt>
</event>
<event>
 4    1  0.5131465E-005  0.4769195E+03  0.7818608E-02  0.1019985E+00
          2   -1    0    0  501    0  0.00000000000E+00  0.00000000000E+00  0.50796792299E+03  0.50796792300E+03  0.25500000000E-02 0.  1.
         -2   -1    0    0    0  501 -0.00000000000E+00 -0.00000000000E+00 -0.11194222536E+03  0.11194222539E+03  0.25500000000E-02 0. -1.
    5000001    1    1    2    0    0  0.79181028118E+02  0.65551011462E+02  0.30437198505E+03  0.37790193913E+03  0.19900000000E+03 0.  0.
   -5000001    1    1    2    0    0 -0.79181028118E+02 -0.65551011462E+02  0.91653712590E+02  0.24200820926E+03  0.19900000000E+03 0.  0.
<mgrwt>
<rscale>  0 0.47691953E+03</rscale>
<asrwt>0</asrwt>
<pdfrwt beam="1">  1        2 0.72566847E-01 0.47691953E+03</pdfrwt>
<pdfrwt beam="2">  1       -2 0.15991746E-01 0.47691953E+03</pdfrwt>
<totfact> 0.20595348E+03</totfact>
</mgrwt>
</event>
<event>
 4    1  0.5131465E-005  0.4110336E+03  0.7818608E-02  0.1040025E+00
         -2   -1    0    0    0  501 -0.00000000000E+00  0.00000000000E+00  0.17724251209E+03  0.17724251211E+03  0.25500000000E-02 0. -1.
          2   -1    0    0  501    0  0.00000000000E+00 -0.00000000000E+00 -0.23830151436E+03  0.23830151438E+03  0.25500000000E-02 0.  1.
    5000001    1    1    2    0    0  0.35788367613E+01 -0.51189861634E+02 -0.28793379829E+02  0.20751691191E+03  0.19900000000E+03 0.  0.
   -5000001    1    1    2    0    0 -0.35788367613E+01  0.51189861634E+02 -0.32265622442E+02  0.20802711457E+03  0.19900000000E+03 0.  0.
<mgrwt>
<rscale>  0 0.41103362E+03</rscale>
<asrwt>0</asrwt>
<pdfrwt beam="1">  1        2 0.34043074E-01 0.41103362E+03</pdfrwt>
<pdfrwt beam="2">  1       -2 0.25320359E-01 0.41103362E+03</pdfrwt>
<totfact> 0.21356309E+03</totfact>
</mgrwt>
</event>
<event>
 4    1  0.5131465E-005  0.7892381E+03  0.7818608E-02  0.9575727E-01
          2   -1    0    0  501    0  0.00000000000E+00  0.00000000000E+00  0.80992245759E+03  0.80992245760E+03  0.25500000000E-02 0.  1.
         -2   -1    0    0    0  501 -0.00000000000E+00 -0.00000000000E+00 -0.19227047824E+03  0.19227047826E+03  0.25500000000E-02 0. -1.
    5000001    1    1    2    0    0 -0.24421622628E+02 -0.29390612712E+03  0.92039390090E+02  0.36749078429E+03  0.19900000000E+03 0.  0.
   -5000001    1    1    2    0    0  0.24421622628E+02  0.29390612712E+03  0.52561258926E+03  0.63470215156E+03  0.19900000000E+03 0.  0.
<mgrwt>
<rscale>  0 0.78923806E+03</rscale>
<asrwt>0</asrwt>
<pdfrwt beam="1">  1        2 0.11570321E+00 0.78923806E+03</pdfrwt>
<pdfrwt beam="2">  1       -2 0.27467211E-01 0.78923806E+03</pdfrwt>
<totfact> 0.45279075E+02</totfact>
</mgrwt>
</event>
<event>
 4    1  0.5131465E-005  0.5163678E+03  0.7818608E-02  0.1009593E+00
          2   -1    0    0  501    0  0.00000000000E+00  0.00000000000E+00  0.13299214068E+04  0.13299214068E+04  0.25500000000E-02 0.  1.
         -2   -1    0    0    0  501 -0.00000000000E+00 -0.00000000000E+00 -0.50122452891E+02  0.50122452956E+02  0.25500000000E-02 0. -1.
    5000001    1    1    2    0    0 -0.16355831999E+03  0.13385146574E+01  0.59323928362E+03  0.64675108295E+03  0.19900000000E+03 0.  0.
   -5000001    1    1    2    0    0  0.16355831999E+03 -0.13385146574E+01  0.68655967025E+03  0.73329277677E+03  0.19900000000E+03 0.  0.
<mgrwt>
<rscale>  0 0.51636779E+03</rscale>
<asrwt>0</asrwt>
<pdfrwt beam="1">  1        2 0.18998874E+00 0.51636779E+03</pdfrwt>
<pdfrwt beam="2">  1       -2 0.71603515E-02 0.51636779E+03</pdfrwt>
<totfact> 0.21428894E+03</totfact>
</mgrwt>
</event>
<event>
 4    1  0.5131465E-005  0.4887669E+03  0.7818608E-02  0.1016753E+00
         -2   -1    0    0    0  501 -0.00000000000E+00  0.00000000000E+00  0.62253688526E+02  0.62253688578E+02  0.25500000000E-02 0. -1.
          2   -1    0    0  501    0  0.00000000000E+00 -0.00000000000E+00 -0.95935308802E+03  0.95935308802E+03  0.25500000000E-02 0.  1.
    5000001    1    1    2    0    0 -0.11587930022E+03 -0.80093338952E+02 -0.41361735724E+03  0.48012839259E+03  0.19900000000E+03 0.  0.
   -5000001    1    1    2    0    0  0.11587930022E+03  0.80093338952E+02 -0.48348204225E+03  0.54147838401E+03  0.19900000000E+03 0.  0.
<mgrwt>
<rscale>  0 0.48876689E+03</rscale>
<asrwt>0</asrwt>
<pdfrwt beam="1">  1        2 0.13705043E+00 0.48876689E+03</pdfrwt>
<pdfrwt beam="2">  1       -2 0.88933847E-02 0.48876689E+03</pdfrwt>
<totfact> 0.24731713E+03</totfact>
</mgrwt>
</event>
<event>
 4    1  0.5131465E-005  0.7133980E+03  0.7818608E-02  0.9694590E-01
          2   -1    0    0  501    0  0.00000000000E+00  0.00000000000E+00  0.19015691379E+04  0.19015691379E+04  0.25500000000E-02 0. -1.
         -2   -1    0    0    0  501 -0.00000000000E+00 -0.00000000000E+00 -0.66910104200E+02  0.66910104248E+02  0.25500000000E-02 0.  1.
    5000001    1    1    2    0    0 -0.19150004139E+03 -0.21142142358E+03  0.69898003375E+03  0.78073386745E+03  0.19900000000E+03 0.  0.
   -5000001    1    1    2    0    0  0.19150004139E+03  0.21142142358E+03  0.11356789999E+04  0.11877453747E+04  0.19900000000E+03 0.  0.
<mgrwt>
<rscale>  0 0.71339804E+03</rscale>
<asrwt>0</asrwt>
<pdfrwt beam="1">  1        2 0.27165272E+00 0.71339804E+03</pdfrwt>
<pdfrwt beam="2">  1       -2 0.95585867E-02 0.71339804E+03</pdfrwt>
<totfact> 0.67927012E+02</totfact>
</mgrwt>
</event>
<event>
 4    1  0.5131465E-005  0.7883553E+03  0.7818608E-02  0.9577027E-01
          2   -1    0    0  501    0  0.00000000000E+00  0.00000000000E+00  0.69896568650E+03  0.69896568651E+03  0.25500000000E-02 0.  1.
         -2   -1    0    0    0  501 -0.00000000000E+00 -0.00000000000E+00 -0.22229419239E+03  0.22229419241E+03  0.25500000000E-02 0. -1.
    5000001    1    1    2    0    0  0.29106809495E+03 -0.11036918866E+03  0.39887486250E+03  0.54369490492E+03  0.19900000000E+03 0.  0.
   -5000001    1    1    2    0    0 -0.29106809495E+03  0.11036918866E+03  0.77796631609E+02  0.37756497400E+03  0.19900000000E+03 0.  0.
<mgrwt>
<rscale>  0 0.78835528E+03</rscale>
<asrwt>0</asrwt>
<pdfrwt beam="1">  1        2 0.99852241E-01 0.78835528E+03</pdfrwt>
<pdfrwt beam="2">  1       -2 0.31756313E-01 0.78835528E+03</pdfrwt>
<totfact> 0.41690885E+02</totfact>
</mgrwt>
</event>
<event>
 4    1  0.5131465E-005  0.5687903E+03  0.7818608E-02  0.9972359E-01
          2   -1    0    0  501    0  0.00000000000E+00  0.00000000000E+00  0.46752270048E+03  0.46752270049E+03  0.25500000000E-02 0.  1.
         -2   -1    0    0    0  501 -0.00000000000E+00 -0.00000000000E+00 -0.17299825425E+03  0.17299825427E+03  0.25500000000E-02 0. -1.
    5000001    1    1    2    0    0  0.20108427884E+03  0.91337138743E+01  0.17833347772E+03  0.33454766656E+03  0.19900000000E+03 0.  0.
   -5000001    1    1    2    0    0 -0.20108427884E+03 -0.91337138743E+01  0.11619096851E+03  0.30597328819E+03  0.19900000000E+03 0.  0.
<mgrwt>
<rscale>  0 0.56879033E+03</rscale>
<asrwt>0</asrwt>
<pdfrwt beam="1">  1        2 0.66788958E-01 0.56879033E+03</pdfrwt>
<pdfrwt beam="2">  1       -2 0.24714036E-01 0.56879033E+03</pdfrwt>
<totfact> 0.10625370E+03</totfact>
</mgrwt>
</event>
<event>
 4    1  0.5131465E-005  0.6068136E+03  0.7818608E-02  0.9891370E-01
          2   -1    0    0  501    0  0.00000000000E+00  0.00000000000E+00  0.46191425587E+03  0.46191425588E+03  0.25500000000E-02 0.  1.
         -2   -1    0    0    0  501 -0.00000000000E+00 -0.00000000000E+00 -0.19929169865E+03  0.19929169866E+03  0.25500000000E-02 0. -1.
    5000001    1    1    2    0    0  0.98048453348E+02  0.20194668376E+03  0.18075139957E+03  0.35023996164E+03  0.19900000000E+03 0.  0.
   -5000001    1    1    2    0    0 -0.98048453348E+02 -0.20194668376E+03  0.81871157650E+02  0.31096599290E+03  0.19900000000E+03 0.  0.
<mgrwt>
<rscale>  0 0.60681357E+03</rscale>
<asrwt>0</asrwt>
<pdfrwt beam="1">  1        2 0.65987750E-01 0.60681357E+03</pdfrwt>
<pdfrwt beam="2">  1       -2 0.28470243E-01 0.60681357E+03</pdfrwt>
<totfact> 0.83329822E+02</totfact>
</mgrwt>
</event>
<event>
 4    1  0.5131465E-005  0.9167142E+03  0.7818608E-02  0.9404926E-01
         -2   -1    0    0    0  501 -0.00000000000E+00  0.00000000000E+00  0.17633873848E+03  0.17633873850E+03  0.25500000000E-02 0. -1.
          2   -1    0    0  501    0  0.00000000000E+00 -0.00000000000E+00 -0.11914070153E+04  0.11914070153E+04  0.25500000000E-02 0.  1.
    5000001    1    1    2    0    0 -0.35315455594E+03  0.21358930577E+03 -0.52590937833E+03  0.69751000432E+03  0.19900000000E+03 0.  0.
   -5000001    1    1    2    0    0  0.35315455594E+03 -0.21358930577E+03 -0.48915889853E+03  0.67023574952E+03  0.19900000000E+03 0.  0.
<mgrwt>
<rscale>  0 0.91671415E+03</rscale>
<asrwt>0</asrwt>
<pdfrwt beam="1">  1        2 0.17020100E+00 0.91671415E+03</pdfrwt>
<pdfrwt beam="2">  1       -2 0.25191249E-01 0.91671415E+03</pdfrwt>
<totfact> 0.30536525E+02</totfact>
</mgrwt>
</event>
<event>
 4    1  0.5131465E-005  0.5505397E+03  0.7818608E-02  0.1001369E+00
          2   -1    0    0  501    0  0.00000000000E+00  0.00000000000E+00  0.15796346336E+03  0.15796346338E+03  0.25500000000E-02 0.  1.
         -2   -1    0    0    0  501 -0.00000000000E+00 -0.00000000000E+00 -0.47968990287E+03  0.47968990288E+03  0.25500000000E-02 0. -1.
    5000001    1    1    2    0    0  0.18005870374E+03  0.33361754698E+02 -0.10137088498E+03  0.28880997177E+03  0.19900000000E+03 0.  0.
   -5000001    1    1    2    0    0 -0.18005870374E+03 -0.33361754698E+02 -0.22035555453E+03  0.34884339449E+03  0.19900000000E+03 0.  0.
<mgrwt>
<rscale>  0 0.55053966E+03</rscale>
<asrwt>0</asrwt>
<pdfrwt beam="1">  1        2 0.22566209E-01 0.55053966E+03</pdfrwt>
<pdfrwt beam="2">  1       -2 0.68527128E-01 0.55053966E+03</pdfrwt>
<totfact> 0.48458257E+02</totfact>
</mgrwt>
</event>
<event>
 4    1  0.5131465E-005  0.1164439E+04  0.7818608E-02  0.9144565E-01
          2   -1    0    0  501    0  0.00000000000E+00  0.00000000000E+00  0.29040816037E+04  0.29040816037E+04  0.25500000000E-02 0.  1.
         -2   -1    0    0    0  501 -0.00000000000E+00 -0.00000000000E+00 -0.11672522732E+03  0.11672522735E+03  0.25500000000E-02 0. -1.
    5000001    1    1    2    0    0  0.23152956765E+03  0.42420508256E+03  0.72810777322E+03  0.89626883366E+03  0.19900000000E+03 0.  0.
   -5000001    1    1    2    0    0 -0.23152956765E+03 -0.42420508256E+03  0.20592486031E+04  0.21245379973E+04  0.19900000000E+03 0.  0.
<mgrwt>
<rscale>  0 0.11644391E+04</rscale>
<asrwt>0</asrwt>
<pdfrwt beam="1">  1        2 0.41486872E+00 0.11644391E+04</pdfrwt>
<pdfrwt beam="2">  1       -2 0.16675036E-01 0.11644391E+04</pdfrwt>
<totfact> 0.78208743E+01</totfact>
</mgrwt>
</event>
<event>
 4    1  0.5131465E-005  0.1639704E+04  0.7818608E-02  0.8796521E-01
          2   -1    0    0  501    0  0.00000000000E+00  0.00000000000E+00  0.83354276406E+03  0.83354276407E+03  0.25500000000E-02 0.  1.
         -2   -1    0    0    0  501 -0.00000000000E+00 -0.00000000000E+00 -0.80638656969E+03  0.80638656969E+03  0.25500000000E-02 0. -1.
    5000001    1    1    2    0    0 -0.30143908861E+03  0.64896286999E+03 -0.33365586091E+03  0.81421469177E+03  0.19900000000E+03 0.  0.
   -5000001    1    1    2    0    0  0.30143908861E+03 -0.64896286999E+03  0.36081205528E+03  0.82571464200E+03  0.19900000000E+03 0.  0.
<mgrwt>
<rscale>  0 0.16397045E+04</rscale>
<asrwt>0</asrwt>
<pdfrwt beam="1">  1        2 0.11907754E+00 0.16397045E+04</pdfrwt>
<pdfrwt beam="2">  1       -2 0.11519808E+00 0.16397045E+04</pdfrwt>
<totfact> 0.20275442E+01</totfact>
</mgrwt>
</event>
<event>
 4    1  0.5131465E-005  0.5497209E+03  0.7818608E-02  0.1001559E+00
          2   -1    0    0  501    0  0.00000000000E+00  0.00000000000E+00  0.11939306185E+03  0.11939306188E+03  0.25500000000E-02 0.  1.
         -2   -1    0    0    0  501 -0.00000000000E+00 -0.00000000000E+00 -0.63276936412E+03  0.63276936412E+03  0.25500000000E-02 0. -1.
    5000001    1    1    2    0    0 -0.18936392255E+03 -0.78633291060E+01 -0.24961214060E+03  0.37125159642E+03  0.19900000000E+03 0.  0.
   -5000001    1    1    2    0    0  0.18936392255E+03  0.78633291060E+01 -0.26376416167E+03  0.38091082958E+03  0.19900000000E+03 0.  0.
<mgrwt>
<rscale>  0 0.54972092E+03</rscale>
<asrwt>0</asrwt>
<pdfrwt beam="1">  1        2 0.17056152E-01 0.54972092E+03</pdfrwt>
<pdfrwt beam="2">  1       -2 0.90395622E-01 0.54972092E+03</pdfrwt>
<totfact> 0.36301705E+02</totfact>
</mgrwt>
</event>
<event>
 4    1  0.5131465E-005  0.8756064E+03  0.7818608E-02  0.9456599E-01
          2   -1    0    0  501    0  0.00000000000E+00  0.00000000000E+00  0.11998716350E+03  0.11998716353E+03  0.25500000000E-02 0.  1.
         -2   -1    0    0    0  501 -0.00000000000E+00 -0.00000000000E+00 -0.15974344864E+04  0.15974344864E+04  0.25500000000E-02 0. -1.
    5000001    1    1    2    0    0  0.18828089378E+03 -0.27708028376E+03 -0.34719072010E+03  0.52188655351E+03  0.19900000000E+03 0.  0.
   -5000001    1    1    2    0    0 -0.18828089378E+03  0.27708028376E+03 -0.11302566028E+04  0.11955350964E+04  0.19900000000E+03 0.  0.
<mgrwt>
<rscale>  0 0.87560638E+03</rscale>
<asrwt>0</asrwt>
<pdfrwt beam="1">  1        2 0.17141024E-01 0.87560638E+03</pdfrwt>
<pdfrwt beam="2">  1       -2 0.22820491E+00 0.87560638E+03</pdfrwt>
<totfact> 0.30363132E+01</totfact>
</mgrwt>
</event>
<event>
 4    1  0.5131465E-005  0.4783589E+03  0.7818608E-02  0.1019587E+00
          2   -1    0    0  501    0  0.00000000000E+00  0.00000000000E+00  0.29387100892E+04  0.29387100892E+04  0.25500000000E-02 0. -1.
         -2   -1    0    0    0  501 -0.00000000000E+00 -0.00000000000E+00 -0.19466641105E+02  0.19466641272E+02  0.25500000000E-02 0.  1.
    5000001    1    1    2    0    0  0.21179304458E+02  0.12942988294E+03  0.13351467376E+04  0.13562516243E+04  0.19900000000E+03 0.  0.
   -5000001    1    1    2    0    0 -0.21179304458E+02 -0.12942988294E+03  0.15840967104E+04  0.16019251061E+04  0.19900000000E+03 0.  0.
<mgrwt>
<rscale>  0 0.47835892E+03</rscale>
<asrwt>0</asrwt>
<pdfrwt beam="1">  1        2 0.41981640E+00 0.47835892E+03</pdfrwt>
<pdfrwt beam="2">  1       -2 0.27809443E-02 0.47835892E+03</pdfrwt>
<totfact> 0.13858975E+03</totfact>
</mgrwt>
</event>
<event>
 4    1  0.5131465E-005  0.5155770E+03  0.7818608E-02  0.1009791E+00
         -2   -1    0    0    0  501 -0.00000000000E+00  0.00000000000E+00  0.52798745534E+02  0.52798745595E+02  0.25500000000E-02 0. -1.
          2   -1    0    0  501    0  0.00000000000E+00 -0.00000000000E+00 -0.12586456078E+04  0.12586456078E+04  0.25500000000E-02 0.  1.
    5000001    1    1    2    0    0  0.19759673235E+02 -0.11392534595E+03 -0.30754863138E+03  0.38413095398E+03  0.19900000000E+03 0.  0.
   -5000001    1    1    2    0    0 -0.19759673235E+02  0.11392534595E+03 -0.89829823083E+03  0.92731339937E+03  0.19900000000E+03 0.  0.
<mgrwt>
<rscale>  0 0.51557699E+03</rscale>
<asrwt>0</asrwt>
<pdfrwt beam="1">  1        2 0.17980650E+00 0.51557699E+03</pdfrwt>
<pdfrwt beam="2">  1       -2 0.75426787E-02 0.51557699E+03</pdfrwt>
<totfact> 0.21573989E+03</totfact>
</mgrwt>
</event>
<event>
 4    1  0.5131465E-005  0.6161805E+03  0.7818608E-02  0.9872394E-01
         -2   -1    0    0    0  501 -0.00000000000E+00  0.00000000000E+00  0.11442030761E+03  0.11442030764E+03  0.25500000000E-02 0. -1.
          2   -1    0    0  501    0  0.00000000000E+00 -0.00000000000E+00 -0.82956953043E+03  0.82956953044E+03  0.25500000000E-02 0.  1.
    5000001    1    1    2    0    0  0.22173237290E+03  0.74662312092E+00 -0.23740470893E+03  0.38095642593E+03  0.19900000000E+03 0.  0.
   -5000001    1    1    2    0    0 -0.22173237290E+03 -0.74662312092E+00 -0.47774451389E+03  0.56303341215E+03  0.19900000000E+03 0.  0.
<mgrwt>
<rscale>  0 0.61618050E+03</rscale>
<asrwt>0</asrwt>
<pdfrwt beam="1">  1        2 0.11850993E+00 0.61618050E+03</pdfrwt>
<pdfrwt beam="2">  1       -2 0.16345759E-01 0.61618050E+03</pdfrwt>
<totfact> 0.11005038E+03</totfact>
</mgrwt>
</event>
<event>
 4    1  0.5131465E-005  0.5556982E+03  0.7818608E-02  0.1000184E+00
         -2   -1    0    0    0  501 -0.00000000000E+00  0.00000000000E+00  0.71787996575E+02  0.71787996620E+02  0.25500000000E-02 0. -1.
          2   -1    0    0  501    0  0.00000000000E+00 -0.00000000000E+00 -0.10753905481E+04  0.10753905481E+04  0.25500000000E-02 0.  1.
    5000001    1    1    2    0    0 -0.13693655478E+02  0.19281473345E+03 -0.53338682363E+03  0.60122170724E+03  0.19900000000E+03 0.  0.
   -5000001    1    1    2    0    0  0.13693655478E+02 -0.19281473345E+03 -0.47021572789E+03  0.54595683748E+03  0.19900000000E+03 0.  0.
<mgrwt>
<rscale>  0 0.55569824E+03</rscale>
<asrwt>0</asrwt>
<pdfrwt beam="1">  1        2 0.15362721E+00 0.55569824E+03</pdfrwt>
<pdfrwt beam="2">  1       -2 0.10255429E-01 0.55569824E+03</pdfrwt>
<totfact> 0.16734619E+03</totfact>
</mgrwt>
</event>
<event>
 4    1  0.5131465E-005  0.4281253E+03  0.7818608E-02  0.1034454E+00
          2   -1    0    0  501    0  0.00000000000E+00  0.00000000000E+00  0.26325970411E+04  0.26325970411E+04  0.25500000000E-02 0.  1.
         -2   -1    0    0    0  501 -0.00000000000E+00 -0.00000000000E+00 -0.17405939731E+02  0.17405939918E+02  0.25500000000E-02 0. -1.
    5000001    1    1    2    0    0 -0.13415178972E+02 -0.70105380605E+02  0.15154003406E+04  0.15300764437E+04  0.19900000000E+03 0.  0.
   -5000001    1    1    2    0    0  0.13415178972E+02  0.70105380605E+02  0.10997907608E+04  0.11199265373E+04  0.19900000000E+03 0.  0.
<mgrwt>
<rscale>  0 0.42812534E+03</rscale>
<asrwt>0</asrwt>
<pdfrwt beam="1">  1        2 0.37608505E+00 0.42812534E+03</pdfrwt>
<pdfrwt beam="2">  1       -2 0.24865644E-02 0.42812534E+03</pdfrwt>
<totfact> 0.23815413E+03</totfact>
</mgrwt>
</event>
<event>
 4    1  0.5131465E-005  0.8172122E+03  0.7818608E-02  0.9535432E-01
          2   -1    0    0  501    0  0.00000000000E+00  0.00000000000E+00  0.57865249133E+03  0.57865249133E+03  0.25500000000E-02 0.  1.
         -2   -1    0    0    0  501 -0.00000000000E+00 -0.00000000000E+00 -0.28853057722E+03  0.28853057723E+03  0.25500000000E-02 0. -1.
    5000001    1    1    2    0    0 -0.31152432230E+03 -0.17371787140E+03  0.13284000019E+03  0.42950293116E+03  0.19900000000E+03 0.  0.
   -5000001    1    1    2    0    0  0.31152432230E+03  0.17371787140E+03  0.15728191392E+03  0.43768013740E+03  0.19900000000E+03 0.  0.
<mgrwt>
<rscale>  0 0.81721218E+03</rscale>
<asrwt>0</asrwt>
<pdfrwt beam="1">  1        2 0.82664642E-01 0.81721218E+03</pdfrwt>
<pdfrwt beam="2">  1       -2 0.41218654E-01 0.81721218E+03</pdfrwt>
<totfact> 0.31722348E+02</totfact>
</mgrwt>
</event>
<event>
 4    1  0.5131465E-005  0.7646113E+03  0.7818608E-02  0.9612702E-01
          2   -1    0    0  501    0  0.00000000000E+00  0.00000000000E+00  0.17124453444E+04  0.17124453444E+04  0.25500000000E-02 0.  1.
         -2   -1    0    0    0  501 -0.00000000000E+00 -0.00000000000E+00 -0.85350230557E+02  0.85350230595E+02  0.25500000000E-02 0. -1.
    5000001    1    1    2    0    0  0.40754345291E+02 -0.26490044540E+03  0.37540948869E+03  0.50236087311E+03  0.19900000000E+03 0.  0.
   -5000001    1    1    2    0    0 -0.40754345291E+02  0.26490044540E+03  0.12516856251E+04  0.12954347018E+04  0.19900000000E+03 0.  0.
<mgrwt>
<rscale>  0 0.76461129E+03</rscale>
<asrwt>0</asrwt>
<pdfrwt beam="1">  1        2 0.24463507E+00 0.76461129E+03</pdfrwt>
<pdfrwt beam="2">  1       -2 0.12192889E-01 0.76461129E+03</pdfrwt>
<totfact> 0.56732143E+02</totfact>
</mgrwt>
</event>
<event>
 4    1  0.5131465E-005  0.4168341E+03  0.7818608E-02  0.1038102E+00
         -2   -1    0    0    0  501 -0.00000000000E+00  0.00000000000E+00  0.28979826750E+02  0.28979826862E+02  0.25500000000E-02 0. -1.
          2   -1    0    0  501    0  0.00000000000E+00 -0.00000000000E+00 -0.14988932807E+04  0.14988932807E+04  0.25500000000E-02 0.  1.
    5000001    1    1    2    0    0  0.46566932711E+02 -0.39272503711E+02 -0.77607795016E+03  0.80349784909E+03  0.19900000000E+03 0.  0.
   -5000001    1    1    2    0    0 -0.46566932711E+02  0.39272503711E+02 -0.69383550382E+03  0.72437525851E+03  0.19900000000E+03 0.  0.
<mgrwt>
<rscale>  0 0.41683410E+03</rscale>
<asrwt>0</asrwt>
<pdfrwt beam="1">  1        2 0.21412756E+00 0.41683410E+03</pdfrwt>
<pdfrwt beam="2">  1       -2 0.41399762E-02 0.41683410E+03</pdfrwt>
<totfact> 0.40861514E+03</totfact>
</mgrwt>
</event>
<event>
 4    1  0.5131465E-005  0.4190587E+03  0.7818608E-02  0.1037373E+00
          2   -1    0    0  501    0  0.00000000000E+00  0.00000000000E+00  0.20496308101E+04  0.20496308101E+04  0.25500000000E-02 0.  1.
         -2   -1    0    0    0  501 -0.00000000000E+00 -0.00000000000E+00 -0.21419731992E+02  0.21419732143E+02  0.25500000000E-02 0. -1.
    5000001    1    1    2    0    0  0.25034007483E+02 -0.25048584454E+02  0.12869287310E+04  0.13027051439E+04  0.19900000000E+03 0.  0.
   -5000001    1    1    2    0    0 -0.25034007483E+02  0.25048584454E+02  0.74128234706E+03  0.76834539836E+03  0.19900000000E+03 0.  0.
<mgrwt>
<rscale>  0 0.41905867E+03</rscale>
<asrwt>0</asrwt>
<pdfrwt beam="1">  1        2 0.29280436E+00 0.41905867E+03</pdfrwt>
<pdfrwt beam="2">  1       -2 0.30599622E-02 0.41905867E+03</pdfrwt>
<totfact> 0.34229811E+03</totfact>
</mgrwt>
</event>
<event>
 4    1  0.5131465E-005  0.6035164E+03  0.7818608E-02  0.9898137E-01
          2   -1    0    0  501    0  0.00000000000E+00  0.00000000000E+00  0.17577396824E+03  0.17577396826E+03  0.25500000000E-02 0.  1.
         -2   -1    0    0    0  501 -0.00000000000E+00 -0.00000000000E+00 -0.51804040425E+03  0.51804040426E+03  0.25500000000E-02 0. -1.
    5000001    1    1    2    0    0  0.21672828918E+03 -0.16288765017E+02 -0.96447367073E+02  0.31006381571E+03  0.19900000000E+03 0.  0.
   -5000001    1    1    2    0    0 -0.21672828918E+03  0.16288765017E+02 -0.24581906894E+03  0.38375055681E+03  0.19900000000E+03 0.  0.
<mgrwt>
<rscale>  0 0.60351642E+03</rscale>
<asrwt>0</asrwt>
<pdfrwt beam="1">  1        2 0.25110567E-01 0.60351642E+03</pdfrwt>
<pdfrwt beam="2">  1       -2 0.74005772E-01 0.60351642E+03</pdfrwt>
<totfact> 0.36215318E+02</totfact>
</mgrwt>
</event>
<event>
 4    1  0.5131465E-005  0.7368829E+03  0.7818608E-02  0.9656157E-01
         -2   -1    0    0    0  501 -0.00000000000E+00  0.00000000000E+00  0.48268603451E+02  0.48268603518E+02  0.25500000000E-02 0. -1.
          2   -1    0    0  501    0  0.00000000000E+00 -0.00000000000E+00 -0.28123682288E+04  0.28123682288E+04  0.25500000000E-02 0.  1.
    5000001    1    1    2    0    0 -0.74196516525E+02 -0.29370022698E+03 -0.11250357018E+04  0.11819776973E+04  0.19900000000E+03 0.  0.
   -5000001    1    1    2    0    0  0.74196516525E+02  0.29370022698E+03 -0.16390639235E+04  0.16786591351E+04  0.19900000000E+03 0.  0.
<mgrwt>
<rscale>  0 0.73688286E+03</rscale>
<asrwt>0</asrwt>
<pdfrwt beam="1">  1        2 0.40176679E+00 0.73688286E+03</pdfrwt>
<pdfrwt beam="2">  1       -2 0.68955166E-02 0.73688286E+03</pdfrwt>
<totfact> 0.38954182E+02</totfact>
</mgrwt>
</event>
<event>
 4    1  0.5131465E-005  0.9389816E+03  0.7818608E-02  0.9378123E-01
         -2   -1    0    0    0  501 -0.00000000000E+00  0.00000000000E+00  0.19609720317E+03  0.19609720319E+03  0.25500000000E-02 0.  1.
          2   -1    0    0  501    0  0.00000000000E+00 -0.00000000000E+00 -0.11240425741E+04  0.11240425741E+04  0.25500000000E-02 0. -1.
    5000001    1    1    2    0    0  0.31815953409E+03  0.41928317567E+02 -0.85621663584E+03  0.93578384280E+03  0.19900000000E+03 0.  0.
   -5000001    1    1    2    0    0 -0.31815953409E+03 -0.41928317567E+02 -0.71728735094E+02  0.38435593450E+03  0.19900000000E+03 0.  0.
<mgrwt>
<rscale>  0 0.93898159E+03</rscale>
<asrwt>0</asrwt>
<pdfrwt beam="1">  1        2 0.16057751E+00 0.93898159E+03</pdfrwt>
<pdfrwt beam="2">  1       -2 0.28013887E-01 0.93898159E+03</pdfrwt>
<totfact> 0.27481870E+02</totfact>
</mgrwt>
</event>
<event>
 4    1  0.5131465E-005  0.5447003E+03  0.7818608E-02  0.1002728E+00
         -2   -1    0    0    0  501 -0.00000000000E+00  0.00000000000E+00  0.30128326798E+02  0.30128326906E+02  0.25500000000E-02 0. -1.
          2   -1    0    0  501    0  0.00000000000E+00 -0.00000000000E+00 -0.24619560015E+04  0.24619560015E+04  0.25500000000E-02 0.  1.
    5000001    1    1    2    0    0  0.26481996240E+02 -0.13540218634E+03 -0.64560438590E+03  0.68952235010E+03  0.19900000000E+03 0.  0.
   -5000001    1    1    2    0    0 -0.26481996240E+02  0.13540218634E+03 -0.17862232888E+04  0.18025619783E+04  0.19900000000E+03 0.  0.
<mgrwt>
<rscale>  0 0.54470034E+03</rscale>
<asrwt>0</asrwt>
<pdfrwt beam="1">  1        2 0.35170787E+00 0.54470034E+03</pdfrwt>
<pdfrwt beam="2">  1       -2 0.43040482E-02 0.54470034E+03</pdfrwt>
<totfact> 0.12568873E+03</totfact>
</mgrwt>
</event>
<event>
 4    1  0.5131465E-005  0.8088464E+03  0.7818608E-02  0.9547300E-01
          2   -1    0    0  501    0  0.00000000000E+00  0.00000000000E+00  0.90243392919E+03  0.90243392920E+03  0.25500000000E-02 0.  1.
         -2   -1    0    0    0  501 -0.00000000000E+00 -0.00000000000E+00 -0.18124109300E+03  0.18124109302E+03  0.25500000000E-02 0. -1.
    5000001    1    1    2    0    0 -0.25938218930E+02 -0.25280905107E+03  0.68705155946E+03  0.75909554923E+03  0.19900000000E+03 0.  0.
   -5000001    1    1    2    0    0  0.25938218930E+02  0.25280905107E+03  0.34141276727E+02  0.32457947298E+03  0.19900000000E+03 0.  0.
<mgrwt>
<rscale>  0 0.80884637E+03</rscale>
<asrwt>0</asrwt>
<pdfrwt beam="1">  1        2 0.12891913E+00 0.80884637E+03</pdfrwt>
<pdfrwt beam="2">  1       -2 0.25891585E-01 0.80884637E+03</pdfrwt>
<totfact> 0.43671218E+02</totfact>
</mgrwt>
</event>
<event>
 4    1  0.5131465E-005  0.4402673E+03  0.7818608E-02  0.1030665E+00
          2   -1    0    0  501    0  0.00000000000E+00  0.00000000000E+00  0.34143579758E+03  0.34143579758E+03  0.25500000000E-02 0.  1.
         -2   -1    0    0    0  501 -0.00000000000E+00 -0.00000000000E+00 -0.14192662740E+03  0.14192662742E+03  0.25500000000E-02 0. -1.
    5000001    1    1    2    0    0 -0.29207811745E+02  0.81424385984E+02  0.14046231358E+03  0.25848343938E+03  0.19900000000E+03 0.  0.
   -5000001    1    1    2    0    0  0.29207811745E+02 -0.81424385984E+02  0.59046856602E+02  0.22487898562E+03  0.19900000000E+03 0.  0.
<mgrwt>
<rscale>  0 0.44026733E+03</rscale>
<asrwt>0</asrwt>
<pdfrwt beam="1">  1        2 0.48776542E-01 0.44026733E+03</pdfrwt>
<pdfrwt beam="2">  1       -2 0.20275233E-01 0.44026733E+03</pdfrwt>
<totfact> 0.21304111E+03</totfact>
</mgrwt>
</event>
<event>
 4    1  0.5131465E-005  0.4563442E+03  0.7818608E-02  0.1025847E+00
          2   -1    0    0  501    0  0.00000000000E+00  0.00000000000E+00  0.13333920692E+04  0.13333920692E+04  0.25500000000E-02 0.  1.
         -2   -1    0    0    0  501 -0.00000000000E+00 -0.00000000000E+00 -0.39045167169E+02  0.39045167252E+02  0.25500000000E-02 0. -1.
    5000001    1    1    2    0    0 -0.83288625685E+02 -0.13318808004E+02  0.86709121477E+03  0.89362327663E+03  0.19900000000E+03 0.  0.
   -5000001    1    1    2    0    0  0.83288625685E+02  0.13318808004E+02  0.42725568722E+03  0.47881395978E+03  0.19900000000E+03 0.  0.
<mgrwt>
<rscale>  0 0.45634424E+03</rscale>
<asrwt>0</asrwt>
<pdfrwt beam="1">  1        2 0.19048457E+00 0.45634424E+03</pdfrwt>
<pdfrwt beam="2">  1       -2 0.55778814E-02 0.45634424E+03</pdfrwt>
<totfact> 0.31545492E+03</totfact>
</mgrwt>
</event>
<event>
 4    1  0.5131465E-005  0.6342804E+03  0.7818608E-02  0.9836731E-01
          2   -1    0    0  501    0  0.00000000000E+00  0.00000000000E+00  0.23331319691E+03  0.23331319692E+03  0.25500000000E-02 0.  1.
         -2   -1    0    0    0  501 -0.00000000000E+00 -0.00000000000E+00 -0.43108530951E+03  0.43108530952E+03  0.25500000000E-02 0. -1.
    5000001    1    1    2    0    0 -0.58690364723E+02 -0.23684780542E+03 -0.59199683943E+02  0.32038577437E+03  0.19900000000E+03 0.  0.
   -5000001    1    1    2    0    0  0.58690364723E+02  0.23684780542E+03 -0.13857242866E+03  0.34401273207E+03  0.19900000000E+03 0.  0.
<mgrwt>
<rscale>  0 0.63428035E+03</rscale>
<asrwt>0</asrwt>
<pdfrwt beam="1">  1        2 0.33330457E-01 0.63428035E+03</pdfrwt>
<pdfrwt beam="2">  1       -2 0.61583615E-01 0.63428035E+03</pdfrwt>
<totfact> 0.39076969E+02</totfact>
</mgrwt>
</event>
<event>
 4    1  0.5131465E-005  0.5352916E+03  0.7818608E-02  0.1004957E+00
          2   -1    0    0  501    0  0.00000000000E+00  0.00000000000E+00  0.32190780183E+04  0.32190780183E+04  0.25500000000E-02 0.  1.
         -2   -1    0    0    0  501 -0.00000000000E+00 -0.00000000000E+00 -0.22253043893E+02  0.22253044039E+02  0.25500000000E-02 0. -1.
    5000001    1    1    2    0    0 -0.14163552238E+03 -0.74454826059E+02  0.20839350894E+04  0.20995215167E+04  0.19900000000E+03 0.  0.
   -5000001    1    1    2    0    0  0.14163552238E+03  0.74454826059E+02  0.11128898850E+04  0.11418095456E+04  0.19900000000E+03 0.  0.
<mgrwt>
<rscale>  0 0.53529164E+03</rscale>
<asrwt>0</asrwt>
<pdfrwt beam="1">  1        2 0.45986876E+00 0.53529164E+03</pdfrwt>
<pdfrwt beam="2">  1       -2 0.31790030E-02 0.53529164E+03</pdfrwt>
<totfact> 0.79028740E+02</totfact>
</mgrwt>
</event>
<event>
 4    1  0.5131465E-005  0.7641313E+03  0.7818608E-02  0.9613438E-01
          2   -1    0    0  501    0  0.00000000000E+00  0.00000000000E+00  0.59795450929E+03  0.59795450929E+03  0.25500000000E-02 0.  1.
         -2   -1    0    0    0  501 -0.00000000000E+00 -0.00000000000E+00 -0.24412250687E+03  0.24412250688E+03  0.25500000000E-02 0. -1.
    5000001    1    1    2    0    0 -0.85820170095E+02 -0.31285745185E+03  0.13989997577E+03  0.40548475926E+03  0.19900000000E+03 0.  0.
   -5000001    1    1    2    0    0  0.85820170095E+02  0.31285745185E+03  0.21393202665E+03  0.43659225691E+03  0.19900000000E+03 0.  0.
<mgrwt>
<rscale>  0 0.76413128E+03</rscale>
<asrwt>0</asrwt>
<pdfrwt beam="1">  1        2 0.85422072E-01 0.76413128E+03</pdfrwt>
<pdfrwt beam="2">  1       -2 0.34874644E-01 0.76413128E+03</pdfrwt>
<totfact> 0.42216167E+02</totfact>
</mgrwt>
</event>
<event>
 4    1  0.5131465E-005  0.5461196E+03  0.7818608E-02  0.1002396E+00
          2   -1    0    0  501    0  0.00000000000E+00  0.00000000000E+00  0.10100163194E+04  0.10100163194E+04  0.25500000000E-02 0.  1.
         -2   -1    0    0    0  501 -0.00000000000E+00 -0.00000000000E+00 -0.73822218409E+02  0.73822218453E+02  0.25500000000E-02 0. -1.
    5000001    1    1    2    0    0  0.13551318236E+03 -0.51614270191E+02  0.70235584043E+03  0.74426647248E+03  0.19900000000E+03 0.  0.
   -5000001    1    1    2    0    0 -0.13551318236E+03  0.51614270191E+02  0.23383826057E+03  0.33957206538E+03  0.19900000000E+03 0.  0.
<mgrwt>
<rscale>  0 0.54611957E+03</rscale>
<asrwt>0</asrwt>
<pdfrwt beam="1">  1        2 0.14428804E+00 0.54611957E+03</pdfrwt>
<pdfrwt beam="2">  1       -2 0.10546032E-01 0.54611957E+03</pdfrwt>
<totfact> 0.17493395E+03</totfact>
</mgrwt>
</event>
<event>
 4    1  0.5131465E-005  0.7172214E+03  0.7818608E-02  0.9688226E-01
         -2   -1    0    0    0  501 -0.00000000000E+00  0.00000000000E+00  0.77755449887E+02  0.77755449928E+02  0.25500000000E-02 0. -1.
          2   -1    0    0  501    0  0.00000000000E+00 -0.00000000000E+00 -0.16539245712E+04  0.16539245712E+04  0.25500000000E-02 0.  1.
    5000001    1    1    2    0    0 -0.23170581982E+03 -0.90546875194E+02 -0.39051439635E+03  0.50397303232E+03  0.19900000000E+03 0.  0.
   -5000001    1    1    2    0    0  0.23170581982E+03  0.90546875194E+02 -0.11856547249E+04  0.12277069888E+04  0.19900000000E+03 0.  0.
<mgrwt>
<rscale>  0 0.71722144E+03</rscale>
<asrwt>0</asrwt>
<pdfrwt beam="1">  1        2 0.23627492E+00 0.71722144E+03</pdfrwt>
<pdfrwt beam="2">  1       -2 0.11107922E-01 0.71722144E+03</pdfrwt>
<totfact> 0.71066997E+02</totfact>
</mgrwt>
</event>
<event>
 4    1  0.5131465E-005  0.5741809E+03  0.7818608E-02  0.9960469E-01
         -2   -1    0    0    0  501 -0.00000000000E+00  0.00000000000E+00  0.20268303885E+03  0.20268303886E+03  0.25500000000E-02 0. -1.
          2   -1    0    0  501    0  0.00000000000E+00 -0.00000000000E+00 -0.40664936898E+03  0.40664936899E+03  0.25500000000E-02 0.  1.
    5000001    1    1    2    0    0  0.15865872747E+03 -0.13066287671E+03 -0.12742038864E+03  0.31318099335E+03  0.19900000000E+03 0.  0.
   -5000001    1    1    2    0    0 -0.15865872747E+03  0.13066287671E+03 -0.76545941492E+02  0.29615141450E+03  0.19900000000E+03 0.  0.
<mgrwt>
<rscale>  0 0.57418091E+03</rscale>
<asrwt>0</asrwt>
<pdfrwt beam="1">  1        2 0.58092767E-01 0.57418091E+03</pdfrwt>
<pdfrwt beam="2">  1       -2 0.28954720E-01 0.57418091E+03</pdfrwt>
<totfact> 0.93194522E+02</totfact>
</mgrwt>
</event>
<event>
 4    1  0.5131465E-005  0.7862170E+03  0.7818608E-02  0.9580185E-01
          2   -1    0    0  501    0  0.00000000000E+00  0.00000000000E+00  0.54606230985E+03  0.54606230985E+03  0.25500000000E-02 0.  1.
         -2   -1    0    0    0  501 -0.00000000000E+00 -0.00000000000E+00 -0.28299751924E+03  0.28299751925E+03  0.25500000000E-02 0. -1.
    5000001    1    1    2    0    0 -0.24480335493E+03 -0.23451249870E+03  0.13460392262E+03  0.41550452538E+03  0.19900000000E+03 0.  0.
   -5000001    1    1    2    0    0  0.24480335493E+03  0.23451249870E+03  0.12846086799E+03  0.41355530372E+03  0.19900000000E+03 0.  0.
<mgrwt>
<rscale>  0 0.78621697E+03</rscale>
<asrwt>0</asrwt>
<pdfrwt beam="1">  1        2 0.78008900E-01 0.78621697E+03</pdfrwt>
<pdfrwt beam="2">  1       -2 0.40428218E-01 0.78621697E+03</pdfrwt>
<totfact> 0.35299127E+02</totfact>
</mgrwt>
</event>
<event>
 4    1  0.5131465E-005  0.5964597E+03  0.7818608E-02  0.9912778E-01
          2   -1    0    0  501    0  0.00000000000E+00  0.00000000000E+00  0.49619819331E+03  0.49619819331E+03  0.25500000000E-02 0.  1.
         -2   -1    0    0    0  501 -0.00000000000E+00 -0.00000000000E+00 -0.17924500070E+03  0.17924500071E+03  0.25500000000E-02 0. -1.
    5000001    1    1    2    0    0 -0.42487628790E+02  0.21723792492E+03  0.17943497056E+03  0.34755635986E+03  0.19900000000E+03 0.  0.
   -5000001    1    1    2    0    0  0.42487628790E+02 -0.21723792492E+03  0.13751822205E+03  0.32788683417E+03  0.19900000000E+03 0.  0.
<mgrwt>
<rscale>  0 0.59645971E+03</rscale>
<asrwt>0</asrwt>
<pdfrwt beam="1">  1        2 0.70885456E-01 0.59645971E+03</pdfrwt>
<pdfrwt beam="2">  1       -2 0.25606429E-01 0.59645971E+03</pdfrwt>
<totfact> 0.93181446E+02</totfact>
</mgrwt>
</event>
<event>
 4    1  0.5131465E-005  0.6829725E+03  0.7818608E-02  0.9746803E-01
          2   -1    0    0  501    0  0.00000000000E+00  0.00000000000E+00  0.31575910677E+04  0.31575910677E+04  0.25500000000E-02 0.  1.
         -2   -1    0    0    0  501 -0.00000000000E+00 -0.00000000000E+00 -0.36930956333E+02  0.36930956421E+02  0.25500000000E-02 0. -1.
    5000001    1    1    2    0    0 -0.16261935682E+03 -0.22459279945E+03  0.15080610480E+04  0.15462005385E+04  0.19900000000E+03 0.  0.
   -5000001    1    1    2    0    0  0.16261935682E+03  0.22459279945E+03  0.16125990634E+04  0.16483214857E+04  0.19900000000E+03 0.  0.
<mgrwt>
<rscale>  0 0.68297250E+03</rscale>
<asrwt>0</asrwt>
<pdfrwt beam="1">  1        2 0.45108462E+00 0.68297250E+03</pdfrwt>
<pdfrwt beam="2">  1       -2 0.52758488E-02 0.68297250E+03</pdfrwt>
<totfact> 0.38647997E+02</totfact>
</mgrwt>
</event>
<event>
 4    1  0.5131465E-005  0.7771007E+03  0.7818608E-02  0.9593767E-01
          2   -1    0    0  501    0  0.00000000000E+00  0.00000000000E+00  0.15421707988E+04  0.15421707988E+04  0.25500000000E-02 0.  1.
         -2   -1    0    0    0  501 -0.00000000000E+00 -0.00000000000E+00 -0.97895372652E+02  0.97895372685E+02  0.25500000000E-02 0. -1.
    5000001    1    1    2    0    0  0.32897787357E+03 -0.47414370179E+02  0.65897005994E+03  0.76440637340E+03  0.19900000000E+03 0.  0.
   -5000001    1    1    2    0    0 -0.32897787357E+03  0.47414370179E+02  0.78530536623E+03  0.87565979811E+03  0.19900000000E+03 0.  0.
<mgrwt>
<rscale>  0 0.77710073E+03</rscale>
<asrwt>0</asrwt>
<pdfrwt beam="1">  1        2 0.22031009E+00 0.77710073E+03</pdfrwt>
<pdfrwt beam="2">  1       -2 0.13985055E-01 0.77710073E+03</pdfrwt>
<totfact> 0.55237923E+02</totfact>
</mgrwt>
</event>
<event>
 4    1  0.5131465E-005  0.7249747E+03  0.7818608E-02  0.9675450E-01
         -2   -1    0    0    0  501 -0.00000000000E+00  0.00000000000E+00  0.18059835862E+03  0.18059835864E+03  0.25500000000E-02 0. -1.
          2   -1    0    0  501    0  0.00000000000E+00 -0.00000000000E+00 -0.72756520431E+03  0.72756520432E+03  0.25500000000E-02 0.  1.
    5000001    1    1    2    0    0 -0.29975564918E+03 -0.12754357515E+02 -0.22063327598E+03  0.42225130588E+03  0.19900000000E+03 0.  0.
   -5000001    1    1    2    0    0  0.29975564918E+03  0.12754357515E+02 -0.32633356972E+03  0.48591225707E+03  0.19900000000E+03 0.  0.
<mgrwt>
<rscale>  0 0.72497471E+03</rscale>
<asrwt>0</asrwt>
<pdfrwt beam="1">  1        2 0.10393789E+00 0.72497471E+03</pdfrwt>
<pdfrwt beam="2">  1       -2 0.25799766E-01 0.72497471E+03</pdfrwt>
<totfact> 0.58268305E+02</totfact>
</mgrwt>
</event>
<event>
 4    1  0.5131465E-005  0.6561943E+03  0.7818608E-02  0.9795225E-01
          2   -1    0    0  501    0  0.00000000000E+00  0.00000000000E+00  0.99081405112E+02  0.99081405145E+02  0.25500000000E-02 0.  1.
         -2   -1    0    0    0  501 -0.00000000000E+00 -0.00000000000E+00 -0.10864574045E+04  0.10864574045E+04  0.25500000000E-02 0. -1.
    5000001    1    1    2    0    0  0.25719627148E+03 -0.39753963126E+02 -0.46154992571E+03  0.56600320986E+03  0.19900000000E+03 0.  0.
   -5000001    1    1    2    0    0 -0.25719627148E+03  0.39753963126E+02 -0.52582607371E+03  0.61953559982E+03  0.19900000000E+03 0.  0.
<mgrwt>
<rscale>  0 0.65619426E+03</rscale>
<asrwt>0</asrwt>
<pdfrwt beam="1">  1        2 0.14154487E-01 0.65619426E+03</pdfrwt>
<pdfrwt beam="2">  1       -2 0.15520819E+00 0.65619426E+03</pdfrwt>
<totfact> 0.11956396E+02</totfact>
</mgrwt>
</event>
<event>
 4    1  0.5131465E-005  0.6615155E+03  0.7818608E-02  0.9785408E-01
          2   -1    0    0  501    0  0.00000000000E+00  0.00000000000E+00  0.41539858480E+03  0.41539858481E+03  0.25500000000E-02 0.  1.
         -2   -1    0    0    0  501 -0.00000000000E+00 -0.00000000000E+00 -0.26336318576E+03  0.26336318577E+03  0.25500000000E-02 0. -1.
    5000001    1    1    2    0    0 -0.10854385309E+03  0.22309833725E+03  0.16918729500E+03  0.36024988122E+03  0.19900000000E+03 0.  0.
   -5000001    1    1    2    0    0  0.10854385309E+03 -0.22309833725E+03 -0.17151895956E+02  0.31851188936E+03  0.19900000000E+03 0.  0.
<mgrwt>
<rscale>  0 0.66151552E+03</rscale>
<asrwt>0</asrwt>
<pdfrwt beam="1">  1        2 0.59342655E-01 0.66151552E+03</pdfrwt>
<pdfrwt beam="2">  1       -2 0.37623312E-01 0.66151552E+03</pdfrwt>
<totfact> 0.55579385E+02</totfact>
</mgrwt>
</event>
<event>
 4    1  0.5131465E-005  0.5806467E+03  0.7818608E-02  0.9946392E-01
         -2   -1    0    0    0  501 -0.00000000000E+00  0.00000000000E+00  0.41448147456E+02  0.41448147534E+02  0.25500000000E-02 0. -1.
          2   -1    0    0  501    0  0.00000000000E+00 -0.00000000000E+00 -0.20335683132E+04  0.20335683132E+04  0.25500000000E-02 0.  1.
    5000001    1    1    2    0    0  0.18819974988E+03 -0.93158892857E+02 -0.10827833486E+04  0.11207669273E+04  0.19900000000E+03 0.  0.
   -5000001    1    1    2    0    0 -0.18819974988E+03  0.93158892857E+02 -0.90933681712E+03  0.95424953348E+03  0.19900000000E+03 0.  0.
<mgrwt>
<rscale>  0 0.58064667E+03</rscale>
<asrwt>0</asrwt>
<pdfrwt beam="1">  1        2 0.29050970E+00 0.58064667E+03</pdfrwt>
<pdfrwt beam="2">  1       -2 0.59211652E-02 0.58064667E+03</pdfrwt>
<totfact> 0.12579251E+03</totfact>
</mgrwt>
</event>
<event>
 4    1  0.5131465E-005  0.4640737E+03  0.7818608E-02  0.1023606E+00
          2   -1    0    0  501    0  0.00000000000E+00  0.00000000000E+00  0.23674697546E+04  0.23674697546E+04  0.25500000000E-02 0.  1.
         -2   -1    0    0    0  501 -0.00000000000E+00 -0.00000000000E+00 -0.22742042710E+02  0.22742042853E+02  0.25500000000E-02 0. -1.
    5000001    1    1    2    0    0  0.38667570986E+02 -0.11213997527E+03  0.12394279114E+04  0.12608937714E+04  0.19900000000E+03 0.  0.
   -5000001    1    1    2    0    0 -0.38667570986E+02  0.11213997527E+03  0.11052998005E+04  0.11293180261E+04  0.19900000000E+03 0.  0.
<mgrwt>
<rscale>  0 0.46407369E+03</rscale>
<asrwt>0</asrwt>
<pdfrwt beam="1">  1        2 0.33820965E+00 0.46407369E+03</pdfrwt>
<pdfrwt beam="2">  1       -2 0.32488662E-02 0.46407369E+03</pdfrwt>
<totfact> 0.21663223E+03</totfact>
</mgrwt>
</event>
<event>
 4    1  0.5131465E-005  0.1062743E+04  0.7818608E-02  0.9242285E-01
          2   -1    0    0  501    0  0.00000000000E+00  0.00000000000E+00  0.65883179036E+03  0.65883179037E+03  0.25500000000E-02 0.  1.
         -2   -1    0    0    0  501 -0.00000000000E+00 -0.00000000000E+00 -0.42857055085E+03  0.42857055086E+03  0.25500000000E-02 0. -1.
    5000001    1    1    2    0    0 -0.14251527665E+03 -0.45196947417E+03  0.25304645107E+03  0.57290532906E+03  0.19900000000E+03 0.  0.
   -5000001    1    1    2    0    0  0.14251527665E+03  0.45196947417E+03 -0.22785211552E+02  0.51449701217E+03  0.19900000000E+03 0.  0.
<mgrwt>
<rscale>  0 0.10627434E+04</rscale>
<asrwt>0</asrwt>
<pdfrwt beam="1">  1        2 0.94118826E-01 0.10627434E+04</pdfrwt>
<pdfrwt beam="2">  1       -2 0.61224365E-01 0.10627434E+04</pdfrwt>
<totfact> 0.11978638E+02</totfact>
</mgrwt>
</event>
<event>
 4    1  0.5131465E-005  0.7984713E+03  0.7818608E-02  0.9562233E-01
         -2   -1    0    0    0  501 -0.00000000000E+00  0.00000000000E+00  0.72066939696E+02  0.72066939741E+02  0.25500000000E-02 0. -1.
          2   -1    0    0  501    0  0.00000000000E+00 -0.00000000000E+00 -0.22116811904E+04  0.22116811904E+04  0.25500000000E-02 0.  1.
    5000001    1    1    2    0    0  0.20682073499E+02 -0.33921669121E+03 -0.88242068843E+03  0.96631412239E+03  0.19900000000E+03 0.  0.
   -5000001    1    1    2    0    0 -0.20682073499E+02  0.33921669121E+03 -0.12571935623E+04  0.13174340077E+04  0.19900000000E+03 0.  0.
<mgrwt>
<rscale>  0 0.79847128E+03</rscale>
<asrwt>0</asrwt>
<pdfrwt beam="1">  1        2 0.31595441E+00 0.79847128E+03</pdfrwt>
<pdfrwt beam="2">  1       -2 0.10295279E-01 0.79847128E+03</pdfrwt>
<totfact> 0.41699849E+02</totfact>
</mgrwt>
</event>
<event>
 4    1  0.5131465E-005  0.5362116E+03  0.7818608E-02  0.1004737E+00
          2   -1    0    0  501    0  0.00000000000E+00  0.00000000000E+00  0.28902119316E+04  0.28902119316E+04  0.25500000000E-02 0.  1.
         -2   -1    0    0    0  501 -0.00000000000E+00 -0.00000000000E+00 -0.24870395798E+02  0.24870395929E+02  0.25500000000E-02 0. -1.
    5000001    1    1    2    0    0 -0.89540397869E+02 -0.15573689801E+03  0.14170551947E+04  0.14421920431E+04  0.19900000000E+03 0.  0.
   -5000001    1    1    2    0    0  0.89540397869E+02  0.15573689801E+03  0.14482863411E+04  0.14728902845E+04  0.19900000000E+03 0.  0.
<mgrwt>
<rscale>  0 0.53621158E+03</rscale>
<asrwt>0</asrwt>
<pdfrwt beam="1">  1        2 0.41288714E+00 0.53621158E+03</pdfrwt>
<pdfrwt beam="2">  1       -2 0.35529161E-02 0.53621158E+03</pdfrwt>
<totfact> 0.10095021E+03</totfact>
</mgrwt>
</event>
<event>
 4    1  0.5131465E-005  0.8959013E+03  0.7818608E-02  0.9430720E-01
          2   -1    0    0  501    0  0.00000000000E+00  0.00000000000E+00  0.12193808888E+04  0.12193808888E+04  0.25500000000E-02 0.  1.
         -2   -1    0    0    0  501 -0.00000000000E+00 -0.00000000000E+00 -0.16455875518E+03  0.16455875520E+03  0.25500000000E-02 0. -1.
    5000001    1    1    2    0    0 -0.69785459315E+02  0.33746810076E+03  0.84513362524E+03  0.93413413056E+03  0.19900000000E+03 0.  0.
   -5000001    1    1    2    0    0  0.69785459315E+02 -0.33746810076E+03  0.20968850836E+03  0.44980551342E+03  0.19900000000E+03 0.  0.
<mgrwt>
<rscale>  0 0.89590134E+03</rscale>
<asrwt>0</asrwt>
<pdfrwt beam="1">  1        2 0.17419727E+00 0.89590134E+03</pdfrwt>
<pdfrwt beam="2">  1       -2 0.23508394E-01 0.89590134E+03</pdfrwt>
<totfact> 0.33378974E+02</totfact>
</mgrwt>
</event>
<event>
 4    1  0.5131465E-005  0.4528463E+03  0.7818608E-02  0.1026877E+00
         -2   -1    0    0    0  501 -0.00000000000E+00  0.00000000000E+00  0.15829468914E+02  0.15829469119E+02  0.25500000000E-02 0. -1.
          2   -1    0    0  501    0  0.00000000000E+00 -0.00000000000E+00 -0.32387346731E+04  0.32387346731E+04  0.25500000000E-02 0.  1.
    5000001    1    1    2    0    0 -0.74455180458E+02  0.76201077558E+02 -0.17392648238E+04  0.17538509930E+04  0.19900000000E+03 0.  0.
   -5000001    1    1    2    0    0  0.74455180458E+02 -0.76201077558E+02 -0.14836403803E+04  0.15007131492E+04  0.19900000000E+03 0.  0.
<mgrwt>
<rscale>  0 0.45284633E+03</rscale>
<asrwt>0</asrwt>
<pdfrwt beam="1">  1        2 0.46267596E+00 0.45284633E+03</pdfrwt>
<pdfrwt beam="2">  1       -2 0.22613548E-02 0.45284633E+03</pdfrwt>
<totfact> 0.12988338E+03</totfact>
</mgrwt>
</event>
<event>
 4    1  0.5131465E-005  0.6198986E+03  0.7818608E-02  0.9864962E-01
          2   -1    0    0  501    0  0.00000000000E+00  0.00000000000E+00  0.11394947104E+03  0.11394947107E+03  0.25500000000E-02 0.  1.
         -2   -1    0    0    0  501 -0.00000000000E+00 -0.00000000000E+00 -0.84308048785E+03  0.84308048785E+03  0.25500000000E-02 0. -1.
    5000001    1    1    2    0    0 -0.21906547714E+03 -0.65184234028E+02 -0.26416891415E+03  0.40202597285E+03  0.19900000000E+03 0.  0.
   -5000001    1    1    2    0    0  0.21906547714E+03  0.65184234028E+02 -0.46496210267E+03  0.55500398607E+03  0.19900000000E+03 0.  0.
<mgrwt>
<rscale>  0 0.61989862E+03</rscale>
<asrwt>0</asrwt>
<pdfrwt beam="1">  1        2 0.16278496E-01 0.61989862E+03</pdfrwt>
<pdfrwt beam="2">  1       -2 0.12044007E+00 0.61989862E+03</pdfrwt>
<totfact> 0.19355005E+02</totfact>
</mgrwt>
</event>
<event>
 4    1  0.5131465E-005  0.4701361E+03  0.7818608E-02  0.1021882E+00
         -2   -1    0    0    0  501 -0.00000000000E+00  0.00000000000E+00  0.18236381851E+03  0.18236381853E+03  0.25500000000E-02 0. -1.
          2   -1    0    0  501    0  0.00000000000E+00 -0.00000000000E+00 -0.30300407269E+03  0.30300407270E+03  0.25500000000E-02 0.  1.
    5000001    1    1    2    0    0 -0.20822073592E+01 -0.10975503892E+03  0.16708888953E+01  0.22727581487E+03  0.19900000000E+03 0.  0.
   -5000001    1    1    2    0    0  0.20822073592E+01  0.10975503892E+03 -0.12231114307E+03  0.25809207635E+03  0.19900000000E+03 0.  0.
<mgrwt>
<rscale>  0 0.47013606E+03</rscale>
<asrwt>0</asrwt>
<pdfrwt beam="1">  1        2 0.43286296E-01 0.47013606E+03</pdfrwt>
<pdfrwt beam="2">  1       -2 0.26051974E-01 0.47013606E+03</pdfrwt>
<totfact> 0.15610133E+03</totfact>
</mgrwt>
</event>
<event>
 4    1  0.5131465E-005  0.8591223E+03  0.7818608E-02  0.9478174E-01
         -2   -1    0    0    0  501 -0.00000000000E+00  0.00000000000E+00  0.62639180236E+03  0.62639180237E+03  0.25500000000E-02 0. -1.
          2   -1    0    0  501    0  0.00000000000E+00 -0.00000000000E+00 -0.29458044304E+03  0.29458044305E+03  0.25500000000E-02 0.  1.
    5000001    1    1    2    0    0 -0.70468956328E+02 -0.34721576713E+03  0.31520577818E+03  0.51427652615E+03  0.19900000000E+03 0.  0.
   -5000001    1    1    2    0    0  0.70468956328E+02  0.34721576713E+03  0.16605581138E+02  0.40669571927E+03  0.19900000000E+03 0.  0.
<mgrwt>
<rscale>  0 0.85912228E+03</rscale>
<asrwt>0</asrwt>
<pdfrwt beam="1">  1        2 0.42082920E-01 0.85912228E+03</pdfrwt>
<pdfrwt beam="2">  1       -2 0.89484543E-01 0.85912228E+03</pdfrwt>
<totfact> 0.13103312E+02</totfact>
</mgrwt>
</event>
<event>
 4    1  0.5131465E-005  0.4991408E+03  0.7818608E-02  0.1014003E+00
         -2   -1    0    0    0  501 -0.00000000000E+00  0.00000000000E+00  0.20152352860E+03  0.20152352862E+03  0.25500000000E-02 0. -1.
          2   -1    0    0  501    0  0.00000000000E+00 -0.00000000000E+00 -0.30907250117E+03  0.30907250118E+03  0.25500000000E-02 0.  1.
    5000001    1    1    2    0    0 -0.52786825314E+01 -0.10916835895E+03  0.52231884922E+02  0.23296945055E+03  0.19900000000E+03 0.  0.
   -5000001    1    1    2    0    0  0.52786825314E+01  0.10916835895E+03 -0.15978085749E+03  0.27762657925E+03  0.19900000000E+03 0.  0.
<mgrwt>
<rscale>  0 0.49914079E+03</rscale>
<asrwt>0</asrwt>
<pdfrwt beam="1">  1        2 0.44153214E-01 0.49914079E+03</pdfrwt>
<pdfrwt beam="2">  1       -2 0.28789076E-01 0.49914079E+03</pdfrwt>
<totfact> 0.12748271E+03</totfact>
</mgrwt>
</event>
<event>
 4    1  0.5131465E-005  0.9189941E+03  0.7818608E-02  0.9402144E-01
          2   -1    0    0  501    0  0.00000000000E+00  0.00000000000E+00  0.14591972064E+04  0.14591972064E+04  0.25500000000E-02 0.  1.
         -2   -1    0    0    0  501 -0.00000000000E+00 -0.00000000000E+00 -0.14469431121E+03  0.14469431123E+03  0.25500000000E-02 0. -1.
    5000001    1    1    2    0    0 -0.20637856884E+03 -0.20479875538E+03  0.11720373172E+04  0.12238493031E+04  0.19900000000E+03 0.  0.
   -5000001    1    1    2    0    0  0.20637856884E+03  0.20479875538E+03  0.14246557798E+03  0.38004221449E+03  0.19900000000E+03 0.  0.
<mgrwt>
<rscale>  0 0.91899409E+03</rscale>
<asrwt>0</asrwt>
<pdfrwt beam="1">  1        2 0.20845674E+00 0.91899409E+03</pdfrwt>
<pdfrwt beam="2">  1       -2 0.20670617E-01 0.91899409E+03</pdfrwt>
<totfact> 0.30982088E+02</totfact>
</mgrwt>
</event>
<event>
 4    1  0.5131465E-005  0.7487637E+03  0.7818608E-02  0.9637292E-01
          2   -1    0    0  501    0  0.00000000000E+00  0.00000000000E+00  0.22442248815E+04  0.22442248815E+04  0.25500000000E-02 0.  1.
         -2   -1    0    0    0  501 -0.00000000000E+00 -0.00000000000E+00 -0.62454420716E+02  0.62454420768E+02  0.25500000000E-02 0. -1.
    5000001    1    1    2    0    0  0.26883340567E+03 -0.45289838190E+02  0.15898954344E+04  0.16253279859E+04  0.19900000000E+03 0.  0.
   -5000001    1    1    2    0    0 -0.26883340567E+03  0.45289838190E+02  0.59187502637E+03  0.68135131635E+03  0.19900000000E+03 0.  0.
<mgrwt>
<rscale>  0 0.74876369E+03</rscale>
<asrwt>0</asrwt>
<pdfrwt beam="1">  1        2 0.32060340E+00 0.74876369E+03</pdfrwt>
<pdfrwt beam="2">  1       -2 0.89220644E-02 0.74876369E+03</pdfrwt>
<totfact> 0.50821205E+02</totfact>
</mgrwt>
</event>
<event>
 4    1  0.5131465E-005  0.4618117E+03  0.7818608E-02  0.1024257E+00
          2   -1    0    0  501    0  0.00000000000E+00  0.00000000000E+00  0.11709024470E+04  0.11709024470E+04  0.25500000000E-02 0.  1.
         -2   -1    0    0    0  501 -0.00000000000E+00 -0.00000000000E+00 -0.45535393769E+02  0.45535393840E+02  0.25500000000E-02 0. -1.
    5000001    1    1    2    0    0 -0.57913713156E+02 -0.96266992030E+02  0.64985335842E+03  0.68886262736E+03  0.19900000000E+03 0.  0.
   -5000001    1    1    2    0    0  0.57913713156E+02  0.96266992030E+02  0.47551369481E+03  0.52757521348E+03  0.19900000000E+03 0.  0.
<mgrwt>
<rscale>  0 0.46181167E+03</rscale>
<asrwt>0</asrwt>
<pdfrwt beam="1">  1        2 0.16727177E+00 0.46181167E+03</pdfrwt>
<pdfrwt beam="2">  1       -2 0.65050566E-02 0.46181167E+03</pdfrwt>
<totfact> 0.30460142E+03</totfact>
</mgrwt>
</event>
<event>
 4    1  0.5131465E-005  0.4179879E+03  0.7818608E-02  0.1037723E+00
         -2   -1    0    0    0  501 -0.00000000000E+00  0.00000000000E+00  0.54158047175E+02  0.54158047235E+02  0.25500000000E-02 0. -1.
          2   -1    0    0  501    0  0.00000000000E+00 -0.00000000000E+00 -0.80649997333E+03  0.80649997333E+03  0.25500000000E-02 0.  1.
    5000001    1    1    2    0    0 -0.55817264201E+02  0.30243403451E+02 -0.36201984980E+03  0.41795885214E+03  0.19900000000E+03 0.  0.
   -5000001    1    1    2    0    0  0.55817264201E+02 -0.30243403451E+02 -0.39032207635E+03  0.44269916842E+03  0.19900000000E+03 0.  0.
<mgrwt>
<rscale>  0 0.41798786E+03</rscale>
<asrwt>0</asrwt>
<pdfrwt beam="1">  1        2 0.11521427E+00 0.41798786E+03</pdfrwt>
<pdfrwt beam="2">  1       -2 0.77368644E-02 0.41798786E+03</pdfrwt>
<totfact> 0.38700273E+03</totfact>
</mgrwt>
</event>
<event>
 4    1  0.5131465E-005  0.5161767E+03  0.7818608E-02  0.1009641E+00
         -2   -1    0    0    0  501 -0.00000000000E+00  0.00000000000E+00  0.11578276901E+03  0.11578276904E+03  0.25500000000E-02 0. -1.
          2   -1    0    0  501    0  0.00000000000E+00 -0.00000000000E+00 -0.57529789915E+03  0.57529789916E+03  0.25500000000E-02 0.  1.
    5000001    1    1    2    0    0 -0.15795815244E+03 -0.32592311661E+02 -0.18751392918E+03  0.31745158739E+03  0.19900000000E+03 0.  0.
   -5000001    1    1    2    0    0  0.15795815244E+03  0.32592311661E+02 -0.27200120096E+03  0.37362908081E+03  0.19900000000E+03 0.  0.
<mgrwt>
<rscale>  0 0.51617665E+03</rscale>
<asrwt>0</asrwt>
<pdfrwt beam="1">  1        2 0.82185413E-01 0.51617665E+03</pdfrwt>
<pdfrwt beam="2">  1       -2 0.16540396E-01 0.51617665E+03</pdfrwt>
<totfact> 0.16873707E+03</totfact>
</mgrwt>
</event>
<event>
 4    1  0.5131465E-005  0.5449683E+03  0.7818608E-02  0.1002665E+00
         -2   -1    0    0    0  501 -0.00000000000E+00  0.00000000000E+00  0.53975109613E+02  0.53975109673E+02  0.25500000000E-02 0. -1.
          2   -1    0    0  501    0  0.00000000000E+00 -0.00000000000E+00 -0.13755900685E+04  0.13755900685E+04  0.25500000000E-02 0.  1.
    5000001    1    1    2    0    0 -0.81269921988E+01 -0.12612835212E+03 -0.10192591503E+04  0.10461666333E+04  0.19900000000E+03 0.  0.
   -5000001    1    1    2    0    0  0.81269921988E+01  0.12612835212E+03 -0.30235580861E+03  0.38339854487E+03  0.19900000000E+03 0.  0.
<mgrwt>
<rscale>  0 0.54496835E+03</rscale>
<asrwt>0</asrwt>
<pdfrwt beam="1">  1        2 0.19651285E+00 0.54496835E+03</pdfrwt>
<pdfrwt beam="2">  1       -2 0.77107308E-02 0.54496835E+03</pdfrwt>
<totfact> 0.18008303E+03</totfact>
</mgrwt>
</event>
<event>
 4    1  0.5131465E-005  0.4580629E+03  0.7818608E-02  0.1025345E+00
         -2   -1    0    0    0  501 -0.00000000000E+00  0.00000000000E+00  0.79389362838E+02  0.79389362879E+02  0.25500000000E-02 0. -1.
          2   -1    0    0  501    0  0.00000000000E+00 -0.00000000000E+00 -0.66073594957E+03  0.66073594958E+03  0.25500000000E-02 0.  1.
    5000001    1    1    2    0    0  0.54387509352E+02  0.11578755288E+02 -0.45031892514E+03  0.49545958774E+03  0.19900000000E+03 0.  0.
   -5000001    1    1    2    0    0 -0.54387509352E+02 -0.11578755288E+02 -0.13102766160E+03  0.24466572472E+03  0.19900000000E+03 0.  0.
<mgrwt>
<rscale>  0 0.45806290E+03</rscale>
<asrwt>0</asrwt>
<pdfrwt beam="1">  1        2 0.94390847E-01 0.45806290E+03</pdfrwt>
<pdfrwt beam="2">  1       -2 0.11341338E-01 0.45806290E+03</pdfrwt>
<totfact> 0.26813628E+03</totfact>
</mgrwt>
</event>
<event>
 4    1  0.5131465E-005  0.1062746E+04  0.7818608E-02  0.9242283E-01
          2   -1    0    0  501    0  0.00000000000E+00  0.00000000000E+00  0.34550018261E+04  0.34550018261E+04  0.25500000000E-02 0.  1.
         -2   -1    0    0    0  501 -0.00000000000E+00 -0.00000000000E+00 -0.81724181432E+02  0.81724181472E+02  0.25500000000E-02 0. -1.
    5000001    1    1    2    0    0  0.20508839092E+03 -0.43440371015E+03  0.20510166671E+04  0.21159012737E+04  0.19900000000E+03 0.  0.
   -5000001    1    1    2    0    0 -0.20508839092E+03  0.43440371015E+03  0.13222609776E+04  0.14208247338E+04  0.19900000000E+03 0.  0.
<mgrwt>
<rscale>  0 0.10627459E+04</rscale>
<asrwt>0</asrwt>
<pdfrwt beam="1">  1        2 0.49357171E+00 0.10627459E+04</pdfrwt>
<pdfrwt beam="2">  1       -2 0.11674882E-01 0.10627459E+04</pdfrwt>
<totfact> 0.69924288E+01</totfact>
</mgrwt>
</event>
<event>
 4    1  0.5131465E-005  0.6893137E+03  0.7818608E-02  0.9735684E-01
          2   -1    0    0  501    0  0.00000000000E+00  0.00000000000E+00  0.14485198495E+04  0.14485198495E+04  0.25500000000E-02 0.  1.
         -2   -1    0    0    0  501 -0.00000000000E+00 -0.00000000000E+00 -0.82006707145E+02  0.82006707185E+02  0.25500000000E-02 0. -1.
    5000001    1    1    2    0    0  0.23438085538E+03  0.12333393552E+03  0.47212705008E+03  0.57675869862E+03  0.19900000000E+03 0.  0.
   -5000001    1    1    2    0    0 -0.23438085538E+03 -0.12333393552E+03  0.89438609223E+03  0.95376785802E+03  0.19900000000E+03 0.  0.
<mgrwt>
<rscale>  0 0.68931370E+03</rscale>
<asrwt>0</asrwt>
<pdfrwt beam="1">  1        2 0.20693140E+00 0.68931370E+03</pdfrwt>
<pdfrwt beam="2">  1       -2 0.11715244E-01 0.68931370E+03</pdfrwt>
<totfact> 0.83396428E+02</totfact>
</mgrwt>
</event>
<event>
 4    1  0.5131465E-005  0.4541061E+03  0.7818608E-02  0.1026505E+00
         -2   -1    0    0    0  501 -0.00000000000E+00  0.00000000000E+00  0.17722153404E+03  0.17722153406E+03  0.25500000000E-02 0.  1.
          2   -1    0    0  501    0  0.00000000000E+00 -0.00000000000E+00 -0.29089631163E+03  0.29089631164E+03  0.25500000000E-02 0. -1.
    5000001    1    1    2    0    0  0.78976355589E+02  0.69676633856E+02 -0.26606898254E+02  0.22671794169E+03  0.19900000000E+03 0.  0.
   -5000001    1    1    2    0    0 -0.78976355589E+02 -0.69676633856E+02 -0.87067879332E+02  0.24139990402E+03  0.19900000000E+03 0.  0.
<mgrwt>
<rscale>  0 0.45410611E+03</rscale>
<asrwt>0</asrwt>
<pdfrwt beam="1">  1        2 0.41556616E-01 0.45410611E+03</pdfrwt>
<pdfrwt beam="2">  1       -2 0.25317362E-01 0.45410611E+03</pdfrwt>
<totfact> 0.17177306E+03</totfact>
</mgrwt>
</event>
<event>
 4    1  0.5131465E-005  0.7956296E+03  0.7818608E-02  0.9566365E-01
         -2   -1    0    0    0  501 -0.00000000000E+00  0.00000000000E+00  0.10606453311E+03  0.10606453314E+03  0.25500000000E-02 0. -1.
          2   -1    0    0  501    0  0.00000000000E+00 -0.00000000000E+00 -0.14920786532E+04  0.14920786532E+04  0.25500000000E-02 0.  1.
    5000001    1    1    2    0    0  0.30864645345E+03 -0.13598862011E+03 -0.83361397140E+03  0.92101508746E+03  0.19900000000E+03 0.  0.
   -5000001    1    1    2    0    0 -0.30864645345E+03  0.13598862011E+03 -0.55240014872E+03  0.67712809891E+03  0.19900000000E+03 0.  0.
<mgrwt>
<rscale>  0 0.79562963E+03</rscale>
<asrwt>0</asrwt>
<pdfrwt beam="1">  1        2 0.21315408E+00 0.79562963E+03</pdfrwt>
<pdfrwt beam="2">  1       -2 0.15152077E-01 0.79562963E+03</pdfrwt>
<totfact> 0.51215197E+02</totfact>
</mgrwt>
</event>
<event>
 4    1  0.5131465E-005  0.5981217E+03  0.7818608E-02  0.9909311E-01
          2   -1    0    0  501    0  0.00000000000E+00  0.00000000000E+00  0.20580203894E+04  0.20580203894E+04  0.25500000000E-02 0.  1.
         -2   -1    0    0    0  501 -0.00000000000E+00 -0.00000000000E+00 -0.43457965886E+02  0.43457965961E+02  0.25500000000E-02 0. -1.
    5000001    1    1    2    0    0  0.20146401691E+03  0.92184074925E+02  0.91101449253E+03  0.95845399440E+03  0.19900000000E+03 0.  0.
   -5000001    1    1    2    0    0 -0.20146401691E+03 -0.92184074925E+02  0.11035479310E+04  0.11430243610E+04  0.19900000000E+03 0.  0.
<mgrwt>
<rscale>  0 0.59812166E+03</rscale>
<asrwt>0</asrwt>
<pdfrwt beam="1">  1        2 0.29400288E+00 0.59812166E+03</pdfrwt>
<pdfrwt beam="2">  1       -2 0.62082815E-02 0.59812166E+03</pdfrwt>
<totfact> 0.11343678E+03</totfact>
</mgrwt>
</event>
<event>
 4    1  0.5131465E-005  0.5036848E+03  0.7818608E-02  0.1012822E+00
         -2   -1    0    0    0  501 -0.00000000000E+00  0.00000000000E+00  0.49464021810E+02  0.49464021876E+02  0.25500000000E-02 0. -1.
          2   -1    0    0  501    0  0.00000000000E+00 -0.00000000000E+00 -0.12822370810E+04  0.12822370810E+04  0.25500000000E-02 0.  1.
    5000001    1    1    2    0    0  0.13942820176E+03  0.59873222918E+02 -0.69110125548E+03  0.73501494651E+03  0.19900000000E+03 0.  0.
   -5000001    1    1    2    0    0 -0.13942820176E+03 -0.59873222918E+02 -0.54167180374E+03  0.59668615640E+03  0.19900000000E+03 0.  0.
<mgrwt>
<rscale>  0 0.50368483E+03</rscale>
<asrwt>0</asrwt>
<pdfrwt beam="1">  1        2 0.18317671E+00 0.50368483E+03</pdfrwt>
<pdfrwt beam="2">  1       -2 0.70662896E-02 0.50368483E+03</pdfrwt>
<totfact> 0.23220431E+03</totfact>
</mgrwt>
</event>
<event>
 4    1  0.5131465E-005  0.4243628E+03  0.7818608E-02  0.1035656E+00
         -2   -1    0    0    0  501 -0.00000000000E+00  0.00000000000E+00  0.23501913164E+03  0.23501913165E+03  0.25500000000E-02 0. -1.
          2   -1    0    0  501    0  0.00000000000E+00 -0.00000000000E+00 -0.19156288060E+03  0.19156288062E+03  0.25500000000E-02 0.  1.
    5000001    1    1    2    0    0  0.66035160768E+02 -0.23217840897E+02  0.44655983336E+02  0.21562668536E+03  0.19900000000E+03 0.  0.
   -5000001    1    1    2    0    0 -0.66035160768E+02  0.23217840897E+02 -0.11997322972E+01  0.21095532691E+03  0.19900000000E+03 0.  0.
<mgrwt>
<rscale>  0 0.42436278E+03</rscale>
<asrwt>0</asrwt>
<pdfrwt beam="1">  1        2 0.27366126E-01 0.42436278E+03</pdfrwt>
<pdfrwt beam="2">  1       -2 0.33574162E-01 0.42436278E+03</pdfrwt>
<totfact> 0.16269348E+03</totfact>
</mgrwt>
</event>
<event>
 4    1  0.5131465E-005  0.5076484E+03  0.7818608E-02  0.1011802E+00
         -2   -1    0    0    0  501 -0.00000000000E+00  0.00000000000E+00  0.54730816116E+02  0.54730816175E+02  0.25500000000E-02 0. -1.
          2   -1    0    0  501    0  0.00000000000E+00 -0.00000000000E+00 -0.11771564307E+04  0.11771564307E+04  0.25500000000E-02 0.  1.
    5000001    1    1    2    0    0  0.11066033354E+03  0.53460860037E+02 -0.32194470286E+03  0.39793613140E+03  0.19900000000E+03 0.  0.
   -5000001    1    1    2    0    0 -0.11066033354E+03 -0.53460860037E+02 -0.80048091175E+03  0.83395111550E+03  0.19900000000E+03 0.  0.
<mgrwt>
<rscale>  0 0.50764843E+03</rscale>
<asrwt>0</asrwt>
<pdfrwt beam="1">  1        2 0.16816519E+00 0.50764843E+03</pdfrwt>
<pdfrwt beam="2">  1       -2 0.78186888E-02 0.50764843E+03</pdfrwt>
<totfact> 0.22614809E+03</totfact>
</mgrwt>
</event>
<event>
 4    1  0.5131465E-005  0.1013447E+04  0.7818608E-02  0.9293918E-01
         -2   -1    0    0    0  501 -0.00000000000E+00  0.00000000000E+00  0.84240566678E+03  0.84240566679E+03  0.25500000000E-02 0. -1.
          2   -1    0    0  501    0  0.00000000000E+00 -0.00000000000E+00 -0.30480432520E+03  0.30480432521E+03  0.25500000000E-02 0.  1.
    5000001    1    1    2    0    0  0.13462165599E+03 -0.42828797714E+03  0.12735061918E+03  0.50731919127E+03  0.19900000000E+03 0.  0.
   -5000001    1    1    2    0    0 -0.13462165599E+03  0.42828797714E+03  0.41025072241E+03  0.63989080073E+03  0.19900000000E+03 0.  0.
<mgrwt>
<rscale>  0 0.10134474E+04</rscale>
<asrwt>0</asrwt>
<pdfrwt beam="1">  1        2 0.43543475E-01 0.10134474E+04</pdfrwt>
<pdfrwt beam="2">  1       -2 0.12034367E+00 0.10134474E+04</pdfrwt>
<totfact> 0.61640306E+01</totfact>
</mgrwt>
</event>
<event>
 4    1  0.5131465E-005  0.4924430E+03  0.7818608E-02  0.1015770E+00
          2   -1    0    0  501    0  0.00000000000E+00  0.00000000000E+00  0.22533557336E+04  0.22533557336E+04  0.25500000000E-02 0.  1.
         -2   -1    0    0    0  501 -0.00000000000E+00 -0.00000000000E+00 -0.26904325315E+02  0.26904325436E+02  0.25500000000E-02 0. -1.
    5000001    1    1    2    0    0 -0.13497387640E+03 -0.52737653657E+02  0.10901620552E+04  0.11176106272E+04  0.19900000000E+03 0.  0.
   -5000001    1    1    2    0    0  0.13497387640E+03  0.52737653657E+02  0.11362893531E+04  0.11626494318E+04  0.19900000000E+03 0.  0.
<mgrwt>
<rscale>  0 0.49244295E+03</rscale>
<asrwt>0</asrwt>
<pdfrwt beam="1">  1        2 0.32190794E+00 0.49244295E+03</pdfrwt>
<pdfrwt beam="2">  1       -2 0.38434754E-02 0.49244295E+03</pdfrwt>
<totfact> 0.19115902E+03</totfact>
</mgrwt>
</event>
<event>
 4    1  0.5131465E-005  0.6178395E+03  0.7818608E-02  0.9869071E-01
         -2   -1    0    0    0  501 -0.00000000000E+00  0.00000000000E+00  0.10618087985E+03  0.10618087988E+03  0.25500000000E-02 0.  1.
          2   -1    0    0  501    0  0.00000000000E+00 -0.00000000000E+00 -0.89876261216E+03  0.89876261217E+03  0.25500000000E-02 0. -1.
    5000001    1    1    2    0    0  0.12184211851E+03 -0.19713898809E+03 -0.32137930260E+03  0.44339027798E+03  0.19900000000E+03 0.  0.
   -5000001    1    1    2    0    0 -0.12184211851E+03  0.19713898809E+03 -0.47120242971E+03  0.56155321407E+03  0.19900000000E+03 0.  0.
<mgrwt>
<rscale>  0 0.61783948E+03</rscale>
<asrwt>0</asrwt>
<pdfrwt beam="1">  1        2 0.12839465E+00 0.61783948E+03</pdfrwt>
<pdfrwt beam="2">  1       -2 0.15168698E-01 0.61783948E+03</pdfrwt>
<totfact> 0.11238754E+03</totfact>
</mgrwt>
</event>
<event>
 4    1  0.5131465E-005  0.6180764E+03  0.7818608E-02  0.9868597E-01
         -2   -1    0    0    0  501 -0.00000000000E+00  0.00000000000E+00  0.37173277939E+03  0.37173277940E+03  0.25500000000E-02 0. -1.
          2   -1    0    0  501    0  0.00000000000E+00 -0.00000000000E+00 -0.25691734516E+03  0.25691734517E+03  0.25500000000E-02 0.  1.
    5000001    1    1    2    0    0 -0.17217206099E+03 -0.16191781921E+03  0.64077339829E+02  0.31554318919E+03  0.19900000000E+03 0.  0.
   -5000001    1    1    2    0    0  0.17217206099E+03  0.16191781921E+03  0.50738094404E+02  0.31310693539E+03  0.19900000000E+03 0.  0.
<mgrwt>
<rscale>  0 0.61807637E+03</rscale>
<asrwt>0</asrwt>
<pdfrwt beam="1">  1        2 0.36702478E-01 0.61807637E+03</pdfrwt>
<pdfrwt beam="2">  1       -2 0.53104682E-01 0.61807637E+03</pdfrwt>
<totfact> 0.47805657E+02</totfact>
</mgrwt>
</event>
<event>
 4    1  0.5131465E-005  0.5994627E+03  0.7818608E-02  0.9906521E-01
         -2   -1    0    0    0  501 -0.00000000000E+00  0.00000000000E+00  0.75157786153E+02  0.75157786197E+02  0.25500000000E-02 0. -1.
          2   -1    0    0  501    0  0.00000000000E+00 -0.00000000000E+00 -0.11953368358E+04  0.11953368358E+04  0.25500000000E-02 0.  1.
    5000001    1    1    2    0    0  0.35860004251E+02  0.21711835829E+03 -0.65029558714E+03  0.71478085597E+03  0.19900000000E+03 0.  0.
   -5000001    1    1    2    0    0 -0.35860004251E+02 -0.21711835829E+03 -0.46988346251E+03  0.55571376603E+03  0.19900000000E+03 0.  0.
<mgrwt>
<rscale>  0 0.59946266E+03</rscale>
<asrwt>0</asrwt>
<pdfrwt beam="1">  1        2 0.17076239E+00 0.59946266E+03</pdfrwt>
<pdfrwt beam="2">  1       -2 0.10736827E-01 0.59946266E+03</pdfrwt>
<totfact> 0.13246010E+03</totfact>
</mgrwt>
</event>
<event>
 4    1  0.5131465E-005  0.7947997E+03  0.7818608E-02  0.9567575E-01
         -2   -1    0    0    0  501 -0.00000000000E+00  0.00000000000E+00  0.34917751874E+03  0.34917751875E+03  0.25500000000E-02 0. -1.
          2   -1    0    0  501    0  0.00000000000E+00 -0.00000000000E+00 -0.45228183433E+03  0.45228183434E+03  0.25500000000E-02 0.  1.
    5000001    1    1    2    0    0 -0.29395021896E+03 -0.14929706418E+03 -0.15050339921E+03  0.41345933025E+03  0.19900000000E+03 0.  0.
   -5000001    1    1    2    0    0  0.29395021896E+03  0.14929706418E+03  0.47399083617E+02  0.38800002284E+03  0.19900000000E+03 0.  0.
<mgrwt>
<rscale>  0 0.79479972E+03</rscale>
<asrwt>0</asrwt>
<pdfrwt beam="1">  1        2 0.64611691E-01 0.79479972E+03</pdfrwt>
<pdfrwt beam="2">  1       -2 0.49882503E-01 0.79479972E+03</pdfrwt>
<totfact> 0.28812112E+02</totfact>
</mgrwt>
</event>
<event>
 4    1  0.5131465E-005  0.7222546E+03  0.7818608E-02  0.9679913E-01
          2   -1    0    0  501    0  0.00000000000E+00  0.00000000000E+00  0.15152229986E+04  0.15152229986E+04  0.25500000000E-02 0.  1.
         -2   -1    0    0    0  501 -0.00000000000E+00 -0.00000000000E+00 -0.86068468238E+02  0.86068468276E+02  0.25500000000E-02 0. -1.
    5000001    1    1    2    0    0  0.61640812856E+02 -0.28083547480E+03  0.51450227741E+03  0.62207856994E+03  0.19900000000E+03 0.  0.
   -5000001    1    1    2    0    0 -0.61640812856E+02  0.28083547480E+03  0.91465225297E+03  0.97921289696E+03  0.19900000000E+03 0.  0.
<mgrwt>
<rscale>  0 0.72225459E+03</rscale>
<asrwt>0</asrwt>
<pdfrwt beam="1">  1        2 0.21646044E+00 0.72225459E+03</pdfrwt>
<pdfrwt beam="2">  1       -2 0.12295495E-01 0.72225459E+03</pdfrwt>
<totfact> 0.70916947E+02</totfact>
</mgrwt>
</event>
<event>
 4    1  0.5131465E-005  0.4670352E+03  0.7818608E-02  0.1022760E+00
         -2   -1    0    0    0  501 -0.00000000000E+00  0.00000000000E+00  0.36594850932E+02  0.36594851021E+02  0.25500000000E-02 0.  1.
          2   -1    0    0  501    0  0.00000000000E+00 -0.00000000000E+00 -0.14901130988E+04  0.14901130988E+04  0.25500000000E-02 0. -1.
    5000001    1    1    2    0    0  0.10765997256E+02 -0.10595580170E+03 -0.92253884452E+03  0.94974810253E+03  0.19900000000E+03 0.  0.
   -5000001    1    1    2    0    0 -0.10765997256E+02  0.10595580170E+03 -0.53097940336E+03  0.57695984731E+03  0.19900000000E+03 0.  0.
<mgrwt>
<rscale>  0 0.46703519E+03</rscale>
<asrwt>0</asrwt>
<pdfrwt beam="1">  1        2 0.21287326E+00 0.46703519E+03</pdfrwt>
<pdfrwt beam="2">  1       -2 0.52278368E-02 0.46703519E+03</pdfrwt>
<totfact> 0.28854760E+03</totfact>
</mgrwt>
</event>
<event>
 4    1  0.5131465E-005  0.5511419E+03  0.7818608E-02  0.1001230E+00
         -2   -1    0    0    0  501 -0.00000000000E+00  0.00000000000E+00  0.16886156988E+03  0.16886156990E+03  0.25500000000E-02 0. -1.
          2   -1    0    0  501    0  0.00000000000E+00 -0.00000000000E+00 -0.44971358126E+03  0.44971358127E+03  0.25500000000E-02 0.  1.
    5000001    1    1    2    0    0 -0.16117234410E+03  0.20042173602E+02 -0.28414786699E+02  0.25843106107E+03  0.19900000000E+03 0.  0.
   -5000001    1    1    2    0    0  0.16117234410E+03 -0.20042173602E+02 -0.25243722468E+03  0.36014409010E+03  0.19900000000E+03 0.  0.
<mgrwt>
<rscale>  0 0.55114187E+03</rscale>
<asrwt>0</asrwt>
<pdfrwt beam="1">  1        2 0.64244797E-01 0.55114187E+03</pdfrwt>
<pdfrwt beam="2">  1       -2 0.24123082E-01 0.55114187E+03</pdfrwt>
<totfact> 0.11590465E+03</totfact>
</mgrwt>
</event>
<event>
 4    1  0.5131465E-005  0.5028199E+03  0.7818608E-02  0.1013045E+00
          2   -1    0    0  501    0  0.00000000000E+00  0.00000000000E+00  0.16785219156E+04  0.16785219156E+04  0.25500000000E-02 0.  1.
         -2   -1    0    0    0  501 -0.00000000000E+00 -0.00000000000E+00 -0.37656323810E+02  0.37656323897E+02  0.25500000000E-02 0. -1.
    5000001    1    1    2    0    0  0.77576489050E+02  0.12842564293E+03  0.70750549164E+03  0.75011750954E+03  0.19900000000E+03 0.  0.
   -5000001    1    1    2    0    0 -0.77576489050E+02 -0.12842564293E+03  0.93336010010E+03  0.96606072991E+03  0.19900000000E+03 0.  0.
<mgrwt>
<rscale>  0 0.50281991E+03</rscale>
<asrwt>0</asrwt>
<pdfrwt beam="1">  1        2 0.23978877E+00 0.50281991E+03</pdfrwt>
<pdfrwt beam="2">  1       -2 0.53794766E-02 0.50281991E+03</pdfrwt>
<totfact> 0.22099090E+03</totfact>
</mgrwt>
</event>
<event>
 4    1  0.5131465E-005  0.1101415E+04  0.7818608E-02  0.9203814E-01
         -2   -1    0    0    0  501 -0.00000000000E+00  0.00000000000E+00  0.17026679210E+03  0.17026679212E+03  0.25500000000E-02 0. -1.
          2   -1    0    0  501    0  0.00000000000E+00 -0.00000000000E+00 -0.17811978921E+04  0.17811978921E+04  0.25500000000E-02 0.  1.
    5000001    1    1    2    0    0 -0.17698277789E+03  0.45461846502E+03 -0.52155484528E+03  0.74136449135E+03  0.19900000000E+03 0.  0.
   -5000001    1    1    2    0    0  0.17698277789E+03 -0.45461846502E+03 -0.10893762547E+04  0.12101001928E+04  0.19900000000E+03 0.  0.
<mgrwt>
<rscale>  0 0.11014152E+04</rscale>
<asrwt>0</asrwt>
<pdfrwt beam="1">  1        2 0.25445683E+00 0.11014152E+04</pdfrwt>
<pdfrwt beam="2">  1       -2 0.24323828E-01 0.11014152E+04</pdfrwt>
<totfact> 0.15567220E+02</totfact>
</mgrwt>
</event>
<event>
 4    1  0.5131465E-005  0.7406487E+03  0.7818608E-02  0.9650136E-01
         -2   -1    0    0    0  501 -0.00000000000E+00  0.00000000000E+00  0.15159098371E+03  0.15159098374E+03  0.25500000000E-02 0. -1.
          2   -1    0    0  501    0  0.00000000000E+00 -0.00000000000E+00 -0.90467209856E+03  0.90467209857E+03  0.25500000000E-02 0.  1.
    5000001    1    1    2    0    0  0.26168851054E+03 -0.50005447093E+02 -0.60895073937E+03  0.69383241800E+03  0.19900000000E+03 0.  0.
   -5000001    1    1    2    0    0 -0.26168851054E+03  0.50005447093E+02 -0.14413037547E+03  0.36243066430E+03  0.19900000000E+03 0.  0.
<mgrwt>
<rscale>  0 0.74064872E+03</rscale>
<asrwt>0</asrwt>
<pdfrwt beam="1">  1        2 0.12923887E+00 0.74064872E+03</pdfrwt>
<pdfrwt beam="2">  1       -2 0.21655855E-01 0.74064872E+03</pdfrwt>
<totfact> 0.60074679E+02</totfact>
</mgrwt>
</event>
<event>
 4    1  0.5131465E-005  0.6737866E+03  0.7818608E-02  0.9763141E-01
          2   -1    0    0  501    0  0.00000000000E+00  0.00000000000E+00  0.67022956632E+03  0.67022956632E+03  0.25500000000E-02 0.  1.
         -2   -1    0    0    0  501 -0.00000000000E+00 -0.00000000000E+00 -0.16934063810E+03  0.16934063812E+03  0.25500000000E-02 0. -1.
    5000001    1    1    2    0    0  0.57390322683E+01  0.25240641781E+03  0.12488288514E+03  0.34487486317E+03  0.19900000000E+03 0.  0.
   -5000001    1    1    2    0    0 -0.57390322683E+01 -0.25240641781E+03  0.37600604308E+03  0.49469534127E+03  0.19900000000E+03 0.  0.
<mgrwt>
<rscale>  0 0.67378662E+03</rscale>
<asrwt>0</asrwt>
<pdfrwt beam="1">  1        2 0.95747081E-01 0.67378662E+03</pdfrwt>
<pdfrwt beam="2">  1       -2 0.24191520E-01 0.67378662E+03</pdfrwt>
<totfact> 0.72471011E+02</totfact>
</mgrwt>
</event>
<event>
 4    1  0.5131465E-005  0.9549806E+03  0.7818608E-02  0.9359348E-01
          2   -1    0    0  501    0  0.00000000000E+00  0.00000000000E+00  0.12911511143E+04  0.12911511143E+04  0.25500000000E-02 0.  1.
         -2   -1    0    0    0  501 -0.00000000000E+00 -0.00000000000E+00 -0.17658426331E+03  0.17658426333E+03  0.25500000000E-02 0. -1.
    5000001    1    1    2    0    0 -0.27592334226E+03 -0.24328588680E+03  0.20320849115E+03  0.46499075732E+03  0.19900000000E+03 0.  0.
   -5000001    1    1    2    0    0  0.27592334226E+03  0.24328588680E+03  0.91135835984E+03  0.10027446203E+04  0.19900000000E+03 0.  0.
<mgrwt>
<rscale>  0 0.95498056E+03</rscale>
<asrwt>0</asrwt>
<pdfrwt beam="1">  1        2 0.18445016E+00 0.95498056E+03</pdfrwt>
<pdfrwt beam="2">  1       -2 0.25226323E-01 0.95498056E+03</pdfrwt>
<totfact> 0.26723598E+02</totfact>
</mgrwt>
</event>
<event>
 4    1  0.5131465E-005  0.5083690E+03  0.7818608E-02  0.1011617E+00
          2   -1    0    0  501    0  0.00000000000E+00  0.00000000000E+00  0.31667505692E+03  0.31667505693E+03  0.25500000000E-02 0.  1.
         -2   -1    0    0    0  501 -0.00000000000E+00 -0.00000000000E+00 -0.20402539038E+03  0.20402539040E+03  0.25500000000E-02 0. -1.
    5000001    1    1    2    0    0  0.13593333759E+03 -0.38327368051E+02 -0.16547954767E+02  0.24458473832E+03  0.19900000000E+03 0.  0.
   -5000001    1    1    2    0    0 -0.13593333759E+03  0.38327368051E+02  0.12919762130E+03  0.27611570901E+03  0.19900000000E+03 0.  0.
<mgrwt>
<rscale>  0 0.50836897E+03</rscale>
<asrwt>0</asrwt>
<pdfrwt beam="1">  1        2 0.45239293E-01 0.50836897E+03</pdfrwt>
<pdfrwt beam="2">  1       -2 0.29146485E-01 0.50836897E+03</pdfrwt>
<totfact> 0.12135852E+03</totfact>
</mgrwt>
</event>
<event>
 4    1  0.5131465E-005  0.1101239E+04  0.7818608E-02  0.9203985E-01
          2   -1    0    0  501    0  0.00000000000E+00  0.00000000000E+00  0.12011490080E+04  0.12011490080E+04  0.25500000000E-02 0.  1.
         -2   -1    0    0    0  501 -0.00000000000E+00 -0.00000000000E+00 -0.25240971506E+03  0.25240971508E+03  0.25500000000E-02 0. -1.
    5000001    1    1    2    0    0 -0.28561884273E+03  0.67618005975E+02  0.10303572098E+04  0.10896730234E+04  0.19900000000E+03 0.  0.
   -5000001    1    1    2    0    0  0.28561884273E+03 -0.67618005975E+02 -0.81617916921E+02  0.36388569966E+03  0.19900000000E+03 0.  0.
<mgrwt>
<rscale>  0 0.11012387E+04</rscale>
<asrwt>0</asrwt>
<pdfrwt beam="1">  1        2 0.17159272E+00 0.11012387E+04</pdfrwt>
<pdfrwt beam="2">  1       -2 0.36058531E-01 0.11012387E+04</pdfrwt>
<totfact> 0.15302322E+02</totfact>
</mgrwt>
</event>
<event>
 4    1  0.5131465E-005  0.5538780E+03  0.7818608E-02  0.1000600E+00
         -2   -1    0    0    0  501 -0.00000000000E+00  0.00000000000E+00  0.17916918637E+03  0.17916918638E+03  0.25500000000E-02 0. -1.
          2   -1    0    0  501    0  0.00000000000E+00 -0.00000000000E+00 -0.42806024998E+03  0.42806024999E+03  0.25500000000E-02 0.  1.
    5000001    1    1    2    0    0 -0.41963203310E+02  0.11905069175E+03 -0.28392283835E+03  0.36898124041E+03  0.19900000000E+03 0.  0.
   -5000001    1    1    2    0    0  0.41963203310E+02 -0.11905069175E+03  0.35031774736E+02  0.23824819596E+03  0.19900000000E+03 0.  0.
<mgrwt>
<rscale>  0 0.55387799E+03</rscale>
<asrwt>0</asrwt>
<pdfrwt beam="1">  1        2 0.61151464E-01 0.55387799E+03</pdfrwt>
<pdfrwt beam="2">  1       -2 0.25595598E-01 0.55387799E+03</pdfrwt>
<totfact> 0.11014049E+03</totfact>
</mgrwt>
</event>
<event>
 4    1  0.5131465E-005  0.9897570E+03  0.7818608E-02  0.9319851E-01
         -2   -1    0    0    0  501 -0.00000000000E+00  0.00000000000E+00  0.95754060517E+02  0.95754060551E+02  0.25500000000E-02 0. -1.
          2   -1    0    0  501    0  0.00000000000E+00 -0.00000000000E+00 -0.25576431914E+04  0.25576431914E+04  0.25500000000E-02 0.  1.
    5000001    1    1    2    0    0  0.13734549952E+03  0.37722565824E+03 -0.66770456079E+03  0.80411029341E+03  0.19900000000E+03 0.  0.
   -5000001    1    1    2    0    0 -0.13734549952E+03 -0.37722565824E+03 -0.17941845701E+04  0.18492869586E+04  0.19900000000E+03 0.  0.
<mgrwt>
<rscale>  0 0.98975698E+03</rscale>
<asrwt>0</asrwt>
<pdfrwt beam="1">  1        2 0.36537755E+00 0.98975698E+03</pdfrwt>
<pdfrwt beam="2">  1       -2 0.13679153E-01 0.98975698E+03</pdfrwt>
<totfact> 0.17022985E+02</totfact>
</mgrwt>
</event>
<event>
 4    1  0.5131465E-005  0.9510634E+03  0.7818608E-02  0.9363908E-01
         -2   -1    0    0    0  501 -0.00000000000E+00  0.00000000000E+00  0.20655326840E+03  0.20655326841E+03  0.25500000000E-02 0.  1.
          2   -1    0    0  501    0  0.00000000000E+00 -0.00000000000E+00 -0.10947800263E+04  0.10947800263E+04  0.25500000000E-02 0. -1.
    5000001    1    1    2    0    0  0.41817582111E+03 -0.78634942648E+02 -0.54535707874E+03  0.71977066827E+03  0.19900000000E+03 0.  0.
   -5000001    1    1    2    0    0 -0.41817582111E+03  0.78634942648E+02 -0.34286967912E+03  0.58156262640E+03  0.19900000000E+03 0.  0.
<mgrwt>
<rscale>  0 0.95106339E+03</rscale>
<asrwt>0</asrwt>
<pdfrwt beam="1">  1        2 0.15639714E+00 0.95106339E+03</pdfrwt>
<pdfrwt beam="2">  1       -2 0.29507610E-01 0.95106339E+03</pdfrwt>
<totfact> 0.25959948E+02</totfact>
</mgrwt>
</event>
<event>
 4    1  0.5131465E-005  0.5429666E+03  0.7818608E-02  0.1003135E+00
         -2   -1    0    0    0  501 -0.00000000000E+00  0.00000000000E+00  0.15692088494E+03  0.15692088496E+03  0.25500000000E-02 0. -1.
          2   -1    0    0  501    0  0.00000000000E+00 -0.00000000000E+00 -0.46968362235E+03  0.46968362236E+03  0.25500000000E-02 0.  1.
    5000001    1    1    2    0    0 -0.17764969815E+03  0.11760204019E+02 -0.21296990929E+03  0.34154780034E+03  0.19900000000E+03 0.  0.
   -5000001    1    1    2    0    0  0.17764969815E+03 -0.11760204019E+02 -0.99792828119E+02  0.28505670698E+03  0.19900000000E+03 0.  0.
<mgrwt>
<rscale>  0 0.54296655E+03</rscale>
<asrwt>0</asrwt>
<pdfrwt beam="1">  1        2 0.67097660E-01 0.54296655E+03</pdfrwt>
<pdfrwt beam="2">  1       -2 0.22417270E-01 0.54296655E+03</pdfrwt>
<totfact> 0.12572800E+03</totfact>
</mgrwt>
</event>
<event>
 4    1  0.5131465E-005  0.7238260E+03  0.7818608E-02  0.9677332E-01
         -2   -1    0    0    0  501 -0.00000000000E+00  0.00000000000E+00  0.20509311495E+03  0.20509311497E+03  0.25500000000E-02 0. -1.
          2   -1    0    0  501    0  0.00000000000E+00 -0.00000000000E+00 -0.63864174811E+03  0.63864174811E+03  0.25500000000E-02 0.  1.
    5000001    1    1    2    0    0 -0.27610555921E+03  0.32098368445E+02 -0.78284123177E+02  0.35070498859E+03  0.19900000000E+03 0.  0.
   -5000001    1    1    2    0    0  0.27610555921E+03 -0.32098368445E+02 -0.35526450998E+03  0.49302987448E+03  0.19900000000E+03 0.  0.
<mgrwt>
<rscale>  0 0.72382602E+03</rscale>
<asrwt>0</asrwt>
<pdfrwt beam="1">  1        2 0.91234535E-01 0.72382602E+03</pdfrwt>
<pdfrwt beam="2">  1       -2 0.29299017E-01 0.72382602E+03</pdfrwt>
<totfact> 0.54159921E+02</totfact>
</mgrwt>
</event>
<event>
 4    1  0.5131465E-005  0.4859156E+03  0.7818608E-02  0.1017522E+00
         -2   -1    0    0    0  501 -0.00000000000E+00  0.00000000000E+00  0.68255920686E+02  0.68255920733E+02  0.25500000000E-02 0. -1.
          2   -1    0    0  501    0  0.00000000000E+00 -0.00000000000E+00 -0.86481130708E+03  0.86481130708E+03  0.25500000000E-02 0.  1.
    5000001    1    1    2    0    0  0.13426510788E+03  0.37420593001E+02 -0.39776231899E+03  0.46609364121E+03  0.19900000000E+03 0.  0.
   -5000001    1    1    2    0    0 -0.13426510788E+03 -0.37420593001E+02 -0.39879306741E+03  0.46697358660E+03  0.19900000000E+03 0.  0.
<mgrwt>
<rscale>  0 0.48591560E+03</rscale>
<asrwt>0</asrwt>
<pdfrwt beam="1">  1        2 0.12354447E+00 0.48591560E+03</pdfrwt>
<pdfrwt beam="2">  1       -2 0.97508464E-02 0.48591560E+03</pdfrwt>
<totfact> 0.24505082E+03</totfact>
</mgrwt>
</event>
<event>
 4    1  0.5131465E-005  0.5508995E+03  0.7818608E-02  0.1001286E+00
          2   -1    0    0  501    0  0.00000000000E+00  0.00000000000E+00  0.11693549044E+04  0.11693549044E+04  0.25500000000E-02 0.  1.
         -2   -1    0    0    0  501 -0.00000000000E+00 -0.00000000000E+00 -0.64884132287E+02  0.64884132338E+02  0.25500000000E-02 0. -1.
    5000001    1    1    2    0    0 -0.16777010357E+03  0.54243475824E+02  0.39095075028E+03  0.47279239785E+03  0.19900000000E+03 0.  0.
   -5000001    1    1    2    0    0  0.16777010357E+03 -0.54243475824E+02  0.71352002181E+03  0.76144663887E+03  0.19900000000E+03 0.  0.
<mgrwt>
<rscale>  0 0.55089955E+03</rscale>
<asrwt>0</asrwt>
<pdfrwt beam="1">  1        2 0.16705069E+00 0.55089955E+03</pdfrwt>
<pdfrwt beam="2">  1       -2 0.92691625E-02 0.55089955E+03</pdfrwt>
<totfact> 0.17399313E+03</totfact>
</mgrwt>
</event>
<event>
 4    1  0.5131465E-005  0.5446438E+03  0.7818608E-02  0.1002741E+00
          2   -1    0    0  501    0  0.00000000000E+00  0.00000000000E+00  0.10809196076E+04  0.10809196076E+04  0.25500000000E-02 0.  1.
         -2   -1    0    0    0  501 -0.00000000000E+00 -0.00000000000E+00 -0.68607526651E+02  0.68607526699E+02  0.25500000000E-02 0. -1.
    5000001    1    1    2    0    0  0.12213673262E+03 -0.36295601561E+02  0.79185620954E+03  0.82636070135E+03  0.19900000000E+03 0.  0.
   -5000001    1    1    2    0    0 -0.12213673262E+03  0.36295601561E+02  0.22045587140E+03  0.32316643295E+03  0.19900000000E+03 0.  0.
<mgrwt>
<rscale>  0 0.54464381E+03</rscale>
<asrwt>0</asrwt>
<pdfrwt beam="1">  1        2 0.15441708E+00 0.54464381E+03</pdfrwt>
<pdfrwt beam="2">  1       -2 0.98010758E-02 0.54464381E+03</pdfrwt>
<totfact> 0.17877020E+03</totfact>
</mgrwt>
</event>
<event>
 4    1  0.5131465E-005  0.4503109E+03  0.7818608E-02  0.1027629E+00
         -2   -1    0    0    0  501 -0.00000000000E+00  0.00000000000E+00  0.81213707446E+02  0.81213707486E+02  0.25500000000E-02 0. -1.
          2   -1    0    0  501    0  0.00000000000E+00 -0.00000000000E+00 -0.62421693344E+03  0.62421693345E+03  0.25500000000E-02 0.  1.
    5000001    1    1    2    0    0 -0.81934721512E+02  0.64283961445E+02 -0.24681950418E+03  0.33371633753E+03  0.19900000000E+03 0.  0.
   -5000001    1    1    2    0    0  0.81934721512E+02 -0.64283961445E+02 -0.29618372182E+03  0.37171430341E+03  0.19900000000E+03 0.  0.
<mgrwt>
<rscale>  0 0.45031088E+03</rscale>
<asrwt>0</asrwt>
<pdfrwt beam="1">  1        2 0.89173845E-01 0.45031088E+03</pdfrwt>
<pdfrwt beam="2">  1       -2 0.11601959E-01 0.45031088E+03</pdfrwt>
<totfact> 0.27633897E+03</totfact>
</mgrwt>
</event>
<event>
 4    1  0.5131465E-005  0.8974525E+03  0.7818608E-02  0.9428772E-01
          2   -1    0    0  501    0  0.00000000000E+00  0.00000000000E+00  0.64933238450E+03  0.64933238451E+03  0.25500000000E-02 0.  1.
         -2   -1    0    0    0  501 -0.00000000000E+00 -0.00000000000E+00 -0.31009579943E+03  0.31009579944E+03  0.25500000000E-02 0. -1.
    5000001    1    1    2    0    0 -0.13518987662E+03 -0.32869657032E+03  0.37086392099E+03  0.55087093404E+03  0.19900000000E+03 0.  0.
   -5000001    1    1    2    0    0  0.13518987662E+03  0.32869657032E+03 -0.31627335922E+02  0.40855724991E+03  0.19900000000E+03 0.  0.
<mgrwt>
<rscale>  0 0.89745249E+03</rscale>
<asrwt>0</asrwt>
<pdfrwt beam="1">  1        2 0.92761769E-01 0.89745249E+03</pdfrwt>
<pdfrwt beam="2">  1       -2 0.44299400E-01 0.89745249E+03</pdfrwt>
<totfact> 0.23899256E+02</totfact>
</mgrwt>
</event>
<event>
 4    1  0.5131465E-005  0.5575437E+03  0.7818608E-02  0.9997628E-01
          2   -1    0    0  501    0  0.00000000000E+00  0.00000000000E+00  0.89525225946E+03  0.89525225947E+03  0.25500000000E-02 0.  1.
         -2   -1    0    0    0  501 -0.00000000000E+00 -0.00000000000E+00 -0.86806526261E+02  0.86806526298E+02  0.25500000000E-02 0. -1.
    5000001    1    1    2    0    0  0.15178061937E+03 -0.16915616108E+02  0.61842884104E+03  0.66736700991E+03  0.19900000000E+03 0.  0.
   -5000001    1    1    2    0    0 -0.15178061937E+03  0.16915616108E+02  0.19001689216E+03  0.31469177585E+03  0.19900000000E+03 0.  0.
<mgrwt>
<rscale>  0 0.55754368E+03</rscale>
<asrwt>0</asrwt>
<pdfrwt beam="1">  1        2 0.12789318E+00 0.55754368E+03</pdfrwt>
<pdfrwt beam="2">  1       -2 0.12400932E-01 0.55754368E+03</pdfrwt>
<totfact> 0.15822877E+03</totfact>
</mgrwt>
</event>
<event>
 4    1  0.5131465E-005  0.1322248E+04  0.7818608E-02  0.9012106E-01
          2   -1    0    0  501    0  0.00000000000E+00  0.00000000000E+00  0.20377204647E+04  0.20377204647E+04  0.25500000000E-02 0.  1.
         -2   -1    0    0    0  501 -0.00000000000E+00 -0.00000000000E+00 -0.21449699473E+03  0.21449699475E+03  0.25500000000E-02 0. -1.
    5000001    1    1    2    0    0  0.54506344881E+03 -0.63993477267E+02  0.14401766767E+04  0.15539945909E+04  0.19900000000E+03 0.  0.
   -5000001    1    1    2    0    0 -0.54506344881E+03  0.63993477267E+02  0.38304679325E+03  0.69822286856E+03  0.19900000000E+03 0.  0.
<mgrwt>
<rscale>  0 0.13222480E+04</rscale>
<asrwt>0</asrwt>
<pdfrwt beam="1">  1        2 0.29110293E+00 0.13222480E+04</pdfrwt>
<pdfrwt beam="2">  1       -2 0.30642427E-01 0.13222480E+04</pdfrwt>
<totfact> 0.74061217E+01</totfact>
</mgrwt>
</event>
<event>
 4    1  0.5131465E-005  0.6389066E+03  0.7818608E-02  0.9827821E-01
          2   -1    0    0  501    0  0.00000000000E+00  0.00000000000E+00  0.25737195658E+04  0.25737195658E+04  0.25500000000E-02 0.  1.
         -2   -1    0    0    0  501 -0.00000000000E+00 -0.00000000000E+00 -0.39650949959E+02  0.39650950041E+02  0.25500000000E-02 0. -1.
    5000001    1    1    2    0    0  0.43847700475E+02 -0.23732249640E+03  0.10017948090E+04  0.10494943675E+04  0.19900000000E+03 0.  0.
   -5000001    1    1    2    0    0 -0.43847700475E+02  0.23732249640E+03  0.15322738069E+04  0.15638761484E+04  0.19900000000E+03 0.  0.
<mgrwt>
<rscale>  0 0.63890665E+03</rscale>
<asrwt>0</asrwt>
<pdfrwt beam="1">  1        2 0.36767417E+00 0.63890665E+03</pdfrwt>
<pdfrwt beam="2">  1       -2 0.56644223E-02 0.63890665E+03</pdfrwt>
<totfact> 0.71442384E+02</totfact>
</mgrwt>
</event>
<event>
 4    1  0.5131465E-005  0.9103256E+03  0.7818608E-02  0.9412765E-01
          2   -1    0    0  501    0  0.00000000000E+00  0.00000000000E+00  0.55237960311E+03  0.55237960311E+03  0.25500000000E-02 0.  1.
         -2   -1    0    0    0  501 -0.00000000000E+00 -0.00000000000E+00 -0.37505580720E+03  0.37505580721E+03  0.25500000000E-02 0. -1.
    5000001    1    1    2    0    0 -0.37866991118E+02 -0.23594451490E+03  0.42727678959E+03  0.52846019533E+03  0.19900000000E+03 0.  0.
   -5000001    1    1    2    0    0  0.37866991118E+02  0.23594451490E+03 -0.24995299368E+03  0.39897521499E+03  0.19900000000E+03 0.  0.
<mgrwt>
<rscale>  0 0.91032561E+03</rscale>
<asrwt>0</asrwt>
<pdfrwt beam="1">  1        2 0.78911371E-01 0.91032561E+03</pdfrwt>
<pdfrwt beam="2">  1       -2 0.53579401E-01 0.91032561E+03</pdfrwt>
<totfact> 0.19688905E+02</totfact>
</mgrwt>
</event>
<event>
 4    1  0.5131465E-005  0.4468869E+03  0.7818608E-02  0.1028654E+00
         -2   -1    0    0    0  501 -0.00000000000E+00  0.00000000000E+00  0.15417776253E+02  0.15417776464E+02  0.25500000000E-02 0. -1.
          2   -1    0    0  501    0  0.00000000000E+00 -0.00000000000E+00 -0.32382734298E+04  0.32382734298E+04  0.25500000000E-02 0.  1.
    5000001    1    1    2    0    0 -0.47249670224E+01  0.10143287067E+03 -0.16396477965E+04  0.16547981294E+04  0.19900000000E+03 0.  0.
   -5000001    1    1    2    0    0  0.47249670224E+01 -0.10143287067E+03 -0.15832078570E+04  0.15988930768E+04  0.19900000000E+03 0.  0.
<mgrwt>
<rscale>  0 0.44688690E+03</rscale>
<asrwt>0</asrwt>
<pdfrwt beam="1">  1        2 0.46261006E+00 0.44688690E+03</pdfrwt>
<pdfrwt beam="2">  1       -2 0.22025415E-02 0.44688690E+03</pdfrwt>
<totfact> 0.13527145E+03</totfact>
</mgrwt>
</event>
<event>
 4    1  0.5131465E-005  0.8462153E+03  0.7818608E-02  0.9495431E-01
         -2   -1    0    0    0  501 -0.00000000000E+00  0.00000000000E+00  0.49521344293E+03  0.49521344294E+03  0.25500000000E-02 0. -1.
          2   -1    0    0  501    0  0.00000000000E+00 -0.00000000000E+00 -0.36150088383E+03  0.36150088384E+03  0.25500000000E-02 0.  1.
    5000001    1    1    2    0    0  0.34591422620E+03 -0.88406405752E+02  0.17751358204E+03  0.44562811432E+03  0.19900000000E+03 0.  0.
   -5000001    1    1    2    0    0 -0.34591422620E+03  0.88406405752E+02 -0.43801022944E+02  0.41108621246E+03  0.19900000000E+03 0.  0.
<mgrwt>
<rscale>  0 0.84621533E+03</rscale>
<asrwt>0</asrwt>
<pdfrwt beam="1">  1        2 0.51642983E-01 0.84621533E+03</pdfrwt>
<pdfrwt beam="2">  1       -2 0.70744778E-01 0.84621533E+03</pdfrwt>
<totfact> 0.17697510E+02</totfact>
</mgrwt>
</event>
<event>
 4    1  0.5131465E-005  0.6111228E+03  0.7818608E-02  0.9882595E-01
         -2   -1    0    0    0  501 -0.00000000000E+00  0.00000000000E+00  0.15851373028E+03  0.15851373030E+03  0.25500000000E-02 0. -1.
          2   -1    0    0  501    0  0.00000000000E+00 -0.00000000000E+00 -0.58902012443E+03  0.58902012444E+03  0.25500000000E-02 0.  1.
    5000001    1    1    2    0    0  0.21080877025E+03 -0.58250939826E+02 -0.30947454793E+03  0.42802921094E+03  0.19900000000E+03 0.  0.
   -5000001    1    1    2    0    0 -0.21080877025E+03  0.58250939826E+02 -0.12103184623E+03  0.31950464379E+03  0.19900000000E+03 0.  0.
<mgrwt>
<rscale>  0 0.61112283E+03</rscale>
<asrwt>0</asrwt>
<pdfrwt beam="1">  1        2 0.84145731E-01 0.61112283E+03</pdfrwt>
<pdfrwt beam="2">  1       -2 0.22644819E-01 0.61112283E+03</pdfrwt>
<totfact> 0.95208455E+02</totfact>
</mgrwt>
</event>
<event>
 4    1  0.5131465E-005  0.5366206E+03  0.7818608E-02  0.1004639E+00
         -2   -1    0    0    0  501 -0.00000000000E+00  0.00000000000E+00  0.87720136614E+03  0.87720136614E+03  0.25500000000E-02 0. -1.
          2   -1    0    0  501    0  0.00000000000E+00 -0.00000000000E+00 -0.82068302555E+02  0.82068302594E+02  0.25500000000E-02 0.  1.
    5000001    1    1    2    0    0 -0.62479909733E+01 -0.16166150280E+03  0.25662887808E+03  0.36281243080E+03  0.19900000000E+03 0.  0.
   -5000001    1    1    2    0    0  0.62479909733E+01  0.16166150280E+03  0.53850418550E+03  0.59645723793E+03  0.19900000000E+03 0.  0.
<mgrwt>
<rscale>  0 0.53662064E+03</rscale>
<asrwt>0</asrwt>
<pdfrwt beam="1">  1        2 0.11724044E-01 0.53662064E+03</pdfrwt>
<pdfrwt beam="2">  1       -2 0.12531447E+00 0.53662064E+03</pdfrwt>
<totfact> 0.26258893E+02</totfact>
</mgrwt>
</event>
<event>
 4    1  0.5131465E-005  0.6206661E+03  0.7818608E-02  0.9863434E-01
         -2   -1    0    0    0  501 -0.00000000000E+00  0.00000000000E+00  0.99095181943E+02  0.99095181976E+02  0.25500000000E-02 0. -1.
          2   -1    0    0  501    0  0.00000000000E+00 -0.00000000000E+00 -0.97185968539E+03  0.97185968539E+03  0.25500000000E-02 0.  1.
    5000001    1    1    2    0    0 -0.13205237553E+01 -0.84949098381E+02 -0.52532766993E+02  0.22266293968E+03  0.19900000000E+03 0.  0.
   -5000001    1    1    2    0    0  0.13205237553E+01  0.84949098381E+02 -0.82023173645E+03  0.84829192769E+03  0.19900000000E+03 0.  0.
<mgrwt>
<rscale>  0 0.62066613E+03</rscale>
<asrwt>0</asrwt>
<pdfrwt beam="1">  1        2 0.13883709E+00 0.62066613E+03</pdfrwt>
<pdfrwt beam="2">  1       -2 0.14156455E-01 0.62066613E+03</pdfrwt>
<totfact> 0.11346302E+03</totfact>
</mgrwt>
</event>
<event>
 4    1  0.5131465E-005  0.1036209E+04  0.7818608E-02  0.9269699E-01
         -2   -1    0    0    0  501 -0.00000000000E+00  0.00000000000E+00  0.14189664230E+03  0.14189664232E+03  0.25500000000E-02 0. -1.
          2   -1    0    0  501    0  0.00000000000E+00 -0.00000000000E+00 -0.18917467894E+04  0.18917467894E+04  0.25500000000E-02 0.  1.
    5000001    1    1    2    0    0 -0.44739968420E+03 -0.15054213464E+03 -0.72287764724E+03  0.88599238405E+03  0.19900000000E+03 0.  0.
   -5000001    1    1    2    0    0  0.44739968420E+03  0.15054213464E+03 -0.10269724998E+04  0.11476510476E+04  0.19900000000E+03 0.  0.
<mgrwt>
<rscale>  0 0.10362095E+04</rscale>
<asrwt>0</asrwt>
<pdfrwt beam="1">  1        2 0.27024953E+00 0.10362095E+04</pdfrwt>
<pdfrwt beam="2">  1       -2 0.20270950E-01 0.10362095E+04</pdfrwt>
<totfact> 0.18982401E+02</totfact>
</mgrwt>
</event>
<event>
 4    1  0.5131465E-005  0.1427639E+04  0.7818608E-02  0.8934052E-01
          2   -1    0    0  501    0  0.00000000000E+00  0.00000000000E+00  0.29252129713E+04  0.29252129713E+04  0.25500000000E-02 0.  1.
         -2   -1    0    0    0  501 -0.00000000000E+00 -0.00000000000E+00 -0.17418842617E+03  0.17418842619E+03  0.25500000000E-02 0. -1.
    5000001    1    1    2    0    0 -0.50567175437E+03  0.46144609547E+03  0.12972110946E+04  0.14802006777E+04  0.19900000000E+03 0.  0.
   -5000001    1    1    2    0    0  0.50567175437E+03 -0.46144609547E+03  0.14538134505E+04  0.16192007198E+04  0.19900000000E+03 0.  0.
<mgrwt>
<rscale>  0 0.14276390E+04</rscale>
<asrwt>0</asrwt>
<pdfrwt beam="1">  1        2 0.41788758E+00 0.14276390E+04</pdfrwt>
<pdfrwt beam="2">  1       -2 0.24884060E-01 0.14276390E+04</pdfrwt>
<totfact> 0.36726680E+01</totfact>
</mgrwt>
</event>
<event>
 4    1  0.5131465E-005  0.8394104E+03  0.7818608E-02  0.9504661E-01
          2   -1    0    0  501    0  0.00000000000E+00  0.00000000000E+00  0.35629796990E+03  0.35629796991E+03  0.25500000000E-02 0.  1.
         -2   -1    0    0    0  501 -0.00000000000E+00 -0.00000000000E+00 -0.49439642077E+03  0.49439642078E+03  0.25500000000E-02 0. -1.
    5000001    1    1    2    0    0 -0.32804507272E+03 -0.17010123528E+03 -0.67169274879E+02  0.42504201141E+03  0.19900000000E+03 0.  0.
   -5000001    1    1    2    0    0  0.32804507272E+03  0.17010123528E+03 -0.70929175995E+02  0.42565237928E+03  0.19900000000E+03 0.  0.
<mgrwt>
<rscale>  0 0.83941037E+03</rscale>
<asrwt>0</asrwt>
<pdfrwt beam="1">  1        2 0.50899710E-01 0.83941037E+03</pdfrwt>
<pdfrwt beam="2">  1       -2 0.70628059E-01 0.83941037E+03</pdfrwt>
<totfact> 0.18055759E+02</totfact>
</mgrwt>
</event>
<event>
 4    1  0.5131465E-005  0.4850101E+03  0.7818608E-02  0.1017767E+00
         -2   -1    0    0    0  501 -0.00000000000E+00  0.00000000000E+00  0.68769839676E+03  0.68769839677E+03  0.25500000000E-02 0. -1.
          2   -1    0    0  501    0  0.00000000000E+00 -0.00000000000E+00 -0.85515260222E+02  0.85515260260E+02  0.25500000000E-02 0.  1.
    5000001    1    1    2    0    0  0.11108490684E+02  0.53407551783E+02  0.50420280370E+03  0.54479099883E+03  0.19900000000E+03 0.  0.
   -5000001    1    1    2    0    0 -0.11108490684E+02 -0.53407551783E+02  0.97980332845E+02  0.22842265820E+03  0.19900000000E+03 0.  0.
<mgrwt>
<rscale>  0 0.48501013E+03</rscale>
<asrwt>0</asrwt>
<pdfrwt beam="1">  1        2 0.12216467E-01 0.48501013E+03</pdfrwt>
<pdfrwt beam="2">  1       -2 0.98242622E-01 0.48501013E+03</pdfrwt>
<totfact> 0.44913542E+02</totfact>
</mgrwt>
</event>
<event>
 4    1  0.5131465E-005  0.1210282E+04  0.7818608E-02  0.9103904E-01
         -2   -1    0    0    0  501 -0.00000000000E+00  0.00000000000E+00  0.21225594047E+03  0.21225594049E+03  0.25500000000E-02 0. -1.
          2   -1    0    0  501    0  0.00000000000E+00 -0.00000000000E+00 -0.17252562165E+04  0.17252562165E+04  0.25500000000E-02 0.  1.
    5000001    1    1    2    0    0  0.18235003286E+03 -0.18619355891E+03  0.57707548470E+02  0.33294254311E+03  0.19900000000E+03 0.  0.
   -5000001    1    1    2    0    0 -0.18235003286E+03  0.18619355891E+03 -0.15707078245E+04  0.16045696139E+04  0.19900000000E+03 0.  0.
<mgrwt>
<rscale>  0 0.12102824E+04</rscale>
<asrwt>0</asrwt>
<pdfrwt beam="1">  1        2 0.24646517E+00 0.12102824E+04</pdfrwt>
<pdfrwt beam="2">  1       -2 0.30322278E-01 0.12102824E+04</pdfrwt>
<totfact> 0.11024001E+02</totfact>
</mgrwt>
</event>
<event>
 4    1  0.5131465E-005  0.5735498E+03  0.7818608E-02  0.9961854E-01
          2   -1    0    0  501    0  0.00000000000E+00  0.00000000000E+00  0.70672976634E+03  0.70672976634E+03  0.25500000000E-02 0.  1.
         -2   -1    0    0    0  501 -0.00000000000E+00 -0.00000000000E+00 -0.11636675776E+03  0.11636675779E+03  0.25500000000E-02 0. -1.
    5000001    1    1    2    0    0 -0.16975464713E+03  0.51967488339E+02  0.14383824512E+03  0.30299785614E+03  0.19900000000E+03 0.  0.
   -5000001    1    1    2    0    0  0.16975464713E+03 -0.51967488339E+02  0.44652476346E+03  0.52009866799E+03  0.19900000000E+03 0.  0.
<mgrwt>
<rscale>  0 0.57354983E+03</rscale>
<asrwt>0</asrwt>
<pdfrwt beam="1">  1        2 0.10096139E+00 0.57354983E+03</pdfrwt>
<pdfrwt beam="2">  1       -2 0.16623823E-01 0.57354983E+03</pdfrwt>
<totfact> 0.13092505E+03</totfact>
</mgrwt>
</event>
<event>
 4    1  0.5131465E-005  0.6001686E+03  0.7818608E-02  0.9905056E-01
          2   -1    0    0  501    0  0.00000000000E+00  0.00000000000E+00  0.57179232267E+03  0.57179232268E+03  0.25500000000E-02 0.  1.
         -2   -1    0    0    0  501 -0.00000000000E+00 -0.00000000000E+00 -0.15748829783E+03  0.15748829785E+03  0.25500000000E-02 0. -1.
    5000001    1    1    2    0    0 -0.18366844411E+03  0.10143019378E+03  0.10973391429E+03  0.30929712821E+03  0.19900000000E+03 0.  0.
   -5000001    1    1    2    0    0  0.18366844411E+03 -0.10143019378E+03  0.30457011056E+03  0.41998349232E+03  0.19900000000E+03 0.  0.
<mgrwt>
<rscale>  0 0.60016864E+03</rscale>
<asrwt>0</asrwt>
<pdfrwt beam="1">  1        2 0.81684617E-01 0.60016864E+03</pdfrwt>
<pdfrwt beam="2">  1       -2 0.22498328E-01 0.60016864E+03</pdfrwt>
<totfact> 0.99724506E+02</totfact>
</mgrwt>
</event>
<event>
 4    1  0.5131465E-005  0.6474356E+03  0.7818608E-02  0.9811603E-01
         -2   -1    0    0    0  501 -0.00000000000E+00  0.00000000000E+00  0.11484253776E+03  0.11484253779E+03  0.25500000000E-02 0. -1.
          2   -1    0    0  501    0  0.00000000000E+00 -0.00000000000E+00 -0.91249479992E+03  0.91249479992E+03  0.25500000000E-02 0.  1.
    5000001    1    1    2    0    0 -0.25865299907E+02 -0.17851273174E+03 -0.68557433296E+03  0.73630766338E+03  0.19900000000E+03 0.  0.
   -5000001    1    1    2    0    0  0.25865299907E+02  0.17851273174E+03 -0.11207792919E+03  0.29102967434E+03  0.19900000000E+03 0.  0.
<mgrwt>
<rscale>  0 0.64743561E+03</rscale>
<asrwt>0</asrwt>
<pdfrwt beam="1">  1        2 0.13035640E+00 0.64743561E+03</pdfrwt>
<pdfrwt beam="2">  1       -2 0.16406077E-01 0.64743561E+03</pdfrwt>
<totfact> 0.96353093E+02</totfact>
</mgrwt>
</event>
<event>
 4    1  0.5131465E-005  0.7009842E+03  0.7818608E-02  0.9715551E-01
         -2   -1    0    0    0  501 -0.00000000000E+00  0.00000000000E+00  0.19070744680E+03  0.19070744682E+03  0.25500000000E-02 0. -1.
          2   -1    0    0  501    0  0.00000000000E+00 -0.00000000000E+00 -0.64415269993E+03  0.64415269994E+03  0.25500000000E-02 0.  1.
    5000001    1    1    2    0    0  0.17607482479E+03 -0.12990310626E+03 -0.45069882888E+03  0.53908032360E+03  0.19900000000E+03 0.  0.
   -5000001    1    1    2    0    0 -0.17607482479E+03  0.12990310626E+03 -0.27464242525E+01  0.29577982316E+03  0.19900000000E+03 0.  0.
<mgrwt>
<rscale>  0 0.70098421E+03</rscale>
<asrwt>0</asrwt>
<pdfrwt beam="1">  1        2 0.92021813E-01 0.70098421E+03</pdfrwt>
<pdfrwt beam="2">  1       -2 0.27243921E-01 0.70098421E+03</pdfrwt>
<totfact> 0.61296083E+02</totfact>
</mgrwt>
</event>
<event>
 4    1  0.5131465E-005  0.4641623E+03  0.7818608E-02  0.1023581E+00
          2   -1    0    0  501    0  0.00000000000E+00  0.00000000000E+00  0.42150594217E+04  0.42150594217E+04  0.25500000000E-02 0.  1.
         -2   -1    0    0    0  501 -0.00000000000E+00 -0.00000000000E+00 -0.12778389514E+02  0.12778389769E+02  0.25500000000E-02 0. -1.
    5000001    1    1    2    0    0 -0.37910282401E+02 -0.46501058040E+02  0.30416216860E+04  0.30487149782E+04  0.19900000000E+03 0.  0.
   -5000001    1    1    2    0    0  0.37910282401E+02  0.46501058040E+02  0.11606593462E+04  0.11791228332E+04  0.19900000000E+03 0.  0.
<mgrwt>
<rscale>  0 0.46416235E+03</rscale>
<asrwt>0</asrwt>
<pdfrwt beam="1">  1        2 0.60215060E+00 0.46416235E+03</pdfrwt>
<pdfrwt beam="2">  1       -2 0.18254865E-02 0.46416235E+03</pdfrwt>
<totfact> 0.44000040E+02</totfact>
</mgrwt>
</event>
<event>
 4    1  0.5131465E-005  0.6675138E+03  0.7818608E-02  0.9774460E-01
         -2   -1    0    0    0  501 -0.00000000000E+00  0.00000000000E+00  0.10485962665E+03  0.10485962668E+03  0.25500000000E-02 0. -1.
          2   -1    0    0  501    0  0.00000000000E+00 -0.00000000000E+00 -0.10623123844E+04  0.10623123844E+04  0.25500000000E-02 0.  1.
    5000001    1    1    2    0    0 -0.16111578904E+03 -0.13982227077E+03 -0.19524712978E+03  0.35104274180E+03  0.19900000000E+03 0.  0.
   -5000001    1    1    2    0    0  0.16111578904E+03  0.13982227077E+03 -0.76220562799E+03  0.81612926931E+03  0.19900000000E+03 0.  0.
<mgrwt>
<rscale>  0 0.66751384E+03</rscale>
<asrwt>0</asrwt>
<pdfrwt beam="1">  1        2 0.15175891E+00 0.66751384E+03</pdfrwt>
<pdfrwt beam="2">  1       -2 0.14979947E-01 0.66751384E+03</pdfrwt>
<totfact> 0.90829623E+02</totfact>
</mgrwt>
</event>
<event>
 4    1  0.5131465E-005  0.4216085E+03  0.7818608E-02  0.1036544E+00
          2   -1    0    0  501    0  0.00000000000E+00  0.00000000000E+00  0.91718555085E+03  0.91718555086E+03  0.25500000000E-02 0.  1.
         -2   -1    0    0    0  501 -0.00000000000E+00 -0.00000000000E+00 -0.48450854690E+02  0.48450854757E+02  0.25500000000E-02 0. -1.
    5000001    1    1    2    0    0  0.63849569012E+01  0.58833466677E+02  0.35067410690E+03  0.40752358671E+03  0.19900000000E+03 0.  0.
   -5000001    1    1    2    0    0 -0.63849569012E+01 -0.58833466677E+02  0.51806058926E+03  0.55811281890E+03  0.19900000000E+03 0.  0.
<mgrwt>
<rscale>  0 0.42160846E+03</rscale>
<asrwt>0</asrwt>
<pdfrwt beam="1">  1        2 0.13102651E+00 0.42160846E+03</pdfrwt>
<pdfrwt beam="2">  1       -2 0.69215506E-02 0.42160846E+03</pdfrwt>
<totfact> 0.39025478E+03</totfact>
</mgrwt>
</event>
<event>
 4    1  0.5131465E-005  0.6597823E+03  0.7818608E-02  0.9788595E-01
         -2   -1    0    0    0  501 -0.00000000000E+00  0.00000000000E+00  0.13206670551E+03  0.13206670554E+03  0.25500000000E-02 0. -1.
          2   -1    0    0  501    0  0.00000000000E+00 -0.00000000000E+00 -0.82403937485E+03  0.82403937485E+03  0.25500000000E-02 0.  1.
    5000001    1    1    2    0    0  0.16874847055E+03  0.17429678440E+03 -0.49356767571E+03  0.58486363014E+03  0.19900000000E+03 0.  0.
   -5000001    1    1    2    0    0 -0.16874847055E+03 -0.17429678440E+03 -0.19840499363E+03  0.37124245024E+03  0.19900000000E+03 0.  0.
<mgrwt>
<rscale>  0 0.65978228E+03</rscale>
<asrwt>0</asrwt>
<pdfrwt beam="1">  1        2 0.11771991E+00 0.65978228E+03</pdfrwt>
<pdfrwt beam="2">  1       -2 0.18866673E-01 0.65978228E+03</pdfrwt>
<totfact> 0.86712168E+02</totfact>
</mgrwt>
</event>
<event>
 4    1  0.5131465E-005  0.5683560E+03  0.7818608E-02  0.9973323E-01
         -2   -1    0    0    0  501 -0.00000000000E+00  0.00000000000E+00  0.11650844658E+03  0.11650844661E+03  0.25500000000E-02 0. -1.
          2   -1    0    0  501    0  0.00000000000E+00 -0.00000000000E+00 -0.69314399414E+03  0.69314399414E+03  0.25500000000E-02 0.  1.
    5000001    1    1    2    0    0 -0.15040074560E+03  0.13266982736E+03 -0.33186486702E+03  0.43584051823E+03  0.19900000000E+03 0.  0.
   -5000001    1    1    2    0    0  0.15040074560E+03 -0.13266982736E+03 -0.24477068053E+03  0.37381192252E+03  0.19900000000E+03 0.  0.
<mgrwt>
<rscale>  0 0.56835598E+03</rscale>
<asrwt>0</asrwt>
<pdfrwt beam="1">  1        2 0.99020568E-01 0.56835598E+03</pdfrwt>
<pdfrwt beam="2">  1       -2 0.16644064E-01 0.56835598E+03</pdfrwt>
<totfact> 0.13379596E+03</totfact>
</mgrwt>
</event>
<event>
 4    1  0.5131465E-005  0.5859061E+03  0.7818608E-02  0.9935086E-01
         -2   -1    0    0    0  501 -0.00000000000E+00  0.00000000000E+00  0.98635761548E+02  0.98635761581E+02  0.25500000000E-02 0. -1.
          2   -1    0    0  501    0  0.00000000000E+00 -0.00000000000E+00 -0.87008504329E+03  0.87008504329E+03  0.25500000000E-02 0.  1.
    5000001    1    1    2    0    0 -0.79072118676E+02 -0.12273432345E+03 -0.12480395895E+03  0.27657393636E+03  0.19900000000E+03 0.  0.
   -5000001    1    1    2    0    0  0.79072118676E+02  0.12273432345E+03 -0.64664532279E+03  0.69214686851E+03  0.19900000000E+03 0.  0.
<mgrwt>
<rscale>  0 0.58590614E+03</rscale>
<asrwt>0</asrwt>
<pdfrwt beam="1">  1        2 0.12429786E+00 0.58590614E+03</pdfrwt>
<pdfrwt beam="2">  1       -2 0.14090824E-01 0.58590614E+03</pdfrwt>
<totfact> 0.13287028E+03</totfact>
</mgrwt>
</event>
<event>
 4    1  0.5131465E-005  0.5167276E+03  0.7818608E-02  0.1009503E+00
          2   -1    0    0  501    0  0.00000000000E+00  0.00000000000E+00  0.91386602726E+03  0.91386602726E+03  0.25500000000E-02 0.  1.
         -2   -1    0    0    0  501 -0.00000000000E+00 -0.00000000000E+00 -0.73043362281E+02  0.73043362325E+02  0.25500000000E-02 0. -1.
    5000001    1    1    2    0    0  0.10074277758E+03  0.73567739044E+02  0.62602335864E+03  0.66863111281E+03  0.19900000000E+03 0.  0.
   -5000001    1    1    2    0    0 -0.10074277758E+03 -0.73567739044E+02  0.21479930634E+03  0.31827827677E+03  0.19900000000E+03 0.  0.
<mgrwt>
<rscale>  0 0.51672758E+03</rscale>
<asrwt>0</asrwt>
<pdfrwt beam="1">  1        2 0.13055228E+00 0.51672758E+03</pdfrwt>
<pdfrwt beam="2">  1       -2 0.10434767E-01 0.51672758E+03</pdfrwt>
<totfact> 0.20418569E+03</totfact>
</mgrwt>
</event>
<event>
 4    1  0.5131465E-005  0.6803638E+03  0.7818608E-02  0.9751415E-01
         -2   -1    0    0    0  501 -0.00000000000E+00  0.00000000000E+00  0.14252078259E+04  0.14252078259E+04  0.25500000000E-02 0. -1.
          2   -1    0    0  501    0  0.00000000000E+00 -0.00000000000E+00 -0.81197801378E+02  0.81197801418E+02  0.25500000000E-02 0.  1.
    5000001    1    1    2    0    0  0.63543682428E+02  0.18236815704E+03  0.11082861993E+04  0.11424514186E+04  0.19900000000E+03 0.  0.
   -5000001    1    1    2    0    0 -0.63543682428E+02 -0.18236815704E+03  0.23572382524E+03  0.36395420875E+03  0.19900000000E+03 0.  0.
<mgrwt>
<rscale>  0 0.68036385E+03</rscale>
<asrwt>0</asrwt>
<pdfrwt beam="1">  1        2 0.11599686E-01 0.68036385E+03</pdfrwt>
<pdfrwt beam="2">  1       -2 0.20360112E+00 0.68036385E+03</pdfrwt>
<totfact> 0.70961838E+01</totfact>
</mgrwt>
</event>
<event>
 4    1  0.5131465E-005  0.5734045E+03  0.7818608E-02  0.9962173E-01
          2   -1    0    0  501    0  0.00000000000E+00  0.00000000000E+00  0.23353459714E+04  0.23353459714E+04  0.25500000000E-02 0.  1.
         -2   -1    0    0    0  501 -0.00000000000E+00 -0.00000000000E+00 -0.35197433841E+02  0.35197433933E+02  0.25500000000E-02 0. -1.
    5000001    1    1    2    0    0  0.36109673030E+02 -0.18259765247E+03  0.15187188875E+04  0.15429691735E+04  0.19900000000E+03 0.  0.
   -5000001    1    1    2    0    0 -0.36109673030E+02  0.18259765247E+03  0.78142965003E+03  0.82757423179E+03  0.19900000000E+03 0.  0.
<mgrwt>
<rscale>  0 0.57340452E+03</rscale>
<asrwt>0</asrwt>
<pdfrwt beam="1">  1        2 0.33362081E+00 0.57340452E+03</pdfrwt>
<pdfrwt beam="2">  1       -2 0.50282055E-02 0.57340452E+03</pdfrwt>
<totfact> 0.11442119E+03</totfact>
</mgrwt>
</event>
<event>
 4    1  0.5131465E-005  0.5718420E+03  0.7818608E-02  0.9965611E-01
          2   -1    0    0  501    0  0.00000000000E+00  0.00000000000E+00  0.59014063375E+03  0.59014063376E+03  0.25500000000E-02 0.  1.
         -2   -1    0    0    0  501 -0.00000000000E+00 -0.00000000000E+00 -0.13852767163E+03  0.13852767166E+03  0.25500000000E-02 0. -1.
    5000001    1    1    2    0    0 -0.17582206141E+03 -0.88628741979E+02  0.29990326428E+03  0.41025774717E+03  0.19900000000E+03 0.  0.
   -5000001    1    1    2    0    0  0.17582206141E+03  0.88628741979E+02  0.15170969784E+03  0.31841055825E+03  0.19900000000E+03 0.  0.
<mgrwt>
<rscale>  0 0.57184196E+03</rscale>
<asrwt>0</asrwt>
<pdfrwt beam="1">  1        2 0.84305806E-01 0.57184196E+03</pdfrwt>
<pdfrwt beam="2">  1       -2 0.19789667E-01 0.57184196E+03</pdfrwt>
<totfact> 0.12038619E+03</totfact>
</mgrwt>
</event>
<event>
 4    1  0.5131465E-005  0.4943224E+03  0.7818608E-02  0.1015272E+00
         -2   -1    0    0    0  501 -0.00000000000E+00  0.00000000000E+00  0.57501246274E+02  0.57501246331E+02  0.25500000000E-02 0.  1.
          2   -1    0    0  501    0  0.00000000000E+00 -0.00000000000E+00 -0.10623884023E+04  0.10623884023E+04  0.25500000000E-02 0. -1.
    5000001    1    1    2    0    0 -0.95477336124E+01  0.14602414418E+03 -0.52185926840E+03  0.57736669970E+03  0.19900000000E+03 0.  0.
   -5000001    1    1    2    0    0  0.95477336124E+01 -0.14602414418E+03 -0.48302788763E+03  0.54252294895E+03  0.19900000000E+03 0.  0.
<mgrwt>
<rscale>  0 0.49432239E+03</rscale>
<asrwt>0</asrwt>
<pdfrwt beam="1">  1        2 0.15176976E+00 0.49432239E+03</pdfrwt>
<pdfrwt beam="2">  1       -2 0.82144644E-02 0.49432239E+03</pdfrwt>
<totfact> 0.24333857E+03</totfact>
</mgrwt>
</event>
<event>
 4    1  0.5131465E-005  0.7687317E+03  0.7818608E-02  0.9606413E-01
         -2   -1    0    0    0  501 -0.00000000000E+00  0.00000000000E+00  0.75180438313E+03  0.75180438313E+03  0.25500000000E-02 0.  1.
          2   -1    0    0  501    0  0.00000000000E+00 -0.00000000000E+00 -0.19651001453E+03  0.19651001455E+03  0.25500000000E-02 0. -1.
    5000001    1    1    2    0    0 -0.18890989706E+03 -0.19237049768E+03  0.50988940606E+03  0.61014880480E+03  0.19900000000E+03 0.  0.
   -5000001    1    1    2    0    0  0.18890989706E+03  0.19237049768E+03  0.45404962539E+02  0.33816559288E+03  0.19900000000E+03 0.  0.
<mgrwt>
<rscale>  0 0.76873166E+03</rscale>
<asrwt>0</asrwt>
<pdfrwt beam="1">  1        2 0.28072859E-01 0.76873166E+03</pdfrwt>
<pdfrwt beam="2">  1       -2 0.10740063E+00 0.76873166E+03</pdfrwt>
<totfact> 0.13470977E+02</totfact>
</mgrwt>
</event>
<event>
 4    1  0.5131465E-005  0.5361207E+03  0.7818608E-02  0.1004758E+00
         -2   -1    0    0    0  501 -0.00000000000E+00  0.00000000000E+00  0.36058751143E+02  0.36058751233E+02  0.25500000000E-02 0. -1.
          2   -1    0    0  501    0  0.00000000000E+00 -0.00000000000E+00 -0.19927575521E+04  0.19927575521E+04  0.25500000000E-02 0.  1.
    5000001    1    1    2    0    0  0.16365740868E+03  0.52051944168E+02 -0.77946192348E+03  0.82259044637E+03  0.19900000000E+03 0.  0.
   -5000001    1    1    2    0    0 -0.16365740868E+03 -0.52051944168E+02 -0.11772368774E+04  0.12062258569E+04  0.19900000000E+03 0.  0.
<mgrwt>
<rscale>  0 0.53612069E+03</rscale>
<asrwt>0</asrwt>
<pdfrwt beam="1">  1        2 0.28467958E+00 0.53612069E+03</pdfrwt>
<pdfrwt beam="2">  1       -2 0.51512514E-02 0.53612069E+03</pdfrwt>
<totfact> 0.16414774E+03</totfact>
</mgrwt>
</event>
<event>
 4    1  0.5131465E-005  0.1009614E+04  0.7818608E-02  0.9298063E-01
         -2   -1    0    0    0  501 -0.00000000000E+00  0.00000000000E+00  0.95731146288E+02  0.95731146322E+02  0.25500000000E-02 0. -1.
          2   -1    0    0  501    0  0.00000000000E+00 -0.00000000000E+00 -0.26619347904E+04  0.26619347904E+04  0.25500000000E-02 0.  1.
    5000001    1    1    2    0    0  0.22448689253E+03  0.25522315966E+03 -0.21455337927E+04  0.21813870546E+04  0.19900000000E+03 0.  0.
   -5000001    1    1    2    0    0 -0.22448689253E+03 -0.25522315966E+03 -0.42066985139E+03  0.57627888215E+03  0.19900000000E+03 0.  0.
<mgrwt>
<rscale>  0 0.10096139E+04</rscale>
<asrwt>0</asrwt>
<pdfrwt beam="1">  1        2 0.38027635E+00 0.10096139E+04</pdfrwt>
<pdfrwt beam="2">  1       -2 0.13675880E-01 0.10096139E+04</pdfrwt>
<totfact> 0.14983522E+02</totfact>
</mgrwt>
</event>
<event>
 4    1  0.5131465E-005  0.5526827E+03  0.7818608E-02  0.1000875E+00
         -2   -1    0    0    0  501 -0.00000000000E+00  0.00000000000E+00  0.51783489301E+02  0.51783489364E+02  0.25500000000E-02 0. -1.
          2   -1    0    0  501    0  0.00000000000E+00 -0.00000000000E+00 -0.14746887789E+04  0.14746887789E+04  0.25500000000E-02 0.  1.
    5000001    1    1    2    0    0  0.51980512854E+02  0.17922704885E+03 -0.83307875923E+03  0.87661024854E+03  0.19900000000E+03 0.  0.
   -5000001    1    1    2    0    0 -0.51980512854E+02 -0.17922704885E+03 -0.58982653035E+03  0.64986201971E+03  0.19900000000E+03 0.  0.
<mgrwt>
<rscale>  0 0.55268266E+03</rscale>
<asrwt>0</asrwt>
<pdfrwt beam="1">  1        2 0.21066980E+00 0.55268266E+03</pdfrwt>
<pdfrwt beam="2">  1       -2 0.73976422E-02 0.55268266E+03</pdfrwt>
<totfact> 0.17049664E+03</totfact>
</mgrwt>
</event>
<event>
 4    1  0.5131465E-005  0.9196268E+03  0.7818608E-02  0.9401374E-01
          2   -1    0    0  501    0  0.00000000000E+00  0.00000000000E+00  0.16947163519E+03  0.16947163521E+03  0.25500000000E-02 0.  1.
         -2   -1    0    0    0  501 -0.00000000000E+00 -0.00000000000E+00 -0.12475737320E+04  0.12475737320E+04  0.25500000000E-02 0. -1.
    5000001    1    1    2    0    0 -0.31054056223E+03  0.18920435433E+03 -0.84565998476E+03  0.94179378758E+03  0.19900000000E+03 0.  0.
   -5000001    1    1    2    0    0  0.31054056223E+03 -0.18920435433E+03 -0.23244211202E+03  0.47525157962E+03  0.19900000000E+03 0.  0.
<mgrwt>
<rscale>  0 0.91962679E+03</rscale>
<asrwt>0</asrwt>
<pdfrwt beam="1">  1        2 0.24210234E-01 0.91962679E+03</pdfrwt>
<pdfrwt beam="2">  1       -2 0.17822481E+00 0.91962679E+03</pdfrwt>
<totfact> 0.42606979E+01</totfact>
</mgrwt>
</event>
<event>
 4    1  0.5131465E-005  0.4879900E+03  0.7818608E-02  0.1016962E+00
          2   -1    0    0  501    0  0.00000000000E+00  0.00000000000E+00  0.17532774863E+03  0.17532774865E+03  0.25500000000E-02 0.  1.
         -2   -1    0    0    0  501 -0.00000000000E+00 -0.00000000000E+00 -0.33955577977E+03  0.33955577978E+03  0.25500000000E-02 0. -1.
    5000001    1    1    2    0    0  0.10457399357E+03 -0.94296701202E+02 -0.92923750124E+02  0.26088965354E+03  0.19900000000E+03 0.  0.
   -5000001    1    1    2    0    0 -0.10457399357E+03  0.94296701202E+02 -0.71304281016E+02  0.25399387489E+03  0.19900000000E+03 0.  0.
<mgrwt>
<rscale>  0 0.48798996E+03</rscale>
<asrwt>0</asrwt>
<pdfrwt beam="1">  1        2 0.25046821E-01 0.48798996E+03</pdfrwt>
<pdfrwt beam="2">  1       -2 0.48507969E-01 0.48798996E+03</pdfrwt>
<totfact> 0.88295829E+02</totfact>
</mgrwt>
</event>
<event>
 4    1  0.5131465E-005  0.6398035E+03  0.7818608E-02  0.9826103E-01
         -2   -1    0    0    0  501 -0.00000000000E+00  0.00000000000E+00  0.27524158058E+02  0.27524158176E+02  0.25500000000E-02 0. -1.
          2   -1    0    0  501    0  0.00000000000E+00 -0.00000000000E+00 -0.37180842424E+04  0.37180842424E+04  0.25500000000E-02 0.  1.
    5000001    1    1    2    0    0  0.21626681057E+03  0.12095305776E+03 -0.20591958565E+04  0.20835761447E+04  0.19900000000E+03 0.  0.
   -5000001    1    1    2    0    0 -0.21626681057E+03 -0.12095305776E+03 -0.16313642279E+04  0.16620322559E+04  0.19900000000E+03 0.  0.
<mgrwt>
<rscale>  0 0.63980353E+03</rscale>
<asrwt>0</asrwt>
<pdfrwt beam="1">  1        2 0.53115457E+00 0.63980353E+03</pdfrwt>
<pdfrwt beam="2">  1       -2 0.39320249E-02 0.63980353E+03</pdfrwt>
<totfact> 0.28619879E+02</totfact>
</mgrwt>
</event>
<event>
 4    1  0.5131465E-005  0.6244652E+03  0.7818608E-02  0.9855909E-01
          2   -1    0    0  501    0  0.00000000000E+00  0.00000000000E+00  0.30375555488E+03  0.30375555489E+03  0.25500000000E-02 0.  1.
         -2   -1    0    0    0  501 -0.00000000000E+00 -0.00000000000E+00 -0.32094620398E+03  0.32094620399E+03  0.25500000000E-02 0. -1.
    5000001    1    1    2    0    0  0.57539370042E+02  0.22570170782E+03  0.51728035997E+02  0.31069089096E+03  0.19900000000E+03 0.  0.
   -5000001    1    1    2    0    0 -0.57539370042E+02 -0.22570170782E+03 -0.68918685090E+02  0.31401086792E+03  0.19900000000E+03 0.  0.
<mgrwt>
<rscale>  0 0.62446519E+03</rscale>
<asrwt>0</asrwt>
<pdfrwt beam="1">  1        2 0.43393651E-01 0.62446519E+03</pdfrwt>
<pdfrwt beam="2">  1       -2 0.45849457E-01 0.62446519E+03</pdfrwt>
<totfact> 0.53445669E+02</totfact>
</mgrwt>
</event>
<event>
 4    1  0.5131465E-005  0.6996300E+03  0.7818608E-02  0.9717865E-01
          2   -1    0    0  501    0  0.00000000000E+00  0.00000000000E+00  0.12496871750E+04  0.12496871750E+04  0.25500000000E-02 0.  1.
         -2   -1    0    0    0  501 -0.00000000000E+00 -0.00000000000E+00 -0.97920927820E+02  0.97920927853E+02  0.25500000000E-02 0. -1.
    5000001    1    1    2    0    0 -0.12197529442E+03  0.24164055554E+03  0.76363701087E+03  0.83427250638E+03  0.19900000000E+03 0.  0.
   -5000001    1    1    2    0    0  0.12197529442E+03 -0.24164055554E+03  0.38812923631E+03  0.51333559648E+03  0.19900000000E+03 0.  0.
<mgrwt>
<rscale>  0 0.69962998E+03</rscale>
<asrwt>0</asrwt>
<pdfrwt beam="1">  1        2 0.17852674E+00 0.69962998E+03</pdfrwt>
<pdfrwt beam="2">  1       -2 0.13988704E-01 0.69962998E+03</pdfrwt>
<totfact> 0.79517336E+02</totfact>
</mgrwt>
</event>
<event>
 4    1  0.5131465E-005  0.7328173E+03  0.7818608E-02  0.9662700E-01
          2   -1    0    0  501    0  0.00000000000E+00  0.00000000000E+00  0.77131390225E+03  0.77131390226E+03  0.25500000000E-02 0.  1.
         -2   -1    0    0    0  501 -0.00000000000E+00 -0.00000000000E+00 -0.17406052996E+03  0.17406052998E+03  0.25500000000E-02 0. -1.
    5000001    1    1    2    0    0  0.22232086666E+03  0.18593277232E+03  0.43180097099E+03  0.55682191239E+03  0.19900000000E+03 0.  0.
   -5000001    1    1    2    0    0 -0.22232086666E+03 -0.18593277232E+03  0.16545240131E+03  0.38855251984E+03  0.19900000000E+03 0.  0.
<mgrwt>
<rscale>  0 0.73281732E+03</rscale>
<asrwt>0</asrwt>
<pdfrwt beam="1">  1        2 0.11018770E+00 0.73281732E+03</pdfrwt>
<pdfrwt beam="2">  1       -2 0.24865790E-01 0.73281732E+03</pdfrwt>
<totfact> 0.57855824E+02</totfact>
</mgrwt>
</event>
<event>
 4    1  0.5131465E-005  0.8081430E+03  0.7818608E-02  0.9548305E-01
          2   -1    0    0  501    0  0.00000000000E+00  0.00000000000E+00  0.17120368930E+04  0.17120368930E+04  0.25500000000E-02 0.  1.
         -2   -1    0    0    0  501 -0.00000000000E+00 -0.00000000000E+00 -0.95368137082E+02  0.95368137116E+02  0.25500000000E-02 0. -1.
    5000001    1    1    2    0    0 -0.93583439480E+02  0.28602333060E+03  0.40140619148E+03  0.53971764503E+03  0.19900000000E+03 0.  0.
   -5000001    1    1    2    0    0  0.93583439480E+02 -0.28602333060E+03  0.12152625644E+04  0.12676873850E+04  0.19900000000E+03 0.  0.
<mgrwt>
<rscale>  0 0.80814298E+03</rscale>
<asrwt>0</asrwt>
<pdfrwt beam="1">  1        2 0.24457670E+00 0.80814298E+03</pdfrwt>
<pdfrwt beam="2">  1       -2 0.13624019E-01 0.80814298E+03</pdfrwt>
<totfact> 0.47062669E+02</totfact>
</mgrwt>
</event>
<event>
 4    1  0.5131465E-005  0.8270545E+03  0.7818608E-02  0.9521662E-01
          2   -1    0    0  501    0  0.00000000000E+00  0.00000000000E+00  0.70984012882E+03  0.70984012882E+03  0.25500000000E-02 0.  1.
         -2   -1    0    0    0  501 -0.00000000000E+00 -0.00000000000E+00 -0.24090607963E+03  0.24090607964E+03  0.25500000000E-02 0. -1.
    5000001    1    1    2    0    0 -0.37315235108E+02  0.35220216439E+03  0.14568274284E+03  0.43158226670E+03  0.19900000000E+03 0.  0.
   -5000001    1    1    2    0    0  0.37315235108E+02 -0.35220216439E+03  0.32325130635E+03  0.51916394177E+03  0.19900000000E+03 0.  0.
<mgrwt>
<rscale>  0 0.82705454E+03</rscale>
<asrwt>0</asrwt>
<pdfrwt beam="1">  1        2 0.10140573E+00 0.82705454E+03</pdfrwt>
<pdfrwt beam="2">  1       -2 0.34415154E-01 0.82705454E+03</pdfrwt>
<totfact> 0.35097467E+02</totfact>
</mgrwt>
</event>
<event>
 4    1  0.5131465E-005  0.1650430E+04  0.7818608E-02  0.8790152E-01
          2   -1    0    0  501    0  0.00000000000E+00  0.00000000000E+00  0.15732093905E+04  0.15732093905E+04  0.25500000000E-02 0.  1.
         -2   -1    0    0    0  501 -0.00000000000E+00 -0.00000000000E+00 -0.43286014937E+03  0.43286014938E+03  0.25500000000E-02 0. -1.
    5000001    1    1    2    0    0 -0.76734242720E+03  0.11686333539E+02  0.29186434337E+03  0.84482943006E+03  0.19900000000E+03 0.  0.
   -5000001    1    1    2    0    0  0.76734242720E+03 -0.11686333539E+02  0.84848489778E+03  0.11612401099E+04  0.19900000000E+03 0.  0.
<mgrwt>
<rscale>  0 0.16504298E+04</rscale>
<asrwt>0</asrwt>
<pdfrwt beam="1">  1        2 0.22474420E+00 0.16504298E+04</pdfrwt>
<pdfrwt beam="2">  1       -2 0.61837163E-01 0.16504298E+04</pdfrwt>
<totfact> 0.31087901E+01</totfact>
</mgrwt>
</event>
<event>
 4    1  0.5131465E-005  0.8633788E+03  0.7818608E-02  0.9472554E-01
         -2   -1    0    0    0  501 -0.00000000000E+00  0.00000000000E+00  0.47051278397E+03  0.47051278397E+03  0.25500000000E-02 0. -1.
          2   -1    0    0  501    0  0.00000000000E+00 -0.00000000000E+00 -0.39606947568E+03  0.39606947569E+03  0.25500000000E-02 0.  1.
    5000001    1    1    2    0    0  0.37662303856E+02  0.36557843554E+03 -0.71293824271E+02  0.42396916285E+03  0.19900000000E+03 0.  0.
   -5000001    1    1    2    0    0 -0.37662303856E+02 -0.36557843554E+03  0.14573713256E+03  0.44261309682E+03  0.19900000000E+03 0.  0.
<mgrwt>
<rscale>  0 0.86337883E+03</rscale>
<asrwt>0</asrwt>
<pdfrwt beam="1">  1        2 0.56581353E-01 0.86337883E+03</pdfrwt>
<pdfrwt beam="2">  1       -2 0.67216113E-01 0.86337883E+03</pdfrwt>
<totfact> 0.17849963E+02</totfact>
</mgrwt>
</event>
<event>
 4    1  0.5131465E-005  0.8673801E+03  0.7818608E-02  0.9467302E-01
         -2   -1    0    0    0  501 -0.00000000000E+00  0.00000000000E+00  0.17957255156E+03  0.17957255157E+03  0.25500000000E-02 0. -1.
          2   -1    0    0  501    0  0.00000000000E+00 -0.00000000000E+00 -0.10474154243E+04  0.10474154243E+04  0.25500000000E-02 0.  1.
    5000001    1    1    2    0    0  0.32481623814E+03  0.10929996682E+03 -0.18472050989E+03  0.43723533490E+03  0.19900000000E+03 0.  0.
   -5000001    1    1    2    0    0 -0.32481623814E+03 -0.10929996682E+03 -0.68312236286E+03  0.78975264099E+03  0.19900000000E+03 0.  0.
<mgrwt>
<rscale>  0 0.86738010E+03</rscale>
<asrwt>0</asrwt>
<pdfrwt beam="1">  1        2 0.14963077E+00 0.86738010E+03</pdfrwt>
<pdfrwt beam="2">  1       -2 0.25653222E-01 0.86738010E+03</pdfrwt>
<totfact> 0.35957900E+02</totfact>
</mgrwt>
</event>
<event>
 4    1  0.5131465E-005  0.6100986E+03  0.7818608E-02  0.9884673E-01
         -2   -1    0    0    0  501 -0.00000000000E+00  0.00000000000E+00  0.37357605151E+02  0.37357605238E+02  0.25500000000E-02 0. -1.
          2   -1    0    0  501    0  0.00000000000E+00 -0.00000000000E+00 -0.24909274169E+04  0.24909274169E+04  0.25500000000E-02 0.  1.
    5000001    1    1    2    0    0  0.26213275970E+02  0.12524779001E+03 -0.20247713008E+04  0.20385470231E+04  0.19900000000E+03 0.  0.
   -5000001    1    1    2    0    0 -0.26213275970E+02 -0.12524779001E+03 -0.42879851099E+03  0.48973799910E+03  0.19900000000E+03 0.  0.
<mgrwt>
<rscale>  0 0.61009862E+03</rscale>
<asrwt>0</asrwt>
<pdfrwt beam="1">  1        2 0.35584667E+00 0.61009862E+03</pdfrwt>
<pdfrwt beam="2">  1       -2 0.53368023E-02 0.61009862E+03</pdfrwt>
<totfact> 0.86681586E+02</totfact>
</mgrwt>
</event>
<event>
 4    1  0.5131465E-005  0.6196817E+03  0.7818608E-02  0.9865394E-01
          2   -1    0    0  501    0  0.00000000000E+00  0.00000000000E+00  0.16781788944E+04  0.16781788944E+04  0.25500000000E-02 0.  1.
         -2   -1    0    0    0  501 -0.00000000000E+00 -0.00000000000E+00 -0.57205681625E+02  0.57205681682E+02  0.25500000000E-02 0. -1.
    5000001    1    1    2    0    0 -0.17910218405E+03  0.15514524878E+03  0.76596683948E+03  0.82610764415E+03  0.19900000000E+03 0.  0.
   -5000001    1    1    2    0    0  0.17910218405E+03 -0.15514524878E+03  0.85500637326E+03  0.90927693189E+03  0.19900000000E+03 0.  0.
<mgrwt>
<rscale>  0 0.61968175E+03</rscale>
<asrwt>0</asrwt>
<pdfrwt beam="1">  1        2 0.23973989E+00 0.61968175E+03</pdfrwt>
<pdfrwt beam="2">  1       -2 0.81722387E-02 0.61968175E+03</pdfrwt>
<totfact> 0.11402653E+03</totfact>
</mgrwt>
</event>
<event>
 4    1  0.5131465E-005  0.7238172E+03  0.7818608E-02  0.9677347E-01
          2   -1    0    0  501    0  0.00000000000E+00  0.00000000000E+00  0.27552901152E+04  0.27552901152E+04  0.25500000000E-02 0.  1.
         -2   -1    0    0    0  501 -0.00000000000E+00 -0.00000000000E+00 -0.47536855041E+02  0.47536855109E+02  0.25500000000E-02 0. -1.
    5000001    1    1    2    0    0  0.60465579204E+02  0.24404077647E+03  0.20037384859E+04  0.20292316050E+04  0.19900000000E+03 0.  0.
   -5000001    1    1    2    0    0 -0.60465579204E+02 -0.24404077647E+03  0.70401477420E+03  0.77359536526E+03  0.19900000000E+03 0.  0.
<mgrwt>
<rscale>  0 0.72381718E+03</rscale>
<asrwt>0</asrwt>
<pdfrwt beam="1">  1        2 0.39361294E+00 0.72381718E+03</pdfrwt>
<pdfrwt beam="2">  1       -2 0.67909781E-02 0.72381718E+03</pdfrwt>
<totfact> 0.42845028E+02</totfact>
</mgrwt>
</event>
<event>
 4    1  0.5131465E-005  0.6673913E+03  0.7818608E-02  0.9774682E-01
         -2   -1    0    0    0  501 -0.00000000000E+00  0.00000000000E+00  0.20367494404E+03  0.20367494406E+03  0.25500000000E-02 0. -1.
          2   -1    0    0  501    0  0.00000000000E+00 -0.00000000000E+00 -0.54671816563E+03  0.54671816563E+03  0.25500000000E-02 0.  1.
    5000001    1    1    2    0    0 -0.26547016544E+03  0.12755072944E+02 -0.20906085881E+03  0.39235767268E+03  0.19900000000E+03 0.  0.
   -5000001    1    1    2    0    0  0.26547016544E+03 -0.12755072944E+02 -0.13398236278E+03  0.35803543702E+03  0.19900000000E+03 0.  0.
<mgrwt>
<rscale>  0 0.66739131E+03</rscale>
<asrwt>0</asrwt>
<pdfrwt beam="1">  1        2 0.78102594E-01 0.66739131E+03</pdfrwt>
<pdfrwt beam="2">  1       -2 0.29096421E-01 0.66739131E+03</pdfrwt>
<totfact> 0.65978133E+02</totfact>
</mgrwt>
</event>
<event>
 4    1  0.5131465E-005  0.4779133E+03  0.7818608E-02  0.1019710E+00
          2   -1    0    0  501    0  0.00000000000E+00  0.00000000000E+00  0.37618735520E+03  0.37618735521E+03  0.25500000000E-02 0.  1.
         -2   -1    0    0    0  501 -0.00000000000E+00 -0.00000000000E+00 -0.15178681378E+03  0.15178681380E+03  0.25500000000E-02 0. -1.
    5000001    1    1    2    0    0  0.69903758381E+02 -0.75238143213E+01  0.23599198589E+03  0.31660126440E+03  0.19900000000E+03 0.  0.
   -5000001    1    1    2    0    0 -0.69903758381E+02  0.75238143213E+01 -0.11591444464E+02  0.21137290461E+03  0.19900000000E+03 0.  0.
<mgrwt>
<rscale>  0 0.47791330E+03</rscale>
<asrwt>0</asrwt>
<pdfrwt beam="1">  1        2 0.53741052E-01 0.47791330E+03</pdfrwt>
<pdfrwt beam="2">  1       -2 0.21683830E-01 0.47791330E+03</pdfrwt>
<totfact> 0.17051945E+03</totfact>
</mgrwt>
</event>
<event>
 4    1  0.5131465E-005  0.6639897E+03  0.7818608E-02  0.9780877E-01
         -2   -1    0    0    0  501 -0.00000000000E+00  0.00000000000E+00  0.95629147266E+03  0.95629147266E+03  0.25500000000E-02 0. -1.
          2   -1    0    0  501    0  0.00000000000E+00 -0.00000000000E+00 -0.11525836863E+03  0.11525836866E+03  0.25500000000E-02 0.  1.
    5000001    1    1    2    0    0  0.15036023052E+03 -0.20653642343E+03  0.53860144051E+03  0.62845684406E+03  0.19900000000E+03 0.  0.
   -5000001    1    1    2    0    0 -0.15036023052E+03  0.20653642343E+03  0.30243166352E+03  0.44309299726E+03  0.19900000000E+03 0.  0.
<mgrwt>
<rscale>  0 0.66398974E+03</rscale>
<asrwt>0</asrwt>
<pdfrwt beam="1">  1        2 0.16465481E-01 0.66398974E+03</pdfrwt>
<pdfrwt beam="2">  1       -2 0.13661307E+00 0.66398974E+03</pdfrwt>
<totfact> 0.13888927E+02</totfact>
</mgrwt>
</event>
<event>
 4    1  0.5131465E-005  0.5048397E+03  0.7818608E-02  0.1012523E+00
          2   -1    0    0  501    0  0.00000000000E+00  0.00000000000E+00  0.11896700248E+04  0.11896700248E+04  0.25500000000E-02 0.  1.
         -2   -1    0    0    0  501 -0.00000000000E+00 -0.00000000000E+00 -0.53557523108E+02  0.53557523168E+02  0.25500000000E-02 0. -1.
    5000001    1    1    2    0    0 -0.13536175356E+03 -0.72376125101E+02  0.62600224746E+03  0.67456721061E+03  0.19900000000E+03 0.  0.
   -5000001    1    1    2    0    0  0.13536175356E+03  0.72376125101E+02  0.51011025423E+03  0.56866033736E+03  0.19900000000E+03 0.  0.
<mgrwt>
<rscale>  0 0.50483970E+03</rscale>
<asrwt>0</asrwt>
<pdfrwt beam="1">  1        2 0.16995287E+00 0.50483970E+03</pdfrwt>
<pdfrwt beam="2">  1       -2 0.76510742E-02 0.50483970E+03</pdfrwt>
<totfact> 0.23030645E+03</totfact>
</mgrwt>
</event>
<event>
 4    1  0.5131465E-005  0.4450925E+03  0.7818608E-02  0.1029196E+00
          2   -1    0    0  501    0  0.00000000000E+00  0.00000000000E+00  0.95413883061E+03  0.95413883061E+03  0.25500000000E-02 0. -1.
         -2   -1    0    0    0  501 -0.00000000000E+00 -0.00000000000E+00 -0.51907365748E+02  0.51907365810E+02  0.25500000000E-02 0.  1.
    5000001    1    1    2    0    0  0.58651826717E+02  0.16193104773E+02  0.27280077212E+03  0.34310860480E+03  0.19900000000E+03 0.  0.
   -5000001    1    1    2    0    0 -0.58651826717E+02 -0.16193104773E+02  0.62943069275E+03  0.66293759163E+03  0.19900000000E+03 0.  0.
<mgrwt>
<rscale>  0 0.44509250E+03</rscale>
<asrwt>0</asrwt>
<pdfrwt beam="1">  1        2 0.13630554E+00 0.44509250E+03</pdfrwt>
<pdfrwt beam="2">  1       -2 0.74153385E-02 0.44509250E+03</pdfrwt>
<totfact> 0.33228592E+03</totfact>
</mgrwt>
</event>
<event>
 4    1  0.5131465E-005  0.5971056E+03  0.7818608E-02  0.9911429E-01
         -2   -1    0    0    0  501 -0.00000000000E+00  0.00000000000E+00  0.51147420702E+02  0.51147420766E+02  0.25500000000E-02 0. -1.
          2   -1    0    0  501    0  0.00000000000E+00 -0.00000000000E+00 -0.17426837824E+04  0.17426837824E+04  0.25500000000E-02 0.  1.
    5000001    1    1    2    0    0 -0.19372699688E+03  0.10026011814E+03 -0.97844890923E+03  0.10220300918E+04  0.19900000000E+03 0.  0.
   -5000001    1    1    2    0    0  0.19372699688E+03 -0.10026011814E+03 -0.71308745243E+03  0.77180111131E+03  0.19900000000E+03 0.  0.
<mgrwt>
<rscale>  0 0.59710562E+03</rscale>
<asrwt>0</asrwt>
<pdfrwt beam="1">  1        2 0.24895479E+00 0.59710562E+03</pdfrwt>
<pdfrwt beam="2">  1       -2 0.73067755E-02 0.59710562E+03</pdfrwt>
<totfact> 0.12646599E+03</totfact>
</mgrwt>
</event>
<event>
 4    1  0.5131465E-005  0.5878195E+03  0.7818608E-02  0.9931004E-01
          2   -1    0    0  501    0  0.00000000000E+00  0.00000000000E+00  0.14308367119E+04  0.14308367119E+04  0.25500000000E-02 0.  1.
         -2   -1    0    0    0  501 -0.00000000000E+00 -0.00000000000E+00 -0.60372320517E+02  0.60372320571E+02  0.25500000000E-02 0. -1.
    5000001    1    1    2    0    0 -0.42043110072E+02 -0.46715667026E+02  0.12102554163E+04  0.12281160977E+04  0.19900000000E+03 0.  0.
   -5000001    1    1    2    0    0  0.42043110072E+02  0.46715667026E+02  0.16020897508E+03  0.26309293481E+03  0.19900000000E+03 0.  0.
<mgrwt>
<rscale>  0 0.58781947E+03</rscale>
<asrwt>0</asrwt>
<pdfrwt beam="1">  1        2 0.20440528E+00 0.58781947E+03</pdfrwt>
<pdfrwt beam="2">  1       -2 0.86246159E-02 0.58781947E+03</pdfrwt>
<totfact> 0.14065497E+03</totfact>
</mgrwt>
</event>
<event>
 4    1  0.5131465E-005  0.5388548E+03  0.7818608E-02  0.1004107E+00
         -2   -1    0    0    0  501 -0.00000000000E+00  0.00000000000E+00  0.83976089775E+03  0.83976089776E+03  0.25500000000E-02 0. -1.
          2   -1    0    0  501    0  0.00000000000E+00 -0.00000000000E+00 -0.86442609896E+02  0.86442609933E+02  0.25500000000E-02 0.  1.
    5000001    1    1    2    0    0 -0.13395783220E+03  0.64736436090E+02  0.55573701102E+03  0.60875293213E+03  0.19900000000E+03 0.  0.
   -5000001    1    1    2    0    0  0.13395783220E+03 -0.64736436090E+02  0.19758127684E+03  0.31745057556E+03  0.19900000000E+03 0.  0.
<mgrwt>
<rscale>  0 0.53885480E+03</rscale>
<asrwt>0</asrwt>
<pdfrwt beam="1">  1        2 0.12348944E-01 0.53885480E+03</pdfrwt>
<pdfrwt beam="2">  1       -2 0.11996584E+00 0.53885480E+03</pdfrwt>
<totfact> 0.27430699E+02</totfact>
</mgrwt>
</event>
<event>
 4    1  0.5131465E-005  0.5674823E+03  0.7818608E-02  0.9975266E-01
          2   -1    0    0  501    0  0.00000000000E+00  0.00000000000E+00  0.68507524447E+03  0.68507524447E+03  0.25500000000E-02 0.  1.
         -2   -1    0    0    0  501 -0.00000000000E+00 -0.00000000000E+00 -0.11751852070E+03  0.11751852073E+03  0.25500000000E-02 0. -1.
    5000001    1    1    2    0    0  0.73358303049E+00  0.19083105441E+03  0.37855799226E+03  0.46832059849E+03  0.19900000000E+03 0.  0.
   -5000001    1    1    2    0    0 -0.73358303049E+00 -0.19083105441E+03  0.18899873151E+03  0.33427316671E+03  0.19900000000E+03 0.  0.
<mgrwt>
<rscale>  0 0.56748226E+03</rscale>
<asrwt>0</asrwt>
<pdfrwt beam="1">  1        2 0.97867892E-01 0.56748226E+03</pdfrwt>
<pdfrwt beam="2">  1       -2 0.16788360E-01 0.56748226E+03</pdfrwt>
<totfact> 0.13373678E+03</totfact>
</mgrwt>
</event>
<event>
 4    1  0.5131465E-005  0.6072761E+03  0.7818608E-02  0.9890424E-01
          2   -1    0    0  501    0  0.00000000000E+00  0.00000000000E+00  0.19466089668E+04  0.19466089668E+04  0.25500000000E-02 0.  1.
         -2   -1    0    0    0  501 -0.00000000000E+00 -0.00000000000E+00 -0.47362389104E+02  0.47362389172E+02  0.25500000000E-02 0. -1.
    5000001    1    1    2    0    0 -0.39703499013E+02  0.17168875573E+03  0.46770624175E+03  0.53796238274E+03  0.19900000000E+03 0.  0.
   -5000001    1    1    2    0    0  0.39703499013E+02 -0.17168875573E+03  0.14315403360E+04  0.14560089732E+04  0.19900000000E+03 0.  0.
<mgrwt>
<rscale>  0 0.60727605E+03</rscale>
<asrwt>0</asrwt>
<pdfrwt beam="1">  1        2 0.27808701E+00 0.60727605E+03</pdfrwt>
<pdfrwt beam="2">  1       -2 0.67660553E-02 0.60727605E+03</pdfrwt>
<totfact> 0.11264575E+03</totfact>
</mgrwt>
</event>
<event>
 4    1  0.5131465E-005  0.7098912E+03  0.7818608E-02  0.9700465E-01
         -2   -1    0    0    0  501 -0.00000000000E+00  0.00000000000E+00  0.11923593919E+04  0.11923593919E+04  0.25500000000E-02 0. -1.
          2   -1    0    0  501    0  0.00000000000E+00 -0.00000000000E+00 -0.10566142345E+03  0.10566142348E+03  0.25500000000E-02 0.  1.
    5000001    1    1    2    0    0 -0.17787239752E+03 -0.23146299649E+03  0.48076045573E+03  0.59661153554E+03  0.19900000000E+03 0.  0.
   -5000001    1    1    2    0    0  0.17787239752E+03  0.23146299649E+03  0.60593751277E+03  0.70140927989E+03  0.19900000000E+03 0.  0.
<mgrwt>
<rscale>  0 0.70989123E+03</rscale>
<asrwt>0</asrwt>
<pdfrwt beam="1">  1        2 0.15094489E-01 0.70989123E+03</pdfrwt>
<pdfrwt beam="2">  1       -2 0.17033706E+00 0.70989123E+03</pdfrwt>
<totfact> 0.85635678E+01</totfact>
</mgrwt>
</event>
<event>
 4    1  0.5131465E-005  0.6000510E+03  0.7818608E-02  0.9905300E-01
         -2   -1    0    0    0  501 -0.00000000000E+00  0.00000000000E+00  0.17350009412E+03  0.17350009414E+03  0.25500000000E-02 0.  1.
          2   -1    0    0  501    0  0.00000000000E+00 -0.00000000000E+00 -0.51881983915E+03  0.51881983916E+03  0.25500000000E-02 0. -1.
    5000001    1    1    2    0    0  0.11961114050E+02 -0.20078912729E+03 -0.57543203001E+02  0.28874134117E+03  0.19900000000E+03 0.  0.
   -5000001    1    1    2    0    0 -0.11961114050E+02  0.20078912729E+03 -0.28777654203E+03  0.40357859213E+03  0.19900000000E+03 0.  0.
<mgrwt>
<rscale>  0 0.60005097E+03</rscale>
<asrwt>0</asrwt>
<pdfrwt beam="1">  1        2 0.74117119E-01 0.60005097E+03</pdfrwt>
<pdfrwt beam="2">  1       -2 0.24785728E-01 0.60005097E+03</pdfrwt>
<totfact> 0.93897400E+02</totfact>
</mgrwt>
</event>
<event>
 4    1  0.5131465E-005  0.9064638E+03  0.7818608E-02  0.9417537E-01
         -2   -1    0    0    0  501 -0.00000000000E+00  0.00000000000E+00  0.96533240980E+02  0.96533241014E+02  0.25500000000E-02 0. -1.
          2   -1    0    0  501    0  0.00000000000E+00 -0.00000000000E+00 -0.21279630323E+04  0.21279630323E+04  0.25500000000E-02 0.  1.
    5000001    1    1    2    0    0 -0.36367387295E+03 -0.13954111712E+03 -0.72444060023E+03  0.84625385818E+03  0.19900000000E+03 0.  0.
   -5000001    1    1    2    0    0  0.36367387295E+03  0.13954111712E+03 -0.13069891911E+04  0.13782424151E+04  0.19900000000E+03 0.  0.
<mgrwt>
<rscale>  0 0.90646383E+03</rscale>
<asrwt>0</asrwt>
<pdfrwt beam="1">  1        2 0.30399469E+00 0.90646383E+03</pdfrwt>
<pdfrwt beam="2">  1       -2 0.13790464E-01 0.90646383E+03</pdfrwt>
<totfact> 0.28131205E+02</totfact>
</mgrwt>
</event>
<event>
 4    1  0.5131465E-005  0.6312313E+03  0.7818608E-02  0.9842649E-01
          2   -1    0    0  501    0  0.00000000000E+00  0.00000000000E+00  0.13485972113E+04  0.13485972113E+04  0.25500000000E-02 0. -1.
         -2   -1    0    0    0  501 -0.00000000000E+00 -0.00000000000E+00 -0.73864332340E+02  0.73864332384E+02  0.25500000000E-02 0.  1.
    5000001    1    1    2    0    0 -0.17363001682E+03  0.17120943930E+03  0.58441332749E+03  0.66377706513E+03  0.19900000000E+03 0.  0.
   -5000001    1    1    2    0    0  0.17363001682E+03 -0.17120943930E+03  0.69031955142E+03  0.75868447850E+03  0.19900000000E+03 0.  0.
<mgrwt>
<rscale>  0 0.63123128E+03</rscale>
<asrwt>0</asrwt>
<pdfrwt beam="1">  1        2 0.19265673E+00 0.63123128E+03</pdfrwt>
<pdfrwt beam="2">  1       -2 0.10552048E-01 0.63123128E+03</pdfrwt>
<totfact> 0.11215296E+03</totfact>
</mgrwt>
</event>
<event>
 4    1  0.5131465E-005  0.4706432E+03  0.7818608E-02  0.1021739E+00
          2   -1    0    0  501    0  0.00000000000E+00  0.00000000000E+00  0.12156462658E+04  0.12156462658E+04  0.25500000000E-02 0.  1.
         -2   -1    0    0    0  501 -0.00000000000E+00 -0.00000000000E+00 -0.45552930533E+02  0.45552930604E+02  0.25500000000E-02 0. -1.
    5000001    1    1    2    0    0  0.25257490986E+01  0.65723175255E+02  0.29831078440E+03  0.36457679474E+03  0.19900000000E+03 0.  0.
   -5000001    1    1    2    0    0 -0.25257490986E+01 -0.65723175255E+02  0.87178255091E+03  0.89662240171E+03  0.19900000000E+03 0.  0.
<mgrwt>
<rscale>  0 0.47064318E+03</rscale>
<asrwt>0</asrwt>
<pdfrwt beam="1">  1        2 0.17366374E+00 0.47064318E+03</pdfrwt>
<pdfrwt beam="2">  1       -2 0.65075621E-02 0.47064318E+03</pdfrwt>
<totfact> 0.28746169E+03</totfact>
</mgrwt>
</event>
<event>
 4    1  0.5131465E-005  0.6785475E+03  0.7818608E-02  0.9754639E-01
         -2   -1    0    0    0  501 -0.00000000000E+00  0.00000000000E+00  0.44095181681E+02  0.44095181755E+02  0.25500000000E-02 0. -1.
          2   -1    0    0  501    0  0.00000000000E+00 -0.00000000000E+00 -0.26104137541E+04  0.26104137541E+04  0.25500000000E-02 0.  1.
    5000001    1    1    2    0    0  0.55868572399E+02  0.26788857168E+03 -0.13805750944E+04  0.14214338449E+04  0.19900000000E+03 0.  0.
   -5000001    1    1    2    0    0 -0.55868572399E+02 -0.26788857168E+03 -0.11857434781E+04  0.12330750910E+04  0.19900000000E+03 0.  0.
<mgrwt>
<rscale>  0 0.67854747E+03</rscale>
<asrwt>0</asrwt>
<pdfrwt beam="1">  1        2 0.37291615E+00 0.67854747E+03</pdfrwt>
<pdfrwt beam="2">  1       -2 0.62993133E-02 0.67854747E+03</pdfrwt>
<totfact> 0.57697805E+02</totfact>
</mgrwt>
</event>
<event>
 4    1  0.5131465E-005  0.5050028E+03  0.7818608E-02  0.1012481E+00
          2   -1    0    0  501    0  0.00000000000E+00  0.00000000000E+00  0.87030078203E+03  0.87030078204E+03  0.25500000000E-02 0.  1.
         -2   -1    0    0    0  501 -0.00000000000E+00 -0.00000000000E+00 -0.73258541825E+02  0.73258541869E+02  0.25500000000E-02 0. -1.
    5000001    1    1    2    0    0 -0.14714503384E+03  0.52420935470E+01  0.49150830900E+03  0.55032768269E+03  0.19900000000E+03 0.  0.
   -5000001    1    1    2    0    0  0.14714503384E+03 -0.52420935470E+01  0.30553393121E+03  0.39323164121E+03  0.19900000000E+03 0.  0.
<mgrwt>
<rscale>  0 0.50500284E+03</rscale>
<asrwt>0</asrwt>
<pdfrwt beam="1">  1        2 0.12432867E+00 0.50500284E+03</pdfrwt>
<pdfrwt beam="2">  1       -2 0.10465507E-01 0.50500284E+03</pdfrwt>
<totfact> 0.21680612E+03</totfact>
</mgrwt>
</event>
<event>
 4    1  0.5131465E-005  0.7355486E+03  0.7818608E-02  0.9658299E-01
         -2   -1    0    0    0  501 -0.00000000000E+00  0.00000000000E+00  0.10484649170E+04  0.10484649170E+04  0.25500000000E-02 0. -1.
          2   -1    0    0  501    0  0.00000000000E+00 -0.00000000000E+00 -0.12900570308E+03  0.12900570311E+03  0.25500000000E-02 0.  1.
    5000001    1    1    2    0    0 -0.19227488774E+03 -0.16227229491E+03  0.17178460932E+03  0.36388580922E+03  0.19900000000E+03 0.  0.
   -5000001    1    1    2    0    0  0.19227488774E+03  0.16227229491E+03  0.74767460460E+03  0.81358481089E+03  0.19900000000E+03 0.  0.
<mgrwt>
<rscale>  0 0.73554865E+03</rscale>
<asrwt>0</asrwt>
<pdfrwt beam="1">  1        2 0.18429387E-01 0.73554865E+03</pdfrwt>
<pdfrwt beam="2">  1       -2 0.14978070E+00 0.73554865E+03</pdfrwt>
<totfact> 0.95258815E+01</totfact>
</mgrwt>
</event>
<event>
 4    1  0.5131465E-005  0.6975740E+03  0.7818608E-02  0.9721390E-01
         -2   -1    0    0    0  501 -0.00000000000E+00  0.00000000000E+00  0.63982821851E+02  0.63982821902E+02  0.25500000000E-02 0. -1.
          2   -1    0    0  501    0  0.00000000000E+00 -0.00000000000E+00 -0.19013284339E+04  0.19013284339E+04  0.25500000000E-02 0.  1.
    5000001    1    1    2    0    0 -0.22003122001E+03 -0.44152160825E+02 -0.41715089074E+03  0.51378888343E+03  0.19900000000E+03 0.  0.
   -5000001    1    1    2    0    0  0.22003122001E+03  0.44152160825E+02 -0.14201947213E+04  0.14515223724E+04  0.19900000000E+03 0.  0.
<mgrwt>
<rscale>  0 0.69757396E+03</rscale>
<asrwt>0</asrwt>
<pdfrwt beam="1">  1        2 0.27161831E+00 0.69757396E+03</pdfrwt>
<pdfrwt beam="2">  1       -2 0.91404043E-02 0.69757396E+03</pdfrwt>
<totfact> 0.73112928E+02</totfact>
</mgrwt>
</event>
<event>
 4    1  0.5131465E-005  0.6839490E+03  0.7818608E-02  0.9745082E-01
          2   -1    0    0  501    0  0.00000000000E+00  0.00000000000E+00  0.17567012772E+04  0.17567012772E+04  0.25500000000E-02 0.  1.
         -2   -1    0    0    0  501 -0.00000000000E+00 -0.00000000000E+00 -0.66571680898E+02  0.66571680947E+02  0.25500000000E-02 0. -1.
    5000001    1    1    2    0    0 -0.23934072795E+03  0.13813069761E+03  0.76154885010E+03  0.83421923063E+03  0.19900000000E+03 0.  0.
   -5000001    1    1    2    0    0  0.23934072795E+03 -0.13813069761E+03  0.92858074619E+03  0.98905372749E+03  0.19900000000E+03 0.  0.
<mgrwt>
<rscale>  0 0.68394899E+03</rscale>
<asrwt>0</asrwt>
<pdfrwt beam="1">  1        2 0.25095730E+00 0.68394899E+03</pdfrwt>
<pdfrwt beam="2">  1       -2 0.95102412E-02 0.68394899E+03</pdfrwt>
<totfact> 0.81241606E+02</totfact>
</mgrwt>
</event>
<event>
 4    1  0.5131465E-005  0.9989039E+03  0.7818608E-02  0.9309748E-01
          2   -1    0    0  501    0  0.00000000000E+00  0.00000000000E+00  0.13197267523E+04  0.13197267523E+04  0.25500000000E-02 0. -1.
         -2   -1    0    0    0  501 -0.00000000000E+00 -0.00000000000E+00 -0.18901810647E+03  0.18901810649E+03  0.25500000000E-02 0.  1.
    5000001    1    1    2    0    0  0.92988327501E+02 -0.43800360923E+03  0.71145978961E+03  0.86386921636E+03  0.19900000000E+03 0.  0.
   -5000001    1    1    2    0    0 -0.92988327501E+02  0.43800360923E+03  0.41924885621E+03  0.64487564242E+03  0.19900000000E+03 0.  0.
<mgrwt>
<rscale>  0 0.99890390E+03</rscale>
<asrwt>0</asrwt>
<pdfrwt beam="1">  1        2 0.18853239E+00 0.99890390E+03</pdfrwt>
<pdfrwt beam="2">  1       -2 0.27002587E-01 0.99890390E+03</pdfrwt>
<totfact> 0.22714569E+02</totfact>
</mgrwt>
</event>
<event>
 4    1  0.5131465E-005  0.5280731E+03  0.7818608E-02  0.1006701E+00
          2   -1    0    0  501    0  0.00000000000E+00  0.00000000000E+00  0.18310100818E+04  0.18310100818E+04  0.25500000000E-02 0.  1.
         -2   -1    0    0    0  501 -0.00000000000E+00 -0.00000000000E+00 -0.38074771693E+02  0.38074771779E+02  0.25500000000E-02 0. -1.
    5000001    1    1    2    0    0  0.14735292716E+03  0.90578185909E+02  0.94614586302E+03  0.98219666412E+03  0.19900000000E+03 0.  0.
   -5000001    1    1    2    0    0 -0.14735292716E+03 -0.90578185909E+02  0.84678944713E+03  0.88688818950E+03  0.19900000000E+03 0.  0.
<mgrwt>
<rscale>  0 0.52807307E+03</rscale>
<asrwt>0</asrwt>
<pdfrwt beam="1">  1        2 0.26157293E+00 0.52807307E+03</pdfrwt>
<pdfrwt beam="2">  1       -2 0.54392519E-02 0.52807307E+03</pdfrwt>
<totfact> 0.18185668E+03</totfact>
</mgrwt>
</event>
<event>
 4    1  0.5131465E-005  0.4890486E+03  0.7818608E-02  0.1016678E+00
          2   -1    0    0  501    0  0.00000000000E+00  0.00000000000E+00  0.43835818848E+03  0.43835818849E+03  0.25500000000E-02 0.  1.
         -2   -1    0    0    0  501 -0.00000000000E+00 -0.00000000000E+00 -0.13640019993E+03  0.13640019996E+03  0.25500000000E-02 0. -1.
    5000001    1    1    2    0    0 -0.96877374827E+02 -0.89833610380E+01  0.29266174981E+02  0.22343552879E+03  0.19900000000E+03 0.  0.
   -5000001    1    1    2    0    0  0.96877374827E+02  0.89833610380E+01  0.27269181356E+03  0.35132285965E+03  0.19900000000E+03 0.  0.
<mgrwt>
<rscale>  0 0.48904865E+03</rscale>
<asrwt>0</asrwt>
<pdfrwt beam="1">  1        2 0.62622598E-01 0.48904865E+03</pdfrwt>
<pdfrwt beam="2">  1       -2 0.19485743E-01 0.48904865E+03</pdfrwt>
<totfact> 0.17344398E+03</totfact>
</mgrwt>
</event>
<event>
 4    1  0.5131465E-005  0.6153820E+03  0.7818608E-02  0.9873997E-01
         -2   -1    0    0    0  501 -0.00000000000E+00  0.00000000000E+00  0.15025490733E+03  0.15025490735E+03  0.25500000000E-02 0. -1.
          2   -1    0    0  501    0  0.00000000000E+00 -0.00000000000E+00 -0.63008764400E+03  0.63008764400E+03  0.25500000000E-02 0.  1.
    5000001    1    1    2    0    0  0.58827009946E+02 -0.21133584019E+03 -0.13420755416E+03  0.32517091205E+03  0.19900000000E+03 0.  0.
   -5000001    1    1    2    0    0 -0.58827009946E+02  0.21133584019E+03 -0.34562518251E+03  0.45517163931E+03  0.19900000000E+03 0.  0.
<mgrwt>
<rscale>  0 0.61538203E+03</rscale>
<asrwt>0</asrwt>
<pdfrwt beam="1">  1        2 0.90012519E-01 0.61538203E+03</pdfrwt>
<pdfrwt beam="2">  1       -2 0.21464987E-01 0.61538203E+03</pdfrwt>
<totfact> 0.96621991E+02</totfact>
</mgrwt>
</event>
<event>
 4    1  0.5131465E-005  0.8665035E+03  0.7818608E-02  0.9468450E-01
         -2   -1    0    0    0  501 -0.00000000000E+00  0.00000000000E+00  0.21628929343E+03  0.21628929345E+03  0.25500000000E-02 0. -1.
          2   -1    0    0  501    0  0.00000000000E+00 -0.00000000000E+00 -0.86785184021E+03  0.86785184021E+03  0.25500000000E-02 0.  1.
    5000001    1    1    2    0    0 -0.80606298040E+02  0.34426177278E+03 -0.13565104693E+03  0.42780340112E+03  0.19900000000E+03 0.  0.
   -5000001    1    1    2    0    0  0.80606298040E+02 -0.34426177278E+03 -0.51591149984E+03  0.65633773254E+03  0.19900000000E+03 0.  0.
<mgrwt>
<rscale>  0 0.86650346E+03</rscale>
<asrwt>0</asrwt>
<pdfrwt beam="1">  1        2 0.12397883E+00 0.86650346E+03</pdfrwt>
<pdfrwt beam="2">  1       -2 0.30898471E-01 0.86650346E+03</pdfrwt>
<totfact> 0.33165184E+02</totfact>
</mgrwt>
</event>
<event>
 4    1  0.5131465E-005  0.8211594E+03  0.7818608E-02  0.9529885E-01
         -2   -1    0    0    0  501 -0.00000000000E+00  0.00000000000E+00  0.13361183912E+04  0.13361183912E+04  0.25500000000E-02 0. -1.
          2   -1    0    0  501    0  0.00000000000E+00 -0.00000000000E+00 -0.12616822080E+03  0.12616822082E+03  0.25500000000E-02 0.  1.
    5000001    1    1    2    0    0 -0.61957830393E+02 -0.34894521803E+03  0.70839933467E+03  0.81672036543E+03  0.19900000000E+03 0.  0.
   -5000001    1    1    2    0    0  0.61957830393E+02  0.34894521803E+03  0.50155083578E+03  0.64556624664E+03  0.19900000000E+03 0.  0.
<mgrwt>
<rscale>  0 0.82115938E+03</rscale>
<asrwt>0</asrwt>
<pdfrwt beam="1">  1        2 0.18024030E-01 0.82115938E+03</pdfrwt>
<pdfrwt beam="2">  1       -2 0.19087407E+00 0.82115938E+03</pdfrwt>
<totfact> 0.49733766E+01</totfact>
</mgrwt>
</event>
<event>
 4    1  0.5131465E-005  0.1098135E+04  0.7818608E-02  0.9207012E-01
          2   -1    0    0  501    0  0.00000000000E+00  0.00000000000E+00  0.12935991450E+04  0.12935991450E+04  0.25500000000E-02 0.  1.
         -2   -1    0    0    0  501 -0.00000000000E+00 -0.00000000000E+00 -0.23305140118E+03  0.23305140119E+03  0.25500000000E-02 0. -1.
    5000001    1    1    2    0    0  0.31375910098E+03 -0.37822421666E+03  0.72871918683E+03  0.90118310280E+03  0.19900000000E+03 0.  0.
   -5000001    1    1    2    0    0 -0.31375910098E+03  0.37822421666E+03  0.33182855701E+03  0.62546744341E+03  0.19900000000E+03 0.  0.
<mgrwt>
<rscale>  0 0.10981350E+04</rscale>
<asrwt>0</asrwt>
<pdfrwt beam="1">  1        2 0.18479988E+00 0.10981350E+04</pdfrwt>
<pdfrwt beam="2">  1       -2 0.33293057E-01 0.10981350E+04</pdfrwt>
<totfact> 0.15810680E+02</totfact>
</mgrwt>
</event>
<event>
 4    1  0.5131465E-005  0.8975893E+03  0.7818608E-02  0.9428600E-01
          2   -1    0    0  501    0  0.00000000000E+00  0.00000000000E+00  0.13740253359E+03  0.13740253361E+03  0.25500000000E-02 0.  1.
         -2   -1    0    0    0  501 -0.00000000000E+00 -0.00000000000E+00 -0.14658872569E+04  0.14658872569E+04  0.25500000000E-02 0. -1.
    5000001    1    1    2    0    0 -0.19862974924E+02  0.34854299853E+03 -0.30727194405E+03  0.50585947377E+03  0.19900000000E+03 0.  0.
   -5000001    1    1    2    0    0  0.19862974924E+02 -0.34854299853E+03 -0.10212127793E+04  0.10974303168E+04  0.19900000000E+03 0.  0.
<mgrwt>
<rscale>  0 0.89758927E+03</rscale>
<asrwt>0</asrwt>
<pdfrwt beam="1">  1        2 0.19628934E-01 0.89758927E+03</pdfrwt>
<pdfrwt beam="2">  1       -2 0.20941246E+00 0.89758927E+03</pdfrwt>
<totfact> 0.33867426E+01</totfact>
</mgrwt>
</event>
<event>
 4    1  0.5131465E-005  0.6169620E+03  0.7818608E-02  0.9870827E-01
         -2   -1    0    0    0  501 -0.00000000000E+00  0.00000000000E+00  0.34850900004E+02  0.34850900097E+02  0.25500000000E-02 0. -1.
          2   -1    0    0  501    0  0.00000000000E+00 -0.00000000000E+00 -0.27305043601E+04  0.27305043601E+04  0.25500000000E-02 0.  1.
    5000001    1    1    2    0    0 -0.12881364596E+03  0.18975350878E+03 -0.11039603500E+04  0.11449579922E+04  0.19900000000E+03 0.  0.
   -5000001    1    1    2    0    0  0.12881364596E+03 -0.18975350878E+03 -0.15916931102E+04  0.16203972681E+04  0.19900000000E+03 0.  0.
<mgrwt>
<rscale>  0 0.61696202E+03</rscale>
<asrwt>0</asrwt>
<pdfrwt beam="1">  1        2 0.39007191E+00 0.61696202E+03</pdfrwt>
<pdfrwt beam="2">  1       -2 0.49787018E-02 0.61696202E+03</pdfrwt>
<totfact> 0.72486065E+02</totfact>
</mgrwt>
</event>
<event>
 4    1  0.5131465E-005  0.1077151E+04  0.7818608E-02  0.9227753E-01
         -2   -1    0    0    0  501 -0.00000000000E+00  0.00000000000E+00  0.87339010763E+03  0.87339010763E+03  0.25500000000E-02 0. -1.
          2   -1    0    0  501    0  0.00000000000E+00 -0.00000000000E+00 -0.33211235567E+03  0.33211235568E+03  0.25500000000E-02 0.  1.
    5000001    1    1    2    0    0 -0.13042413216E+03 -0.33248900070E+03 -0.12171066631E+03  0.42658396141E+03  0.19900000000E+03 0.  0.
   -5000001    1    1    2    0    0  0.13042413216E+03  0.33248900070E+03  0.66298841827E+03  0.77891850190E+03  0.19900000000E+03 0.  0.
<mgrwt>
<rscale>  0 0.10771511E+04</rscale>
<asrwt>0</asrwt>
<pdfrwt beam="1">  1        2 0.47444622E-01 0.10771511E+04</pdfrwt>
<pdfrwt beam="2">  1       -2 0.12477002E+00 0.10771511E+04</pdfrwt>
<totfact> 0.51003459E+01</totfact>
</mgrwt>
</event>
<event>
 4    1  0.5131465E-005  0.5023930E+03  0.7818608E-02  0.1013156E+00
          2   -1    0    0  501    0  0.00000000000E+00  0.00000000000E+00  0.63484280659E+02  0.63484280710E+02  0.25500000000E-02 0.  1.
         -2   -1    0    0    0  501 -0.00000000000E+00 -0.00000000000E+00 -0.99394183011E+03  0.99394183011E+03  0.25500000000E-02 0. -1.
    5000001    1    1    2    0    0  0.13154975693E+03  0.68288228047E+02 -0.54755930096E+03  0.60115788999E+03  0.19900000000E+03 0.  0.
   -5000001    1    1    2    0    0 -0.13154975693E+03 -0.68288228047E+02 -0.38289824849E+03  0.45626822083E+03  0.19900000000E+03 0.  0.
<mgrwt>
<rscale>  0 0.50239300E+03</rscale>
<asrwt>0</asrwt>
<pdfrwt beam="1">  1        2 0.90691835E-02 0.50239300E+03</pdfrwt>
<pdfrwt beam="2">  1       -2 0.14199168E+00 0.50239300E+03</pdfrwt>
<totfact> 0.26480921E+02</totfact>
</mgrwt>
</event>
<event>
 4    1  0.5131465E-005  0.1935322E+04  0.7818608E-02  0.8637472E-01
         -2   -1    0    0    0  501 -0.00000000000E+00  0.00000000000E+00  0.30965775167E+03  0.30965775168E+03  0.25500000000E-02 0. -1.
          2   -1    0    0  501    0  0.00000000000E+00 -0.00000000000E+00 -0.30238785776E+04  0.30238785776E+04  0.25500000000E-02 0.  1.
    5000001    1    1    2    0    0 -0.21166721972E+03 -0.89366420741E+03 -0.95934361534E+03  0.13428998100E+04  0.19900000000E+03 0.  0.
   -5000001    1    1    2    0    0  0.21166721972E+03  0.89366420741E+03 -0.17548772106E+04  0.19906365193E+04  0.19900000000E+03 0.  0.
<mgrwt>
<rscale>  0 0.19353216E+04</rscale>
<asrwt>0</asrwt>
<pdfrwt beam="1">  1        2 0.43198264E+00 0.19353216E+04</pdfrwt>
<pdfrwt beam="2">  1       -2 0.44236823E-01 0.19353216E+04</pdfrwt>
<totfact> 0.10399567E+01</totfact>
</mgrwt>
</event>
<event>
 4    1  0.5131465E-005  0.5321627E+03  0.7818608E-02  0.1005709E+00
         -2   -1    0    0    0  501 -0.00000000000E+00  0.00000000000E+00  0.75463424756E+02  0.75463424799E+02  0.25500000000E-02 0. -1.
          2   -1    0    0  501    0  0.00000000000E+00 -0.00000000000E+00 -0.93819332033E+03  0.93819332033E+03  0.25500000000E-02 0.  1.
    5000001    1    1    2    0    0  0.55276322860E+02  0.15780063612E+03 -0.53981692883E+03  0.59913256403E+03  0.19900000000E+03 0.  0.
   -5000001    1    1    2    0    0 -0.55276322860E+02 -0.15780063612E+03 -0.32291296675E+03  0.41452418110E+03  0.19900000000E+03 0.  0.
<mgrwt>
<rscale>  0 0.53216269E+03</rscale>
<asrwt>0</asrwt>
<pdfrwt beam="1">  1        2 0.13402761E+00 0.53216269E+03</pdfrwt>
<pdfrwt beam="2">  1       -2 0.10780490E-01 0.53216269E+03</pdfrwt>
<totfact> 0.18690695E+03</totfact>
</mgrwt>
</event>
<event>
 4    1  0.5131465E-005  0.7890474E+03  0.7818608E-02  0.9576007E-01
         -2   -1    0    0    0  501 -0.00000000000E+00  0.00000000000E+00  0.22528067717E+03  0.22528067718E+03  0.25500000000E-02 0. -1.
          2   -1    0    0  501    0  0.00000000000E+00 -0.00000000000E+00 -0.69091120181E+03  0.69091120182E+03  0.25500000000E-02 0.  1.
    5000001    1    1    2    0    0  0.13103492360E+03 -0.72436581045E+02 -0.58811310265E+03  0.63866676051E+03  0.19900000000E+03 0.  0.
   -5000001    1    1    2    0    0 -0.13103492360E+03  0.72436581045E+02  0.12248257800E+03  0.27752511849E+03  0.19900000000E+03 0.  0.
<mgrwt>
<rscale>  0 0.78904738E+03</rscale>
<asrwt>0</asrwt>
<pdfrwt beam="1">  1        2 0.98701599E-01 0.78904738E+03</pdfrwt>
<pdfrwt beam="2">  1       -2 0.32182954E-01 0.78904738E+03</pdfrwt>
<totfact> 0.41244125E+02</totfact>
</mgrwt>
</event>
<event>
 4    1  0.5131465E-005  0.5143418E+03  0.7818608E-02  0.1010102E+00
          2   -1    0    0  501    0  0.00000000000E+00  0.00000000000E+00  0.17345789564E+04  0.17345789564E+04  0.25500000000E-02 0.  1.
         -2   -1    0    0    0  501 -0.00000000000E+00 -0.00000000000E+00 -0.38128482318E+02  0.38128482404E+02  0.25500000000E-02 0. -1.
    5000001    1    1    2    0    0  0.12130552344E+03 -0.86374513949E+02  0.62064094230E+03  0.66855947075E+03  0.19900000000E+03 0.  0.
   -5000001    1    1    2    0    0 -0.12130552344E+03  0.86374513949E+02  0.10758095318E+04  0.11041479680E+04  0.19900000000E+03 0.  0.
<mgrwt>
<rscale>  0 0.51434177E+03</rscale>
<asrwt>0</asrwt>
<pdfrwt beam="1">  1        2 0.24779700E+00 0.51434177E+03</pdfrwt>
<pdfrwt beam="2">  1       -2 0.54469260E-02 0.51434177E+03</pdfrwt>
<totfact> 0.20300198E+03</totfact>
</mgrwt>
</event>
<event>
 4    1  0.5131465E-005  0.6160130E+03  0.7818608E-02  0.9872730E-01
          2   -1    0    0  501    0  0.00000000000E+00  0.00000000000E+00  0.59078157918E+03  0.59078157919E+03  0.25500000000E-02 0.  1.
         -2   -1    0    0    0  501 -0.00000000000E+00 -0.00000000000E+00 -0.16058050815E+03  0.16058050817E+03  0.25500000000E-02 0. -1.
    5000001    1    1    2    0    0  0.21295798757E+03  0.85414718403E+02  0.27753564887E+03  0.41142899142E+03  0.19900000000E+03 0.  0.
   -5000001    1    1    2    0    0 -0.21295798757E+03 -0.85414718403E+02  0.15266542216E+03  0.33993309594E+03  0.19900000000E+03 0.  0.
<mgrwt>
<rscale>  0 0.61601301E+03</rscale>
<asrwt>0</asrwt>
<pdfrwt beam="1">  1        2 0.84397368E-01 0.61601301E+03</pdfrwt>
<pdfrwt beam="2">  1       -2 0.22940073E-01 0.61601301E+03</pdfrwt>
<totfact> 0.92714215E+02</totfact>
</mgrwt>
</event>
<event>
 4    1  0.5131465E-005  0.9983800E+03  0.7818608E-02  0.9310323E-01
         -2   -1    0    0    0  501 -0.00000000000E+00  0.00000000000E+00  0.22671280806E+03  0.22671280808E+03  0.25500000000E-02 0. -1.
          2   -1    0    0  501    0  0.00000000000E+00 -0.00000000000E+00 -0.10991468510E+04  0.10991468510E+04  0.25500000000E-02 0.  1.
    5000001    1    1    2    0    0 -0.45164405076E+03  0.33001144495E+02 -0.34695092190E+03  0.60419149807E+03  0.19900000000E+03 0.  0.
   -5000001    1    1    2    0    0  0.45164405076E+03 -0.33001144495E+02 -0.52548312103E+03  0.72166816101E+03  0.19900000000E+03 0.  0.
<mgrwt>
<rscale>  0 0.99838003E+03</rscale>
<asrwt>0</asrwt>
<pdfrwt beam="1">  1        2 0.15702098E+00 0.99838003E+03</pdfrwt>
<pdfrwt beam="2">  1       -2 0.32387545E-01 0.99838003E+03</pdfrwt>
<totfact> 0.21630354E+02</totfact>
</mgrwt>
</event>
<event>
 4    1  0.5131465E-005  0.4910032E+03  0.7818608E-02  0.1016154E+00
          2   -1    0    0  501    0  0.00000000000E+00  0.00000000000E+00  0.13744692918E+04  0.13744692918E+04  0.25500000000E-02 0.  1.
         -2   -1    0    0    0  501 -0.00000000000E+00 -0.00000000000E+00 -0.43850413692E+02  0.43850413766E+02  0.25500000000E-02 0. -1.
    5000001    1    1    2    0    0 -0.86108017951E+02  0.82502268578E+02  0.43334024931E+03  0.49153431899E+03  0.19900000000E+03 0.  0.
   -5000001    1    1    2    0    0  0.86108017951E+02 -0.82502268578E+02  0.89727862884E+03  0.92678538662E+03  0.19900000000E+03 0.  0.
<mgrwt>
<rscale>  0 0.49100325E+03</rscale>
<asrwt>0</asrwt>
<pdfrwt beam="1">  1        2 0.19635276E+00 0.49100325E+03</pdfrwt>
<pdfrwt beam="2">  1       -2 0.62643447E-02 0.49100325E+03</pdfrwt>
<totfact> 0.25035300E+03</totfact>
</mgrwt>
</event>
<event>
 4    1  0.5131465E-005  0.7148914E+03  0.7818608E-02  0.9692100E-01
         -2   -1    0    0    0  501 -0.00000000000E+00  0.00000000000E+00  0.54523114396E+02  0.54523114455E+02  0.25500000000E-02 0. -1.
          2   -1    0    0  501    0  0.00000000000E+00 -0.00000000000E+00 -0.23433623087E+04  0.23433623087E+04  0.25500000000E-02 0.  1.
    5000001    1    1    2    0    0 -0.24813501864E+02  0.23475634497E+03 -0.54029032769E+03  0.62228682259E+03  0.19900000000E+03 0.  0.
   -5000001    1    1    2    0    0  0.24813501864E+02 -0.23475634497E+03 -0.17485488666E+04  0.17755986005E+04  0.19900000000E+03 0.  0.
<mgrwt>
<rscale>  0 0.71489135E+03</rscale>
<asrwt>0</asrwt>
<pdfrwt beam="1">  1        2 0.33476598E+00 0.71489135E+03</pdfrwt>
<pdfrwt beam="2">  1       -2 0.77890178E-02 0.71489135E+03</pdfrwt>
<totfact> 0.56398337E+02</totfact>
</mgrwt>
</event>
<event>
 4    1  0.5131465E-005  0.1385018E+04  0.7818608E-02  0.8964735E-01
          2   -1    0    0  501    0  0.00000000000E+00  0.00000000000E+00  0.37653944609E+03  0.37653944610E+03  0.25500000000E-02 0.  1.
         -2   -1    0    0    0  501 -0.00000000000E+00 -0.00000000000E+00 -0.12736218161E+04  0.12736218161E+04  0.25500000000E-02 0. -1.
    5000001    1    1    2    0    0  0.15661080727E+03 -0.59812445761E+03 -0.16237797108E+03  0.66951282082E+03  0.19900000000E+03 0.  0.
   -5000001    1    1    2    0    0 -0.15661080727E+03  0.59812445761E+03 -0.73470439890E+03  0.98064844134E+03  0.19900000000E+03 0.  0.
<mgrwt>
<rscale>  0 0.13850182E+04</rscale>
<asrwt>0</asrwt>
<pdfrwt beam="1">  1        2 0.53791350E-01 0.13850182E+04</pdfrwt>
<pdfrwt beam="2">  1       -2 0.18194597E+00 0.13850182E+04</pdfrwt>
<totfact> 0.15861762E+01</totfact>
</mgrwt>
</event>
<event>
 4    1  0.5131465E-005  0.4273831E+03  0.7818608E-02  0.1034690E+00
         -2   -1    0    0    0  501 -0.00000000000E+00  0.00000000000E+00  0.16464523679E+02  0.16464523876E+02  0.25500000000E-02 0. -1.
          2   -1    0    0  501    0  0.00000000000E+00 -0.00000000000E+00 -0.27734835584E+04  0.27734835584E+04  0.25500000000E-02 0.  1.
    5000001    1    1    2    0    0 -0.67476781038E+02 -0.38776819001E+02 -0.13949314067E+04  0.14112021071E+04  0.19900000000E+03 0.  0.
   -5000001    1    1    2    0    0  0.67476781038E+02  0.38776819001E+02 -0.13620876279E+04  0.13787459751E+04  0.19900000000E+03 0.  0.
<mgrwt>
<rscale>  0 0.42738313E+03</rscale>
<asrwt>0</asrwt>
<pdfrwt beam="1">  1        2 0.39621164E+00 0.42738313E+03</pdfrwt>
<pdfrwt beam="2">  1       -2 0.23520766E-02 0.42738313E+03</pdfrwt>
<totfact> 0.21883100E+03</totfact>
</mgrwt>
</event>
<event>
 4    1  0.5131465E-005  0.8841345E+03  0.7818608E-02  0.9445634E-01
          2   -1    0    0  501    0  0.00000000000E+00  0.00000000000E+00  0.55257432492E+03  0.55257432493E+03  0.25500000000E-02 0.  1.
         -2   -1    0    0    0  501 -0.00000000000E+00 -0.00000000000E+00 -0.35366003126E+03  0.35366003127E+03  0.25500000000E-02 0. -1.
    5000001    1    1    2    0    0  0.29200173372E+03  0.25994968034E+03  0.15544486819E+03  0.46540622670E+03  0.19900000000E+03 0.  0.
   -5000001    1    1    2    0    0 -0.29200173372E+03 -0.25994968034E+03  0.43469425476E+02  0.44082812950E+03  0.19900000000E+03 0.  0.
<mgrwt>
<rscale>  0 0.88413450E+03</rscale>
<asrwt>0</asrwt>
<pdfrwt beam="1">  1        2 0.78939188E-01 0.88413450E+03</pdfrwt>
<pdfrwt beam="2">  1       -2 0.50522862E-01 0.88413450E+03</pdfrwt>
<totfact> 0.22228497E+02</totfact>
</mgrwt>
</event>
<event>
 4    1  0.5131465E-005  0.5118598E+03  0.7818608E-02  0.1010729E+00
          2   -1    0    0  501    0  0.00000000000E+00  0.00000000000E+00  0.54752048488E+03  0.54752048489E+03  0.25500000000E-02 0.  1.
         -2   -1    0    0    0  501 -0.00000000000E+00 -0.00000000000E+00 -0.11963042577E+03  0.11963042579E+03  0.25500000000E-02 0. -1.
    5000001    1    1    2    0    0  0.11911747110E+03  0.10655016504E+03  0.23857865198E+03  0.34937470253E+03  0.19900000000E+03 0.  0.
   -5000001    1    1    2    0    0 -0.11911747110E+03 -0.10655016504E+03  0.18931140714E+03  0.31777620815E+03  0.19900000000E+03 0.  0.
<mgrwt>
<rscale>  0 0.51185978E+03</rscale>
<asrwt>0</asrwt>
<pdfrwt beam="1">  1        2 0.78217209E-01 0.51185978E+03</pdfrwt>
<pdfrwt beam="2">  1       -2 0.17090061E-01 0.51185978E+03</pdfrwt>
<totfact> 0.16900622E+03</totfact>
</mgrwt>
</event>
<event>
 4    1  0.5131465E-005  0.4716628E+03  0.7818608E-02  0.1021452E+00
          2   -1    0    0  501    0  0.00000000000E+00  0.00000000000E+00  0.59723443562E+03  0.59723443563E+03  0.25500000000E-02 0.  1.
         -2   -1    0    0    0  501 -0.00000000000E+00 -0.00000000000E+00 -0.93123319721E+02  0.93123319756E+02  0.25500000000E-02 0. -1.
    5000001    1    1    2    0    0  0.91843193515E+02 -0.79541942742E+02  0.30387354788E+03  0.38301726587E+03  0.19900000000E+03 0.  0.
   -5000001    1    1    2    0    0 -0.91843193515E+02  0.79541942742E+02  0.20023756802E+03  0.30734048952E+03  0.19900000000E+03 0.  0.
<mgrwt>
<rscale>  0 0.47166282E+03</rscale>
<asrwt>0</asrwt>
<pdfrwt beam="1">  1        2 0.85319201E-01 0.47166282E+03</pdfrwt>
<pdfrwt beam="2">  1       -2 0.13303332E-01 0.47166282E+03</pdfrwt>
<totfact> 0.23254722E+03</totfact>
</mgrwt>
</event>
<event>
 4    1  0.5131465E-005  0.4844297E+03  0.7818608E-02  0.1017925E+00
          2   -1    0    0  501    0  0.00000000000E+00  0.00000000000E+00  0.28158472103E+04  0.28158472103E+04  0.25500000000E-02 0.  1.
         -2   -1    0    0    0  501 -0.00000000000E+00 -0.00000000000E+00 -0.20834949530E+02  0.20834949686E+02  0.25500000000E-02 0. -1.
    5000001    1    1    2    0    0  0.11692492996E+03  0.73191458062E+02  0.13611224139E+04  0.13824918280E+04  0.19900000000E+03 0.  0.
   -5000001    1    1    2    0    0 -0.11692492996E+03 -0.73191458062E+02  0.14338898468E+04  0.14541903320E+04  0.19900000000E+03 0.  0.
<mgrwt>
<rscale>  0 0.48442970E+03</rscale>
<asrwt>0</asrwt>
<pdfrwt beam="1">  1        2 0.40226415E+00 0.48442970E+03</pdfrwt>
<pdfrwt beam="2">  1       -2 0.29764194E-02 0.48442970E+03</pdfrwt>
<totfact> 0.14527939E+03</totfact>
</mgrwt>
</event>
<event>
 4    1  0.5131465E-005  0.8397008E+03  0.7818608E-02  0.9504265E-01
         -2   -1    0    0    0  501 -0.00000000000E+00  0.00000000000E+00  0.13959782140E+03  0.13959782142E+03  0.25500000000E-02 0. -1.
          2   -1    0    0  501    0  0.00000000000E+00 -0.00000000000E+00 -0.12627300567E+04  0.12627300567E+04  0.25500000000E-02 0.  1.
    5000001    1    1    2    0    0 -0.10826109879E+02 -0.36917691422E+03 -0.58873002589E+03  0.72291966500E+03  0.19900000000E+03 0.  0.
   -5000001    1    1    2    0    0  0.10826109879E+02  0.36917691422E+03 -0.53440220944E+03  0.67940821316E+03  0.19900000000E+03 0.  0.
<mgrwt>
<rscale>  0 0.83970082E+03</rscale>
<asrwt>0</asrwt>
<pdfrwt beam="1">  1        2 0.18039000E+00 0.83970082E+03</pdfrwt>
<pdfrwt beam="2">  1       -2 0.19942547E-01 0.83970082E+03</pdfrwt>
<totfact> 0.42356302E+02</totfact>
</mgrwt>
</event>
<event>
 4    1  0.5131465E-005  0.5389417E+03  0.7818608E-02  0.1004086E+00
         -2   -1    0    0    0  501 -0.00000000000E+00  0.00000000000E+00  0.57922704455E+02  0.57922704511E+02  0.25500000000E-02 0. -1.
          2   -1    0    0  501    0  0.00000000000E+00 -0.00000000000E+00 -0.12536454581E+04  0.12536454581E+04  0.25500000000E-02 0.  1.
    5000001    1    1    2    0    0 -0.14582229621E+03  0.96578884225E+01 -0.33512145515E+03  0.41625089379E+03  0.19900000000E+03 0.  0.
   -5000001    1    1    2    0    0  0.14582229621E+03 -0.96578884225E+01 -0.86060129854E+03  0.89531726887E+03  0.19900000000E+03 0.  0.
<mgrwt>
<rscale>  0 0.53894169E+03</rscale>
<asrwt>0</asrwt>
<pdfrwt beam="1">  1        2 0.17909219E+00 0.53894169E+03</pdfrwt>
<pdfrwt beam="2">  1       -2 0.82746729E-02 0.53894169E+03</pdfrwt>
<totfact> 0.18733881E+03</totfact>
</mgrwt>
</event>
<event>
 4    1  0.5131465E-005  0.5221178E+03  0.7818608E-02  0.1008162E+00
          2   -1    0    0  501    0  0.00000000000E+00  0.00000000000E+00  0.14974990281E+04  0.14974990281E+04  0.25500000000E-02 0.  1.
         -2   -1    0    0    0  501 -0.00000000000E+00 -0.00000000000E+00 -0.45510376832E+02  0.45510376903E+02  0.25500000000E-02 0. -1.
    5000001    1    1    2    0    0  0.13411850181E+03  0.10231859347E+03  0.69736032177E+03  0.74455979308E+03  0.19900000000E+03 0.  0.
   -5000001    1    1    2    0    0 -0.13411850181E+03 -0.10231859347E+03  0.75462832953E+03  0.79844961195E+03  0.19900000000E+03 0.  0.
<mgrwt>
<rscale>  0 0.52211778E+03</rscale>
<asrwt>0</asrwt>
<pdfrwt beam="1">  1        2 0.21392843E+00 0.52211778E+03</pdfrwt>
<pdfrwt beam="2">  1       -2 0.65014825E-02 0.52211778E+03</pdfrwt>
<totfact> 0.20349672E+03</totfact>
</mgrwt>
</event>
<event>
 4    1  0.5131465E-005  0.7401089E+03  0.7818608E-02  0.9650997E-01
          2   -1    0    0  501    0  0.00000000000E+00  0.00000000000E+00  0.11571445789E+03  0.11571445792E+03  0.25500000000E-02 0.  1.
         -2   -1    0    0    0  501 -0.00000000000E+00 -0.00000000000E+00 -0.11834330059E+04  0.11834330059E+04  0.25500000000E-02 0. -1.
    5000001    1    1    2    0    0  0.23883363538E+03  0.18702024820E+03 -0.40581244644E+03  0.54433704661E+03  0.19900000000E+03 0.  0.
   -5000001    1    1    2    0    0 -0.23883363538E+03 -0.18702024820E+03 -0.66190610154E+03  0.75481041718E+03  0.19900000000E+03 0.  0.
<mgrwt>
<rscale>  0 0.74010893E+03</rscale>
<asrwt>0</asrwt>
<pdfrwt beam="1">  1        2 0.16530638E-01 0.74010893E+03</pdfrwt>
<pdfrwt beam="2">  1       -2 0.16906185E+00 0.74010893E+03</pdfrwt>
<totfact> 0.78213094E+01</totfact>
</mgrwt>
</event>
<event>
 4    1  0.5131465E-005  0.6254900E+03  0.7818608E-02  0.9853889E-01
          2   -1    0    0  501    0  0.00000000000E+00  0.00000000000E+00  0.14658276875E+04  0.14658276875E+04  0.25500000000E-02 0.  1.
         -2   -1    0    0    0  501 -0.00000000000E+00 -0.00000000000E+00 -0.66726419416E+02  0.66726419465E+02  0.25500000000E-02 0. -1.
    5000001    1    1    2    0    0  0.85094258062E+02  0.20944330855E+03  0.90601835984E+03  0.95476583549E+03  0.19900000000E+03 0.  0.
   -5000001    1    1    2    0    0 -0.85094258062E+02 -0.20944330855E+03  0.49308290823E+03  0.57778827147E+03  0.19900000000E+03 0.  0.
<mgrwt>
<rscale>  0 0.62548999E+03</rscale>
<asrwt>0</asrwt>
<pdfrwt beam="1">  1        2 0.20940394E+00 0.62548999E+03</pdfrwt>
<pdfrwt beam="2">  1       -2 0.95323463E-02 0.62548999E+03</pdfrwt>
<totfact> 0.11461573E+03</totfact>
</mgrwt>
</event>
<event>
 4    1  0.5131465E-005  0.7631992E+03  0.7818608E-02  0.9614867E-01
         -2   -1    0    0    0  501 -0.00000000000E+00  0.00000000000E+00  0.86420755511E+02  0.86420755549E+02  0.25500000000E-02 0. -1.
          2   -1    0    0  501    0  0.00000000000E+00 -0.00000000000E+00 -0.16849918074E+04  0.16849918074E+04  0.25500000000E-02 0.  1.
    5000001    1    1    2    0    0  0.38785993641E+02 -0.28348598118E+03 -0.11599703499E+04  0.12111981124E+04  0.19900000000E+03 0.  0.
   -5000001    1    1    2    0    0 -0.38785993641E+02  0.28348598118E+03 -0.43860070202E+03  0.56021445058E+03  0.19900000000E+03 0.  0.
<mgrwt>
<rscale>  0 0.76319923E+03</rscale>
<asrwt>0</asrwt>
<pdfrwt beam="1">  1        2 0.24071310E+00 0.76319923E+03</pdfrwt>
<pdfrwt beam="2">  1       -2 0.12345823E-01 0.76319923E+03</pdfrwt>
<totfact> 0.57408106E+02</totfact>
</mgrwt>
</event>
<event>
 4    1  0.5131465E-005  0.7313880E+03  0.7818608E-02  0.9665011E-01
         -2   -1    0    0    0  501 -0.00000000000E+00  0.00000000000E+00  0.25851231494E+03  0.25851231496E+03  0.25500000000E-02 0.  1.
          2   -1    0    0  501    0  0.00000000000E+00 -0.00000000000E+00 -0.51731423847E+03  0.51731423848E+03  0.25500000000E-02 0. -1.
    5000001    1    1    2    0    0 -0.14683150120E+03 -0.99392995283E+02 -0.39499914684E+03  0.47651210190E+03  0.19900000000E+03 0.  0.
   -5000001    1    1    2    0    0  0.14683150120E+03  0.99392995283E+02  0.13619722331E+03  0.29931445153E+03  0.19900000000E+03 0.  0.
<mgrwt>
<rscale>  0 0.73138800E+03</rscale>
<asrwt>0</asrwt>
<pdfrwt beam="1">  1        2 0.73902033E-01 0.73138800E+03</pdfrwt>
<pdfrwt beam="2">  1       -2 0.36930331E-01 0.73138800E+03</pdfrwt>
<totfact> 0.44852362E+02</totfact>
</mgrwt>
</event>
<event>
 4    1  0.5131465E-005  0.4886668E+03  0.7818608E-02  0.1016780E+00
         -2   -1    0    0    0  501 -0.00000000000E+00  0.00000000000E+00  0.91286832699E+02  0.91286832735E+02  0.25500000000E-02 0. -1.
          2   -1    0    0  501    0  0.00000000000E+00 -0.00000000000E+00 -0.65396955625E+03  0.65396955626E+03  0.25500000000E-02 0.  1.
    5000001    1    1    2    0    0 -0.94591905086E+02 -0.10477829563E+03 -0.26135816085E+03  0.35754049838E+03  0.19900000000E+03 0.  0.
   -5000001    1    1    2    0    0  0.94591905086E+02  0.10477829563E+03 -0.30132456270E+03  0.38771589061E+03  0.19900000000E+03 0.  0.
<mgrwt>
<rscale>  0 0.48866680E+03</rscale>
<asrwt>0</asrwt>
<pdfrwt beam="1">  1        2 0.93424220E-01 0.48866680E+03</pdfrwt>
<pdfrwt beam="2">  1       -2 0.13040976E-01 0.48866680E+03</pdfrwt>
<totfact> 0.21600465E+03</totfact>
</mgrwt>
</event>
<event>
 4    1  0.5131465E-005  0.4220985E+03  0.7818608E-02  0.1036385E+00
          2   -1    0    0  501    0  0.00000000000E+00  0.00000000000E+00  0.20014357697E+04  0.20014357697E+04  0.25500000000E-02 0.  1.
         -2   -1    0    0    0  501 -0.00000000000E+00 -0.00000000000E+00 -0.22254913618E+02  0.22254913764E+02  0.25500000000E-02 0. -1.
    5000001    1    1    2    0    0  0.39469409409E+02  0.52220281419E+02  0.11123847766E+04  0.11319389044E+04  0.19900000000E+03 0.  0.
   -5000001    1    1    2    0    0 -0.39469409409E+02 -0.52220281419E+02  0.86679607947E+03  0.89175177906E+03  0.19900000000E+03 0.  0.
<mgrwt>
<rscale>  0 0.42209847E+03</rscale>
<asrwt>0</asrwt>
<pdfrwt beam="1">  1        2 0.28591966E+00 0.42209847E+03</pdfrwt>
<pdfrwt beam="2">  1       -2 0.31792705E-02 0.42209847E+03</pdfrwt>
<totfact> 0.34134522E+03</totfact>
</mgrwt>
</event>
<event>
 4    1  0.5131465E-005  0.7063056E+03  0.7818608E-02  0.9706509E-01
          2   -1    0    0  501    0  0.00000000000E+00  0.00000000000E+00  0.38939044313E+03  0.38939044313E+03  0.25500000000E-02 0.  1.
         -2   -1    0    0    0  501 -0.00000000000E+00 -0.00000000000E+00 -0.32028754780E+03  0.32028754781E+03  0.25500000000E-02 0. -1.
    5000001    1    1    2    0    0  0.49187674469E+02 -0.26654120633E+03 -0.73909627563E+02  0.34427790379E+03  0.19900000000E+03 0.  0.
   -5000001    1    1    2    0    0 -0.49187674469E+02  0.26654120633E+03  0.14301252289E+03  0.36540008716E+03  0.19900000000E+03 0.  0.
<mgrwt>
<rscale>  0 0.70630563E+03</rscale>
<asrwt>0</asrwt>
<pdfrwt beam="1">  1        2 0.55627206E-01 0.70630563E+03</pdfrwt>
<pdfrwt beam="2">  1       -2 0.45755364E-01 0.70630563E+03</pdfrwt>
<totfact> 0.40673864E+02</totfact>
</mgrwt>
</event>
<event>
 4    1  0.5131465E-005  0.7069873E+03  0.7818608E-02  0.9705357E-01
         -2   -1    0    0    0  501 -0.00000000000E+00  0.00000000000E+00  0.88897926293E+02  0.88897926329E+02  0.25500000000E-02 0. -1.
          2   -1    0    0  501    0  0.00000000000E+00 -0.00000000000E+00 -0.14056317863E+04  0.14056317863E+04  0.25500000000E-02 0.  1.
    5000001    1    1    2    0    0 -0.18942222630E+03 -0.22021675939E+03 -0.72456233415E+03  0.80558536295E+03  0.19900000000E+03 0.  0.
   -5000001    1    1    2    0    0  0.18942222630E+03  0.22021675939E+03 -0.59217152589E+03  0.68894434972E+03  0.19900000000E+03 0.  0.
<mgrwt>
<rscale>  0 0.70698727E+03</rscale>
<asrwt>0</asrwt>
<pdfrwt beam="1">  1        2 0.20080453E+00 0.70698727E+03</pdfrwt>
<pdfrwt beam="2">  1       -2 0.12699705E-01 0.70698727E+03</pdfrwt>
<totfact> 0.76849927E+02</totfact>
</mgrwt>
</event>
<event>
 4    1  0.5131465E-005  0.5352348E+03  0.7818608E-02  0.1004970E+00
          2   -1    0    0  501    0  0.00000000000E+00  0.00000000000E+00  0.24495491710E+03  0.24495491711E+03  0.25500000000E-02 0.  1.
         -2   -1    0    0    0  501 -0.00000000000E+00 -0.00000000000E+00 -0.29237654461E+03  0.29237654462E+03  0.25500000000E-02 0. -1.
    5000001    1    1    2    0    0  0.14529762195E+03  0.99940198377E+02 -0.54138452721E+02  0.27135109039E+03  0.19900000000E+03 0.  0.
   -5000001    1    1    2    0    0 -0.14529762195E+03 -0.99940198377E+02  0.67168252093E+01  0.26598037133E+03  0.19900000000E+03 0.  0.
<mgrwt>
<rscale>  0 0.53523480E+03</rscale>
<asrwt>0</asrwt>
<pdfrwt beam="1">  1        2 0.34993560E-01 0.53523480E+03</pdfrwt>
<pdfrwt beam="2">  1       -2 0.41768078E-01 0.53523480E+03</pdfrwt>
<totfact> 0.81586101E+02</totfact>
</mgrwt>
</event>
<event>
 4    1  0.5131465E-005  0.4490858E+03  0.7818608E-02  0.1027995E+00
         -2   -1    0    0    0  501 -0.00000000000E+00  0.00000000000E+00  0.95879716673E+02  0.95879716707E+02  0.25500000000E-02 0. -1.
          2   -1    0    0  501    0  0.00000000000E+00 -0.00000000000E+00 -0.52586207348E+03  0.52586207349E+03  0.25500000000E-02 0.  1.
    5000001    1    1    2    0    0 -0.84673166725E+02  0.59498979239E+02 -0.22943429560E+03  0.32085942357E+03  0.19900000000E+03 0.  0.
   -5000001    1    1    2    0    0  0.84673166725E+02 -0.59498979239E+02 -0.20054806121E+03  0.30088236663E+03  0.19900000000E+03 0.  0.
<mgrwt>
<rscale>  0 0.44908577E+03</rscale>
<asrwt>0</asrwt>
<pdfrwt beam="1">  1        2 0.75123151E-01 0.44908577E+03</pdfrwt>
<pdfrwt beam="2">  1       -2 0.13697103E-01 0.44908577E+03</pdfrwt>
<totfact> 0.25639695E+03</totfact>
</mgrwt>
</event>
<event>
 4    1  0.5131465E-005  0.5766587E+03  0.7818608E-02  0.9955051E-01
          2   -1    0    0  501    0  0.00000000000E+00  0.00000000000E+00  0.53287167912E+03  0.53287167912E+03  0.25500000000E-02 0.  1.
         -2   -1    0    0    0  501 -0.00000000000E+00 -0.00000000000E+00 -0.15601092221E+03  0.15601092223E+03  0.25500000000E-02 0. -1.
    5000001    1    1    2    0    0  0.20674757898E+03  0.24594381824E+02  0.17225422651E+03  0.33559195995E+03  0.19900000000E+03 0.  0.
   -5000001    1    1    2    0    0 -0.20674757898E+03 -0.24594381824E+02  0.20460653039E+03  0.35329064141E+03  0.19900000000E+03 0.  0.
<mgrwt>
<rscale>  0 0.57665866E+03</rscale>
<asrwt>0</asrwt>
<pdfrwt beam="1">  1        2 0.76124526E-01 0.57665866E+03</pdfrwt>
<pdfrwt beam="2">  1       -2 0.22287275E-01 0.57665866E+03</pdfrwt>
<totfact> 0.11003877E+03</totfact>
</mgrwt>
</event>
<event>
 4    1  0.5131465E-005  0.8667924E+03  0.7818608E-02  0.9468072E-01
         -2   -1    0    0    0  501 -0.00000000000E+00  0.00000000000E+00  0.22420569086E+03  0.22420569087E+03  0.25500000000E-02 0. -1.
          2   -1    0    0  501    0  0.00000000000E+00 -0.00000000000E+00 -0.83776761989E+03  0.83776761989E+03  0.25500000000E-02 0.  1.
    5000001    1    1    2    0    0 -0.20360123730E+03  0.31620966656E+03 -0.40773168810E+03  0.58931158698E+03  0.19900000000E+03 0.  0.
   -5000001    1    1    2    0    0  0.20360123730E+03 -0.31620966656E+03 -0.20583024093E+03  0.47266172379E+03  0.19900000000E+03 0.  0.
<mgrwt>
<rscale>  0 0.86679240E+03</rscale>
<asrwt>0</asrwt>
<pdfrwt beam="1">  1        2 0.11968109E+00 0.86679240E+03</pdfrwt>
<pdfrwt beam="2">  1       -2 0.32029385E-01 0.86679240E+03</pdfrwt>
<totfact> 0.32488324E+02</totfact>
</mgrwt>
</event>
<event>
 4    1  0.5131465E-005  0.4510248E+03  0.7818608E-02  0.1027417E+00
         -2   -1    0    0    0  501 -0.00000000000E+00  0.00000000000E+00  0.22529093622E+03  0.22529093623E+03  0.25500000000E-02 0. -1.
          2   -1    0    0  501    0  0.00000000000E+00 -0.00000000000E+00 -0.22573412513E+03  0.22573412514E+03  0.25500000000E-02 0.  1.
    5000001    1    1    2    0    0 -0.12035378208E+02 -0.10429780518E+03  0.15008970959E+02  0.22549756474E+03  0.19900000000E+03 0.  0.
   -5000001    1    1    2    0    0  0.12035378208E+02  0.10429780518E+03 -0.15452159870E+02  0.22552749664E+03  0.19900000000E+03 0.  0.
<mgrwt>
<rscale>  0 0.45102484E+03</rscale>
<asrwt>0</asrwt>
<pdfrwt beam="1">  1        2 0.32247732E-01 0.45102484E+03</pdfrwt>
<pdfrwt beam="2">  1       -2 0.32184419E-01 0.45102484E+03</pdfrwt>
<totfact> 0.14666305E+03</totfact>
</mgrwt>
</event>
<event>
 4    1  0.5131465E-005  0.4318207E+03  0.7818608E-02  0.1033286E+00
         -2   -1    0    0    0  501 -0.00000000000E+00  0.00000000000E+00  0.57329107228E+03  0.57329107229E+03  0.25500000000E-02 0. -1.
          2   -1    0    0  501    0  0.00000000000E+00 -0.00000000000E+00 -0.81315214306E+02  0.81315214346E+02  0.25500000000E-02 0.  1.
    5000001    1    1    2    0    0  0.74185460158E+02  0.37894586135E+02  0.23270269108E+03  0.31731849079E+03  0.19900000000E+03 0.  0.
   -5000001    1    1    2    0    0 -0.74185460158E+02 -0.37894586135E+02  0.25927316689E+03  0.33728779585E+03  0.19900000000E+03 0.  0.
<mgrwt>
<rscale>  0 0.43182073E+03</rscale>
<asrwt>0</asrwt>
<pdfrwt beam="1">  1        2 0.11616459E-01 0.43182073E+03</pdfrwt>
<pdfrwt beam="2">  1       -2 0.81898723E-01 0.43182073E+03</pdfrwt>
<totfact> 0.72439506E+02</totfact>
</mgrwt>
</event>
<event>
 4    1  0.5131465E-005  0.7070542E+03  0.7818608E-02  0.9705244E-01
         -2   -1    0    0    0  501 -0.00000000000E+00  0.00000000000E+00  0.11237760459E+03  0.11237760462E+03  0.25500000000E-02 0. -1.
          2   -1    0    0  501    0  0.00000000000E+00 -0.00000000000E+00 -0.11121557286E+04  0.11121557286E+04  0.25500000000E-02 0.  1.
    5000001    1    1    2    0    0  0.56471926771E+02 -0.18671663220E+03 -0.87666052630E+03  0.91988415446E+03  0.19900000000E+03 0.  0.
   -5000001    1    1    2    0    0 -0.56471926771E+02  0.18671663220E+03 -0.12311759772E+03  0.30464917876E+03  0.19900000000E+03 0.  0.
<mgrwt>
<rscale>  0 0.70705416E+03</rscale>
<asrwt>0</asrwt>
<pdfrwt beam="1">  1        2 0.15887938E+00 0.70705416E+03</pdfrwt>
<pdfrwt beam="2">  1       -2 0.16053944E-01 0.70705416E+03</pdfrwt>
<totfact> 0.75409615E+02</totfact>
</mgrwt>
</event>
<event>
 4    1  0.5131465E-005  0.5468632E+03  0.7818608E-02  0.1002223E+00
         -2   -1    0    0    0  501 -0.00000000000E+00  0.00000000000E+00  0.45036665676E+02  0.45036665749E+02  0.25500000000E-02 0. -1.
          2   -1    0    0  501    0  0.00000000000E+00 -0.00000000000E+00 -0.16600882113E+04  0.16600882113E+04  0.25500000000E-02 0.  1.
    5000001    1    1    2    0    0  0.11541550631E+03 -0.71013107778E+02 -0.12116689065E+04  0.12353566852E+04  0.19900000000E+03 0.  0.
   -5000001    1    1    2    0    0 -0.11541550631E+03  0.71013107778E+02 -0.40338263912E+03  0.46976819190E+03  0.19900000000E+03 0.  0.
<mgrwt>
<rscale>  0 0.54686319E+03</rscale>
<asrwt>0</asrwt>
<pdfrwt beam="1">  1        2 0.23715542E+00 0.54686319E+03</pdfrwt>
<pdfrwt beam="2">  1       -2 0.64338104E-02 0.54686319E+03</pdfrwt>
<totfact> 0.17057056E+03</totfact>
</mgrwt>
</event>
<event>
 4    1  0.5131465E-005  0.7322663E+03  0.7818608E-02  0.9663590E-01
          2   -1    0    0  501    0  0.00000000000E+00  0.00000000000E+00  0.15239891193E+04  0.15239891193E+04  0.25500000000E-02 0.  1.
         -2   -1    0    0    0  501 -0.00000000000E+00 -0.00000000000E+00 -0.87962232839E+02  0.87962232876E+02  0.25500000000E-02 0. -1.
    5000001    1    1    2    0    0  0.30098428000E+03 -0.12199806522E+02  0.58389345261E+03  0.68649321635E+03  0.19900000000E+03 0.  0.
   -5000001    1    1    2    0    0 -0.30098428000E+03  0.12199806522E+02  0.85213343381E+03  0.92545813579E+03  0.19900000000E+03 0.  0.
<mgrwt>
<rscale>  0 0.73226631E+03</rscale>
<asrwt>0</asrwt>
<pdfrwt beam="1">  1        2 0.21771273E+00 0.73226631E+03</pdfrwt>
<pdfrwt beam="2">  1       -2 0.12566033E-01 0.73226631E+03</pdfrwt>
<totfact> 0.67653112E+02</totfact>
</mgrwt>
</event>
<event>
 4    1  0.5131465E-005  0.6339636E+03  0.7818608E-02  0.9837344E-01
          2   -1    0    0  501    0  0.00000000000E+00  0.00000000000E+00  0.16493762505E+04  0.16493762505E+04  0.25500000000E-02 0.  1.
         -2   -1    0    0    0  501 -0.00000000000E+00 -0.00000000000E+00 -0.60918462534E+02  0.60918462587E+02  0.25500000000E-02 0. -1.
    5000001    1    1    2    0    0 -0.71325899064E+01 -0.22553500036E+03  0.52499694674E+03  0.60509478953E+03  0.19900000000E+03 0.  0.
   -5000001    1    1    2    0    0  0.71325899064E+01  0.22553500036E+03  0.10634608413E+04  0.11051999236E+04  0.19900000000E+03 0.  0.
<mgrwt>
<rscale>  0 0.63396361E+03</rscale>
<asrwt>0</asrwt>
<pdfrwt beam="1">  1        2 0.23562519E+00 0.63396361E+03</pdfrwt>
<pdfrwt beam="2">  1       -2 0.87026370E-02 0.63396361E+03</pdfrwt>
<totfact> 0.10659202E+03</totfact>
</mgrwt>
</event>
<event>
 4    1  0.5131465E-005  0.6164118E+03  0.7818608E-02  0.9871930E-01
         -2   -1    0    0    0  501 -0.00000000000E+00  0.00000000000E+00  0.63890910732E+02  0.63890910783E+02  0.25500000000E-02 0. -1.
          2   -1    0    0  501    0  0.00000000000E+00 -0.00000000000E+00 -0.14867667822E+04  0.14867667822E+04  0.25500000000E-02 0.  1.
    5000001    1    1    2    0    0  0.17019935130E+03 -0.15500692410E+03 -0.58832879180E+03  0.66236450159E+03  0.19900000000E+03 0.  0.
   -5000001    1    1    2    0    0 -0.17019935130E+03  0.15500692410E+03 -0.83454707970E+03  0.88829319142E+03  0.19900000000E+03 0.  0.
<mgrwt>
<rscale>  0 0.61641182E+03</rscale>
<asrwt>0</asrwt>
<pdfrwt beam="1">  1        2 0.21239523E+00 0.61641182E+03</pdfrwt>
<pdfrwt beam="2">  1       -2 0.91272739E-02 0.61641182E+03</pdfrwt>
<totfact> 0.11990742E+03</totfact>
</mgrwt>
</event>
<event>
 4    1  0.5131465E-005  0.4081075E+03  0.7818608E-02  0.1041008E+00
         -2   -1    0    0    0  501 -0.00000000000E+00  0.00000000000E+00  0.39483687701E+02  0.39483687784E+02  0.25500000000E-02 0. -1.
          2   -1    0    0  501    0  0.00000000000E+00 -0.00000000000E+00 -0.10545602938E+04  0.10545602938E+04  0.25500000000E-02 0.  1.
    5000001    1    1    2    0    0  0.17485786714E+02 -0.23155744458E+02 -0.60020891184E+03  0.63300369595E+03  0.19900000000E+03 0.  0.
   -5000001    1    1    2    0    0 -0.17485786714E+02  0.23155744458E+02 -0.41486769427E+03  0.46104028565E+03  0.19900000000E+03 0.  0.
<mgrwt>
<rscale>  0 0.40810748E+03</rscale>
<asrwt>0</asrwt>
<pdfrwt beam="1">  1        2 0.15065145E+00 0.40810748E+03</pdfrwt>
<pdfrwt beam="2">  1       -2 0.56405274E-02 0.40810748E+03</pdfrwt>
<totfact> 0.44282424E+03</totfact>
</mgrwt>
</event>
<event>
 4    1  0.5131465E-005  0.4192574E+03  0.7818608E-02  0.1037308E+00
          2   -1    0    0  501    0  0.00000000000E+00  0.00000000000E+00  0.17340252571E+04  0.17340252571E+04  0.25500000000E-02 0.  1.
         -2   -1    0    0    0  501 -0.00000000000E+00 -0.00000000000E+00 -0.25342301952E+02  0.25342302080E+02  0.25500000000E-02 0. -1.
    5000001    1    1    2    0    0 -0.20403471579E+02  0.61196434774E+02  0.91093621687E+03  0.93464811372E+03  0.19900000000E+03 0.  0.
   -5000001    1    1    2    0    0  0.20403471579E+02 -0.61196434774E+02  0.79774673824E+03  0.82471944542E+03  0.19900000000E+03 0.  0.
<mgrwt>
<rscale>  0 0.41925740E+03</rscale>
<asrwt>0</asrwt>
<pdfrwt beam="1">  1        2 0.24771792E+00 0.41925740E+03</pdfrwt>
<pdfrwt beam="2">  1       -2 0.36203285E-02 0.41925740E+03</pdfrwt>
<totfact> 0.38090352E+03</totfact>
</mgrwt>
</event>
<event>
 4    1  0.5131465E-005  0.4919655E+03  0.7818608E-02  0.1015898E+00
          2   -1    0    0  501    0  0.00000000000E+00  0.00000000000E+00  0.10302104353E+04  0.10302104353E+04  0.25500000000E-02 0.  1.
         -2   -1    0    0    0  501 -0.00000000000E+00 -0.00000000000E+00 -0.58733154520E+02  0.58733154575E+02  0.25500000000E-02 0. -1.
    5000001    1    1    2    0    0  0.71648463191E+01 -0.10080234736E+03  0.71463667759E+03  0.74867818802E+03  0.19900000000E+03 0.  0.
   -5000001    1    1    2    0    0 -0.71648463191E+01  0.10080234736E+03  0.25684060319E+03  0.34026540186E+03  0.19900000000E+03 0.  0.
<mgrwt>
<rscale>  0 0.49196548E+03</rscale>
<asrwt>0</asrwt>
<pdfrwt beam="1">  1        2 0.14717291E+00 0.49196548E+03</pdfrwt>
<pdfrwt beam="2">  1       -2 0.83904514E-02 0.49196548E+03</pdfrwt>
<totfact> 0.24580820E+03</totfact>
</mgrwt>
</event>
<event>
 4    1  0.5131465E-005  0.7850486E+03  0.7818608E-02  0.9581914E-01
          2   -1    0    0  501    0  0.00000000000E+00  0.00000000000E+00  0.58059285270E+03  0.58059285270E+03  0.25500000000E-02 0.  1.
         -2   -1    0    0    0  501 -0.00000000000E+00 -0.00000000000E+00 -0.26537585021E+03  0.26537585022E+03  0.25500000000E-02 0. -1.
    5000001    1    1    2    0    0  0.15488370690E+03 -0.12328576248E+03 -0.13806663996E+03  0.31281262597E+03  0.19900000000E+03 0.  0.
   -5000001    1    1    2    0    0 -0.15488370690E+03  0.12328576248E+03  0.45328364245E+03  0.53315607696E+03  0.19900000000E+03 0.  0.
<mgrwt>
<rscale>  0 0.78504859E+03</rscale>
<asrwt>0</asrwt>
<pdfrwt beam="1">  1        2 0.82941835E-01 0.78504859E+03</pdfrwt>
<pdfrwt beam="2">  1       -2 0.37910836E-01 0.78504859E+03</pdfrwt>
<totfact> 0.37224449E+02</totfact>
</mgrwt>
</event>
<event>
 4    1  0.5131465E-005  0.8813615E+03  0.7818608E-02  0.9449185E-01
          2   -1    0    0  501    0  0.00000000000E+00  0.00000000000E+00  0.56513860138E+03  0.56513860139E+03  0.25500000000E-02 0.  1.
         -2   -1    0    0    0  501 -0.00000000000E+00 -0.00000000000E+00 -0.34363167416E+03  0.34363167417E+03  0.25500000000E-02 0. -1.
    5000001    1    1    2    0    0  0.37931370445E+03 -0.54990841393E+02  0.20300553830E+02  0.43233782104E+03  0.19900000000E+03 0.  0.
   -5000001    1    1    2    0    0 -0.37931370445E+03  0.54990841393E+02  0.20120637339E+03  0.47643245451E+03  0.19900000000E+03 0.  0.
<mgrwt>
<rscale>  0 0.88136150E+03</rscale>
<asrwt>0</asrwt>
<pdfrwt beam="1">  1        2 0.80734086E-01 0.88136150E+03</pdfrwt>
<pdfrwt beam="2">  1       -2 0.49090239E-01 0.88136150E+03</pdfrwt>
<totfact> 0.22958834E+02</totfact>
</mgrwt>
</event>
<event>
 4    1  0.5131465E-005  0.5854719E+03  0.7818608E-02  0.9936014E-01
          2   -1    0    0  501    0  0.00000000000E+00  0.00000000000E+00  0.31034101690E+04  0.31034101690E+04  0.25500000000E-02 0.  1.
         -2   -1    0    0    0  501 -0.00000000000E+00 -0.00000000000E+00 -0.27612959298E+02  0.27612959415E+02  0.25500000000E-02 0. -1.
    5000001    1    1    2    0    0 -0.14012790240E+02 -0.20484729832E+03  0.18733492049E+04  0.18950453866E+04  0.19900000000E+03 0.  0.
   -5000001    1    1    2    0    0  0.14012790240E+02  0.20484729832E+03  0.12024480048E+04  0.12359777418E+04  0.19900000000E+03 0.  0.
<mgrwt>
<rscale>  0 0.58547191E+03</rscale>
<asrwt>0</asrwt>
<pdfrwt beam="1">  1        2 0.44334430E+00 0.58547191E+03</pdfrwt>
<pdfrwt beam="2">  1       -2 0.39447085E-02 0.58547191E+03</pdfrwt>
<totfact> 0.65591950E+02</totfact>
</mgrwt>
</event>
<event>
 4    1  0.5131465E-005  0.5081193E+03  0.7818608E-02  0.1011681E+00
          2   -1    0    0  501    0  0.00000000000E+00  0.00000000000E+00  0.36723775826E+03  0.36723775827E+03  0.25500000000E-02 0.  1.
         -2   -1    0    0    0  501 -0.00000000000E+00 -0.00000000000E+00 -0.17576165305E+03  0.17576165307E+03  0.25500000000E-02 0. -1.
    5000001    1    1    2    0    0  0.56933672902E+01  0.15342275225E+03  0.56120840784E+02  0.25752961793E+03  0.19900000000E+03 0.  0.
   -5000001    1    1    2    0    0 -0.56933672902E+01 -0.15342275225E+03  0.13535526443E+03  0.28546979340E+03  0.19900000000E+03 0.  0.
<mgrwt>
<rscale>  0 0.50811934E+03</rscale>
<asrwt>0</asrwt>
<pdfrwt beam="1">  1        2 0.52462537E-01 0.50811934E+03</pdfrwt>
<pdfrwt beam="2">  1       -2 0.25108807E-01 0.50811934E+03</pdfrwt>
<totfact> 0.13509218E+03</totfact>
</mgrwt>
</event>
<event>
 4    1  0.5131465E-005  0.6567349E+03  0.7818608E-02  0.9794223E-01
         -2   -1    0    0    0  501 -0.00000000000E+00  0.00000000000E+00  0.16872345057E+04  0.16872345057E+04  0.25500000000E-02 0. -1.
          2   -1    0    0  501    0  0.00000000000E+00 -0.00000000000E+00 -0.63906461882E+02  0.63906461933E+02  0.25500000000E-02 0.  1.
    5000001    1    1    2    0    0  0.33899058446E+02  0.23854478695E+03  0.54274475046E+03  0.62627919149E+03  0.19900000000E+03 0.  0.
   -5000001    1    1    2    0    0 -0.33899058446E+02 -0.23854478695E+03  0.10805832934E+04  0.11248617761E+04  0.19900000000E+03 0.  0.
<mgrwt>
<rscale>  0 0.65673492E+03</rscale>
<asrwt>0</asrwt>
<pdfrwt beam="1">  1        2 0.91294947E-02 0.65673492E+03</pdfrwt>
<pdfrwt beam="2">  1       -2 0.24103350E+00 0.65673492E+03</pdfrwt>
<totfact> 0.56309131E+01</totfact>
</mgrwt>
</event>
<event>
 4    1  0.5131465E-005  0.7813973E+03  0.7818608E-02  0.9587341E-01
          2   -1    0    0  501    0  0.00000000000E+00  0.00000000000E+00  0.28275837783E+03  0.28275837784E+03  0.25500000000E-02 0.  1.
         -2   -1    0    0    0  501 -0.00000000000E+00 -0.00000000000E+00 -0.53984405499E+03  0.53984405500E+03  0.25500000000E-02 0. -1.
    5000001    1    1    2    0    0  0.17715033864E+03  0.28324411345E+03 -0.16842124885E+03  0.42376430636E+03  0.19900000000E+03 0.  0.
   -5000001    1    1    2    0    0 -0.17715033864E+03 -0.28324411345E+03 -0.88664428322E+02  0.39883812648E+03  0.19900000000E+03 0.  0.
<mgrwt>
<rscale>  0 0.78139729E+03</rscale>
<asrwt>0</asrwt>
<pdfrwt beam="1">  1        2 0.40394055E-01 0.78139729E+03</pdfrwt>
<pdfrwt beam="2">  1       -2 0.77120578E-01 0.78139729E+03</pdfrwt>
<totfact> 0.19268003E+02</totfact>
</mgrwt>
</event>
<event>
 4    1  0.5131465E-005  0.6568087E+03  0.7818608E-02  0.9794086E-01
         -2   -1    0    0    0  501 -0.00000000000E+00  0.00000000000E+00  0.22253116006E+04  0.22253116006E+04  0.25500000000E-02 0. -1.
          2   -1    0    0  501    0  0.00000000000E+00 -0.00000000000E+00 -0.48464862796E+02  0.48464862863E+02  0.25500000000E-02 0.  1.
    5000001    1    1    2    0    0 -0.21390782660E+03 -0.14599469225E+03  0.96963517463E+03  0.10231639069E+04  0.19900000000E+03 0.  0.
   -5000001    1    1    2    0    0  0.21390782660E+03  0.14599469225E+03  0.12072115631E+04  0.12506125566E+04  0.19900000000E+03 0.  0.
<mgrwt>
<rscale>  0 0.65680871E+03</rscale>
<asrwt>0</asrwt>
<pdfrwt beam="1">  1        2 0.69235494E-02 0.65680871E+03</pdfrwt>
<pdfrwt beam="2">  1       -2 0.31790177E+00 0.65680871E+03</pdfrwt>
<totfact> 0.27910370E+01</totfact>
</mgrwt>
</event>
<event>
 4    1  0.5131465E-005  0.5439020E+03  0.7818608E-02  0.1002915E+00
          2   -1    0    0  501    0  0.00000000000E+00  0.00000000000E+00  0.12602973610E+04  0.12602973610E+04  0.25500000000E-02 0.  1.
         -2   -1    0    0    0  501 -0.00000000000E+00 -0.00000000000E+00 -0.58682460735E+02  0.58682460790E+02  0.25500000000E-02 0. -1.
    5000001    1    1    2    0    0 -0.18115889077E+03 -0.10840884666E+01  0.69586844340E+03  0.74609222585E+03  0.19900000000E+03 0.  0.
   -5000001    1    1    2    0    0  0.18115889077E+03  0.10840884666E+01  0.50574645684E+03  0.57288759592E+03  0.19900000000E+03 0.  0.
<mgrwt>
<rscale>  0 0.54390201E+03</rscale>
<asrwt>0</asrwt>
<pdfrwt beam="1">  1        2 0.18004246E+00 0.54390201E+03</pdfrwt>
<pdfrwt beam="2">  1       -2 0.83832094E-02 0.54390201E+03</pdfrwt>
<totfact> 0.18193415E+03</totfact>
</mgrwt>
</event>
<event>
 4    1  0.5131465E-005  0.4619544E+03  0.7818608E-02  0.1024216E+00
         -2   -1    0    0    0  501 -0.00000000000E+00  0.00000000000E+00  0.36110706348E+03  0.36110706349E+03  0.25500000000E-02 0. -1.
          2   -1    0    0  501    0  0.00000000000E+00 -0.00000000000E+00 -0.14774143146E+03  0.14774143148E+03  0.25500000000E-02 0.  1.
    5000001    1    1    2    0    0 -0.41538024009E+02  0.95226447959E+02  0.46794667951E+02  0.22931250463E+03  0.19900000000E+03 0.  0.
   -5000001    1    1    2    0    0  0.41538024009E+02 -0.95226447959E+02  0.16657096407E+03  0.27953599035E+03  0.19900000000E+03 0.  0.
<mgrwt>
<rscale>  0 0.46195443E+03</rscale>
<asrwt>0</asrwt>
<pdfrwt beam="1">  1        2 0.21105919E-01 0.46195443E+03</pdfrwt>
<pdfrwt beam="2">  1       -2 0.51586723E-01 0.46195443E+03</pdfrwt>
<totfact> 0.94880644E+02</totfact>
</mgrwt>
</event>
<event>
 4    1  0.5131465E-005  0.4642238E+03  0.7818608E-02  0.1023563E+00
         -2   -1    0    0    0  501 -0.00000000000E+00  0.00000000000E+00  0.38881291261E+02  0.38881291344E+02  0.25500000000E-02 0. -1.
          2   -1    0    0  501    0  0.00000000000E+00 -0.00000000000E+00 -0.13856517884E+04  0.13856517884E+04  0.25500000000E-02 0.  1.
    5000001    1    1    2    0    0  0.59628119291E+01 -0.53478217971E+02 -0.10007303892E+04  0.10217425247E+04  0.19900000000E+03 0.  0.
   -5000001    1    1    2    0    0 -0.59628119291E+01  0.53478217971E+02 -0.34604010791E+03  0.40279055501E+03  0.19900000000E+03 0.  0.
<mgrwt>
<rscale>  0 0.46422379E+03</rscale>
<asrwt>0</asrwt>
<pdfrwt beam="1">  1        2 0.19795023E+00 0.46422379E+03</pdfrwt>
<pdfrwt beam="2">  1       -2 0.55544710E-02 0.46422379E+03</pdfrwt>
<totfact> 0.29787309E+03</totfact>
</mgrwt>
</event>
<event>
 4    1  0.5131465E-005  0.4472032E+03  0.7818608E-02  0.1028559E+00
          2   -1    0    0  501    0  0.00000000000E+00  0.00000000000E+00  0.31847567185E+04  0.31847567185E+04  0.25500000000E-02 0.  1.
         -2   -1    0    0    0  501 -0.00000000000E+00 -0.00000000000E+00 -0.15699058307E+02  0.15699058514E+02  0.25500000000E-02 0. -1.
    5000001    1    1    2    0    0  0.74153503805E+02  0.56728403114E+02  0.12912104374E+04  0.13097871001E+04  0.19900000000E+03 0.  0.
   -5000001    1    1    2    0    0 -0.74153503805E+02 -0.56728403114E+02  0.18778472227E+04  0.18906686769E+04  0.19900000000E+03 0.  0.
<mgrwt>
<rscale>  0 0.44720323E+03</rscale>
<asrwt>0</asrwt>
<pdfrwt beam="1">  1        2 0.45496505E+00 0.44720323E+03</pdfrwt>
<pdfrwt beam="2">  1       -2 0.22427236E-02 0.44720323E+03</pdfrwt>
<totfact> 0.14102086E+03</totfact>
</mgrwt>
</event>
<event>
 4    1  0.5131465E-005  0.5003050E+03  0.7818608E-02  0.1013699E+00
         -2   -1    0    0    0  501 -0.00000000000E+00  0.00000000000E+00  0.92863757780E+02  0.92863757815E+02  0.25500000000E-02 0. -1.
          2   -1    0    0  501    0  0.00000000000E+00 -0.00000000000E+00 -0.67385038669E+03  0.67385038670E+03  0.25500000000E-02 0.  1.
    5000001    1    1    2    0    0 -0.79128616857E+02 -0.10084134219E+03 -0.16651313246E+03  0.28940963630E+03  0.19900000000E+03 0.  0.
   -5000001    1    1    2    0    0  0.79128616857E+02  0.10084134219E+03 -0.41447349646E+03  0.47730450822E+03  0.19900000000E+03 0.  0.
<mgrwt>
<rscale>  0 0.50030502E+03</rscale>
<asrwt>0</asrwt>
<pdfrwt beam="1">  1        2 0.96264338E-01 0.50030502E+03</pdfrwt>
<pdfrwt beam="2">  1       -2 0.13266252E-01 0.50030502E+03</pdfrwt>
<totfact> 0.20259243E+03</totfact>
</mgrwt>
</event>
<event>
 4    1  0.5131465E-005  0.1059298E+04  0.7818608E-02  0.9245797E-01
          2   -1    0    0  501    0  0.00000000000E+00  0.00000000000E+00  0.16244337924E+04  0.16244337924E+04  0.25500000000E-02 0.  1.
         -2   -1    0    0    0  501 -0.00000000000E+00 -0.00000000000E+00 -0.17269272928E+03  0.17269272930E+03  0.25500000000E-02 0. -1.
    5000001    1    1    2    0    0 -0.15355711875E+02  0.23509210746E+03  0.14564075043E+04  0.14887000758E+04  0.19900000000E+03 0.  0.
   -5000001    1    1    2    0    0  0.15355711875E+02 -0.23509210746E+03 -0.46664412245E+01  0.30842644594E+03  0.19900000000E+03 0.  0.
<mgrwt>
<rscale>  0 0.10592977E+04</rscale>
<asrwt>0</asrwt>
<pdfrwt beam="1">  1        2 0.23206196E+00 0.10592977E+04</pdfrwt>
<pdfrwt beam="2">  1       -2 0.24670391E-01 0.10592977E+04</pdfrwt>
<totfact> 0.18343612E+02</totfact>
</mgrwt>
</event>
<event>
 4    1  0.5131465E-005  0.5414422E+03  0.7818608E-02  0.1003494E+00
         -2   -1    0    0    0  501 -0.00000000000E+00  0.00000000000E+00  0.25996650517E+03  0.25996650519E+03  0.25500000000E-02 0. -1.
          2   -1    0    0  501    0  0.00000000000E+00 -0.00000000000E+00 -0.28192061879E+03  0.28192061881E+03  0.25500000000E-02 0.  1.
    5000001    1    1    2    0    0  0.92740157290E+02 -0.11493909730E+03  0.98094994607E+02  0.26652459704E+03  0.19900000000E+03 0.  0.
   -5000001    1    1    2    0    0 -0.92740157290E+02  0.11493909730E+03 -0.12004910823E+03  0.27536252695E+03  0.19900000000E+03 0.  0.
<mgrwt>
<rscale>  0 0.54144221E+03</rscale>
<asrwt>0</asrwt>
<pdfrwt beam="1">  1        2 0.40274374E-01 0.54144221E+03</pdfrwt>
<pdfrwt beam="2">  1       -2 0.37138072E-01 0.54144221E+03</pdfrwt>
<totfact> 0.87634394E+02</totfact>
</mgrwt>
</event>
<event>
 4    1  0.5131465E-005  0.7040061E+03  0.7818608E-02  0.9710406E-01
         -2   -1    0    0    0  501 -0.00000000000E+00  0.00000000000E+00  0.55425077047E+02  0.55425077105E+02  0.25500000000E-02 0. -1.
          2   -1    0    0  501    0  0.00000000000E+00 -0.00000000000E+00 -0.22355608029E+04  0.22355608029E+04  0.25500000000E-02 0.  1.
    5000001    1    1    2    0    0  0.47446093325E+00  0.24258888952E+03 -0.57086492817E+03  0.65141182108E+03  0.19900000000E+03 0.  0.
   -5000001    1    1    2    0    0 -0.47446093325E+00 -0.24258888952E+03 -0.16092707977E+04  0.16395740590E+04  0.19900000000E+03 0.  0.
<mgrwt>
<rscale>  0 0.70400605E+03</rscale>
<asrwt>0</asrwt>
<pdfrwt beam="1">  1        2 0.31936577E+00 0.70400605E+03</pdfrwt>
<pdfrwt beam="2">  1       -2 0.79178696E-02 0.70400605E+03</pdfrwt>
<totfact> 0.62380758E+02</totfact>
</mgrwt>
</event>
<event>
 4    1  0.5131465E-005  0.8035724E+03  0.7818608E-02  0.9554861E-01
         -2   -1    0    0    0  501 -0.00000000000E+00  0.00000000000E+00  0.11009098224E+03  0.11009098227E+03  0.25500000000E-02 0. -1.
          2   -1    0    0  501    0  0.00000000000E+00 -0.00000000000E+00 -0.14663521730E+04  0.14663521730E+04  0.25500000000E-02 0.  1.
    5000001    1    1    2    0    0  0.19232421294E+03  0.28482454381E+03 -0.55851704172E+03  0.68531446032E+03  0.19900000000E+03 0.  0.
   -5000001    1    1    2    0    0 -0.19232421294E+03 -0.28482454381E+03 -0.79774414904E+03  0.89112869495E+03  0.19900000000E+03 0.  0.
<mgrwt>
<rscale>  0 0.80357240E+03</rscale>
<asrwt>0</asrwt>
<pdfrwt beam="1">  1        2 0.20947887E+00 0.80357240E+03</pdfrwt>
<pdfrwt beam="2">  1       -2 0.15727284E-01 0.80357240E+03</pdfrwt>
<totfact> 0.49584246E+02</totfact>
</mgrwt>
</event>
<event>
 4    1  0.5131465E-005  0.4423472E+03  0.7818608E-02  0.1030029E+00
         -2   -1    0    0    0  501 -0.00000000000E+00  0.00000000000E+00  0.33474884953E+03  0.33474884954E+03  0.25500000000E-02 0. -1.
          2   -1    0    0  501    0  0.00000000000E+00 -0.00000000000E+00 -0.14613272007E+03  0.14613272009E+03  0.25500000000E-02 0.  1.
    5000001    1    1    2    0    0 -0.81584380133E+02 -0.36168330354E+02  0.13428961821E+03  0.25612274550E+03  0.19900000000E+03 0.  0.
   -5000001    1    1    2    0    0  0.81584380133E+02  0.36168330354E+02  0.54326511246E+02  0.22475882413E+03  0.19900000000E+03 0.  0.
<mgrwt>
<rscale>  0 0.44234719E+03</rscale>
<asrwt>0</asrwt>
<pdfrwt beam="1">  1        2 0.20876103E-01 0.44234719E+03</pdfrwt>
<pdfrwt beam="2">  1       -2 0.47821264E-01 0.44234719E+03</pdfrwt>
<totfact> 0.11190281E+03</totfact>
</mgrwt>
</event>
<event>
 4    1  0.5131465E-005  0.5575969E+03  0.7818608E-02  0.9997507E-01
          2   -1    0    0  501    0  0.00000000000E+00  0.00000000000E+00  0.67033233674E+03  0.67033233674E+03  0.25500000000E-02 0.  1.
         -2   -1    0    0    0  501 -0.00000000000E+00 -0.00000000000E+00 -0.11595530075E+03  0.11595530078E+03  0.25500000000E-02 0. -1.
    5000001    1    1    2    0    0  0.25597871744E+02  0.19338847218E+03  0.26512088971E+03  0.38463546167E+03  0.19900000000E+03 0.  0.
   -5000001    1    1    2    0    0 -0.25597871744E+02 -0.19338847218E+03  0.28925614627E+03  0.40165217586E+03  0.19900000000E+03 0.  0.
<mgrwt>
<rscale>  0 0.55759694E+03</rscale>
<asrwt>0</asrwt>
<pdfrwt beam="1">  1        2 0.95761761E-01 0.55759694E+03</pdfrwt>
<pdfrwt beam="2">  1       -2 0.16565043E-01 0.55759694E+03</pdfrwt>
<totfact> 0.14047671E+03</totfact>
</mgrwt>
</event>
<event>
 4    1  0.5131465E-005  0.6158904E+03  0.7818608E-02  0.9872976E-01
          2   -1    0    0  501    0  0.00000000000E+00  0.00000000000E+00  0.19759908188E+03  0.19759908190E+03  0.25500000000E-02 0.  1.
         -2   -1    0    0    0  501 -0.00000000000E+00 -0.00000000000E+00 -0.47991244535E+03  0.47991244536E+03  0.25500000000E-02 0. -1.
    5000001    1    1    2    0    0 -0.21664024212E+03  0.29712275364E+02 -0.46440702387E+02  0.29928841049E+03  0.19900000000E+03 0.  0.
   -5000001    1    1    2    0    0  0.21664024212E+03 -0.29712275364E+02 -0.23587266108E+03  0.37822311677E+03  0.19900000000E+03 0.  0.
<mgrwt>
<rscale>  0 0.61589044E+03</rscale>
<asrwt>0</asrwt>
<pdfrwt beam="1">  1        2 0.28228440E-01 0.61589044E+03</pdfrwt>
<pdfrwt beam="2">  1       -2 0.68558920E-01 0.61589044E+03</pdfrwt>
<totfact> 0.37449251E+02</totfact>
</mgrwt>
</event>
<event>
 4    1  0.5131465E-005  0.4792294E+03  0.7818608E-02  0.1019347E+00
          2   -1    0    0  501    0  0.00000000000E+00  0.00000000000E+00  0.88174857099E+03  0.88174857099E+03  0.25500000000E-02 0.  1.
         -2   -1    0    0    0  501 -0.00000000000E+00 -0.00000000000E+00 -0.65115170668E+02  0.65115170718E+02  0.25500000000E-02 0. -1.
    5000001    1    1    2    0    0 -0.10408695659E+03  0.72176130416E+02  0.49145842106E+03  0.54513839341E+03  0.19900000000E+03 0.  0.
   -5000001    1    1    2    0    0  0.10408695659E+03 -0.72176130416E+02  0.32517497926E+03  0.40172534830E+03  0.19900000000E+03 0.  0.
<mgrwt>
<rscale>  0 0.47922942E+03</rscale>
<asrwt>0</asrwt>
<pdfrwt beam="1">  1        2 0.12596407E+00 0.47922942E+03</pdfrwt>
<pdfrwt beam="2">  1       -2 0.93021682E-02 0.47922942E+03</pdfrwt>
<totfact> 0.25766963E+03</totfact>
</mgrwt>
</event>
<event>
 4    1  0.5131465E-005  0.9074073E+03  0.7818608E-02  0.9416369E-01
          2   -1    0    0  501    0  0.00000000000E+00  0.00000000000E+00  0.10452841735E+04  0.10452841735E+04  0.25500000000E-02 0.  1.
         -2   -1    0    0    0  501 -0.00000000000E+00 -0.00000000000E+00 -0.19692924441E+03  0.19692924442E+03  0.25500000000E-02 0. -1.
    5000001    1    1    2    0    0  0.30933317765E+03 -0.23993969661E+03  0.26816323005E+03  0.51455863685E+03  0.19900000000E+03 0.  0.
   -5000001    1    1    2    0    0 -0.30933317765E+03  0.23993969661E+03  0.58019169909E+03  0.72765478112E+03  0.19900000000E+03 0.  0.
<mgrwt>
<rscale>  0 0.90740735E+03</rscale>
<asrwt>0</asrwt>
<pdfrwt beam="1">  1        2 0.14932631E+00 0.90740735E+03</pdfrwt>
<pdfrwt beam="2">  1       -2 0.28132749E-01 0.90740735E+03</pdfrwt>
<totfact> 0.30414925E+02</totfact>
</mgrwt>
</event>
<event>
 4    1  0.5131465E-005  0.1406952E+04  0.7818608E-02  0.8948802E-01
          2   -1    0    0  501    0  0.00000000000E+00  0.00000000000E+00  0.33651358168E+04  0.33651358168E+04  0.25500000000E-02 0.  1.
         -2   -1    0    0    0  501 -0.00000000000E+00 -0.00000000000E+00 -0.14706043105E+03  0.14706043107E+03  0.25500000000E-02 0. -1.
    5000001    1    1    2    0    0  0.64073440727E+03  0.14277579910E+03  0.19985895014E+04  0.21130278050E+04  0.19900000000E+03 0.  0.
   -5000001    1    1    2    0    0 -0.64073440727E+03 -0.14277579910E+03  0.12194858843E+04  0.13991684429E+04  0.19900000000E+03 0.  0.
<mgrwt>
<rscale>  0 0.14069518E+04</rscale>
<asrwt>0</asrwt>
<pdfrwt beam="1">  1        2 0.48073362E+00 0.14069518E+04</pdfrwt>
<pdfrwt beam="2">  1       -2 0.21008636E-01 0.14069518E+04</pdfrwt>
<totfact> 0.27989158E+01</totfact>
</mgrwt>
</event>
<event>
 4    1  0.5131465E-005  0.6995929E+03  0.7818608E-02  0.9717929E-01
          2   -1    0    0  501    0  0.00000000000E+00  0.00000000000E+00  0.92387454123E+03  0.92387454124E+03  0.25500000000E-02 0.  1.
         -2   -1    0    0    0  501 -0.00000000000E+00 -0.00000000000E+00 -0.13243956446E+03  0.13243956448E+03  0.25500000000E-02 0. -1.
    5000001    1    1    2    0    0  0.18469182412E+03  0.19742687339E+03  0.54418051688E+03  0.63939180100E+03  0.19900000000E+03 0.  0.
   -5000001    1    1    2    0    0 -0.18469182412E+03 -0.19742687339E+03  0.24725445989E+03  0.41692230472E+03  0.19900000000E+03 0.  0.
<mgrwt>
<rscale>  0 0.69959286E+03</rscale>
<asrwt>0</asrwt>
<pdfrwt beam="1">  1        2 0.13198207E+00 0.69959286E+03</pdfrwt>
<pdfrwt beam="2">  1       -2 0.18919938E-01 0.69959286E+03</pdfrwt>
<totfact> 0.74059820E+02</totfact>
</mgrwt>
</event>
<event>
 4    1  0.5131465E-005  0.6068173E+03  0.7818608E-02  0.9891362E-01
         -2   -1    0    0    0  501 -0.00000000000E+00  0.00000000000E+00  0.15094576772E+03  0.15094576774E+03  0.25500000000E-02 0. -1.
          2   -1    0    0  501    0  0.00000000000E+00 -0.00000000000E+00 -0.60986682236E+03  0.60986682237E+03  0.25500000000E-02 0.  1.
    5000001    1    1    2    0    0  0.19541384309E+03 -0.64632736722E+02 -0.10350848279E+03  0.30443220384E+03  0.19900000000E+03 0.  0.
   -5000001    1    1    2    0    0 -0.19541384309E+03  0.64632736722E+02 -0.35541257186E+03  0.45638038626E+03  0.19900000000E+03 0.  0.
<mgrwt>
<rscale>  0 0.60681732E+03</rscale>
<asrwt>0</asrwt>
<pdfrwt beam="1">  1        2 0.87123830E-01 0.60681732E+03</pdfrwt>
<pdfrwt beam="2">  1       -2 0.21563681E-01 0.60681732E+03</pdfrwt>
<totfact> 0.99639642E+02</totfact>
</mgrwt>
</event>
<event>
 4    1  0.5131465E-005  0.9473413E+03  0.7818608E-02  0.9368264E-01
          2   -1    0    0  501    0  0.00000000000E+00  0.00000000000E+00  0.49719115212E+03  0.49719115213E+03  0.25500000000E-02 0.  1.
         -2   -1    0    0    0  501 -0.00000000000E+00 -0.00000000000E+00 -0.45126280628E+03  0.45126280629E+03  0.25500000000E-02 0. -1.
    5000001    1    1    2    0    0  0.17307027230E+03 -0.39135856219E+03 -0.17679458966E+02  0.47225883435E+03  0.19900000000E+03 0.  0.
   -5000001    1    1    2    0    0 -0.17307027230E+03  0.39135856219E+03  0.63607804806E+02  0.47619512407E+03  0.19900000000E+03 0.  0.
<mgrwt>
<rscale>  0 0.94734128E+03</rscale>
<asrwt>0</asrwt>
<pdfrwt beam="1">  1        2 0.71027308E-01 0.94734128E+03</pdfrwt>
<pdfrwt beam="2">  1       -2 0.64466115E-01 0.94734128E+03</pdfrwt>
<totfact> 0.15042843E+02</totfact>
</mgrwt>
</event>
<event>
 4    1  0.5131465E-005  0.6887915E+03  0.7818608E-02  0.9736595E-01
         -2   -1    0    0    0  501 -0.00000000000E+00  0.00000000000E+00  0.63123276502E+02  0.63123276554E+02  0.25500000000E-02 0. -1.
          2   -1    0    0  501    0  0.00000000000E+00 -0.00000000000E+00 -0.18789965377E+04  0.18789965377E+04  0.25500000000E-02 0.  1.
    5000001    1    1    2    0    0 -0.26143920600E+03  0.98404757279E+02 -0.99590936092E+03  0.10533140129E+04  0.19900000000E+03 0.  0.
   -5000001    1    1    2    0    0  0.26143920600E+03 -0.98404757279E+02 -0.81996390024E+03  0.88880580128E+03  0.19900000000E+03 0.  0.
<mgrwt>
<rscale>  0 0.68879146E+03</rscale>
<asrwt>0</asrwt>
<pdfrwt beam="1">  1        2 0.26842804E+00 0.68879146E+03</pdfrwt>
<pdfrwt beam="2">  1       -2 0.90176121E-02 0.68879146E+03</pdfrwt>
<totfact> 0.76732792E+02</totfact>
</mgrwt>
</event>
<event>
 4    1  0.5131465E-005  0.8655661E+03  0.7818608E-02  0.9469680E-01
          2   -1    0    0  501    0  0.00000000000E+00  0.00000000000E+00  0.18518275421E+04  0.18518275421E+04  0.25500000000E-02 0.  1.
         -2   -1    0    0    0  501 -0.00000000000E+00 -0.00000000000E+00 -0.10114396832E+03  0.10114396836E+03  0.25500000000E-02 0. -1.
    5000001    1    1    2    0    0  0.37672938999E+03 -0.49957036632E+02  0.74613182765E+03  0.86065930718E+03  0.19900000000E+03 0.  0.
   -5000001    1    1    2    0    0 -0.37672938999E+03  0.49957036632E+02  0.10045517461E+04  0.10923122033E+04  0.19900000000E+03 0.  0.
<mgrwt>
<rscale>  0 0.86556614E+03</rscale>
<asrwt>0</asrwt>
<pdfrwt beam="1">  1        2 0.26454680E+00 0.86556614E+03</pdfrwt>
<pdfrwt beam="2">  1       -2 0.14449138E-01 0.86556614E+03</pdfrwt>
<totfact> 0.36036871E+02</totfact>
</mgrwt>
</event>
<event>
 4    1  0.5131465E-005  0.5769021E+03  0.7818608E-02  0.9954521E-01
         -2   -1    0    0    0  501 -0.00000000000E+00  0.00000000000E+00  0.32688529065E+03  0.32688529066E+03  0.25500000000E-02 0.  1.
          2   -1    0    0  501    0  0.00000000000E+00 -0.00000000000E+00 -0.25453578918E+03  0.25453578919E+03  0.25500000000E-02 0. -1.
    5000001    1    1    2    0    0  0.28477160807E+02  0.16543313913E+03 -0.88991207640E+02  0.27513543437E+03  0.19900000000E+03 0.  0.
   -5000001    1    1    2    0    0 -0.28477160807E+02 -0.16543313913E+03  0.16134070911E+03  0.30628564548E+03  0.19900000000E+03 0.  0.
<mgrwt>
<rscale>  0 0.57690209E+03</rscale>
<asrwt>0</asrwt>
<pdfrwt beam="1">  1        2 0.36362256E-01 0.57690209E+03</pdfrwt>
<pdfrwt beam="2">  1       -2 0.46697899E-01 0.57690209E+03</pdfrwt>
<totfact> 0.62703098E+02</totfact>
</mgrwt>
</event>
<event>
 4    1  0.5131465E-005  0.8242286E+03  0.7818608E-02  0.9525595E-01
          2   -1    0    0  501    0  0.00000000000E+00  0.00000000000E+00  0.36307346994E+03  0.36307346995E+03  0.25500000000E-02 0.  1.
         -2   -1    0    0    0  501 -0.00000000000E+00 -0.00000000000E+00 -0.46777909045E+03  0.46777909045E+03  0.25500000000E-02 0. -1.
    5000001    1    1    2    0    0  0.27478712813E+03 -0.22794686073E+03  0.69559358994E+00  0.40874101942E+03  0.19900000000E+03 0.  0.
   -5000001    1    1    2    0    0 -0.27478712813E+03  0.22794686073E+03 -0.10540121409E+03  0.42211154099E+03  0.19900000000E+03 0.  0.
<mgrwt>
<rscale>  0 0.82422855E+03</rscale>
<asrwt>0</asrwt>
<pdfrwt beam="1">  1        2 0.51867639E-01 0.82422855E+03</pdfrwt>
<pdfrwt beam="2">  1       -2 0.66825584E-01 0.82422855E+03</pdfrwt>
<totfact> 0.19952678E+02</totfact>
</mgrwt>
</event>
<event>
 4    1  0.5131465E-005  0.8357476E+03  0.7818608E-02  0.9509668E-01
         -2   -1    0    0    0  501 -0.00000000000E+00  0.00000000000E+00  0.25333432040E+03  0.25333432041E+03  0.25500000000E-02 0. -1.
          2   -1    0    0  501    0  0.00000000000E+00 -0.00000000000E+00 -0.68928087201E+03  0.68928087201E+03  0.25500000000E-02 0.  1.
    5000001    1    1    2    0    0  0.24934898203E+03 -0.25871012414E+03 -0.13125433478E+03  0.43120127965E+03  0.19900000000E+03 0.  0.
   -5000001    1    1    2    0    0 -0.24934898203E+03  0.25871012414E+03 -0.30469221683E+03  0.51141391277E+03  0.19900000000E+03 0.  0.
<mgrwt>
<rscale>  0 0.83574757E+03</rscale>
<asrwt>0</asrwt>
<pdfrwt beam="1">  1        2 0.98468695E-01 0.83574757E+03</pdfrwt>
<pdfrwt beam="2">  1       -2 0.36190617E-01 0.83574757E+03</pdfrwt>
<totfact> 0.33054016E+02</totfact>
</mgrwt>
</event>
<event>
 4    1  0.5131465E-005  0.6706499E+03  0.7818608E-02  0.9768784E-01
          2   -1    0    0  501    0  0.00000000000E+00  0.00000000000E+00  0.14627838999E+04  0.14627838999E+04  0.25500000000E-02 0.  1.
         -2   -1    0    0    0  501 -0.00000000000E+00 -0.00000000000E+00 -0.76869066070E+02  0.76869066113E+02  0.25500000000E-02 0. -1.
    5000001    1    1    2    0    0 -0.80117382064E+01 -0.19948844459E+03  0.27602517167E+03  0.39452594702E+03  0.19900000000E+03 0.  0.
   -5000001    1    1    2    0    0  0.80117382064E+01  0.19948844459E+03  0.11098896622E+04  0.11451270190E+04  0.19900000000E+03 0.  0.
<mgrwt>
<rscale>  0 0.67064993E+03</rscale>
<asrwt>0</asrwt>
<pdfrwt beam="1">  1        2 0.20896913E+00 0.67064993E+03</pdfrwt>
<pdfrwt beam="2">  1       -2 0.10981295E-01 0.67064993E+03</pdfrwt>
<totfact> 0.91223266E+02</totfact>
</mgrwt>
</event>
<event>
 4    1  0.5131465E-005  0.6860348E+03  0.7818608E-02  0.9741417E-01
         -2   -1    0    0    0  501 -0.00000000000E+00  0.00000000000E+00  0.19445789011E+03  0.19445789013E+03  0.25500000000E-02 0. -1.
          2   -1    0    0  501    0  0.00000000000E+00 -0.00000000000E+00 -0.60507153240E+03  0.60507153241E+03  0.25500000000E-02 0.  1.
    5000001    1    1    2    0    0 -0.81948452330E+02 -0.21605468699E+03 -0.22274945648E+02  0.30576518738E+03  0.19900000000E+03 0.  0.
   -5000001    1    1    2    0    0  0.81948452330E+02  0.21605468699E+03 -0.38833869664E+03  0.49376423516E+03  0.19900000000E+03 0.  0.
<mgrwt>
<rscale>  0 0.68603479E+03</rscale>
<asrwt>0</asrwt>
<pdfrwt beam="1">  1        2 0.86438789E-01 0.68603479E+03</pdfrwt>
<pdfrwt beam="2">  1       -2 0.27779699E-01 0.68603479E+03</pdfrwt>
<totfact> 0.63762598E+02</totfact>
</mgrwt>
</event>
<event>
 4    1  0.5131465E-005  0.4640968E+03  0.7818608E-02  0.1023600E+00
          2   -1    0    0  501    0  0.00000000000E+00  0.00000000000E+00  0.89436664054E+02  0.89436664090E+02  0.25500000000E-02 0.  1.
         -2   -1    0    0    0  501 -0.00000000000E+00 -0.00000000000E+00 -0.60206255667E+03  0.60206255668E+03  0.25500000000E-02 0. -1.
    5000001    1    1    2    0    0 -0.56707617389E+02  0.39874688964E+02 -0.40107765313E+03  0.45306735540E+03  0.19900000000E+03 0.  0.
   -5000001    1    1    2    0    0  0.56707617389E+02 -0.39874688964E+02 -0.11154823949E+03  0.23843186537E+03  0.19900000000E+03 0.  0.
<mgrwt>
<rscale>  0 0.46409683E+03</rscale>
<asrwt>0</asrwt>
<pdfrwt beam="1">  1        2 0.12776667E-01 0.46409683E+03</pdfrwt>
<pdfrwt beam="2">  1       -2 0.86008935E-01 0.46409683E+03</pdfrwt>
<totfact> 0.57706260E+02</totfact>
</mgrwt>
</event>
<event>
 4    1  0.5131465E-005  0.6185840E+03  0.7818608E-02  0.9867583E-01
         -2   -1    0    0    0  501 -0.00000000000E+00  0.00000000000E+00  0.67336107298E+02  0.67336107346E+02  0.25500000000E-02 0. -1.
          2   -1    0    0  501    0  0.00000000000E+00 -0.00000000000E+00 -0.14206573368E+04  0.14206573368E+04  0.25500000000E-02 0.  1.
    5000001    1    1    2    0    0 -0.12200800587E+03 -0.12957846540E+03 -0.10522859255E+04  0.10856257187E+04  0.19900000000E+03 0.  0.
   -5000001    1    1    2    0    0  0.12200800587E+03  0.12957846540E+03 -0.30103530401E+03  0.40236772541E+03  0.19900000000E+03 0.  0.
<mgrwt>
<rscale>  0 0.61858398E+03</rscale>
<asrwt>0</asrwt>
<pdfrwt beam="1">  1        2 0.20295103E+00 0.61858398E+03</pdfrwt>
<pdfrwt beam="2">  1       -2 0.96194448E-02 0.61858398E+03</pdfrwt>
<totfact> 0.11933919E+03</totfact>
</mgrwt>
</event>
<event>
 4    1  0.5131465E-005  0.6465802E+03  0.7818608E-02  0.9813217E-01
          2   -1    0    0  501    0  0.00000000000E+00  0.00000000000E+00  0.20706087976E+04  0.20706087976E+04  0.25500000000E-02 0. -1.
         -2   -1    0    0    0  501 -0.00000000000E+00 -0.00000000000E+00 -0.50476215141E+02  0.50476215205E+02  0.25500000000E-02 0.  1.
    5000001    1    1    2    0    0  0.18069907733E+03 -0.11633898734E+03  0.14590060519E+04  0.14881151084E+04  0.19900000000E+03 0.  0.
   -5000001    1    1    2    0    0 -0.18069907733E+03  0.11633898734E+03  0.56112653057E+03  0.63296990437E+03  0.19900000000E+03 0.  0.
<mgrwt>
<rscale>  0 0.64658022E+03</rscale>
<asrwt>0</asrwt>
<pdfrwt beam="1">  1        2 0.29580121E+00 0.64658022E+03</pdfrwt>
<pdfrwt beam="2">  1       -2 0.72108891E-02 0.64658022E+03</pdfrwt>
<totfact> 0.88034385E+02</totfact>
</mgrwt>
</event>
<event>
 4    1  0.5131465E-005  0.6194074E+03  0.7818608E-02  0.9865940E-01
          2   -1    0    0  501    0  0.00000000000E+00  0.00000000000E+00  0.64856890761E+03  0.64856890762E+03  0.25500000000E-02 0. -1.
         -2   -1    0    0    0  501 -0.00000000000E+00 -0.00000000000E+00 -0.14788928906E+03  0.14788928909E+03  0.25500000000E-02 0.  1.
    5000001    1    1    2    0    0  0.81391157275E+02  0.12929201526E+03  0.48383360270E+03  0.54501091805E+03  0.19900000000E+03 0.  0.
   -5000001    1    1    2    0    0 -0.81391157275E+02 -0.12929201526E+03  0.16846015853E+02  0.25144727866E+03  0.19900000000E+03 0.  0.
<mgrwt>
<rscale>  0 0.61940744E+03</rscale>
<asrwt>0</asrwt>
<pdfrwt beam="1">  1        2 0.92652703E-01 0.61940744E+03</pdfrwt>
<pdfrwt beam="2">  1       -2 0.21127041E-01 0.61940744E+03</pdfrwt>
<totfact> 0.95972708E+02</totfact>
</mgrwt>
</event>
<event>
 4    1  0.5131465E-005  0.8833572E+03  0.7818608E-02  0.9446628E-01
          2   -1    0    0  501    0  0.00000000000E+00  0.00000000000E+00  0.12611647365E+04  0.12611647365E+04  0.25500000000E-02 0.  1.
         -2   -1    0    0    0  501 -0.00000000000E+00 -0.00000000000E+00 -0.15468239762E+03  0.15468239764E+03  0.25500000000E-02 0. -1.
    5000001    1    1    2    0    0 -0.34850957307E+03 -0.11162858070E+03  0.78858106462E+03  0.89184133007E+03  0.19900000000E+03 0.  0.
   -5000001    1    1    2    0    0  0.34850957307E+03  0.11162858070E+03  0.31790127430E+03  0.52400580412E+03  0.19900000000E+03 0.  0.
<mgrwt>
<rscale>  0 0.88335720E+03</rscale>
<asrwt>0</asrwt>
<pdfrwt beam="1">  1        2 0.18016640E+00 0.88335720E+03</pdfrwt>
<pdfrwt beam="2">  1       -2 0.22097484E-01 0.88335720E+03</pdfrwt>
<totfact> 0.35340663E+02</totfact>
</mgrwt>
</event>
<event>
 4    1  0.5131465E-005  0.6569744E+03  0.7818608E-02  0.9793780E-01
         -2   -1    0    0    0  501 -0.00000000000E+00  0.00000000000E+00  0.51621893902E+02  0.51621893965E+02  0.25500000000E-02 0. -1.
          2   -1    0    0  501    0  0.00000000000E+00 -0.00000000000E+00 -0.20902726590E+04  0.20902726590E+04  0.25500000000E-02 0.  1.
    5000001    1    1    2    0    0 -0.50273313084E+02  0.22471250975E+03 -0.61632330320E+03  0.68737073848E+03  0.19900000000E+03 0.  0.
   -5000001    1    1    2    0    0  0.50273313084E+02 -0.22471250975E+03 -0.14223274619E+04  0.14545238145E+04  0.19900000000E+03 0.  0.
<mgrwt>
<rscale>  0 0.65697438E+03</rscale>
<asrwt>0</asrwt>
<pdfrwt beam="1">  1        2 0.29861033E+00 0.65697438E+03</pdfrwt>
<pdfrwt beam="2">  1       -2 0.73745576E-02 0.65697438E+03</pdfrwt>
<totfact> 0.82985595E+02</totfact>
</mgrwt>
</event>
<event>
 4    1  0.5131465E-005  0.5949541E+03  0.7818608E-02  0.9915930E-01
         -2   -1    0    0    0  501 -0.00000000000E+00  0.00000000000E+00  0.61387995664E+02  0.61387995717E+02  0.25500000000E-02 0. -1.
          2   -1    0    0  501    0  0.00000000000E+00 -0.00000000000E+00 -0.14415291037E+04  0.14415291037E+04  0.25500000000E-02 0.  1.
    5000001    1    1    2    0    0  0.13910775326E+03  0.14868195524E+03 -0.47226377596E+03  0.55144479770E+03  0.19900000000E+03 0.  0.
   -5000001    1    1    2    0    0 -0.13910775326E+03 -0.14868195524E+03 -0.90787733209E+03  0.95147230173E+03  0.19900000000E+03 0.  0.
<mgrwt>
<rscale>  0 0.59495406E+03</rscale>
<asrwt>0</asrwt>
<pdfrwt beam="1">  1        2 0.20593271E+00 0.59495406E+03</pdfrwt>
<pdfrwt beam="2">  1       -2 0.87697145E-02 0.59495406E+03</pdfrwt>
<totfact> 0.13514725E+03</totfact>
</mgrwt>
</event>
<event>
 4    1  0.5131465E-005  0.5646396E+03  0.7818608E-02  0.9981611E-01
         -2   -1    0    0    0  501 -0.00000000000E+00  0.00000000000E+00  0.29037776607E+02  0.29037776719E+02  0.25500000000E-02 0. -1.
          2   -1    0    0  501    0  0.00000000000E+00 -0.00000000000E+00 -0.27448540344E+04  0.27448540344E+04  0.25500000000E-02 0.  1.
    5000001    1    1    2    0    0 -0.10798003968E+03  0.16849876012E+03 -0.13933125811E+04  0.14216091129E+04  0.19900000000E+03 0.  0.
   -5000001    1    1    2    0    0  0.10798003968E+03 -0.16849876012E+03 -0.13225036766E+04  0.13522826982E+04  0.19900000000E+03 0.  0.
<mgrwt>
<rscale>  0 0.56463956E+03</rscale>
<asrwt>0</asrwt>
<pdfrwt beam="1">  1        2 0.39212184E+00 0.56463956E+03</pdfrwt>
<pdfrwt beam="2">  1       -2 0.41482556E-02 0.56463956E+03</pdfrwt>
<totfact> 0.94841676E+02</totfact>
</mgrwt>
</event>
<event>
 4    1  0.5131465E-005  0.7251154E+03  0.7818608E-02  0.9675220E-01
          2   -1    0    0  501    0  0.00000000000E+00  0.00000000000E+00  0.22392857327E+03  0.22392857329E+03  0.25500000000E-02 0.  1.
         -2   -1    0    0    0  501 -0.00000000000E+00 -0.00000000000E+00 -0.58700891558E+03  0.58700891559E+03  0.25500000000E-02 0. -1.
    5000001    1    1    2    0    0 -0.18723948560E+03 -0.11426035363E+02 -0.44774165647E+03  0.52465490581E+03  0.19900000000E+03 0.  0.
   -5000001    1    1    2    0    0  0.18723948560E+03  0.11426035363E+02  0.84661314164E+02  0.28628258306E+03  0.19900000000E+03 0.  0.
<mgrwt>
<rscale>  0 0.72511535E+03</rscale>
<asrwt>0</asrwt>
<pdfrwt beam="1">  1        2 0.31989796E-01 0.72511535E+03</pdfrwt>
<pdfrwt beam="2">  1       -2 0.83858416E-01 0.72511535E+03</pdfrwt>
<totfact> 0.20753040E+02</totfact>
</mgrwt>
</event>
<event>
 4    1  0.5131465E-005  0.9056297E+03  0.7818608E-02  0.9418571E-01
         -2   -1    0    0    0  501 -0.00000000000E+00  0.00000000000E+00  0.13059084314E+03  0.13059084316E+03  0.25500000000E-02 0. -1.
          2   -1    0    0  501    0  0.00000000000E+00 -0.00000000000E+00 -0.15701046470E+04  0.15701046470E+04  0.25500000000E-02 0.  1.
    5000001    1    1    2    0    0 -0.78471992940E+01 -0.13988640136E+03 -0.26724430110E+01  0.24338842572E+03  0.19900000000E+03 0.  0.
   -5000001    1    1    2    0    0  0.78471992940E+01  0.13988640136E+03 -0.14368413609E+04  0.14573070645E+04  0.19900000000E+03 0.  0.
<mgrwt>
<rscale>  0 0.90562970E+03</rscale>
<asrwt>0</asrwt>
<pdfrwt beam="1">  1        2 0.22430065E+00 0.90562970E+03</pdfrwt>
<pdfrwt beam="2">  1       -2 0.18655836E-01 0.90562970E+03</pdfrwt>
<totfact> 0.32425656E+02</totfact>
</mgrwt>
</event>
<event>
 4    1  0.5131465E-005  0.6323060E+03  0.7818608E-02  0.9840559E-01
         -2   -1    0    0    0  501 -0.00000000000E+00  0.00000000000E+00  0.21339267026E+03  0.21339267028E+03  0.25500000000E-02 0. -1.
          2   -1    0    0  501    0  0.00000000000E+00 -0.00000000000E+00 -0.46839812553E+03  0.46839812554E+03  0.25500000000E-02 0.  1.
    5000001    1    1    2    0    0  0.23274445133E+03 -0.21786583577E+01 -0.42758010118E+02  0.30919892239E+03  0.19900000000E+03 0.  0.
   -5000001    1    1    2    0    0 -0.23274445133E+03  0.21786583577E+01 -0.21224744515E+03  0.37259187343E+03  0.19900000000E+03 0.  0.
<mgrwt>
<rscale>  0 0.63230602E+03</rscale>
<asrwt>0</asrwt>
<pdfrwt beam="1">  1        2 0.66914017E-01 0.63230602E+03</pdfrwt>
<pdfrwt beam="2">  1       -2 0.30484667E-01 0.63230602E+03</pdfrwt>
<totfact> 0.72289007E+02</totfact>
</mgrwt>
</event>
<event>
 4    1  0.5131465E-005  0.5642690E+03  0.7818608E-02  0.9982441E-01
          2   -1    0    0  501    0  0.00000000000E+00  0.00000000000E+00  0.27763222909E+03  0.27763222910E+03  0.25500000000E-02 0.  1.
         -2   -1    0    0    0  501 -0.00000000000E+00 -0.00000000000E+00 -0.28670983318E+03  0.28670983319E+03  0.25500000000E-02 0. -1.
    5000001    1    1    2    0    0  0.16273806484E+03 -0.10730693418E+03  0.40193199303E+02  0.28145150406E+03  0.19900000000E+03 0.  0.
   -5000001    1    1    2    0    0 -0.16273806484E+03  0.10730693418E+03 -0.49270803391E+02  0.28289055823E+03  0.19900000000E+03 0.  0.
<mgrwt>
<rscale>  0 0.56426905E+03</rscale>
<asrwt>0</asrwt>
<pdfrwt beam="1">  1        2 0.39661747E-01 0.56426905E+03</pdfrwt>
<pdfrwt beam="2">  1       -2 0.40958548E-01 0.56426905E+03</pdfrwt>
<totfact> 0.73774667E+02</totfact>
</mgrwt>
</event>
<event>
 4    1  0.5131465E-005  0.5920555E+03  0.7818608E-02  0.9922027E-01
         -2   -1    0    0    0  501 -0.00000000000E+00  0.00000000000E+00  0.79582235753E+02  0.79582235794E+02  0.25500000000E-02 0. -1.
          2   -1    0    0  501    0  0.00000000000E+00 -0.00000000000E+00 -0.11011557263E+04  0.11011557263E+04  0.25500000000E-02 0.  1.
    5000001    1    1    2    0    0  0.92385739315E+01  0.21801927359E+03 -0.47022438529E+03  0.55527446135E+03  0.19900000000E+03 0.  0.
   -5000001    1    1    2    0    0 -0.92385739315E+01 -0.21801927359E+03 -0.55134910527E+03  0.62546350076E+03  0.19900000000E+03 0.  0.
<mgrwt>
<rscale>  0 0.59205552E+03</rscale>
<asrwt>0</asrwt>
<pdfrwt beam="1">  1        2 0.15730795E+00 0.59205552E+03</pdfrwt>
<pdfrwt beam="2">  1       -2 0.11368891E-01 0.59205552E+03</pdfrwt>
<totfact> 0.13656365E+03</totfact>
</mgrwt>
</event>
<event>
 4    1  0.5131465E-005  0.7029102E+03  0.7818608E-02  0.9712268E-01
          2   -1    0    0  501    0  0.00000000000E+00  0.00000000000E+00  0.25332063684E+04  0.25332063684E+04  0.25500000000E-02 0.  1.
         -2   -1    0    0    0  501 -0.00000000000E+00 -0.00000000000E+00 -0.48760603447E+02  0.48760603513E+02  0.25500000000E-02 0. -1.
    5000001    1    1    2    0    0 -0.12006278112E+03  0.23362228748E+03  0.79346578256E+03  0.85917599635E+03  0.19900000000E+03 0.  0.
   -5000001    1    1    2    0    0  0.12006278112E+03 -0.23362228748E+03  0.16909799824E+04  0.17227909756E+04  0.19900000000E+03 0.  0.
<mgrwt>
<rscale>  0 0.70291015E+03</rscale>
<asrwt>0</asrwt>
<pdfrwt beam="1">  1        2 0.36188666E+00 0.70291015E+03</pdfrwt>
<pdfrwt beam="2">  1       -2 0.69657998E-02 0.70291015E+03</pdfrwt>
<totfact> 0.53871228E+02</totfact>
</mgrwt>
</event>
<event>
 4    1  0.5131465E-005  0.8774712E+03  0.7818608E-02  0.9454190E-01
          2   -1    0    0  501    0  0.00000000000E+00  0.00000000000E+00  0.25198682356E+03  0.25198682357E+03  0.25500000000E-02 0.  1.
         -2   -1    0    0    0  501 -0.00000000000E+00 -0.00000000000E+00 -0.76388485143E+03  0.76388485144E+03  0.25500000000E-02 0. -1.
    5000001    1    1    2    0    0  0.44259638677E+02 -0.38583363652E+03 -0.20338508477E+03  0.48144885855E+03  0.19900000000E+03 0.  0.
   -5000001    1    1    2    0    0 -0.44259638677E+02  0.38583363652E+03 -0.30851294311E+03  0.53442281646E+03  0.19900000000E+03 0.  0.
<mgrwt>
<rscale>  0 0.87747118E+03</rscale>
<asrwt>0</asrwt>
<pdfrwt beam="1">  1        2 0.35998118E-01 0.87747118E+03</pdfrwt>
<pdfrwt beam="2">  1       -2 0.10912641E+00 0.87747118E+03</pdfrwt>
<totfact> 0.97496582E+01</totfact>
</mgrwt>
</event>
<event>
 4    1  0.5131465E-005  0.5273911E+03  0.7818608E-02  0.1006867E+00
         -2   -1    0    0    0  501 -0.00000000000E+00  0.00000000000E+00  0.10348574406E+03  0.10348574409E+03  0.25500000000E-02 0. -1.
          2   -1    0    0  501    0  0.00000000000E+00 -0.00000000000E+00 -0.67193164354E+03  0.67193164354E+03  0.25500000000E-02 0.  1.
    5000001    1    1    2    0    0  0.98539387471E+02 -0.10528098430E+03 -0.42478942540E+03  0.49075569530E+03  0.19900000000E+03 0.  0.
   -5000001    1    1    2    0    0 -0.98539387471E+02  0.10528098430E+03 -0.14365647408E+03  0.28466169233E+03  0.19900000000E+03 0.  0.
<mgrwt>
<rscale>  0 0.52739111E+03</rscale>
<asrwt>0</asrwt>
<pdfrwt beam="1">  1        2 0.95990233E-01 0.52739111E+03</pdfrwt>
<pdfrwt beam="2">  1       -2 0.14783678E-01 0.52739111E+03</pdfrwt>
<totfact> 0.16973961E+03</totfact>
</mgrwt>
</event>
<event>
 4    1  0.5131465E-005  0.7200668E+03  0.7818608E-02  0.9683518E-01
         -2   -1    0    0    0  501 -0.00000000000E+00  0.00000000000E+00  0.71802551276E+02  0.71802551321E+02  0.25500000000E-02 0. -1.
          2   -1    0    0  501    0  0.00000000000E+00 -0.00000000000E+00 -0.18052845971E+04  0.18052845971E+04  0.25500000000E-02 0.  1.
    5000001    1    1    2    0    0  0.24108060001E+03  0.34770280724E+02 -0.13234503772E+04  0.13603127321E+04  0.19900000000E+03 0.  0.
   -5000001    1    1    2    0    0 -0.24108060001E+03 -0.34770280724E+02 -0.41003166863E+03  0.51677441636E+03  0.19900000000E+03 0.  0.
<mgrwt>
<rscale>  0 0.72006677E+03</rscale>
<asrwt>0</asrwt>
<pdfrwt beam="1">  1        2 0.25789777E+00 0.72006677E+03</pdfrwt>
<pdfrwt beam="2">  1       -2 0.10257508E-01 0.72006677E+03</pdfrwt>
<totfact> 0.67743269E+02</totfact>
</mgrwt>
</event>
<event>
 4    1  0.5131465E-005  0.7027190E+03  0.7818608E-02  0.9712594E-01
          2   -1    0    0  501    0  0.00000000000E+00  0.00000000000E+00  0.31088516515E+03  0.31088516516E+03  0.25500000000E-02 0.  1.
         -2   -1    0    0    0  501 -0.00000000000E+00 -0.00000000000E+00 -0.39710321518E+03  0.39710321518E+03  0.25500000000E-02 0. -1.
    5000001    1    1    2    0    0  0.19980914188E+03 -0.10999520888E+03 -0.22285608429E+03  0.37588359031E+03  0.19900000000E+03 0.  0.
   -5000001    1    1    2    0    0 -0.19980914188E+03  0.10999520888E+03  0.13663803427E+03  0.33210479004E+03  0.19900000000E+03 0.  0.
<mgrwt>
<rscale>  0 0.70271900E+03</rscale>
<asrwt>0</asrwt>
<pdfrwt beam="1">  1        2 0.44412166E-01 0.70271900E+03</pdfrwt>
<pdfrwt beam="2">  1       -2 0.56729031E-01 0.70271900E+03</pdfrwt>
<totfact> 0.33692462E+02</totfact>
</mgrwt>
</event>
<event>
 4    1  0.5131465E-005  0.8252023E+03  0.7818608E-02  0.9524238E-01
         -2   -1    0    0    0  501 -0.00000000000E+00  0.00000000000E+00  0.30222107130E+03  0.30222107131E+03  0.25500000000E-02 0. -1.
          2   -1    0    0  501    0  0.00000000000E+00 -0.00000000000E+00 -0.56329527146E+03  0.56329527146E+03  0.25500000000E-02 0.  1.
    5000001    1    1    2    0    0 -0.23215805693E+03 -0.27656841976E+03 -0.11391198725E+03  0.42774337522E+03  0.19900000000E+03 0.  0.
   -5000001    1    1    2    0    0  0.23215805693E+03  0.27656841976E+03 -0.14716221291E+03  0.43777296755E+03  0.19900000000E+03 0.  0.
<mgrwt>
<rscale>  0 0.82520228E+03</rscale>
<asrwt>0</asrwt>
<pdfrwt beam="1">  1        2 0.80470753E-01 0.82520228E+03</pdfrwt>
<pdfrwt beam="2">  1       -2 0.43174439E-01 0.82520228E+03</pdfrwt>
<totfact> 0.29874777E+02</totfact>
</mgrwt>
</event>
<event>
 4    1  0.5131465E-005  0.5204023E+03  0.7818608E-02  0.1008587E+00
         -2   -1    0    0    0  501 -0.00000000000E+00  0.00000000000E+00  0.41051727615E+02  0.41051727694E+02  0.25500000000E-02 0. -1.
          2   -1    0    0  501    0  0.00000000000E+00 -0.00000000000E+00 -0.16492515611E+04  0.16492515611E+04  0.25500000000E-02 0.  1.
    5000001    1    1    2    0    0  0.16238020056E+03  0.40458127646E+02 -0.77171088642E+03  0.81433585322E+03  0.19900000000E+03 0.  0.
   -5000001    1    1    2    0    0 -0.16238020056E+03 -0.40458127646E+02 -0.83648894710E+03  0.87596743561E+03  0.19900000000E+03 0.  0.
<mgrwt>
<rscale>  0 0.52040225E+03</rscale>
<asrwt>0</asrwt>
<pdfrwt beam="1">  1        2 0.23560732E+00 0.52040225E+03</pdfrwt>
<pdfrwt beam="2">  1       -2 0.58645336E-02 0.52040225E+03</pdfrwt>
<totfact> 0.19985442E+03</totfact>
</mgrwt>
</event>
<event>
 4    1  0.5131465E-005  0.4833548E+03  0.7818608E-02  0.1018217E+00
          2   -1    0    0  501    0  0.00000000000E+00  0.00000000000E+00  0.90560196746E+03  0.90560196746E+03  0.25500000000E-02 0.  1.
         -2   -1    0    0    0  501 -0.00000000000E+00 -0.00000000000E+00 -0.64496285442E+02  0.64496285493E+02  0.25500000000E-02 0. -1.
    5000001    1    1    2    0    0  0.81177426456E+02  0.11037262440E+03  0.40866695937E+03  0.47474369344E+03  0.19900000000E+03 0.  0.
   -5000001    1    1    2    0    0 -0.81177426456E+02 -0.11037262440E+03  0.43243872265E+03  0.49535455951E+03  0.19900000000E+03 0.  0.
<mgrwt>
<rscale>  0 0.48335479E+03</rscale>
<asrwt>0</asrwt>
<pdfrwt beam="1">  1        2 0.12937171E+00 0.48335479E+03</pdfrwt>
<pdfrwt beam="2">  1       -2 0.92137553E-02 0.48335479E+03</pdfrwt>
<totfact> 0.25257407E+03</totfact>
</mgrwt>
</event>
<event>
 4    1  0.5131465E-005  0.1518838E+04  0.7818608E-02  0.8872022E-01
          2   -1    0    0  501    0  0.00000000000E+00  0.00000000000E+00  0.12063277985E+04  0.12063277985E+04  0.25500000000E-02 0.  1.
         -2   -1    0    0    0  501 -0.00000000000E+00 -0.00000000000E+00 -0.47807670338E+03  0.47807670339E+03  0.25500000000E-02 0. -1.
    5000001    1    1    2    0    0 -0.18842097542E+03  0.32068122842E+03  0.10644513946E+04  0.11449876356E+04  0.19900000000E+03 0.  0.
   -5000001    1    1    2    0    0  0.18842097542E+03 -0.32068122842E+03 -0.33620029949E+03  0.53941686627E+03  0.19900000000E+03 0.  0.
<mgrwt>
<rscale>  0 0.15188380E+04</rscale>
<asrwt>0</asrwt>
<pdfrwt beam="1">  1        2 0.17233254E+00 0.15188380E+04</pdfrwt>
<pdfrwt beam="2">  1       -2 0.68296671E-01 0.15188380E+04</pdfrwt>
<totfact> 0.40185616E+01</totfact>
</mgrwt>
</event>
<event>
 4    1  0.5131465E-005  0.5390858E+03  0.7818608E-02  0.1004052E+00
         -2   -1    0    0    0  501 -0.00000000000E+00  0.00000000000E+00  0.96998648987E+02  0.96998649020E+02  0.25500000000E-02 0. -1.
          2   -1    0    0  501    0  0.00000000000E+00 -0.00000000000E+00 -0.74901442965E+03  0.74901442966E+03  0.25500000000E-02 0.  1.
    5000001    1    1    2    0    0 -0.69847362583E+02 -0.16473473670E+03 -0.27549049057E+03  0.38407316742E+03  0.19900000000E+03 0.  0.
   -5000001    1    1    2    0    0  0.69847362583E+02  0.16473473670E+03 -0.37652529009E+03  0.46193991126E+03  0.19900000000E+03 0.  0.
<mgrwt>
<rscale>  0 0.53908585E+03</rscale>
<asrwt>0</asrwt>
<pdfrwt beam="1">  1        2 0.10700206E+00 0.53908585E+03</pdfrwt>
<pdfrwt beam="2">  1       -2 0.13856950E-01 0.53908585E+03</pdfrwt>
<totfact> 0.16558643E+03</totfact>
</mgrwt>
</event>
<event>
 4    1  0.5131465E-005  0.8387066E+03  0.7818608E-02  0.9505621E-01
         -2   -1    0    0    0  501 -0.00000000000E+00  0.00000000000E+00  0.58752232634E+02  0.58752232689E+02  0.25500000000E-02 0. -1.
          2   -1    0    0  501    0  0.00000000000E+00 -0.00000000000E+00 -0.29932002882E+04  0.29932002882E+04  0.25500000000E-02 0.  1.
    5000001    1    1    2    0    0  0.50379253597E+02 -0.18297753027E+03 -0.31514439872E+03  0.41825331777E+03  0.19900000000E+03 0.  0.
   -5000001    1    1    2    0    0 -0.50379253597E+02  0.18297753027E+03 -0.26193036568E+04  0.26336992031E+04  0.19900000000E+03 0.  0.
<mgrwt>
<rscale>  0 0.83870662E+03</rscale>
<asrwt>0</asrwt>
<pdfrwt beam="1">  1        2 0.42759995E+00 0.83870662E+03</pdfrwt>
<pdfrwt beam="2">  1       -2 0.83931780E-02 0.83870662E+03</pdfrwt>
<totfact> 0.22507706E+02</totfact>
</mgrwt>
</event>
<event>
 4    1  0.5131465E-005  0.6780956E+03  0.7818608E-02  0.9755443E-01
         -2   -1    0    0    0  501 -0.00000000000E+00  0.00000000000E+00  0.41431983106E+02  0.41431983185E+02  0.25500000000E-02 0. -1.
          2   -1    0    0  501    0  0.00000000000E+00 -0.00000000000E+00 -0.27745086226E+04  0.27745086226E+04  0.25500000000E-02 0.  1.
    5000001    1    1    2    0    0  0.17072584936E+03  0.21446759411E+03 -0.13065419524E+04  0.13497394333E+04  0.19900000000E+03 0.  0.
   -5000001    1    1    2    0    0 -0.17072584936E+03 -0.21446759411E+03 -0.14265346871E+04  0.14662011725E+04  0.19900000000E+03 0.  0.
<mgrwt>
<rscale>  0 0.67809555E+03</rscale>
<asrwt>0</asrwt>
<pdfrwt beam="1">  1        2 0.39635826E+00 0.67809555E+03</pdfrwt>
<pdfrwt beam="2">  1       -2 0.59188565E-02 0.67809555E+03</pdfrwt>
<totfact> 0.52185902E+02</totfact>
</mgrwt>
</event>
<event>
 4    1  0.5131465E-005  0.4085945E+03  0.7818608E-02  0.1040844E+00
          2   -1    0    0  501    0  0.00000000000E+00  0.00000000000E+00  0.12901618930E+03  0.12901618933E+03  0.25500000000E-02 0.  1.
         -2   -1    0    0    0  501 -0.00000000000E+00 -0.00000000000E+00 -0.32350491262E+03  0.32350491263E+03  0.25500000000E-02 0. -1.
    5000001    1    1    2    0    0  0.31771020869E+02 -0.33454901062E+02 -0.10032611346E+03  0.22758505490E+03  0.19900000000E+03 0.  0.
   -5000001    1    1    2    0    0 -0.31771020869E+02  0.33454901062E+02 -0.94162609860E+02  0.22493604706E+03  0.19900000000E+03 0.  0.
<mgrwt>
<rscale>  0 0.40859452E+03</rscale>
<asrwt>0</asrwt>
<pdfrwt beam="1">  1        2 0.18430884E-01 0.40859452E+03</pdfrwt>
<pdfrwt beam="2">  1       -2 0.46214987E-01 0.40859452E+03</pdfrwt>
<totfact> 0.13835817E+03</totfact>
</mgrwt>
</event>
<event>
 4    1  0.5131465E-005  0.1066538E+04  0.7818608E-02  0.9238434E-01
          2   -1    0    0  501    0  0.00000000000E+00  0.00000000000E+00  0.31337277506E+03  0.31337277507E+03  0.25500000000E-02 0.  1.
         -2   -1    0    0    0  501 -0.00000000000E+00 -0.00000000000E+00 -0.90746864624E+03  0.90746864624E+03  0.25500000000E-02 0. -1.
    5000001    1    1    2    0    0  0.35333716769E+03 -0.23489417348E+03 -0.57675624294E+01  0.46867546509E+03  0.19900000000E+03 0.  0.
   -5000001    1    1    2    0    0 -0.35333716769E+03  0.23489417348E+03 -0.58832830875E+03  0.75216595621E+03  0.19900000000E+03 0.  0.
<mgrwt>
<rscale>  0 0.10665383E+04</rscale>
<asrwt>0</asrwt>
<pdfrwt beam="1">  1        2 0.44767540E-01 0.10665383E+04</pdfrwt>
<pdfrwt beam="2">  1       -2 0.12963838E+00 0.10665383E+04</pdfrwt>
<totfact> 0.49430925E+01</totfact>
</mgrwt>
</event>
<event>
 4    1  0.5131465E-005  0.7589762E+03  0.7818608E-02  0.9621372E-01
          2   -1    0    0  501    0  0.00000000000E+00  0.00000000000E+00  0.15610726370E+04  0.15610726370E+04  0.25500000000E-02 0.  1.
         -2   -1    0    0    0  501 -0.00000000000E+00 -0.00000000000E+00 -0.92251448484E+02  0.92251448520E+02  0.25500000000E-02 0. -1.
    5000001    1    1    2    0    0 -0.47674129836E+02 -0.25876694569E+03  0.11429741235E+04  0.11896318766E+04  0.19900000000E+03 0.  0.
   -5000001    1    1    2    0    0  0.47674129836E+02  0.25876694569E+03  0.32584706502E+03  0.46369220893E+03  0.19900000000E+03 0.  0.
<mgrwt>
<rscale>  0 0.75897618E+03</rscale>
<asrwt>0</asrwt>
<pdfrwt beam="1">  1        2 0.22301037E+00 0.75897618E+03</pdfrwt>
<pdfrwt beam="2">  1       -2 0.13178779E-01 0.75897618E+03</pdfrwt>
<totfact> 0.59697249E+02</totfact>
</mgrwt>
</event>
<event>
 4    1  0.5131465E-005  0.7616584E+03  0.7818608E-02  0.9617236E-01
          2   -1    0    0  501    0  0.00000000000E+00  0.00000000000E+00  0.37980378404E+03  0.37980378405E+03  0.25500000000E-02 0.  1.
         -2   -1    0    0    0  501 -0.00000000000E+00 -0.00000000000E+00 -0.38185743176E+03  0.38185743177E+03  0.25500000000E-02 0. -1.
    5000001    1    1    2    0    0 -0.28365156650E+03  0.62839357153E+02  0.14396646703E+03  0.38043966620E+03  0.19900000000E+03 0.  0.
   -5000001    1    1    2    0    0  0.28365156650E+03 -0.62839357153E+02 -0.14602011474E+03  0.38122154962E+03  0.19900000000E+03 0.  0.
<mgrwt>
<rscale>  0 0.76165845E+03</rscale>
<asrwt>0</asrwt>
<pdfrwt beam="1">  1        2 0.54257684E-01 0.76165845E+03</pdfrwt>
<pdfrwt beam="2">  1       -2 0.54551061E-01 0.76165845E+03</pdfrwt>
<totfact> 0.29206268E+02</totfact>
</mgrwt>
</event>
<event>
 4    1  0.5131465E-005  0.4903406E+03  0.7818608E-02  0.1016331E+00
          2   -1    0    0  501    0  0.00000000000E+00  0.00000000000E+00  0.30563813143E+04  0.30563813143E+04  0.25500000000E-02 0.  1.
         -2   -1    0    0    0  501 -0.00000000000E+00 -0.00000000000E+00 -0.19666547462E+02  0.19666547627E+02  0.25500000000E-02 0. -1.
    5000001    1    1    2    0    0  0.28692095230E+02 -0.11754994903E+03  0.10378774728E+04  0.10636878656E+04  0.19900000000E+03 0.  0.
   -5000001    1    1    2    0    0 -0.28692095230E+02  0.11754994903E+03  0.19988372940E+04  0.20123599963E+04  0.19900000000E+03 0.  0.
<mgrwt>
<rscale>  0 0.49034057E+03</rscale>
<asrwt>0</asrwt>
<pdfrwt beam="1">  1        2 0.43662547E+00 0.49034057E+03</pdfrwt>
<pdfrwt beam="2">  1       -2 0.28095096E-02 0.49034057E+03</pdfrwt>
<totfact> 0.11775505E+03</totfact>
</mgrwt>
</event>
<event>
 4    1  0.5131465E-005  0.7028508E+03  0.7818608E-02  0.9712369E-01
          2   -1    0    0  501    0  0.00000000000E+00  0.00000000000E+00  0.36825874882E+04  0.36825874882E+04  0.25500000000E-02 0.  1.
         -2   -1    0    0    0  501 -0.00000000000E+00 -0.00000000000E+00 -0.33536155782E+02  0.33536155879E+02  0.25500000000E-02 0. -1.
    5000001    1    1    2    0    0 -0.27125325159E+03  0.81789216120E+02  0.21431226303E+04  0.21709084298E+04  0.19900000000E+03 0.  0.
   -5000001    1    1    2    0    0  0.27125325159E+03 -0.81789216120E+02  0.15059287022E+04  0.15452152143E+04  0.19900000000E+03 0.  0.
<mgrwt>
<rscale>  0 0.70285085E+03</rscale>
<asrwt>0</asrwt>
<pdfrwt beam="1">  1        2 0.52608380E+00 0.70285085E+03</pdfrwt>
<pdfrwt beam="2">  1       -2 0.47908806E-02 0.70285085E+03</pdfrwt>
<totfact> 0.22013997E+02</totfact>
</mgrwt>
</event>
<event>
 4    1  0.5131465E-005  0.5088810E+03  0.7818608E-02  0.1011487E+00
          2   -1    0    0  501    0  0.00000000000E+00  0.00000000000E+00  0.11539568514E+04  0.11539568514E+04  0.25500000000E-02 0.  1.
         -2   -1    0    0    0  501 -0.00000000000E+00 -0.00000000000E+00 -0.56102580038E+02  0.56102580096E+02  0.25500000000E-02 0. -1.
    5000001    1    1    2    0    0 -0.60784693628E+02 -0.14459325339E+03  0.49382543422E+03  0.55503742881E+03  0.19900000000E+03 0.  0.
   -5000001    1    1    2    0    0  0.60784693628E+02  0.14459325339E+03  0.60402883719E+03  0.65502200273E+03  0.19900000000E+03 0.  0.
<mgrwt>
<rscale>  0 0.50888096E+03</rscale>
<asrwt>0</asrwt>
<pdfrwt beam="1">  1        2 0.16485097E+00 0.50888096E+03</pdfrwt>
<pdfrwt beam="2">  1       -2 0.80146549E-02 0.50888096E+03</pdfrwt>
<totfact> 0.22408139E+03</totfact>
</mgrwt>
</event>
<event>
 4    1  0.5131465E-005  0.5541626E+03  0.7818608E-02  0.1000535E+00
         -2   -1    0    0    0  501 -0.00000000000E+00  0.00000000000E+00  0.21913106494E+03  0.21913106496E+03  0.25500000000E-02 0. -1.
          2   -1    0    0  501    0  0.00000000000E+00 -0.00000000000E+00 -0.35035676335E+03  0.35035676335E+03  0.25500000000E-02 0.  1.
    5000001    1    1    2    0    0 -0.77781012846E+02 -0.16071536549E+03 -0.14038301831E+03  0.30197302279E+03  0.19900000000E+03 0.  0.
   -5000001    1    1    2    0    0  0.77781012846E+02  0.16071536549E+03  0.91573199051E+01  0.26751480552E+03  0.19900000000E+03 0.  0.
<mgrwt>
<rscale>  0 0.55416261E+03</rscale>
<asrwt>0</asrwt>
<pdfrwt beam="1">  1        2 0.50050966E-01 0.55416261E+03</pdfrwt>
<pdfrwt beam="2">  1       -2 0.31304438E-01 0.55416261E+03</pdfrwt>
<totfact> 0.95173662E+02</totfact>
</mgrwt>
</event>
<event>
 4    1  0.5131465E-005  0.4205690E+03  0.7818608E-02  0.1036881E+00
          2   -1    0    0  501    0  0.00000000000E+00  0.00000000000E+00  0.19140559630E+04  0.19140559630E+04  0.25500000000E-02 0.  1.
         -2   -1    0    0    0  501 -0.00000000000E+00 -0.00000000000E+00 -0.23102546360E+02  0.23102546501E+02  0.25500000000E-02 0. -1.
    5000001    1    1    2    0    0  0.63181860504E+02  0.23567033892E+02  0.98434640449E+03  0.10065218312E+04  0.19900000000E+03 0.  0.
   -5000001    1    1    2    0    0 -0.63181860504E+02 -0.23567033892E+02  0.90660701211E+03  0.93063667829E+03  0.19900000000E+03 0.  0.
<mgrwt>
<rscale>  0 0.42056898E+03</rscale>
<asrwt>0</asrwt>
<pdfrwt beam="1">  1        2 0.27343663E+00 0.42056898E+03</pdfrwt>
<pdfrwt beam="2">  1       -2 0.33003630E-02 0.42056898E+03</pdfrwt>
<totfact> 0.35646126E+03</totfact>
</mgrwt>
</event>
<event>
 4    1  0.5131465E-005  0.6277188E+03  0.7818608E-02  0.9849511E-01
          2   -1    0    0  501    0  0.00000000000E+00  0.00000000000E+00  0.93466534967E+03  0.93466534967E+03  0.25500000000E-02 0.  1.
         -2   -1    0    0    0  501 -0.00000000000E+00 -0.00000000000E+00 -0.10539357669E+03  0.10539357672E+03  0.25500000000E-02 0. -1.
    5000001    1    1    2    0    0 -0.18808991854E+03 -0.30153691390E+02  0.66382889848E+03  0.71871890821E+03  0.19900000000E+03 0.  0.
   -5000001    1    1    2    0    0  0.18808991854E+03  0.30153691390E+02  0.16544287451E+03  0.32134001818E+03  0.19900000000E+03 0.  0.
<mgrwt>
<rscale>  0 0.62771880E+03</rscale>
<asrwt>0</asrwt>
<pdfrwt beam="1">  1        2 0.13352361E+00 0.62771880E+03</pdfrwt>
<pdfrwt beam="2">  1       -2 0.15056226E-01 0.62771880E+03</pdfrwt>
<totfact> 0.10792092E+03</totfact>
</mgrwt>
</event>
<event>
 4    1  0.5131465E-005  0.4871490E+03  0.7818608E-02  0.1017189E+00
         -2   -1    0    0    0  501 -0.00000000000E+00  0.00000000000E+00  0.79305241333E+02  0.79305241374E+02  0.25500000000E-02 0. -1.
          2   -1    0    0  501    0  0.00000000000E+00 -0.00000000000E+00 -0.74810373380E+03  0.74810373381E+03  0.25500000000E-02 0.  1.
    5000001    1    1    2    0    0  0.12773300048E+03  0.31944000833E+02 -0.25134052020E+03  0.34656773609E+03  0.19900000000E+03 0.  0.
   -5000001    1    1    2    0    0 -0.12773300048E+03 -0.31944000833E+02 -0.41745797227E+03  0.48084123909E+03  0.19900000000E+03 0.  0.
<mgrwt>
<rscale>  0 0.48714904E+03</rscale>
<asrwt>0</asrwt>
<pdfrwt beam="1">  1        2 0.10687196E+00 0.48714904E+03</pdfrwt>
<pdfrwt beam="2">  1       -2 0.11329321E-01 0.48714904E+03</pdfrwt>
<totfact> 0.23106954E+03</totfact>
</mgrwt>
</event>
<event>
 4    1  0.5131465E-005  0.5018244E+03  0.7818608E-02  0.1013304E+00
          2   -1    0    0  501    0  0.00000000000E+00  0.00000000000E+00  0.10886840355E+04  0.10886840355E+04  0.25500000000E-02 0.  1.
         -2   -1    0    0    0  501 -0.00000000000E+00 -0.00000000000E+00 -0.57828474570E+02  0.57828474626E+02  0.25500000000E-02 0. -1.
    5000001    1    1    2    0    0 -0.73919606891E+02  0.10596752038E+03  0.70191650295E+03  0.74093252107E+03  0.19900000000E+03 0.  0.
   -5000001    1    1    2    0    0  0.73919606891E+02 -0.10596752038E+03  0.32893905793E+03  0.40557998902E+03  0.19900000000E+03 0.  0.
<mgrwt>
<rscale>  0 0.50182442E+03</rscale>
<asrwt>0</asrwt>
<pdfrwt beam="1">  1        2 0.15552630E+00 0.50182442E+03</pdfrwt>
<pdfrwt beam="2">  1       -2 0.82612101E-02 0.50182442E+03</pdfrwt>
<totfact> 0.23276885E+03</totfact>
</mgrwt>
</event>
<event>
 4    1  0.5131465E-005  0.4716004E+03  0.7818608E-02  0.1021469E+00
         -2   -1    0    0    0  501 -0.00000000000E+00  0.00000000000E+00  0.35893975416E+02  0.35893975506E+02  0.25500000000E-02 0. -1.
          2   -1    0    0  501    0  0.00000000000E+00 -0.00000000000E+00 -0.15490549127E+04  0.15490549127E+04  0.25500000000E-02 0.  1.
    5000001    1    1    2    0    0 -0.97443878887E+02  0.58739171808E+02 -0.57081859665E+03  0.61512638548E+03  0.19900000000E+03 0.  0.
   -5000001    1    1    2    0    0  0.97443878887E+02 -0.58739171808E+02 -0.94234234062E+03  0.96982250271E+03  0.19900000000E+03 0.  0.
<mgrwt>
<rscale>  0 0.47160042E+03</rscale>
<asrwt>0</asrwt>
<pdfrwt beam="1">  1        2 0.22129352E+00 0.47160042E+03</pdfrwt>
<pdfrwt beam="2">  1       -2 0.51277118E-02 0.47160042E+03</pdfrwt>
<totfact> 0.27721582E+03</totfact>
</mgrwt>
</event>
<event>
 4    1  0.5131465E-005  0.6400335E+03  0.7818608E-02  0.9825663E-01
         -2   -1    0    0    0  501 -0.00000000000E+00  0.00000000000E+00  0.61235205960E+02  0.61235206013E+02  0.25500000000E-02 0.  1.
          2   -1    0    0  501    0  0.00000000000E+00 -0.00000000000E+00 -0.16724155090E+04  0.16724155090E+04  0.25500000000E-02 0. -1.
    5000001    1    1    2    0    0 -0.92477531929E+02  0.23142713943E+03 -0.87720886711E+03  0.93338470703E+03  0.19900000000E+03 0.  0.
   -5000001    1    1    2    0    0  0.92477531929E+02 -0.23142713943E+03 -0.73397143588E+03  0.80026600794E+03  0.19900000000E+03 0.  0.
<mgrwt>
<rscale>  0 0.64003346E+03</rscale>
<asrwt>0</asrwt>
<pdfrwt beam="1">  1        2 0.23891647E+00 0.64003346E+03</pdfrwt>
<pdfrwt beam="2">  1       -2 0.87478876E-02 0.64003346E+03</pdfrwt>
<totfact> 0.10284972E+03</totfact>
</mgrwt>
</event>
<event>
 4    1  0.5131465E-005  0.1069479E+04  0.7818608E-02  0.9235461E-01
          2   -1    0    0  501    0  0.00000000000E+00  0.00000000000E+00  0.97476074324E+03  0.97476074324E+03  0.25500000000E-02 0.  1.
         -2   -1    0    0    0  501 -0.00000000000E+00 -0.00000000000E+00 -0.29335006871E+03  0.29335006872E+03  0.25500000000E-02 0. -1.
    5000001    1    1    2    0    0  0.44103303121E+03  0.46303628955E+02  0.60502157022E+03  0.77608392659E+03  0.19900000000E+03 0.  0.
   -5000001    1    1    2    0    0 -0.44103303121E+03 -0.46303628955E+02  0.76389104299E+02  0.49202688537E+03  0.19900000000E+03 0.  0.
<mgrwt>
<rscale>  0 0.10694786E+04</rscale>
<asrwt>0</asrwt>
<pdfrwt beam="1">  1        2 0.13925153E+00 0.10694786E+04</pdfrwt>
<pdfrwt beam="2">  1       -2 0.41907153E-01 0.10694786E+04</pdfrwt>
<totfact> 0.15612246E+02</totfact>
</mgrwt>
</event>
<event>
 4    1  0.5131465E-005  0.8271202E+03  0.7818608E-02  0.9521571E-01
         -2   -1    0    0    0  501 -0.00000000000E+00  0.00000000000E+00  0.12767809814E+03  0.12767809816E+03  0.25500000000E-02 0. -1.
          2   -1    0    0  501    0  0.00000000000E+00 -0.00000000000E+00 -0.13395560858E+04  0.13395560858E+04  0.25500000000E-02 0.  1.
    5000001    1    1    2    0    0  0.33239751807E+03  0.22537627587E+02 -0.35235768145E+03  0.52416885672E+03  0.19900000000E+03 0.  0.
   -5000001    1    1    2    0    0 -0.33239751807E+03 -0.22537627587E+02 -0.85952030623E+03  0.94306532727E+03  0.19900000000E+03 0.  0.
<mgrwt>
<rscale>  0 0.82712024E+03</rscale>
<asrwt>0</asrwt>
<pdfrwt beam="1">  1        2 0.19136515E+00 0.82712024E+03</pdfrwt>
<pdfrwt beam="2">  1       -2 0.18239729E-01 0.82712024E+03</pdfrwt>
<totfact> 0.44919001E+02</totfact>
</mgrwt>
</event>
<event>
 4    1  0.5131465E-005  0.1038049E+04  0.7818608E-02  0.9267771E-01
          2   -1    0    0  501    0  0.00000000000E+00  0.00000000000E+00  0.23422444365E+04  0.23422444365E+04  0.25500000000E-02 0.  1.
         -2   -1    0    0    0  501 -0.00000000000E+00 -0.00000000000E+00 -0.11501202947E+03  0.11501202950E+03  0.25500000000E-02 0. -1.
    5000001    1    1    2    0    0  0.27946206757E+03  0.29602611303E+03  0.51450351267E+03  0.68559854970E+03  0.19900000000E+03 0.  0.
   -5000001    1    1    2    0    0 -0.27946206757E+03 -0.29602611303E+03  0.17127288943E+04  0.17716579163E+04  0.19900000000E+03 0.  0.
<mgrwt>
<rscale>  0 0.10380487E+04</rscale>
<asrwt>0</asrwt>
<pdfrwt beam="1">  1        2 0.33460633E+00 0.10380487E+04</pdfrwt>
<pdfrwt beam="2">  1       -2 0.16430291E-01 0.10380487E+04</pdfrwt>
<totfact> 0.16072504E+02</totfact>
</mgrwt>
</event>
<event>
 4    1  0.5131465E-005  0.5562294E+03  0.7818608E-02  0.1000062E+00
         -2   -1    0    0    0  501 -0.00000000000E+00  0.00000000000E+00  0.59886163345E+02  0.59886163399E+02  0.25500000000E-02 0. -1.
          2   -1    0    0  501    0  0.00000000000E+00 -0.00000000000E+00 -0.12915801571E+04  0.12915801571E+04  0.25500000000E-02 0.  1.
    5000001    1    1    2    0    0 -0.12770635005E+02  0.52329415001E+02 -0.10693953085E+04  0.10890862145E+04  0.19900000000E+03 0.  0.
   -5000001    1    1    2    0    0  0.12770635005E+02 -0.52329415001E+02 -0.16229868530E+03  0.26238010603E+03  0.19900000000E+03 0.  0.
<mgrwt>
<rscale>  0 0.55622938E+03</rscale>
<asrwt>0</asrwt>
<pdfrwt beam="1">  1        2 0.18451143E+00 0.55622938E+03</pdfrwt>
<pdfrwt beam="2">  1       -2 0.85551670E-02 0.55622938E+03</pdfrwt>
<totfact> 0.16929569E+03</totfact>
</mgrwt>
</event>
<event>
 4    1  0.5131465E-005  0.1183912E+04  0.7818608E-02  0.9127056E-01
          2   -1    0    0  501    0  0.00000000000E+00  0.00000000000E+00  0.80089952272E+03  0.80089952273E+03  0.25500000000E-02 0.  1.
         -2   -1    0    0    0  501 -0.00000000000E+00 -0.00000000000E+00 -0.43752305517E+03  0.43752305518E+03  0.25500000000E-02 0. -1.
    5000001    1    1    2    0    0  0.32236282476E+03  0.35193452884E+03 -0.11973780281E+03  0.53076722280E+03  0.19900000000E+03 0.  0.
   -5000001    1    1    2    0    0 -0.32236282476E+03 -0.35193452884E+03  0.48311427037E+03  0.70765535510E+03  0.19900000000E+03 0.  0.
<mgrwt>
<rscale>  0 0.11839122E+04</rscale>
<asrwt>0</asrwt>
<pdfrwt beam="1">  1        2 0.11441422E+00 0.11839122E+04</pdfrwt>
<pdfrwt beam="2">  1       -2 0.62503294E-01 0.11839122E+04</pdfrwt>
<totfact> 0.89093887E+01</totfact>
</mgrwt>
</event>
<event>
 4    1  0.5131465E-005  0.9866415E+03  0.7818608E-02  0.9323319E-01
          2   -1    0    0  501    0  0.00000000000E+00  0.00000000000E+00  0.15721972977E+04  0.15721972977E+04  0.25500000000E-02 0.  1.
         -2   -1    0    0    0  501 -0.00000000000E+00 -0.00000000000E+00 -0.15479313849E+03  0.15479313851E+03  0.25500000000E-02 0. -1.
    5000001    1    1    2    0    0 -0.16919501138E+03  0.41820976008E+03  0.68169871314E+03  0.84133256849E+03  0.19900000000E+03 0.  0.
   -5000001    1    1    2    0    0  0.16919501138E+03 -0.41820976008E+03  0.73570544610E+03  0.88565786776E+03  0.19900000000E+03 0.  0.
<mgrwt>
<rscale>  0 0.98664148E+03</rscale>
<asrwt>0</asrwt>
<pdfrwt beam="1">  1        2 0.22459962E+00 0.98664148E+03</pdfrwt>
<pdfrwt beam="2">  1       -2 0.22113305E-01 0.98664148E+03</pdfrwt>
<totfact> 0.23873198E+02</totfact>
</mgrwt>
</event>
<event>
 4    1  0.5131465E-005  0.5425978E+03  0.7818608E-02  0.1003222E+00
          2   -1    0    0  501    0  0.00000000000E+00  0.00000000000E+00  0.13094173275E+04  0.13094173275E+04  0.25500000000E-02 0.  1.
         -2   -1    0    0    0  501 -0.00000000000E+00 -0.00000000000E+00 -0.56210560216E+02  0.56210560274E+02  0.25500000000E-02 0. -1.
    5000001    1    1    2    0    0  0.11763830858E+03  0.74746677475E+02  0.32274081872E+03  0.40396593112E+03  0.19900000000E+03 0.  0.
   -5000001    1    1    2    0    0 -0.11763830858E+03 -0.74746677475E+02  0.93046594860E+03  0.96166195669E+03  0.19900000000E+03 0.  0.
<mgrwt>
<rscale>  0 0.54259776E+03</rscale>
<asrwt>0</asrwt>
<pdfrwt beam="1">  1        2 0.18705962E+00 0.54259776E+03</pdfrwt>
<pdfrwt beam="2">  1       -2 0.80300800E-02 0.54259776E+03</pdfrwt>
<totfact> 0.18322017E+03</totfact>
</mgrwt>
</event>
<event>
 4    1  0.5131465E-005  0.9753700E+03  0.7818608E-02  0.9335979E-01
          2   -1    0    0  501    0  0.00000000000E+00  0.00000000000E+00  0.33830361208E+04  0.33830361208E+04  0.25500000000E-02 0.  1.
         -2   -1    0    0    0  501 -0.00000000000E+00 -0.00000000000E+00 -0.70302727392E+02  0.70302727438E+02  0.25500000000E-02 0. -1.
    5000001    1    1    2    0    0 -0.35514219349E+03 -0.22373273925E+03  0.11305830436E+04  0.12222934732E+04  0.19900000000E+03 0.  0.
   -5000001    1    1    2    0    0  0.35514219349E+03  0.22373273925E+03  0.21821503498E+04  0.22310453750E+04  0.19900000000E+03 0.  0.
<mgrwt>
<rscale>  0 0.97537001E+03</rscale>
<asrwt>0</asrwt>
<pdfrwt beam="1">  1        2 0.48329089E+00 0.97537001E+03</pdfrwt>
<pdfrwt beam="2">  1       -2 0.10043247E-01 0.97537001E+03</pdfrwt>
<totfact> 0.99731729E+01</totfact>
</mgrwt>
</event>
<event>
 4    1  0.5131465E-005  0.7552880E+03  0.7818608E-02  0.9627091E-01
          2   -1    0    0  501    0  0.00000000000E+00  0.00000000000E+00  0.43825600803E+04  0.43825600803E+04  0.25500000000E-02 0.  1.
         -2   -1    0    0    0  501 -0.00000000000E+00 -0.00000000000E+00 -0.32541477648E+02  0.32541477748E+02  0.25500000000E-02 0. -1.
    5000001    1    1    2    0    0 -0.15333832033E+03  0.28144678887E+03  0.22743921316E+04  0.23054686083E+04  0.19900000000E+03 0.  0.
   -5000001    1    1    2    0    0  0.15333832033E+03 -0.28144678887E+03  0.20756264711E+04  0.21096329498E+04  0.19900000000E+03 0.  0.
<mgrwt>
<rscale>  0 0.75528797E+03</rscale>
<asrwt>0</asrwt>
<pdfrwt beam="1">  1        2 0.62608003E+00 0.75528797E+03</pdfrwt>
<pdfrwt beam="2">  1       -2 0.46487824E-02 0.75528797E+03</pdfrwt>
<totfact> 0.76658869E+01</totfact>
</mgrwt>
</event>
<event>
 4    1  0.5131465E-005  0.5606723E+03  0.7818608E-02  0.9990535E-01
         -2   -1    0    0    0  501 -0.00000000000E+00  0.00000000000E+00  0.14269001257E+03  0.14269001259E+03  0.25500000000E-02 0. -1.
          2   -1    0    0  501    0  0.00000000000E+00 -0.00000000000E+00 -0.55076289198E+03  0.55076289199E+03  0.25500000000E-02 0.  1.
    5000001    1    1    2    0    0  0.16475967353E+02 -0.18634697868E+03 -0.12590372069E+03  0.30074806873E+03  0.19900000000E+03 0.  0.
   -5000001    1    1    2    0    0 -0.16475967353E+02  0.18634697868E+03 -0.28216915872E+03  0.39270483585E+03  0.19900000000E+03 0.  0.
<mgrwt>
<rscale>  0 0.56067232E+03</rscale>
<asrwt>0</asrwt>
<pdfrwt beam="1">  1        2 0.78680412E-01 0.56067232E+03</pdfrwt>
<pdfrwt beam="2">  1       -2 0.20384288E-01 0.56067232E+03</pdfrwt>
<totfact> 0.12390317E+03</totfact>
</mgrwt>
</event>
<event>
 4    1  0.5131465E-005  0.7307332E+03  0.7818608E-02  0.9666071E-01
          2   -1    0    0  501    0  0.00000000000E+00  0.00000000000E+00  0.20355539341E+04  0.20355539341E+04  0.25500000000E-02 0.  1.
         -2   -1    0    0    0  501 -0.00000000000E+00 -0.00000000000E+00 -0.65580546607E+02  0.65580546656E+02  0.25500000000E-02 0. -1.
    5000001    1    1    2    0    0 -0.17638319496E+03  0.17563768127E+02  0.26630181292E+03  0.37674550160E+03  0.19900000000E+03 0.  0.
   -5000001    1    1    2    0    0  0.17638319496E+03 -0.17563768127E+02  0.17036715746E+04  0.17243889792E+04  0.19900000000E+03 0.  0.
<mgrwt>
<rscale>  0 0.73073317E+03</rscale>
<asrwt>0</asrwt>
<pdfrwt beam="1">  1        2 0.29079343E+00 0.73073317E+03</pdfrwt>
<pdfrwt beam="2">  1       -2 0.93686493E-02 0.73073317E+03</pdfrwt>
<totfact> 0.59975784E+02</totfact>
</mgrwt>
</event>
<event>
 4    1  0.5131465E-005  0.7122122E+03  0.7818608E-02  0.9696573E-01
          2   -1    0    0  501    0  0.00000000000E+00  0.00000000000E+00  0.55606123371E+03  0.55606123372E+03  0.25500000000E-02 0.  1.
         -2   -1    0    0    0  501 -0.00000000000E+00 -0.00000000000E+00 -0.22805324127E+03  0.22805324128E+03  0.25500000000E-02 0. -1.
    5000001    1    1    2    0    0 -0.20325710635E+03 -0.20569920241E+03  0.98084814483E+02  0.36448215866E+03  0.19900000000E+03 0.  0.
   -5000001    1    1    2    0    0  0.20325710635E+03  0.20569920241E+03  0.22992317796E+03  0.41963231634E+03  0.19900000000E+03 0.  0.
<mgrwt>
<rscale>  0 0.71221223E+03</rscale>
<asrwt>0</asrwt>
<pdfrwt beam="1">  1        2 0.79437318E-01 0.71221223E+03</pdfrwt>
<pdfrwt beam="2">  1       -2 0.32579035E-01 0.71221223E+03</pdfrwt>
<totfact> 0.52368914E+02</totfact>
</mgrwt>
</event>
<event>
 4    1  0.5131465E-005  0.4842962E+03  0.7818608E-02  0.1017961E+00
          2   -1    0    0  501    0  0.00000000000E+00  0.00000000000E+00  0.80303865192E+03  0.80303865193E+03  0.25500000000E-02 0.  1.
         -2   -1    0    0    0  501 -0.00000000000E+00 -0.00000000000E+00 -0.73017293331E+02  0.73017293376E+02  0.25500000000E-02 0. -1.
    5000001    1    1    2    0    0 -0.61935321363E+02  0.98847808444E+02  0.49828120067E+03  0.54908289739E+03  0.19900000000E+03 0.  0.
   -5000001    1    1    2    0    0  0.61935321363E+02 -0.98847808444E+02  0.23174015792E+03  0.32697304791E+03  0.19900000000E+03 0.  0.
<mgrwt>
<rscale>  0 0.48429623E+03</rscale>
<asrwt>0</asrwt>
<pdfrwt beam="1">  1        2 0.11471981E+00 0.48429623E+03</pdfrwt>
<pdfrwt beam="2">  1       -2 0.10431042E-01 0.48429623E+03</pdfrwt>
<totfact> 0.24177304E+03</totfact>
</mgrwt>
</event>
<event>
 4    1  0.5131465E-005  0.5792011E+03  0.7818608E-02  0.9949522E-01
         -2   -1    0    0    0  501 -0.00000000000E+00  0.00000000000E+00  0.25953644324E+02  0.25953644450E+02  0.25500000000E-02 0. -1.
          2   -1    0    0  501    0  0.00000000000E+00 -0.00000000000E+00 -0.32314718983E+04  0.32314718983E+04  0.25500000000E-02 0.  1.
    5000001    1    1    2    0    0 -0.15422965723E+03 -0.11951872925E+03 -0.11600694530E+04  0.11930773862E+04  0.19900000000E+03 0.  0.
   -5000001    1    1    2    0    0  0.15422965723E+03  0.11951872925E+03 -0.20454488010E+04  0.20643481565E+04  0.19900000000E+03 0.  0.
<mgrwt>
<rscale>  0 0.57920108E+03</rscale>
<asrwt>0</asrwt>
<pdfrwt beam="1">  1        2 0.46163859E+00 0.57920108E+03</pdfrwt>
<pdfrwt beam="2">  1       -2 0.37076656E-02 0.57920108E+03</pdfrwt>
<totfact> 0.61223317E+02</totfact>
</mgrwt>
</event>
<event>
 4    1  0.5131465E-005  0.1141720E+04  0.7818608E-02  0.9165456E-01
          2   -1    0    0  501    0  0.00000000000E+00  0.00000000000E+00  0.15846968950E+04  0.15846968950E+04  0.25500000000E-02 0. -1.
         -2   -1    0    0    0  501 -0.00000000000E+00 -0.00000000000E+00 -0.20564267597E+03  0.20564267598E+03  0.25500000000E-02 0.  1.
    5000001    1    1    2    0    0  0.42625802520E+03 -0.31683092142E+03  0.58787103496E+03  0.81686662960E+03  0.19900000000E+03 0.  0.
   -5000001    1    1    2    0    0 -0.42625802520E+03  0.31683092142E+03  0.79118318404E+03  0.97347294134E+03  0.19900000000E+03 0.  0.
<mgrwt>
<rscale>  0 0.11417203E+04</rscale>
<asrwt>0</asrwt>
<pdfrwt beam="1">  1        2 0.22638527E+00 0.11417203E+04</pdfrwt>
<pdfrwt beam="2">  1       -2 0.29377525E-01 0.11417203E+04</pdfrwt>
<totfact> 0.13904032E+02</totfact>
</mgrwt>
</event>
<event>
 4    1  0.5131465E-005  0.6161185E+03  0.7818608E-02  0.9872518E-01
          2   -1    0    0  501    0  0.00000000000E+00  0.00000000000E+00  0.21765321428E+03  0.21765321430E+03  0.25500000000E-02 0.  1.
         -2   -1    0    0    0  501 -0.00000000000E+00 -0.00000000000E+00 -0.43601705830E+03  0.43601705831E+03  0.25500000000E-02 0. -1.
    5000001    1    1    2    0    0 -0.21368874153E+03  0.88366417433E+02 -0.63820777267E+02  0.31168187884E+03  0.19900000000E+03 0.  0.
   -5000001    1    1    2    0    0  0.21368874153E+03 -0.88366417433E+02 -0.15454306675E+03  0.34198839376E+03  0.19900000000E+03 0.  0.
<mgrwt>
<rscale>  0 0.61611854E+03</rscale>
<asrwt>0</asrwt>
<pdfrwt beam="1">  1        2 0.31093317E-01 0.61611854E+03</pdfrwt>
<pdfrwt beam="2">  1       -2 0.62288151E-01 0.61611854E+03</pdfrwt>
<totfact> 0.41248410E+02</totfact>
</mgrwt>
</event>
<event>
 4    1  0.5131465E-005  0.5740370E+03  0.7818608E-02  0.9960785E-01
          2   -1    0    0  501    0  0.00000000000E+00  0.00000000000E+00  0.93156730300E+03  0.93156730301E+03  0.25500000000E-02 0.  1.
         -2   -1    0    0    0  501 -0.00000000000E+00 -0.00000000000E+00 -0.88431197452E+02  0.88431197488E+02  0.25500000000E-02 0. -1.
    5000001    1    1    2    0    0 -0.10326080989E+03  0.17261418340E+03  0.33597890073E+03  0.43925080866E+03  0.19900000000E+03 0.  0.
   -5000001    1    1    2    0    0  0.10326080989E+03 -0.17261418340E+03  0.50715720482E+03  0.58074769184E+03  0.19900000000E+03 0.  0.
<mgrwt>
<rscale>  0 0.57403697E+03</rscale>
<asrwt>0</asrwt>
<pdfrwt beam="1">  1        2 0.13308105E+00 0.57403697E+03</pdfrwt>
<pdfrwt beam="2">  1       -2 0.12633028E-01 0.57403697E+03</pdfrwt>
<totfact> 0.14544713E+03</totfact>
</mgrwt>
</event>
<event>
 4    1  0.5131465E-005  0.7581272E+03  0.7818608E-02  0.9622686E-01
          2   -1    0    0  501    0  0.00000000000E+00  0.00000000000E+00  0.15165184378E+04  0.15165184378E+04  0.25500000000E-02 0.  1.
         -2   -1    0    0    0  501 -0.00000000000E+00 -0.00000000000E+00 -0.94749395362E+02  0.94749395396E+02  0.25500000000E-02 0. -1.
    5000001    1    1    2    0    0  0.26302463895E+03 -0.10548147778E+03  0.10386254669E+04  0.10948297417E+04  0.19900000000E+03 0.  0.
   -5000001    1    1    2    0    0 -0.26302463895E+03  0.10548147778E+03  0.38314357551E+03  0.51643809145E+03  0.19900000000E+03 0.  0.
<mgrwt>
<rscale>  0 0.75812718E+03</rscale>
<asrwt>0</asrwt>
<pdfrwt beam="1">  1        2 0.21664549E+00 0.75812718E+03</pdfrwt>
<pdfrwt beam="2">  1       -2 0.13535628E-01 0.75812718E+03</pdfrwt>
<totfact> 0.60235977E+02</totfact>
</mgrwt>
</event>
<event>
 4    1  0.5131465E-005  0.5289628E+03  0.7818608E-02  0.1006484E+00
         -2   -1    0    0    0  501 -0.00000000000E+00  0.00000000000E+00  0.44273286774E+02  0.44273286847E+02  0.25500000000E-02 0.  1.
          2   -1    0    0  501    0  0.00000000000E+00 -0.00000000000E+00 -0.15799689837E+04  0.15799689837E+04  0.25500000000E-02 0. -1.
    5000001    1    1    2    0    0  0.14761326659E+03  0.88366825051E+01 -0.48505658331E+03  0.54474641113E+03  0.19900000000E+03 0.  0.
   -5000001    1    1    2    0    0 -0.14761326659E+03 -0.88366825051E+01 -0.10506391136E+04  0.10794958594E+04  0.19900000000E+03 0.  0.
<mgrwt>
<rscale>  0 0.52896283E+03</rscale>
<asrwt>0</asrwt>
<pdfrwt beam="1">  1        2 0.22570982E+00 0.52896283E+03</pdfrwt>
<pdfrwt beam="2">  1       -2 0.63247562E-02 0.52896283E+03</pdfrwt>
<totfact> 0.19262353E+03</totfact>
</mgrwt>
</event>
<event>
 4    1  0.5131465E-005  0.5904414E+03  0.7818608E-02  0.9925438E-01
         -2   -1    0    0    0  501 -0.00000000000E+00  0.00000000000E+00  0.18094970248E+03  0.18094970250E+03  0.25500000000E-02 0. -1.
          2   -1    0    0  501    0  0.00000000000E+00 -0.00000000000E+00 -0.48165455400E+03  0.48165455400E+03  0.25500000000E-02 0.  1.
    5000001    1    1    2    0    0  0.16177837194E+03  0.10796708163E+03 -0.39683716003E+02  0.28107815578E+03  0.19900000000E+03 0.  0.
   -5000001    1    1    2    0    0 -0.16177837194E+03 -0.10796708163E+03 -0.26102113551E+03  0.38152610072E+03  0.19900000000E+03 0.  0.
<mgrwt>
<rscale>  0 0.59044135E+03</rscale>
<asrwt>0</asrwt>
<pdfrwt beam="1">  1        2 0.68807793E-01 0.59044135E+03</pdfrwt>
<pdfrwt beam="2">  1       -2 0.25849958E-01 0.59044135E+03</pdfrwt>
<totfact> 0.94753958E+02</totfact>
</mgrwt>
</event>
<event>
 4    1  0.5131465E-005  0.4949037E+03  0.7818608E-02  0.1015118E+00
          2   -1    0    0  501    0  0.00000000000E+00  0.00000000000E+00  0.31214769474E+04  0.31214769474E+04  0.25500000000E-02 0.  1.
         -2   -1    0    0    0  501 -0.00000000000E+00 -0.00000000000E+00 -0.19616485207E+02  0.19616485373E+02  0.25500000000E-02 0. -1.
    5000001    1    1    2    0    0  0.54324730303E+02  0.13171481709E+03  0.17825206285E+04  0.17992444971E+04  0.19900000000E+03 0.  0.
   -5000001    1    1    2    0    0 -0.54324730303E+02 -0.13171481709E+03  0.13193398337E+04  0.13418489357E+04  0.19900000000E+03 0.  0.
<mgrwt>
<rscale>  0 0.49490365E+03</rscale>
<asrwt>0</asrwt>
<pdfrwt beam="1">  1        2 0.44592556E+00 0.49490365E+03</pdfrwt>
<pdfrwt beam="2">  1       -2 0.28023533E-02 0.49490365E+03</pdfrwt>
<totfact> 0.10883595E+03</totfact>
</mgrwt>
</event>
<event>
 4    1  0.5131465E-005  0.1483370E+04  0.7818608E-02  0.8895588E-01
         -2   -1    0    0    0  501 -0.00000000000E+00  0.00000000000E+00  0.34254713261E+03  0.34254713262E+03  0.25500000000E-02 0. -1.
          2   -1    0    0  501    0  0.00000000000E+00 -0.00000000000E+00 -0.16059006165E+04  0.16059006165E+04  0.25500000000E-02 0.  1.
    5000001    1    1    2    0    0 -0.52797251595E+03 -0.45976092258E+03 -0.81910462996E+03  0.10957501898E+04  0.19900000000E+03 0.  0.
   -5000001    1    1    2    0    0  0.52797251595E+03  0.45976092258E+03 -0.44424885392E+03  0.85269755936E+03  0.19900000000E+03 0.  0.
<mgrwt>
<rscale>  0 0.14833700E+04</rscale>
<asrwt>0</asrwt>
<pdfrwt beam="1">  1        2 0.22941437E+00 0.14833700E+04</pdfrwt>
<pdfrwt beam="2">  1       -2 0.48935306E-01 0.14833700E+04</pdfrwt>
<totfact> 0.49202142E+01</totfact>
</mgrwt>
</event>
<event>
 4    1  0.5131465E-005  0.4561944E+03  0.7818608E-02  0.1025891E+00
          2   -1    0    0  501    0  0.00000000000E+00  0.00000000000E+00  0.11521317232E+04  0.11521317232E+04  0.25500000000E-02 0.  1.
         -2   -1    0    0    0  501 -0.00000000000E+00 -0.00000000000E+00 -0.45158323424E+02  0.45158323496E+02  0.25500000000E-02 0. -1.
    5000001    1    1    2    0    0  0.43871794677E+02  0.95591575757E+02  0.45652674792E+03  0.50899917022E+03  0.19900000000E+03 0.  0.
   -5000001    1    1    2    0    0 -0.43871794677E+02 -0.95591575757E+02  0.65044665184E+03  0.68829087646E+03  0.19900000000E+03 0.  0.
<mgrwt>
<rscale>  0 0.45619442E+03</rscale>
<asrwt>0</asrwt>
<pdfrwt beam="1">  1        2 0.16459023E+00 0.45619442E+03</pdfrwt>
<pdfrwt beam="2">  1       -2 0.64511897E-02 0.45619442E+03</pdfrwt>
<totfact> 0.31616936E+03</totfact>
</mgrwt>
</event>
<event>
 4    1  0.5131465E-005  0.5911310E+03  0.7818608E-02  0.9923979E-01
         -2   -1    0    0    0  501 -0.00000000000E+00  0.00000000000E+00  0.71189779405E+02  0.71189779451E+02  0.25500000000E-02 0. -1.
          2   -1    0    0  501    0  0.00000000000E+00 -0.00000000000E+00 -0.12271281008E+04  0.12271281008E+04  0.25500000000E-02 0.  1.
    5000001    1    1    2    0    0  0.75318810589E+02 -0.20488161162E+03 -0.60085536825E+03  0.66953534004E+03  0.19900000000E+03 0.  0.
   -5000001    1    1    2    0    0 -0.75318810589E+02  0.20488161162E+03 -0.55508295317E+03  0.62878254024E+03  0.19900000000E+03 0.  0.
<mgrwt>
<rscale>  0 0.59113105E+03</rscale>
<asrwt>0</asrwt>
<pdfrwt beam="1">  1        2 0.17530400E+00 0.59113105E+03</pdfrwt>
<pdfrwt beam="2">  1       -2 0.10169969E-01 0.59113105E+03</pdfrwt>
<totfact> 0.13891343E+03</totfact>
</mgrwt>
</event>
<event>
 4    1  0.5131465E-005  0.6865999E+03  0.7818608E-02  0.9740427E-01
         -2   -1    0    0    0  501 -0.00000000000E+00  0.00000000000E+00  0.43577875880E+02  0.43577875955E+02  0.25500000000E-02 0. -1.
          2   -1    0    0  501    0  0.00000000000E+00 -0.00000000000E+00 -0.27044656296E+04  0.27044656296E+04  0.25500000000E-02 0.  1.
    5000001    1    1    2    0    0 -0.26753753792E+03 -0.70985058791E+02 -0.11684257555E+04  0.12171421277E+04  0.19900000000E+03 0.  0.
   -5000001    1    1    2    0    0  0.26753753792E+03  0.70985058791E+02 -0.14924619982E+04  0.15309013779E+04  0.19900000000E+03 0.  0.
<mgrwt>
<rscale>  0 0.68659993E+03</rscale>
<asrwt>0</asrwt>
<pdfrwt beam="1">  1        2 0.38635213E+00 0.68659993E+03</pdfrwt>
<pdfrwt beam="2">  1       -2 0.62254126E-02 0.68659993E+03</pdfrwt>
<totfact> 0.52449757E+02</totfact>
</mgrwt>
</event>
<event>
 4    1  0.5131465E-005  0.5230805E+03  0.7818608E-02  0.1007924E+00
          2   -1    0    0  501    0  0.00000000000E+00  0.00000000000E+00  0.26910892638E+04  0.26910892638E+04  0.25500000000E-02 0.  1.
         -2   -1    0    0    0  501 -0.00000000000E+00 -0.00000000000E+00 -0.25418441130E+02  0.25418441258E+02  0.25500000000E-02 0. -1.
    5000001    1    1    2    0    0 -0.31153775242E+02  0.16668116632E+03  0.13692348754E+04  0.13939721349E+04  0.19900000000E+03 0.  0.
   -5000001    1    1    2    0    0  0.31153775242E+02 -0.16668116632E+03  0.12964359473E+04  0.13225355701E+04  0.19900000000E+03 0.  0.
<mgrwt>
<rscale>  0 0.52308047E+03</rscale>
<asrwt>0</asrwt>
<pdfrwt beam="1">  1        2 0.38444132E+00 0.52308047E+03</pdfrwt>
<pdfrwt beam="2">  1       -2 0.36312059E-02 0.52308047E+03</pdfrwt>
<totfact> 0.12446762E+03</totfact>
</mgrwt>
</event>
<event>
 4    1  0.5131465E-005  0.6264316E+03  0.7818608E-02  0.9852037E-01
         -2   -1    0    0    0  501 -0.00000000000E+00  0.00000000000E+00  0.77451022628E+02  0.77451022670E+02  0.25500000000E-02 0. -1.
          2   -1    0    0  501    0  0.00000000000E+00 -0.00000000000E+00 -0.12666604297E+04  0.12666604297E+04  0.25500000000E-02 0.  1.
    5000001    1    1    2    0    0 -0.19500503150E+03  0.89330676831E+02 -0.35474857246E+03  0.45984180084E+03  0.19900000000E+03 0.  0.
   -5000001    1    1    2    0    0  0.19500503150E+03 -0.89330676831E+02 -0.83446083464E+03  0.88426965156E+03  0.19900000000E+03 0.  0.
<mgrwt>
<rscale>  0 0.62643163E+03</rscale>
<asrwt>0</asrwt>
<pdfrwt beam="1">  1        2 0.18095148E+00 0.62643163E+03</pdfrwt>
<pdfrwt beam="2">  1       -2 0.11064433E-01 0.62643163E+03</pdfrwt>
<totfact> 0.11503093E+03</totfact>
</mgrwt>
</event>
<event>
 4    1  0.5131465E-005  0.1144220E+04  0.7818608E-02  0.9163133E-01
          2   -1    0    0  501    0  0.00000000000E+00  0.00000000000E+00  0.55510174910E+03  0.55510174910E+03  0.25500000000E-02 0.  1.
         -2   -1    0    0    0  501 -0.00000000000E+00 -0.00000000000E+00 -0.58963930431E+03  0.58963930432E+03  0.25500000000E-02 0. -1.
    5000001    1    1    2    0    0 -0.50792532163E+03 -0.12284929481E+03 -0.13827314014E+03  0.57602130418E+03  0.19900000000E+03 0.  0.
   -5000001    1    1    2    0    0  0.50792532163E+03  0.12284929481E+03  0.10373558493E+03  0.56871974923E+03  0.19900000000E+03 0.  0.
<mgrwt>
<rscale>  0 0.11442199E+04</rscale>
<asrwt>0</asrwt>
<pdfrwt beam="1">  1        2 0.79300250E-01 0.11442199E+04</pdfrwt>
<pdfrwt beam="2">  1       -2 0.84234186E-01 0.11442199E+04</pdfrwt>
<totfact> 0.72531891E+01</totfact>
</mgrwt>
</event>
<event>
 4    1  0.5131465E-005  0.5558324E+03  0.7818608E-02  0.1000153E+00
         -2   -1    0    0    0  501 -0.00000000000E+00  0.00000000000E+00  0.73036987536E+02  0.73036987581E+02  0.25500000000E-02 0. -1.
          2   -1    0    0  501    0  0.00000000000E+00 -0.00000000000E+00 -0.10575109815E+04  0.10575109815E+04  0.25500000000E-02 0.  1.
    5000001    1    1    2    0    0 -0.15054220622E+03  0.11426529976E+03 -0.40318471271E+03  0.48772782076E+03  0.19900000000E+03 0.  0.
   -5000001    1    1    2    0    0  0.15054220622E+03 -0.11426529976E+03 -0.58128928122E+03  0.64282014828E+03  0.19900000000E+03 0.  0.
<mgrwt>
<rscale>  0 0.55583241E+03</rscale>
<asrwt>0</asrwt>
<pdfrwt beam="1">  1        2 0.15107299E+00 0.55583241E+03</pdfrwt>
<pdfrwt beam="2">  1       -2 0.10433856E-01 0.55583241E+03</pdfrwt>
<totfact> 0.16671860E+03</totfact>
</mgrwt>
</event>
<event>
 4    1  0.5131465E-005  0.1144401E+04  0.7818608E-02  0.9162965E-01
          2   -1    0    0  501    0  0.00000000000E+00  0.00000000000E+00  0.27514696719E+03  0.27514696721E+03  0.25500000000E-02 0.  1.
         -2   -1    0    0    0  501 -0.00000000000E+00 -0.00000000000E+00 -0.11899577891E+04  0.11899577891E+04  0.25500000000E-02 0. -1.
    5000001    1    1    2    0    0  0.49370096679E+03  0.16370206520E+03 -0.28914661762E+03  0.62749165512E+03  0.19900000000E+03 0.  0.
   -5000001    1    1    2    0    0 -0.49370096679E+03 -0.16370206520E+03 -0.62566420427E+03  0.83761310118E+03  0.19900000000E+03 0.  0.
<mgrwt>
<rscale>  0 0.11444008E+04</rscale>
<asrwt>0</asrwt>
<pdfrwt beam="1">  1        2 0.39306710E-01 0.11444008E+04</pdfrwt>
<pdfrwt beam="2">  1       -2 0.16999397E+00 0.11444008E+04</pdfrwt>
<totfact> 0.27721471E+01</totfact>
</mgrwt>
</event>
<event>
 4    1  0.5131465E-005  0.4352673E+03  0.7818608E-02  0.1032209E+00
          2   -1    0    0  501    0  0.00000000000E+00  0.00000000000E+00  0.17724393871E+04  0.17724393871E+04  0.25500000000E-02 0.  1.
         -2   -1    0    0    0  501 -0.00000000000E+00 -0.00000000000E+00 -0.26722717508E+02  0.26722717630E+02  0.25500000000E-02 0. -1.
    5000001    1    1    2    0    0 -0.34643094138E+02  0.48074652657E+02  0.60332340507E+03  0.63805285620E+03  0.19900000000E+03 0.  0.
   -5000001    1    1    2    0    0  0.34643094138E+02 -0.48074652657E+02  0.11423932645E+04  0.11611092485E+04  0.19900000000E+03 0.  0.
<mgrwt>
<rscale>  0 0.43526726E+03</rscale>
<asrwt>0</asrwt>
<pdfrwt beam="1">  1        2 0.25320576E+00 0.43526726E+03</pdfrwt>
<pdfrwt beam="2">  1       -2 0.38175291E-02 0.43526726E+03</pdfrwt>
<totfact> 0.33614408E+03</totfact>
</mgrwt>
</event>
<event>
 4    1  0.5131465E-005  0.5050817E+03  0.7818608E-02  0.1012461E+00
         -2   -1    0    0    0  501 -0.00000000000E+00  0.00000000000E+00  0.22558251561E+02  0.22558251705E+02  0.25500000000E-02 0. -1.
          2   -1    0    0  501    0  0.00000000000E+00 -0.00000000000E+00 -0.28272079926E+04  0.28272079926E+04  0.25500000000E-02 0.  1.
    5000001    1    1    2    0    0  0.50823064404E+02 -0.11472563013E+03 -0.19203907683E+04  0.19347471817E+04  0.19900000000E+03 0.  0.
   -5000001    1    1    2    0    0 -0.50823064404E+02  0.11472563013E+03 -0.88425897275E+03  0.91501906263E+03  0.19900000000E+03 0.  0.
<mgrwt>
<rscale>  0 0.50508165E+03</rscale>
<asrwt>0</asrwt>
<pdfrwt beam="1">  1        2 0.40388663E+00 0.50508165E+03</pdfrwt>
<pdfrwt beam="2">  1       -2 0.32226092E-02 0.50508165E+03</pdfrwt>
<totfact> 0.12682012E+03</totfact>
</mgrwt>
</event>
<event>
 4    1  0.5131465E-005  0.4638868E+03  0.7818608E-02  0.1023660E+00
          2   -1    0    0  501    0  0.00000000000E+00  0.00000000000E+00  0.22298099399E+04  0.22298099399E+04  0.25500000000E-02 0.  1.
         -2   -1    0    0    0  501 -0.00000000000E+00 -0.00000000000E+00 -0.24126607862E+02  0.24126607997E+02  0.25500000000E-02 0. -1.
    5000001    1    1    2    0    0  0.85784411098E+02  0.69785874007E+02  0.88731007841E+03  0.91605087667E+03  0.19900000000E+03 0.  0.
   -5000001    1    1    2    0    0 -0.85784411098E+02 -0.69785874007E+02  0.13183732536E+04  0.13378856712E+04  0.19900000000E+03 0.  0.
<mgrwt>
<rscale>  0 0.46388684E+03</rscale>
<asrwt>0</asrwt>
<pdfrwt beam="1">  1        2 0.31854417E+00 0.46388684E+03</pdfrwt>
<pdfrwt beam="2">  1       -2 0.34466595E-02 0.46388684E+03</pdfrwt>
<totfact> 0.23219590E+03</totfact>
</mgrwt>
</event>
<event>
 4    1  0.5131465E-005  0.6738114E+03  0.7818608E-02  0.9763097E-01
          2   -1    0    0  501    0  0.00000000000E+00  0.00000000000E+00  0.19688060674E+04  0.19688060674E+04  0.25500000000E-02 0.  1.
         -2   -1    0    0    0  501 -0.00000000000E+00 -0.00000000000E+00 -0.57651926102E+02  0.57651926159E+02  0.25500000000E-02 0. -1.
    5000001    1    1    2    0    0 -0.12258255623E+03  0.23531923235E+03  0.11335726601E+04  0.11810967784E+04  0.19900000000E+03 0.  0.
   -5000001    1    1    2    0    0  0.12258255623E+03 -0.23531923235E+03  0.77758148117E+03  0.84536121514E+03  0.19900000000E+03 0.  0.
<mgrwt>
<rscale>  0 0.67381143E+03</rscale>
<asrwt>0</asrwt>
<pdfrwt beam="1">  1        2 0.28125796E+00 0.67381143E+03</pdfrwt>
<pdfrwt beam="2">  1       -2 0.82359909E-02 0.67381143E+03</pdfrwt>
<totfact> 0.80032734E+02</totfact>
</mgrwt>
</event>
<event>
 4    1  0.5131465E-005  0.5848291E+03  0.7818608E-02  0.9937391E-01
         -2   -1    0    0    0  501 -0.00000000000E+00  0.00000000000E+00  0.15053911723E+03  0.15053911726E+03  0.25500000000E-02 0. -1.
          2   -1    0    0  501    0  0.00000000000E+00 -0.00000000000E+00 -0.56800029258E+03  0.56800029259E+03  0.25500000000E-02 0.  1.
    5000001    1    1    2    0    0  0.17598457548E+03 -0.12216702374E+03 -0.20486280833E+03  0.35702258015E+03  0.19900000000E+03 0.  0.
   -5000001    1    1    2    0    0 -0.17598457548E+03  0.12216702374E+03 -0.21259836702E+03  0.36151682970E+03  0.19900000000E+03 0.  0.
<mgrwt>
<rscale>  0 0.58482908E+03</rscale>
<asrwt>0</asrwt>
<pdfrwt beam="1">  1        2 0.81142898E-01 0.58482908E+03</pdfrwt>
<pdfrwt beam="2">  1       -2 0.21505588E-01 0.58482908E+03</pdfrwt>
<totfact> 0.10884165E+03</totfact>
</mgrwt>
</event>
<event>
 4    1  0.5131465E-005  0.5456436E+03  0.7818608E-02  0.1002507E+00
          2   -1    0    0  501    0  0.00000000000E+00  0.00000000000E+00  0.66389839020E+03  0.66389839021E+03  0.25500000000E-02 0.  1.
         -2   -1    0    0    0  501 -0.00000000000E+00 -0.00000000000E+00 -0.11211312848E+03  0.11211312851E+03  0.25500000000E-02 0. -1.
    5000001    1    1    2    0    0 -0.10953317767E+03  0.14179265530E+03  0.20161032020E+03  0.33518710494E+03  0.19900000000E+03 0.  0.
   -5000001    1    1    2    0    0  0.10953317767E+03 -0.14179265530E+03  0.35017494152E+03  0.44082441377E+03  0.19900000000E+03 0.  0.
<mgrwt>
<rscale>  0 0.54564357E+03</rscale>
<asrwt>0</asrwt>
<pdfrwt beam="1">  1        2 0.94842630E-01 0.54564357E+03</pdfrwt>
<pdfrwt beam="2">  1       -2 0.16016161E-01 0.54564357E+03</pdfrwt>
<totfact> 0.15048265E+03</totfact>
</mgrwt>
</event>
<event>
 4    1  0.5131465E-005  0.5700005E+03  0.7818608E-02  0.9969678E-01
         -2   -1    0    0    0  501 -0.00000000000E+00  0.00000000000E+00  0.14126101443E+03  0.14126101446E+03  0.25500000000E-02 0. -1.
          2   -1    0    0  501    0  0.00000000000E+00 -0.00000000000E+00 -0.57500033003E+03  0.57500033003E+03  0.25500000000E-02 0.  1.
    5000001    1    1    2    0    0 -0.16090526127E+03  0.12498943937E+03 -0.20361467273E+03  0.35010398171E+03  0.19900000000E+03 0.  0.
   -5000001    1    1    2    0    0  0.16090526127E+03 -0.12498943937E+03 -0.23012464286E+03  0.36615736277E+03  0.19900000000E+03 0.  0.
<mgrwt>
<rscale>  0 0.57000046E+03</rscale>
<asrwt>0</asrwt>
<pdfrwt beam="1">  1        2 0.82142903E-01 0.57000046E+03</pdfrwt>
<pdfrwt beam="2">  1       -2 0.20180145E-01 0.57000046E+03</pdfrwt>
<totfact> 0.11994858E+03</totfact>
</mgrwt>
</event>
<event>
 4    1  0.5131465E-005  0.8712800E+03  0.7818608E-02  0.9462213E-01
         -2   -1    0    0    0  501 -0.00000000000E+00  0.00000000000E+00  0.12548446465E+03  0.12548446467E+03  0.25500000000E-02 0. -1.
          2   -1    0    0  501    0  0.00000000000E+00 -0.00000000000E+00 -0.15123958888E+04  0.15123958888E+04  0.25500000000E-02 0.  1.
    5000001    1    1    2    0    0 -0.21669824166E+03 -0.10931405769E+03 -0.12613883122E+04  0.12998496703E+04  0.19900000000E+03 0.  0.
   -5000001    1    1    2    0    0  0.21669824166E+03  0.10931405769E+03 -0.12552311193E+03  0.33803068319E+03  0.19900000000E+03 0.  0.
<mgrwt>
<rscale>  0 0.87127995E+03</rscale>
<asrwt>0</asrwt>
<pdfrwt beam="1">  1        2 0.21605654E+00 0.87127995E+03</pdfrwt>
<pdfrwt beam="2">  1       -2 0.17926353E-01 0.87127995E+03</pdfrwt>
<totfact> 0.37327095E+02</totfact>
</mgrwt>
</event>
<event>
 4    1  0.5131465E-005  0.5536040E+03  0.7818608E-02  0.1000663E+00
         -2   -1    0    0    0  501 -0.00000000000E+00  0.00000000000E+00  0.42457831413E+02  0.42457831490E+02  0.25500000000E-02 0. -1.
          2   -1    0    0  501    0  0.00000000000E+00 -0.00000000000E+00 -0.18045989064E+04  0.18045989064E+04  0.25500000000E-02 0.  1.
    5000001    1    1    2    0    0  0.81658729979E+02  0.14024542050E+02 -0.14604325310E+04  0.14762550638E+04  0.19900000000E+03 0.  0.
   -5000001    1    1    2    0    0 -0.81658729979E+02 -0.14024542050E+02 -0.30170854406E+03  0.37080167410E+03  0.19900000000E+03 0.  0.
<mgrwt>
<rscale>  0 0.55360403E+03</rscale>
<asrwt>0</asrwt>
<pdfrwt beam="1">  1        2 0.25779980E+00 0.55360403E+03</pdfrwt>
<pdfrwt beam="2">  1       -2 0.60654056E-02 0.55360403E+03</pdfrwt>
<totfact> 0.15805577E+03</totfact>
</mgrwt>
</event>
<event>
 4    1  0.5131465E-005  0.6191073E+03  0.7818608E-02  0.9866539E-01
          2   -1    0    0  501    0  0.00000000000E+00  0.00000000000E+00  0.19322889504E+04  0.19322889504E+04  0.25500000000E-02 0.  1.
         -2   -1    0    0    0  501 -0.00000000000E+00 -0.00000000000E+00 -0.49590645373E+02  0.49590645438E+02  0.25500000000E-02 0. -1.
    5000001    1    1    2    0    0  0.25969159907E+02  0.23157824907E+03  0.10816026575E+04  0.11241744488E+04  0.19900000000E+03 0.  0.
   -5000001    1    1    2    0    0 -0.25969159907E+02 -0.23157824907E+03  0.80109564757E+03  0.85770514704E+03  0.19900000000E+03 0.  0.
<mgrwt>
<rscale>  0 0.61910728E+03</rscale>
<asrwt>0</asrwt>
<pdfrwt beam="1">  1        2 0.27604119E+00 0.61910728E+03</pdfrwt>
<pdfrwt beam="2">  1       -2 0.70843803E-02 0.61910728E+03</pdfrwt>
<totfact> 0.10643857E+03</totfact>
</mgrwt>
</event>
<event>
 4    1  0.5131465E-005  0.5607585E+03  0.7818608E-02  0.9990340E-01
          2   -1    0    0  501    0  0.00000000000E+00  0.00000000000E+00  0.22447047305E+03  0.22447047307E+03  0.25500000000E-02 0. -1.
         -2   -1    0    0    0  501 -0.00000000000E+00 -0.00000000000E+00 -0.35021324014E+03  0.35021324015E+03  0.25500000000E-02 0.  1.
    5000001    1    1    2    0    0 -0.98913584751E+02  0.12233713904E+03 -0.18525743786E+03  0.31412034496E+03  0.19900000000E+03 0.  0.
   -5000001    1    1    2    0    0  0.98913584751E+02 -0.12233713904E+03  0.59514670781E+02  0.26056336825E+03  0.19900000000E+03 0.  0.
<mgrwt>
<rscale>  0 0.56075853E+03</rscale>
<asrwt>0</asrwt>
<pdfrwt beam="1">  1        2 0.32067210E-01 0.56075853E+03</pdfrwt>
<pdfrwt beam="2">  1       -2 0.50030463E-01 0.56075853E+03</pdfrwt>
<totfact> 0.62793918E+02</totfact>
</mgrwt>
</event>
<event>
 4    1  0.5131465E-005  0.8656607E+03  0.7818608E-02  0.9469555E-01
          2   -1    0    0  501    0  0.00000000000E+00  0.00000000000E+00  0.41491499626E+04  0.41491499626E+04  0.25500000000E-02 0.  1.
         -2   -1    0    0    0  501 -0.00000000000E+00 -0.00000000000E+00 -0.45151930825E+02  0.45151930897E+02  0.25500000000E-02 0. -1.
    5000001    1    1    2    0    0  0.53502021637E+02  0.35167759898E+03  0.27574966901E+04  0.27874591649E+04  0.19900000000E+03 0.  0.
   -5000001    1    1    2    0    0 -0.53502021637E+02 -0.35167759898E+03  0.13465013417E+04  0.14068427286E+04  0.19900000000E+03 0.  0.
<mgrwt>
<rscale>  0 0.86566075E+03</rscale>
<asrwt>0</asrwt>
<pdfrwt beam="1">  1        2 0.59273555E+00 0.86566075E+03</pdfrwt>
<pdfrwt beam="2">  1       -2 0.64502776E-02 0.86566075E+03</pdfrwt>
<totfact> 0.66661287E+01</totfact>
</mgrwt>
</event>
<event>
 4    1  0.5131465E-005  0.4741556E+03  0.7818608E-02  0.1020754E+00
          2   -1    0    0  501    0  0.00000000000E+00  0.00000000000E+00  0.85490515419E+03  0.85490515419E+03  0.25500000000E-02 0.  1.
         -2   -1    0    0    0  501 -0.00000000000E+00 -0.00000000000E+00 -0.65745176155E+02  0.65745176204E+02  0.25500000000E-02 0. -1.
    5000001    1    1    2    0    0  0.61683188921E+02  0.27301113297E+02  0.60776291960E+03  0.64306059826E+03  0.19900000000E+03 0.  0.
   -5000001    1    1    2    0    0 -0.61683188921E+02 -0.27301113297E+02  0.18139705843E+03  0.27758973214E+03  0.19900000000E+03 0.  0.
<mgrwt>
<rscale>  0 0.47415563E+03</rscale>
<asrwt>0</asrwt>
<pdfrwt beam="1">  1        2 0.12212930E+00 0.47415563E+03</pdfrwt>
<pdfrwt beam="2">  1       -2 0.93921690E-02 0.47415563E+03</pdfrwt>
<totfact> 0.26417063E+03</totfact>
</mgrwt>
</event>
<event>
 4    1  0.5131465E-005  0.6129300E+03  0.7818608E-02  0.9878938E-01
          2   -1    0    0  501    0  0.00000000000E+00  0.00000000000E+00  0.19240080290E+03  0.19240080291E+03  0.25500000000E-02 0.  1.
         -2   -1    0    0    0  501 -0.00000000000E+00 -0.00000000000E+00 -0.48815180754E+03  0.48815180754E+03  0.25500000000E-02 0. -1.
    5000001    1    1    2    0    0 -0.12371167323E+03 -0.38731920008E+02 -0.36293253057E+03  0.43373466713E+03  0.19900000000E+03 0.  0.
   -5000001    1    1    2    0    0  0.12371167323E+03  0.38731920008E+02  0.67181525935E+02  0.24681794333E+03  0.19900000000E+03 0.  0.
<mgrwt>
<rscale>  0 0.61293001E+03</rscale>
<asrwt>0</asrwt>
<pdfrwt beam="1">  1        2 0.27485829E-01 0.61293001E+03</pdfrwt>
<pdfrwt beam="2">  1       -2 0.69735972E-01 0.61293001E+03</pdfrwt>
<totfact> 0.37199990E+02</totfact>
</mgrwt>
</event>
<event>
 4    1  0.5131465E-005  0.6366692E+03  0.7818608E-02  0.9832120E-01
          2   -1    0    0  501    0  0.00000000000E+00  0.00000000000E+00  0.38925592408E+03  0.38925592409E+03  0.25500000000E-02 0.  1.
         -2   -1    0    0    0  501 -0.00000000000E+00 -0.00000000000E+00 -0.26033493849E+03  0.26033493850E+03  0.25500000000E-02 0. -1.
    5000001    1    1    2    0    0  0.22138845473E+03 -0.11208812197E+03  0.51582029167E+02  0.32223950830E+03  0.19900000000E+03 0.  0.
   -5000001    1    1    2    0    0 -0.22138845473E+03  0.11208812197E+03  0.77338956425E+02  0.32735135429E+03  0.19900000000E+03 0.  0.
<mgrwt>
<rscale>  0 0.63666920E+03</rscale>
<asrwt>0</asrwt>
<pdfrwt beam="1">  1        2 0.55607988E-01 0.63666920E+03</pdfrwt>
<pdfrwt beam="2">  1       -2 0.37190706E-01 0.63666920E+03</pdfrwt>
<totfact> 0.61128157E+02</totfact>
</mgrwt>
</event>
<event>
 4    1  0.5131465E-005  0.5815264E+03  0.7818608E-02  0.9944492E-01
          2   -1    0    0  501    0  0.00000000000E+00  0.00000000000E+00  0.88182129025E+03  0.88182129025E+03  0.25500000000E-02 0.  1.
         -2   -1    0    0    0  501 -0.00000000000E+00 -0.00000000000E+00 -0.95873427744E+02  0.95873427778E+02  0.25500000000E-02 0. -1.
    5000001    1    1    2    0    0 -0.13431396223E+03  0.16378107440E+03  0.40779847169E+03  0.50076448985E+03  0.19900000000E+03 0.  0.
   -5000001    1    1    2    0    0  0.13431396223E+03 -0.16378107440E+03  0.37814939081E+03  0.47693022818E+03  0.19900000000E+03 0.  0.
<mgrwt>
<rscale>  0 0.58152637E+03</rscale>
<asrwt>0</asrwt>
<pdfrwt beam="1">  1        2 0.12597447E+00 0.58152637E+03</pdfrwt>
<pdfrwt beam="2">  1       -2 0.13696204E-01 0.58152637E+03</pdfrwt>
<totfact> 0.13688525E+03</totfact>
</mgrwt>
</event>
<event>
 4    1  0.5131465E-005  0.7813924E+03  0.7818608E-02  0.9587348E-01
         -2   -1    0    0    0  501 -0.00000000000E+00  0.00000000000E+00  0.44774133247E+03  0.44774133248E+03  0.25500000000E-02 0. -1.
          2   -1    0    0  501    0  0.00000000000E+00 -0.00000000000E+00 -0.34091900425E+03  0.34091900426E+03  0.25500000000E-02 0.  1.
    5000001    1    1    2    0    0 -0.50369915243E+02  0.30928825377E+03 -0.69567032805E+02  0.37767303893E+03  0.19900000000E+03 0.  0.
   -5000001    1    1    2    0    0  0.50369915243E+02 -0.30928825377E+03  0.17638936103E+03  0.41098729781E+03  0.19900000000E+03 0.  0.
<mgrwt>
<rscale>  0 0.78139242E+03</rscale>
<asrwt>0</asrwt>
<pdfrwt beam="1">  1        2 0.48702715E-01 0.78139242E+03</pdfrwt>
<pdfrwt beam="2">  1       -2 0.63963048E-01 0.78139242E+03</pdfrwt>
<totfact> 0.23550010E+02</totfact>
</mgrwt>
</event>
<event>
 4    1  0.5131465E-005  0.6538884E+03  0.7818608E-02  0.9799510E-01
          2   -1    0    0  501    0  0.00000000000E+00  0.00000000000E+00  0.14544583014E+04  0.14544583014E+04  0.25500000000E-02 0.  1.
         -2   -1    0    0    0  501 -0.00000000000E+00 -0.00000000000E+00 -0.73493004591E+02  0.73493004635E+02  0.25500000000E-02 0. -1.
    5000001    1    1    2    0    0 -0.19617640979E+03  0.12894273929E+03  0.94837071770E+03  0.99705538059E+03  0.19900000000E+03 0.  0.
   -5000001    1    1    2    0    0  0.19617640979E+03 -0.12894273929E+03  0.43259457907E+03  0.53089592541E+03  0.19900000000E+03 0.  0.
<mgrwt>
<rscale>  0 0.65388840E+03</rscale>
<asrwt>0</asrwt>
<pdfrwt beam="1">  1        2 0.20777974E+00 0.65388840E+03</pdfrwt>
<pdfrwt beam="2">  1       -2 0.10499001E-01 0.65388840E+03</pdfrwt>
<totfact> 0.99232988E+02</totfact>
</mgrwt>
</event>
<event>
 4    1  0.5131465E-005  0.4590325E+03  0.7818608E-02  0.1025062E+00
          2   -1    0    0  501    0  0.00000000000E+00  0.00000000000E+00  0.10915362956E+04  0.10915362956E+04  0.25500000000E-02 0.  1.
         -2   -1    0    0    0  501 -0.00000000000E+00 -0.00000000000E+00 -0.48260143551E+02  0.48260143618E+02  0.25500000000E-02 0. -1.
    5000001    1    1    2    0    0 -0.87105693989E+02 -0.12470308794E+02  0.70298148388E+03  0.73588509783E+03  0.19900000000E+03 0.  0.
   -5000001    1    1    2    0    0  0.87105693989E+02  0.12470308794E+02  0.34029466821E+03  0.40391134143E+03  0.19900000000E+03 0.  0.
<mgrwt>
<rscale>  0 0.45903245E+03</rscale>
<asrwt>0</asrwt>
<pdfrwt beam="1">  1        2 0.15593376E+00 0.45903245E+03</pdfrwt>
<pdfrwt beam="2">  1       -2 0.68943061E-02 0.45903245E+03</pdfrwt>
<totfact> 0.30856288E+03</totfact>
</mgrwt>
</event>
<event>
 4    1  0.5131465E-005  0.9678542E+03  0.7818608E-02  0.9344522E-01
          2   -1    0    0  501    0  0.00000000000E+00  0.00000000000E+00  0.25784259989E+04  0.25784259989E+04  0.25500000000E-02 0.  1.
         -2   -1    0    0    0  501 -0.00000000000E+00 -0.00000000000E+00 -0.90824968399E+02  0.90824968435E+02  0.25500000000E-02 0. -1.
    5000001    1    1    2    0    0  0.35682069242E+03 -0.23201634726E+03  0.15634306051E+04  0.16325038588E+04  0.19900000000E+03 0.  0.
   -5000001    1    1    2    0    0 -0.35682069242E+03  0.23201634726E+03  0.92417042540E+03  0.10367471086E+04  0.19900000000E+03 0.  0.
<mgrwt>
<rscale>  0 0.96785425E+03</rscale>
<asrwt>0</asrwt>
<pdfrwt beam="1">  1        2 0.36834657E+00 0.96785425E+03</pdfrwt>
<pdfrwt beam="2">  1       -2 0.12974995E-01 0.96785425E+03</pdfrwt>
<totfact> 0.18172697E+02</totfact>
</mgrwt>
</event>
<event>
 4    1  0.5131465E-005  0.8415581E+03  0.7818608E-02  0.9501738E-01
         -2   -1    0    0    0  501 -0.00000000000E+00  0.00000000000E+00  0.15328823638E+03  0.15328823640E+03  0.25500000000E-02 0. -1.
          2   -1    0    0  501    0  0.00000000000E+00 -0.00000000000E+00 -0.11550462866E+04  0.11550462866E+04  0.25500000000E-02 0.  1.
    5000001    1    1    2    0    0 -0.20697969891E+03 -0.17325230868E+03 -0.89600996754E+03  0.95670884816E+03  0.19900000000E+03 0.  0.
   -5000001    1    1    2    0    0  0.20697969891E+03  0.17325230868E+03 -0.10574808269E+03  0.35162567486E+03  0.19900000000E+03 0.  0.
<mgrwt>
<rscale>  0 0.84155810E+03</rscale>
<asrwt>0</asrwt>
<pdfrwt beam="1">  1        2 0.16500661E+00 0.84155810E+03</pdfrwt>
<pdfrwt beam="2">  1       -2 0.21898320E-01 0.84155810E+03</pdfrwt>
<totfact> 0.41320582E+02</totfact>
</mgrwt>
</event>
<event>
 4    1  0.5131465E-005  0.4930709E+03  0.7818608E-02  0.1015603E+00
         -2   -1    0    0    0  501 -0.00000000000E+00  0.00000000000E+00  0.18292530609E+03  0.18292530611E+03  0.25500000000E-02 0. -1.
          2   -1    0    0  501    0  0.00000000000E+00 -0.00000000000E+00 -0.33226534539E+03  0.33226534540E+03  0.25500000000E-02 0.  1.
    5000001    1    1    2    0    0 -0.67590840509E+02  0.12848938196E+03 -0.85154981752E+02  0.26063463683E+03  0.19900000000E+03 0.  0.
   -5000001    1    1    2    0    0  0.67590840509E+02 -0.12848938196E+03 -0.64185057551E+02  0.25455601468E+03  0.19900000000E+03 0.  0.
<mgrwt>
<rscale>  0 0.49307095E+03</rscale>
<asrwt>0</asrwt>
<pdfrwt beam="1">  1        2 0.47466478E-01 0.49307095E+03</pdfrwt>
<pdfrwt beam="2">  1       -2 0.26132187E-01 0.49307095E+03</pdfrwt>
<totfact> 0.14035716E+03</totfact>
</mgrwt>
</event>
<event>
 4    1  0.5131465E-005  0.6195178E+03  0.7818608E-02  0.9865720E-01
         -2   -1    0    0    0  501 -0.00000000000E+00  0.00000000000E+00  0.11425673537E+03  0.11425673539E+03  0.25500000000E-02 0. -1.
          2   -1    0    0  501    0  0.00000000000E+00 -0.00000000000E+00 -0.83978040548E+03  0.83978040549E+03  0.25500000000E-02 0.  1.
    5000001    1    1    2    0    0  0.31477953719E+02 -0.17502422819E+03 -0.12061341290E+03  0.29287017157E+03  0.19900000000E+03 0.  0.
   -5000001    1    1    2    0    0 -0.31477953719E+02  0.17502422819E+03 -0.60491025722E+03  0.66116696932E+03  0.19900000000E+03 0.  0.
<mgrwt>
<rscale>  0 0.61951777E+03</rscale>
<asrwt>0</asrwt>
<pdfrwt beam="1">  1        2 0.11996863E+00 0.61951777E+03</pdfrwt>
<pdfrwt beam="2">  1       -2 0.16322391E-01 0.61951777E+03</pdfrwt>
<totfact> 0.10857142E+03</totfact>
</mgrwt>
</event>
<event>
 4    1  0.5131465E-005  0.1421877E+04  0.7818608E-02  0.8938134E-01
         -2   -1    0    0    0  501 -0.00000000000E+00  0.00000000000E+00  0.33414338486E+03  0.33414338487E+03  0.25500000000E-02 0. -1.
          2   -1    0    0  501    0  0.00000000000E+00 -0.00000000000E+00 -0.15126240984E+04  0.15126240984E+04  0.25500000000E-02 0.  1.
    5000001    1    1    2    0    0  0.19022870533E+03  0.18057026550E+03  0.22916276874E+03  0.40113483480E+03  0.19900000000E+03 0.  0.
   -5000001    1    1    2    0    0 -0.19022870533E+03 -0.18057026550E+03 -0.14076434822E+04  0.14456326484E+04  0.19900000000E+03 0.  0.
<mgrwt>
<rscale>  0 0.14218767E+04</rscale>
<asrwt>0</asrwt>
<pdfrwt beam="1">  1        2 0.21608915E+00 0.14218767E+04</pdfrwt>
<pdfrwt beam="2">  1       -2 0.47734770E-01 0.14218767E+04</pdfrwt>
<totfact> 0.58214756E+01</totfact>
</mgrwt>
</event>
<event>
 4    1  0.5131465E-005  0.6959969E+03  0.7818608E-02  0.9724103E-01
          2   -1    0    0  501    0  0.00000000000E+00  0.00000000000E+00  0.54328214300E+02  0.54328214360E+02  0.25500000000E-02 0.  1.
         -2   -1    0    0    0  501 -0.00000000000E+00 -0.00000000000E+00 -0.22290984329E+04  0.22290984329E+04  0.25500000000E-02 0. -1.
    5000001    1    1    2    0    0 -0.26738344401E+03 -0.35848957506E+02 -0.78097028840E+03  0.84987919451E+03  0.19900000000E+03 0.  0.
   -5000001    1    1    2    0    0  0.26738344401E+03  0.35848957506E+02 -0.13937999302E+04  0.14335474528E+04  0.19900000000E+03 0.  0.
<mgrwt>
<rscale>  0 0.69599695E+03</rscale>
<asrwt>0</asrwt>
<pdfrwt beam="1">  1        2 0.77611749E-02 0.69599695E+03</pdfrwt>
<pdfrwt beam="2">  1       -2 0.31844258E+00 0.69599695E+03</pdfrwt>
<totfact> 0.23748844E+01</totfact>
</mgrwt>
</event>
<event>
 4    1  0.5131465E-005  0.1092853E+04  0.7818608E-02  0.9212186E-01
          2   -1    0    0  501    0  0.00000000000E+00  0.00000000000E+00  0.16720511531E+04  0.16720511531E+04  0.25500000000E-02 0. -1.
         -2   -1    0    0    0  501 -0.00000000000E+00 -0.00000000000E+00 -0.17857234659E+03  0.17857234661E+03  0.25500000000E-02 0.  1.
    5000001    1    1    2    0    0  0.18168903651E+03 -0.47124932936E+03  0.85241355171E+03  0.10105922519E+04  0.19900000000E+03 0.  0.
   -5000001    1    1    2    0    0 -0.18168903651E+03  0.47124932936E+03  0.64106525476E+03  0.84003124780E+03  0.19900000000E+03 0.  0.
<mgrwt>
<rscale>  0 0.10928533E+04</rscale>
<asrwt>0</asrwt>
<pdfrwt beam="1">  1        2 0.23886447E+00 0.10928533E+04</pdfrwt>
<pdfrwt beam="2">  1       -2 0.25510334E-01 0.10928533E+04</pdfrwt>
<totfact> 0.16272230E+02</totfact>
</mgrwt>
</event>
<event>
 4    1  0.5131465E-005  0.1143570E+04  0.7818608E-02  0.9163736E-01
         -2   -1    0    0    0  501 -0.00000000000E+00  0.00000000000E+00  0.93573498880E+03  0.93573498880E+03  0.25500000000E-02 0.  1.
          2   -1    0    0  501    0  0.00000000000E+00 -0.00000000000E+00 -0.34939204154E+03  0.34939204155E+03  0.25500000000E-02 0. -1.
    5000001    1    1    2    0    0  0.51631267704E+03  0.11819116531E+03  0.38576905764E+03  0.68481143234E+03  0.19900000000E+03 0.  0.
   -5000001    1    1    2    0    0 -0.51631267704E+03 -0.11819116531E+03  0.20057388961E+03  0.60031559801E+03  0.19900000000E+03 0.  0.
<mgrwt>
<rscale>  0 0.11435705E+04</rscale>
<asrwt>0</asrwt>
<pdfrwt beam="1">  1        2 0.49913148E-01 0.11435705E+04</pdfrwt>
<pdfrwt beam="2">  1       -2 0.13367643E+00 0.11435705E+04</pdfrwt>
<totfact> 0.40319130E+01</totfact>
</mgrwt>
</event>
<event>
 4    1  0.5131465E-005  0.6978826E+03  0.7818608E-02  0.9720860E-01
         -2   -1    0    0    0  501 -0.00000000000E+00  0.00000000000E+00  0.16737811696E+03  0.16737811698E+03  0.25500000000E-02 0. -1.
          2   -1    0    0  501    0  0.00000000000E+00 -0.00000000000E+00 -0.72745487899E+03  0.72745487899E+03  0.25500000000E-02 0.  1.
    5000001    1    1    2    0    0 -0.10738745897E+03 -0.26556676314E+03 -0.29294075329E+03  0.45549210418E+03  0.19900000000E+03 0.  0.
   -5000001    1    1    2    0    0  0.10738745897E+03  0.26556676314E+03 -0.26713600874E+03  0.43934089179E+03  0.19900000000E+03 0.  0.
<mgrwt>
<rscale>  0 0.69788259E+03</rscale>
<asrwt>0</asrwt>
<pdfrwt beam="1">  1        2 0.10392212E+00 0.69788259E+03</pdfrwt>
<pdfrwt beam="2">  1       -2 0.23911160E-01 0.69788259E+03</pdfrwt>
<totfact> 0.66873243E+02</totfact>
</mgrwt>
</event>
<event>
 4    1  0.5131465E-005  0.4452884E+03  0.7818608E-02  0.1029136E+00
         -2   -1    0    0    0  501 -0.00000000000E+00  0.00000000000E+00  0.25304474967E+02  0.25304475096E+02  0.25500000000E-02 0. -1.
          2   -1    0    0  501    0  0.00000000000E+00 -0.00000000000E+00 -0.19589595963E+04  0.19589595963E+04  0.25500000000E-02 0.  1.
    5000001    1    1    2    0    0 -0.94174281083E+02 -0.25049207127E+02 -0.86989401391E+03  0.89767079346E+03  0.19900000000E+03 0.  0.
   -5000001    1    1    2    0    0  0.94174281083E+02  0.25049207127E+02 -0.10637611074E+04  0.10865932780E+04  0.19900000000E+03 0.  0.
<mgrwt>
<rscale>  0 0.44528842E+03</rscale>
<asrwt>0</asrwt>
<pdfrwt beam="1">  1        2 0.27985128E+00 0.44528842E+03</pdfrwt>
<pdfrwt beam="2">  1       -2 0.36149262E-02 0.44528842E+03</pdfrwt>
<totfact> 0.29481111E+03</totfact>
</mgrwt>
</event>
<event>
 4    1  0.5131465E-005  0.9222948E+03  0.7818608E-02  0.9398133E-01
         -2   -1    0    0    0  501 -0.00000000000E+00  0.00000000000E+00  0.28178972653E+03  0.28178972654E+03  0.25500000000E-02 0.  1.
          2   -1    0    0  501    0  0.00000000000E+00 -0.00000000000E+00 -0.75466530529E+03  0.75466530530E+03  0.25500000000E-02 0. -1.
    5000001    1    1    2    0    0 -0.16574403762E+03  0.31465142529E+03  0.60988144631E+01  0.40757183537E+03  0.19900000000E+03 0.  0.
   -5000001    1    1    2    0    0  0.16574403762E+03 -0.31465142529E+03 -0.47897439323E+03  0.62888319648E+03  0.19900000000E+03 0.  0.
<mgrwt>
<rscale>  0 0.92229481E+03</rscale>
<asrwt>0</asrwt>
<pdfrwt beam="1">  1        2 0.10780933E+00 0.92229481E+03</pdfrwt>
<pdfrwt beam="2">  1       -2 0.40255676E-01 0.92229481E+03</pdfrwt>
<totfact> 0.23935495E+02</totfact>
</mgrwt>
</event>
<event>
 4    1  0.5131465E-005  0.4242883E+03  0.7818608E-02  0.1035680E+00
         -2   -1    0    0    0  501 -0.00000000000E+00  0.00000000000E+00  0.82634872812E+02  0.82634872852E+02  0.25500000000E-02 0. -1.
          2   -1    0    0  501    0  0.00000000000E+00 -0.00000000000E+00 -0.54462644139E+03  0.54462644140E+03  0.25500000000E-02 0.  1.
    5000001    1    1    2    0    0  0.57157361086E+02 -0.44266245731E+02 -0.25070173160E+03  0.32814451491E+03  0.19900000000E+03 0.  0.
   -5000001    1    1    2    0    0 -0.57157361086E+02  0.44266245731E+02 -0.21128983698E+03  0.29911679934E+03  0.19900000000E+03 0.  0.
<mgrwt>
<rscale>  0 0.42428828E+03</rscale>
<asrwt>0</asrwt>
<pdfrwt beam="1">  1        2 0.77803775E-01 0.42428828E+03</pdfrwt>
<pdfrwt beam="2">  1       -2 0.11804982E-01 0.42428828E+03</pdfrwt>
<totfact> 0.31432805E+03</totfact>
</mgrwt>
</event>
<event>
 4    1  0.5131465E-005  0.4455498E+03  0.7818608E-02  0.1029058E+00
          2   -1    0    0  501    0  0.00000000000E+00  0.00000000000E+00  0.29696465741E+03  0.29696465742E+03  0.25500000000E-02 0.  1.
         -2   -1    0    0    0  501 -0.00000000000E+00 -0.00000000000E+00 -0.16711971146E+03  0.16711971148E+03  0.25500000000E-02 0. -1.
    5000001    1    1    2    0    0  0.16866061585E+02 -0.85456050256E+02  0.11637840409E+03  0.24643890419E+03  0.19900000000E+03 0.  0.
   -5000001    1    1    2    0    0 -0.16866061585E+02  0.85456050256E+02  0.13466541861E+02  0.21764546471E+03  0.19900000000E+03 0.  0.
<mgrwt>
<rscale>  0 0.44554976E+03</rscale>
<asrwt>0</asrwt>
<pdfrwt beam="1">  1        2 0.42423522E-01 0.44554976E+03</pdfrwt>
<pdfrwt beam="2">  1       -2 0.23874245E-01 0.44554976E+03</pdfrwt>
<totfact> 0.18639806E+03</totfact>
</mgrwt>
</event>
<event>
 4    1  0.5131465E-005  0.6321710E+03  0.7818608E-02  0.9840821E-01
         -2   -1    0    0    0  501 -0.00000000000E+00  0.00000000000E+00  0.49804577808E+02  0.49804577873E+02  0.25500000000E-02 0. -1.
          2   -1    0    0  501    0  0.00000000000E+00 -0.00000000000E+00 -0.20060413390E+04  0.20060413390E+04  0.25500000000E-02 0.  1.
    5000001    1    1    2    0    0  0.15937460371E+03 -0.17709481044E+03 -0.78445925583E+03  0.84364694052E+03  0.19900000000E+03 0.  0.
   -5000001    1    1    2    0    0 -0.15937460371E+03  0.17709481044E+03 -0.11717775053E+04  0.12121989763E+04  0.19900000000E+03 0.  0.
<mgrwt>
<rscale>  0 0.63217100E+03</rscale>
<asrwt>0</asrwt>
<pdfrwt beam="1">  1        2 0.28657728E+00 0.63217100E+03</pdfrwt>
<pdfrwt beam="2">  1       -2 0.71149409E-02 0.63217100E+03</pdfrwt>
<totfact> 0.96990530E+02</totfact>
</mgrwt>
</event>
<event>
 4    1  0.5131465E-005  0.6824175E+03  0.7818608E-02  0.9747782E-01
         -2   -1    0    0    0  501 -0.00000000000E+00  0.00000000000E+00  0.28324169580E+03  0.28324169581E+03  0.25500000000E-02 0. -1.
          2   -1    0    0  501    0  0.00000000000E+00 -0.00000000000E+00 -0.41103914001E+03  0.41103914002E+03  0.25500000000E-02 0.  1.
    5000001    1    1    2    0    0  0.79336712289E+02  0.26061394566E+03 -0.11937567268E+02  0.33757584052E+03  0.19900000000E+03 0.  0.
   -5000001    1    1    2    0    0 -0.79336712289E+02 -0.26061394566E+03 -0.11585987694E+03  0.35670499530E+03  0.19900000000E+03 0.  0.
<mgrwt>
<rscale>  0 0.68241754E+03</rscale>
<asrwt>0</asrwt>
<pdfrwt beam="1">  1        2 0.58719877E-01 0.68241754E+03</pdfrwt>
<pdfrwt beam="2">  1       -2 0.40463100E-01 0.68241754E+03</pdfrwt>
<totfact> 0.48825547E+02</totfact>
</mgrwt>
</event>
<event>
 4    1  0.5131465E-005  0.6871348E+03  0.7818608E-02  0.9739490E-01
          2   -1    0    0  501    0  0.00000000000E+00  0.00000000000E+00  0.24978656508E+03  0.24978656509E+03  0.25500000000E-02 0.  1.
         -2   -1    0    0    0  501 -0.00000000000E+00 -0.00000000000E+00 -0.47255763177E+03  0.47255763178E+03  0.25500000000E-02 0. -1.
    5000001    1    1    2    0    0  0.17139660811E+03  0.11987223309E+03 -0.30718574875E+03  0.42155691641E+03  0.19900000000E+03 0.  0.
   -5000001    1    1    2    0    0 -0.17139660811E+03 -0.11987223309E+03  0.84414682059E+02  0.30078728046E+03  0.19900000000E+03 0.  0.
<mgrwt>
<rscale>  0 0.68713477E+03</rscale>
<asrwt>0</asrwt>
<pdfrwt beam="1">  1        2 0.35683795E-01 0.68713477E+03</pdfrwt>
<pdfrwt beam="2">  1       -2 0.67508233E-01 0.68713477E+03</pdfrwt>
<totfact> 0.29715619E+02</totfact>
</mgrwt>
</event>
<event>
 4    1  0.5131465E-005  0.5697480E+03  0.7818608E-02  0.9970237E-01
         -2   -1    0    0    0  501 -0.00000000000E+00  0.00000000000E+00  0.18121056439E+03  0.18121056441E+03  0.25500000000E-02 0. -1.
          2   -1    0    0  501    0  0.00000000000E+00 -0.00000000000E+00 -0.44783913321E+03  0.44783913322E+03  0.25500000000E-02 0.  1.
    5000001    1    1    2    0    0 -0.28162627501E+02 -0.15912633229E+03 -0.27049583856E+03  0.37267052727E+03  0.19900000000E+03 0.  0.
   -5000001    1    1    2    0    0  0.28162627501E+02  0.15912633229E+03  0.38672697398E+01  0.25637917035E+03  0.19900000000E+03 0.  0.
<mgrwt>
<rscale>  0 0.56974795E+03</rscale>
<asrwt>0</asrwt>
<pdfrwt beam="1">  1        2 0.63977019E-01 0.56974795E+03</pdfrwt>
<pdfrwt beam="2">  1       -2 0.25887224E-01 0.56974795E+03</pdfrwt>
<totfact> 0.10259640E+03</totfact>
</mgrwt>
</event>
<event>
 4    1  0.5131465E-005  0.5578466E+03  0.7818608E-02  0.9996939E-01
          2   -1    0    0  501    0  0.00000000000E+00  0.00000000000E+00  0.15130190747E+04  0.15130190747E+04  0.25500000000E-02 0.  1.
         -2   -1    0    0    0  501 -0.00000000000E+00 -0.00000000000E+00 -0.51419183433E+02  0.51419183496E+02  0.25500000000E-02 0. -1.
    5000001    1    1    2    0    0 -0.82031705868E+02 -0.17391110628E+03  0.63272800916E+03  0.69059395250E+03  0.19900000000E+03 0.  0.
   -5000001    1    1    2    0    0  0.82031705868E+02  0.17391110628E+03  0.82887188215E+03  0.87384430574E+03  0.19900000000E+03 0.  0.
<mgrwt>
<rscale>  0 0.55784659E+03</rscale>
<asrwt>0</asrwt>
<pdfrwt beam="1">  1        2 0.21614563E+00 0.55784659E+03</pdfrwt>
<pdfrwt beam="2">  1       -2 0.73455961E-02 0.55784659E+03</pdfrwt>
<totfact> 0.16464876E+03</totfact>
</mgrwt>
</event>
<event>
 4    1  0.5131465E-005  0.8583843E+03  0.7818608E-02  0.9479152E-01
          2   -1    0    0  501    0  0.00000000000E+00  0.00000000000E+00  0.51456928332E+03  0.51456928332E+03  0.25500000000E-02 0.  1.
         -2   -1    0    0    0  501 -0.00000000000E+00 -0.00000000000E+00 -0.35798075255E+03  0.35798075256E+03  0.25500000000E-02 0. -1.
    5000001    1    1    2    0    0  0.32214922796E+03 -0.19966432643E+03  0.46816619200E+02  0.43062601426E+03  0.19900000000E+03 0.  0.
   -5000001    1    1    2    0    0 -0.32214922796E+03  0.19966432643E+03  0.10977191157E+03  0.44192402163E+03  0.19900000000E+03 0.  0.
<mgrwt>
<rscale>  0 0.85838429E+03</rscale>
<asrwt>0</asrwt>
<pdfrwt beam="1">  1        2 0.73509897E-01 0.85838429E+03</pdfrwt>
<pdfrwt beam="2">  1       -2 0.51140108E-01 0.85838429E+03</pdfrwt>
<totfact> 0.23578414E+02</totfact>
</mgrwt>
</event>
<event>
 4    1  0.5131465E-005  0.5975193E+03  0.7818608E-02  0.9910566E-01
          2   -1    0    0  501    0  0.00000000000E+00  0.00000000000E+00  0.86262648757E+03  0.86262648757E+03  0.25500000000E-02 0. -1.
         -2   -1    0    0    0  501 -0.00000000000E+00 -0.00000000000E+00 -0.10347157810E+03  0.10347157813E+03  0.25500000000E-02 0.  1.
    5000001    1    1    2    0    0  0.18439228644E+03  0.11789665796E+03  0.31182038244E+03  0.42980587265E+03  0.19900000000E+03 0.  0.
   -5000001    1    1    2    0    0 -0.18439228644E+03 -0.11789665796E+03  0.44733452703E+03  0.53629219306E+03  0.19900000000E+03 0.  0.
<mgrwt>
<rscale>  0 0.59751929E+03</rscale>
<asrwt>0</asrwt>
<pdfrwt beam="1">  1        2 0.12323236E+00 0.59751929E+03</pdfrwt>
<pdfrwt beam="2">  1       -2 0.14781653E-01 0.59751929E+03</pdfrwt>
<totfact> 0.12400201E+03</totfact>
</mgrwt>
</event>
<event>
 4    1  0.5131465E-005  0.6185062E+03  0.7818608E-02  0.9867738E-01
         -2   -1    0    0    0  501 -0.00000000000E+00  0.00000000000E+00  0.32316510644E+03  0.32316510645E+03  0.25500000000E-02 0. -1.
          2   -1    0    0  501    0  0.00000000000E+00 -0.00000000000E+00 -0.29594000281E+03  0.29594000282E+03  0.25500000000E-02 0.  1.
    5000001    1    1    2    0    0 -0.18774698007E+03  0.14183488085E+03 -0.12305000785E+02  0.30841283209E+03  0.19900000000E+03 0.  0.
   -5000001    1    1    2    0    0  0.18774698007E+03 -0.14183488085E+03  0.39530104417E+02  0.31069227719E+03  0.19900000000E+03 0.  0.
<mgrwt>
<rscale>  0 0.61850621E+03</rscale>
<asrwt>0</asrwt>
<pdfrwt beam="1">  1        2 0.42277143E-01 0.61850621E+03</pdfrwt>
<pdfrwt beam="2">  1       -2 0.46166444E-01 0.61850621E+03</pdfrwt>
<totfact> 0.54262419E+02</totfact>
</mgrwt>
</event>
<event>
 4    1  0.5131465E-005  0.6432834E+03  0.7818608E-02  0.9819465E-01
          2   -1    0    0  501    0  0.00000000000E+00  0.00000000000E+00  0.24237287429E+04  0.24237287429E+04  0.25500000000E-02 0.  1.
         -2   -1    0    0    0  501 -0.00000000000E+00 -0.00000000000E+00 -0.42683564230E+02  0.42683564306E+02  0.25500000000E-02 0. -1.
    5000001    1    1    2    0    0  0.95675697286E+02  0.22767620968E+03  0.98540416005E+03  0.10351872556E+04  0.19900000000E+03 0.  0.
   -5000001    1    1    2    0    0 -0.95675697286E+02 -0.22767620968E+03  0.13956410186E+04  0.14312250516E+04  0.19900000000E+03 0.  0.
<mgrwt>
<rscale>  0 0.64328339E+03</rscale>
<asrwt>0</asrwt>
<pdfrwt beam="1">  1        2 0.34624707E+00 0.64328339E+03</pdfrwt>
<pdfrwt beam="2">  1       -2 0.60976501E-02 0.64328339E+03</pdfrwt>
<totfact> 0.75999854E+02</totfact>
</mgrwt>
</event>
<event>
 4    1  0.5131465E-005  0.4940884E+03  0.7818608E-02  0.1015334E+00
         -2   -1    0    0    0  501 -0.00000000000E+00  0.00000000000E+00  0.49228211153E+02  0.49228211219E+02  0.25500000000E-02 0. -1.
          2   -1    0    0  501    0  0.00000000000E+00 -0.00000000000E+00 -0.12397533626E+04  0.12397533626E+04  0.25500000000E-02 0.  1.
    5000001    1    1    2    0    0  0.13860425412E+03 -0.43798372990E+02 -0.64047883370E+03  0.68625328644E+03  0.19900000000E+03 0.  0.
   -5000001    1    1    2    0    0 -0.13860425412E+03  0.43798372990E+02 -0.55004631772E+03  0.60272828735E+03  0.19900000000E+03 0.  0.
<mgrwt>
<rscale>  0 0.49408841E+03</rscale>
<asrwt>0</asrwt>
<pdfrwt beam="1">  1        2 0.17710760E+00 0.49408841E+03</pdfrwt>
<pdfrwt beam="2">  1       -2 0.70326023E-02 0.49408841E+03</pdfrwt>
<totfact> 0.24682094E+03</totfact>
</mgrwt>
</event>
<event>
 4    1  0.5131465E-005  0.7420360E+03  0.7818608E-02  0.9647928E-01
         -2   -1    0    0    0  501 -0.00000000000E+00  0.00000000000E+00  0.21670491342E+03  0.21670491343E+03  0.25500000000E-02 0. -1.
          2   -1    0    0  501    0  0.00000000000E+00 -0.00000000000E+00 -0.63521573120E+03  0.63521573120E+03  0.25500000000E-02 0.  1.
    5000001    1    1    2    0    0 -0.30145534463E+03  0.84308269141E+02 -0.19963879935E+03  0.42123610869E+03  0.19900000000E+03 0.  0.
   -5000001    1    1    2    0    0  0.30145534463E+03 -0.84308269141E+02 -0.21887201842E+03  0.43068453595E+03  0.19900000000E+03 0.  0.
<mgrwt>
<rscale>  0 0.74203604E+03</rscale>
<asrwt>0</asrwt>
<pdfrwt beam="1">  1        2 0.90745104E-01 0.74203604E+03</pdfrwt>
<pdfrwt beam="2">  1       -2 0.30957845E-01 0.74203604E+03</pdfrwt>
<totfact> 0.49190439E+02</totfact>
</mgrwt>
</event>
<event>
 4    1  0.5131465E-005  0.5107413E+03  0.7818608E-02  0.1011013E+00
         -2   -1    0    0    0  501 -0.00000000000E+00  0.00000000000E+00  0.12799612603E+02  0.12799612857E+02  0.25500000000E-02 0. -1.
          2   -1    0    0  501    0  0.00000000000E+00 -0.00000000000E+00 -0.50950109237E+04  0.50950109237E+04  0.25500000000E-02 0.  1.
    5000001    1    1    2    0    0 -0.91576566459E+02 -0.87299235779E+01 -0.12313973625E+04  0.12507609458E+04  0.19900000000E+03 0.  0.
   -5000001    1    1    2    0    0  0.91576566459E+02  0.87299235779E+01 -0.38508139487E+04  0.38570495908E+04  0.19900000000E+03 0.  0.
<mgrwt>
<rscale>  0 0.51074129E+03</rscale>
<asrwt>0</asrwt>
<pdfrwt beam="1">  1        2 0.72785741E+00 0.51074129E+03</pdfrwt>
<pdfrwt beam="2">  1       -2 0.18285194E-02 0.51074129E+03</pdfrwt>
<totfact> 0.82172269E+01</totfact>
</mgrwt>
</event>
<event>
 4    1  0.5131465E-005  0.5409098E+03  0.7818608E-02  0.1003620E+00
          2   -1    0    0  501    0  0.00000000000E+00  0.00000000000E+00  0.21180494069E+04  0.21180494069E+04  0.25500000000E-02 0.  1.
         -2   -1    0    0    0  501 -0.00000000000E+00 -0.00000000000E+00 -0.34534536211E+02  0.34534536305E+02  0.25500000000E-02 0. -1.
    5000001    1    1    2    0    0 -0.11474971159E+03 -0.10064831696E+03  0.63891109916E+03  0.68637159954E+03  0.19900000000E+03 0.  0.
   -5000001    1    1    2    0    0  0.11474971159E+03  0.10064831696E+03  0.14446037716E+04  0.14662123437E+04  0.19900000000E+03 0.  0.
<mgrwt>
<rscale>  0 0.54090980E+03</rscale>
<asrwt>0</asrwt>
<pdfrwt beam="1">  1        2 0.30257836E+00 0.54090980E+03</pdfrwt>
<pdfrwt beam="2">  1       -2 0.49335072E-02 0.54090980E+03</pdfrwt>
<totfact> 0.15187334E+03</totfact>
</mgrwt>
</event>
<event>
 4    1  0.5131465E-005  0.5309452E+03  0.7818608E-02  0.1006003E+00
         -2   -1    0    0    0  501 -0.00000000000E+00  0.00000000000E+00  0.29397104265E+02  0.29397104376E+02  0.25500000000E-02 0. -1.
          2   -1    0    0  501    0  0.00000000000E+00 -0.00000000000E+00 -0.23973686266E+04  0.23973686266E+04  0.25500000000E-02 0.  1.
    5000001    1    1    2    0    0  0.12088100195E+03 -0.12750187316E+03 -0.11730244599E+04  0.12026871280E+04  0.19900000000E+03 0.  0.
   -5000001    1    1    2    0    0 -0.12088100195E+03  0.12750187316E+03 -0.11949470625E+04  0.12240786030E+04  0.19900000000E+03 0.  0.
<mgrwt>
<rscale>  0 0.53094518E+03</rscale>
<asrwt>0</asrwt>
<pdfrwt beam="1">  1        2 0.34248111E+00 0.53094518E+03</pdfrwt>
<pdfrwt beam="2">  1       -2 0.41995879E-02 0.53094518E+03</pdfrwt>
<totfact> 0.14090435E+03</totfact>
</mgrwt>
</event>
<event>
 4    1  0.5131465E-005  0.4708303E+03  0.7818608E-02  0.1021686E+00
         -2   -1    0    0    0  501 -0.00000000000E+00  0.00000000000E+00  0.44108224518E+02  0.44108224592E+02  0.25500000000E-02 0. -1.
          2   -1    0    0  501    0  0.00000000000E+00 -0.00000000000E+00 -0.12564614867E+04  0.12564614867E+04  0.25500000000E-02 0.  1.
    5000001    1    1    2    0    0  0.12080281184E+03  0.34904587844E+02 -0.59854360875E+03  0.64316957420E+03  0.19900000000E+03 0.  0.
   -5000001    1    1    2    0    0 -0.12080281184E+03 -0.34904587844E+02 -0.61380965340E+03  0.65740013707E+03  0.19900000000E+03 0.  0.
<mgrwt>
<rscale>  0 0.47083027E+03</rscale>
<asrwt>0</asrwt>
<pdfrwt beam="1">  1        2 0.17949448E+00 0.47083027E+03</pdfrwt>
<pdfrwt beam="2">  1       -2 0.63011757E-02 0.47083027E+03</pdfrwt>
<totfact> 0.28711408E+03</totfact>
</mgrwt>
</event>
<event>
 4    1  0.5131465E-005  0.4911707E+03  0.7818608E-02  0.1016110E+00
         -2   -1    0    0    0  501 -0.00000000000E+00  0.00000000000E+00  0.53982624650E+02  0.53982624710E+02  0.25500000000E-02 0. -1.
          2   -1    0    0  501    0  0.00000000000E+00 -0.00000000000E+00 -0.11172513498E+04  0.11172513498E+04  0.25500000000E-02 0.  1.
    5000001    1    1    2    0    0 -0.78445235586E+02  0.10335948932E+03 -0.68006003983E+03  0.72036067133E+03  0.19900000000E+03 0.  0.
   -5000001    1    1    2    0    0  0.78445235586E+02 -0.10335948932E+03 -0.38320868528E+03  0.45087330315E+03  0.19900000000E+03 0.  0.
<mgrwt>
<rscale>  0 0.49117068E+03</rscale>
<asrwt>0</asrwt>
<pdfrwt beam="1">  1        2 0.15960732E+00 0.49117068E+03</pdfrwt>
<pdfrwt beam="2">  1       -2 0.77118042E-02 0.49117068E+03</pdfrwt>
<totfact> 0.24997034E+03</totfact>
</mgrwt>
</event>
<event>
 4    1  0.5131465E-005  0.4487720E+03  0.7818608E-02  0.1028089E+00
          2   -1    0    0  501    0  0.00000000000E+00  0.00000000000E+00  0.56810670616E+04  0.56810670616E+04  0.25500000000E-02 0.  1.
         -2   -1    0    0    0  501 -0.00000000000E+00 -0.00000000000E+00 -0.88626093106E+01  0.88626096775E+01  0.25500000000E-02 0. -1.
    5000001    1    1    2    0    0 -0.89841678503E+02 -0.47986706837E+02  0.25909607208E+04  0.26005869930E+04  0.19900000000E+03 0.  0.
   -5000001    1    1    2    0    0  0.89841678503E+02  0.47986706837E+02  0.30812437315E+04  0.30893426783E+04  0.19900000000E+03 0.  0.
<mgrwt>
<rscale>  0 0.44877201E+03</rscale>
<asrwt>0</asrwt>
<pdfrwt beam="1">  1        2 0.81158282E+00 0.44877201E+03</pdfrwt>
<pdfrwt beam="2">  1       -2 0.12660843E-02 0.44877201E+03</pdfrwt>
<totfact> 0.30788030E+01</totfact>
</mgrwt>
</event>
<event>
 4    1  0.5131465E-005  0.5392424E+03  0.7818608E-02  0.1004015E+00
          2   -1    0    0  501    0  0.00000000000E+00  0.00000000000E+00  0.29703887840E+03  0.29703887841E+03  0.25500000000E-02 0.  1.
         -2   -1    0    0    0  501 -0.00000000000E+00 -0.00000000000E+00 -0.24473426201E+03  0.24473426202E+03  0.25500000000E-02 0. -1.
    5000001    1    1    2    0    0  0.44869595491E+02 -0.16790687824E+03 -0.27845535415E+02  0.26567343526E+03  0.19900000000E+03 0.  0.
   -5000001    1    1    2    0    0 -0.44869595491E+02  0.16790687824E+03  0.80150151803E+02  0.27609970517E+03  0.19900000000E+03 0.  0.
<mgrwt>
<rscale>  0 0.53924240E+03</rscale>
<asrwt>0</asrwt>
<pdfrwt beam="1">  1        2 0.42434125E-01 0.53924240E+03</pdfrwt>
<pdfrwt beam="2">  1       -2 0.34962037E-01 0.53924240E+03</pdfrwt>
<totfact> 0.92801109E+02</totfact>
</mgrwt>
</event>
<event>
 4    1  0.5131465E-005  0.5202851E+03  0.7818608E-02  0.1008616E+00
         -2   -1    0    0    0  501 -0.00000000000E+00  0.00000000000E+00  0.74574719356E+02  0.74574719400E+02  0.25500000000E-02 0. -1.
          2   -1    0    0  501    0  0.00000000000E+00 -0.00000000000E+00 -0.90746761118E+03  0.90746761118E+03  0.25500000000E-02 0.  1.
    5000001    1    1    2    0    0 -0.10704547816E+03  0.51298544838E+02 -0.63964272539E+03  0.68031910986E+03  0.19900000000E+03 0.  0.
   -5000001    1    1    2    0    0  0.10704547816E+03 -0.51298544838E+02 -0.19325016643E+03  0.30172322072E+03  0.19900000000E+03 0.  0.
<mgrwt>
<rscale>  0 0.52028509E+03</rscale>
<asrwt>0</asrwt>
<pdfrwt beam="1">  1        2 0.12963822E+00 0.52028509E+03</pdfrwt>
<pdfrwt beam="2">  1       -2 0.10653532E-01 0.52028509E+03</pdfrwt>
<totfact> 0.19928704E+03</totfact>
</mgrwt>
</event>
<event>
 4    1  0.5131465E-005  0.5171355E+03  0.7818608E-02  0.1009401E+00
          2   -1    0    0  501    0  0.00000000000E+00  0.00000000000E+00  0.23484000397E+03  0.23484000399E+03  0.25500000000E-02 0.  1.
         -2   -1    0    0    0  501 -0.00000000000E+00 -0.00000000000E+00 -0.28469286708E+03  0.28469286709E+03  0.25500000000E-02 0. -1.
    5000001    1    1    2    0    0 -0.52221221662E+02  0.14361124562E+03  0.37853492896E+02  0.25374225660E+03  0.19900000000E+03 0.  0.
   -5000001    1    1    2    0    0  0.52221221662E+02 -0.14361124562E+03 -0.87706356002E+02  0.26579061448E+03  0.19900000000E+03 0.  0.
<mgrwt>
<rscale>  0 0.51713547E+03</rscale>
<asrwt>0</asrwt>
<pdfrwt beam="1">  1        2 0.33548572E-01 0.51713547E+03</pdfrwt>
<pdfrwt beam="2">  1       -2 0.40670409E-01 0.51713547E+03</pdfrwt>
<totfact> 0.90052472E+02</totfact>
</mgrwt>
</event>
<event>
 4    1  0.5131465E-005  0.5750430E+03  0.7818608E-02  0.9958581E-01
          2   -1    0    0  501    0  0.00000000000E+00  0.00000000000E+00  0.28643205520E+03  0.28643205521E+03  0.25500000000E-02 0.  1.
         -2   -1    0    0    0  501 -0.00000000000E+00 -0.00000000000E+00 -0.28861503922E+03  0.28861503923E+03  0.25500000000E-02 0. -1.
    5000001    1    1    2    0    0 -0.93716319222E+02  0.17984216636E+03 -0.45155916924E+02  0.28769082384E+03  0.19900000000E+03 0.  0.
   -5000001    1    1    2    0    0  0.93716319222E+02 -0.17984216636E+03  0.42972932909E+02  0.28735627060E+03  0.19900000000E+03 0.  0.
<mgrwt>
<rscale>  0 0.57504295E+03</rscale>
<asrwt>0</asrwt>
<pdfrwt beam="1">  1        2 0.40918865E-01 0.57504295E+03</pdfrwt>
<pdfrwt beam="2">  1       -2 0.41230720E-01 0.57504295E+03</pdfrwt>
<totfact> 0.70356527E+02</totfact>
</mgrwt>
</event>
<event>
 4    1  0.5131465E-005  0.6437928E+03  0.7818608E-02  0.9818497E-01
         -2   -1    0    0    0  501 -0.00000000000E+00  0.00000000000E+00  0.26643213589E+02  0.26643213711E+02  0.25500000000E-02 0. -1.
          2   -1    0    0  501    0  0.00000000000E+00 -0.00000000000E+00 -0.38890690854E+04  0.38890690854E+04  0.25500000000E-02 0.  1.
    5000001    1    1    2    0    0  0.15295682335E+03 -0.20052524853E+03 -0.20543892592E+04  0.20793562450E+04  0.19900000000E+03 0.  0.
   -5000001    1    1    2    0    0 -0.15295682335E+03  0.20052524853E+03 -0.18080366125E+04  0.18363560541E+04  0.19900000000E+03 0.  0.
<mgrwt>
<rscale>  0 0.64379282E+03</rscale>
<asrwt>0</asrwt>
<pdfrwt beam="1">  1        2 0.55558094E+00 0.64379282E+03</pdfrwt>
<pdfrwt beam="2">  1       -2 0.38061759E-02 0.64379282E+03</pdfrwt>
<totfact> 0.23407727E+02</totfact>
</mgrwt>
</event>
<event>
 4    1  0.5131465E-005  0.4540617E+03  0.7818608E-02  0.1026518E+00
          2   -1    0    0  501    0  0.00000000000E+00  0.00000000000E+00  0.10994819576E+03  0.10994819579E+03  0.25500000000E-02 0.  1.
         -2   -1    0    0    0  501 -0.00000000000E+00 -0.00000000000E+00 -0.46879361149E+03  0.46879361150E+03  0.25500000000E-02 0. -1.
    5000001    1    1    2    0    0 -0.21844964062E+02 -0.29652651514E+02 -0.31056001450E+03  0.37068181072E+03  0.19900000000E+03 0.  0.
   -5000001    1    1    2    0    0  0.21844964062E+02  0.29652651514E+02 -0.48285401237E+02  0.20805999656E+03  0.19900000000E+03 0.  0.
<mgrwt>
<rscale>  0 0.45406172E+03</rscale>
<asrwt>0</asrwt>
<pdfrwt beam="1">  1        2 0.15706885E-01 0.45406172E+03</pdfrwt>
<pdfrwt beam="2">  1       -2 0.66970515E-01 0.45406172E+03</pdfrwt>
<totfact> 0.77953194E+02</totfact>
</mgrwt>
</event>
<event>
 4    1  0.5131465E-005  0.5140990E+03  0.7818608E-02  0.1010163E+00
         -2   -1    0    0    0  501 -0.00000000000E+00  0.00000000000E+00  0.76855663044E+02  0.76855663086E+02  0.25500000000E-02 0. -1.
          2   -1    0    0  501    0  0.00000000000E+00 -0.00000000000E+00 -0.85972110712E+03  0.85972110712E+03  0.25500000000E-02 0.  1.
    5000001    1    1    2    0    0  0.64074652319E+02 -0.94019282475E+02 -0.17953931117E+03  0.29117099925E+03  0.19900000000E+03 0.  0.
   -5000001    1    1    2    0    0 -0.64074652319E+02  0.94019282475E+02 -0.60332613290E+03  0.64540577096E+03  0.19900000000E+03 0.  0.
<mgrwt>
<rscale>  0 0.51409896E+03</rscale>
<asrwt>0</asrwt>
<pdfrwt beam="1">  1        2 0.12281730E+00 0.51409896E+03</pdfrwt>
<pdfrwt beam="2">  1       -2 0.10979381E-01 0.51409896E+03</pdfrwt>
<totfact> 0.20380103E+03</totfact>
</mgrwt>
</event>
<event>
 4    1  0.5131465E-005  0.1057721E+04  0.7818608E-02  0.9247409E-01
         -2   -1    0    0    0  501 -0.00000000000E+00  0.00000000000E+00  0.66897173359E+02  0.66897173408E+02  0.25500000000E-02 0. -1.
          2   -1    0    0  501    0  0.00000000000E+00 -0.00000000000E+00 -0.41809426661E+04  0.41809426661E+04  0.25500000000E-02 0.  1.
    5000001    1    1    2    0    0  0.48583441265E+03  0.98754687307E+00 -0.23127968337E+04  0.23716378825E+04  0.19900000000E+03 0.  0.
   -5000001    1    1    2    0    0 -0.48583441265E+03 -0.98754687307E+00 -0.18012486590E+04  0.18762019569E+04  0.19900000000E+03 0.  0.
<mgrwt>
<rscale>  0 0.10577207E+04</rscale>
<asrwt>0</asrwt>
<pdfrwt beam="1">  1        2 0.59727736E+00 0.10577207E+04</pdfrwt>
<pdfrwt beam="2">  1       -2 0.95567417E-02 0.10577207E+04</pdfrwt>
<totfact> 0.32854564E+01</totfact>
</mgrwt>
</event>
<event>
 4    1  0.5131465E-005  0.4632327E+03  0.7818608E-02  0.1023848E+00
          2   -1    0    0  501    0  0.00000000000E+00  0.00000000000E+00  0.15184949675E+04  0.15184949675E+04  0.25500000000E-02 0.  1.
         -2   -1    0    0    0  501 -0.00000000000E+00 -0.00000000000E+00 -0.35328484268E+02  0.35328484360E+02  0.25500000000E-02 0. -1.
    5000001    1    1    2    0    0 -0.28941766323E+02 -0.10523671097E+03  0.58667629658E+03  0.62904885990E+03  0.19900000000E+03 0.  0.
   -5000001    1    1    2    0    0  0.28941766323E+02  0.10523671097E+03  0.89649018670E+03  0.92477459201E+03  0.19900000000E+03 0.  0.
<mgrwt>
<rscale>  0 0.46323267E+03</rscale>
<asrwt>0</asrwt>
<pdfrwt beam="1">  1        2 0.21692786E+00 0.46323267E+03</pdfrwt>
<pdfrwt beam="2">  1       -2 0.50469263E-02 0.46323267E+03</pdfrwt>
<totfact> 0.29458510E+03</totfact>
</mgrwt>
</event>
<event>
 4    1  0.5131465E-005  0.4788189E+03  0.7818608E-02  0.1019460E+00
          2   -1    0    0  501    0  0.00000000000E+00  0.00000000000E+00  0.82936306305E+02  0.82936306344E+02  0.25500000000E-02 0.  1.
         -2   -1    0    0    0  501 -0.00000000000E+00 -0.00000000000E+00 -0.69109518254E+03  0.69109518254E+03  0.25500000000E-02 0. -1.
    5000001    1    1    2    0    0 -0.38034432120E+02 -0.96129668369E+02 -0.43960276806E+03  0.49349683369E+03  0.19900000000E+03 0.  0.
   -5000001    1    1    2    0    0  0.38034432120E+02  0.96129668369E+02 -0.16855610817E+03  0.28053465520E+03  0.19900000000E+03 0.  0.
<mgrwt>
<rscale>  0 0.47881889E+03</rscale>
<asrwt>0</asrwt>
<pdfrwt beam="1">  1        2 0.11848044E-01 0.47881889E+03</pdfrwt>
<pdfrwt beam="2">  1       -2 0.98727881E-01 0.47881889E+03</pdfrwt>
<totfact> 0.46115201E+02</totfact>
</mgrwt>
</event>
<event>
 4    1  0.5131465E-005  0.7577480E+03  0.7818608E-02  0.9623273E-01
         -2   -1    0    0    0  501 -0.00000000000E+00  0.00000000000E+00  0.15377224459E+03  0.15377224461E+03  0.25500000000E-02 0. -1.
          2   -1    0    0  501    0  0.00000000000E+00 -0.00000000000E+00 -0.93349424245E+03  0.93349424246E+03  0.25500000000E-02 0.  1.
    5000001    1    1    2    0    0  0.12586497374E+03 -0.26329717349E+03 -0.19324194430E+03  0.40262990726E+03  0.19900000000E+03 0.  0.
   -5000001    1    1    2    0    0 -0.12586497374E+03  0.26329717349E+03 -0.58648005357E+03  0.68463657981E+03  0.19900000000E+03 0.  0.
<mgrwt>
<rscale>  0 0.75774799E+03</rscale>
<asrwt>0</asrwt>
<pdfrwt beam="1">  1        2 0.13335632E+00 0.75774799E+03</pdfrwt>
<pdfrwt beam="2">  1       -2 0.21967464E-01 0.75774799E+03</pdfrwt>
<totfact> 0.56096291E+02</totfact>
</mgrwt>
</event>
<event>
 4    1  0.5131465E-005  0.5546885E+03  0.7818608E-02  0.1000415E+00
          2   -1    0    0  501    0  0.00000000000E+00  0.00000000000E+00  0.12078900224E+04  0.12078900224E+04  0.25500000000E-02 0.  1.
         -2   -1    0    0    0  501 -0.00000000000E+00 -0.00000000000E+00 -0.63681166602E+02  0.63681166653E+02  0.25500000000E-02 0. -1.
    5000001    1    1    2    0    0 -0.37610412988E+02  0.18313249880E+03  0.46057964401E+03  0.53543128761E+03  0.19900000000E+03 0.  0.
   -5000001    1    1    2    0    0  0.37610412988E+02 -0.18313249880E+03  0.68362921178E+03  0.73613990143E+03  0.19900000000E+03 0.  0.
<mgrwt>
<rscale>  0 0.55468855E+03</rscale>
<asrwt>0</asrwt>
<pdfrwt beam="1">  1        2 0.17255572E+00 0.55468855E+03</pdfrwt>
<pdfrwt beam="2">  1       -2 0.90973096E-02 0.55468855E+03</pdfrwt>
<totfact> 0.17058831E+03</totfact>
</mgrwt>
</event>
<event>
 4    1  0.5131465E-005  0.1152331E+04  0.7818608E-02  0.9155636E-01
         -2   -1    0    0    0  501 -0.00000000000E+00  0.00000000000E+00  0.22383225641E+03  0.22383225643E+03  0.25500000000E-02 0. -1.
          2   -1    0    0  501    0  0.00000000000E+00 -0.00000000000E+00 -0.14831041177E+04  0.14831041177E+04  0.25500000000E-02 0.  1.
    5000001    1    1    2    0    0 -0.25737480665E+03  0.36186488341E+03 -0.17264513219E+03  0.51632870016E+03  0.19900000000E+03 0.  0.
   -5000001    1    1    2    0    0  0.25737480665E+03 -0.36186488341E+03 -0.10866267291E+04  0.11906076740E+04  0.19900000000E+03 0.  0.
<mgrwt>
<rscale>  0 0.11523308E+04</rscale>
<asrwt>0</asrwt>
<pdfrwt beam="1">  1        2 0.21187201E+00 0.11523308E+04</pdfrwt>
<pdfrwt beam="2">  1       -2 0.31976037E-01 0.11523308E+04</pdfrwt>
<totfact> 0.13420009E+02</totfact>
</mgrwt>
</event>
<event>
 4    1  0.5131465E-005  0.7454027E+03  0.7818608E-02  0.9642590E-01
         -2   -1    0    0    0  501 -0.00000000000E+00  0.00000000000E+00  0.78763517561E+03  0.78763517561E+03  0.25500000000E-02 0. -1.
          2   -1    0    0  501    0  0.00000000000E+00 -0.00000000000E+00 -0.17635868678E+03  0.17635868680E+03  0.25500000000E-02 0.  1.
    5000001    1    1    2    0    0  0.12750246297E+03  0.75532593355E+02 -0.54023722239E+02  0.25393230060E+03  0.19900000000E+03 0.  0.
   -5000001    1    1    2    0    0 -0.12750246297E+03 -0.75532593355E+02  0.66530021107E+03  0.71006156182E+03  0.19900000000E+03 0.  0.
<mgrwt>
<rscale>  0 0.74540272E+03</rscale>
<asrwt>0</asrwt>
<pdfrwt beam="1">  1        2 0.25194098E-01 0.74540272E+03</pdfrwt>
<pdfrwt beam="2">  1       -2 0.11251931E+00 0.74540272E+03</pdfrwt>
<totfact> 0.13632010E+02</totfact>
</mgrwt>
</event>
<event>
 4    1  0.5131465E-005  0.4985121E+03  0.7818608E-02  0.1014168E+00
         -2   -1    0    0    0  501 -0.00000000000E+00  0.00000000000E+00  0.35528885063E+03  0.35528885064E+03  0.25500000000E-02 0. -1.
          2   -1    0    0  501    0  0.00000000000E+00 -0.00000000000E+00 -0.17486779938E+03  0.17486779940E+03  0.25500000000E-02 0.  1.
    5000001    1    1    2    0    0 -0.74641601089E+02  0.37722379587E+01 -0.48213221642E+02  0.21797044096E+03  0.19900000000E+03 0.  0.
   -5000001    1    1    2    0    0  0.74641601089E+02 -0.37722379587E+01  0.22863427289E+03  0.31218620907E+03  0.19900000000E+03 0.  0.
<mgrwt>
<rscale>  0 0.49851210E+03</rscale>
<asrwt>0</asrwt>
<pdfrwt beam="1">  1        2 0.24981114E-01 0.49851210E+03</pdfrwt>
<pdfrwt beam="2">  1       -2 0.50755550E-01 0.49851210E+03</pdfrwt>
<totfact> 0.80833326E+02</totfact>
</mgrwt>
</event>
<event>
 4    1  0.5131465E-005  0.5671339E+03  0.7818608E-02  0.9976041E-01
          2   -1    0    0  501    0  0.00000000000E+00  0.00000000000E+00  0.12620848277E+04  0.12620848277E+04  0.25500000000E-02 0.  1.
         -2   -1    0    0    0  501 -0.00000000000E+00 -0.00000000000E+00 -0.63712221440E+02  0.63712221491E+02  0.25500000000E-02 0. -1.
    5000001    1    1    2    0    0  0.18770278217E+03  0.46281886053E+02  0.46217789175E+03  0.53905820746E+03  0.19900000000E+03 0.  0.
   -5000001    1    1    2    0    0 -0.18770278217E+03 -0.46281886053E+02  0.73619471450E+03  0.78673884172E+03  0.19900000000E+03 0.  0.
<mgrwt>
<rscale>  0 0.56713395E+03</rscale>
<asrwt>0</asrwt>
<pdfrwt beam="1">  1        2 0.18029784E+00 0.56713395E+03</pdfrwt>
<pdfrwt beam="2">  1       -2 0.91017454E-02 0.56713395E+03</pdfrwt>
<totfact> 0.15904988E+03</totfact>
</mgrwt>
</event>
<event>
 4    1  0.5131465E-005  0.4856585E+03  0.7818608E-02  0.1017592E+00
          2   -1    0    0  501    0  0.00000000000E+00  0.00000000000E+00  0.18770198020E+04  0.18770198020E+04  0.25500000000E-02 0. -1.
         -2   -1    0    0    0  501 -0.00000000000E+00 -0.00000000000E+00 -0.31414710451E+02  0.31414710555E+02  0.25500000000E-02 0.  1.
    5000001    1    1    2    0    0  0.31847130933E+02  0.13452697565E+03  0.98534177982E+03  0.10146975756E+04  0.19900000000E+03 0.  0.
   -5000001    1    1    2    0    0 -0.31847130933E+02 -0.13452697565E+03  0.86026331177E+03  0.89373693697E+03  0.19900000000E+03 0.  0.
<mgrwt>
<rscale>  0 0.48565845E+03</rscale>
<asrwt>0</asrwt>
<pdfrwt beam="1">  1        2 0.26814566E+00 0.48565845E+03</pdfrwt>
<pdfrwt beam="2">  1       -2 0.44878162E-02 0.48565845E+03</pdfrwt>
<totfact> 0.23245407E+03</totfact>
</mgrwt>
</event>
<event>
 4    1  0.5131465E-005  0.6418502E+03  0.7818608E-02  0.9822193E-01
         -2   -1    0    0    0  501 -0.00000000000E+00  0.00000000000E+00  0.25213176793E+03  0.25213176795E+03  0.25500000000E-02 0. -1.
          2   -1    0    0  501    0  0.00000000000E+00 -0.00000000000E+00 -0.40848844168E+03  0.40848844169E+03  0.25500000000E-02 0.  1.
    5000001    1    1    2    0    0 -0.74972617521E+02  0.23711873888E+03 -0.37712915851E+02  0.32073268266E+03  0.19900000000E+03 0.  0.
   -5000001    1    1    2    0    0  0.74972617521E+02 -0.23711873888E+03 -0.11864375790E+03  0.33988752697E+03  0.19900000000E+03 0.  0.
<mgrwt>
<rscale>  0 0.64185018E+03</rscale>
<asrwt>0</asrwt>
<pdfrwt beam="1">  1        2 0.58355492E-01 0.64185018E+03</pdfrwt>
<pdfrwt beam="2">  1       -2 0.36018824E-01 0.64185018E+03</pdfrwt>
<totfact> 0.61582998E+02</totfact>
</mgrwt>
</event>
<event>
 4    1  0.5131465E-005  0.7821434E+03  0.7818608E-02  0.9586230E-01
         -2   -1    0    0    0  501 -0.00000000000E+00  0.00000000000E+00  0.72230948157E+02  0.72230948202E+02  0.25500000000E-02 0. -1.
          2   -1    0    0  501    0  0.00000000000E+00 -0.00000000000E+00 -0.21173343842E+04  0.21173343842E+04  0.25500000000E-02 0.  1.
    5000001    1    1    2    0    0  0.27134580443E+03 -0.19360527828E+03 -0.89051650584E+03  0.97145879817E+03  0.19900000000E+03 0.  0.
   -5000001    1    1    2    0    0 -0.27134580443E+03  0.19360527828E+03 -0.11545869302E+04  0.12181065342E+04  0.19900000000E+03 0.  0.
<mgrwt>
<rscale>  0 0.78214339E+03</rscale>
<asrwt>0</asrwt>
<pdfrwt beam="1">  1        2 0.30247630E+00 0.78214339E+03</pdfrwt>
<pdfrwt beam="2">  1       -2 0.10318708E-01 0.78214339E+03</pdfrwt>
<totfact> 0.46442487E+02</totfact>
</mgrwt>
</event>
<event>
 4    1  0.5131465E-005  0.8281397E+03  0.7818608E-02  0.9520156E-01
          2   -1    0    0  501    0  0.00000000000E+00  0.00000000000E+00  0.48332801523E+03  0.48332801524E+03  0.25500000000E-02 0.  1.
         -2   -1    0    0    0  501 -0.00000000000E+00 -0.00000000000E+00 -0.35473599706E+03  0.35473599707E+03  0.25500000000E-02 0. -1.
    5000001    1    1    2    0    0 -0.76745856197E+02 -0.33741951087E+03 -0.47072768104E+02  0.40194365060E+03  0.19900000000E+03 0.  0.
   -5000001    1    1    2    0    0  0.76745856197E+02  0.33741951087E+03  0.17566478628E+03  0.43612036171E+03  0.19900000000E+03 0.  0.
<mgrwt>
<rscale>  0 0.82813971E+03</rscale>
<asrwt>0</asrwt>
<pdfrwt beam="1">  1        2 0.69046859E-01 0.82813971E+03</pdfrwt>
<pdfrwt beam="2">  1       -2 0.50676571E-01 0.82813971E+03</pdfrwt>
<totfact> 0.25841144E+02</totfact>
</mgrwt>
</event>
<event>
 4    1  0.5131465E-005  0.4860429E+03  0.7818608E-02  0.1017487E+00
          2   -1    0    0  501    0  0.00000000000E+00  0.00000000000E+00  0.10070343147E+04  0.10070343147E+04  0.25500000000E-02 0.  1.
         -2   -1    0    0    0  501 -0.00000000000E+00 -0.00000000000E+00 -0.58646895942E+02  0.58646895998E+02  0.25500000000E-02 0. -1.
    5000001    1    1    2    0    0  0.11082577527E+02 -0.10713481173E+03  0.27983606076E+03  0.35987485646E+03  0.19900000000E+03 0.  0.
   -5000001    1    1    2    0    0 -0.11082577527E+02  0.10713481173E+03  0.66855135802E+03  0.70580635427E+03  0.19900000000E+03 0.  0.
<mgrwt>
<rscale>  0 0.48604295E+03</rscale>
<asrwt>0</asrwt>
<pdfrwt beam="1">  1        2 0.14386203E+00 0.48604295E+03</pdfrwt>
<pdfrwt beam="2">  1       -2 0.83781287E-02 0.48604295E+03</pdfrwt>
<totfact> 0.25438602E+03</totfact>
</mgrwt>
</event>
<event>
 4    1  0.5131465E-005  0.7079436E+03  0.7818608E-02  0.9703743E-01
         -2   -1    0    0    0  501 -0.00000000000E+00  0.00000000000E+00  0.10991497226E+03  0.10991497229E+03  0.25500000000E-02 0. -1.
          2   -1    0    0  501    0  0.00000000000E+00 -0.00000000000E+00 -0.11399360062E+04  0.11399360062E+04  0.25500000000E-02 0.  1.
    5000001    1    1    2    0    0  0.13870110603E+03  0.23376517644E+03 -0.70687770209E+03  0.78304612906E+03  0.19900000000E+03 0.  0.
   -5000001    1    1    2    0    0 -0.13870110603E+03 -0.23376517644E+03 -0.32314333183E+03  0.46680484942E+03  0.19900000000E+03 0.  0.
<mgrwt>
<rscale>  0 0.70794360E+03</rscale>
<asrwt>0</asrwt>
<pdfrwt beam="1">  1        2 0.16284799E+00 0.70794360E+03</pdfrwt>
<pdfrwt beam="2">  1       -2 0.15702140E-01 0.70794360E+03</pdfrwt>
<totfact> 0.75453369E+02</totfact>
</mgrwt>
</event>
<event>
 4    1  0.5131465E-005  0.4462136E+03  0.7818608E-02  0.1028857E+00
         -2   -1    0    0    0  501 -0.00000000000E+00  0.00000000000E+00  0.37136616981E+02  0.37136617069E+02  0.25500000000E-02 0. -1.
          2   -1    0    0  501    0  0.00000000000E+00 -0.00000000000E+00 -0.13403658741E+04  0.13403658741E+04  0.25500000000E-02 0.  1.
    5000001    1    1    2    0    0 -0.17408351445E+02  0.88787926184E+02 -0.51392522509E+03  0.55848588479E+03  0.19900000000E+03 0.  0.
   -5000001    1    1    2    0    0  0.17408351445E+02 -0.88787926184E+02 -0.78930403204E+03  0.81901660638E+03  0.19900000000E+03 0.  0.
<mgrwt>
<rscale>  0 0.44621364E+03</rscale>
<asrwt>0</asrwt>
<pdfrwt beam="1">  1        2 0.19148081E+00 0.44621364E+03</pdfrwt>
<pdfrwt beam="2">  1       -2 0.53052318E-02 0.44621364E+03</pdfrwt>
<totfact> 0.33798608E+03</totfact>
</mgrwt>
</event>
<event>
 4    1  0.5131465E-005  0.3135072E+04  0.7818608E-02  0.8206178E-01
         -2   -1    0    0    0  501 -0.00000000000E+00  0.00000000000E+00  0.21194740219E+04  0.21194740219E+04  0.25500000000E-02 0. -1.
          2   -1    0    0  501    0  0.00000000000E+00 -0.00000000000E+00 -0.11593296499E+04  0.11593296499E+04  0.25500000000E-02 0.  1.
    5000001    1    1    2    0    0  0.33495457385E+03  0.15001815607E+04  0.72496285802E+03  0.17111140895E+04  0.19900000000E+03 0.  0.
   -5000001    1    1    2    0    0 -0.33495457385E+03 -0.15001815607E+04  0.23518151401E+03  0.15676895822E+04  0.19900000000E+03 0.  0.
<mgrwt>
<rscale>  0 0.31350720E+04</rscale>
<asrwt>0</asrwt>
<pdfrwt beam="1">  1        2 0.16561852E+00 0.31350720E+04</pdfrwt>
<pdfrwt beam="2">  1       -2 0.30278200E+00 0.31350720E+04</pdfrwt>
<totfact> 0.58761217E-01</totfact>
</mgrwt>
</event>
<event>
 4    1  0.5131465E-005  0.4723207E+03  0.7818608E-02  0.1021267E+00
         -2   -1    0    0    0  501 -0.00000000000E+00  0.00000000000E+00  0.86118853494E+03  0.86118853494E+03  0.25500000000E-02 0. -1.
          2   -1    0    0  501    0  0.00000000000E+00 -0.00000000000E+00 -0.64761329806E+02  0.64761329857E+02  0.25500000000E-02 0.  1.
    5000001    1    1    2    0    0  0.18828063262E+02 -0.26111803783E+02  0.63938898430E+03  0.67041449530E+03  0.19900000000E+03 0.  0.
   -5000001    1    1    2    0    0 -0.18828063262E+02  0.26111803783E+02  0.15703822083E+03  0.25553536950E+03  0.19900000000E+03 0.  0.
<mgrwt>
<rscale>  0 0.47232072E+03</rscale>
<asrwt>0</asrwt>
<pdfrwt beam="1">  1        2 0.92516185E-02 0.47232072E+03</pdfrwt>
<pdfrwt beam="2">  1       -2 0.12302693E+00 0.47232072E+03</pdfrwt>
<totfact> 0.37076468E+02</totfact>
</mgrwt>
</event>
<event>
 4    1  0.5131465E-005  0.7024541E+03  0.7818608E-02  0.9713045E-01
         -2   -1    0    0    0  501 -0.00000000000E+00  0.00000000000E+00  0.18815425171E+03  0.18815425173E+03  0.25500000000E-02 0. -1.
          2   -1    0    0  501    0  0.00000000000E+00 -0.00000000000E+00 -0.65563456285E+03  0.65563456285E+03  0.25500000000E-02 0.  1.
    5000001    1    1    2    0    0 -0.85961278358E+02 -0.27590236144E+03 -0.25265578471E+03  0.43237414351E+03  0.19900000000E+03 0.  0.
   -5000001    1    1    2    0    0  0.85961278358E+02  0.27590236144E+03 -0.21482452642E+03  0.41141467108E+03  0.19900000000E+03 0.  0.
<mgrwt>
<rscale>  0 0.70245407E+03</rscale>
<asrwt>0</asrwt>
<pdfrwt beam="1">  1        2 0.93662079E-01 0.70245407E+03</pdfrwt>
<pdfrwt beam="2">  1       -2 0.26879179E-01 0.70245407E+03</pdfrwt>
<totfact> 0.61494234E+02</totfact>
</mgrwt>
</event>
<event>
 4    1  0.5131465E-005  0.5067444E+03  0.7818608E-02  0.1012033E+00
          2   -1    0    0  501    0  0.00000000000E+00  0.00000000000E+00  0.41856629833E+03  0.41856629834E+03  0.25500000000E-02 0.  1.
         -2   -1    0    0    0  501 -0.00000000000E+00 -0.00000000000E+00 -0.15337468925E+03  0.15337468927E+03  0.25500000000E-02 0. -1.
    5000001    1    1    2    0    0 -0.49919955086E+02 -0.14864135988E+03  0.13620400922E+03  0.28764350837E+03  0.19900000000E+03 0.  0.
   -5000001    1    1    2    0    0  0.49919955086E+02  0.14864135988E+03  0.12898759986E+03  0.28429747923E+03  0.19900000000E+03 0.  0.
<mgrwt>
<rscale>  0 0.50674442E+03</rscale>
<asrwt>0</asrwt>
<pdfrwt beam="1">  1        2 0.59795186E-01 0.50674442E+03</pdfrwt>
<pdfrwt beam="2">  1       -2 0.21910670E-01 0.50674442E+03</pdfrwt>
<totfact> 0.14885205E+03</totfact>
</mgrwt>
</event>
<event>
 4    1  0.5131465E-005  0.4548942E+03  0.7818608E-02  0.1026273E+00
         -2   -1    0    0    0  501 -0.00000000000E+00  0.00000000000E+00  0.76633608431E+02  0.76633608474E+02  0.25500000000E-02 0. -1.
          2   -1    0    0  501    0  0.00000000000E+00 -0.00000000000E+00 -0.67505867380E+03  0.67505867380E+03  0.25500000000E-02 0.  1.
    5000001    1    1    2    0    0  0.10694099308E+03 -0.15989890459E+02 -0.26458464488E+03  0.34827874886E+03  0.19900000000E+03 0.  0.
   -5000001    1    1    2    0    0 -0.10694099308E+03  0.15989890459E+02 -0.33384042048E+03  0.40341353342E+03  0.19900000000E+03 0.  0.
<mgrwt>
<rscale>  0 0.45489419E+03</rscale>
<asrwt>0</asrwt>
<pdfrwt beam="1">  1        2 0.96436950E-01 0.45489419E+03</pdfrwt>
<pdfrwt beam="2">  1       -2 0.10947659E-01 0.45489419E+03</pdfrwt>
<totfact> 0.27677335E+03</totfact>
</mgrwt>
</event>
<event>
 4    1  0.5131465E-005  0.5013759E+03  0.7818608E-02  0.1013420E+00
          2   -1    0    0  501    0  0.00000000000E+00  0.00000000000E+00  0.20069384956E+04  0.20069384956E+04  0.25500000000E-02 0.  1.
         -2   -1    0    0    0  501 -0.00000000000E+00 -0.00000000000E+00 -0.31313585065E+02  0.31313585169E+02  0.25500000000E-02 0. -1.
    5000001    1    1    2    0    0  0.93647439654E+02 -0.34891147802E+02  0.14558751882E+04  0.14728071153E+04  0.19900000000E+03 0.  0.
   -5000001    1    1    2    0    0 -0.93647439654E+02  0.34891147802E+02  0.51974972229E+03  0.56544496546E+03  0.19900000000E+03 0.  0.
<mgrwt>
<rscale>  0 0.50137586E+03</rscale>
<asrwt>0</asrwt>
<pdfrwt beam="1">  1        2 0.28670546E+00 0.50137586E+03</pdfrwt>
<pdfrwt beam="2">  1       -2 0.44733699E-02 0.50137586E+03</pdfrwt>
<totfact> 0.20109147E+03</totfact>
</mgrwt>
</event>
<event>
 4    1  0.5131465E-005  0.1015718E+04  0.7818608E-02  0.9291472E-01
         -2   -1    0    0    0  501 -0.00000000000E+00  0.00000000000E+00  0.27841890258E+03  0.27841890259E+03  0.25500000000E-02 0. -1.
          2   -1    0    0  501    0  0.00000000000E+00 -0.00000000000E+00 -0.92637584661E+03  0.92637584661E+03  0.25500000000E-02 0.  1.
    5000001    1    1    2    0    0  0.33383524683E+03 -0.67075110362E+02 -0.70349964166E+03  0.80650963309E+03  0.19900000000E+03 0.  0.
   -5000001    1    1    2    0    0 -0.33383524683E+03  0.67075110362E+02  0.55542697634E+02  0.39828511611E+03  0.19900000000E+03 0.  0.
<mgrwt>
<rscale>  0 0.10157176E+04</rscale>
<asrwt>0</asrwt>
<pdfrwt beam="1">  1        2 0.13233941E+00 0.10157176E+04</pdfrwt>
<pdfrwt beam="2">  1       -2 0.39774129E-01 0.10157176E+04</pdfrwt>
<totfact> 0.18619765E+02</totfact>
</mgrwt>
</event>
<event>
 4    1  0.5131465E-005  0.9087272E+03  0.7818608E-02  0.9414737E-01
         -2   -1    0    0    0  501 -0.00000000000E+00  0.00000000000E+00  0.78481340853E+02  0.78481340895E+02  0.25500000000E-02 0. -1.
          2   -1    0    0  501    0  0.00000000000E+00 -0.00000000000E+00 -0.26305141708E+04  0.26305141708E+04  0.25500000000E-02 0.  1.
    5000001    1    1    2    0    0 -0.19475890141E+03  0.29587806168E+03 -0.66967150453E+03  0.78328524883E+03  0.19900000000E+03 0.  0.
   -5000001    1    1    2    0    0  0.19475890141E+03 -0.29587806168E+03 -0.18823613254E+04  0.19257102629E+04  0.19900000000E+03 0.  0.
<mgrwt>
<rscale>  0 0.90872720E+03</rscale>
<asrwt>0</asrwt>
<pdfrwt beam="1">  1        2 0.37578768E+00 0.90872720E+03</pdfrwt>
<pdfrwt beam="2">  1       -2 0.11211622E-01 0.90872720E+03</pdfrwt>
<totfact> 0.21851778E+02</totfact>
</mgrwt>
</event>
<event>
 4    1  0.5131465E-005  0.7374202E+03  0.7818608E-02  0.9655295E-01
         -2   -1    0    0    0  501 -0.00000000000E+00  0.00000000000E+00  0.62856228120E+02  0.62856228172E+02  0.25500000000E-02 0. -1.
          2   -1    0    0  501    0  0.00000000000E+00 -0.00000000000E+00 -0.21628270353E+04  0.21628270353E+04  0.25500000000E-02 0.  1.
    5000001    1    1    2    0    0 -0.27065803371E+03 -0.13110770062E+03 -0.12818404799E+04  0.13316009223E+04  0.19900000000E+03 0.  0.
   -5000001    1    1    2    0    0  0.27065803371E+03  0.13110770062E+03 -0.81813032728E+03  0.89408234117E+03  0.19900000000E+03 0.  0.
<mgrwt>
<rscale>  0 0.73742023E+03</rscale>
<asrwt>0</asrwt>
<pdfrwt beam="1">  1        2 0.30897525E+00 0.73742023E+03</pdfrwt>
<pdfrwt beam="2">  1       -2 0.89794625E-02 0.73742023E+03</pdfrwt>
<totfact> 0.55359214E+02</totfact>
</mgrwt>
</event>
<event>
 4    1  0.5131465E-005  0.6290563E+03  0.7818608E-02  0.9846892E-01
         -2   -1    0    0    0  501 -0.00000000000E+00  0.00000000000E+00  0.14839361654E+03  0.14839361656E+03  0.25500000000E-02 0. -1.
          2   -1    0    0  501    0  0.00000000000E+00 -0.00000000000E+00 -0.66665914974E+03  0.66665914974E+03  0.25500000000E-02 0.  1.
    5000001    1    1    2    0    0  0.72007945981E+01 -0.20393455847E+03 -0.43144203357E+03  0.51709223927E+03  0.19900000000E+03 0.  0.
   -5000001    1    1    2    0    0 -0.72007945981E+01  0.20393455847E+03 -0.86823499631E+02  0.29796052704E+03  0.19900000000E+03 0.  0.
<mgrwt>
<rscale>  0 0.62905632E+03</rscale>
<asrwt>0</asrwt>
<pdfrwt beam="1">  1        2 0.95237019E-01 0.62905632E+03</pdfrwt>
<pdfrwt beam="2">  1       -2 0.21199089E-01 0.62905632E+03</pdfrwt>
<totfact> 0.92275512E+02</totfact>
</mgrwt>
</event>
<event>
 4    1  0.5131465E-005  0.6174923E+03  0.7818608E-02  0.9869765E-01
          2   -1    0    0  501    0  0.00000000000E+00  0.00000000000E+00  0.15433587760E+04  0.15433587760E+04  0.25500000000E-02 0.  1.
         -2   -1    0    0    0  501 -0.00000000000E+00 -0.00000000000E+00 -0.61764112629E+02  0.61764112681E+02  0.25500000000E-02 0. -1.
    5000001    1    1    2    0    0 -0.23164869484E+02 -0.23481315771E+03  0.75905909719E+03  0.81941780749E+03  0.19900000000E+03 0.  0.
   -5000001    1    1    2    0    0  0.23164869484E+02  0.23481315771E+03  0.72253556621E+03  0.78570508122E+03  0.19900000000E+03 0.  0.
<mgrwt>
<rscale>  0 0.61749230E+03</rscale>
<asrwt>0</asrwt>
<pdfrwt beam="1">  1        2 0.22047982E+00 0.61749230E+03</pdfrwt>
<pdfrwt beam="2">  1       -2 0.88234449E-02 0.61749230E+03</pdfrwt>
<totfact> 0.11830813E+03</totfact>
</mgrwt>
</event>
<event>
 4    1  0.5131465E-005  0.5639021E+03  0.7818608E-02  0.9983264E-01
         -2   -1    0    0    0  501 -0.00000000000E+00  0.00000000000E+00  0.15872113888E+03  0.15872113890E+03  0.25500000000E-02 0. -1.
          2   -1    0    0  501    0  0.00000000000E+00 -0.00000000000E+00 -0.50085575802E+03  0.50085575803E+03  0.25500000000E-02 0.  1.
    5000001    1    1    2    0    0  0.18048975636E+03  0.47670795196E+02 -0.87977081745E+02  0.28668802517E+03  0.19900000000E+03 0.  0.
   -5000001    1    1    2    0    0 -0.18048975636E+03 -0.47670795196E+02 -0.25415753740E+03  0.37288887176E+03  0.19900000000E+03 0.  0.
<mgrwt>
<rscale>  0 0.56390211E+03</rscale>
<asrwt>0</asrwt>
<pdfrwt beam="1">  1        2 0.71550822E-01 0.56390211E+03</pdfrwt>
<pdfrwt beam="2">  1       -2 0.22674449E-01 0.56390211E+03</pdfrwt>
<totfact> 0.11457777E+03</totfact>
</mgrwt>
</event>
<event>
 4    1  0.5131465E-005  0.5110266E+03  0.7818608E-02  0.1010940E+00
          2   -1    0    0  501    0  0.00000000000E+00  0.00000000000E+00  0.30729169784E+02  0.30729169890E+02  0.25500000000E-02 0.  1.
         -2   -1    0    0    0  501 -0.00000000000E+00 -0.00000000000E+00 -0.21245951459E+04  0.21245951459E+04  0.25500000000E-02 0. -1.
    5000001    1    1    2    0    0 -0.14387597003E+03  0.69033447790E+02 -0.11095096090E+04  0.11384544278E+04  0.19900000000E+03 0.  0.
   -5000001    1    1    2    0    0  0.14387597003E+03 -0.69033447790E+02 -0.98435636717E+03  0.10168698881E+04  0.19900000000E+03 0.  0.
<mgrwt>
<rscale>  0 0.51102659E+03</rscale>
<asrwt>0</asrwt>
<pdfrwt beam="1">  1        2 0.43898828E-02 0.51102659E+03</pdfrwt>
<pdfrwt beam="2">  1       -2 0.30351350E+00 0.51102659E+03</pdfrwt>
<totfact> 0.63598832E+01</totfact>
</mgrwt>
</event>
<event>
 4    1  0.5131465E-005  0.7145238E+03  0.7818608E-02  0.9692712E-01
          2   -1    0    0  501    0  0.00000000000E+00  0.00000000000E+00  0.30742839064E+04  0.30742839064E+04  0.25500000000E-02 0.  1.
         -2   -1    0    0    0  501 -0.00000000000E+00 -0.00000000000E+00 -0.41517333675E+02  0.41517333753E+02  0.25500000000E-02 0. -1.
    5000001    1    1    2    0    0  0.20857648231E+03  0.19573807529E+03  0.11725389271E+04  0.12232195545E+04  0.19900000000E+03 0.  0.
   -5000001    1    1    2    0    0 -0.20857648231E+03 -0.19573807529E+03  0.18602276456E+04  0.18925816856E+04  0.19900000000E+03 0.  0.
<mgrwt>
<rscale>  0 0.71452382E+03</rscale>
<asrwt>0</asrwt>
<pdfrwt beam="1">  1        2 0.43918354E+00 0.71452382E+03</pdfrwt>
<pdfrwt beam="2">  1       -2 0.59310460E-02 0.71452382E+03</pdfrwt>
<totfact> 0.35687228E+02</totfact>
</mgrwt>
</event>
<event>
 4    1  0.5131465E-005  0.7073641E+03  0.7818608E-02  0.9704721E-01
         -2   -1    0    0    0  501 -0.00000000000E+00  0.00000000000E+00  0.78116041277E+02  0.78116041319E+02  0.25500000000E-02 0. -1.
          2   -1    0    0  501    0  0.00000000000E+00 -0.00000000000E+00 -0.16013481216E+04  0.16013481216E+04  0.25500000000E-02 0.  1.
    5000001    1    1    2    0    0  0.10961052301E+03  0.22959017217E+03 -0.11037386866E+04  0.11500287832E+04  0.19900000000E+03 0.  0.
   -5000001    1    1    2    0    0 -0.10961052301E+03 -0.22959017217E+03 -0.41949339370E+03  0.52943537969E+03  0.19900000000E+03 0.  0.
<mgrwt>
<rscale>  0 0.70736405E+03</rscale>
<asrwt>0</asrwt>
<pdfrwt beam="1">  1        2 0.22876400E+00 0.70736405E+03</pdfrwt>
<pdfrwt beam="2">  1       -2 0.11159435E-01 0.70736405E+03</pdfrwt>
<totfact> 0.75107071E+02</totfact>
</mgrwt>
</event>
<event>
 4    1  0.5131465E-005  0.4392736E+03  0.7818608E-02  0.1030970E+00
         -2   -1    0    0    0  501 -0.00000000000E+00  0.00000000000E+00  0.28006143297E+02  0.28006143413E+02  0.25500000000E-02 0. -1.
          2   -1    0    0  501    0  0.00000000000E+00 -0.00000000000E+00 -0.17224911648E+04  0.17224911648E+04  0.25500000000E-02 0.  1.
    5000001    1    1    2    0    0  0.52845170819E+02  0.46320090811E+02 -0.60480718225E+03  0.64057075378E+03  0.19900000000E+03 0.  0.
   -5000001    1    1    2    0    0 -0.52845170819E+02 -0.46320090811E+02 -0.10896778393E+04  0.11099265545E+04  0.19900000000E+03 0.  0.
<mgrwt>
<rscale>  0 0.43927365E+03</rscale>
<asrwt>0</asrwt>
<pdfrwt beam="1">  1        2 0.24607010E+00 0.43927365E+03</pdfrwt>
<pdfrwt beam="2">  1       -2 0.40008787E-02 0.43927365E+03</pdfrwt>
<totfact> 0.33150271E+03</totfact>
</mgrwt>
</event>
<event>
 4    1  0.5131465E-005  0.5758560E+03  0.7818608E-02  0.9956803E-01
          2   -1    0    0  501    0  0.00000000000E+00  0.00000000000E+00  0.37566895462E+04  0.37566895462E+04  0.25500000000E-02 0.  1.
         -2   -1    0    0    0  501 -0.00000000000E+00 -0.00000000000E+00 -0.22067974978E+02  0.22067975125E+02  0.25500000000E-02 0. -1.
    5000001    1    1    2    0    0 -0.27448002369E+01  0.20791990807E+03  0.18150990476E+04  0.18377768566E+04  0.19900000000E+03 0.  0.
   -5000001    1    1    2    0    0  0.27448002369E+01 -0.20791990807E+03  0.19195225236E+04  0.19409806647E+04  0.19900000000E+03 0.  0.
<mgrwt>
<rscale>  0 0.57585599E+03</rscale>
<asrwt>0</asrwt>
<pdfrwt beam="1">  1        2 0.53666960E+00 0.57585599E+03</pdfrwt>
<pdfrwt beam="2">  1       -2 0.31525699E-02 0.57585599E+03</pdfrwt>
<totfact> 0.38269519E+02</totfact>
</mgrwt>
</event>
<event>
 4    1  0.5131465E-005  0.5097230E+03  0.7818608E-02  0.1011272E+00
          2   -1    0    0  501    0  0.00000000000E+00  0.00000000000E+00  0.16396352407E+03  0.16396352409E+03  0.25500000000E-02 0.  1.
         -2   -1    0    0    0  501 -0.00000000000E+00 -0.00000000000E+00 -0.39615143749E+03  0.39615143749E+03  0.25500000000E-02 0. -1.
    5000001    1    1    2    0    0 -0.75288268644E+02 -0.13843736708E+03 -0.91032259360E+02  0.26966850065E+03  0.19900000000E+03 0.  0.
   -5000001    1    1    2    0    0  0.75288268644E+02  0.13843736708E+03 -0.14115565405E+03  0.29044646094E+03  0.19900000000E+03 0.  0.
<mgrwt>
<rscale>  0 0.50972301E+03</rscale>
<asrwt>0</asrwt>
<pdfrwt beam="1">  1        2 0.23423361E-01 0.50972301E+03</pdfrwt>
<pdfrwt beam="2">  1       -2 0.56593062E-01 0.50972301E+03</pdfrwt>
<totfact> 0.69607386E+02</totfact>
</mgrwt>
</event>
<event>
 4    1  0.5131465E-005  0.8573285E+03  0.7818608E-02  0.9480553E-01
          2   -1    0    0  501    0  0.00000000000E+00  0.00000000000E+00  0.32313453802E+03  0.32313453803E+03  0.25500000000E-02 0.  1.
         -2   -1    0    0    0  501 -0.00000000000E+00 -0.00000000000E+00 -0.56865805027E+03  0.56865805028E+03  0.25500000000E-02 0. -1.
    5000001    1    1    2    0    0  0.35723828523E+03 -0.14492305378E+02  0.10135005828E+02  0.40930787641E+03  0.19900000000E+03 0.  0.
   -5000001    1    1    2    0    0 -0.35723828523E+03  0.14492305378E+02 -0.25565851807E+03  0.48248471190E+03  0.19900000000E+03 0.  0.
<mgrwt>
<rscale>  0 0.85732854E+03</rscale>
<asrwt>0</asrwt>
<pdfrwt beam="1">  1        2 0.46162077E-01 0.85732854E+03</pdfrwt>
<pdfrwt beam="2">  1       -2 0.81236864E-01 0.85732854E+03</pdfrwt>
<totfact> 0.14739752E+02</totfact>
</mgrwt>
</event>
<event>
 4    1  0.5131465E-005  0.8316551E+03  0.7818608E-02  0.9515295E-01
          2   -1    0    0  501    0  0.00000000000E+00  0.00000000000E+00  0.34819483404E+03  0.34819483405E+03  0.25500000000E-02 0.  1.
         -2   -1    0    0    0  501 -0.00000000000E+00 -0.00000000000E+00 -0.49659716705E+03  0.49659716706E+03  0.25500000000E-02 0. -1.
    5000001    1    1    2    0    0 -0.27452981762E+03 -0.23812901083E+03 -0.38438197380E+02  0.41611361619E+03  0.19900000000E+03 0.  0.
   -5000001    1    1    2    0    0  0.27452981762E+03  0.23812901083E+03 -0.10996413563E+03  0.42867838491E+03  0.19900000000E+03 0.  0.
<mgrwt>
<rscale>  0 0.83165514E+03</rscale>
<asrwt>0</asrwt>
<pdfrwt beam="1">  1        2 0.49742119E-01 0.83165514E+03</pdfrwt>
<pdfrwt beam="2">  1       -2 0.70942453E-01 0.83165514E+03</pdfrwt>
<totfact> 0.18350750E+02</totfact>
</mgrwt>
</event>
<event>
 4    1  0.5131465E-005  0.6820201E+03  0.7818608E-02  0.9748484E-01
         -2   -1    0    0    0  501 -0.00000000000E+00  0.00000000000E+00  0.13540239124E+03  0.13540239126E+03  0.25500000000E-02 0. -1.
          2   -1    0    0  501    0  0.00000000000E+00 -0.00000000000E+00 -0.85883149603E+03  0.85883149603E+03  0.25500000000E-02 0.  1.
    5000001    1    1    2    0    0 -0.23235020080E+03 -0.14269989376E+03 -0.43218666854E+03  0.54839419395E+03  0.19900000000E+03 0.  0.
   -5000001    1    1    2    0    0  0.23235020080E+03  0.14269989376E+03 -0.29124243625E+03  0.44583969335E+03  0.19900000000E+03 0.  0.
<mgrwt>
<rscale>  0 0.68202005E+03</rscale>
<asrwt>0</asrwt>
<pdfrwt beam="1">  1        2 0.12269021E+00 0.68202005E+03</pdfrwt>
<pdfrwt beam="2">  1       -2 0.19343199E-01 0.68202005E+03</pdfrwt>
<totfact> 0.78624568E+02</totfact>
</mgrwt>
</event>
<event>
 4    1  0.5131465E-005  0.7245451E+03  0.7818608E-02  0.9676154E-01
          2   -1    0    0  501    0  0.00000000000E+00  0.00000000000E+00  0.21166087735E+03  0.21166087736E+03  0.25500000000E-02 0.  1.
         -2   -1    0    0    0  501 -0.00000000000E+00 -0.00000000000E+00 -0.62005504096E+03  0.62005504096E+03  0.25500000000E-02 0. -1.
    5000001    1    1    2    0    0  0.64905388604E+02 -0.24141758543E+03 -0.40016878792E+03  0.51208516757E+03  0.19900000000E+03 0.  0.
   -5000001    1    1    2    0    0 -0.64905388604E+02  0.24141758543E+03 -0.82253756947E+01  0.31963075076E+03  0.19900000000E+03 0.  0.
<mgrwt>
<rscale>  0 0.72454508E+03</rscale>
<asrwt>0</asrwt>
<pdfrwt beam="1">  1        2 0.30237268E-01 0.72454508E+03</pdfrwt>
<pdfrwt beam="2">  1       -2 0.88579291E-01 0.72454508E+03</pdfrwt>
<totfact> 0.19515928E+02</totfact>
</mgrwt>
</event>
<event>
 4    1  0.5131465E-005  0.4456873E+03  0.7818608E-02  0.1029016E+00
          2   -1    0    0  501    0  0.00000000000E+00  0.00000000000E+00  0.10424015906E+04  0.10424015906E+04  0.25500000000E-02 0.  1.
         -2   -1    0    0    0  501 -0.00000000000E+00 -0.00000000000E+00 -0.47639312995E+02  0.47639313064E+02  0.25500000000E-02 0. -1.
    5000001    1    1    2    0    0  0.40433075026E+02  0.90358426099E+02  0.53672789047E+03  0.58092797069E+03  0.19900000000E+03 0.  0.
   -5000001    1    1    2    0    0 -0.40433075026E+02 -0.90358426099E+02  0.45803438711E+03  0.50911293296E+03  0.19900000000E+03 0.  0.
<mgrwt>
<rscale>  0 0.44568731E+03</rscale>
<asrwt>0</asrwt>
<pdfrwt beam="1">  1        2 0.14891450E+00 0.44568731E+03</pdfrwt>
<pdfrwt beam="2">  1       -2 0.68056166E-02 0.44568731E+03</pdfrwt>
<totfact> 0.33634848E+03</totfact>
</mgrwt>
</event>
<event>
 4    1  0.5131465E-005  0.5594652E+03  0.7818608E-02  0.9993265E-01
         -2   -1    0    0    0  501 -0.00000000000E+00  0.00000000000E+00  0.32298271290E+03  0.32298271291E+03  0.25500000000E-02 0. -1.
          2   -1    0    0  501    0  0.00000000000E+00 -0.00000000000E+00 -0.24227404473E+03  0.24227404474E+03  0.25500000000E-02 0.  1.
    5000001    1    1    2    0    0 -0.17931335763E+03  0.69627052956E+02  0.81371655600E+02  0.28848492692E+03  0.19900000000E+03 0.  0.
   -5000001    1    1    2    0    0  0.17931335763E+03 -0.69627052956E+02 -0.66298742989E+00  0.27677183072E+03  0.19900000000E+03 0.  0.
<mgrwt>
<rscale>  0 0.55946520E+03</rscale>
<asrwt>0</asrwt>
<pdfrwt beam="1">  1        2 0.34610578E-01 0.55946520E+03</pdfrwt>
<pdfrwt beam="2">  1       -2 0.46140387E-01 0.55946520E+03</pdfrwt>
<totfact> 0.67854887E+02</totfact>
</mgrwt>
</event>
<event>
 4    1  0.5131465E-005  0.7408739E+03  0.7818608E-02  0.9649778E-01
         -2   -1    0    0    0  501 -0.00000000000E+00  0.00000000000E+00  0.27673614563E+03  0.27673614564E+03  0.25500000000E-02 0. -1.
          2   -1    0    0  501    0  0.00000000000E+00 -0.00000000000E+00 -0.49586414777E+03  0.49586414777E+03  0.25500000000E-02 0.  1.
    5000001    1    1    2    0    0  0.18624662644E+03  0.22929921840E+03 -0.34386636790E+01  0.35620045175E+03  0.19900000000E+03 0.  0.
   -5000001    1    1    2    0    0 -0.18624662644E+03 -0.22929921840E+03 -0.21568933846E+03  0.41639984167E+03  0.19900000000E+03 0.  0.
<mgrwt>
<rscale>  0 0.74087390E+03</rscale>
<asrwt>0</asrwt>
<pdfrwt beam="1">  1        2 0.70837735E-01 0.74087390E+03</pdfrwt>
<pdfrwt beam="2">  1       -2 0.39533735E-01 0.74087390E+03</pdfrwt>
<totfact> 0.41268434E+02</totfact>
</mgrwt>
</event>
<event>
 4    1  0.5131465E-005  0.6177866E+03  0.7818608E-02  0.9869177E-01
         -2   -1    0    0    0  501 -0.00000000000E+00  0.00000000000E+00  0.46165931835E+02  0.46165931905E+02  0.25500000000E-02 0. -1.
          2   -1    0    0  501    0  0.00000000000E+00 -0.00000000000E+00 -0.20667851646E+04  0.20667851646E+04  0.25500000000E-02 0.  1.
    5000001    1    1    2    0    0  0.95737906839E+02  0.21172584053E+03 -0.86437964364E+03  0.91692243221E+03  0.19900000000E+03 0.  0.
   -5000001    1    1    2    0    0 -0.95737906839E+02 -0.21172584053E+03 -0.11562395892E+04  0.11960286643E+04  0.19900000000E+03 0.  0.
<mgrwt>
<rscale>  0 0.61778658E+03</rscale>
<asrwt>0</asrwt>
<pdfrwt beam="1">  1        2 0.29525497E+00 0.61778658E+03</pdfrwt>
<pdfrwt beam="2">  1       -2 0.65951344E-02 0.61778658E+03</pdfrwt>
<totfact> 0.10199707E+03</totfact>
</mgrwt>
</event>
<event>
 4    1  0.5131465E-005  0.6548998E+03  0.7818608E-02  0.9797628E-01
         -2   -1    0    0    0  501 -0.00000000000E+00  0.00000000000E+00  0.53363264718E+02  0.53363264779E+02  0.25500000000E-02 0. -1.
          2   -1    0    0  501    0  0.00000000000E+00 -0.00000000000E+00 -0.20093115528E+04  0.20093115528E+04  0.25500000000E-02 0.  1.
    5000001    1    1    2    0    0 -0.85630347904E+02 -0.24526564222E+03 -0.10145194070E+04  0.10659917537E+04  0.19900000000E+03 0.  0.
   -5000001    1    1    2    0    0  0.85630347904E+02  0.24526564222E+03 -0.94142888106E+03  0.99668306388E+03  0.19900000000E+03 0.  0.
<mgrwt>
<rscale>  0 0.65489976E+03</rscale>
<asrwt>0</asrwt>
<pdfrwt beam="1">  1        2 0.28704446E+00 0.65489976E+03</pdfrwt>
<pdfrwt beam="2">  1       -2 0.76233248E-02 0.65489976E+03</pdfrwt>
<totfact> 0.86482181E+02</totfact>
</mgrwt>
</event>
<event>
 4    1  0.5131465E-005  0.6888691E+03  0.7818608E-02  0.9736459E-01
         -2   -1    0    0    0  501 -0.00000000000E+00  0.00000000000E+00  0.41093329238E+03  0.41093329238E+03  0.25500000000E-02 0. -1.
          2   -1    0    0  501    0  0.00000000000E+00 -0.00000000000E+00 -0.28869689760E+03  0.28869689761E+03  0.25500000000E-02 0.  1.
    5000001    1    1    2    0    0  0.11924856899E+02 -0.22773573445E+03  0.22808955942E+03  0.37898761731E+03  0.19900000000E+03 0.  0.
   -5000001    1    1    2    0    0 -0.11924856899E+02  0.22773573445E+03 -0.10585316464E+03  0.32064257269E+03  0.19900000000E+03 0.  0.
<mgrwt>
<rscale>  0 0.68886912E+03</rscale>
<asrwt>0</asrwt>
<pdfrwt beam="1">  1        2 0.41242414E-01 0.68886912E+03</pdfrwt>
<pdfrwt beam="2">  1       -2 0.58704756E-01 0.68886912E+03</pdfrwt>
<totfact> 0.34059647E+02</totfact>
</mgrwt>
</event>
<event>
 4    1  0.5131465E-005  0.6320350E+03  0.7818608E-02  0.9841086E-01
         -2   -1    0    0    0  501 -0.00000000000E+00  0.00000000000E+00  0.36386328488E+02  0.36386328577E+02  0.25500000000E-02 0. -1.
          2   -1    0    0  501    0  0.00000000000E+00 -0.00000000000E+00 -0.27446312526E+04  0.27446312526E+04  0.25500000000E-02 0.  1.
    5000001    1    1    2    0    0 -0.22057995132E+02 -0.18725319203E+03 -0.20458728949E+04  0.20641577495E+04  0.19900000000E+03 0.  0.
   -5000001    1    1    2    0    0  0.22057995132E+02  0.18725319203E+03 -0.66237202921E+03  0.71685983160E+03  0.19900000000E+03 0.  0.
<mgrwt>
<rscale>  0 0.63203498E+03</rscale>
<asrwt>0</asrwt>
<pdfrwt beam="1">  1        2 0.39209005E+00 0.63203498E+03</pdfrwt>
<pdfrwt beam="2">  1       -2 0.51980487E-02 0.63203498E+03</pdfrwt>
<totfact> 0.66553911E+02</totfact>
</mgrwt>
</event>
<event>
 4    1  0.5131465E-005  0.5137282E+03  0.7818608E-02  0.1010257E+00
          2   -1    0    0  501    0  0.00000000000E+00  0.00000000000E+00  0.20393551781E+04  0.20393551781E+04  0.25500000000E-02 0.  1.
         -2   -1    0    0    0  501 -0.00000000000E+00 -0.00000000000E+00 -0.32352950773E+02  0.32352950874E+02  0.25500000000E-02 0. -1.
    5000001    1    1    2    0    0 -0.12215810686E+03 -0.77465909782E+02  0.70566582809E+03  0.74732110313E+03  0.19900000000E+03 0.  0.
   -5000001    1    1    2    0    0  0.12215810686E+03  0.77465909782E+02  0.13013363993E+04  0.13243870259E+04  0.19900000000E+03 0.  0.
<mgrwt>
<rscale>  0 0.51372817E+03</rscale>
<asrwt>0</asrwt>
<pdfrwt beam="1">  1        2 0.29133650E+00 0.51372817E+03</pdfrwt>
<pdfrwt beam="2">  1       -2 0.46218494E-02 0.51372817E+03</pdfrwt>
<totfact> 0.18414421E+03</totfact>
</mgrwt>
</event>
<event>
 4    1  0.5131465E-005  0.5424477E+03  0.7818608E-02  0.1003257E+00
          2   -1    0    0  501    0  0.00000000000E+00  0.00000000000E+00  0.40625886965E+04  0.40625886965E+04  0.25500000000E-02 0.  1.
         -2   -1    0    0    0  501 -0.00000000000E+00 -0.00000000000E+00 -0.18107268354E+02  0.18107268534E+02  0.25500000000E-02 0. -1.
    5000001    1    1    2    0    0 -0.11077850995E+03  0.12082040264E+03  0.26557584141E+04  0.26682434676E+04  0.19900000000E+03 0.  0.
   -5000001    1    1    2    0    0  0.11077850995E+03 -0.12082040264E+03  0.13887230141E+04  0.14124524975E+04  0.19900000000E+03 0.  0.
<mgrwt>
<rscale>  0 0.54244773E+03</rscale>
<asrwt>0</asrwt>
<pdfrwt beam="1">  1        2 0.58036960E+00 0.54244773E+03</pdfrwt>
<pdfrwt beam="2">  1       -2 0.25867536E-02 0.54244773E+03</pdfrwt>
<totfact> 0.32812940E+02</totfact>
</mgrwt>
</event>
<event>
 4    1  0.5131465E-005  0.5469474E+03  0.7818608E-02  0.1002203E+00
         -2   -1    0    0    0  501 -0.00000000000E+00  0.00000000000E+00  0.23418609997E+03  0.23418609998E+03  0.25500000000E-02 0. -1.
          2   -1    0    0  501    0  0.00000000000E+00 -0.00000000000E+00 -0.31935224769E+03  0.31935224770E+03  0.25500000000E-02 0.  1.
    5000001    1    1    2    0    0 -0.71109456837E+02 -0.16923906982E+03 -0.35378596783E+01  0.27076176624E+03  0.19900000000E+03 0.  0.
   -5000001    1    1    2    0    0  0.71109456837E+02  0.16923906982E+03 -0.81628288043E+02  0.28277658144E+03  0.19900000000E+03 0.  0.
<mgrwt>
<rscale>  0 0.54694737E+03</rscale>
<asrwt>0</asrwt>
<pdfrwt beam="1">  1        2 0.45621750E-01 0.54694737E+03</pdfrwt>
<pdfrwt beam="2">  1       -2 0.33455157E-01 0.54694737E+03</pdfrwt>
<totfact> 0.93105491E+02</totfact>
</mgrwt>
</event>
<event>
 4    1  0.5131465E-005  0.8978300E+03  0.7818608E-02  0.9428298E-01
          2   -1    0    0  501    0  0.00000000000E+00  0.00000000000E+00  0.58156305761E+03  0.58156305762E+03  0.25500000000E-02 0.  1.
         -2   -1    0    0    0  501 -0.00000000000E+00 -0.00000000000E+00 -0.34652250970E+03  0.34652250971E+03  0.25500000000E-02 0. -1.
    5000001    1    1    2    0    0  0.43951772466E+02 -0.39505585120E+03  0.52777346854E+02  0.44764643661E+03  0.19900000000E+03 0.  0.
   -5000001    1    1    2    0    0 -0.43951772466E+02  0.39505585120E+03  0.18226320106E+03  0.48043913072E+03  0.19900000000E+03 0.  0.
<mgrwt>
<rscale>  0 0.89783003E+03</rscale>
<asrwt>0</asrwt>
<pdfrwt beam="1">  1        2 0.83080436E-01 0.89783003E+03</pdfrwt>
<pdfrwt beam="2">  1       -2 0.49503216E-01 0.89783003E+03</pdfrwt>
<totfact> 0.21807674E+02</totfact>
</mgrwt>
</event>
<event>
 4    1  0.5131465E-005  0.8241876E+03  0.7818608E-02  0.9525652E-01
          2   -1    0    0  501    0  0.00000000000E+00  0.00000000000E+00  0.22961629516E+03  0.22961629517E+03  0.25500000000E-02 0.  1.
         -2   -1    0    0    0  501 -0.00000000000E+00 -0.00000000000E+00 -0.73958738266E+03  0.73958738266E+03  0.25500000000E-02 0. -1.
    5000001    1    1    2    0    0  0.16702894102E+03  0.21203304092E+03  0.26662862793E+02  0.33640538913E+03  0.19900000000E+03 0.  0.
   -5000001    1    1    2    0    0 -0.16702894102E+03 -0.21203304092E+03 -0.53663395029E+03  0.63279828870E+03  0.19900000000E+03 0.  0.
<mgrwt>
<rscale>  0 0.82418764E+03</rscale>
<asrwt>0</asrwt>
<pdfrwt beam="1">  1        2 0.32802328E-01 0.82418764E+03</pdfrwt>
<pdfrwt beam="2">  1       -2 0.10565534E+00 0.82418764E+03</pdfrwt>
<totfact> 0.11725788E+02</totfact>
</mgrwt>
</event>
<event>
 4    1  0.5131465E-005  0.7915998E+03  0.7818608E-02  0.9572256E-01
          2   -1    0    0  501    0  0.00000000000E+00  0.00000000000E+00  0.18656374735E+04  0.18656374735E+04  0.25500000000E-02 0.  1.
         -2   -1    0    0    0  501 -0.00000000000E+00 -0.00000000000E+00 -0.83969995338E+02  0.83969995377E+02  0.25500000000E-02 0. -1.
    5000001    1    1    2    0    0  0.31585109298E+03  0.52639119008E+02  0.59402182784E+03  0.70355932354E+03  0.19900000000E+03 0.  0.
   -5000001    1    1    2    0    0 -0.31585109298E+03 -0.52639119008E+02  0.11876456504E+04  0.12460481454E+04  0.19900000000E+03 0.  0.
<mgrwt>
<rscale>  0 0.79159982E+03</rscale>
<asrwt>0</asrwt>
<pdfrwt beam="1">  1        2 0.26651966E+00 0.79159982E+03</pdfrwt>
<pdfrwt beam="2">  1       -2 0.11995713E-01 0.79159982E+03</pdfrwt>
<totfact> 0.48612769E+02</totfact>
</mgrwt>
</event>
<event>
 4    1  0.5131465E-005  0.4126898E+03  0.7818608E-02  0.1039472E+00
         -2   -1    0    0    0  501 -0.00000000000E+00  0.00000000000E+00  0.38012694367E+02  0.38012694453E+02  0.25500000000E-02 0. -1.
          2   -1    0    0  501    0  0.00000000000E+00 -0.00000000000E+00 -0.11201054803E+04  0.11201054803E+04  0.25500000000E-02 0.  1.
    5000001    1    1    2    0    0 -0.36470685627E+02 -0.22912257152E+02 -0.63505195772E+03  0.66689359829E+03  0.19900000000E+03 0.  0.
   -5000001    1    1    2    0    0  0.36470685627E+02  0.22912257152E+02 -0.44704082826E+03  0.49122457651E+03  0.19900000000E+03 0.  0.
<mgrwt>
<rscale>  0 0.41268985E+03</rscale>
<asrwt>0</asrwt>
<pdfrwt beam="1">  1        2 0.16001505E+00 0.41268985E+03</pdfrwt>
<pdfrwt beam="2">  1       -2 0.54303856E-02 0.41268985E+03</pdfrwt>
<totfact> 0.43049444E+03</totfact>
</mgrwt>
</event>
<event>
 4    1  0.5131465E-005  0.4281594E+03  0.7818608E-02  0.1034443E+00
         -2   -1    0    0    0  501 -0.00000000000E+00  0.00000000000E+00  0.18801330966E+02  0.18801331139E+02  0.25500000000E-02 0. -1.
          2   -1    0    0  501    0  0.00000000000E+00 -0.00000000000E+00 -0.24375992926E+04  0.24375992926E+04  0.25500000000E-02 0.  1.
    5000001    1    1    2    0    0  0.30157150705E+02  0.50402203304E+02 -0.90694483469E+03  0.93037614382E+03  0.19900000000E+03 0.  0.
   -5000001    1    1    2    0    0 -0.30157150705E+02 -0.50402203304E+02 -0.15118531270E+04  0.15260244799E+04  0.19900000000E+03 0.  0.
<mgrwt>
<rscale>  0 0.42815937E+03</rscale>
<asrwt>0</asrwt>
<pdfrwt beam="1">  1        2 0.34822827E+00 0.42815937E+03</pdfrwt>
<pdfrwt beam="2">  1       -2 0.26859060E-02 0.42815937E+03</pdfrwt>
<totfact> 0.26659464E+03</totfact>
</mgrwt>
</event>
<event>
 4    1  0.5131465E-005  0.6263663E+03  0.7818608E-02  0.9852165E-01
          2   -1    0    0  501    0  0.00000000000E+00  0.00000000000E+00  0.25429660236E+03  0.25429660237E+03  0.25500000000E-02 0.  1.
         -2   -1    0    0    0  501 -0.00000000000E+00 -0.00000000000E+00 -0.38570583725E+03  0.38570583726E+03  0.25500000000E-02 0. -1.
    5000001    1    1    2    0    0 -0.23428952310E+03 -0.47876107537E+02 -0.28878600163E+02  0.31243987558E+03  0.19900000000E+03 0.  0.
   -5000001    1    1    2    0    0  0.23428952310E+03  0.47876107537E+02 -0.10253063473E+03  0.32756256405E+03  0.19900000000E+03 0.  0.
<mgrwt>
<rscale>  0 0.62636630E+03</rscale>
<asrwt>0</asrwt>
<pdfrwt beam="1">  1        2 0.36328086E-01 0.62636630E+03</pdfrwt>
<pdfrwt beam="2">  1       -2 0.55100834E-01 0.62636630E+03</pdfrwt>
<totfact> 0.44806875E+02</totfact>
</mgrwt>
</event>
<event>
 4    1  0.5131465E-005  0.5971515E+03  0.7818608E-02  0.9911333E-01
          2   -1    0    0  501    0  0.00000000000E+00  0.00000000000E+00  0.52290311755E+03  0.52290311755E+03  0.25500000000E-02 0.  1.
         -2   -1    0    0    0  501 -0.00000000000E+00 -0.00000000000E+00 -0.17048566243E+03  0.17048566245E+03  0.25500000000E-02 0. -1.
    5000001    1    1    2    0    0  0.58041586849E+02 -0.14292465823E+03 -0.10121183540E+02  0.25199151194E+03  0.19900000000E+03 0.  0.
   -5000001    1    1    2    0    0 -0.58041586849E+02  0.14292465823E+03  0.36253863865E+03  0.44139726806E+03  0.19900000000E+03 0.  0.
<mgrwt>
<rscale>  0 0.59715152E+03</rscale>
<asrwt>0</asrwt>
<pdfrwt beam="1">  1        2 0.74700446E-01 0.59715152E+03</pdfrwt>
<pdfrwt beam="2">  1       -2 0.24355094E-01 0.59715152E+03</pdfrwt>
<totfact> 0.96029142E+02</totfact>
</mgrwt>
</event>
<event>
 4    1  0.5131465E-005  0.5832618E+03  0.7818608E-02  0.9940754E-01
         -2   -1    0    0    0  501 -0.00000000000E+00  0.00000000000E+00  0.44515198146E+03  0.44515198146E+03  0.25500000000E-02 0. -1.
          2   -1    0    0  501    0  0.00000000000E+00 -0.00000000000E+00 -0.19105513396E+03  0.19105513398E+03  0.25500000000E-02 0.  1.
    5000001    1    1    2    0    0  0.20716352419E+02  0.19701339350E+03  0.41132165696E+02  0.28378918149E+03  0.19900000000E+03 0.  0.
   -5000001    1    1    2    0    0 -0.20716352419E+02 -0.19701339350E+03  0.21296468180E+03  0.35241793395E+03  0.19900000000E+03 0.  0.
<mgrwt>
<rscale>  0 0.58326176E+03</rscale>
<asrwt>0</asrwt>
<pdfrwt beam="1">  1        2 0.27293591E-01 0.58326176E+03</pdfrwt>
<pdfrwt beam="2">  1       -2 0.63593140E-01 0.58326176E+03</pdfrwt>
<totfact> 0.45743166E+02</totfact>
</mgrwt>
</event>
<event>
 4    1  0.5131465E-005  0.8717827E+03  0.7818608E-02  0.9461559E-01
         -2   -1    0    0    0  501 -0.00000000000E+00  0.00000000000E+00  0.10444633667E+03  0.10444633670E+03  0.25500000000E-02 0. -1.
          2   -1    0    0  501    0  0.00000000000E+00 -0.00000000000E+00 -0.18191279796E+04  0.18191279796E+04  0.25500000000E-02 0.  1.
    5000001    1    1    2    0    0  0.43166774605E+02  0.38526974679E+03 -0.83482763473E+03  0.94171881574E+03  0.19900000000E+03 0.  0.
   -5000001    1    1    2    0    0 -0.43166774605E+02 -0.38526974679E+03 -0.87985400816E+03  0.98185550052E+03  0.19900000000E+03 0.  0.
<mgrwt>
<rscale>  0 0.87178266E+03</rscale>
<asrwt>0</asrwt>
<pdfrwt beam="1">  1        2 0.25987541E+00 0.87178266E+03</pdfrwt>
<pdfrwt beam="2">  1       -2 0.14920906E-01 0.87178266E+03</pdfrwt>
<totfact> 0.35454816E+02</totfact>
</mgrwt>
</event>
<event>
 4    1  0.5131465E-005  0.4996375E+03  0.7818608E-02  0.1013874E+00
          2   -1    0    0  501    0  0.00000000000E+00  0.00000000000E+00  0.33888619160E+03  0.33888619161E+03  0.25500000000E-02 0.  1.
         -2   -1    0    0    0  501 -0.00000000000E+00 -0.00000000000E+00 -0.18416036121E+03  0.18416036123E+03  0.25500000000E-02 0. -1.
    5000001    1    1    2    0    0 -0.14160238562E+03  0.26967969981E+02  0.30197650680E+02  0.24757101027E+03  0.19900000000E+03 0.  0.
   -5000001    1    1    2    0    0  0.14160238562E+03 -0.26967969981E+02  0.12452817971E+03  0.27547554258E+03  0.19900000000E+03 0.  0.
<mgrwt>
<rscale>  0 0.49963748E+03</rscale>
<asrwt>0</asrwt>
<pdfrwt beam="1">  1        2 0.48412313E-01 0.49963748E+03</pdfrwt>
<pdfrwt beam="2">  1       -2 0.26308623E-01 0.49963748E+03</pdfrwt>
<totfact> 0.13570019E+03</totfact>
</mgrwt>
</event>
<event>
 4    1  0.5131465E-005  0.7137834E+03  0.7818608E-02  0.9693947E-01
         -2   -1    0    0    0  501 -0.00000000000E+00  0.00000000000E+00  0.41647460423E+03  0.41647460424E+03  0.25500000000E-02 0. -1.
          2   -1    0    0  501    0  0.00000000000E+00 -0.00000000000E+00 -0.30583300378E+03  0.30583300379E+03  0.25500000000E-02 0.  1.
    5000001    1    1    2    0    0  0.25906499593E+02 -0.29154553474E+03  0.89396777851E+01  0.35404923865E+03  0.19900000000E+03 0.  0.
   -5000001    1    1    2    0    0 -0.25906499593E+02  0.29154553474E+03  0.10170192266E+03  0.36825836938E+03  0.19900000000E+03 0.  0.
<mgrwt>
<rscale>  0 0.71378338E+03</rscale>
<asrwt>0</asrwt>
<pdfrwt beam="1">  1        2 0.43690429E-01 0.71378338E+03</pdfrwt>
<pdfrwt beam="2">  1       -2 0.59496372E-01 0.71378338E+03</pdfrwt>
<totfact> 0.31043783E+02</totfact>
</mgrwt>
</event>
<event>
 4    1  0.5131465E-005  0.4939367E+03  0.7818608E-02  0.1015374E+00
          2   -1    0    0  501    0  0.00000000000E+00  0.00000000000E+00  0.17437665824E+04  0.17437665824E+04  0.25500000000E-02 0.  1.
         -2   -1    0    0    0  501 -0.00000000000E+00 -0.00000000000E+00 -0.34977941388E+02  0.34977941481E+02  0.25500000000E-02 0. -1.
    5000001    1    1    2    0    0  0.12036927251E+03 -0.60002063841E+02  0.10613703110E+04  0.10882081357E+04  0.19900000000E+03 0.  0.
   -5000001    1    1    2    0    0 -0.12036927251E+03  0.60002063841E+02  0.64741832996E+03  0.69053638817E+03  0.19900000000E+03 0.  0.
<mgrwt>
<rscale>  0 0.49393670E+03</rscale>
<asrwt>0</asrwt>
<pdfrwt beam="1">  1        2 0.24910946E+00 0.49393670E+03</pdfrwt>
<pdfrwt beam="2">  1       -2 0.49968499E-02 0.49393670E+03</pdfrwt>
<totfact> 0.22968764E+03</totfact>
</mgrwt>
</event>
<event>
 4    1  0.5131465E-005  0.1204009E+04  0.7818608E-02  0.9109355E-01
         -2   -1    0    0    0  501 -0.00000000000E+00  0.00000000000E+00  0.98498666180E+03  0.98498666181E+03  0.25500000000E-02 0. -1.
          2   -1    0    0  501    0  0.00000000000E+00 -0.00000000000E+00 -0.36793325398E+03  0.36793325399E+03  0.25500000000E-02 0.  1.
    5000001    1    1    2    0    0 -0.44725055832E+03 -0.15000356811E+03  0.66435217642E+03  0.83874844064E+03  0.19900000000E+03 0.  0.
   -5000001    1    1    2    0    0  0.44725055832E+03  0.15000356811E+03 -0.47298768597E+02  0.51417147516E+03  0.19900000000E+03 0.  0.
<mgrwt>
<rscale>  0 0.12040089E+04</rscale>
<asrwt>0</asrwt>
<pdfrwt beam="1">  1        2 0.52561894E-01 0.12040089E+04</pdfrwt>
<pdfrwt beam="2">  1       -2 0.14071238E+00 0.12040089E+04</pdfrwt>
<totfact> 0.33215589E+01</totfact>
</mgrwt>
</event>
<event>
 4    1  0.5131465E-005  0.4798853E+03  0.7818608E-02  0.1019167E+00
         -2   -1    0    0    0  501 -0.00000000000E+00  0.00000000000E+00  0.26750643325E+02  0.26750643446E+02  0.25500000000E-02 0. -1.
          2   -1    0    0  501    0  0.00000000000E+00 -0.00000000000E+00 -0.21521900008E+04  0.21521900008E+04  0.25500000000E-02 0.  1.
    5000001    1    1    2    0    0  0.23286300842E+02 -0.59245080522E+02 -0.15984123197E+04  0.16120096697E+04  0.19900000000E+03 0.  0.
   -5000001    1    1    2    0    0 -0.23286300842E+02  0.59245080522E+02 -0.52702703770E+03  0.56693097450E+03  0.19900000000E+03 0.  0.
<mgrwt>
<rscale>  0 0.47988527E+03</rscale>
<asrwt>0</asrwt>
<pdfrwt beam="1">  1        2 0.30745561E+00 0.47988527E+03</pdfrwt>
<pdfrwt beam="2">  1       -2 0.38215218E-02 0.47988527E+03</pdfrwt>
<totfact> 0.21680547E+03</totfact>
</mgrwt>
</event>
<event>
 4    1  0.5131465E-005  0.4848739E+03  0.7818608E-02  0.1017804E+00
         -2   -1    0    0    0  501 -0.00000000000E+00  0.00000000000E+00  0.19895454365E+03  0.19895454366E+03  0.25500000000E-02 0. -1.
          2   -1    0    0  501    0  0.00000000000E+00 -0.00000000000E+00 -0.29542263120E+03  0.29542263121E+03  0.25500000000E-02 0.  1.
    5000001    1    1    2    0    0  0.85661656870E+02  0.76805851697E+01  0.62418404251E+02  0.22559691495E+03  0.19900000000E+03 0.  0.
   -5000001    1    1    2    0    0 -0.85661656870E+02 -0.76805851697E+01 -0.15888649180E+03  0.26878025992E+03  0.19900000000E+03 0.  0.
<mgrwt>
<rscale>  0 0.48487390E+03</rscale>
<asrwt>0</asrwt>
<pdfrwt beam="1">  1        2 0.42203233E-01 0.48487390E+03</pdfrwt>
<pdfrwt beam="2">  1       -2 0.28422078E-01 0.48487390E+03</pdfrwt>
<totfact> 0.13711932E+03</totfact>
</mgrwt>
</event>
<event>
 4    1  0.5131465E-005  0.6934323E+03  0.7818608E-02  0.9728530E-01
          2   -1    0    0  501    0  0.00000000000E+00  0.00000000000E+00  0.16643742793E+04  0.16643742793E+04  0.25500000000E-02 0.  1.
         -2   -1    0    0    0  501 -0.00000000000E+00 -0.00000000000E+00 -0.72226590365E+02  0.72226590410E+02  0.25500000000E-02 0. -1.
    5000001    1    1    2    0    0 -0.84001803827E+02 -0.22595112973E+03  0.11717343633E+04  0.12127129232E+04  0.19900000000E+03 0.  0.
   -5000001    1    1    2    0    0  0.84001803827E+02  0.22595112973E+03  0.42041332561E+03  0.52388794644E+03  0.19900000000E+03 0.  0.
<mgrwt>
<rscale>  0 0.69343227E+03</rscale>
<asrwt>0</asrwt>
<pdfrwt beam="1">  1        2 0.23776776E+00 0.69343227E+03</pdfrwt>
<pdfrwt beam="2">  1       -2 0.10318084E-01 0.69343227E+03</pdfrwt>
<totfact> 0.79288044E+02</totfact>
</mgrwt>
</event>
<event>
 4    1  0.5131465E-005  0.5331538E+03  0.7818608E-02  0.1005470E+00
          2   -1    0    0  501    0  0.00000000000E+00  0.00000000000E+00  0.86471720980E+03  0.86471720981E+03  0.25500000000E-02 0.  1.
         -2   -1    0    0    0  501 -0.00000000000E+00 -0.00000000000E+00 -0.82180893912E+02  0.82180893952E+02  0.25500000000E-02 0. -1.
    5000001    1    1    2    0    0  0.12889740156E+02  0.17561619605E+03  0.35338245414E+03  0.44213951713E+03  0.19900000000E+03 0.  0.
   -5000001    1    1    2    0    0 -0.12889740156E+02 -0.17561619605E+03  0.42915386175E+03  0.50475858662E+03  0.19900000000E+03 0.  0.
<mgrwt>
<rscale>  0 0.53315376E+03</rscale>
<asrwt>0</asrwt>
<pdfrwt beam="1">  1        2 0.12353102E+00 0.53315376E+03</pdfrwt>
<pdfrwt beam="2">  1       -2 0.11740129E-01 0.53315376E+03</pdfrwt>
<totfact> 0.18128660E+03</totfact>
</mgrwt>
</event>
<event>
 4    1  0.5131465E-005  0.5584987E+03  0.7818608E-02  0.9995457E-01
          2   -1    0    0  501    0  0.00000000000E+00  0.00000000000E+00  0.19432381241E+04  0.19432381241E+04  0.25500000000E-02 0.  1.
         -2   -1    0    0    0  501 -0.00000000000E+00 -0.00000000000E+00 -0.40128997348E+02  0.40128997429E+02  0.25500000000E-02 0. -1.
    5000001    1    1    2    0    0  0.51121133870E+02 -0.99240289506E+02  0.15232634240E+04  0.15402579213E+04  0.19900000000E+03 0.  0.
   -5000001    1    1    2    0    0 -0.51121133870E+02  0.99240289506E+02  0.37984570280E+03  0.44310920023E+03  0.19900000000E+03 0.  0.
<mgrwt>
<rscale>  0 0.55849869E+03</rscale>
<asrwt>0</asrwt>
<pdfrwt beam="1">  1        2 0.27760553E+00 0.55849869E+03</pdfrwt>
<pdfrwt beam="2">  1       -2 0.57327121E-02 0.55849869E+03</pdfrwt>
<totfact> 0.14701537E+03</totfact>
</mgrwt>
</event>
<event>
 4    1  0.5131465E-005  0.5146664E+03  0.7818608E-02  0.1010020E+00
         -2   -1    0    0    0  501 -0.00000000000E+00  0.00000000000E+00  0.15913577956E+03  0.15913577958E+03  0.25500000000E-02 0. -1.
          2   -1    0    0  501    0  0.00000000000E+00 -0.00000000000E+00 -0.41612498585E+03  0.41612498585E+03  0.25500000000E-02 0.  1.
    5000001    1    1    2    0    0  0.15142547756E+03  0.16535320715E+02 -0.63164130972E+02  0.25844496421E+03  0.19900000000E+03 0.  0.
   -5000001    1    1    2    0    0 -0.15142547756E+03 -0.16535320715E+02 -0.19382507531E+03  0.31681580122E+03  0.19900000000E+03 0.  0.
<mgrwt>
<rscale>  0 0.51466639E+03</rscale>
<asrwt>0</asrwt>
<pdfrwt beam="1">  1        2 0.59446426E-01 0.51466639E+03</pdfrwt>
<pdfrwt beam="2">  1       -2 0.22733683E-01 0.51466639E+03</pdfrwt>
<totfact> 0.14040479E+03</totfact>
</mgrwt>
</event>
<event>
 4    1  0.5131465E-005  0.5323786E+03  0.7818608E-02  0.1005657E+00
         -2   -1    0    0    0  501 -0.00000000000E+00  0.00000000000E+00  0.19432942557E+03  0.19432942559E+03  0.25500000000E-02 0. -1.
          2   -1    0    0  501    0  0.00000000000E+00 -0.00000000000E+00 -0.36462182073E+03  0.36462182074E+03  0.25500000000E-02 0.  1.
    5000001    1    1    2    0    0  0.15023236861E+03  0.63193173039E+02 -0.13224417581E+02  0.25756363664E+03  0.19900000000E+03 0.  0.
   -5000001    1    1    2    0    0 -0.15023236861E+03 -0.63193173039E+02 -0.15706797758E+03  0.30138760969E+03  0.19900000000E+03 0.  0.
<mgrwt>
<rscale>  0 0.53237862E+03</rscale>
<asrwt>0</asrwt>
<pdfrwt beam="1">  1        2 0.52088832E-01 0.53237862E+03</pdfrwt>
<pdfrwt beam="2">  1       -2 0.27761346E-01 0.53237862E+03</pdfrwt>
<totfact> 0.11359044E+03</totfact>
</mgrwt>
</event>
<event>
 4    1  0.5131465E-005  0.7648850E+03  0.7818608E-02  0.9612283E-01
         -2   -1    0    0    0  501 -0.00000000000E+00  0.00000000000E+00  0.36797178576E+03  0.36797178577E+03  0.25500000000E-02 0. -1.
          2   -1    0    0  501    0  0.00000000000E+00 -0.00000000000E+00 -0.39748233485E+03  0.39748233486E+03  0.25500000000E-02 0.  1.
    5000001    1    1    2    0    0  0.22865619745E+03 -0.16750059000E+03  0.14760346582E+03  0.37646764457E+03  0.19900000000E+03 0.  0.
   -5000001    1    1    2    0    0 -0.22865619745E+03  0.16750059000E+03 -0.17711401491E+03  0.38898647606E+03  0.19900000000E+03 0.  0.
<mgrwt>
<rscale>  0 0.76488505E+03</rscale>
<asrwt>0</asrwt>
<pdfrwt beam="1">  1        2 0.56783191E-01 0.76488505E+03</pdfrwt>
<pdfrwt beam="2">  1       -2 0.52567398E-01 0.76488505E+03</pdfrwt>
<totfact> 0.29958640E+02</totfact>
</mgrwt>
</event>
<event>
 4    1  0.5131465E-005  0.5124256E+03  0.7818608E-02  0.1010586E+00
         -2   -1    0    0    0  501 -0.00000000000E+00  0.00000000000E+00  0.19770484262E+02  0.19770484426E+02  0.25500000000E-02 0. -1.
          2   -1    0    0  501    0  0.00000000000E+00 -0.00000000000E+00 -0.33203540297E+04  0.33203540297E+04  0.25500000000E-02 0.  1.
    5000001    1    1    2    0    0 -0.53906290374E+02  0.14388572685E+03 -0.19719412089E+04  0.19879039518E+04  0.19900000000E+03 0.  0.
   -5000001    1    1    2    0    0  0.53906290374E+02 -0.14388572685E+03 -0.13286423366E+04  0.13522205623E+04  0.19900000000E+03 0.  0.
<mgrwt>
<rscale>  0 0.51242563E+03</rscale>
<asrwt>0</asrwt>
<pdfrwt beam="1">  1        2 0.47433594E+00 0.51242563E+03</pdfrwt>
<pdfrwt beam="2">  1       -2 0.28243570E-02 0.51242563E+03</pdfrwt>
<totfact> 0.83053853E+02</totfact>
</mgrwt>
</event>
<event>
 4    1  0.5131465E-005  0.5633258E+03  0.7818608E-02  0.9984557E-01
          2   -1    0    0  501    0  0.00000000000E+00  0.00000000000E+00  0.47925959362E+03  0.47925959363E+03  0.25500000000E-02 0.  1.
         -2   -1    0    0    0  501 -0.00000000000E+00 -0.00000000000E+00 -0.16553449388E+03  0.16553449390E+03  0.25500000000E-02 0. -1.
    5000001    1    1    2    0    0  0.18252715907E+03 -0.10678627991E+02  0.24773412657E+03  0.36661068501E+03  0.19900000000E+03 0.  0.
   -5000001    1    1    2    0    0 -0.18252715907E+03  0.10678627991E+02  0.65990973169E+02  0.27818340251E+03  0.19900000000E+03 0.  0.
<mgrwt>
<rscale>  0 0.56332582E+03</rscale>
<asrwt>0</asrwt>
<pdfrwt beam="1">  1        2 0.68465657E-01 0.56332582E+03</pdfrwt>
<pdfrwt beam="2">  1       -2 0.23647784E-01 0.56332582E+03</pdfrwt>
<totfact> 0.11178972E+03</totfact>
</mgrwt>
</event>
<event>
 4    1  0.5131465E-005  0.4440903E+03  0.7818608E-02  0.1029499E+00
         -2   -1    0    0    0  501 -0.00000000000E+00  0.00000000000E+00  0.18455582024E+02  0.18455582200E+02  0.25500000000E-02 0.  1.
          2   -1    0    0  501    0  0.00000000000E+00 -0.00000000000E+00 -0.26714974491E+04  0.26714974491E+04  0.25500000000E-02 0. -1.
    5000001    1    1    2    0    0  0.58005650388E+02 -0.71066465239E+02 -0.11091398767E+04  0.11305783316E+04  0.19900000000E+03 0.  0.
   -5000001    1    1    2    0    0 -0.58005650388E+02  0.71066465239E+02 -0.15439019904E+04  0.15593746997E+04  0.19900000000E+03 0.  0.
<mgrwt>
<rscale>  0 0.44409026E+03</rscale>
<asrwt>0</asrwt>
<pdfrwt beam="1">  1        2 0.38164225E+00 0.44409026E+03</pdfrwt>
<pdfrwt beam="2">  1       -2 0.26365134E-02 0.44409026E+03</pdfrwt>
<totfact> 0.20806851E+03</totfact>
</mgrwt>
</event>
<event>
 4    1  0.5131465E-005  0.4903171E+03  0.7818608E-02  0.1016338E+00
         -2   -1    0    0    0  501 -0.00000000000E+00  0.00000000000E+00  0.16515860662E+02  0.16515860859E+02  0.25500000000E-02 0.  1.
          2   -1    0    0  501    0  0.00000000000E+00 -0.00000000000E+00 -0.36390906372E+04  0.36390906372E+04  0.25500000000E-02 0. -1.
    5000001    1    1    2    0    0  0.50447739985E+02 -0.12544989792E+03 -0.14600771165E+04  0.14797664807E+04  0.19900000000E+03 0.  0.
   -5000001    1    1    2    0    0 -0.50447739985E+02  0.12544989792E+03 -0.21624976601E+04  0.21758400174E+04  0.19900000000E+03 0.  0.
<mgrwt>
<rscale>  0 0.49031710E+03</rscale>
<asrwt>0</asrwt>
<pdfrwt beam="1">  1        2 0.51986958E+00 0.49031710E+03</pdfrwt>
<pdfrwt beam="2">  1       -2 0.23594110E-02 0.49031710E+03</pdfrwt>
<totfact> 0.70886120E+02</totfact>
</mgrwt>
</event>
<event>
 4    1  0.5131465E-005  0.6877758E+03  0.7818608E-02  0.9738369E-01
          2   -1    0    0  501    0  0.00000000000E+00  0.00000000000E+00  0.28766342424E+04  0.28766342424E+04  0.25500000000E-02 0.  1.
         -2   -1    0    0    0  501 -0.00000000000E+00 -0.00000000000E+00 -0.41110155556E+02  0.41110155635E+02  0.25500000000E-02 0. -1.
    5000001    1    1    2    0    0  0.10985658232E+03  0.25453771761E+03  0.12377787699E+04  0.12839607477E+04  0.19900000000E+03 0.  0.
   -5000001    1    1    2    0    0 -0.10985658232E+03 -0.25453771761E+03  0.15977453169E+04  0.16337836504E+04  0.19900000000E+03 0.  0.
<mgrwt>
<rscale>  0 0.68777578E+03</rscale>
<asrwt>0</asrwt>
<pdfrwt beam="1">  1        2 0.41094778E+00 0.68777578E+03</pdfrwt>
<pdfrwt beam="2">  1       -2 0.58728790E-02 0.68777578E+03</pdfrwt>
<totfact> 0.46560747E+02</totfact>
</mgrwt>
</event>
<event>
 4    1  0.5131465E-005  0.7720396E+03  0.7818608E-02  0.9601394E-01
          2   -1    0    0  501    0  0.00000000000E+00  0.00000000000E+00  0.16296632882E+04  0.16296632882E+04  0.25500000000E-02 0.  1.
         -2   -1    0    0    0  501 -0.00000000000E+00 -0.00000000000E+00 -0.91436863530E+02  0.91436863566E+02  0.25500000000E-02 0. -1.
    5000001    1    1    2    0    0 -0.23984178144E+03 -0.21704260211E+03  0.92322033886E+03  0.99828270813E+03  0.19900000000E+03 0.  0.
   -5000001    1    1    2    0    0  0.23984178144E+03  0.21704260211E+03  0.61500608585E+03  0.72281744368E+03  0.19900000000E+03 0.  0.
<mgrwt>
<rscale>  0 0.77203964E+03</rscale>
<asrwt>0</asrwt>
<pdfrwt beam="1">  1        2 0.23280902E+00 0.77203964E+03</pdfrwt>
<pdfrwt beam="2">  1       -2 0.13062410E-01 0.77203964E+03</pdfrwt>
<totfact> 0.55784998E+02</totfact>
</mgrwt>
</event>
<event>
 4    1  0.5131465E-005  0.4810737E+03  0.7818608E-02  0.1018841E+00
          2   -1    0    0  501    0  0.00000000000E+00  0.00000000000E+00  0.54398562894E+03  0.54398562894E+03  0.25500000000E-02 0.  1.
         -2   -1    0    0    0  501 -0.00000000000E+00 -0.00000000000E+00 -0.10635937140E+03  0.10635937143E+03  0.25500000000E-02 0. -1.
    5000001    1    1    2    0    0 -0.11185541571E+03 -0.72891615520E+02  0.19071040403E+03  0.30626178319E+03  0.19900000000E+03 0.  0.
   -5000001    1    1    2    0    0  0.11185541571E+03  0.72891615520E+02  0.24691585350E+03  0.34408321719E+03  0.19900000000E+03 0.  0.
<mgrwt>
<rscale>  0 0.48107367E+03</rscale>
<asrwt>0</asrwt>
<pdfrwt beam="1">  1        2 0.77712231E-01 0.48107367E+03</pdfrwt>
<pdfrwt beam="2">  1       -2 0.15194196E-01 0.48107367E+03</pdfrwt>
<totfact> 0.20763128E+03</totfact>
</mgrwt>
</event>
<event>
 4    1  0.5131465E-005  0.5501443E+03  0.7818608E-02  0.1001461E+00
         -2   -1    0    0    0  501 -0.00000000000E+00  0.00000000000E+00  0.13657767868E+04  0.13657767868E+04  0.25500000000E-02 0. -1.
          2   -1    0    0  501    0  0.00000000000E+00 -0.00000000000E+00 -0.55400479359E+02  0.55400479418E+02  0.25500000000E-02 0.  1.
    5000001    1    1    2    0    0 -0.85155520258E+02 -0.15038742629E+03  0.85852777599E+03  0.89807504295E+03  0.19900000000E+03 0.  0.
   -5000001    1    1    2    0    0  0.85155520258E+02  0.15038742629E+03  0.45184853144E+03  0.52310222326E+03  0.19900000000E+03 0.  0.
<mgrwt>
<rscale>  0 0.55014430E+03</rscale>
<asrwt>0</asrwt>
<pdfrwt beam="1">  1        2 0.79143537E-02 0.55014430E+03</pdfrwt>
<pdfrwt beam="2">  1       -2 0.19511098E+00 0.55014430E+03</pdfrwt>
<totfact> 0.13209163E+02</totfact>
</mgrwt>
</event>
<event>
 4    1  0.5131465E-005  0.6874931E+03  0.7818608E-02  0.9738863E-01
          2   -1    0    0  501    0  0.00000000000E+00  0.00000000000E+00  0.18398005569E+04  0.18398005569E+04  0.25500000000E-02 0.  1.
         -2   -1    0    0    0  501 -0.00000000000E+00 -0.00000000000E+00 -0.64225265581E+02  0.64225265631E+02  0.25500000000E-02 0. -1.
    5000001    1    1    2    0    0 -0.87462992416E+02  0.26628433744E+03  0.89301024808E+03  0.95688318335E+03  0.19900000000E+03 0.  0.
   -5000001    1    1    2    0    0  0.87462992416E+02 -0.26628433744E+03  0.88256504323E+03  0.94714263918E+03  0.19900000000E+03 0.  0.
<mgrwt>
<rscale>  0 0.68749307E+03</rscale>
<asrwt>0</asrwt>
<pdfrwt beam="1">  1        2 0.26282865E+00 0.68749307E+03</pdfrwt>
<pdfrwt beam="2">  1       -2 0.91750379E-02 0.68749307E+03</pdfrwt>
<totfact> 0.78112102E+02</totfact>
</mgrwt>
</event>
<event>
 4    1  0.5131465E-005  0.6357263E+03  0.7818608E-02  0.9833938E-01
          2   -1    0    0  501    0  0.00000000000E+00  0.00000000000E+00  0.41315266404E+03  0.41315266405E+03  0.25500000000E-02 0.  1.
         -2   -1    0    0    0  501 -0.00000000000E+00 -0.00000000000E+00 -0.24455118969E+03  0.24455118971E+03  0.25500000000E-02 0. -1.
    5000001    1    1    2    0    0 -0.20902788097E+03 -0.78710979205E+02 -0.26875448988E+02  0.30035206513E+03  0.19900000000E+03 0.  0.
   -5000001    1    1    2    0    0  0.20902788097E+03  0.78710979205E+02  0.19547692334E+03  0.35735178862E+03  0.19900000000E+03 0.  0.
<mgrwt>
<rscale>  0 0.63572628E+03</rscale>
<asrwt>0</asrwt>
<pdfrwt beam="1">  1        2 0.59021809E-01 0.63572628E+03</pdfrwt>
<pdfrwt beam="2">  1       -2 0.34935884E-01 0.63572628E+03</pdfrwt>
<totfact> 0.64450510E+02</totfact>
</mgrwt>
</event>
<event>
 4    1  0.5131465E-005  0.5563441E+03  0.7818608E-02  0.1000036E+00
         -2   -1    0    0    0  501 -0.00000000000E+00  0.00000000000E+00  0.77834349835E+02  0.77834349877E+02  0.25500000000E-02 0. -1.
          2   -1    0    0  501    0  0.00000000000E+00 -0.00000000000E+00 -0.99415857768E+03  0.99415857769E+03  0.25500000000E-02 0.  1.
    5000001    1    1    2    0    0  0.11726465960E+03 -0.13195387703E+03 -0.61488831649E+03  0.66996378097E+03  0.19900000000E+03 0.  0.
   -5000001    1    1    2    0    0 -0.11726465960E+03  0.13195387703E+03 -0.30143591136E+03  0.40202914659E+03  0.19900000000E+03 0.  0.
<mgrwt>
<rscale>  0 0.55634409E+03</rscale>
<asrwt>0</asrwt>
<pdfrwt beam="1">  1        2 0.14202265E+00 0.55634409E+03</pdfrwt>
<pdfrwt beam="2">  1       -2 0.11119193E-01 0.55634409E+03</pdfrwt>
<totfact> 0.16406375E+03</totfact>
</mgrwt>
</event>
<event>
 4    1  0.5131465E-005  0.8651547E+03  0.7818608E-02  0.9470220E-01
         -2   -1    0    0    0  501 -0.00000000000E+00  0.00000000000E+00  0.12697378439E+03  0.12697378442E+03  0.25500000000E-02 0. -1.
          2   -1    0    0  501    0  0.00000000000E+00 -0.00000000000E+00 -0.14737149973E+04  0.14737149973E+04  0.25500000000E-02 0.  1.
    5000001    1    1    2    0    0  0.10382243410E+03  0.35622783005E+03 -0.48979427150E+03  0.64589224575E+03  0.19900000000E+03 0.  0.
   -5000001    1    1    2    0    0 -0.10382243410E+03 -0.35622783005E+03 -0.85694694138E+03  0.95479653595E+03  0.19900000000E+03 0.  0.
<mgrwt>
<rscale>  0 0.86515472E+03</rscale>
<asrwt>0</asrwt>
<pdfrwt beam="1">  1        2 0.21053070E+00 0.86515472E+03</pdfrwt>
<pdfrwt beam="2">  1       -2 0.18139113E-01 0.86515472E+03</pdfrwt>
<totfact> 0.38347826E+02</totfact>
</mgrwt>
</event>
<event>
 4    1  0.5131465E-005  0.4186965E+03  0.7818608E-02  0.1037491E+00
         -2   -1    0    0    0  501 -0.00000000000E+00  0.00000000000E+00  0.68026186345E+02  0.68026186393E+02  0.25500000000E-02 0. -1.
          2   -1    0    0  501    0  0.00000000000E+00 -0.00000000000E+00 -0.64426201270E+03  0.64426201270E+03  0.25500000000E-02 0.  1.
    5000001    1    1    2    0    0  0.56868099663E+02 -0.30959658553E+02 -0.27831470568E+03  0.34821337800E+03  0.19900000000E+03 0.  0.
   -5000001    1    1    2    0    0 -0.56868099663E+02  0.30959658553E+02 -0.29792112067E+03  0.36407482110E+03  0.19900000000E+03 0.  0.
<mgrwt>
<rscale>  0 0.41869649E+03</rscale>
<asrwt>0</asrwt>
<pdfrwt beam="1">  1        2 0.92037427E-01 0.41869649E+03</pdfrwt>
<pdfrwt beam="2">  1       -2 0.97180270E-02 0.41869649E+03</pdfrwt>
<totfact> 0.35424192E+03</totfact>
</mgrwt>
</event>
<event>
 4    1  0.5131465E-005  0.6567065E+03  0.7818608E-02  0.9794276E-01
         -2   -1    0    0    0  501 -0.00000000000E+00  0.00000000000E+00  0.15350104689E+03  0.15350104691E+03  0.25500000000E-02 0. -1.
          2   -1    0    0  501    0  0.00000000000E+00 -0.00000000000E+00 -0.70237861763E+03  0.70237861764E+03  0.25500000000E-02 0.  1.
    5000001    1    1    2    0    0  0.49238653563E+02 -0.24077905614E+03 -0.38965925109E+03  0.50183097836E+03  0.19900000000E+03 0.  0.
   -5000001    1    1    2    0    0 -0.49238653563E+02  0.24077905614E+03 -0.15921831966E+03  0.35404868619E+03  0.19900000000E+03 0.  0.
<mgrwt>
<rscale>  0 0.65670649E+03</rscale>
<asrwt>0</asrwt>
<pdfrwt beam="1">  1        2 0.10033980E+00 0.65670649E+03</pdfrwt>
<pdfrwt beam="2">  1       -2 0.21928721E-01 0.65670649E+03</pdfrwt>
<totfact> 0.81532850E+02</totfact>
</mgrwt>
</event>
<event>
 4    1  0.5131465E-005  0.5728466E+03  0.7818608E-02  0.9963399E-01
         -2   -1    0    0    0  501 -0.00000000000E+00  0.00000000000E+00  0.70589857372E+02  0.70589857418E+02  0.25500000000E-02 0. -1.
          2   -1    0    0  501    0  0.00000000000E+00 -0.00000000000E+00 -0.11621825521E+04  0.11621825521E+04  0.25500000000E-02 0.  1.
    5000001    1    1    2    0    0 -0.60534311812E+02  0.17489460519E+03 -0.35110441777E+03  0.44399080848E+03  0.19900000000E+03 0.  0.
   -5000001    1    1    2    0    0  0.60534311812E+02 -0.17489460519E+03 -0.74048827692E+03  0.78878160100E+03  0.19900000000E+03 0.  0.
<mgrwt>
<rscale>  0 0.57284658E+03</rscale>
<asrwt>0</asrwt>
<pdfrwt beam="1">  1        2 0.16602607E+00 0.57284658E+03</pdfrwt>
<pdfrwt beam="2">  1       -2 0.10084266E-01 0.57284658E+03</pdfrwt>
<totfact> 0.15322045E+03</totfact>
</mgrwt>
</event>
<event>
 4    1  0.5131465E-005  0.4493048E+03  0.7818608E-02  0.1027930E+00
          2   -1    0    0  501    0  0.00000000000E+00  0.00000000000E+00  0.12603010362E+04  0.12603010362E+04  0.25500000000E-02 0.  1.
         -2   -1    0    0    0  501 -0.00000000000E+00 -0.00000000000E+00 -0.40044957221E+02  0.40044957302E+02  0.25500000000E-02 0. -1.
    5000001    1    1    2    0    0  0.53983886030E+02 -0.84231688365E+02  0.52533135483E+03  0.57059904456E+03  0.19900000000E+03 0.  0.
   -5000001    1    1    2    0    0 -0.53983886030E+02  0.84231688365E+02  0.69492472417E+03  0.72974694898E+03  0.19900000000E+03 0.  0.
<mgrwt>
<rscale>  0 0.44930480E+03</rscale>
<asrwt>0</asrwt>
<pdfrwt beam="1">  1        2 0.18004298E+00 0.44930480E+03</pdfrwt>
<pdfrwt beam="2">  1       -2 0.57207090E-02 0.44930480E+03</pdfrwt>
<totfact> 0.33210638E+03</totfact>
</mgrwt>
</event>
<event>
 4    1  0.5131465E-005  0.6148997E+03  0.7818608E-02  0.9874967E-01
          2   -1    0    0  501    0  0.00000000000E+00  0.00000000000E+00  0.13414767685E+04  0.13414767685E+04  0.25500000000E-02 0.  1.
         -2   -1    0    0    0  501 -0.00000000000E+00 -0.00000000000E+00 -0.70463693298E+02  0.70463693345E+02  0.25500000000E-02 0. -1.
    5000001    1    1    2    0    0  0.21451006660E+03 -0.94373909067E+02  0.63974317903E+03  0.70978400834E+03  0.19900000000E+03 0.  0.
   -5000001    1    1    2    0    0 -0.21451006660E+03  0.94373909067E+02  0.63126989617E+03  0.70215645350E+03  0.19900000000E+03 0.  0.
<mgrwt>
<rscale>  0 0.61489969E+03</rscale>
<asrwt>0</asrwt>
<pdfrwt beam="1">  1        2 0.19163951E+00 0.61489969E+03</pdfrwt>
<pdfrwt beam="2">  1       -2 0.10066243E-01 0.61489969E+03</pdfrwt>
<totfact> 0.12222780E+03</totfact>
</mgrwt>
</event>
<event>
 4    1  0.5131465E-005  0.6411687E+03  0.7818608E-02  0.9823493E-01
          2   -1    0    0  501    0  0.00000000000E+00  0.00000000000E+00  0.57756995914E+03  0.57756995914E+03  0.25500000000E-02 0.  1.
         -2   -1    0    0    0  501 -0.00000000000E+00 -0.00000000000E+00 -0.17794265614E+03  0.17794265616E+03  0.25500000000E-02 0. -1.
    5000001    1    1    2    0    0  0.22634349668E+03  0.10908930224E+03  0.19222473374E+03  0.37374216060E+03  0.19900000000E+03 0.  0.
   -5000001    1    1    2    0    0 -0.22634349668E+03 -0.10908930224E+03  0.20740256925E+03  0.38177045470E+03  0.19900000000E+03 0.  0.
<mgrwt>
<rscale>  0 0.64116872E+03</rscale>
<asrwt>0</asrwt>
<pdfrwt beam="1">  1        2 0.82509994E-01 0.64116872E+03</pdfrwt>
<pdfrwt beam="2">  1       -2 0.25420379E-01 0.64116872E+03</pdfrwt>
<totfact> 0.79200919E+02</totfact>
</mgrwt>
</event>
<event>
 4    1  0.5131465E-005  0.5503763E+03  0.7818608E-02  0.1001407E+00
         -2   -1    0    0    0  501 -0.00000000000E+00  0.00000000000E+00  0.37982684423E+02  0.37982684508E+02  0.25500000000E-02 0. -1.
          2   -1    0    0  501    0  0.00000000000E+00 -0.00000000000E+00 -0.19937645500E+04  0.19937645500E+04  0.25500000000E-02 0.  1.
    5000001    1    1    2    0    0 -0.10355655016E+02 -0.18236806041E+03 -0.78387563873E+03  0.82911239651E+03  0.19900000000E+03 0.  0.
   -5000001    1    1    2    0    0  0.10355655016E+02  0.18236806041E+03 -0.11719062268E+04  0.12026348380E+04  0.19900000000E+03 0.  0.
<mgrwt>
<rscale>  0 0.55037634E+03</rscale>
<asrwt>0</asrwt>
<pdfrwt beam="1">  1        2 0.28482344E+00 0.55037634E+03</pdfrwt>
<pdfrwt beam="2">  1       -2 0.54260991E-02 0.55037634E+03</pdfrwt>
<totfact> 0.15114567E+03</totfact>
</mgrwt>
</event>
<event>
 4    1  0.5131465E-005  0.5068151E+03  0.7818608E-02  0.1012015E+00
         -2   -1    0    0    0  501 -0.00000000000E+00  0.00000000000E+00  0.22901018624E+02  0.22901018766E+02  0.25500000000E-02 0. -1.
          2   -1    0    0  501    0  0.00000000000E+00 -0.00000000000E+00 -0.28040402006E+04  0.28040402006E+04  0.25500000000E-02 0.  1.
    5000001    1    1    2    0    0  0.96712031593E+02  0.26152681825E+02 -0.71712126273E+03  0.75093347594E+03  0.19900000000E+03 0.  0.
   -5000001    1    1    2    0    0 -0.96712031593E+02 -0.26152681825E+02 -0.20640179192E+04  0.20760077434E+04  0.19900000000E+03 0.  0.
<mgrwt>
<rscale>  0 0.50681506E+03</rscale>
<asrwt>0</asrwt>
<pdfrwt beam="1">  1        2 0.40057695E+00 0.50681506E+03</pdfrwt>
<pdfrwt beam="2">  1       -2 0.32715759E-02 0.50681506E+03</pdfrwt>
<totfact> 0.12747013E+03</totfact>
</mgrwt>
</event>
<event>
 4    1  0.5131465E-005  0.7854967E+03  0.7818608E-02  0.9581251E-01
          2   -1    0    0  501    0  0.00000000000E+00  0.00000000000E+00  0.12196068062E+04  0.12196068062E+04  0.25500000000E-02 0.  1.
         -2   -1    0    0    0  501 -0.00000000000E+00 -0.00000000000E+00 -0.12647623367E+03  0.12647623369E+03  0.25500000000E-02 0. -1.
    5000001    1    1    2    0    0 -0.33827802988E+03 -0.11272568995E+02  0.56292874671E+03  0.68633000094E+03  0.19900000000E+03 0.  0.
   -5000001    1    1    2    0    0  0.33827802988E+03  0.11272568995E+02  0.53020182581E+03  0.65975303895E+03  0.19900000000E+03 0.  0.
<mgrwt>
<rscale>  0 0.78549672E+03</rscale>
<asrwt>0</asrwt>
<pdfrwt beam="1">  1        2 0.17422955E+00 0.78549672E+03</pdfrwt>
<pdfrwt beam="2">  1       -2 0.18068033E-01 0.78549672E+03</pdfrwt>
<totfact> 0.53291587E+02</totfact>
</mgrwt>
</event>
<event>
 4    1  0.5131465E-005  0.1205347E+04  0.7818608E-02  0.9108189E-01
          2   -1    0    0  501    0  0.00000000000E+00  0.00000000000E+00  0.54852673482E+03  0.54852673482E+03  0.25500000000E-02 0.  1.
         -2   -1    0    0    0  501 -0.00000000000E+00 -0.00000000000E+00 -0.66216549585E+03  0.66216549586E+03  0.25500000000E-02 0. -1.
    5000001    1    1    2    0    0  0.31403111081E+02  0.39054674712E+03  0.35744322772E+03  0.56646233600E+03  0.19900000000E+03 0.  0.
   -5000001    1    1    2    0    0 -0.31403111081E+02 -0.39054674712E+03 -0.47108198875E+03  0.64422989468E+03  0.19900000000E+03 0.  0.
<mgrwt>
<rscale>  0 0.12053472E+04</rscale>
<asrwt>0</asrwt>
<pdfrwt beam="1">  1        2 0.78360963E-01 0.12053472E+04</pdfrwt>
<pdfrwt beam="2">  1       -2 0.94595070E-01 0.12053472E+04</pdfrwt>
<totfact> 0.56077108E+01</totfact>
</mgrwt>
</event>
<event>
 4    1  0.5131465E-005  0.9413359E+03  0.7818608E-02  0.9375335E-01
          2   -1    0    0  501    0  0.00000000000E+00  0.00000000000E+00  0.50705300642E+03  0.50705300643E+03  0.25500000000E-02 0.  1.
         -2   -1    0    0    0  501 -0.00000000000E+00 -0.00000000000E+00 -0.43689378538E+03  0.43689378539E+03  0.25500000000E-02 0. -1.
    5000001    1    1    2    0    0 -0.41259979621E+03 -0.22089203507E+02  0.14120690406E+03  0.47986134924E+03  0.19900000000E+03 0.  0.
   -5000001    1    1    2    0    0  0.41259979621E+03  0.22089203507E+02 -0.71047683025E+02  0.46408544257E+03  0.19900000000E+03 0.  0.
<mgrwt>
<rscale>  0 0.94133587E+03</rscale>
<asrwt>0</asrwt>
<pdfrwt beam="1">  1        2 0.72436144E-01 0.94133587E+03</pdfrwt>
<pdfrwt beam="2">  1       -2 0.62413398E-01 0.94133587E+03</pdfrwt>
<totfact> 0.15765104E+02</totfact>
</mgrwt>
</event>
<event>
 4    1  0.5131465E-005  0.6406242E+03  0.7818608E-02  0.9824533E-01
          2   -1    0    0  501    0  0.00000000000E+00  0.00000000000E+00  0.21193884025E+03  0.21193884026E+03  0.25500000000E-02 0.  1.
         -2   -1    0    0    0  501 -0.00000000000E+00 -0.00000000000E+00 -0.48410113322E+03  0.48410113322E+03  0.25500000000E-02 0. -1.
    5000001    1    1    2    0    0 -0.21098660734E+03  0.12713605405E+03 -0.83749277722E+02  0.32755742433E+03  0.19900000000E+03 0.  0.
   -5000001    1    1    2    0    0  0.21098660734E+03 -0.12713605405E+03 -0.18841301525E+03  0.36848254915E+03  0.19900000000E+03 0.  0.
<mgrwt>
<rscale>  0 0.64062417E+03</rscale>
<asrwt>0</asrwt>
<pdfrwt beam="1">  1        2 0.30276977E-01 0.64062417E+03</pdfrwt>
<pdfrwt beam="2">  1       -2 0.69157304E-01 0.64062417E+03</pdfrwt>
<totfact> 0.33939906E+02</totfact>
</mgrwt>
</event>
<event>
 4    1  0.5131465E-005  0.4631732E+03  0.7818608E-02  0.1023865E+00
          2   -1    0    0  501    0  0.00000000000E+00  0.00000000000E+00  0.21919382498E+03  0.21919382499E+03  0.25500000000E-02 0. -1.
         -2   -1    0    0    0  501 -0.00000000000E+00 -0.00000000000E+00 -0.24468005383E+03  0.24468005385E+03  0.25500000000E-02 0.  1.
    5000001    1    1    2    0    0 -0.30236521019E+02  0.56657216179E+02  0.86941718811E+02  0.22646004022E+03  0.19900000000E+03 0.  0.
   -5000001    1    1    2    0    0  0.30236521019E+02 -0.56657216179E+02 -0.11242794767E+03  0.23741383861E+03  0.19900000000E+03 0.  0.
<mgrwt>
<rscale>  0 0.46317322E+03</rscale>
<asrwt>0</asrwt>
<pdfrwt beam="1">  1        2 0.31313404E-01 0.46317322E+03</pdfrwt>
<pdfrwt beam="2">  1       -2 0.34954293E-01 0.46317322E+03</pdfrwt>
<totfact> 0.12986271E+03</totfact>
</mgrwt>
</event>
<event>
 4    1  0.5131465E-005  0.5916335E+03  0.7818608E-02  0.9922917E-01
         -2   -1    0    0    0  501 -0.00000000000E+00  0.00000000000E+00  0.23371308086E+03  0.23371308087E+03  0.25500000000E-02 0. -1.
          2   -1    0    0  501    0  0.00000000000E+00 -0.00000000000E+00 -0.37442300855E+03  0.37442300856E+03  0.25500000000E-02 0.  1.
    5000001    1    1    2    0    0  0.17431431974E+03 -0.21916649564E+02 -0.20453631059E+03  0.33511479219E+03  0.19900000000E+03 0.  0.
   -5000001    1    1    2    0    0 -0.17431431974E+03  0.21916649564E+02  0.63826382903E+02  0.27302129724E+03  0.19900000000E+03 0.  0.
<mgrwt>
<rscale>  0 0.59163352E+03</rscale>
<asrwt>0</asrwt>
<pdfrwt beam="1">  1        2 0.53489001E-01 0.59163352E+03</pdfrwt>
<pdfrwt beam="2">  1       -2 0.33387583E-01 0.59163352E+03</pdfrwt>
<totfact> 0.78382975E+02</totfact>
</mgrwt>
</event>
<event>
 4    1  0.5131465E-005  0.4217364E+03  0.7818608E-02  0.1036503E+00
         -2   -1    0    0    0  501 -0.00000000000E+00  0.00000000000E+00  0.46902255922E+03  0.46902255923E+03  0.25500000000E-02 0. -1.
          2   -1    0    0  501    0  0.00000000000E+00 -0.00000000000E+00 -0.94804379623E+02  0.94804379658E+02  0.25500000000E-02 0.  1.
    5000001    1    1    2    0    0  0.35340418568E+02  0.59697149844E+02  0.19672169582E+03  0.28829346245E+03  0.19900000000E+03 0.  0.
   -5000001    1    1    2    0    0 -0.35340418568E+02 -0.59697149844E+02  0.17749648377E+03  0.27553347643E+03  0.19900000000E+03 0.  0.
<mgrwt>
<rscale>  0 0.42173638E+03</rscale>
<asrwt>0</asrwt>
<pdfrwt beam="1">  1        2 0.13543483E-01 0.42173638E+03</pdfrwt>
<pdfrwt beam="2">  1       -2 0.67003223E-01 0.42173638E+03</pdfrwt>
<totfact> 0.93081147E+02</totfact>
</mgrwt>
</event>
<event>
 4    1  0.5131465E-005  0.7375751E+03  0.7818608E-02  0.9655047E-01
         -2   -1    0    0    0  501 -0.00000000000E+00  0.00000000000E+00  0.14346866642E+03  0.14346866644E+03  0.25500000000E-02 0. -1.
          2   -1    0    0  501    0  0.00000000000E+00 -0.00000000000E+00 -0.94797190771E+03  0.94797190772E+03  0.25500000000E-02 0.  1.
    5000001    1    1    2    0    0 -0.44745231166E+02 -0.24771847650E+03 -0.67121433121E+03  0.74397329100E+03  0.19900000000E+03 0.  0.
   -5000001    1    1    2    0    0  0.44745231166E+02  0.24771847650E+03 -0.13328891009E+03  0.34746728315E+03  0.19900000000E+03 0.  0.
<mgrwt>
<rscale>  0 0.73757512E+03</rscale>
<asrwt>0</asrwt>
<pdfrwt beam="1">  1        2 0.13542455E+00 0.73757512E+03</pdfrwt>
<pdfrwt beam="2">  1       -2 0.20495524E-01 0.73757512E+03</pdfrwt>
<totfact> 0.62107390E+02</totfact>
</mgrwt>
</event>
<event>
 4    1  0.5131465E-005  0.6208037E+03  0.7818608E-02  0.9863161E-01
          2   -1    0    0  501    0  0.00000000000E+00  0.00000000000E+00  0.94700139037E+03  0.94700139037E+03  0.25500000000E-02 0.  1.
         -2   -1    0    0    0  501 -0.00000000000E+00 -0.00000000000E+00 -0.10174146780E+03  0.10174146783E+03  0.25500000000E-02 0. -1.
    5000001    1    1    2    0    0 -0.11317105433E+03  0.20826736974E+03  0.46279650277E+03  0.55674463429E+03  0.19900000000E+03 0.  0.
   -5000001    1    1    2    0    0  0.11317105433E+03 -0.20826736974E+03  0.38246341980E+03  0.49199822391E+03  0.19900000000E+03 0.  0.
<mgrwt>
<rscale>  0 0.62080371E+03</rscale>
<asrwt>0</asrwt>
<pdfrwt beam="1">  1        2 0.13528591E+00 0.62080371E+03</pdfrwt>
<pdfrwt beam="2">  1       -2 0.14534496E-01 0.62080371E+03</pdfrwt>
<totfact> 0.11250310E+03</totfact>
</mgrwt>
</event>
<event>
 4    1  0.5131465E-005  0.1084293E+04  0.7818608E-02  0.9220638E-01
          2   -1    0    0  501    0  0.00000000000E+00  0.00000000000E+00  0.18430713062E+04  0.18430713062E+04  0.25500000000E-02 0.  1.
         -2   -1    0    0    0  501 -0.00000000000E+00 -0.00000000000E+00 -0.15947448954E+03  0.15947448956E+03  0.25500000000E-02 0. -1.
    5000001    1    1    2    0    0 -0.45643182453E+03 -0.12762120690E+03  0.52348995775E+03  0.73366199217E+03  0.19900000000E+03 0.  0.
   -5000001    1    1    2    0    0  0.45643182453E+03  0.12762120690E+03  0.11601068589E+04  0.12688838036E+04  0.19900000000E+03 0.  0.
<mgrwt>
<rscale>  0 0.10842931E+04</rscale>
<asrwt>0</asrwt>
<pdfrwt beam="1">  1        2 0.26329590E+00 0.10842931E+04</pdfrwt>
<pdfrwt beam="2">  1       -2 0.22782070E-01 0.10842931E+04</pdfrwt>
<totfact> 0.16291466E+02</totfact>
</mgrwt>
</event>
<event>
 4    1  0.5131465E-005  0.5547408E+03  0.7818608E-02  0.1000403E+00
         -2   -1    0    0    0  501 -0.00000000000E+00  0.00000000000E+00  0.31088805739E+02  0.31088805843E+02  0.25500000000E-02 0. -1.
          2   -1    0    0  501    0  0.00000000000E+00 -0.00000000000E+00 -0.24746639858E+04  0.24746639858E+04  0.25500000000E-02 0.  1.
    5000001    1    1    2    0    0 -0.17468181181E+03  0.81033290353E+02 -0.12936655649E+04  0.13229707946E+04  0.19900000000E+03 0.  0.
   -5000001    1    1    2    0    0  0.17468181181E+03 -0.81033290353E+02 -0.11499096152E+04  0.11827819971E+04  0.19900000000E+03 0.  0.
<mgrwt>
<rscale>  0 0.55474083E+03</rscale>
<asrwt>0</asrwt>
<pdfrwt beam="1">  1        2 0.35352330E+00 0.55474083E+03</pdfrwt>
<pdfrwt beam="2">  1       -2 0.44412595E-02 0.55474083E+03</pdfrwt>
<totfact> 0.11790497E+03</totfact>
</mgrwt>
</event>
<event>
 4    1  0.5131465E-005  0.6476240E+03  0.7818608E-02  0.9811248E-01
         -2   -1    0    0    0  501 -0.00000000000E+00  0.00000000000E+00  0.70717061974E+02  0.70717062020E+02  0.25500000000E-02 0. -1.
          2   -1    0    0  501    0  0.00000000000E+00 -0.00000000000E+00 -0.14827287276E+04  0.14827287276E+04  0.25500000000E-02 0.  1.
    5000001    1    1    2    0    0 -0.57936345182E+01  0.23958810795E+03 -0.91808525522E+03  0.96949345718E+03  0.19900000000E+03 0.  0.
   -5000001    1    1    2    0    0  0.57936345182E+01 -0.23958810795E+03 -0.49392641045E+03  0.58395233248E+03  0.19900000000E+03 0.  0.
<mgrwt>
<rscale>  0 0.64762402E+03</rscale>
<asrwt>0</asrwt>
<pdfrwt beam="1">  1        2 0.21181837E+00 0.64762402E+03</pdfrwt>
<pdfrwt beam="2">  1       -2 0.10102438E-01 0.64762402E+03</pdfrwt>
<totfact> 0.10212255E+03</totfact>
</mgrwt>
</event>
<event>
 4    1  0.5131465E-005  0.4415850E+03  0.7818608E-02  0.1030262E+00
         -2   -1    0    0    0  501 -0.00000000000E+00  0.00000000000E+00  0.39922382515E+02  0.39922382596E+02  0.25500000000E-02 0. -1.
          2   -1    0    0  501    0  0.00000000000E+00 -0.00000000000E+00 -0.12211027103E+04  0.12211027103E+04  0.25500000000E-02 0.  1.
    5000001    1    1    2    0    0  0.62366772983E+02 -0.47575607924E+02 -0.43430135421E+03  0.48411952977E+03  0.19900000000E+03 0.  0.
   -5000001    1    1    2    0    0 -0.62366772983E+02  0.47575607924E+02 -0.74687897355E+03  0.77690556310E+03  0.19900000000E+03 0.  0.
<mgrwt>
<rscale>  0 0.44158501E+03</rscale>
<asrwt>0</asrwt>
<pdfrwt beam="1">  1        2 0.17444322E+00 0.44158501E+03</pdfrwt>
<pdfrwt beam="2">  1       -2 0.57031983E-02 0.44158501E+03</pdfrwt>
<totfact> 0.35055939E+03</totfact>
</mgrwt>
</event>
<event>
 4    1  0.5131465E-005  0.4958022E+03  0.7818608E-02  0.1014880E+00
         -2   -1    0    0    0  501 -0.00000000000E+00  0.00000000000E+00  0.45888333500E+02  0.45888333571E+02  0.25500000000E-02 0. -1.
          2   -1    0    0  501    0  0.00000000000E+00 -0.00000000000E+00 -0.13392281461E+04  0.13392281461E+04  0.25500000000E-02 0.  1.
    5000001    1    1    2    0    0  0.13189851212E+02 -0.14442416612E+03 -0.72674871088E+03  0.76733108936E+03  0.19900000000E+03 0.  0.
   -5000001    1    1    2    0    0 -0.13189851212E+02  0.14442416612E+03 -0.56659110172E+03  0.61778539031E+03  0.19900000000E+03 0.  0.
<mgrwt>
<rscale>  0 0.49580217E+03</rscale>
<asrwt>0</asrwt>
<pdfrwt beam="1">  1        2 0.19131828E+00 0.49580217E+03</pdfrwt>
<pdfrwt beam="2">  1       -2 0.65554770E-02 0.49580217E+03</pdfrwt>
<totfact> 0.24344980E+03</totfact>
</mgrwt>
</event>
<event>
 4    1  0.5131465E-005  0.5309865E+03  0.7818608E-02  0.1005993E+00
         -2   -1    0    0    0  501 -0.00000000000E+00  0.00000000000E+00  0.74911523798E+02  0.74911523842E+02  0.25500000000E-02 0. -1.
          2   -1    0    0  501    0  0.00000000000E+00 -0.00000000000E+00 -0.94093234521E+03  0.94093234521E+03  0.25500000000E-02 0.  1.
    5000001    1    1    2    0    0  0.14335531063E+03  0.69765977928E+01 -0.62704187253E+03  0.67333641511E+03  0.19900000000E+03 0.  0.
   -5000001    1    1    2    0    0 -0.14335531063E+03 -0.69765977928E+01 -0.23897894888E+03  0.34250745395E+03  0.19900000000E+03 0.  0.
<mgrwt>
<rscale>  0 0.53098654E+03</rscale>
<asrwt>0</asrwt>
<pdfrwt beam="1">  1        2 0.13441890E+00 0.53098654E+03</pdfrwt>
<pdfrwt beam="2">  1       -2 0.10701647E-01 0.53098654E+03</pdfrwt>
<totfact> 0.18840598E+03</totfact>
</mgrwt>
</event>
<event>
 4    1  0.5131465E-005  0.8179762E+03  0.7818608E-02  0.9534356E-01
          2   -1    0    0  501    0  0.00000000000E+00  0.00000000000E+00  0.26846883618E+04  0.26846883618E+04  0.25500000000E-02 0.  1.
         -2   -1    0    0    0  501 -0.00000000000E+00 -0.00000000000E+00 -0.62305658222E+02  0.62305658274E+02  0.25500000000E-02 0. -1.
    5000001    1    1    2    0    0  0.11111834728E+03  0.32026678290E+03  0.16904270287E+04  0.17355294981E+04  0.19900000000E+03 0.  0.
   -5000001    1    1    2    0    0 -0.11111834728E+03 -0.32026678290E+03  0.93195567488E+03  0.10114645220E+04  0.19900000000E+03 0.  0.
<mgrwt>
<rscale>  0 0.81797622E+03</rscale>
<asrwt>0</asrwt>
<pdfrwt beam="1">  1        2 0.38352687E+00 0.81797622E+03</pdfrwt>
<pdfrwt beam="2">  1       -2 0.89008093E-02 0.81797622E+03</pdfrwt>
<totfact> 0.30050326E+02</totfact>
</mgrwt>
</event>
<event>
 4    1  0.5131465E-005  0.8671724E+03  0.7818608E-02  0.9467574E-01
         -2   -1    0    0    0  501 -0.00000000000E+00  0.00000000000E+00  0.99770060528E+02  0.99770060561E+02  0.25500000000E-02 0. -1.
          2   -1    0    0  501    0  0.00000000000E+00 -0.00000000000E+00 -0.18843029008E+04  0.18843029008E+04  0.25500000000E-02 0.  1.
    5000001    1    1    2    0    0 -0.14149966663E+03 -0.35743621655E+03 -0.83560900459E+03  0.94107715577E+03  0.19900000000E+03 0.  0.
   -5000001    1    1    2    0    0  0.14149966663E+03  0.35743621655E+03 -0.94892383570E+03  0.10429958056E+04  0.19900000000E+03 0.  0.
<mgrwt>
<rscale>  0 0.86717245E+03</rscale>
<asrwt>0</asrwt>
<pdfrwt beam="1">  1        2 0.26918611E+00 0.86717245E+03</pdfrwt>
<pdfrwt beam="2">  1       -2 0.14252867E-01 0.86717245E+03</pdfrwt>
<totfact> 0.35495503E+02</totfact>
</mgrwt>
</event>
<event>
 4    1  0.5131465E-005  0.5463788E+03  0.7818608E-02  0.1002336E+00
         -2   -1    0    0    0  501 -0.00000000000E+00  0.00000000000E+00  0.69717211979E+02  0.69717212026E+02  0.25500000000E-02 0. -1.
          2   -1    0    0  501    0  0.00000000000E+00 -0.00000000000E+00 -0.10705023249E+04  0.10705023249E+04  0.25500000000E-02 0.  1.
    5000001    1    1    2    0    0  0.77039745302E+02 -0.15703375106E+03 -0.63939597934E+03  0.69211483132E+03  0.19900000000E+03 0.  0.
   -5000001    1    1    2    0    0 -0.77039745302E+02  0.15703375106E+03 -0.36138913360E+03  0.44810470564E+03  0.19900000000E+03 0.  0.
<mgrwt>
<rscale>  0 0.54637876E+03</rscale>
<asrwt>0</asrwt>
<pdfrwt beam="1">  1        2 0.15292889E+00 0.54637876E+03</pdfrwt>
<pdfrwt beam="2">  1       -2 0.99596024E-02 0.54637876E+03</pdfrwt>
<totfact> 0.17665529E+03</totfact>
</mgrwt>
</event>
<event>
 4    1  0.5131465E-005  0.6624253E+03  0.7818608E-02  0.9783739E-01
          2   -1    0    0  501    0  0.00000000000E+00  0.00000000000E+00  0.82297894018E+03  0.82297894019E+03  0.25500000000E-02 0.  1.
         -2   -1    0    0    0  501 -0.00000000000E+00 -0.00000000000E+00 -0.13329845586E+03  0.13329845588E+03  0.25500000000E-02 0. -1.
    5000001    1    1    2    0    0  0.40315930870E+02 -0.17404090561E+03  0.62693471101E+03  0.68158913062E+03  0.19900000000E+03 0.  0.
   -5000001    1    1    2    0    0 -0.40315930870E+02  0.17404090561E+03  0.62745773319E+02  0.27468826545E+03  0.19900000000E+03 0.  0.
<mgrwt>
<rscale>  0 0.66242531E+03</rscale>
<asrwt>0</asrwt>
<pdfrwt beam="1">  1        2 0.11756842E+00 0.66242531E+03</pdfrwt>
<pdfrwt beam="2">  1       -2 0.19042636E-01 0.66242531E+03</pdfrwt>
<totfact> 0.85464967E+02</totfact>
</mgrwt>
</event>
<event>
 4    1  0.5131465E-005  0.6011123E+03  0.7818608E-02  0.9903101E-01
         -2   -1    0    0    0  501 -0.00000000000E+00  0.00000000000E+00  0.37982372146E+03  0.37982372146E+03  0.25500000000E-02 0. -1.
          2   -1    0    0  501    0  0.00000000000E+00 -0.00000000000E+00 -0.23783138570E+03  0.23783138571E+03  0.25500000000E-02 0.  1.
    5000001    1    1    2    0    0 -0.68247551868E+00  0.16957157281E+03 -0.81333563870E+02  0.27380856943E+03  0.19900000000E+03 0.  0.
   -5000001    1    1    2    0    0  0.68247551868E+00 -0.16957157281E+03  0.22332589963E+03  0.34384653775E+03  0.19900000000E+03 0.  0.
<mgrwt>
<rscale>  0 0.60111231E+03</rscale>
<asrwt>0</asrwt>
<pdfrwt beam="1">  1        2 0.33975913E-01 0.60111231E+03</pdfrwt>
<pdfrwt beam="2">  1       -2 0.54260531E-01 0.60111231E+03</pdfrwt>
<totfact> 0.49853363E+02</totfact>
</mgrwt>
</event>
<event>
 4    1  0.5131465E-005  0.5297381E+03  0.7818608E-02  0.1006296E+00
          2   -1    0    0  501    0  0.00000000000E+00  0.00000000000E+00  0.86666176773E+03  0.86666176774E+03  0.25500000000E-02 0.  1.
         -2   -1    0    0    0  501 -0.00000000000E+00 -0.00000000000E+00 -0.80949243852E+02  0.80949243893E+02  0.25500000000E-02 0. -1.
    5000001    1    1    2    0    0 -0.11617640161E+03  0.12113800239E+03  0.30552835768E+03  0.40139749534E+03  0.19900000000E+03 0.  0.
   -5000001    1    1    2    0    0  0.11617640161E+03 -0.12113800239E+03  0.48018416620E+03  0.54621351629E+03  0.19900000000E+03 0.  0.
<mgrwt>
<rscale>  0 0.52973810E+03</rscale>
<asrwt>0</asrwt>
<pdfrwt beam="1">  1        2 0.12380884E+00 0.52973810E+03</pdfrwt>
<pdfrwt beam="2">  1       -2 0.11564177E-01 0.52973810E+03</pdfrwt>
<totfact> 0.18528214E+03</totfact>
</mgrwt>
</event>
<event>
 4    1  0.5131465E-005  0.8327890E+03  0.7818608E-02  0.9513733E-01
         -2   -1    0    0    0  501 -0.00000000000E+00  0.00000000000E+00  0.56167825043E+02  0.56167825101E+02  0.25500000000E-02 0. -1.
          2   -1    0    0  501    0  0.00000000000E+00 -0.00000000000E+00 -0.30868988728E+04  0.30868988728E+04  0.25500000000E-02 0.  1.
    5000001    1    1    2    0    0 -0.25272239454E+02 -0.28021225416E+03 -0.23974648930E+04  0.24221058000E+04  0.19900000000E+03 0.  0.
   -5000001    1    1    2    0    0  0.25272239454E+02  0.28021225416E+03 -0.63326615474E+03  0.72096089784E+03  0.19900000000E+03 0.  0.
<mgrwt>
<rscale>  0 0.83278904E+03</rscale>
<asrwt>0</asrwt>
<pdfrwt beam="1">  1        2 0.44098545E+00 0.83278904E+03</pdfrwt>
<pdfrwt beam="2">  1       -2 0.80239769E-02 0.83278904E+03</pdfrwt>
<totfact> 0.21487916E+02</totfact>
</mgrwt>
</event>
<event>
 4    1  0.5131465E-005  0.4734021E+03  0.7818608E-02  0.1020964E+00
          2   -1    0    0  501    0  0.00000000000E+00  0.00000000000E+00  0.12713485210E+04  0.12713485210E+04  0.25500000000E-02 0. -1.
         -2   -1    0    0    0  501 -0.00000000000E+00 -0.00000000000E+00 -0.44069254842E+02  0.44069254915E+02  0.25500000000E-02 0.  1.
    5000001    1    1    2    0    0 -0.97737445935E+02  0.69640879896E+02  0.73864549543E+03  0.77433883307E+03  0.19900000000E+03 0.  0.
   -5000001    1    1    2    0    0  0.97737445935E+02 -0.69640879896E+02  0.48863377073E+03  0.54107894284E+03  0.19900000000E+03 0.  0.
<mgrwt>
<rscale>  0 0.47340208E+03</rscale>
<asrwt>0</asrwt>
<pdfrwt beam="1">  1        2 0.18162122E+00 0.47340208E+03</pdfrwt>
<pdfrwt beam="2">  1       -2 0.62956076E-02 0.47340208E+03</pdfrwt>
<totfact> 0.28219290E+03</totfact>
</mgrwt>
</event>
<event>
 4    1  0.5131465E-005  0.8030882E+03  0.7818608E-02  0.9555558E-01
         -2   -1    0    0    0  501 -0.00000000000E+00  0.00000000000E+00  0.11689818648E+03  0.11689818651E+03  0.25500000000E-02 0. -1.
          2   -1    0    0  501    0  0.00000000000E+00 -0.00000000000E+00 -0.13792997953E+04  0.13792997953E+04  0.25500000000E-02 0.  1.
    5000001    1    1    2    0    0  0.13614571024E+03  0.18202105614E+03 -0.13839060277E+03  0.33229546826E+03  0.19900000000E+03 0.  0.
   -5000001    1    1    2    0    0 -0.13614571024E+03 -0.18202105614E+03 -0.11240110060E+04  0.11639025135E+04  0.19900000000E+03 0.  0.
<mgrwt>
<rscale>  0 0.80308815E+03</rscale>
<asrwt>0</asrwt>
<pdfrwt beam="1">  1        2 0.19704282E+00 0.80308815E+03</pdfrwt>
<pdfrwt beam="2">  1       -2 0.16699742E-01 0.80308815E+03</pdfrwt>
<totfact> 0.49815649E+02</totfact>
</mgrwt>
</event>
<event>
 4    1  0.5131465E-005  0.5518180E+03  0.7818608E-02  0.1001074E+00
         -2   -1    0    0    0  501 -0.00000000000E+00  0.00000000000E+00  0.21355371961E+04  0.21355371961E+04  0.25500000000E-02 0. -1.
          2   -1    0    0  501    0  0.00000000000E+00 -0.00000000000E+00 -0.35647128158E+02  0.35647128249E+02  0.25500000000E-02 0.  1.
    5000001    1    1    2    0    0  0.34678670146E+02 -0.18038601010E+03  0.84237674683E+03  0.88483970661E+03  0.19900000000E+03 0.  0.
   -5000001    1    1    2    0    0 -0.34678670146E+02  0.18038601010E+03  0.12575133211E+04  0.12863446177E+04  0.19900000000E+03 0.  0.
<mgrwt>
<rscale>  0 0.55181797E+03</rscale>
<asrwt>0</asrwt>
<pdfrwt beam="1">  1        2 0.50924455E-02 0.55181797E+03</pdfrwt>
<pdfrwt beam="2">  1       -2 0.30507682E+00 0.55181797E+03</pdfrwt>
<totfact> 0.50727927E+01</totfact>
</mgrwt>
</event>
<event>
 4    1  0.5131465E-005  0.5240508E+03  0.7818608E-02  0.1007685E+00
         -2   -1    0    0    0  501 -0.00000000000E+00  0.00000000000E+00  0.60934841292E+02  0.60934841345E+02  0.25500000000E-02 0. -1.
          2   -1    0    0  501    0  0.00000000000E+00 -0.00000000000E+00 -0.11267334079E+04  0.11267334079E+04  0.25500000000E-02 0.  1.
    5000001    1    1    2    0    0  0.67817703108E+02  0.15625192868E+03 -0.51813938897E+03  0.58058878087E+03  0.19900000000E+03 0.  0.
   -5000001    1    1    2    0    0 -0.67817703108E+02 -0.15625192868E+03 -0.54765917764E+03  0.60707946838E+03  0.19900000000E+03 0.  0.
<mgrwt>
<rscale>  0 0.52405084E+03</rscale>
<asrwt>0</asrwt>
<pdfrwt beam="1">  1        2 0.16096190E+00 0.52405084E+03</pdfrwt>
<pdfrwt beam="2">  1       -2 0.87049780E-02 0.52405084E+03</pdfrwt>
<totfact> 0.20354756E+03</totfact>
</mgrwt>
</event>
<event>
 4    1  0.5131465E-005  0.6438973E+03  0.7818608E-02  0.9818298E-01
          2   -1    0    0  501    0  0.00000000000E+00  0.00000000000E+00  0.29861527493E+04  0.29861527493E+04  0.25500000000E-02 0.  1.
         -2   -1    0    0    0  501 -0.00000000000E+00 -0.00000000000E+00 -0.34710526064E+02  0.34710526158E+02  0.25500000000E-02 0. -1.
    5000001    1    1    2    0    0  0.23417004975E+03  0.59905633943E+01  0.19251890926E+04  0.19495706044E+04  0.19900000000E+03 0.  0.
   -5000001    1    1    2    0    0 -0.23417004975E+03 -0.59905633943E+01  0.10262531306E+04  0.10712926711E+04  0.19900000000E+03 0.  0.
<mgrwt>
<rscale>  0 0.64389730E+03</rscale>
<asrwt>0</asrwt>
<pdfrwt beam="1">  1        2 0.42659318E+00 0.64389730E+03</pdfrwt>
<pdfrwt beam="2">  1       -2 0.49586474E-02 0.64389730E+03</pdfrwt>
<totfact> 0.53125897E+02</totfact>
</mgrwt>
</event>
<event>
 4    1  0.5131465E-005  0.4128892E+03  0.7818608E-02  0.1039406E+00
          2   -1    0    0  501    0  0.00000000000E+00  0.00000000000E+00  0.14778374141E+04  0.14778374141E+04  0.25500000000E-02 0.  1.
         -2   -1    0    0    0  501 -0.00000000000E+00 -0.00000000000E+00 -0.28839015923E+02  0.28839016036E+02  0.25500000000E-02 0. -1.
    5000001    1    1    2    0    0 -0.37177647671E+02  0.11100937082E+02  0.58256031185E+03  0.61683298001E+03  0.19900000000E+03 0.  0.
   -5000001    1    1    2    0    0  0.37177647671E+02 -0.11100937082E+02  0.86643808634E+03  0.88984345014E+03  0.19900000000E+03 0.  0.
<mgrwt>
<rscale>  0 0.41288922E+03</rscale>
<asrwt>0</asrwt>
<pdfrwt beam="1">  1        2 0.21111968E+00 0.41288922E+03</pdfrwt>
<pdfrwt beam="2">  1       -2 0.41198585E-02 0.41288922E+03</pdfrwt>
<totfact> 0.42205823E+03</totfact>
</mgrwt>
</event>
<event>
 4    1  0.5131465E-005  0.7172836E+03  0.7818608E-02  0.9688123E-01
         -2   -1    0    0    0  501 -0.00000000000E+00  0.00000000000E+00  0.26599121894E+03  0.26599121895E+03  0.25500000000E-02 0. -1.
          2   -1    0    0  501    0  0.00000000000E+00 -0.00000000000E+00 -0.48356467540E+03  0.48356467541E+03  0.25500000000E-02 0.  1.
    5000001    1    1    2    0    0  0.29587379487E+03 -0.16067547638E+02 -0.14533889335E+03  0.38538793766E+03  0.19900000000E+03 0.  0.
   -5000001    1    1    2    0    0 -0.29587379487E+03  0.16067547638E+02 -0.72234563116E+02  0.36416795670E+03  0.19900000000E+03 0.  0.
<mgrwt>
<rscale>  0 0.71728365E+03</rscale>
<asrwt>0</asrwt>
<pdfrwt beam="1">  1        2 0.69080668E-01 0.71728365E+03</pdfrwt>
<pdfrwt beam="2">  1       -2 0.37998746E-01 0.71728365E+03</pdfrwt>
<totfact> 0.45883597E+02</totfact>
</mgrwt>
</event>
<event>
 4    1  0.5131465E-005  0.9765070E+03  0.7818608E-02  0.9334694E-01
         -2   -1    0    0    0  501 -0.00000000000E+00  0.00000000000E+00  0.18510961539E+03  0.18510961541E+03  0.25500000000E-02 0. -1.
          2   -1    0    0  501    0  0.00000000000E+00 -0.00000000000E+00 -0.12878394536E+04  0.12878394536E+04  0.25500000000E-02 0.  1.
    5000001    1    1    2    0    0  0.38456387626E+03  0.21914779869E+03 -0.63224777633E+03  0.79702784347E+03  0.19900000000E+03 0.  0.
   -5000001    1    1    2    0    0 -0.38456387626E+03 -0.21914779869E+03 -0.47048206191E+03  0.67592122557E+03  0.19900000000E+03 0.  0.
<mgrwt>
<rscale>  0 0.97650697E+03</rscale>
<asrwt>0</asrwt>
<pdfrwt beam="1">  1        2 0.18397706E+00 0.97650697E+03</pdfrwt>
<pdfrwt beam="2">  1       -2 0.26444231E-01 0.97650697E+03</pdfrwt>
<totfact> 0.24604467E+02</totfact>
</mgrwt>
</event>
<event>
 4    1  0.5131465E-005  0.8964180E+03  0.7818608E-02  0.9430070E-01
          2   -1    0    0  501    0  0.00000000000E+00  0.00000000000E+00  0.24013673272E+04  0.24013673272E+04  0.25500000000E-02 0.  1.
         -2   -1    0    0    0  501 -0.00000000000E+00 -0.00000000000E+00 -0.83657052465E+02  0.83657052504E+02  0.25500000000E-02 0. -1.
    5000001    1    1    2    0    0  0.19157252624E+03  0.34763947459E+03  0.98938779781E+03  0.10844549099E+04  0.19900000000E+03 0.  0.
   -5000001    1    1    2    0    0 -0.19157252624E+03 -0.34763947459E+03  0.13283224769E+04  0.14005694698E+04  0.19900000000E+03 0.  0.
<mgrwt>
<rscale>  0 0.89641801E+03</rscale>
<asrwt>0</asrwt>
<pdfrwt beam="1">  1        2 0.34305246E+00 0.89641801E+03</pdfrwt>
<pdfrwt beam="2">  1       -2 0.11951008E-01 0.89641801E+03</pdfrwt>
<totfact> 0.25901163E+02</totfact>
</mgrwt>
</event>
<event>
 4    1  0.5131465E-005  0.6659143E+03  0.7818608E-02  0.9777367E-01
         -2   -1    0    0    0  501 -0.00000000000E+00  0.00000000000E+00  0.11840531801E+03  0.11840531803E+03  0.25500000000E-02 0. -1.
          2   -1    0    0  501    0  0.00000000000E+00 -0.00000000000E+00 -0.93627950958E+03  0.93627950958E+03  0.25500000000E-02 0.  1.
    5000001    1    1    2    0    0  0.11595023057E+03  0.21741888118E+03 -0.57156984752E+03  0.65345888658E+03  0.19900000000E+03 0.  0.
   -5000001    1    1    2    0    0 -0.11595023057E+03 -0.21741888118E+03 -0.24630434406E+03  0.40122594104E+03  0.19900000000E+03 0.  0.
<mgrwt>
<rscale>  0 0.66591433E+03</rscale>
<asrwt>0</asrwt>
<pdfrwt beam="1">  1        2 0.13375421E+00 0.66591433E+03</pdfrwt>
<pdfrwt beam="2">  1       -2 0.16915046E-01 0.66591433E+03</pdfrwt>
<totfact> 0.88277730E+02</totfact>
</mgrwt>
</event>
<event>
 4    1  0.5131465E-005  0.7957837E+03  0.7818608E-02  0.9566140E-01
         -2   -1    0    0    0  501 -0.00000000000E+00  0.00000000000E+00  0.37464603526E+03  0.37464603527E+03  0.25500000000E-02 0. -1.
          2   -1    0    0  501    0  0.00000000000E+00 -0.00000000000E+00 -0.42257999792E+03  0.42257999793E+03  0.25500000000E-02 0.  1.
    5000001    1    1    2    0    0  0.16772398804E+03  0.50326323026E+02  0.27330784631E+03  0.38073908889E+03  0.19900000000E+03 0.  0.
   -5000001    1    1    2    0    0 -0.16772398804E+03 -0.50326323026E+02 -0.32124180897E+03  0.41648694431E+03  0.19900000000E+03 0.  0.
<mgrwt>
<rscale>  0 0.79578369E+03</rscale>
<asrwt>0</asrwt>
<pdfrwt beam="1">  1        2 0.60368571E-01 0.79578369E+03</pdfrwt>
<pdfrwt beam="2">  1       -2 0.53520862E-01 0.79578369E+03</pdfrwt>
<totfact> 0.26927722E+02</totfact>
</mgrwt>
</event>
<event>
 4    1  0.5131465E-005  0.6721594E+03  0.7818608E-02  0.9766065E-01
          2   -1    0    0  501    0  0.00000000000E+00  0.00000000000E+00  0.20375481400E+04  0.20375481400E+04  0.25500000000E-02 0.  1.
         -2   -1    0    0    0  501 -0.00000000000E+00 -0.00000000000E+00 -0.55434064250E+02  0.55434064309E+02  0.25500000000E-02 0. -1.
    5000001    1    1    2    0    0  0.21927657518E+03  0.14954837501E+03  0.11587887309E+04  0.12053378181E+04  0.19900000000E+03 0.  0.
   -5000001    1    1    2    0    0 -0.21927657518E+03 -0.14954837501E+03  0.82332534486E+03  0.88764438622E+03  0.19900000000E+03 0.  0.
<mgrwt>
<rscale>  0 0.67215943E+03</rscale>
<asrwt>0</asrwt>
<pdfrwt beam="1">  1        2 0.29107824E+00 0.67215943E+03</pdfrwt>
<pdfrwt beam="2">  1       -2 0.79191538E-02 0.67215943E+03</pdfrwt>
<totfact> 0.78685516E+02</totfact>
</mgrwt>
</event>
<event>
 4    1  0.5131465E-005  0.5704992E+03  0.7818608E-02  0.9968575E-01
          2   -1    0    0  501    0  0.00000000000E+00  0.00000000000E+00  0.32383752547E+04  0.32383752547E+04  0.25500000000E-02 0.  1.
         -2   -1    0    0    0  501 -0.00000000000E+00 -0.00000000000E+00 -0.25125976610E+02  0.25125976739E+02  0.25500000000E-02 0. -1.
    5000001    1    1    2    0    0  0.19087322324E+03  0.46928411541E+02  0.12865115720E+04  0.13165667047E+04  0.19900000000E+03 0.  0.
   -5000001    1    1    2    0    0 -0.19087322324E+03 -0.46928411541E+02  0.19267377062E+04  0.19469345268E+04  0.19900000000E+03 0.  0.
<mgrwt>
<rscale>  0 0.57049922E+03</rscale>
<asrwt>0</asrwt>
<pdfrwt beam="1">  1        2 0.46262510E+00 0.57049922E+03</pdfrwt>
<pdfrwt beam="2">  1       -2 0.35894248E-02 0.57049922E+03</pdfrwt>
<totfact> 0.63819530E+02</totfact>
</mgrwt>
</event>
<event>
 4    1  0.5131465E-005  0.4805988E+03  0.7818608E-02  0.1018971E+00
         -2   -1    0    0    0  501 -0.00000000000E+00  0.00000000000E+00  0.47587619327E+02  0.47587619395E+02  0.25500000000E-02 0. -1.
          2   -1    0    0  501    0  0.00000000000E+00 -0.00000000000E+00 -0.12134209026E+04  0.12134209026E+04  0.25500000000E-02 0.  1.
    5000001    1    1    2    0    0  0.53680488625E+02  0.10800147226E+03 -0.42555479903E+03  0.48501938090E+03  0.19900000000E+03 0.  0.
   -5000001    1    1    2    0    0 -0.53680488625E+02 -0.10800147226E+03 -0.74027848424E+03  0.77598914110E+03  0.19900000000E+03 0.  0.
<mgrwt>
<rscale>  0 0.48059884E+03</rscale>
<asrwt>0</asrwt>
<pdfrwt beam="1">  1        2 0.17334582E+00 0.48059884E+03</pdfrwt>
<pdfrwt beam="2">  1       -2 0.67982321E-02 0.48059884E+03</pdfrwt>
<totfact> 0.26919304E+03</totfact>
</mgrwt>
</event>
<event>
 4    1  0.5131465E-005  0.5856791E+03  0.7818608E-02  0.9935571E-01
          2   -1    0    0  501    0  0.00000000000E+00  0.00000000000E+00  0.18080197513E+04  0.18080197513E+04  0.25500000000E-02 0. -1.
         -2   -1    0    0    0  501 -0.00000000000E+00 -0.00000000000E+00 -0.47430342659E+02  0.47430342728E+02  0.25500000000E-02 0.  1.
    5000001    1    1    2    0    0 -0.44074616126E+02 -0.19402879432E+03  0.62362052946E+03  0.68417344992E+03  0.19900000000E+03 0.  0.
   -5000001    1    1    2    0    0  0.44074616126E+02  0.19402879432E+03  0.11369688792E+04  0.11712766442E+04  0.19900000000E+03 0.  0.
<mgrwt>
<rscale>  0 0.58567908E+03</rscale>
<asrwt>0</asrwt>
<pdfrwt beam="1">  1        2 0.25828845E+00 0.58567908E+03</pdfrwt>
<pdfrwt beam="2">  1       -2 0.67757656E-02 0.58567908E+03</pdfrwt>
<totfact> 0.13211427E+03</totfact>
</mgrwt>
</event>
<event>
 4    1  0.5131465E-005  0.4904782E+03  0.7818608E-02  0.1016295E+00
         -2   -1    0    0    0  501 -0.00000000000E+00  0.00000000000E+00  0.52113769455E+02  0.52113769518E+02  0.25500000000E-02 0.  1.
          2   -1    0    0  501    0  0.00000000000E+00 -0.00000000000E+00 -0.11540559270E+04  0.11540559270E+04  0.25500000000E-02 0. -1.
    5000001    1    1    2    0    0  0.51749453240E+02  0.13328574146E+03 -0.52661289668E+03  0.58083150546E+03  0.19900000000E+03 0.  0.
   -5000001    1    1    2    0    0 -0.51749453240E+02 -0.13328574146E+03 -0.57532926084E+03  0.62533819103E+03  0.19900000000E+03 0.  0.
<mgrwt>
<rscale>  0 0.49047815E+03</rscale>
<asrwt>0</asrwt>
<pdfrwt beam="1">  1        2 0.16486512E+00 0.49047815E+03</pdfrwt>
<pdfrwt beam="2">  1       -2 0.74448250E-02 0.49047815E+03</pdfrwt>
<totfact> 0.25184194E+03</totfact>
</mgrwt>
</event>
<event>
 4    1  0.5131465E-005  0.1052892E+04  0.7818608E-02  0.9252363E-01
         -2   -1    0    0    0  501 -0.00000000000E+00  0.00000000000E+00  0.16479274273E+04  0.16479274273E+04  0.25500000000E-02 0. -1.
          2   -1    0    0  501    0  0.00000000000E+00 -0.00000000000E+00 -0.16817816075E+03  0.16817816077E+03  0.25500000000E-02 0.  1.
    5000001    1    1    2    0    0  0.38966313326E+03 -0.88785607379E+01  0.12446122940E+04  0.13193092696E+04  0.19900000000E+03 0.  0.
   -5000001    1    1    2    0    0 -0.38966313326E+03  0.88785607379E+01  0.23513697255E+03  0.49679631855E+03  0.19900000000E+03 0.  0.
<mgrwt>
<rscale>  0 0.10528920E+04</rscale>
<asrwt>0</asrwt>
<pdfrwt beam="1">  1        2 0.24025451E-01 0.10528920E+04</pdfrwt>
<pdfrwt beam="2">  1       -2 0.23541821E+00 0.10528920E+04</pdfrwt>
<totfact> 0.18168651E+01</totfact>
</mgrwt>
</event>
<event>
 4    1  0.5131465E-005  0.4327093E+03  0.7818608E-02  0.1033008E+00
         -2   -1    0    0    0  501 -0.00000000000E+00  0.00000000000E+00  0.43874971021E+02  0.43874971095E+02  0.25500000000E-02 0. -1.
          2   -1    0    0  501    0  0.00000000000E+00 -0.00000000000E+00 -0.10668803387E+04  0.10668803387E+04  0.25500000000E-02 0.  1.
    5000001    1    1    2    0    0 -0.48655894013E+02 -0.64302840826E+02 -0.57971345546E+03  0.61819975882E+03  0.19900000000E+03 0.  0.
   -5000001    1    1    2    0    0  0.48655894013E+02  0.64302840826E+02 -0.44329191219E+03  0.49255555095E+03  0.19900000000E+03 0.  0.
<mgrwt>
<rscale>  0 0.43270934E+03</rscale>
<asrwt>0</asrwt>
<pdfrwt beam="1">  1        2 0.15241146E+00 0.43270934E+03</pdfrwt>
<pdfrwt beam="2">  1       -2 0.62678537E-02 0.43270934E+03</pdfrwt>
<totfact> 0.36999639E+03</totfact>
</mgrwt>
</event>
<event>
 4    1  0.5131465E-005  0.9694422E+03  0.7818608E-02  0.9342710E-01
          2   -1    0    0  501    0  0.00000000000E+00  0.00000000000E+00  0.12450209741E+04  0.12450209741E+04  0.25500000000E-02 0.  1.
         -2   -1    0    0    0  501 -0.00000000000E+00 -0.00000000000E+00 -0.18871531389E+03  0.18871531391E+03  0.25500000000E-02 0. -1.
    5000001    1    1    2    0    0 -0.24229126634E+03  0.85558279918E+02  0.10600088403E+04  0.11087132264E+04  0.19900000000E+03 0.  0.
   -5000001    1    1    2    0    0  0.24229126634E+03 -0.85558279918E+02 -0.37031800817E+01  0.32502306156E+03  0.19900000000E+03 0.  0.
<mgrwt>
<rscale>  0 0.96944216E+03</rscale>
<asrwt>0</asrwt>
<pdfrwt beam="1">  1        2 0.17786013E+00 0.96944216E+03</pdfrwt>
<pdfrwt beam="2">  1       -2 0.26959331E-01 0.96944216E+03</pdfrwt>
<totfact> 0.25104061E+02</totfact>
</mgrwt>
</event>
<event>
 4    1  0.5131465E-005  0.5951982E+03  0.7818608E-02  0.9915419E-01
         -2   -1    0    0    0  501 -0.00000000000E+00  0.00000000000E+00  0.64961626486E+03  0.64961626487E+03  0.25500000000E-02 0.  1.
          2   -1    0    0  501    0  0.00000000000E+00 -0.00000000000E+00 -0.13633469074E+03  0.13633469076E+03  0.25500000000E-02 0. -1.
    5000001    1    1    2    0    0 -0.14363963156E+03  0.14739079419E+03  0.36398129897E+03  0.46307642562E+03  0.19900000000E+03 0.  0.
   -5000001    1    1    2    0    0  0.14363963156E+03 -0.14739079419E+03  0.14930027516E+03  0.32287453001E+03  0.19900000000E+03 0.  0.
<mgrwt>
<rscale>  0 0.59519823E+03</rscale>
<asrwt>0</asrwt>
<pdfrwt beam="1">  1        2 0.19476384E-01 0.59519823E+03</pdfrwt>
<pdfrwt beam="2">  1       -2 0.92802325E-01 0.59519823E+03</pdfrwt>
<totfact> 0.29179076E+02</totfact>
</mgrwt>
</event>
<event>
 4    1  0.5131465E-005  0.7451079E+03  0.7818608E-02  0.9643057E-01
         -2   -1    0    0    0  501 -0.00000000000E+00  0.00000000000E+00  0.14523617396E+03  0.14523617398E+03  0.25500000000E-02 0. -1.
          2   -1    0    0  501    0  0.00000000000E+00 -0.00000000000E+00 -0.95566020023E+03  0.95566020023E+03  0.25500000000E-02 0.  1.
    5000001    1    1    2    0    0  0.29638174250E+03 -0.84781311965E+02 -0.50056995064E+03  0.62064586007E+03  0.19900000000E+03 0.  0.
   -5000001    1    1    2    0    0 -0.29638174250E+03  0.84781311965E+02 -0.30985407563E+03  0.48025051414E+03  0.19900000000E+03 0.  0.
<mgrwt>
<rscale>  0 0.74510786E+03</rscale>
<asrwt>0</asrwt>
<pdfrwt beam="1">  1        2 0.13652288E+00 0.74510786E+03</pdfrwt>
<pdfrwt beam="2">  1       -2 0.20748025E-01 0.74510786E+03</pdfrwt>
<totfact> 0.60096513E+02</totfact>
</mgrwt>
</event>
<event>
 4    1  0.5131465E-005  0.5346868E+03  0.7818608E-02  0.1005102E+00
         -2   -1    0    0    0  501 -0.00000000000E+00  0.00000000000E+00  0.27567839696E+03  0.27567839698E+03  0.25500000000E-02 0. -1.
          2   -1    0    0  501    0  0.00000000000E+00 -0.00000000000E+00 -0.25926039024E+03  0.25926039025E+03  0.25500000000E-02 0.  1.
    5000001    1    1    2    0    0  0.13400634674E+03  0.39846918574E+01 -0.10973595699E+03  0.26384950065E+03  0.19900000000E+03 0.  0.
   -5000001    1    1    2    0    0 -0.13400634674E+03 -0.39846918574E+01  0.12615396372E+03  0.27108928658E+03  0.19900000000E+03 0.  0.
<mgrwt>
<rscale>  0 0.53468678E+03</rscale>
<asrwt>0</asrwt>
<pdfrwt beam="1">  1        2 0.37037199E-01 0.53468678E+03</pdfrwt>
<pdfrwt beam="2">  1       -2 0.39382628E-01 0.53468678E+03</pdfrwt>
<totfact> 0.85883627E+02</totfact>
</mgrwt>
</event>
<event>
 4    1  0.5131465E-005  0.6455248E+03  0.7818608E-02  0.9815213E-01
         -2   -1    0    0    0  501 -0.00000000000E+00  0.00000000000E+00  0.66414242383E+02  0.66414242432E+02  0.25500000000E-02 0. -1.
          2   -1    0    0  501    0  0.00000000000E+00 -0.00000000000E+00 -0.15685724561E+04  0.15685724561E+04  0.25500000000E-02 0.  1.
    5000001    1    1    2    0    0 -0.23843497023E+03  0.87123909147E+02 -0.78026032962E+03  0.84430385084E+03  0.19900000000E+03 0.  0.
   -5000001    1    1    2    0    0  0.23843497023E+03 -0.87123909147E+02 -0.72189788413E+03  0.79068284772E+03  0.19900000000E+03 0.  0.
<mgrwt>
<rscale>  0 0.64552475E+03</rscale>
<asrwt>0</asrwt>
<pdfrwt beam="1">  1        2 0.22408176E+00 0.64552475E+03</pdfrwt>
<pdfrwt beam="2">  1       -2 0.94877499E-02 0.64552475E+03</pdfrwt>
<totfact> 0.10201259E+03</totfact>
</mgrwt>
</event>
<event>
 4    1  0.5131465E-005  0.5800150E+03  0.7818608E-02  0.9947759E-01
          2   -1    0    0  501    0  0.00000000000E+00  0.00000000000E+00  0.38916477701E+03  0.38916477702E+03  0.25500000000E-02 0.  1.
         -2   -1    0    0    0  501 -0.00000000000E+00 -0.00000000000E+00 -0.21611500625E+03  0.21611500627E+03  0.25500000000E-02 0. -1.
    5000001    1    1    2    0    0 -0.16898344385E+03  0.10000985449E+03  0.60559210008E+01  0.27963377741E+03  0.19900000000E+03 0.  0.
   -5000001    1    1    2    0    0  0.16898344385E+03 -0.10000985449E+03  0.16699384976E+03  0.32564600588E+03  0.19900000000E+03 0.  0.
<mgrwt>
<rscale>  0 0.58001499E+03</rscale>
<asrwt>0</asrwt>
<pdfrwt beam="1">  1        2 0.55594968E-01 0.58001499E+03</pdfrwt>
<pdfrwt beam="2">  1       -2 0.30873572E-01 0.58001499E+03</pdfrwt>
<totfact> 0.86926359E+02</totfact>
</mgrwt>
</event>
<event>
 4    1  0.5131465E-005  0.6516411E+03  0.7818608E-02  0.9803705E-01
         -2   -1    0    0    0  501 -0.00000000000E+00  0.00000000000E+00  0.12661612948E+03  0.12661612950E+03  0.25500000000E-02 0. -1.
          2   -1    0    0  501    0  0.00000000000E+00 -0.00000000000E+00 -0.83843209294E+03  0.83843209294E+03  0.25500000000E-02 0.  1.
    5000001    1    1    2    0    0 -0.16714934940E+03  0.18035768424E+03 -0.47148122547E+03  0.56777050403E+03  0.19900000000E+03 0.  0.
   -5000001    1    1    2    0    0  0.16714934940E+03 -0.18035768424E+03 -0.24033473799E+03  0.39727771842E+03  0.19900000000E+03 0.  0.
<mgrwt>
<rscale>  0 0.65164109E+03</rscale>
<asrwt>0</asrwt>
<pdfrwt beam="1">  1        2 0.11977601E+00 0.65164109E+03</pdfrwt>
<pdfrwt beam="2">  1       -2 0.18088019E-01 0.65164109E+03</pdfrwt>
<totfact> 0.91200725E+02</totfact>
</mgrwt>
</event>
<event>
 4    1  0.5131465E-005  0.6435115E+03  0.7818608E-02  0.9819031E-01
         -2   -1    0    0    0  501 -0.00000000000E+00  0.00000000000E+00  0.92509676948E+02  0.92509676983E+02  0.25500000000E-02 0. -1.
          2   -1    0    0  501    0  0.00000000000E+00 -0.00000000000E+00 -0.11190911493E+04  0.11190911493E+04  0.25500000000E-02 0.  1.
    5000001    1    1    2    0    0  0.48631886274E+02 -0.19236006030E+03 -0.21823608209E+03  0.35580253046E+03  0.19900000000E+03 0.  0.
   -5000001    1    1    2    0    0 -0.48631886274E+02  0.19236006030E+03 -0.80834539023E+03  0.85579829578E+03  0.19900000000E+03 0.  0.
<mgrwt>
<rscale>  0 0.64351149E+03</rscale>
<asrwt>0</asrwt>
<pdfrwt beam="1">  1        2 0.15987016E+00 0.64351149E+03</pdfrwt>
<pdfrwt beam="2">  1       -2 0.13215669E-01 0.64351149E+03</pdfrwt>
<totfact> 0.10385958E+03</totfact>
</mgrwt>
</event>
<event>
 4    1  0.5131465E-005  0.5169167E+03  0.7818608E-02  0.1009455E+00
         -2   -1    0    0    0  501 -0.00000000000E+00  0.00000000000E+00  0.50568441791E+02  0.50568441855E+02  0.25500000000E-02 0. -1.
          2   -1    0    0  501    0  0.00000000000E+00 -0.00000000000E+00 -0.13209960101E+04  0.13209960102E+04  0.25500000000E-02 0.  1.
    5000001    1    1    2    0    0  0.63884883122E+02  0.82493804279E+02 -0.97410890618E+03  0.99968778483E+03  0.19900000000E+03 0.  0.
   -5000001    1    1    2    0    0 -0.63884883122E+02 -0.82493804279E+02 -0.29631866218E+03  0.37187666718E+03  0.19900000000E+03 0.  0.
<mgrwt>
<rscale>  0 0.51691667E+03</rscale>
<asrwt>0</asrwt>
<pdfrwt beam="1">  1        2 0.18871369E+00 0.51691667E+03</pdfrwt>
<pdfrwt beam="2">  1       -2 0.72240640E-02 0.51691667E+03</pdfrwt>
<totfact> 0.21365938E+03</totfact>
</mgrwt>
</event>
<event>
 4    1  0.5131465E-005  0.7224715E+03  0.7818608E-02  0.9679556E-01
         -2   -1    0    0    0  501 -0.00000000000E+00  0.00000000000E+00  0.40983691761E+02  0.40983691841E+02  0.25500000000E-02 0. -1.
          2   -1    0    0  501    0  0.00000000000E+00 -0.00000000000E+00 -0.31839801728E+04  0.31839801728E+04  0.25500000000E-02 0.  1.
    5000001    1    1    2    0    0 -0.58255994331E+02  0.27851793416E+03 -0.20161840213E+04  0.20458653446E+04  0.19900000000E+03 0.  0.
   -5000001    1    1    2    0    0  0.58255994331E+02 -0.27851793416E+03 -0.11268124598E+04  0.11790985201E+04  0.19900000000E+03 0.  0.
<mgrwt>
<rscale>  0 0.72247149E+03</rscale>
<asrwt>0</asrwt>
<pdfrwt beam="1">  1        2 0.45485415E+00 0.72247149E+03</pdfrwt>
<pdfrwt beam="2">  1       -2 0.58548151E-02 0.72247149E+03</pdfrwt>
<totfact> 0.31606612E+02</totfact>
</mgrwt>
</event>
<event>
 4    1  0.5131465E-005  0.5958204E+03  0.7818608E-02  0.9914116E-01
         -2   -1    0    0    0  501 -0.00000000000E+00  0.00000000000E+00  0.11411039161E+03  0.11411039164E+03  0.25500000000E-02 0. -1.
          2   -1    0    0  501    0  0.00000000000E+00 -0.00000000000E+00 -0.77775983024E+03  0.77775983025E+03  0.25500000000E-02 0.  1.
    5000001    1    1    2    0    0  0.94679855889E+02  0.19126521494E+03 -0.24197687236E+03  0.37907844085E+03  0.19900000000E+03 0.  0.
   -5000001    1    1    2    0    0 -0.94679855889E+02 -0.19126521494E+03 -0.42167256627E+03  0.51279178104E+03  0.19900000000E+03 0.  0.
<mgrwt>
<rscale>  0 0.59582037E+03</rscale>
<asrwt>0</asrwt>
<pdfrwt beam="1">  1        2 0.11110854E+00 0.59582037E+03</pdfrwt>
<pdfrwt beam="2">  1       -2 0.16301485E-01 0.59582037E+03</pdfrwt>
<totfact> 0.12011576E+03</totfact>
</mgrwt>
</event>
<event>
 4    1  0.5131465E-005  0.5489994E+03  0.7818608E-02  0.1001726E+00
         -2   -1    0    0    0  501 -0.00000000000E+00  0.00000000000E+00  0.47788353783E+02  0.47788353851E+02  0.25500000000E-02 0. -1.
          2   -1    0    0  501    0  0.00000000000E+00 -0.00000000000E+00 -0.15767457013E+04  0.15767457013E+04  0.25500000000E-02 0.  1.
    5000001    1    1    2    0    0 -0.15328637869E+03  0.10640097636E+03 -0.67418061865E+03  0.72728150549E+03  0.19900000000E+03 0.  0.
   -5000001    1    1    2    0    0  0.15328637869E+03 -0.10640097636E+03 -0.85477672883E+03  0.89725254963E+03  0.19900000000E+03 0.  0.
<mgrwt>
<rscale>  0 0.54899939E+03</rscale>
<asrwt>0</asrwt>
<pdfrwt beam="1">  1        2 0.22524935E+00 0.54899939E+03</pdfrwt>
<pdfrwt beam="2">  1       -2 0.68269087E-02 0.54899939E+03</pdfrwt>
<totfact> 0.17139088E+03</totfact>
</mgrwt>
</event>
<event>
 4    1  0.5131465E-005  0.5631255E+03  0.7818608E-02  0.9985007E-01
          2   -1    0    0  501    0  0.00000000000E+00  0.00000000000E+00  0.53162283296E+03  0.53162283296E+03  0.25500000000E-02 0.  1.
         -2   -1    0    0    0  501 -0.00000000000E+00 -0.00000000000E+00 -0.14912374930E+03  0.14912374932E+03  0.25500000000E-02 0. -1.
    5000001    1    1    2    0    0  0.14480030931E+03  0.10835993254E+03  0.90342515500E+02  0.28367547420E+03  0.19900000000E+03 0.  0.
   -5000001    1    1    2    0    0 -0.14480030931E+03 -0.10835993254E+03  0.29215656816E+03  0.39707110808E+03  0.19900000000E+03 0.  0.
<mgrwt>
<rscale>  0 0.56312553E+03</rscale>
<asrwt>0</asrwt>
<pdfrwt beam="1">  1        2 0.75946119E-01 0.56312553E+03</pdfrwt>
<pdfrwt beam="2">  1       -2 0.21303393E-01 0.56312553E+03</pdfrwt>
<totfact> 0.11946940E+03</totfact>
</mgrwt>
</event>
<event>
 4    1  0.5131465E-005  0.6479873E+03  0.7818608E-02  0.9810563E-01
         -2   -1    0    0    0  501 -0.00000000000E+00  0.00000000000E+00  0.12040744743E+03  0.12040744746E+03  0.25500000000E-02 0. -1.
          2   -1    0    0  501    0  0.00000000000E+00 -0.00000000000E+00 -0.87180548531E+03  0.87180548531E+03  0.25500000000E-02 0.  1.
    5000001    1    1    2    0    0 -0.17480875310E+03  0.14180514604E+03 -0.19002238792E+03  0.35549445497E+03  0.19900000000E+03 0.  0.
   -5000001    1    1    2    0    0  0.17480875310E+03 -0.14180514604E+03 -0.56137564996E+03  0.63671847780E+03  0.19900000000E+03 0.  0.
<mgrwt>
<rscale>  0 0.64798726E+03</rscale>
<asrwt>0</asrwt>
<pdfrwt beam="1">  1        2 0.12454364E+00 0.64798726E+03</pdfrwt>
<pdfrwt beam="2">  1       -2 0.17201064E-01 0.64798726E+03</pdfrwt>
<totfact> 0.94461205E+02</totfact>
</mgrwt>
</event>
<event>
 4    1  0.5131465E-005  0.4876116E+03  0.7818608E-02  0.1017064E+00
          2   -1    0    0  501    0  0.00000000000E+00  0.00000000000E+00  0.10271959299E+04  0.10271959299E+04  0.25500000000E-02 0.  1.
         -2   -1    0    0    0  501 -0.00000000000E+00 -0.00000000000E+00 -0.57867498919E+02  0.57867498975E+02  0.25500000000E-02 0. -1.
    5000001    1    1    2    0    0 -0.82646379983E+02  0.39557916064E+00  0.23085089176E+03  0.31579061866E+03  0.19900000000E+03 0.  0.
   -5000001    1    1    2    0    0  0.82646379983E+02 -0.39557916064E+00  0.73847753920E+03  0.76927281020E+03  0.19900000000E+03 0.  0.
<mgrwt>
<rscale>  0 0.48761156E+03</rscale>
<asrwt>0</asrwt>
<pdfrwt beam="1">  1        2 0.14674226E+00 0.48761156E+03</pdfrwt>
<pdfrwt beam="2">  1       -2 0.82667862E-02 0.48761156E+03</pdfrwt>
<totfact> 0.25272628E+03</totfact>
</mgrwt>
</event>
<event>
 4    1  0.5131465E-005  0.4131436E+03  0.7818608E-02  0.1039321E+00
          2   -1    0    0  501    0  0.00000000000E+00  0.00000000000E+00  0.94355373983E+02  0.94355374017E+02  0.25500000000E-02 0.  1.
         -2   -1    0    0    0  501 -0.00000000000E+00 -0.00000000000E+00 -0.45224669318E+03  0.45224669319E+03  0.25500000000E-02 0. -1.
    5000001    1    1    2    0    0 -0.44717590365E+01  0.32802113141E+02 -0.12014987692E+03  0.23480410597E+03  0.19900000000E+03 0.  0.
   -5000001    1    1    2    0    0  0.44717590365E+01 -0.32802113141E+02 -0.23774144228E+03  0.31179796124E+03  0.19900000000E+03 0.  0.
<mgrwt>
<rscale>  0 0.41314359E+03</rscale>
<asrwt>0</asrwt>
<pdfrwt beam="1">  1        2 0.13479339E-01 0.41314359E+03</pdfrwt>
<pdfrwt beam="2">  1       -2 0.64606669E-01 0.41314359E+03</pdfrwt>
<totfact> 0.10115935E+03</totfact>
</mgrwt>
</event>
<event>
 4    1  0.5131465E-005  0.1670028E+04  0.7818608E-02  0.8778645E-01
          2   -1    0    0  501    0  0.00000000000E+00  0.00000000000E+00  0.51783405373E+03  0.51783405374E+03  0.25500000000E-02 0.  1.
         -2   -1    0    0    0  501 -0.00000000000E+00 -0.00000000000E+00 -0.13464708508E+04  0.13464708508E+04  0.25500000000E-02 0. -1.
    5000001    1    1    2    0    0  0.29666688211E+02  0.80987154896E+03 -0.44734786613E+03  0.94683322266E+03  0.19900000000E+03 0.  0.
   -5000001    1    1    2    0    0 -0.29666688211E+02 -0.80987154896E+03 -0.38128893094E+03  0.91747168189E+03  0.19900000000E+03 0.  0.
<mgrwt>
<rscale>  0 0.16700281E+04</rscale>
<asrwt>0</asrwt>
<pdfrwt beam="1">  1        2 0.73976294E-01 0.16700281E+04</pdfrwt>
<pdfrwt beam="2">  1       -2 0.19235298E+00 0.16700281E+04</pdfrwt>
<totfact> 0.92075599E+00</totfact>
</mgrwt>
</event>
<event>
 4    1  0.5131465E-005  0.6374611E+03  0.7818608E-02  0.9830596E-01
         -2   -1    0    0    0  501 -0.00000000000E+00  0.00000000000E+00  0.99648830542E+02  0.99648830575E+02  0.25500000000E-02 0. -1.
          2   -1    0    0  501    0  0.00000000000E+00 -0.00000000000E+00 -0.10194716356E+04  0.10194716356E+04  0.25500000000E-02 0.  1.
    5000001    1    1    2    0    0 -0.14297800292E+03  0.84181812200E+02 -0.78580338647E+03  0.82741600722E+03  0.19900000000E+03 0.  0.
   -5000001    1    1    2    0    0  0.14297800292E+03 -0.84181812200E+02 -0.13401941862E+03  0.29170445899E+03  0.19900000000E+03 0.  0.
<mgrwt>
<rscale>  0 0.63746108E+03</rscale>
<asrwt>0</asrwt>
<pdfrwt beam="1">  1        2 0.14563880E+00 0.63746108E+03</pdfrwt>
<pdfrwt beam="2">  1       -2 0.14235548E-01 0.63746108E+03</pdfrwt>
<totfact> 0.10507171E+03</totfact>
</mgrwt>
</event>
<event>
 4    1  0.5131465E-005  0.6708941E+03  0.7818608E-02  0.9768344E-01
          2   -1    0    0  501    0  0.00000000000E+00  0.00000000000E+00  0.17283704960E+04  0.17283704960E+04  0.25500000000E-02 0.  1.
         -2   -1    0    0    0  501 -0.00000000000E+00 -0.00000000000E+00 -0.65104506573E+02  0.65104506623E+02  0.25500000000E-02 0. -1.
    5000001    1    1    2    0    0 -0.10053055269E+02  0.26281620586E+03  0.99534238851E+03  0.10485613441E+04  0.19900000000E+03 0.  0.
   -5000001    1    1    2    0    0  0.10053055269E+02 -0.26281620586E+03  0.66792360087E+03  0.74491365847E+03  0.19900000000E+03 0.  0.
<mgrwt>
<rscale>  0 0.67089406E+03</rscale>
<asrwt>0</asrwt>
<pdfrwt beam="1">  1        2 0.24691006E+00 0.67089406E+03</pdfrwt>
<pdfrwt beam="2">  1       -2 0.93006444E-02 0.67089406E+03</pdfrwt>
<totfact> 0.87124984E+02</totfact>
</mgrwt>
</event>
<event>
 4    1  0.5131465E-005  0.6430335E+03  0.7818608E-02  0.9819940E-01
         -2   -1    0    0    0  501 -0.00000000000E+00  0.00000000000E+00  0.18972958917E+03  0.18972958919E+03  0.25500000000E-02 0. -1.
          2   -1    0    0  501    0  0.00000000000E+00 -0.00000000000E+00 -0.54484396550E+03  0.54484396551E+03  0.25500000000E-02 0.  1.
    5000001    1    1    2    0    0  0.60747615148E+01  0.24889211394E+03 -0.12925516066E+03  0.34393616220E+03  0.19900000000E+03 0.  0.
   -5000001    1    1    2    0    0 -0.60747615148E+01 -0.24889211394E+03 -0.22585921567E+03  0.39063739249E+03  0.19900000000E+03 0.  0.
<mgrwt>
<rscale>  0 0.64303350E+03</rscale>
<asrwt>0</asrwt>
<pdfrwt beam="1">  1        2 0.77834852E-01 0.64303350E+03</pdfrwt>
<pdfrwt beam="2">  1       -2 0.27104227E-01 0.64303350E+03</pdfrwt>
<totfact> 0.75464547E+02</totfact>
</mgrwt>
</event>
<event>
 4    1  0.5131465E-005  0.6317326E+03  0.7818608E-02  0.9841674E-01
          2   -1    0    0  501    0  0.00000000000E+00  0.00000000000E+00  0.18905381483E+04  0.18905381483E+04  0.25500000000E-02 0.  1.
         -2   -1    0    0    0  501 -0.00000000000E+00 -0.00000000000E+00 -0.52774138077E+02  0.52774138139E+02  0.25500000000E-02 0. -1.
    5000001    1    1    2    0    0  0.10407497490E+03 -0.18171903754E+03  0.52593773955E+03  0.60005409330E+03  0.19900000000E+03 0.  0.
   -5000001    1    1    2    0    0 -0.10407497490E+03  0.18171903754E+03  0.13118262707E+04  0.13432581932E+04  0.19900000000E+03 0.  0.
<mgrwt>
<rscale>  0 0.63173261E+03</rscale>
<asrwt>0</asrwt>
<pdfrwt beam="1">  1        2 0.27007688E+00 0.63173261E+03</pdfrwt>
<pdfrwt beam="2">  1       -2 0.75391624E-02 0.63173261E+03</pdfrwt>
<totfact> 0.10115271E+03</totfact>
</mgrwt>
</event>
<event>
 4    1  0.5131465E-005  0.4972165E+03  0.7818608E-02  0.1014508E+00
         -2   -1    0    0    0  501 -0.00000000000E+00  0.00000000000E+00  0.18469910176E+03  0.18469910178E+03  0.25500000000E-02 0. -1.
          2   -1    0    0  501    0  0.00000000000E+00 -0.00000000000E+00 -0.33463113185E+03  0.33463113186E+03  0.25500000000E-02 0.  1.
    5000001    1    1    2    0    0  0.14689184141E+03 -0.24569474311E+02 -0.80103870357E+02  0.26114842942E+03  0.19900000000E+03 0.  0.
   -5000001    1    1    2    0    0 -0.14689184141E+03  0.24569474311E+02 -0.69828159732E+02  0.25818180422E+03  0.19900000000E+03 0.  0.
<mgrwt>
<rscale>  0 0.49721653E+03</rscale>
<asrwt>0</asrwt>
<pdfrwt beam="1">  1        2 0.47804447E-01 0.49721653E+03</pdfrwt>
<pdfrwt beam="2">  1       -2 0.26385586E-01 0.49721653E+03</pdfrwt>
<totfact> 0.13687202E+03</totfact>
</mgrwt>
</event>
<event>
 4    1  0.5131465E-005  0.5644853E+03  0.7818608E-02  0.9981957E-01
          2   -1    0    0  501    0  0.00000000000E+00  0.00000000000E+00  0.10018872562E+03  0.10018872566E+03  0.25500000000E-02 0.  1.
         -2   -1    0    0    0  501 -0.00000000000E+00 -0.00000000000E+00 -0.79510851866E+03  0.79510851866E+03  0.25500000000E-02 0. -1.
    5000001    1    1    2    0    0  0.54201727953E+02  0.16231984123E+03 -0.18282943956E+03  0.31986428707E+03  0.19900000000E+03 0.  0.
   -5000001    1    1    2    0    0 -0.54201727953E+02 -0.16231984123E+03 -0.51209035347E+03  0.57543295725E+03  0.19900000000E+03 0.  0.
<mgrwt>
<rscale>  0 0.56448528E+03</rscale>
<asrwt>0</asrwt>
<pdfrwt beam="1">  1        2 0.14312675E-01 0.56448528E+03</pdfrwt>
<pdfrwt beam="2">  1       -2 0.11358693E+00 0.56448528E+03</pdfrwt>
<totfact> 0.26134535E+02</totfact>
</mgrwt>
</event>
<event>
 4    1  0.5131465E-005  0.6897896E+03  0.7818608E-02  0.9734854E-01
          2   -1    0    0  501    0  0.00000000000E+00  0.00000000000E+00  0.24160060134E+04  0.24160060134E+04  0.25500000000E-02 0.  1.
         -2   -1    0    0    0  501 -0.00000000000E+00 -0.00000000000E+00 -0.49235145746E+02  0.49235145813E+02  0.25500000000E-02 0. -1.
    5000001    1    1    2    0    0 -0.42816669040E+02  0.27748102012E+03  0.12650727458E+04  0.13110450167E+04  0.19900000000E+03 0.  0.
   -5000001    1    1    2    0    0  0.42816669040E+02 -0.27748102012E+03  0.11016981219E+04  0.11541961425E+04  0.19900000000E+03 0.  0.
<mgrwt>
<rscale>  0 0.68978956E+03</rscale>
<asrwt>0</asrwt>
<pdfrwt beam="1">  1        2 0.34514374E+00 0.68978956E+03</pdfrwt>
<pdfrwt beam="2">  1       -2 0.70335919E-02 0.68978956E+03</pdfrwt>
<totfact> 0.61015171E+02</totfact>
</mgrwt>
</event>
<event>
 4    1  0.5131465E-005  0.4703963E+03  0.7818608E-02  0.1021808E+00
          2   -1    0    0  501    0  0.00000000000E+00  0.00000000000E+00  0.21673025423E+04  0.21673025423E+04  0.25500000000E-02 0.  1.
         -2   -1    0    0    0  501 -0.00000000000E+00 -0.00000000000E+00 -0.25523975628E+02  0.25523975756E+02  0.25500000000E-02 0. -1.
    5000001    1    1    2    0    0  0.94050256506E+02 -0.64053775543E+02  0.13161846341E+04  0.13359982515E+04  0.19900000000E+03 0.  0.
   -5000001    1    1    2    0    0 -0.94050256506E+02  0.64053775543E+02  0.82559393257E+03  0.85682826658E+03  0.19900000000E+03 0.  0.
<mgrwt>
<rscale>  0 0.47039633E+03</rscale>
<asrwt>0</asrwt>
<pdfrwt beam="1">  1        2 0.30961468E+00 0.47039633E+03</pdfrwt>
<pdfrwt beam="2">  1       -2 0.36462819E-02 0.47039633E+03</pdfrwt>
<totfact> 0.22896795E+03</totfact>
</mgrwt>
</event>
<event>
 4    1  0.5131465E-005  0.9987108E+03  0.7818608E-02  0.9309960E-01
         -2   -1    0    0    0  501 -0.00000000000E+00  0.00000000000E+00  0.19785269116E+03  0.19785269118E+03  0.25500000000E-02 0. -1.
          2   -1    0    0  501    0  0.00000000000E+00 -0.00000000000E+00 -0.12603105621E+04  0.12603105621E+04  0.25500000000E-02 0.  1.
    5000001    1    1    2    0    0  0.38133182161E+03  0.23502110307E+03 -0.67055399552E+03  0.83059769923E+03  0.19900000000E+03 0.  0.
   -5000001    1    1    2    0    0 -0.38133182161E+03 -0.23502110307E+03 -0.39190387544E+03  0.62756555406E+03  0.19900000000E+03 0.  0.
<mgrwt>
<rscale>  0 0.99871084E+03</rscale>
<asrwt>0</asrwt>
<pdfrwt beam="1">  1        2 0.18004436E+00 0.99871084E+03</pdfrwt>
<pdfrwt beam="2">  1       -2 0.28264671E-01 0.99871084E+03</pdfrwt>
<totfact> 0.22531404E+02</totfact>
</mgrwt>
</event>
<event>
 4    1  0.5131465E-005  0.4411443E+03  0.7818608E-02  0.1030396E+00
         -2   -1    0    0    0  501 -0.00000000000E+00  0.00000000000E+00  0.27666071737E+02  0.27666071855E+02  0.25500000000E-02 0. -1.
          2   -1    0    0  501    0  0.00000000000E+00 -0.00000000000E+00 -0.17585467272E+04  0.17585467272E+04  0.25500000000E-02 0.  1.
    5000001    1    1    2    0    0 -0.77798626139E+02 -0.48625432540E+02 -0.76348630900E+03  0.79431064638E+03  0.19900000000E+03 0.  0.
   -5000001    1    1    2    0    0  0.77798626139E+02  0.48625432540E+02 -0.96739434643E+03  0.99190215265E+03  0.19900000000E+03 0.  0.
<mgrwt>
<rscale>  0 0.44114433E+03</rscale>
<asrwt>0</asrwt>
<pdfrwt beam="1">  1        2 0.25122089E+00 0.44114433E+03</pdfrwt>
<pdfrwt beam="2">  1       -2 0.39522971E-02 0.44114433E+03</pdfrwt>
<totfact> 0.32396019E+03</totfact>
</mgrwt>
</event>
<event>
 4    1  0.5131465E-005  0.7925866E+03  0.7818608E-02  0.9570810E-01
          2   -1    0    0  501    0  0.00000000000E+00  0.00000000000E+00  0.43341303298E+03  0.43341303299E+03  0.25500000000E-02 0.  1.
         -2   -1    0    0    0  501 -0.00000000000E+00 -0.00000000000E+00 -0.36235265456E+03  0.36235265457E+03  0.25500000000E-02 0. -1.
    5000001    1    1    2    0    0 -0.24929112339E+03  0.19986914738E+03 -0.88876559187E+02  0.38677355526E+03  0.19900000000E+03 0.  0.
   -5000001    1    1    2    0    0  0.24929112339E+03 -0.19986914738E+03  0.15993693761E+03  0.40899213230E+03  0.19900000000E+03 0.  0.
<mgrwt>
<rscale>  0 0.79258656E+03</rscale>
<asrwt>0</asrwt>
<pdfrwt beam="1">  1        2 0.61916148E-01 0.79258656E+03</pdfrwt>
<pdfrwt beam="2">  1       -2 0.51764665E-01 0.79258656E+03</pdfrwt>
<totfact> 0.28032858E+02</totfact>
</mgrwt>
</event>
<event>
 4    1  0.5131465E-005  0.8605344E+03  0.7818608E-02  0.9476306E-01
         -2   -1    0    0    0  501 -0.00000000000E+00  0.00000000000E+00  0.33315648067E+03  0.33315648068E+03  0.25500000000E-02 0. -1.
          2   -1    0    0  501    0  0.00000000000E+00 -0.00000000000E+00 -0.55568440553E+03  0.55568440554E+03  0.25500000000E-02 0.  1.
    5000001    1    1    2    0    0 -0.29971588798E+03  0.22490682535E+03 -0.37383745791E+02  0.42592398154E+03  0.19900000000E+03 0.  0.
   -5000001    1    1    2    0    0  0.29971588798E+03 -0.22490682535E+03 -0.18514417907E+03  0.46291690468E+03  0.19900000000E+03 0.  0.
<mgrwt>
<rscale>  0 0.86053439E+03</rscale>
<asrwt>0</asrwt>
<pdfrwt beam="1">  1        2 0.79383486E-01 0.86053439E+03</pdfrwt>
<pdfrwt beam="2">  1       -2 0.47593783E-01 0.86053439E+03</pdfrwt>
<totfact> 0.24951708E+02</totfact>
</mgrwt>
</event>
<event>
 4    1  0.5131465E-005  0.5980721E+03  0.7818608E-02  0.9909414E-01
          2   -1    0    0  501    0  0.00000000000E+00  0.00000000000E+00  0.69844833178E+03  0.69844833178E+03  0.25500000000E-02 0.  1.
         -2   -1    0    0    0  501 -0.00000000000E+00 -0.00000000000E+00 -0.12803029565E+03  0.12803029567E+03  0.25500000000E-02 0. -1.
    5000001    1    1    2    0    0 -0.21100132636E+03 -0.11734186511E+02  0.38449765496E+03  0.48176622705E+03  0.19900000000E+03 0.  0.
   -5000001    1    1    2    0    0  0.21100132636E+03  0.11734186511E+02  0.18592038117E+03  0.34471240041E+03  0.19900000000E+03 0.  0.
<mgrwt>
<rscale>  0 0.59807206E+03</rscale>
<asrwt>0</asrwt>
<pdfrwt beam="1">  1        2 0.99778334E-01 0.59807206E+03</pdfrwt>
<pdfrwt beam="2">  1       -2 0.18290042E-01 0.59807206E+03</pdfrwt>
<totfact> 0.11276906E+03</totfact>
</mgrwt>
</event>
<event>
 4    1  0.5131465E-005  0.6222582E+03  0.7818608E-02  0.9860274E-01
         -2   -1    0    0    0  501 -0.00000000000E+00  0.00000000000E+00  0.43960810554E+02  0.43960810628E+02  0.25500000000E-02 0. -1.
          2   -1    0    0  501    0  0.00000000000E+00 -0.00000000000E+00 -0.22019910733E+04  0.22019910733E+04  0.25500000000E-02 0.  1.
    5000001    1    1    2    0    0  0.13116306461E+03  0.19503962836E+03 -0.12386493757E+04  0.12763610312E+04  0.19900000000E+03 0.  0.
   -5000001    1    1    2    0    0 -0.13116306461E+03 -0.19503962836E+03 -0.91938088701E+03  0.96959085265E+03  0.19900000000E+03 0.  0.
<mgrwt>
<rscale>  0 0.62225819E+03</rscale>
<asrwt>0</asrwt>
<pdfrwt beam="1">  1        2 0.31457008E+00 0.62225819E+03</pdfrwt>
<pdfrwt beam="2">  1       -2 0.62801172E-02 0.62225819E+03</pdfrwt>
<totfact> 0.94156431E+02</totfact>
</mgrwt>
</event>
<event>
 4    1  0.5131465E-005  0.7054241E+03  0.7818608E-02  0.9708001E-01
         -2   -1    0    0    0  501 -0.00000000000E+00  0.00000000000E+00  0.69288951911E+02  0.69288951958E+02  0.25500000000E-02 0. -1.
          2   -1    0    0  501    0  0.00000000000E+00 -0.00000000000E+00 -0.17954633645E+04  0.17954633645E+04  0.25500000000E-02 0.  1.
    5000001    1    1    2    0    0 -0.16414523851E+03  0.24044234953E+03 -0.84466026512E+03  0.91531860369E+03  0.19900000000E+03 0.  0.
   -5000001    1    1    2    0    0  0.16414523851E+03 -0.24044234953E+03 -0.88151414749E+03  0.94943371280E+03  0.19900000000E+03 0.  0.
<mgrwt>
<rscale>  0 0.70542406E+03</rscale>
<asrwt>0</asrwt>
<pdfrwt beam="1">  1        2 0.25649474E+00 0.70542406E+03</pdfrwt>
<pdfrwt beam="2">  1       -2 0.98984228E-02 0.70542406E+03</pdfrwt>
<totfact> 0.72676768E+02</totfact>
</mgrwt>
</event>
<event>
 4    1  0.5131465E-005  0.8080499E+03  0.7818608E-02  0.9548438E-01
          2   -1    0    0  501    0  0.00000000000E+00  0.00000000000E+00  0.11385891169E+04  0.11385891169E+04  0.25500000000E-02 0.  1.
         -2   -1    0    0    0  501 -0.00000000000E+00 -0.00000000000E+00 -0.14336705068E+03  0.14336705070E+03  0.25500000000E-02 0. -1.
    5000001    1    1    2    0    0 -0.22762026085E+03 -0.77263705740E+02  0.90473598476E+03  0.95704172610E+03  0.19900000000E+03 0.  0.
   -5000001    1    1    2    0    0  0.22762026085E+03  0.77263705740E+02  0.90486081487E+02  0.32491444153E+03  0.19900000000E+03 0.  0.
<mgrwt>
<rscale>  0 0.80804991E+03</rscale>
<asrwt>0</asrwt>
<pdfrwt beam="1">  1        2 0.16265559E+00 0.80804991E+03</pdfrwt>
<pdfrwt beam="2">  1       -2 0.20481007E-01 0.80804991E+03</pdfrwt>
<totfact> 0.47597837E+02</totfact>
</mgrwt>
</event>
<event>
 4    1  0.5131465E-005  0.5777151E+03  0.7818608E-02  0.9952750E-01
          2   -1    0    0  501    0  0.00000000000E+00  0.00000000000E+00  0.20559522147E+03  0.20559522149E+03  0.25500000000E-02 0.  1.
         -2   -1    0    0    0  501 -0.00000000000E+00 -0.00000000000E+00 -0.40583962219E+03  0.40583962219E+03  0.25500000000E-02 0. -1.
    5000001    1    1    2    0    0  0.30959757009E+02  0.18247817257E+03 -0.20371737890E+03  0.33964475630E+03  0.19900000000E+03 0.  0.
   -5000001    1    1    2    0    0 -0.30959757009E+02 -0.18247817257E+03  0.34729781866E+01  0.27179008738E+03  0.19900000000E+03 0.  0.
<mgrwt>
<rscale>  0 0.57771511E+03</rscale>
<asrwt>0</asrwt>
<pdfrwt beam="1">  1        2 0.29370746E-01 0.57771511E+03</pdfrwt>
<pdfrwt beam="2">  1       -2 0.57977088E-01 0.57771511E+03</pdfrwt>
<totfact> 0.51168473E+02</totfact>
</mgrwt>
</event>
<event>
 4    1  0.5131465E-005  0.4489621E+03  0.7818608E-02  0.1028032E+00
         -2   -1    0    0    0  501 -0.00000000000E+00  0.00000000000E+00  0.22133144947E+02  0.22133145093E+02  0.25500000000E-02 0. -1.
          2   -1    0    0  501    0  0.00000000000E+00 -0.00000000000E+00 -0.22767548275E+04  0.22767548275E+04  0.25500000000E-02 0.  1.
    5000001    1    1    2    0    0  0.35921464171E+02  0.51498700321E+02 -0.70357151136E+03  0.73386397876E+03  0.19900000000E+03 0.  0.
   -5000001    1    1    2    0    0 -0.35921464171E+02 -0.51498700321E+02 -0.15510501712E+04  0.15650239939E+04  0.19900000000E+03 0.  0.
<mgrwt>
<rscale>  0 0.44896211E+03</rscale>
<asrwt>0</asrwt>
<pdfrwt beam="1">  1        2 0.32525054E+00 0.44896211E+03</pdfrwt>
<pdfrwt beam="2">  1       -2 0.31618793E-02 0.44896211E+03</pdfrwt>
<totfact> 0.25085788E+03</totfact>
</mgrwt>
</event>
<event>
 4    1  0.5131465E-005  0.5673714E+03  0.7818608E-02  0.9975512E-01
         -2   -1    0    0    0  501 -0.00000000000E+00  0.00000000000E+00  0.67901646233E+02  0.67901646281E+02  0.25500000000E-02 0. -1.
          2   -1    0    0  501    0  0.00000000000E+00 -0.00000000000E+00 -0.11852081028E+04  0.11852081028E+04  0.25500000000E-02 0.  1.
    5000001    1    1    2    0    0 -0.42201407527E+02  0.15618739619E+03 -0.82644477510E+03  0.86532504171E+03  0.19900000000E+03 0.  0.
   -5000001    1    1    2    0    0  0.42201407527E+02 -0.15618739619E+03 -0.29086168146E+03  0.38778470737E+03  0.19900000000E+03 0.  0.
<mgrwt>
<rscale>  0 0.56737142E+03</rscale>
<asrwt>0</asrwt>
<pdfrwt beam="1">  1        2 0.16931543E+00 0.56737142E+03</pdfrwt>
<pdfrwt beam="2">  1       -2 0.97002359E-02 0.56737142E+03</pdfrwt>
<totfact> 0.15836015E+03</totfact>
</mgrwt>
</event>
<event>
 4    1  0.5131465E-005  0.4927134E+03  0.7818608E-02  0.1015699E+00
         -2   -1    0    0    0  501 -0.00000000000E+00  0.00000000000E+00  0.18592133629E+02  0.18592133804E+02  0.25500000000E-02 0. -1.
          2   -1    0    0  501    0  0.00000000000E+00 -0.00000000000E+00 -0.32643712585E+04  0.32643712585E+04  0.25500000000E-02 0.  1.
    5000001    1    1    2    0    0  0.91720944577E+02 -0.51779940804E+02 -0.22890835379E+04  0.23001300697E+04  0.19900000000E+03 0.  0.
   -5000001    1    1    2    0    0 -0.91720944577E+02  0.51779940804E+02 -0.95669558702E+03  0.98283332268E+03  0.19900000000E+03 0.  0.
<mgrwt>
<rscale>  0 0.49271341E+03</rscale>
<asrwt>0</asrwt>
<pdfrwt beam="1">  1        2 0.46633839E+00 0.49271341E+03</pdfrwt>
<pdfrwt beam="2">  1       -2 0.26560212E-02 0.49271341E+03</pdfrwt>
<totfact> 0.98248727E+02</totfact>
</mgrwt>
</event>
<event>
 4    1  0.5131465E-005  0.6913699E+03  0.7818608E-02  0.9732106E-01
         -2   -1    0    0    0  501 -0.00000000000E+00  0.00000000000E+00  0.46873967093E+02  0.46873967162E+02  0.25500000000E-02 0. -1.
          2   -1    0    0  501    0  0.00000000000E+00 -0.00000000000E+00 -0.25493486112E+04  0.25493486112E+04  0.25500000000E-02 0.  1.
    5000001    1    1    2    0    0 -0.46793835590E+02  0.27781665601E+03 -0.13373061201E+04  0.13810721981E+04  0.19900000000E+03 0.  0.
   -5000001    1    1    2    0    0  0.46793835590E+02 -0.27781665601E+03 -0.11651685240E+04  0.12151503803E+04  0.19900000000E+03 0.  0.
<mgrwt>
<rscale>  0 0.69136990E+03</rscale>
<asrwt>0</asrwt>
<pdfrwt beam="1">  1        2 0.36419257E+00 0.69136990E+03</pdfrwt>
<pdfrwt beam="2">  1       -2 0.66962826E-02 0.69136990E+03</pdfrwt>
<totfact> 0.56303010E+02</totfact>
</mgrwt>
</event>
<event>
 4    1  0.5131465E-005  0.5182958E+03  0.7818608E-02  0.1009111E+00
         -2   -1    0    0    0  501 -0.00000000000E+00  0.00000000000E+00  0.48165459768E+02  0.48165459836E+02  0.25500000000E-02 0. -1.
          2   -1    0    0  501    0  0.00000000000E+00 -0.00000000000E+00 -0.13943108347E+04  0.13943108347E+04  0.25500000000E-02 0.  1.
    5000001    1    1    2    0    0 -0.84136053454E+02 -0.13967637792E+03 -0.58647102553E+03  0.64041988556E+03  0.19900000000E+03 0.  0.
   -5000001    1    1    2    0    0  0.84136053454E+02  0.13967637792E+03 -0.75967434943E+03  0.80205640900E+03  0.19900000000E+03 0.  0.
<mgrwt>
<rscale>  0 0.51829576E+03</rscale>
<asrwt>0</asrwt>
<pdfrwt beam="1">  1        2 0.19918724E+00 0.51829576E+03</pdfrwt>
<pdfrwt beam="2">  1       -2 0.68807808E-02 0.51829576E+03</pdfrwt>
<totfact> 0.21083178E+03</totfact>
</mgrwt>
</event>
<event>
 4    1  0.5131465E-005  0.5679764E+03  0.7818608E-02  0.9974167E-01
          2   -1    0    0  501    0  0.00000000000E+00  0.00000000000E+00  0.99924138427E+03  0.99924138427E+03  0.25500000000E-02 0.  1.
         -2   -1    0    0    0  501 -0.00000000000E+00 -0.00000000000E+00 -0.80710522971E+02  0.80710523011E+02  0.25500000000E-02 0. -1.
    5000001    1    1    2    0    0  0.57544161255E+02  0.13247357566E+03  0.18910749678E+03  0.31019868485E+03  0.19900000000E+03 0.  0.
   -5000001    1    1    2    0    0 -0.57544161255E+02 -0.13247357566E+03  0.72942336452E+03  0.76975322243E+03  0.19900000000E+03 0.  0.
<mgrwt>
<rscale>  0 0.56797639E+03</rscale>
<asrwt>0</asrwt>
<pdfrwt beam="1">  1        2 0.14274878E+00 0.56797639E+03</pdfrwt>
<pdfrwt beam="2">  1       -2 0.11530074E-01 0.56797639E+03</pdfrwt>
<totfact> 0.15348749E+03</totfact>
</mgrwt>
</event>
<event>
 4    1  0.5131465E-005  0.5504782E+03  0.7818608E-02  0.1001383E+00
         -2   -1    0    0    0  501 -0.00000000000E+00  0.00000000000E+00  0.69703432554E+03  0.69703432555E+03  0.25500000000E-02 0. -1.
          2   -1    0    0  501    0  0.00000000000E+00 -0.00000000000E+00 -0.10868411905E+03  0.10868411908E+03  0.25500000000E-02 0.  1.
    5000001    1    1    2    0    0 -0.11218732986E+02  0.18963800309E+03  0.28218287960E+03  0.39410228333E+03  0.19900000000E+03 0.  0.
   -5000001    1    1    2    0    0  0.11218732986E+02 -0.18963800309E+03  0.30616732689E+03  0.41161616130E+03  0.19900000000E+03 0.  0.
<mgrwt>
<rscale>  0 0.55047820E+03</rscale>
<asrwt>0</asrwt>
<pdfrwt beam="1">  1        2 0.15526303E-01 0.55047820E+03</pdfrwt>
<pdfrwt beam="2">  1       -2 0.99576333E-01 0.55047820E+03</pdfrwt>
<totfact> 0.32452154E+02</totfact>
</mgrwt>
</event>
<event>
 4    1  0.5131465E-005  0.5377971E+03  0.7818608E-02  0.1004359E+00
         -2   -1    0    0    0  501 -0.00000000000E+00  0.00000000000E+00  0.63159801872E+02  0.63159801923E+02  0.25500000000E-02 0. -1.
          2   -1    0    0  501    0  0.00000000000E+00 -0.00000000000E+00 -0.11448171937E+04  0.11448171937E+04  0.25500000000E-02 0.  1.
    5000001    1    1    2    0    0 -0.46542992186E+02  0.12265433014E+03 -0.26122860954E+03  0.35362652795E+03  0.19900000000E+03 0.  0.
   -5000001    1    1    2    0    0  0.46542992186E+02 -0.12265433014E+03 -0.82042878230E+03  0.85435046769E+03  0.19900000000E+03 0.  0.
<mgrwt>
<rscale>  0 0.53779709E+03</rscale>
<asrwt>0</asrwt>
<pdfrwt beam="1">  1        2 0.16354530E+00 0.53779709E+03</pdfrwt>
<pdfrwt beam="2">  1       -2 0.90228295E-02 0.53779709E+03</pdfrwt>
<totfact> 0.18763946E+03</totfact>
</mgrwt>
</event>
<event>
 4    1  0.5131465E-005  0.6758444E+03  0.7818608E-02  0.9759457E-01
         -2   -1    0    0    0  501 -0.00000000000E+00  0.00000000000E+00  0.99713558240E+02  0.99713558273E+02  0.25500000000E-02 0. -1.
          2   -1    0    0  501    0  0.00000000000E+00 -0.00000000000E+00 -0.11451944216E+04  0.11451944216E+04  0.25500000000E-02 0.  1.
    5000001    1    1    2    0    0  0.79481494993E+02 -0.25384598546E+03 -0.63681563258E+03  0.71825499809E+03  0.19900000000E+03 0.  0.
   -5000001    1    1    2    0    0 -0.79481494993E+02  0.25384598546E+03 -0.40866523078E+03  0.52665298179E+03  0.19900000000E+03 0.  0.
<mgrwt>
<rscale>  0 0.67584439E+03</rscale>
<asrwt>0</asrwt>
<pdfrwt beam="1">  1        2 0.16359920E+00 0.67584439E+03</pdfrwt>
<pdfrwt beam="2">  1       -2 0.14244795E-01 0.67584439E+03</pdfrwt>
<totfact> 0.88416382E+02</totfact>
</mgrwt>
</event>
<event>
 4    1  0.5131465E-005  0.6660265E+03  0.7818608E-02  0.9777163E-01
          2   -1    0    0  501    0  0.00000000000E+00  0.00000000000E+00  0.26379561643E+04  0.26379561643E+04  0.25500000000E-02 0.  1.
         -2   -1    0    0    0  501 -0.00000000000E+00 -0.00000000000E+00 -0.42039293560E+02  0.42039293637E+02  0.25500000000E-02 0. -1.
    5000001    1    1    2    0    0  0.57464377535E+02  0.23265947706E+03  0.82416351920E+03  0.88106701977E+03  0.19900000000E+03 0.  0.
   -5000001    1    1    2    0    0 -0.57464377535E+02 -0.23265947706E+03  0.17717533516E+04  0.17989284382E+04  0.19900000000E+03 0.  0.
<mgrwt>
<rscale>  0 0.66602647E+03</rscale>
<asrwt>0</asrwt>
<pdfrwt beam="1">  1        2 0.37685099E+00 0.66602647E+03</pdfrwt>
<pdfrwt beam="2">  1       -2 0.60056117E-02 0.66602647E+03</pdfrwt>
<totfact> 0.60235397E+02</totfact>
</mgrwt>
</event>
<event>
 4    1  0.5131465E-005  0.8135458E+03  0.7818608E-02  0.9540614E-01
         -2   -1    0    0    0  501 -0.00000000000E+00  0.00000000000E+00  0.15363417695E+03  0.15363417697E+03  0.25500000000E-02 0. -1.
          2   -1    0    0  501    0  0.00000000000E+00 -0.00000000000E+00 -0.10770011635E+04  0.10770011635E+04  0.25500000000E-02 0.  1.
    5000001    1    1    2    0    0 -0.37846904171E+02 -0.31062500016E+03 -0.71454527029E+03  0.80504423616E+03  0.19900000000E+03 0.  0.
   -5000001    1    1    2    0    0  0.37846904171E+02  0.31062500016E+03 -0.20882171623E+03  0.42559110429E+03  0.19900000000E+03 0.  0.
<mgrwt>
<rscale>  0 0.81354579E+03</rscale>
<asrwt>0</asrwt>
<pdfrwt beam="1">  1        2 0.15385731E+00 0.81354579E+03</pdfrwt>
<pdfrwt beam="2">  1       -2 0.21947740E-01 0.81354579E+03</pdfrwt>
<totfact> 0.45768687E+02</totfact>
</mgrwt>
</event>
<event>
 4    1  0.5131465E-005  0.7041238E+03  0.7818608E-02  0.9710206E-01
          2   -1    0    0  501    0  0.00000000000E+00  0.00000000000E+00  0.29703434399E+04  0.29703434399E+04  0.25500000000E-02 0.  1.
         -2   -1    0    0    0  501 -0.00000000000E+00 -0.00000000000E+00 -0.41728366491E+02  0.41728366569E+02  0.25500000000E-02 0. -1.
    5000001    1    1    2    0    0 -0.88862862204E+02  0.25080197773E+03  0.96638780752E+03  0.10219122442E+04  0.19900000000E+03 0.  0.
   -5000001    1    1    2    0    0  0.88862862204E+02 -0.25080197773E+03  0.19622272659E+04  0.19901595622E+04  0.19900000000E+03 0.  0.
<mgrwt>
<rscale>  0 0.70412380E+03</rscale>
<asrwt>0</asrwt>
<pdfrwt beam="1">  1        2 0.42433487E+00 0.70412380E+03</pdfrwt>
<pdfrwt beam="2">  1       -2 0.59611939E-02 0.70412380E+03</pdfrwt>
<totfact> 0.40413008E+02</totfact>
</mgrwt>
</event>
<event>
 4    1  0.5131465E-005  0.6604312E+03  0.7818608E-02  0.9787400E-01
         -2   -1    0    0    0  501 -0.00000000000E+00  0.00000000000E+00  0.59980028944E+03  0.59980028945E+03  0.25500000000E-02 0. -1.
          2   -1    0    0  501    0  0.00000000000E+00 -0.00000000000E+00 -0.18179777004E+03  0.18179777006E+03  0.25500000000E-02 0.  1.
    5000001    1    1    2    0    0  0.74601020317E+02  0.23605591893E+03  0.10213716977E+03  0.33364758435E+03  0.19900000000E+03 0.  0.
   -5000001    1    1    2    0    0 -0.74601020317E+02 -0.23605591893E+03  0.31586534963E+03  0.44795047515E+03  0.19900000000E+03 0.  0.
<mgrwt>
<rscale>  0 0.66043124E+03</rscale>
<asrwt>0</asrwt>
<pdfrwt beam="1">  1        2 0.25971109E-01 0.66043124E+03</pdfrwt>
<pdfrwt beam="2">  1       -2 0.85685758E-01 0.66043124E+03</pdfrwt>
<totfact> 0.25068849E+02</totfact>
</mgrwt>
</event>
<event>
 4    1  0.5131465E-005  0.4129327E+03  0.7818608E-02  0.1039391E+00
         -2   -1    0    0    0  501 -0.00000000000E+00  0.00000000000E+00  0.65727280827E+02  0.65727280877E+02  0.25500000000E-02 0. -1.
          2   -1    0    0  501    0  0.00000000000E+00 -0.00000000000E+00 -0.64856414687E+03  0.64856414687E+03  0.25500000000E-02 0.  1.
    5000001    1    1    2    0    0 -0.54771074467E+02  0.47229542288E+01 -0.29535575035E+03  0.36035842735E+03  0.19900000000E+03 0.  0.
   -5000001    1    1    2    0    0  0.54771074467E+02 -0.47229542288E+01 -0.28748111569E+03  0.35393300040E+03  0.19900000000E+03 0.  0.
<mgrwt>
<rscale>  0 0.41293272E+03</rscale>
<asrwt>0</asrwt>
<pdfrwt beam="1">  1        2 0.92652017E-01 0.41293272E+03</pdfrwt>
<pdfrwt beam="2">  1       -2 0.93896119E-02 0.41293272E+03</pdfrwt>
<totfact> 0.37128162E+03</totfact>
</mgrwt>
</event>
<event>
 4    1  0.5131465E-005  0.5544682E+03  0.7818608E-02  0.1000465E+00
          2   -1    0    0  501    0  0.00000000000E+00  0.00000000000E+00  0.28162684243E+03  0.28162684245E+03  0.25500000000E-02 0.  1.
         -2   -1    0    0    0  501 -0.00000000000E+00 -0.00000000000E+00 -0.27290988478E+03  0.27290988479E+03  0.25500000000E-02 0. -1.
    5000001    1    1    2    0    0 -0.39705585479E+02 -0.18060507310E+03 -0.50992946013E+02  0.27639827512E+03  0.19900000000E+03 0.  0.
   -5000001    1    1    2    0    0  0.39705585479E+02  0.18060507310E+03  0.59709903667E+02  0.27813845211E+03  0.19900000000E+03 0.  0.
<mgrwt>
<rscale>  0 0.55446821E+03</rscale>
<asrwt>0</asrwt>
<pdfrwt beam="1">  1        2 0.40232406E-01 0.55446821E+03</pdfrwt>
<pdfrwt beam="2">  1       -2 0.38987126E-01 0.55446821E+03</pdfrwt>
<totfact> 0.79913748E+02</totfact>
</mgrwt>
</event>
<event>
 4    1  0.5131465E-005  0.8206664E+03  0.7818608E-02  0.9530576E-01
         -2   -1    0    0    0  501 -0.00000000000E+00  0.00000000000E+00  0.16975427099E+03  0.16975427100E+03  0.25500000000E-02 0. -1.
          2   -1    0    0  501    0  0.00000000000E+00 -0.00000000000E+00 -0.99186515430E+03  0.99186515430E+03  0.25500000000E-02 0.  1.
    5000001    1    1    2    0    0 -0.16774189821E+03  0.29941911273E+03 -0.55939657058E+03  0.68579492026E+03  0.19900000000E+03 0.  0.
   -5000001    1    1    2    0    0  0.16774189821E+03 -0.29941911273E+03 -0.26271431273E+03  0.47582450504E+03  0.19900000000E+03 0.  0.
<mgrwt>
<rscale>  0 0.82066643E+03</rscale>
<asrwt>0</asrwt>
<pdfrwt beam="1">  1        2 0.14169502E+00 0.82066643E+03</pdfrwt>
<pdfrwt beam="2">  1       -2 0.24250611E-01 0.82066643E+03</pdfrwt>
<totfact> 0.43116656E+02</totfact>
</mgrwt>
</event>
<event>
 4    1  0.5131465E-005  0.4884134E+03  0.7818608E-02  0.1016848E+00
         -2   -1    0    0    0  501 -0.00000000000E+00  0.00000000000E+00  0.16448857461E+03  0.16448857463E+03  0.25500000000E-02 0. -1.
          2   -1    0    0  501    0  0.00000000000E+00 -0.00000000000E+00 -0.36255955929E+03  0.36255955929E+03  0.25500000000E-02 0.  1.
    5000001    1    1    2    0    0 -0.13777267696E+03 -0.24186394768E+01 -0.64089478507E+02  0.25039093751E+03  0.19900000000E+03 0.  0.
   -5000001    1    1    2    0    0  0.13777267696E+03  0.24186394768E+01 -0.13398150617E+03  0.27665719641E+03  0.19900000000E+03 0.  0.
<mgrwt>
<rscale>  0 0.48841337E+03</rscale>
<asrwt>0</asrwt>
<pdfrwt beam="1">  1        2 0.51794222E-01 0.48841337E+03</pdfrwt>
<pdfrwt beam="2">  1       -2 0.23498368E-01 0.48841337E+03</pdfrwt>
<totfact> 0.15416216E+03</totfact>
</mgrwt>
</event>
<event>
 4    1  0.5131465E-005  0.1027901E+04  0.7818608E-02  0.9278462E-01
         -2   -1    0    0    0  501 -0.00000000000E+00  0.00000000000E+00  0.49633369712E+03  0.49633369712E+03  0.25500000000E-02 0. -1.
          2   -1    0    0  501    0  0.00000000000E+00 -0.00000000000E+00 -0.53219269925E+03  0.53219269926E+03  0.25500000000E-02 0.  1.
    5000001    1    1    2    0    0 -0.43322843920E+03 -0.19175069564E+03 -0.84918924100E+01  0.51393416120E+03  0.19900000000E+03 0.  0.
   -5000001    1    1    2    0    0  0.43322843920E+03  0.19175069564E+03 -0.27367109722E+02  0.51459223518E+03  0.19900000000E+03 0.  0.
<mgrwt>
<rscale>  0 0.10279011E+04</rscale>
<asrwt>0</asrwt>
<pdfrwt beam="1">  1        2 0.76027529E-01 0.10279011E+04</pdfrwt>
<pdfrwt beam="2">  1       -2 0.70904814E-01 0.10279011E+04</pdfrwt>
<totfact> 0.11267181E+02</totfact>
</mgrwt>
</event>
<event>
 4    1  0.5131465E-005  0.7459045E+03  0.7818608E-02  0.9641798E-01
         -2   -1    0    0    0  501 -0.00000000000E+00  0.00000000000E+00  0.18183317456E+03  0.18183317458E+03  0.25500000000E-02 0. -1.
          2   -1    0    0  501    0  0.00000000000E+00 -0.00000000000E+00 -0.76495054768E+03  0.76495054769E+03  0.25500000000E-02 0.  1.
    5000001    1    1    2    0    0  0.27943920353E+03  0.10356738693E+03 -0.16038357813E+03  0.39260204309E+03  0.19900000000E+03 0.  0.
   -5000001    1    1    2    0    0 -0.27943920353E+03 -0.10356738693E+03 -0.42273379499E+03  0.55418167918E+03  0.19900000000E+03 0.  0.
<mgrwt>
<rscale>  0 0.74590452E+03</rscale>
<asrwt>0</asrwt>
<pdfrwt beam="1">  1        2 0.10927865E+00 0.74590452E+03</pdfrwt>
<pdfrwt beam="2">  1       -2 0.25976168E-01 0.74590452E+03</pdfrwt>
<totfact> 0.54007402E+02</totfact>
</mgrwt>
</event>
<event>
 4    1  0.5131465E-005  0.1203220E+04  0.7818608E-02  0.9110043E-01
          2   -1    0    0  501    0  0.00000000000E+00  0.00000000000E+00  0.17686758518E+04  0.17686758518E+04  0.25500000000E-02 0.  1.
         -2   -1    0    0    0  501 -0.00000000000E+00 -0.00000000000E+00 -0.20463599581E+03  0.20463599582E+03  0.25500000000E-02 0. -1.
    5000001    1    1    2    0    0 -0.41732248043E+03  0.21694930318E+02  0.14123212530E+04  0.14862304815E+04  0.19900000000E+03 0.  0.
   -5000001    1    1    2    0    0  0.41732248043E+03 -0.21694930318E+02  0.15171860302E+03  0.48708136607E+03  0.19900000000E+03 0.  0.
<mgrwt>
<rscale>  0 0.12032203E+04</rscale>
<asrwt>0</asrwt>
<pdfrwt beam="1">  1        2 0.25266798E+00 0.12032203E+04</pdfrwt>
<pdfrwt beam="2">  1       -2 0.29233713E-01 0.12032203E+04</pdfrwt>
<totfact> 0.11210943E+02</totfact>
</mgrwt>
</event>
<event>
 4    1  0.5131465E-005  0.1120680E+04  0.7818608E-02  0.9185267E-01
         -2   -1    0    0    0  501 -0.00000000000E+00  0.00000000000E+00  0.17165128963E+03  0.17165128965E+03  0.25500000000E-02 0. -1.
          2   -1    0    0  501    0  0.00000000000E+00 -0.00000000000E+00 -0.18291773289E+04  0.18291773289E+04  0.25500000000E-02 0.  1.
    5000001    1    1    2    0    0  0.15557308390E+03 -0.49891526785E+03 -0.89214289625E+03  0.10529194538E+04  0.19900000000E+03 0.  0.
   -5000001    1    1    2    0    0 -0.15557308390E+03  0.49891526785E+03 -0.76538314297E+03  0.94790916467E+03  0.19900000000E+03 0.  0.
<mgrwt>
<rscale>  0 0.11206795E+04</rscale>
<asrwt>0</asrwt>
<pdfrwt beam="1">  1        2 0.26131104E+00 0.11206795E+04</pdfrwt>
<pdfrwt beam="2">  1       -2 0.24521614E-01 0.11206795E+04</pdfrwt>
<totfact> 0.14475162E+02</totfact>
</mgrwt>
</event>
<event>
 4    1  0.5131465E-005  0.4609063E+03  0.7818608E-02  0.1024519E+00
         -2   -1    0    0    0  501 -0.00000000000E+00  0.00000000000E+00  0.24921151277E+02  0.24921151408E+02  0.25500000000E-02 0. -1.
          2   -1    0    0  501    0  0.00000000000E+00 -0.00000000000E+00 -0.21310676673E+04  0.21310676673E+04  0.25500000000E-02 0.  1.
    5000001    1    1    2    0    0 -0.10906337927E+03  0.39013746026E+02 -0.10085079088E+04  0.10344593250E+04  0.19900000000E+03 0.  0.
   -5000001    1    1    2    0    0  0.10906337927E+03 -0.39013746026E+02 -0.10976386073E+04  0.11215294937E+04  0.19900000000E+03 0.  0.
<mgrwt>
<rscale>  0 0.46090632E+03</rscale>
<asrwt>0</asrwt>
<pdfrwt beam="1">  1        2 0.30443812E+00 0.46090632E+03</pdfrwt>
<pdfrwt beam="2">  1       -2 0.35601658E-02 0.46090632E+03</pdfrwt>
<totfact> 0.24762881E+03</totfact>
</mgrwt>
</event>
<event>
 4    1  0.5131465E-005  0.5979364E+03  0.7818608E-02  0.9909697E-01
          2   -1    0    0  501    0  0.00000000000E+00  0.00000000000E+00  0.11434748199E+04  0.11434748199E+04  0.25500000000E-02 0.  1.
         -2   -1    0    0    0  501 -0.00000000000E+00 -0.00000000000E+00 -0.78166998086E+02  0.78166998127E+02  0.25500000000E-02 0. -1.
    5000001    1    1    2    0    0 -0.12806576853E+02  0.19466029510E+03  0.75387848049E+03  0.80373528120E+03  0.19900000000E+03 0.  0.
   -5000001    1    1    2    0    0  0.12806576853E+02 -0.19466029510E+03  0.31142934137E+03  0.41790653687E+03  0.19900000000E+03 0.  0.
<mgrwt>
<rscale>  0 0.59793643E+03</rscale>
<asrwt>0</asrwt>
<pdfrwt beam="1">  1        2 0.16335354E+00 0.59793643E+03</pdfrwt>
<pdfrwt beam="2">  1       -2 0.11166715E-01 0.59793643E+03</pdfrwt>
<totfact> 0.13293446E+03</totfact>
</mgrwt>
</event>
<event>
 4    1  0.5131465E-005  0.1072386E+04  0.7818608E-02  0.9232532E-01
          2   -1    0    0  501    0  0.00000000000E+00  0.00000000000E+00  0.11955350528E+04  0.11955350528E+04  0.25500000000E-02 0.  1.
         -2   -1    0    0    0  501 -0.00000000000E+00 -0.00000000000E+00 -0.24048052498E+03  0.24048052499E+03  0.25500000000E-02 0. -1.
    5000001    1    1    2    0    0 -0.12713306210E+03  0.45024637471E+03  0.24942141521E+03  0.56630085272E+03  0.19900000000E+03 0.  0.
   -5000001    1    1    2    0    0  0.12713306210E+03 -0.45024637471E+03  0.70563311265E+03  0.86971472512E+03  0.19900000000E+03 0.  0.
<mgrwt>
<rscale>  0 0.10723859E+04</rscale>
<asrwt>0</asrwt>
<pdfrwt beam="1">  1        2 0.17079072E+00 0.10723859E+04</pdfrwt>
<pdfrwt beam="2">  1       -2 0.34354360E-01 0.10723859E+04</pdfrwt>
<totfact> 0.16938281E+02</totfact>
</mgrwt>
</event>
<event>
 4    1  0.5131465E-005  0.5906185E+03  0.7818608E-02  0.9925063E-01
         -2   -1    0    0    0  501 -0.00000000000E+00  0.00000000000E+00  0.76283498553E+03  0.76283498554E+03  0.25500000000E-02 0. -1.
          2   -1    0    0  501    0  0.00000000000E+00 -0.00000000000E+00 -0.11432032798E+03  0.11432032801E+03  0.25500000000E-02 0.  1.
    5000001    1    1    2    0    0  0.20970362148E+03 -0.82956122454E+01  0.23561855777E+03  0.37304360443E+03  0.19900000000E+03 0.  0.
   -5000001    1    1    2    0    0 -0.20970362148E+03  0.82956122454E+01  0.41289609979E+03  0.50411170911E+03  0.19900000000E+03 0.  0.
<mgrwt>
<rscale>  0 0.59061847E+03</rscale>
<asrwt>0</asrwt>
<pdfrwt beam="1">  1        2 0.16331475E-01 0.59061847E+03</pdfrwt>
<pdfrwt beam="2">  1       -2 0.10897643E+00 0.59061847E+03</pdfrwt>
<totfact> 0.24611617E+02</totfact>
</mgrwt>
</event>
<event>
 4    1  0.5131465E-005  0.7351449E+03  0.7818608E-02  0.9658948E-01
         -2   -1    0    0    0  501 -0.00000000000E+00  0.00000000000E+00  0.34547517246E+03  0.34547517247E+03  0.25500000000E-02 0. -1.
          2   -1    0    0  501    0  0.00000000000E+00 -0.00000000000E+00 -0.39108315526E+03  0.39108315526E+03  0.25500000000E-02 0.  1.
    5000001    1    1    2    0    0 -0.25797873201E+03 -0.16974121899E+03 -0.10805453863E+02  0.36753620968E+03  0.19900000000E+03 0.  0.
   -5000001    1    1    2    0    0  0.25797873201E+03  0.16974121899E+03 -0.34802528935E+02  0.36902211805E+03  0.19900000000E+03 0.  0.
<mgrwt>
<rscale>  0 0.73514494E+03</rscale>
<asrwt>0</asrwt>
<pdfrwt beam="1">  1        2 0.55869022E-01 0.73514494E+03</pdfrwt>
<pdfrwt beam="2">  1       -2 0.49353596E-01 0.73514494E+03</pdfrwt>
<totfact> 0.34731158E+02</totfact>
</mgrwt>
</event>
<event>
 4    1  0.5131465E-005  0.8795134E+03  0.7818608E-02  0.9451559E-01
         -2   -1    0    0    0  501 -0.00000000000E+00  0.00000000000E+00  0.86422616798E+02  0.86422616836E+02  0.25500000000E-02 0. -1.
          2   -1    0    0  501    0  0.00000000000E+00 -0.00000000000E+00 -0.22376775263E+04  0.22376775263E+04  0.25500000000E-02 0.  1.
    5000001    1    1    2    0    0  0.23635934311E+03  0.30373805660E+03 -0.12744715545E+04  0.13461059725E+04  0.19900000000E+03 0.  0.
   -5000001    1    1    2    0    0 -0.23635934311E+03 -0.30373805660E+03 -0.87678335504E+03  0.97799417063E+03  0.19900000000E+03 0.  0.
<mgrwt>
<rscale>  0 0.87951338E+03</rscale>
<asrwt>0</asrwt>
<pdfrwt beam="1">  1        2 0.31966818E+00 0.87951338E+03</pdfrwt>
<pdfrwt beam="2">  1       -2 0.12346089E-01 0.87951338E+03</pdfrwt>
<totfact> 0.29811465E+02</totfact>
</mgrwt>
</event>
<event>
 4    1  0.5131465E-005  0.6031669E+03  0.7818608E-02  0.9898857E-01
         -2   -1    0    0    0  501 -0.00000000000E+00  0.00000000000E+00  0.56207585009E+02  0.56207585067E+02  0.25500000000E-02 0.  1.
          2   -1    0    0  501    0  0.00000000000E+00 -0.00000000000E+00 -0.16181549977E+04  0.16181549977E+04  0.25500000000E-02 0. -1.
    5000001    1    1    2    0    0  0.20188740713E+03 -0.75710522376E+02 -0.97451504607E+03  0.10177284428E+04  0.19900000000E+03 0.  0.
   -5000001    1    1    2    0    0 -0.20188740713E+03  0.75710522376E+02 -0.58743236660E+03  0.65663413991E+03  0.19900000000E+03 0.  0.
<mgrwt>
<rscale>  0 0.60316692E+03</rscale>
<asrwt>0</asrwt>
<pdfrwt beam="1">  1        2 0.23116497E+00 0.60316692E+03</pdfrwt>
<pdfrwt beam="2">  1       -2 0.80296560E-02 0.60316692E+03</pdfrwt>
<totfact> 0.12595403E+03</totfact>
</mgrwt>
</event>
<event>
 4    1  0.5131465E-005  0.7338464E+03  0.7818608E-02  0.9661039E-01
         -2   -1    0    0    0  501 -0.00000000000E+00  0.00000000000E+00  0.92225828299E+02  0.92225828334E+02  0.25500000000E-02 0. -1.
          2   -1    0    0  501    0  0.00000000000E+00 -0.00000000000E+00 -0.14598148488E+04  0.14598148488E+04  0.25500000000E-02 0.  1.
    5000001    1    1    2    0    0 -0.15842724434E+03  0.23551026664E+03 -0.93818010805E+03  0.10001735812E+04  0.19900000000E+03 0.  0.
   -5000001    1    1    2    0    0  0.15842724434E+03 -0.23551026664E+03 -0.42940891241E+03  0.55186709587E+03  0.19900000000E+03 0.  0.
<mgrwt>
<rscale>  0 0.73384640E+03</rscale>
<asrwt>0</asrwt>
<pdfrwt beam="1">  1        2 0.20854496E+00 0.73384640E+03</pdfrwt>
<pdfrwt beam="2">  1       -2 0.13175119E-01 0.73384640E+03</pdfrwt>
<totfact> 0.67575492E+02</totfact>
</mgrwt>
</event>
<event>
 4    1  0.5131465E-005  0.1116255E+04  0.7818608E-02  0.9189491E-01
          2   -1    0    0  501    0  0.00000000000E+00  0.00000000000E+00  0.11129636976E+04  0.11129636976E+04  0.25500000000E-02 0.  1.
         -2   -1    0    0    0  501 -0.00000000000E+00 -0.00000000000E+00 -0.27988925178E+03  0.27988925179E+03  0.25500000000E-02 0. -1.
    5000001    1    1    2    0    0 -0.31321829349E+03 -0.40356436903E+03  0.28605104669E+03  0.61838184048E+03  0.19900000000E+03 0.  0.
   -5000001    1    1    2    0    0  0.31321829349E+03  0.40356436903E+03  0.54702339910E+03  0.77447110888E+03  0.19900000000E+03 0.  0.
<mgrwt>
<rscale>  0 0.11162555E+04</rscale>
<asrwt>0</asrwt>
<pdfrwt beam="1">  1        2 0.15899481E+00 0.11162555E+04</pdfrwt>
<pdfrwt beam="2">  1       -2 0.39984179E-01 0.11162555E+04</pdfrwt>
<totfact> 0.14076868E+02</totfact>
</mgrwt>
</event>
<event>
 4    1  0.5131465E-005  0.1022380E+04  0.7818608E-02  0.9284334E-01
          2   -1    0    0  501    0  0.00000000000E+00  0.00000000000E+00  0.11445325058E+04  0.11445325058E+04  0.25500000000E-02 0.  1.
         -2   -1    0    0    0  501 -0.00000000000E+00 -0.00000000000E+00 -0.22831619919E+03  0.22831619920E+03  0.25500000000E-02 0. -1.
    5000001    1    1    2    0    0  0.10704486358E+03  0.31939076079E+03  0.16319376178E+02  0.39158189812E+03  0.19900000000E+03 0.  0.
   -5000001    1    1    2    0    0 -0.10704486358E+03 -0.31939076079E+03  0.89989693047E+03  0.98126680692E+03  0.19900000000E+03 0.  0.
<mgrwt>
<rscale>  0 0.10223802E+04</rscale>
<asrwt>0</asrwt>
<pdfrwt beam="1">  1        2 0.16350465E+00 0.10223802E+04</pdfrwt>
<pdfrwt beam="2">  1       -2 0.32616599E-01 0.10223802E+04</pdfrwt>
<totfact> 0.20051850E+02</totfact>
</mgrwt>
</event>
<event>
 4    1  0.5131465E-005  0.6248812E+03  0.7818608E-02  0.9855089E-01
          2   -1    0    0  501    0  0.00000000000E+00  0.00000000000E+00  0.32256387605E+03  0.32256387606E+03  0.25500000000E-02 0. -1.
         -2   -1    0    0    0  501 -0.00000000000E+00 -0.00000000000E+00 -0.30263502430E+03  0.30263502431E+03  0.25500000000E-02 0.  1.
    5000001    1    1    2    0    0  0.16006180930E+03 -0.17666776800E+03 -0.24503683744E+02  0.31150074408E+03  0.19900000000E+03 0.  0.
   -5000001    1    1    2    0    0 -0.16006180930E+03  0.17666776800E+03  0.44432535487E+02  0.31369815629E+03  0.19900000000E+03 0.  0.
<mgrwt>
<rscale>  0 0.62488119E+03</rscale>
<asrwt>0</asrwt>
<pdfrwt beam="1">  1        2 0.46080553E-01 0.62488119E+03</pdfrwt>
<pdfrwt beam="2">  1       -2 0.43233575E-01 0.62488119E+03</pdfrwt>
<totfact> 0.56189188E+02</totfact>
</mgrwt>
</event>
<event>
 4    1  0.5131465E-005  0.1236646E+04  0.7818608E-02  0.9081372E-01
         -2   -1    0    0    0  501 -0.00000000000E+00  0.00000000000E+00  0.44480098277E+03  0.44480098278E+03  0.25500000000E-02 0. -1.
          2   -1    0    0  501    0  0.00000000000E+00 -0.00000000000E+00 -0.85953758946E+03  0.85953758946E+03  0.25500000000E-02 0.  1.
    5000001    1    1    2    0    0 -0.12355800166E+03 -0.45407626444E+03 -0.57466947771E+03  0.76895893409E+03  0.19900000000E+03 0.  0.
   -5000001    1    1    2    0    0  0.12355800166E+03  0.45407626444E+03  0.15993287102E+03  0.53537963814E+03  0.19900000000E+03 0.  0.
<mgrwt>
<rscale>  0 0.12366457E+04</rscale>
<asrwt>0</asrwt>
<pdfrwt beam="1">  1        2 0.12279108E+00 0.12366457E+04</pdfrwt>
<pdfrwt beam="2">  1       -2 0.63542998E-01 0.12366457E+04</pdfrwt>
<totfact> 0.78126938E+01</totfact>
</mgrwt>
</event>
<event>
 4    1  0.5131465E-005  0.5375504E+03  0.7818608E-02  0.1004417E+00
          2   -1    0    0  501    0  0.00000000000E+00  0.00000000000E+00  0.11345247463E+04  0.11345247463E+04  0.25500000000E-02 0.  1.
         -2   -1    0    0    0  501 -0.00000000000E+00 -0.00000000000E+00 -0.63674335363E+02  0.63674335415E+02  0.25500000000E-02 0. -1.
    5000001    1    1    2    0    0  0.17986417128E+03 -0.16150314247E+02  0.54704092774E+03  0.60948070469E+03  0.19900000000E+03 0.  0.
   -5000001    1    1    2    0    0 -0.17986417128E+03  0.16150314247E+02  0.52380948315E+03  0.58871837699E+03  0.19900000000E+03 0.  0.
<mgrwt>
<rscale>  0 0.53755040E+03</rscale>
<asrwt>0</asrwt>
<pdfrwt beam="1">  1        2 0.16207496E+00 0.53755040E+03</pdfrwt>
<pdfrwt beam="2">  1       -2 0.90963339E-02 0.53755040E+03</pdfrwt>
<totfact> 0.18773335E+03</totfact>
</mgrwt>
</event>
<event>
 4    1  0.5131465E-005  0.6507017E+03  0.7818608E-02  0.9805463E-01
          2   -1    0    0  501    0  0.00000000000E+00  0.00000000000E+00  0.13610118068E+04  0.13610118069E+04  0.25500000000E-02 0.  1.
         -2   -1    0    0    0  501 -0.00000000000E+00 -0.00000000000E+00 -0.77775348256E+02  0.77775348298E+02  0.25500000000E-02 0. -1.
    5000001    1    1    2    0    0  0.84523898823E+02  0.24293383575E+03  0.66271447339E+03  0.73820905662E+03  0.19900000000E+03 0.  0.
   -5000001    1    1    2    0    0 -0.84523898823E+02 -0.24293383575E+03  0.62052198520E+03  0.70057809853E+03  0.19900000000E+03 0.  0.
<mgrwt>
<rscale>  0 0.65070167E+03</rscale>
<asrwt>0</asrwt>
<pdfrwt beam="1">  1        2 0.19443025E+00 0.65070167E+03</pdfrwt>
<pdfrwt beam="2">  1       -2 0.11110764E-01 0.65070167E+03</pdfrwt>
<totfact> 0.10144361E+03</totfact>
</mgrwt>
</event>
<event>
 4    1  0.5131465E-005  0.6134764E+03  0.7818608E-02  0.9877835E-01
          2   -1    0    0  501    0  0.00000000000E+00  0.00000000000E+00  0.19876003872E+04  0.19876003872E+04  0.25500000000E-02 0.  1.
         -2   -1    0    0    0  501 -0.00000000000E+00 -0.00000000000E+00 -0.47337651159E+02  0.47337651227E+02  0.25500000000E-02 0. -1.
    5000001    1    1    2    0    0 -0.11962934199E+02 -0.23272422314E+03  0.92517841300E+03  0.97460749623E+03  0.19900000000E+03 0.  0.
   -5000001    1    1    2    0    0  0.11962934199E+02  0.23272422314E+03  0.10150843230E+04  0.10603305422E+04  0.19900000000E+03 0.  0.
<mgrwt>
<rscale>  0 0.61347643E+03</rscale>
<asrwt>0</asrwt>
<pdfrwt beam="1">  1        2 0.28394292E+00 0.61347643E+03</pdfrwt>
<pdfrwt beam="2">  1       -2 0.67625215E-02 0.61347643E+03</pdfrwt>
<totfact> 0.10747973E+03</totfact>
</mgrwt>
</event>
<event>
 4    1  0.5131465E-005  0.6024035E+03  0.7818608E-02  0.9900432E-01
          2   -1    0    0  501    0  0.00000000000E+00  0.00000000000E+00  0.12819765842E+04  0.12819765842E+04  0.25500000000E-02 0.  1.
         -2   -1    0    0    0  501 -0.00000000000E+00 -0.00000000000E+00 -0.70767677856E+02  0.70767677902E+02  0.25500000000E-02 0. -1.
    5000001    1    1    2    0    0 -0.63877603474E+02 -0.20567331556E+03  0.76020146425E+03  0.81479391702E+03  0.19900000000E+03 0.  0.
   -5000001    1    1    2    0    0  0.63877603474E+02  0.20567331556E+03  0.45100744209E+03  0.53795034509E+03  0.19900000000E+03 0.  0.
<mgrwt>
<rscale>  0 0.60240354E+03</rscale>
<asrwt>0</asrwt>
<pdfrwt beam="1">  1        2 0.18313951E+00 0.60240354E+03</pdfrwt>
<pdfrwt beam="2">  1       -2 0.10109668E-01 0.60240354E+03</pdfrwt>
<totfact> 0.13079394E+03</totfact>
</mgrwt>
</event>
<event>
 4    1  0.5131465E-005  0.5971293E+03  0.7818608E-02  0.9911380E-01
          2   -1    0    0  501    0  0.00000000000E+00  0.00000000000E+00  0.13056333879E+04  0.13056333879E+04  0.25500000000E-02 0.  1.
         -2   -1    0    0    0  501 -0.00000000000E+00 -0.00000000000E+00 -0.68274036601E+02  0.68274036649E+02  0.25500000000E-02 0. -1.
    5000001    1    1    2    0    0  0.59630044964E+02  0.16480407825E+03  0.93435596573E+03  0.97125598951E+03  0.19900000000E+03 0.  0.
   -5000001    1    1    2    0    0 -0.59630044964E+02 -0.16480407825E+03  0.30300338555E+03  0.40265143502E+03  0.19900000000E+03 0.  0.
<mgrwt>
<rscale>  0 0.59712934E+03</rscale>
<asrwt>0</asrwt>
<pdfrwt beam="1">  1        2 0.18651906E+00 0.59712934E+03</pdfrwt>
<pdfrwt beam="2">  1       -2 0.97534338E-02 0.59712934E+03</pdfrwt>
<totfact> 0.13458774E+03</totfact>
</mgrwt>
</event>
<event>
 4    1  0.5131465E-005  0.5612596E+03  0.7818608E-02  0.9989208E-01
          2   -1    0    0  501    0  0.00000000000E+00  0.00000000000E+00  0.23035681017E+03  0.23035681019E+03  0.25500000000E-02 0.  1.
         -2   -1    0    0    0  501 -0.00000000000E+00 -0.00000000000E+00 -0.34187440209E+03  0.34187440210E+03  0.25500000000E-02 0. -1.
    5000001    1    1    2    0    0 -0.18893257476E+03  0.15998676572E+02 -0.11343874552E+03  0.29735639298E+03  0.19900000000E+03 0.  0.
   -5000001    1    1    2    0    0  0.18893257476E+03 -0.15998676572E+02  0.19211536063E+01  0.27487481931E+03  0.19900000000E+03 0.  0.
<mgrwt>
<rscale>  0 0.56125964E+03</rscale>
<asrwt>0</asrwt>
<pdfrwt beam="1">  1        2 0.32908116E-01 0.56125964E+03</pdfrwt>
<pdfrwt beam="2">  1       -2 0.48839200E-01 0.56125964E+03</pdfrwt>
<totfact> 0.64048029E+02</totfact>
</mgrwt>
</event>
<event>
 4    1  0.5131465E-005  0.4770867E+03  0.7818608E-02  0.1019939E+00
         -2   -1    0    0    0  501 -0.00000000000E+00  0.00000000000E+00  0.23390165842E+03  0.23390165843E+03  0.25500000000E-02 0. -1.
          2   -1    0    0  501    0  0.00000000000E+00 -0.00000000000E+00 -0.24327710392E+03  0.24327710393E+03  0.25500000000E-02 0.  1.
    5000001    1    1    2    0    0  0.57924956302E+02  0.10682082400E+03  0.45680008876E+02  0.23759977318E+03  0.19900000000E+03 0.  0.
   -5000001    1    1    2    0    0 -0.57924956302E+02 -0.10682082400E+03 -0.55055454381E+02  0.23957898919E+03  0.19900000000E+03 0.  0.
<mgrwt>
<rscale>  0 0.47708665E+03</rscale>
<asrwt>0</asrwt>
<pdfrwt beam="1">  1        2 0.34753872E-01 0.47708665E+03</pdfrwt>
<pdfrwt beam="2">  1       -2 0.33414523E-01 0.47708665E+03</pdfrwt>
<totfact> 0.12592224E+03</totfact>
</mgrwt>
</event>
<event>
 4    1  0.5131465E-005  0.7486132E+03  0.7818608E-02  0.9637529E-01
          2   -1    0    0  501    0  0.00000000000E+00  0.00000000000E+00  0.10931603031E+03  0.10931603034E+03  0.25500000000E-02 0.  1.
         -2   -1    0    0    0  501 -0.00000000000E+00 -0.00000000000E+00 -0.12816549317E+04  0.12816549317E+04  0.25500000000E-02 0. -1.
    5000001    1    1    2    0    0 -0.18882171550E+03 -0.25244916095E+03 -0.52398091079E+03  0.64307170205E+03  0.19900000000E+03 0.  0.
   -5000001    1    1    2    0    0  0.18882171550E+03  0.25244916095E+03 -0.64835799059E+03  0.74789925998E+03  0.19900000000E+03 0.  0.
<mgrwt>
<rscale>  0 0.74861320E+03</rscale>
<asrwt>0</asrwt>
<pdfrwt beam="1">  1        2 0.15616577E-01 0.74861320E+03</pdfrwt>
<pdfrwt beam="2">  1       -2 0.18309355E+00 0.74861320E+03</pdfrwt>
<totfact> 0.66920715E+01</totfact>
</mgrwt>
</event>
<event>
 4    1  0.5131465E-005  0.1327172E+04  0.7818608E-02  0.9008291E-01
          2   -1    0    0  501    0  0.00000000000E+00  0.00000000000E+00  0.87895799731E+03  0.87895799731E+03  0.25500000000E-02 0.  1.
         -2   -1    0    0    0  501 -0.00000000000E+00 -0.00000000000E+00 -0.50098652705E+03  0.50098652705E+03  0.25500000000E-02 0. -1.
    5000001    1    1    2    0    0  0.23496538070E+03  0.58602504430E+03  0.14121279858E+03  0.67688709336E+03  0.19900000000E+03 0.  0.
   -5000001    1    1    2    0    0 -0.23496538070E+03 -0.58602504430E+03  0.23675867169E+03  0.70305743101E+03  0.19900000000E+03 0.  0.
<mgrwt>
<rscale>  0 0.13271716E+04</rscale>
<asrwt>0</asrwt>
<pdfrwt beam="1">  1        2 0.12556543E+00 0.13271716E+04</pdfrwt>
<pdfrwt beam="2">  1       -2 0.71569504E-01 0.13271716E+04</pdfrwt>
<totfact> 0.58247433E+01</totfact>
</mgrwt>
</event>
<event>
 4    1  0.5131465E-005  0.6097353E+03  0.7818608E-02  0.9885412E-01
          2   -1    0    0  501    0  0.00000000000E+00  0.00000000000E+00  0.17028381800E+03  0.17028381802E+03  0.25500000000E-02 0.  1.
         -2   -1    0    0    0  501 -0.00000000000E+00 -0.00000000000E+00 -0.54581987293E+03  0.54581987294E+03  0.25500000000E-02 0. -1.
    5000001    1    1    2    0    0 -0.21025657354E+02 -0.13279503876E+03 -0.40832303029E+03  0.47371436294E+03  0.19900000000E+03 0.  0.
   -5000001    1    1    2    0    0  0.21025657354E+02  0.13279503876E+03  0.32786975363E+02  0.24238932802E+03  0.19900000000E+03 0.  0.
<mgrwt>
<rscale>  0 0.60973533E+03</rscale>
<asrwt>0</asrwt>
<pdfrwt beam="1">  1        2 0.24326260E-01 0.60973533E+03</pdfrwt>
<pdfrwt beam="2">  1       -2 0.77974267E-01 0.60973533E+03</pdfrwt>
<totfact> 0.33450447E+02</totfact>
</mgrwt>
</event>
<event>
 4    1  0.5131465E-005  0.1046061E+04  0.7818608E-02  0.9259420E-01
          2   -1    0    0  501    0  0.00000000000E+00  0.00000000000E+00  0.14630882908E+04  0.14630882908E+04  0.25500000000E-02 0.  1.
         -2   -1    0    0    0  501 -0.00000000000E+00 -0.00000000000E+00 -0.18697513562E+03  0.18697513564E+03  0.25500000000E-02 0. -1.
    5000001    1    1    2    0    0  0.35453162318E+03 -0.18113545877E+03  0.20475089896E+03  0.48992515437E+03  0.19900000000E+03 0.  0.
   -5000001    1    1    2    0    0 -0.35453162318E+03  0.18113545877E+03  0.10713622562E+04  0.11601382721E+04  0.19900000000E+03 0.  0.
<mgrwt>
<rscale>  0 0.10460614E+04</rscale>
<asrwt>0</asrwt>
<pdfrwt beam="1">  1        2 0.20901262E+00 0.10460614E+04</pdfrwt>
<pdfrwt beam="2">  1       -2 0.26710733E-01 0.10460614E+04</pdfrwt>
<totfact> 0.19327271E+02</totfact>
</mgrwt>
</event>
<event>
 4    1  0.5131465E-005  0.7179239E+03  0.7818608E-02  0.9687062E-01
          2   -1    0    0  501    0  0.00000000000E+00  0.00000000000E+00  0.15047539137E+04  0.15047539137E+04  0.25500000000E-02 0.  1.
         -2   -1    0    0    0  501 -0.00000000000E+00 -0.00000000000E+00 -0.85631071839E+02  0.85631071877E+02  0.25500000000E-02 0. -1.
    5000001    1    1    2    0    0 -0.44185526501E+02 -0.29306712780E+03  0.79280282549E+03  0.86946996627E+03  0.19900000000E+03 0.  0.
   -5000001    1    1    2    0    0  0.44185526501E+02  0.29306712780E+03  0.62632001634E+03  0.72091501927E+03  0.19900000000E+03 0.  0.
<mgrwt>
<rscale>  0 0.71792392E+03</rscale>
<asrwt>0</asrwt>
<pdfrwt beam="1">  1        2 0.21496484E+00 0.71792392E+03</pdfrwt>
<pdfrwt beam="2">  1       -2 0.12233011E-01 0.71792392E+03</pdfrwt>
<totfact> 0.72441007E+02</totfact>
</mgrwt>
</event>
<event>
 4    1  0.5131465E-005  0.7673992E+03  0.7818608E-02  0.9608442E-01
         -2   -1    0    0    0  501 -0.00000000000E+00  0.00000000000E+00  0.67696528042E+02  0.67696528090E+02  0.25500000000E-02 0. -1.
          2   -1    0    0  501    0  0.00000000000E+00 -0.00000000000E+00 -0.21747849187E+04  0.21747849187E+04  0.25500000000E-02 0.  1.
    5000001    1    1    2    0    0  0.23029284833E+03 -0.44126552876E+02 -0.38308011990E+03  0.49125688486E+03  0.19900000000E+03 0.  0.
   -5000001    1    1    2    0    0 -0.23029284833E+03  0.44126552876E+02 -0.17240082708E+04  0.17512245619E+04  0.19900000000E+03 0.  0.
<mgrwt>
<rscale>  0 0.76739921E+03</rscale>
<asrwt>0</asrwt>
<pdfrwt beam="1">  1        2 0.31068352E+00 0.76739921E+03</pdfrwt>
<pdfrwt beam="2">  1       -2 0.96709339E-02 0.76739921E+03</pdfrwt>
<totfact> 0.48314417E+02</totfact>
</mgrwt>
</event>
<event>
 4    1  0.5131465E-005  0.4399263E+03  0.7818608E-02  0.1030769E+00
         -2   -1    0    0    0  501 -0.00000000000E+00  0.00000000000E+00  0.12909083860E+03  0.12909083863E+03  0.25500000000E-02 0. -1.
          2   -1    0    0  501    0  0.00000000000E+00 -0.00000000000E+00 -0.37480411862E+03  0.37480411863E+03  0.25500000000E-02 0.  1.
    5000001    1    1    2    0    0  0.43667107156E+02 -0.66479563984E+02 -0.66087506664E+02  0.22426526082E+03  0.19900000000E+03 0.  0.
   -5000001    1    1    2    0    0 -0.43667107156E+02  0.66479563984E+02 -0.17962577336E+03  0.27962969644E+03  0.19900000000E+03 0.  0.
<mgrwt>
<rscale>  0 0.43992626E+03</rscale>
<asrwt>0</asrwt>
<pdfrwt beam="1">  1        2 0.53543445E-01 0.43992626E+03</pdfrwt>
<pdfrwt beam="2">  1       -2 0.18441549E-01 0.43992626E+03</pdfrwt>
<totfact> 0.22646452E+03</totfact>
</mgrwt>
</event>
<event>
 4    1  0.5131465E-005  0.7744522E+03  0.7818608E-02  0.9597751E-01
         -2   -1    0    0    0  501 -0.00000000000E+00  0.00000000000E+00  0.85180411740E+02  0.85180411778E+02  0.25500000000E-02 0. -1.
          2   -1    0    0  501    0  0.00000000000E+00 -0.00000000000E+00 -0.17603115721E+04  0.17603115721E+04  0.25500000000E-02 0.  1.
    5000001    1    1    2    0    0 -0.31902435578E+03 -0.91913903760E+02 -0.81164058784E+03  0.89921418423E+03  0.19900000000E+03 0.  0.
   -5000001    1    1    2    0    0  0.31902435578E+03  0.91913903760E+02 -0.86349057254E+03  0.94627779967E+03  0.19900000000E+03 0.  0.
<mgrwt>
<rscale>  0 0.77445223E+03</rscale>
<asrwt>0</asrwt>
<pdfrwt beam="1">  1        2 0.25147306E+00 0.77445223E+03</pdfrwt>
<pdfrwt beam="2">  1       -2 0.12168631E-01 0.77445223E+03</pdfrwt>
<totfact> 0.53770131E+02</totfact>
</mgrwt>
</event>
<event>
 4    1  0.5131465E-005  0.4883717E+03  0.7818608E-02  0.1016859E+00
          2   -1    0    0  501    0  0.00000000000E+00  0.00000000000E+00  0.11552054542E+04  0.11552054542E+04  0.25500000000E-02 0. -1.
         -2   -1    0    0    0  501 -0.00000000000E+00 -0.00000000000E+00 -0.51615682642E+02  0.51615682705E+02  0.25500000000E-02 0.  1.
    5000001    1    1    2    0    0 -0.12182953364E+03  0.47286506625E+02  0.41764127693E+03  0.48073244656E+03  0.19900000000E+03 0.  0.
   -5000001    1    1    2    0    0  0.12182953364E+03 -0.47286506625E+02  0.68594849464E+03  0.72608869037E+03  0.19900000000E+03 0.  0.
<mgrwt>
<rscale>  0 0.48837165E+03</rscale>
<asrwt>0</asrwt>
<pdfrwt beam="1">  1        2 0.16502936E+00 0.48837165E+03</pdfrwt>
<pdfrwt beam="2">  1       -2 0.73736686E-02 0.48837165E+03</pdfrwt>
<totfact> 0.25530836E+03</totfact>
</mgrwt>
</event>
<event>
 4    1  0.5131465E-005  0.5792590E+03  0.7818608E-02  0.9949396E-01
         -2   -1    0    0    0  501 -0.00000000000E+00  0.00000000000E+00  0.27491563754E+03  0.27491563755E+03  0.25500000000E-02 0. -1.
          2   -1    0    0  501    0  0.00000000000E+00 -0.00000000000E+00 -0.30513091238E+03  0.30513091239E+03  0.25500000000E-02 0.  1.
    5000001    1    1    2    0    0  0.14743849902E+03 -0.13541537977E+03 -0.80071280287E+02  0.29340730393E+03  0.19900000000E+03 0.  0.
   -5000001    1    1    2    0    0 -0.14743849902E+03  0.13541537977E+03  0.49856005447E+02  0.28663924601E+03  0.19900000000E+03 0.  0.
<mgrwt>
<rscale>  0 0.57925904E+03</rscale>
<asrwt>0</asrwt>
<pdfrwt beam="1">  1        2 0.43590130E-01 0.57925904E+03</pdfrwt>
<pdfrwt beam="2">  1       -2 0.39273663E-01 0.57925904E+03</pdfrwt>
<totfact> 0.72112700E+02</totfact>
</mgrwt>
</event>
<event>
 4    1  0.5131465E-005  0.4863157E+03  0.7818608E-02  0.1017414E+00
         -2   -1    0    0    0  501 -0.00000000000E+00  0.00000000000E+00  0.41913560110E+02  0.41913560188E+02  0.25500000000E-02 0. -1.
          2   -1    0    0  501    0  0.00000000000E+00 -0.00000000000E+00 -0.14106590784E+04  0.14106590784E+04  0.25500000000E-02 0.  1.
    5000001    1    1    2    0    0  0.54376103454E+02 -0.12755122971E+03 -0.73599221191E+03  0.77492684353E+03  0.19900000000E+03 0.  0.
   -5000001    1    1    2    0    0 -0.54376103454E+02  0.12755122971E+03 -0.63275330633E+03  0.67764579502E+03  0.19900000000E+03 0.  0.
<mgrwt>
<rscale>  0 0.48631572E+03</rscale>
<asrwt>0</asrwt>
<pdfrwt beam="1">  1        2 0.20152270E+00 0.48631572E+03</pdfrwt>
<pdfrwt beam="2">  1       -2 0.59876523E-02 0.48631572E+03</pdfrwt>
<totfact> 0.25709229E+03</totfact>
</mgrwt>
</event>
<event>
 4    1  0.5131465E-005  0.4754573E+03  0.7818608E-02  0.1020391E+00
         -2   -1    0    0    0  501 -0.00000000000E+00  0.00000000000E+00  0.66025829542E+02  0.66025829591E+02  0.25500000000E-02 0. -1.
          2   -1    0    0  501    0  0.00000000000E+00 -0.00000000000E+00 -0.85595137901E+03  0.85595137902E+03  0.25500000000E-02 0.  1.
    5000001    1    1    2    0    0 -0.84180810429E+02 -0.96712505746E+02 -0.43718891239E+03  0.49716683591E+03  0.19900000000E+03 0.  0.
   -5000001    1    1    2    0    0  0.84180810429E+02  0.96712505746E+02 -0.35273663708E+03  0.42481037270E+03  0.19900000000E+03 0.  0.
<mgrwt>
<rscale>  0 0.47545725E+03</rscale>
<asrwt>0</asrwt>
<pdfrwt beam="1">  1        2 0.12227876E+00 0.47545725E+03</pdfrwt>
<pdfrwt beam="2">  1       -2 0.94322619E-02 0.47545725E+03</pdfrwt>
<totfact> 0.26195814E+03</totfact>
</mgrwt>
</event>
<event>
 4    1  0.5131465E-005  0.6334075E+03  0.7818608E-02  0.9838422E-01
          2   -1    0    0  501    0  0.00000000000E+00  0.00000000000E+00  0.16865570548E+04  0.16865570548E+04  0.25500000000E-02 0.  1.
         -2   -1    0    0    0  501 -0.00000000000E+00 -0.00000000000E+00 -0.59471020218E+02  0.59471020273E+02  0.25500000000E-02 0. -1.
    5000001    1    1    2    0    0 -0.16062545139E+03  0.18046087840E+03  0.94670542503E+03  0.99710522316E+03  0.19900000000E+03 0.  0.
   -5000001    1    1    2    0    0  0.16062545139E+03 -0.18046087840E+03  0.68038060952E+03  0.74892285189E+03  0.19900000000E+03 0.  0.
<mgrwt>
<rscale>  0 0.63340751E+03</rscale>
<asrwt>0</asrwt>
<pdfrwt beam="1">  1        2 0.24093666E+00 0.63340751E+03</pdfrwt>
<pdfrwt beam="2">  1       -2 0.84958623E-02 0.63340751E+03</pdfrwt>
<totfact> 0.10604256E+03</totfact>
</mgrwt>
</event>
<event>
 4    1  0.5131465E-005  0.9928296E+03  0.7818608E-02  0.9316444E-01
         -2   -1    0    0    0  501 -0.00000000000E+00  0.00000000000E+00  0.19028307795E+03  0.19028307796E+03  0.25500000000E-02 0. -1.
          2   -1    0    0  501    0  0.00000000000E+00 -0.00000000000E+00 -0.12950582225E+04  0.12950582225E+04  0.25500000000E-02 0.  1.
    5000001    1    1    2    0    0 -0.38315692342E+03  0.18326726775E+03 -0.79561054505E+03  0.92357634161E+03  0.19900000000E+03 0.  0.
   -5000001    1    1    2    0    0  0.38315692342E+03 -0.18326726775E+03 -0.30916459948E+03  0.56176495883E+03  0.19900000000E+03 0.  0.
<mgrwt>
<rscale>  0 0.99282962E+03</rscale>
<asrwt>0</asrwt>
<pdfrwt beam="1">  1        2 0.18500831E+00 0.99282962E+03</pdfrwt>
<pdfrwt beam="2">  1       -2 0.27183298E-01 0.99282962E+03</pdfrwt>
<totfact> 0.23160671E+02</totfact>
</mgrwt>
</event>
<event>
 4    1  0.5131465E-005  0.4635066E+03  0.7818608E-02  0.1023769E+00
          2   -1    0    0  501    0  0.00000000000E+00  0.00000000000E+00  0.18507458734E+04  0.18507458734E+04  0.25500000000E-02 0.  1.
         -2   -1    0    0    0  501 -0.00000000000E+00 -0.00000000000E+00 -0.29020517106E+02  0.29020517218E+02  0.25500000000E-02 0. -1.
    5000001    1    1    2    0    0  0.68500636465E+02 -0.93616588184E+02  0.80729167517E+03  0.83951012595E+03  0.19900000000E+03 0.  0.
   -5000001    1    1    2    0    0 -0.68500636465E+02  0.93616588184E+02  0.10144336811E+04  0.10402562647E+04  0.19900000000E+03 0.  0.
<mgrwt>
<rscale>  0 0.46350664E+03</rscale>
<asrwt>0</asrwt>
<pdfrwt beam="1">  1        2 0.26439235E+00 0.46350664E+03</pdfrwt>
<pdfrwt beam="2">  1       -2 0.41457868E-02 0.46350664E+03</pdfrwt>
<totfact> 0.27071635E+03</totfact>
</mgrwt>
</event>
<event>
 4    1  0.5131465E-005  0.6020474E+03  0.7818608E-02  0.9901168E-01
         -2   -1    0    0    0  501 -0.00000000000E+00  0.00000000000E+00  0.19477738629E+03  0.19477738630E+03  0.25500000000E-02 0. -1.
          2   -1    0    0  501    0  0.00000000000E+00 -0.00000000000E+00 -0.46522473269E+03  0.46522473269E+03  0.25500000000E-02 0.  1.
    5000001    1    1    2    0    0  0.13921606901E+03  0.17328363987E+03 -0.91292061953E+02  0.31199931777E+03  0.19900000000E+03 0.  0.
   -5000001    1    1    2    0    0 -0.13921606901E+03 -0.17328363987E+03 -0.17915528445E+03  0.34800280122E+03  0.19900000000E+03 0.  0.
<mgrwt>
<rscale>  0 0.60204737E+03</rscale>
<asrwt>0</asrwt>
<pdfrwt beam="1">  1        2 0.66460676E-01 0.60204737E+03</pdfrwt>
<pdfrwt beam="2">  1       -2 0.27825341E-01 0.60204737E+03</pdfrwt>
<totfact> 0.86205424E+02</totfact>
</mgrwt>
</event>
<event>
 4    1  0.5131465E-005  0.9310235E+03  0.7818608E-02  0.9387610E-01
          2   -1    0    0  501    0  0.00000000000E+00  0.00000000000E+00  0.55140525781E+03  0.55140525782E+03  0.25500000000E-02 0.  1.
         -2   -1    0    0    0  501 -0.00000000000E+00 -0.00000000000E+00 -0.39299803937E+03  0.39299803937E+03  0.25500000000E-02 0. -1.
    5000001    1    1    2    0    0 -0.26684957392E+02 -0.38658920843E+03  0.24568684919E+03  0.50012631493E+03  0.19900000000E+03 0.  0.
   -5000001    1    1    2    0    0  0.26684957392E+02  0.38658920843E+03 -0.87279630748E+02  0.44427698226E+03  0.19900000000E+03 0.  0.
<mgrwt>
<rscale>  0 0.93102349E+03</rscale>
<asrwt>0</asrwt>
<pdfrwt beam="1">  1        2 0.78772180E-01 0.93102349E+03</pdfrwt>
<pdfrwt beam="2">  1       -2 0.56142577E-01 0.93102349E+03</pdfrwt>
<totfact> 0.17889205E+02</totfact>
</mgrwt>
</event>
<event>
 4    1  0.5131465E-005  0.6235040E+03  0.7818608E-02  0.9857808E-01
         -2   -1    0    0    0  501 -0.00000000000E+00  0.00000000000E+00  0.32097903922E+02  0.32097904023E+02  0.25500000000E-02 0. -1.
          2   -1    0    0  501    0  0.00000000000E+00 -0.00000000000E+00 -0.30279015791E+04  0.30279015791E+04  0.25500000000E-02 0.  1.
    5000001    1    1    2    0    0  0.50200690648E+02  0.19467186005E+03 -0.21410049202E+04  0.21596111480E+04  0.19900000000E+03 0.  0.
   -5000001    1    1    2    0    0 -0.50200690648E+02 -0.19467186005E+03 -0.85479875503E+03  0.90038833513E+03  0.19900000000E+03 0.  0.
<mgrwt>
<rscale>  0 0.62350395E+03</rscale>
<asrwt>0</asrwt>
<pdfrwt beam="1">  1        2 0.43255719E+00 0.62350395E+03</pdfrwt>
<pdfrwt beam="2">  1       -2 0.45854168E-02 0.62350395E+03</pdfrwt>
<totfact> 0.57022694E+02</totfact>
</mgrwt>
</event>
<event>
 4    1  0.5131465E-005  0.5376397E+03  0.7818608E-02  0.1004396E+00
         -2   -1    0    0    0  501 -0.00000000000E+00  0.00000000000E+00  0.16647335422E+03  0.16647335424E+03  0.25500000000E-02 0. -1.
          2   -1    0    0  501    0  0.00000000000E+00 -0.00000000000E+00 -0.43408811285E+03  0.43408811286E+03  0.25500000000E-02 0.  1.
    5000001    1    1    2    0    0  0.12460475952E+03  0.64932435288E+02 -0.68358246005E+01  0.24370124280E+03  0.19900000000E+03 0.  0.
   -5000001    1    1    2    0    0 -0.12460475952E+03 -0.64932435288E+02 -0.26077893403E+03  0.35686022429E+03  0.19900000000E+03 0.  0.
<mgrwt>
<rscale>  0 0.53763967E+03</rscale>
<asrwt>0</asrwt>
<pdfrwt beam="1">  1        2 0.62012587E-01 0.53763967E+03</pdfrwt>
<pdfrwt beam="2">  1       -2 0.23781908E-01 0.53763967E+03</pdfrwt>
<totfact> 0.12367710E+03</totfact>
</mgrwt>
</event>
<event>
 4    1  0.5131465E-005  0.8433764E+03  0.7818608E-02  0.9499270E-01
          2   -1    0    0  501    0  0.00000000000E+00  0.00000000000E+00  0.42432853468E+04  0.42432853468E+04  0.25500000000E-02 0.  1.
         -2   -1    0    0    0  501 -0.00000000000E+00 -0.00000000000E+00 -0.41906428327E+02  0.41906428404E+02  0.25500000000E-02 0. -1.
    5000001    1    1    2    0    0  0.23477613587E+03 -0.10792729674E+03  0.34588634372E+04  0.34742057239E+04  0.19900000000E+03 0.  0.
   -5000001    1    1    2    0    0 -0.23477613587E+03  0.10792729674E+03  0.74251548136E+03  0.81098605131E+03  0.19900000000E+03 0.  0.
<mgrwt>
<rscale>  0 0.84337639E+03</rscale>
<asrwt>0</asrwt>
<pdfrwt beam="1">  1        2 0.60618354E+00 0.84337639E+03</pdfrwt>
<pdfrwt beam="2">  1       -2 0.59866334E-02 0.84337639E+03</pdfrwt>
<totfact> 0.64491183E+01</totfact>
</mgrwt>
</event>
<event>
 4    1  0.5131465E-005  0.4940925E+03  0.7818608E-02  0.1015332E+00
         -2   -1    0    0    0  501 -0.00000000000E+00  0.00000000000E+00  0.12996241660E+04  0.12996241660E+04  0.25500000000E-02 0. -1.
          2   -1    0    0  501    0  0.00000000000E+00 -0.00000000000E+00 -0.46961162676E+02  0.46961162746E+02  0.25500000000E-02 0.  1.
    5000001    1    1    2    0    0 -0.11206860930E+03  0.45963380993E+01  0.36993853910E+03  0.43478272991E+03  0.19900000000E+03 0.  0.
   -5000001    1    1    2    0    0  0.11206860930E+03 -0.45963380993E+01  0.88272446426E+03  0.91180259887E+03  0.19900000000E+03 0.  0.
<mgrwt>
<rscale>  0 0.49409255E+03</rscale>
<asrwt>0</asrwt>
<pdfrwt beam="1">  1        2 0.67087373E-02 0.49409255E+03</pdfrwt>
<pdfrwt beam="2">  1       -2 0.18566060E+00 0.49409255E+03</pdfrwt>
<totfact> 0.18965743E+02</totfact>
</mgrwt>
</event>
<event>
 4    1  0.5131465E-005  0.4440266E+03  0.7818608E-02  0.1029518E+00
         -2   -1    0    0    0  501 -0.00000000000E+00  0.00000000000E+00  0.30597158518E+02  0.30597158625E+02  0.25500000000E-02 0. -1.
          2   -1    0    0  501    0  0.00000000000E+00 -0.00000000000E+00 -0.16109305550E+04  0.16109305550E+04  0.25500000000E-02 0.  1.
    5000001    1    1    2    0    0 -0.34659528965E+02 -0.90940779108E+02 -0.73565892559E+03  0.76828807296E+03  0.19900000000E+03 0.  0.
   -5000001    1    1    2    0    0  0.34659528965E+02  0.90940779108E+02 -0.84467447084E+03  0.87323964062E+03  0.19900000000E+03 0.  0.
<mgrwt>
<rscale>  0 0.44402657E+03</rscale>
<asrwt>0</asrwt>
<pdfrwt beam="1">  1        2 0.23013288E+00 0.44402657E+03</pdfrwt>
<pdfrwt beam="2">  1       -2 0.43710237E-02 0.44402657E+03</pdfrwt>
<totfact> 0.32963538E+03</totfact>
</mgrwt>
</event>
<event>
 4    1  0.5131465E-005  0.5112705E+03  0.7818608E-02  0.1010878E+00
          2   -1    0    0  501    0  0.00000000000E+00  0.00000000000E+00  0.20032339349E+04  0.20032339349E+04  0.25500000000E-02 0.  1.
         -2   -1    0    0    0  501 -0.00000000000E+00 -0.00000000000E+00 -0.32621942051E+02  0.32621942151E+02  0.25500000000E-02 0. -1.
    5000001    1    1    2    0    0 -0.13588825828E+01 -0.13112909849E+03  0.61707327261E+03  0.66149611548E+03  0.19900000000E+03 0.  0.
   -5000001    1    1    2    0    0  0.13588825828E+01  0.13112909849E+03  0.13535387203E+04  0.13743597616E+04  0.19900000000E+03 0.  0.
<mgrwt>
<rscale>  0 0.51127050E+03</rscale>
<asrwt>0</asrwt>
<pdfrwt beam="1">  1        2 0.28617633E+00 0.51127050E+03</pdfrwt>
<pdfrwt beam="2">  1       -2 0.46602765E-02 0.51127050E+03</pdfrwt>
<totfact> 0.18954043E+03</totfact>
</mgrwt>
</event>
<event>
 4    1  0.5131465E-005  0.4262881E+03  0.7818608E-02  0.1035039E+00
         -2   -1    0    0    0  501 -0.00000000000E+00  0.00000000000E+00  0.23859927866E+03  0.23859927867E+03  0.25500000000E-02 0. -1.
          2   -1    0    0  501    0  0.00000000000E+00 -0.00000000000E+00 -0.19040451527E+03  0.19040451528E+03  0.25500000000E-02 0.  1.
    5000001    1    1    2    0    0 -0.53214812076E+01 -0.75815450511E+02  0.31429349673E+02  0.21532557841E+03  0.19900000000E+03 0.  0.
   -5000001    1    1    2    0    0  0.53214812076E+01  0.75815450511E+02  0.16765413718E+02  0.21367821554E+03  0.19900000000E+03 0.  0.
<mgrwt>
<rscale>  0 0.42628807E+03</rscale>
<asrwt>0</asrwt>
<pdfrwt beam="1">  1        2 0.27200645E-01 0.42628807E+03</pdfrwt>
<pdfrwt beam="2">  1       -2 0.34085611E-01 0.42628807E+03</pdfrwt>
<totfact> 0.15924242E+03</totfact>
</mgrwt>
</event>
<event>
 4    1  0.5131465E-005  0.4585239E+03  0.7818608E-02  0.1025210E+00
          2   -1    0    0  501    0  0.00000000000E+00  0.00000000000E+00  0.34813124456E+03  0.34813124457E+03  0.25500000000E-02 0.  1.
         -2   -1    0    0    0  501 -0.00000000000E+00 -0.00000000000E+00 -0.15098056042E+03  0.15098056044E+03  0.25500000000E-02 0. -1.
    5000001    1    1    2    0    0 -0.76684222976E+02 -0.80673117557E+02  0.12459590943E+03  0.25983410592E+03  0.19900000000E+03 0.  0.
   -5000001    1    1    2    0    0  0.76684222976E+02  0.80673117557E+02  0.72554774714E+02  0.23927769909E+03  0.19900000000E+03 0.  0.
<mgrwt>
<rscale>  0 0.45852394E+03</rscale>
<asrwt>0</asrwt>
<pdfrwt beam="1">  1        2 0.49733034E-01 0.45852394E+03</pdfrwt>
<pdfrwt beam="2">  1       -2 0.21568652E-01 0.45852394E+03</pdfrwt>
<totfact> 0.18734793E+03</totfact>
</mgrwt>
</event>
<event>
 4    1  0.5131465E-005  0.5288054E+03  0.7818608E-02  0.1006522E+00
          2   -1    0    0  501    0  0.00000000000E+00  0.00000000000E+00  0.69054146143E+03  0.69054146143E+03  0.25500000000E-02 0.  1.
         -2   -1    0    0    0  501 -0.00000000000E+00 -0.00000000000E+00 -0.10123764701E+03  0.10123764704E+03  0.25500000000E-02 0. -1.
    5000001    1    1    2    0    0  0.33811387188E+02 -0.16500499948E+03  0.22873792995E+03  0.34683122748E+03  0.19900000000E+03 0.  0.
   -5000001    1    1    2    0    0 -0.33811387188E+02  0.16500499948E+03  0.36056588446E+03  0.44494788099E+03  0.19900000000E+03 0.  0.
<mgrwt>
<rscale>  0 0.52880542E+03</rscale>
<asrwt>0</asrwt>
<pdfrwt beam="1">  1        2 0.98648779E-01 0.52880542E+03</pdfrwt>
<pdfrwt beam="2">  1       -2 0.14462521E-01 0.52880542E+03</pdfrwt>
<totfact> 0.17037615E+03</totfact>
</mgrwt>
</event>
<event>
 4    1  0.5131465E-005  0.6997699E+03  0.7818608E-02  0.9717626E-01
          2   -1    0    0  501    0  0.00000000000E+00  0.00000000000E+00  0.31739084367E+04  0.31739084367E+04  0.25500000000E-02 0.  1.
         -2   -1    0    0    0  501 -0.00000000000E+00 -0.00000000000E+00 -0.38570574129E+02  0.38570574213E+02  0.25500000000E-02 0. -1.
    5000001    1    1    2    0    0 -0.12306789268E+03  0.24653011634E+03  0.19488867332E+04  0.19783031373E+04  0.19900000000E+03 0.  0.
   -5000001    1    1    2    0    0  0.12306789268E+03 -0.24653011634E+03  0.11864511294E+04  0.12341758736E+04  0.19900000000E+03 0.  0.
<mgrwt>
<rscale>  0 0.69976988E+03</rscale>
<asrwt>0</asrwt>
<pdfrwt beam="1">  1        2 0.45341547E+00 0.69976988E+03</pdfrwt>
<pdfrwt beam="2">  1       -2 0.55100822E-02 0.69976988E+03</pdfrwt>
<totfact> 0.35298753E+02</totfact>
</mgrwt>
</event>
<event>
 4    1  0.5131465E-005  0.5458037E+03  0.7818608E-02  0.1002470E+00
          2   -1    0    0  501    0  0.00000000000E+00  0.00000000000E+00  0.35273722817E+03  0.35273722818E+03  0.25500000000E-02 0.  1.
         -2   -1    0    0    0  501 -0.00000000000E+00 -0.00000000000E+00 -0.21113568380E+03  0.21113568382E+03  0.25500000000E-02 0. -1.
    5000001    1    1    2    0    0 -0.97497723015E+02  0.15484178353E+03  0.32247348919E+02  0.27225479873E+03  0.19900000000E+03 0.  0.
   -5000001    1    1    2    0    0  0.97497723015E+02 -0.15484178353E+03  0.10935419545E+03  0.29161811326E+03  0.19900000000E+03 0.  0.
<mgrwt>
<rscale>  0 0.54580369E+03</rscale>
<asrwt>0</asrwt>
<pdfrwt beam="1">  1        2 0.50391033E-01 0.54580369E+03</pdfrwt>
<pdfrwt beam="2">  1       -2 0.30162240E-01 0.54580369E+03</pdfrwt>
<totfact> 0.10119856E+03</totfact>
</mgrwt>
</event>
<event>
 4    1  0.5131465E-005  0.6207200E+03  0.7818608E-02  0.9863327E-01
          2   -1    0    0  501    0  0.00000000000E+00  0.00000000000E+00  0.84893859746E+02  0.84893859784E+02  0.25500000000E-02 0.  1.
         -2   -1    0    0    0  501 -0.00000000000E+00 -0.00000000000E+00 -0.11346324331E+04  0.11346324331E+04  0.25500000000E-02 0. -1.
    5000001    1    1    2    0    0  0.21455212082E+03 -0.28249382585E+02 -0.72027200801E+03  0.77796105666E+03  0.19900000000E+03 0.  0.
   -5000001    1    1    2    0    0 -0.21455212082E+03  0.28249382585E+02 -0.32946656536E+03  0.44156523624E+03  0.19900000000E+03 0.  0.
<mgrwt>
<rscale>  0 0.62071999E+03</rscale>
<asrwt>0</asrwt>
<pdfrwt beam="1">  1        2 0.12127695E-01 0.62071999E+03</pdfrwt>
<pdfrwt beam="2">  1       -2 0.16209034E+00 0.62071999E+03</pdfrwt>
<totfact> 0.12891387E+02</totfact>
</mgrwt>
</event>
<event>
 4    1  0.5131465E-005  0.6175028E+03  0.7818608E-02  0.9869744E-01
          2   -1    0    0  501    0  0.00000000000E+00  0.00000000000E+00  0.38347251070E+03  0.38347251071E+03  0.25500000000E-02 0.  1.
         -2   -1    0    0    0  501 -0.00000000000E+00 -0.00000000000E+00 -0.24859002385E+03  0.24859002387E+03  0.25500000000E-02 0. -1.
    5000001    1    1    2    0    0 -0.37519282090E+02 -0.23293643980E+03  0.59555100623E+02  0.31434836015E+03  0.19900000000E+03 0.  0.
   -5000001    1    1    2    0    0  0.37519282090E+02  0.23293643980E+03  0.75327386219E+02  0.31771417443E+03  0.19900000000E+03 0.  0.
<mgrwt>
<rscale>  0 0.61750284E+03</rscale>
<asrwt>0</asrwt>
<pdfrwt beam="1">  1        2 0.54781787E-01 0.61750284E+03</pdfrwt>
<pdfrwt beam="2">  1       -2 0.35512860E-01 0.61750284E+03</pdfrwt>
<totfact> 0.67903711E+02</totfact>
</mgrwt>
</event>
<event>
 4    1  0.5131465E-005  0.4358771E+03  0.7818608E-02  0.1032019E+00
          2   -1    0    0  501    0  0.00000000000E+00  0.00000000000E+00  0.55944130255E+03  0.55944130256E+03  0.25500000000E-02 0.  1.
         -2   -1    0    0    0  501 -0.00000000000E+00 -0.00000000000E+00 -0.84901171415E+02  0.84901171454E+02  0.25500000000E-02 0. -1.
    5000001    1    1    2    0    0 -0.74616056826E+02 -0.45743069458E+02  0.21454907977E+03  0.30543786924E+03  0.19900000000E+03 0.  0.
   -5000001    1    1    2    0    0  0.74616056826E+02  0.45743069458E+02  0.25999105137E+03  0.33890460477E+03  0.19900000000E+03 0.  0.
<mgrwt>
<rscale>  0 0.43587715E+03</rscale>
<asrwt>0</asrwt>
<pdfrwt beam="1">  1        2 0.79920187E-01 0.43587715E+03</pdfrwt>
<pdfrwt beam="2">  1       -2 0.12128739E-01 0.43587715E+03</pdfrwt>
<totfact> 0.29175162E+03</totfact>
</mgrwt>
</event>
<event>
 4    1  0.5131465E-005  0.8056456E+03  0.7818608E-02  0.9551881E-01
          2   -1    0    0  501    0  0.00000000000E+00  0.00000000000E+00  0.22326896835E+04  0.22326896835E+04  0.25500000000E-02 0.  1.
         -2   -1    0    0    0  501 -0.00000000000E+00 -0.00000000000E+00 -0.72677465072E+02  0.72677465116E+02  0.25500000000E-02 0. -1.
    5000001    1    1    2    0    0 -0.10522201200E+03  0.63704899918E+02  0.20183703328E+04  0.20318833103E+04  0.19900000000E+03 0.  0.
   -5000001    1    1    2    0    0  0.10522201200E+03 -0.63704899918E+02  0.14164188559E+03  0.27348383835E+03  0.19900000000E+03 0.  0.
<mgrwt>
<rscale>  0 0.80564565E+03</rscale>
<asrwt>0</asrwt>
<pdfrwt beam="1">  1        2 0.31895567E+00 0.80564565E+03</pdfrwt>
<pdfrwt beam="2">  1       -2 0.10382495E-01 0.80564565E+03</pdfrwt>
<totfact> 0.40108190E+02</totfact>
</mgrwt>
</event>
<event>
 4    1  0.5131465E-005  0.5721629E+03  0.7818608E-02  0.9964904E-01
          2   -1    0    0  501    0  0.00000000000E+00  0.00000000000E+00  0.71952079994E+02  0.71952080039E+02  0.25500000000E-02 0.  1.
         -2   -1    0    0    0  501 -0.00000000000E+00 -0.00000000000E+00 -0.11374597688E+04  0.11374597688E+04  0.25500000000E-02 0. -1.
    5000001    1    1    2    0    0 -0.11609382767E+03 -0.73534183615E+02 -0.20971197927E+03  0.32010180760E+03  0.19900000000E+03 0.  0.
   -5000001    1    1    2    0    0  0.11609382767E+03  0.73534183615E+02 -0.85579570957E+03  0.88931004127E+03  0.19900000000E+03 0.  0.
<mgrwt>
<rscale>  0 0.57216290E+03</rscale>
<asrwt>0</asrwt>
<pdfrwt beam="1">  1        2 0.10278869E-01 0.57216290E+03</pdfrwt>
<pdfrwt beam="2">  1       -2 0.16249424E+00 0.57216290E+03</pdfrwt>
<totfact> 0.15787518E+02</totfact>
</mgrwt>
</event>
<event>
 4    1  0.5131465E-005  0.6510623E+03  0.7818608E-02  0.9804788E-01
         -2   -1    0    0    0  501 -0.00000000000E+00  0.00000000000E+00  0.18916916382E+03  0.18916916383E+03  0.25500000000E-02 0. -1.
          2   -1    0    0  501    0  0.00000000000E+00 -0.00000000000E+00 -0.56018928108E+03  0.56018928108E+03  0.25500000000E-02 0.  1.
    5000001    1    1    2    0    0  0.21660237295E+03 -0.42775698023E+02 -0.33830511305E+03  0.45033065388E+03  0.19900000000E+03 0.  0.
   -5000001    1    1    2    0    0 -0.21660237295E+03  0.42775698023E+02 -0.32715004210E+02  0.29902779103E+03  0.19900000000E+03 0.  0.
<mgrwt>
<rscale>  0 0.65106233E+03</rscale>
<asrwt>0</asrwt>
<pdfrwt beam="1">  1        2 0.80027039E-01 0.65106233E+03</pdfrwt>
<pdfrwt beam="2">  1       -2 0.27024166E-01 0.65106233E+03</pdfrwt>
<totfact> 0.73454641E+02</totfact>
</mgrwt>
</event>
<event>
 4    1  0.5131465E-005  0.9049132E+03  0.7818608E-02  0.9419460E-01
         -2   -1    0    0    0  501 -0.00000000000E+00  0.00000000000E+00  0.19280985056E+03  0.19280985058E+03  0.25500000000E-02 0. -1.
          2   -1    0    0  501    0  0.00000000000E+00 -0.00000000000E+00 -0.10617557498E+04  0.10617557498E+04  0.25500000000E-02 0.  1.
    5000001    1    1    2    0    0 -0.25392743462E+03 -0.31640672846E+03 -0.40274884073E+03  0.60530982858E+03  0.19900000000E+03 0.  0.
   -5000001    1    1    2    0    0  0.25392743462E+03  0.31640672846E+03 -0.46619705854E+03  0.64925577184E+03  0.19900000000E+03 0.  0.
<mgrwt>
<rscale>  0 0.90491318E+03</rscale>
<asrwt>0</asrwt>
<pdfrwt beam="1">  1        2 0.15167939E+00 0.90491318E+03</pdfrwt>
<pdfrwt beam="2">  1       -2 0.27544265E-01 0.90491318E+03</pdfrwt>
<totfact> 0.30910055E+02</totfact>
</mgrwt>
</event>
<event>
 4    1  0.5131465E-005  0.5988765E+03  0.7818608E-02  0.9907740E-01
         -2   -1    0    0    0  501 -0.00000000000E+00  0.00000000000E+00  0.28022523272E+02  0.28022523388E+02  0.25500000000E-02 0. -1.
          2   -1    0    0  501    0  0.00000000000E+00 -0.00000000000E+00 -0.31996858975E+04  0.31996858975E+04  0.25500000000E-02 0.  1.
    5000001    1    1    2    0    0  0.21206016379E+03 -0.69813196729E+02 -0.15060951670E+04  0.15355022135E+04  0.19900000000E+03 0.  0.
   -5000001    1    1    2    0    0 -0.21206016379E+03  0.69813196729E+02 -0.16655682072E+04  0.16922062074E+04  0.19900000000E+03 0.  0.
<mgrwt>
<rscale>  0 0.59887652E+03</rscale>
<asrwt>0</asrwt>
<pdfrwt beam="1">  1        2 0.45709775E+00 0.59887652E+03</pdfrwt>
<pdfrwt beam="2">  1       -2 0.40032197E-02 0.59887652E+03</pdfrwt>
<totfact> 0.56600370E+02</totfact>
</mgrwt>
</event>
<event>
 4    1  0.5131465E-005  0.9838298E+03  0.7818608E-02  0.9326460E-01
          2   -1    0    0  501    0  0.00000000000E+00  0.00000000000E+00  0.18104419599E+04  0.18104419599E+04  0.25500000000E-02 0.  1.
         -2   -1    0    0    0  501 -0.00000000000E+00 -0.00000000000E+00 -0.13365812688E+03  0.13365812690E+03  0.25500000000E-02 0. -1.
    5000001    1    1    2    0    0 -0.29605912027E+03  0.30005886113E+03  0.11489087849E+04  0.12398704444E+04  0.19900000000E+03 0.  0.
   -5000001    1    1    2    0    0  0.29605912027E+03 -0.30005886113E+03  0.52787504814E+03  0.70422964243E+03  0.19900000000E+03 0.  0.
<mgrwt>
<rscale>  0 0.98382983E+03</rscale>
<asrwt>0</asrwt>
<pdfrwt beam="1">  1        2 0.25863457E+00 0.98382983E+03</pdfrwt>
<pdfrwt beam="2">  1       -2 0.19094018E-01 0.98382983E+03</pdfrwt>
<totfact> 0.23281575E+02</totfact>
</mgrwt>
</event>
<event>
 4    1  0.5131465E-005  0.8341612E+03  0.7818608E-02  0.9511845E-01
         -2   -1    0    0    0  501 -0.00000000000E+00  0.00000000000E+00  0.26626256859E+03  0.26626256860E+03  0.25500000000E-02 0. -1.
          2   -1    0    0  501    0  0.00000000000E+00 -0.00000000000E+00 -0.65332595531E+03  0.65332595532E+03  0.25500000000E-02 0.  1.
    5000001    1    1    2    0    0  0.35692196141E+03 -0.76676906900E+02 -0.15725898102E+03  0.44452673902E+03  0.19900000000E+03 0.  0.
   -5000001    1    1    2    0    0 -0.35692196141E+03  0.76676906900E+02 -0.22980440570E+03  0.47506178490E+03  0.19900000000E+03 0.  0.
<mgrwt>
<rscale>  0 0.83416125E+03</rscale>
<asrwt>0</asrwt>
<pdfrwt beam="1">  1        2 0.93332279E-01 0.83416125E+03</pdfrwt>
<pdfrwt beam="2">  1       -2 0.38037510E-01 0.83416125E+03</pdfrwt>
<totfact> 0.32067061E+02</totfact>
</mgrwt>
</event>
<event>
 4    1  0.5131465E-005  0.7502645E+03  0.7818608E-02  0.9634936E-01
         -2   -1    0    0    0  501 -0.00000000000E+00  0.00000000000E+00  0.44421158111E+03  0.44421158112E+03  0.25500000000E-02 0. -1.
          2   -1    0    0  501    0  0.00000000000E+00 -0.00000000000E+00 -0.31679540920E+03  0.31679540921E+03  0.25500000000E-02 0.  1.
    5000001    1    1    2    0    0 -0.16121984413E+03 -0.27114716549E+03  0.23001605722E+02  0.37368796791E+03  0.19900000000E+03 0.  0.
   -5000001    1    1    2    0    0  0.16121984413E+03  0.27114716549E+03  0.10441456619E+03  0.38731902242E+03  0.19900000000E+03 0.  0.
<mgrwt>
<rscale>  0 0.75026446E+03</rscale>
<asrwt>0</asrwt>
<pdfrwt beam="1">  1        2 0.45256487E-01 0.75026446E+03</pdfrwt>
<pdfrwt beam="2">  1       -2 0.63458797E-01 0.75026446E+03</pdfrwt>
<totfact> 0.26012481E+02</totfact>
</mgrwt>
</event>
<event>
 4    1  0.5131465E-005  0.1016079E+04  0.7818608E-02  0.9291083E-01
          2   -1    0    0  501    0  0.00000000000E+00  0.00000000000E+00  0.78626260538E+03  0.78626260538E+03  0.25500000000E-02 0.  1.
         -2   -1    0    0    0  501 -0.00000000000E+00 -0.00000000000E+00 -0.32826704288E+03  0.32826704289E+03  0.25500000000E-02 0. -1.
    5000001    1    1    2    0    0 -0.32644561675E+03  0.33422673409E+03  0.24559134100E+03  0.56408364384E+03  0.19900000000E+03 0.  0.
   -5000001    1    1    2    0    0  0.32644561675E+03 -0.33422673409E+03  0.21240422150E+03  0.55044600443E+03  0.19900000000E+03 0.  0.
<mgrwt>
<rscale>  0 0.10160789E+04</rscale>
<asrwt>0</asrwt>
<pdfrwt beam="1">  1        2 0.11232323E+00 0.10160789E+04</pdfrwt>
<pdfrwt beam="2">  1       -2 0.46895291E-01 0.10160789E+04</pdfrwt>
<totfact> 0.16703496E+02</totfact>
</mgrwt>
</event>
<event>
 4    1  0.5131465E-005  0.1047726E+04  0.7818608E-02  0.9257695E-01
          2   -1    0    0  501    0  0.00000000000E+00  0.00000000000E+00  0.12173922044E+04  0.12173922044E+04  0.25500000000E-02 0.  1.
         -2   -1    0    0    0  501 -0.00000000000E+00 -0.00000000000E+00 -0.22542646497E+03  0.22542646498E+03  0.25500000000E-02 0. -1.
    5000001    1    1    2    0    0 -0.21985758258E+03  0.34470537467E+03  0.85421902789E+03  0.96770362175E+03  0.19900000000E+03 0.  0.
   -5000001    1    1    2    0    0  0.21985758258E+03 -0.34470537467E+03  0.13774671154E+03  0.47511504762E+03  0.19900000000E+03 0.  0.
<mgrwt>
<rscale>  0 0.10477260E+04</rscale>
<asrwt>0</asrwt>
<pdfrwt beam="1">  1        2 0.17391318E+00 0.10477260E+04</pdfrwt>
<pdfrwt beam="2">  1       -2 0.32203780E-01 0.10477260E+04</pdfrwt>
<totfact> 0.18629080E+02</totfact>
</mgrwt>
</event>
<event>
 4    1  0.5131465E-005  0.6250061E+03  0.7818608E-02  0.9854843E-01
          2   -1    0    0  501    0  0.00000000000E+00  0.00000000000E+00  0.80441453488E+03  0.80441453489E+03  0.25500000000E-02 0.  1.
         -2   -1    0    0    0  501 -0.00000000000E+00 -0.00000000000E+00 -0.12140276855E+03  0.12140276858E+03  0.25500000000E-02 0. -1.
    5000001    1    1    2    0    0 -0.20164612461E+02  0.21629751731E+03  0.49591551225E+03  0.57682269622E+03  0.19900000000E+03 0.  0.
   -5000001    1    1    2    0    0  0.20164612461E+02 -0.21629751731E+03  0.18709625409E+03  0.34899460724E+03  0.19900000000E+03 0.  0.
<mgrwt>
<rscale>  0 0.62500609E+03</rscale>
<asrwt>0</asrwt>
<pdfrwt beam="1">  1        2 0.11491637E+00 0.62500609E+03</pdfrwt>
<pdfrwt beam="2">  1       -2 0.17343252E-01 0.62500609E+03</pdfrwt>
<totfact> 0.10348092E+03</totfact>
</mgrwt>
</event>
<event>
 4    1  0.5131465E-005  0.5407139E+03  0.7818608E-02  0.1003666E+00
         -2   -1    0    0    0  501 -0.00000000000E+00  0.00000000000E+00  0.11301564577E+03  0.11301564580E+03  0.25500000000E-02 0. -1.
          2   -1    0    0  501    0  0.00000000000E+00 -0.00000000000E+00 -0.64675003966E+03  0.64675003967E+03  0.25500000000E-02 0.  1.
    5000001    1    1    2    0    0  0.99353890921E+02  0.14748080462E+03 -0.20610360775E+03  0.33719650132E+03  0.19900000000E+03 0.  0.
   -5000001    1    1    2    0    0 -0.99353890921E+02 -0.14748080462E+03 -0.32763078614E+03  0.42256918415E+03  0.19900000000E+03 0.  0.
<mgrwt>
<rscale>  0 0.54071387E+03</rscale>
<asrwt>0</asrwt>
<pdfrwt beam="1">  1        2 0.92392861E-01 0.54071387E+03</pdfrwt>
<pdfrwt beam="2">  1       -2 0.16145093E-01 0.54071387E+03</pdfrwt>
<totfact> 0.15318347E+03</totfact>
</mgrwt>
</event>
<event>
 4    1  0.5131465E-005  0.7033289E+03  0.7818608E-02  0.9711556E-01
         -2   -1    0    0    0  501 -0.00000000000E+00  0.00000000000E+00  0.16062500470E+03  0.16062500472E+03  0.25500000000E-02 0. -1.
          2   -1    0    0  501    0  0.00000000000E+00 -0.00000000000E+00 -0.76991677560E+03  0.76991677561E+03  0.25500000000E-02 0.  1.
    5000001    1    1    2    0    0  0.17077641015E+03  0.39706953487E+02 -0.61017003125E+03  0.66531924026E+03  0.19900000000E+03 0.  0.
   -5000001    1    1    2    0    0 -0.17077641015E+03 -0.39706953487E+02  0.87826034748E+00  0.26522254007E+03  0.19900000000E+03 0.  0.
<mgrwt>
<rscale>  0 0.70332890E+03</rscale>
<asrwt>0</asrwt>
<pdfrwt beam="1">  1        2 0.10998811E+00 0.70332890E+03</pdfrwt>
<pdfrwt beam="2">  1       -2 0.22946430E-01 0.70332890E+03</pdfrwt>
<totfact> 0.67013619E+02</totfact>
</mgrwt>
</event>
<event>
 4    1  0.5131465E-005  0.5508995E+03  0.7818608E-02  0.1001286E+00
         -2   -1    0    0    0  501 -0.00000000000E+00  0.00000000000E+00  0.60160505171E+02  0.60160505225E+02  0.25500000000E-02 0. -1.
          2   -1    0    0  501    0  0.00000000000E+00 -0.00000000000E+00 -0.12611691262E+04  0.12611691262E+04  0.25500000000E-02 0.  1.
    5000001    1    1    2    0    0 -0.14115286699E+03  0.38842360054E+02 -0.89267514713E+03  0.92623041361E+03  0.19900000000E+03 0.  0.
   -5000001    1    1    2    0    0  0.14115286699E+03 -0.38842360054E+02 -0.30833347390E+03  0.39509921782E+03  0.19900000000E+03 0.  0.
<mgrwt>
<rscale>  0 0.55089953E+03</rscale>
<asrwt>0</asrwt>
<pdfrwt beam="1">  1        2 0.18016700E+00 0.55089953E+03</pdfrwt>
<pdfrwt beam="2">  1       -2 0.85943586E-02 0.55089953E+03</pdfrwt>
<totfact> 0.17463080E+03</totfact>
</mgrwt>
</event>
<event>
 4    1  0.5131465E-005  0.4867163E+03  0.7818608E-02  0.1017306E+00
          2   -1    0    0  501    0  0.00000000000E+00  0.00000000000E+00  0.15035648065E+04  0.15035648065E+04  0.25500000000E-02 0.  1.
         -2   -1    0    0    0  501 -0.00000000000E+00 -0.00000000000E+00 -0.39388515550E+02  0.39388515633E+02  0.25500000000E-02 0. -1.
    5000001    1    1    2    0    0  0.88483059402E+02 -0.63691860604E+02  0.10109204094E+04  0.10360728638E+04  0.19900000000E+03 0.  0.
   -5000001    1    1    2    0    0 -0.88483059402E+02  0.63691860604E+02  0.45325588154E+03  0.50688045836E+03  0.19900000000E+03 0.  0.
<mgrwt>
<rscale>  0 0.48671629E+03</rscale>
<asrwt>0</asrwt>
<pdfrwt beam="1">  1        2 0.21479494E+00 0.48671629E+03</pdfrwt>
<pdfrwt beam="2">  1       -2 0.56269318E-02 0.48671629E+03</pdfrwt>
<totfact> 0.25330527E+03</totfact>
</mgrwt>
</event>
<event>
 4    1  0.5131465E-005  0.5278645E+03  0.7818608E-02  0.1006751E+00
          2   -1    0    0  501    0  0.00000000000E+00  0.00000000000E+00  0.89027388107E+02  0.89027388144E+02  0.25500000000E-02 0.  1.
         -2   -1    0    0    0  501 -0.00000000000E+00 -0.00000000000E+00 -0.78245855366E+03  0.78245855366E+03  0.25500000000E-02 0. -1.
    5000001    1    1    2    0    0 -0.43745353064E+02  0.13179073077E+03 -0.17532672398E+03  0.29937086160E+03  0.19900000000E+03 0.  0.
   -5000001    1    1    2    0    0  0.43745353064E+02 -0.13179073077E+03 -0.51810444157E+03  0.57211508021E+03  0.19900000000E+03 0.  0.
<mgrwt>
<rscale>  0 0.52786453E+03</rscale>
<asrwt>0</asrwt>
<pdfrwt beam="1">  1        2 0.12718199E-01 0.52786453E+03</pdfrwt>
<pdfrwt beam="2">  1       -2 0.11177979E+00 0.52786453E+03</pdfrwt>
<totfact> 0.31419143E+02</totfact>
</mgrwt>
</event>
<event>
 4    1  0.5131465E-005  0.6273156E+03  0.7818608E-02  0.9850301E-01
         -2   -1    0    0    0  501 -0.00000000000E+00  0.00000000000E+00  0.39156735498E+02  0.39156735581E+02  0.25500000000E-02 0.  1.
          2   -1    0    0  501    0  0.00000000000E+00 -0.00000000000E+00 -0.25124976257E+04  0.25124976257E+04  0.25500000000E-02 0. -1.
    5000001    1    1    2    0    0 -0.18884997532E+03 -0.15191117474E+03 -0.12113052986E+04  0.12512405223E+04  0.19900000000E+03 0.  0.
   -5000001    1    1    2    0    0  0.18884997532E+03  0.15191117474E+03 -0.12620355916E+04  0.13004138390E+04  0.19900000000E+03 0.  0.
<mgrwt>
<rscale>  0 0.62731557E+03</rscale>
<asrwt>0</asrwt>
<pdfrwt beam="1">  1        2 0.35892813E+00 0.62731557E+03</pdfrwt>
<pdfrwt beam="2">  1       -2 0.55938210E-02 0.62731557E+03</pdfrwt>
<totfact> 0.78422569E+02</totfact>
</mgrwt>
</event>
<event>
 4    1  0.5131465E-005  0.4940704E+03  0.7818608E-02  0.1015338E+00
         -2   -1    0    0    0  501 -0.00000000000E+00  0.00000000000E+00  0.15995727000E+02  0.15995727203E+02  0.25500000000E-02 0. -1.
          2   -1    0    0  501    0  0.00000000000E+00 -0.00000000000E+00 -0.38151689165E+04  0.38151689165E+04  0.25500000000E-02 0.  1.
    5000001    1    1    2    0    0 -0.12206852218E+03 -0.36986191061E+02 -0.13427499504E+04  0.13633954422E+04  0.19900000000E+03 0.  0.
   -5000001    1    1    2    0    0  0.12206852218E+03  0.36986191061E+02 -0.24564232391E+04  0.24677692015E+04  0.19900000000E+03 0.  0.
<mgrwt>
<rscale>  0 0.49407044E+03</rscale>
<asrwt>0</asrwt>
<pdfrwt beam="1">  1        2 0.54502355E+00 0.49407044E+03</pdfrwt>
<pdfrwt beam="2">  1       -2 0.22851063E-02 0.49407044E+03</pdfrwt>
<totfact> 0.57806814E+02</totfact>
</mgrwt>
</event>
<event>
 4    1  0.5131465E-005  0.6265070E+03  0.7818608E-02  0.9851889E-01
          2   -1    0    0  501    0  0.00000000000E+00  0.00000000000E+00  0.27693286991E+03  0.27693286992E+03  0.25500000000E-02 0.  1.
         -2   -1    0    0    0  501 -0.00000000000E+00 -0.00000000000E+00 -0.35433773192E+03  0.35433773192E+03  0.25500000000E-02 0. -1.
    5000001    1    1    2    0    0 -0.92487566797E+02  0.19689194018E+03  0.67962649798E+02  0.30255628879E+03  0.19900000000E+03 0.  0.
   -5000001    1    1    2    0    0  0.92487566797E+02 -0.19689194018E+03 -0.14536751180E+03  0.32871431306E+03  0.19900000000E+03 0.  0.
<mgrwt>
<rscale>  0 0.62650703E+03</rscale>
<asrwt>0</asrwt>
<pdfrwt beam="1">  1        2 0.39561839E-01 0.62650703E+03</pdfrwt>
<pdfrwt beam="2">  1       -2 0.50619676E-01 0.62650703E+03</pdfrwt>
<totfact> 0.48502576E+02</totfact>
</mgrwt>
</event>
<event>
 4    1  0.5131465E-005  0.5883224E+03  0.7818608E-02  0.9929934E-01
         -2   -1    0    0    0  501 -0.00000000000E+00  0.00000000000E+00  0.28242773789E+02  0.28242773905E+02  0.25500000000E-02 0. -1.
          2   -1    0    0  501    0  0.00000000000E+00 -0.00000000000E+00 -0.30638208757E+04  0.30638208757E+04  0.25500000000E-02 0.  1.
    5000001    1    1    2    0    0 -0.19842135768E+03 -0.25122872890E+02 -0.19552352681E+04  0.19754868128E+04  0.19900000000E+03 0.  0.
   -5000001    1    1    2    0    0  0.19842135768E+03  0.25122872890E+02 -0.10803428339E+04  0.11165768369E+04  0.19900000000E+03 0.  0.
<mgrwt>
<rscale>  0 0.58832236E+03</rscale>
<asrwt>0</asrwt>
<pdfrwt beam="1">  1        2 0.43768849E+00 0.58832236E+03</pdfrwt>
<pdfrwt beam="2">  1       -2 0.40346839E-02 0.58832236E+03</pdfrwt>
<totfact> 0.66602224E+02</totfact>
</mgrwt>
</event>
<event>
 4    1  0.5131465E-005  0.7551942E+03  0.7818608E-02  0.9627237E-01
          2   -1    0    0  501    0  0.00000000000E+00  0.00000000000E+00  0.13891662958E+04  0.13891662958E+04  0.25500000000E-02 0.  1.
         -2   -1    0    0    0  501 -0.00000000000E+00 -0.00000000000E+00 -0.10263678270E+03  0.10263678273E+03  0.25500000000E-02 0. -1.
    5000001    1    1    2    0    0 -0.29045224056E+03 -0.10700527847E+03  0.47604444945E+03  0.60169091029E+03  0.19900000000E+03 0.  0.
   -5000001    1    1    2    0    0  0.29045224056E+03  0.10700527847E+03  0.81048506364E+03  0.89011216824E+03  0.19900000000E+03 0.  0.
<mgrwt>
<rscale>  0 0.75519417E+03</rscale>
<asrwt>0</asrwt>
<pdfrwt beam="1">  1        2 0.19845232E+00 0.75519417E+03</pdfrwt>
<pdfrwt beam="2">  1       -2 0.14662398E-01 0.75519417E+03</pdfrwt>
<totfact> 0.61527306E+02</totfact>
</mgrwt>
</event>
<event>
 4    1  0.5131465E-005  0.4781331E+03  0.7818608E-02  0.1019650E+00
          2   -1    0    0  501    0  0.00000000000E+00  0.00000000000E+00  0.18688833025E+03  0.18688833027E+03  0.25500000000E-02 0.  1.
         -2   -1    0    0    0  501 -0.00000000000E+00 -0.00000000000E+00 -0.30581259401E+03  0.30581259402E+03  0.25500000000E-02 0. -1.
    5000001    1    1    2    0    0  0.10568886386E+03  0.74634723633E+02 -0.30110475658E+02  0.23926579083E+03  0.19900000000E+03 0.  0.
   -5000001    1    1    2    0    0 -0.10568886386E+03 -0.74634723633E+02 -0.88813788105E+02  0.25343513346E+03  0.19900000000E+03 0.  0.
<mgrwt>
<rscale>  0 0.47813306E+03</rscale>
<asrwt>0</asrwt>
<pdfrwt beam="1">  1        2 0.26698333E-01 0.47813306E+03</pdfrwt>
<pdfrwt beam="2">  1       -2 0.43687513E-01 0.47813306E+03</pdfrwt>
<totfact> 0.10109783E+03</totfact>
</mgrwt>
</event>
<event>
 4    1  0.5131465E-005  0.4746764E+03  0.7818608E-02  0.1020609E+00
         -2   -1    0    0    0  501 -0.00000000000E+00  0.00000000000E+00  0.20866277875E+03  0.20866277876E+03  0.25500000000E-02 0.  1.
          2   -1    0    0  501    0  0.00000000000E+00 -0.00000000000E+00 -0.26995433280E+03  0.26995433281E+03  0.25500000000E-02 0. -1.
    5000001    1    1    2    0    0  0.67215544334E+02  0.10710721249E+03 -0.58047424087E+02  0.24281760194E+03  0.19900000000E+03 0.  0.
   -5000001    1    1    2    0    0 -0.67215544334E+02 -0.10710721249E+03 -0.32441299689E+01  0.23579950964E+03  0.19900000000E+03 0.  0.
<mgrwt>
<rscale>  0 0.47467640E+03</rscale>
<asrwt>0</asrwt>
<pdfrwt beam="1">  1        2 0.38564905E-01 0.47467640E+03</pdfrwt>
<pdfrwt beam="2">  1       -2 0.29808968E-01 0.47467640E+03</pdfrwt>
<totfact> 0.13873275E+03</totfact>
</mgrwt>
</event>
<event>
 4    1  0.5131465E-005  0.4957392E+03  0.7818608E-02  0.1014897E+00
         -2   -1    0    0    0  501 -0.00000000000E+00  0.00000000000E+00  0.13334413076E+04  0.13334413076E+04  0.25500000000E-02 0. -1.
          2   -1    0    0  501    0  0.00000000000E+00 -0.00000000000E+00 -0.46075770037E+02  0.46075770107E+02  0.25500000000E-02 0.  1.
    5000001    1    1    2    0    0 -0.71110096956E+02  0.12760329332E+03  0.70585017072E+03  0.74777316739E+03  0.19900000000E+03 0.  0.
   -5000001    1    1    2    0    0  0.71110096956E+02 -0.12760329332E+03  0.58151536680E+03  0.63174391028E+03  0.19900000000E+03 0.  0.
<mgrwt>
<rscale>  0 0.49573919E+03</rscale>
<asrwt>0</asrwt>
<pdfrwt beam="1">  1        2 0.65822540E-02 0.49573919E+03</pdfrwt>
<pdfrwt beam="2">  1       -2 0.19049158E+00 0.49573919E+03</pdfrwt>
<totfact> 0.18064230E+02</totfact>
</mgrwt>
</event>
<event>
 4    1  0.5131465E-005  0.7516324E+03  0.7818608E-02  0.9632793E-01
         -2   -1    0    0    0  501 -0.00000000000E+00  0.00000000000E+00  0.24502246332E+03  0.24502246333E+03  0.25500000000E-02 0. -1.
          2   -1    0    0  501    0  0.00000000000E+00 -0.00000000000E+00 -0.57642800705E+03  0.57642800705E+03  0.25500000000E-02 0.  1.
    5000001    1    1    2    0    0 -0.10456871803E+03 -0.29992781052E+03 -0.19554287216E+03  0.42276390949E+03  0.19900000000E+03 0.  0.
   -5000001    1    1    2    0    0  0.10456871803E+03  0.29992781052E+03 -0.13586267157E+03  0.39868656090E+03  0.19900000000E+03 0.  0.
<mgrwt>
<rscale>  0 0.75163238E+03</rscale>
<asrwt>0</asrwt>
<pdfrwt beam="1">  1        2 0.82346858E-01 0.75163238E+03</pdfrwt>
<pdfrwt beam="2">  1       -2 0.35003209E-01 0.75163238E+03</pdfrwt>
<totfact> 0.43791259E+02</totfact>
</mgrwt>
</event>
<event>
 4    1  0.5131465E-005  0.7151003E+03  0.7818608E-02  0.9691752E-01
         -2   -1    0    0    0  501 -0.00000000000E+00  0.00000000000E+00  0.11171723490E+03  0.11171723493E+03  0.25500000000E-02 0. -1.
          2   -1    0    0  501    0  0.00000000000E+00 -0.00000000000E+00 -0.11443365744E+04  0.11443365744E+04  0.25500000000E-02 0.  1.
    5000001    1    1    2    0    0 -0.19029810448E+03 -0.22790502526E+03 -0.53269754592E+03  0.64149960603E+03  0.19900000000E+03 0.  0.
   -5000001    1    1    2    0    0  0.19029810448E+03  0.22790502526E+03 -0.49992179358E+03  0.61455420331E+03  0.19900000000E+03 0.  0.
<mgrwt>
<rscale>  0 0.71510032E+03</rscale>
<asrwt>0</asrwt>
<pdfrwt beam="1">  1        2 0.16347665E+00 0.71510032E+03</pdfrwt>
<pdfrwt beam="2">  1       -2 0.15959606E-01 0.71510032E+03</pdfrwt>
<totfact> 0.72951427E+02</totfact>
</mgrwt>
</event>
<event>
 4    1  0.5131465E-005  0.4981713E+03  0.7818608E-02  0.1014257E+00
         -2   -1    0    0    0  501 -0.00000000000E+00  0.00000000000E+00  0.26031091205E+02  0.26031091330E+02  0.25500000000E-02 0. -1.
          2   -1    0    0  501    0  0.00000000000E+00 -0.00000000000E+00 -0.23834446121E+04  0.23834446121E+04  0.25500000000E-02 0.  1.
    5000001    1    1    2    0    0 -0.14441872372E+03 -0.34882451310E+01 -0.98683601741E+03  0.10170129109E+04  0.19900000000E+03 0.  0.
   -5000001    1    1    2    0    0  0.14441872372E+03  0.34882451310E+01 -0.13705775035E+04  0.13924627926E+04  0.19900000000E+03 0.  0.
<mgrwt>
<rscale>  0 0.49817131E+03</rscale>
<asrwt>0</asrwt>
<pdfrwt beam="1">  1        2 0.34049195E+00 0.49817131E+03</pdfrwt>
<pdfrwt beam="2">  1       -2 0.37187288E-02 0.49817131E+03</pdfrwt>
<totfact> 0.17283871E+03</totfact>
</mgrwt>
</event>
<event>
 4    1  0.5131465E-005  0.6341398E+03  0.7818608E-02  0.9837003E-01
         -2   -1    0    0    0  501 -0.00000000000E+00  0.00000000000E+00  0.55766131790E+02  0.55766131849E+02  0.25500000000E-02 0. -1.
          2   -1    0    0  501    0  0.00000000000E+00 -0.00000000000E+00 -0.18027666016E+04  0.18027666016E+04  0.25500000000E-02 0.  1.
    5000001    1    1    2    0    0  0.51839157083E+02  0.23605956159E+03 -0.72634915387E+03  0.79094595779E+03  0.19900000000E+03 0.  0.
   -5000001    1    1    2    0    0 -0.51839157083E+02 -0.23605956159E+03 -0.10206513159E+04  0.10675867756E+04  0.19900000000E+03 0.  0.
<mgrwt>
<rscale>  0 0.63413980E+03</rscale>
<asrwt>0</asrwt>
<pdfrwt beam="1">  1        2 0.25753805E+00 0.63413980E+03</pdfrwt>
<pdfrwt beam="2">  1       -2 0.79665913E-02 0.63413980E+03</pdfrwt>
<totfact> 0.10258965E+03</totfact>
</mgrwt>
</event>
<event>
 4    1  0.5131465E-005  0.5304418E+03  0.7818608E-02  0.1006125E+00
         -2   -1    0    0    0  501 -0.00000000000E+00  0.00000000000E+00  0.56919650612E+02  0.56919650669E+02  0.25500000000E-02 0. -1.
          2   -1    0    0  501    0  0.00000000000E+00 -0.00000000000E+00 -0.12358142177E+04  0.12358142177E+04  0.25500000000E-02 0.  1.
    5000001    1    1    2    0    0  0.12553711072E+03  0.11640383543E+03 -0.49723333961E+03  0.56227343267E+03  0.19900000000E+03 0.  0.
   -5000001    1    1    2    0    0 -0.12553711072E+03 -0.11640383543E+03 -0.68166122745E+03  0.73046043567E+03  0.19900000000E+03 0.  0.
<mgrwt>
<rscale>  0 0.53044175E+03</rscale>
<asrwt>0</asrwt>
<pdfrwt beam="1">  1        2 0.17654487E+00 0.53044175E+03</pdfrwt>
<pdfrwt beam="2">  1       -2 0.81313794E-02 0.53044175E+03</pdfrwt>
<totfact> 0.19705305E+03</totfact>
</mgrwt>
</event>
<event>
 4    1  0.5131465E-005  0.8450078E+03  0.7818608E-02  0.9497062E-01
          2   -1    0    0  501    0  0.00000000000E+00  0.00000000000E+00  0.91531281379E+03  0.91531281379E+03  0.25500000000E-02 0.  1.
         -2   -1    0    0    0  501 -0.00000000000E+00 -0.00000000000E+00 -0.19502573997E+03  0.19502573999E+03  0.25500000000E-02 0. -1.
    5000001    1    1    2    0    0  0.43747493494E+02 -0.35924962989E+03  0.47718837173E+03  0.63109736323E+03  0.19900000000E+03 0.  0.
   -5000001    1    1    2    0    0 -0.43747493494E+02  0.35924962989E+03  0.24309870209E+03  0.47924119055E+03  0.19900000000E+03 0.  0.
<mgrwt>
<rscale>  0 0.84500783E+03</rscale>
<asrwt>0</asrwt>
<pdfrwt beam="1">  1        2 0.13075897E+00 0.84500783E+03</pdfrwt>
<pdfrwt beam="2">  1       -2 0.27860820E-01 0.84500783E+03</pdfrwt>
<totfact> 0.37421459E+02</totfact>
</mgrwt>
</event>
<event>
 4    1  0.5131465E-005  0.5831966E+03  0.7818608E-02  0.9940894E-01
         -2   -1    0    0    0  501 -0.00000000000E+00  0.00000000000E+00  0.43475973936E+02  0.43475974011E+02  0.25500000000E-02 0. -1.
          2   -1    0    0  501    0  0.00000000000E+00 -0.00000000000E+00 -0.19557830399E+04  0.19557830399E+04  0.25500000000E-02 0.  1.
    5000001    1    1    2    0    0  0.49153315463E+02 -0.68839794471E+02 -0.16268156334E+04  0.16411231126E+04  0.19900000000E+03 0.  0.
   -5000001    1    1    2    0    0 -0.49153315463E+02  0.68839794471E+02 -0.28549143258E+03  0.35813590130E+03  0.19900000000E+03 0.  0.
<mgrwt>
<rscale>  0 0.58319661E+03</rscale>
<asrwt>0</asrwt>
<pdfrwt beam="1">  1        2 0.27939752E+00 0.58319661E+03</pdfrwt>
<pdfrwt beam="2">  1       -2 0.62108546E-02 0.58319661E+03</pdfrwt>
<totfact> 0.12768383E+03</totfact>
</mgrwt>
</event>
<event>
 4    1  0.5131465E-005  0.7905321E+03  0.7818608E-02  0.9573824E-01
          2   -1    0    0  501    0  0.00000000000E+00  0.00000000000E+00  0.33524967549E+04  0.33524967549E+04  0.25500000000E-02 0.  1.
         -2   -1    0    0    0  501 -0.00000000000E+00 -0.00000000000E+00 -0.46602650342E+02  0.46602650412E+02  0.25500000000E-02 0. -1.
    5000001    1    1    2    0    0 -0.11118608321E+03  0.26231351450E+03  0.84322637014E+03  0.91203203688E+03  0.19900000000E+03 0.  0.
   -5000001    1    1    2    0    0  0.11118608321E+03 -0.26231351450E+03  0.24626677344E+04  0.24870673684E+04  0.19900000000E+03 0.  0.
<mgrwt>
<rscale>  0 0.79053206E+03</rscale>
<asrwt>0</asrwt>
<pdfrwt beam="1">  1        2 0.47892798E+00 0.79053206E+03</pdfrwt>
<pdfrwt beam="2">  1       -2 0.66575233E-02 0.79053206E+03</pdfrwt>
<totfact> 0.20526533E+02</totfact>
</mgrwt>
</event>
<event>
 4    1  0.5131465E-005  0.4479669E+03  0.7818608E-02  0.1028330E+00
          2   -1    0    0  501    0  0.00000000000E+00  0.00000000000E+00  0.93357299388E+03  0.93357299388E+03  0.25500000000E-02 0.  1.
         -2   -1    0    0    0  501 -0.00000000000E+00 -0.00000000000E+00 -0.53738256548E+02  0.53738256608E+02  0.25500000000E-02 0. -1.
    5000001    1    1    2    0    0  0.89624964603E+02 -0.28682209540E+01  0.55070392834E+03  0.59238220573E+03  0.19900000000E+03 0.  0.
   -5000001    1    1    2    0    0 -0.89624964603E+02  0.28682209540E+01  0.32913080899E+03  0.39492904477E+03  0.19900000000E+03 0.  0.
<mgrwt>
<rscale>  0 0.44796690E+03</rscale>
<asrwt>0</asrwt>
<pdfrwt beam="1">  1        2 0.13336756E+00 0.44796690E+03</pdfrwt>
<pdfrwt beam="2">  1       -2 0.76768943E-02 0.44796690E+03</pdfrwt>
<totfact> 0.32402330E+03</totfact>
</mgrwt>
</event>
<event>
 4    1  0.5131465E-005  0.4729256E+03  0.7818608E-02  0.1021098E+00
         -2   -1    0    0    0  501 -0.00000000000E+00  0.00000000000E+00  0.36302750095E+02  0.36302750184E+02  0.25500000000E-02 0. -1.
          2   -1    0    0  501    0  0.00000000000E+00 -0.00000000000E+00 -0.15402322508E+04  0.15402322508E+04  0.25500000000E-02 0.  1.
    5000001    1    1    2    0    0  0.77467357444E+02 -0.78419738442E+01 -0.41444948993E+03  0.46629611592E+03  0.19900000000E+03 0.  0.
   -5000001    1    1    2    0    0 -0.77467357444E+02  0.78419738442E+01 -0.10894800108E+04  0.11102388850E+04  0.19900000000E+03 0.  0.
<mgrwt>
<rscale>  0 0.47292565E+03</rscale>
<asrwt>0</asrwt>
<pdfrwt beam="1">  1        2 0.22003314E+00 0.47292565E+03</pdfrwt>
<pdfrwt beam="2">  1       -2 0.51861081E-02 0.47292565E+03</pdfrwt>
<totfact> 0.27525670E+03</totfact>
</mgrwt>
</event>
<event>
 4    1  0.5131465E-005  0.6889347E+03  0.7818608E-02  0.9736345E-01
          2   -1    0    0  501    0  0.00000000000E+00  0.00000000000E+00  0.43229649196E+03  0.43229649196E+03  0.25500000000E-02 0.  1.
         -2   -1    0    0    0  501 -0.00000000000E+00 -0.00000000000E+00 -0.27448235509E+03  0.27448235510E+03  0.25500000000E-02 0. -1.
    5000001    1    1    2    0    0 -0.57297434368E+02 -0.27234367023E+03  0.11997757302E+03  0.36255991054E+03  0.19900000000E+03 0.  0.
   -5000001    1    1    2    0    0  0.57297434368E+02  0.27234367023E+03  0.37836563843E+02  0.34421893653E+03  0.19900000000E+03 0.  0.
<mgrwt>
<rscale>  0 0.68893471E+03</rscale>
<asrwt>0</asrwt>
<pdfrwt beam="1">  1        2 0.61756641E-01 0.68893471E+03</pdfrwt>
<pdfrwt beam="2">  1       -2 0.39211766E-01 0.68893471E+03</pdfrwt>
<totfact> 0.49043490E+02</totfact>
</mgrwt>
</event>
<event>
 4    1  0.5131465E-005  0.6427669E+03  0.7818608E-02  0.9820447E-01
          2   -1    0    0  501    0  0.00000000000E+00  0.00000000000E+00  0.10078933754E+04  0.10078933754E+04  0.25500000000E-02 0.  1.
         -2   -1    0    0    0  501 -0.00000000000E+00 -0.00000000000E+00 -0.10247843181E+03  0.10247843184E+03  0.25500000000E-02 0. -1.
    5000001    1    1    2    0    0 -0.17728533270E+03  0.11979999914E+03  0.68385667646E+03  0.74366866475E+03  0.19900000000E+03 0.  0.
   -5000001    1    1    2    0    0  0.17728533270E+03 -0.11979999914E+03  0.22155826712E+03  0.36670314249E+03  0.19900000000E+03 0.  0.
<mgrwt>
<rscale>  0 0.64276693E+03</rscale>
<asrwt>0</asrwt>
<pdfrwt beam="1">  1        2 0.14398477E+00 0.64276693E+03</pdfrwt>
<pdfrwt beam="2">  1       -2 0.14639776E-01 0.64276693E+03</pdfrwt>
<totfact> 0.10186656E+03</totfact>
</mgrwt>
</event>
<event>
 4    1  0.5131465E-005  0.4709617E+03  0.7818608E-02  0.1021649E+00
          2   -1    0    0  501    0  0.00000000000E+00  0.00000000000E+00  0.30743587633E+04  0.30743587633E+04  0.25500000000E-02 0.  1.
         -2   -1    0    0    0  501 -0.00000000000E+00 -0.00000000000E+00 -0.18036678227E+02  0.18036678408E+02  0.25500000000E-02 0. -1.
    5000001    1    1    2    0    0 -0.91226727926E+02 -0.23856954286E+02  0.20759018398E+04  0.20875490219E+04  0.19900000000E+03 0.  0.
   -5000001    1    1    2    0    0  0.91226727926E+02  0.23856954286E+02  0.98042024528E+03  0.10048464199E+04  0.19900000000E+03 0.  0.
<mgrwt>
<rscale>  0 0.47096165E+03</rscale>
<asrwt>0</asrwt>
<pdfrwt beam="1">  1        2 0.43919418E+00 0.47096165E+03</pdfrwt>
<pdfrwt beam="2">  1       -2 0.25766679E-02 0.47096165E+03</pdfrwt>
<totfact> 0.13140192E+03</totfact>
</mgrwt>
</event>
<event>
 4    1  0.5131465E-005  0.5766067E+03  0.7818608E-02  0.9955165E-01
          2   -1    0    0  501    0  0.00000000000E+00  0.00000000000E+00  0.11410084539E+04  0.11410084539E+04  0.25500000000E-02 0.  1.
         -2   -1    0    0    0  501 -0.00000000000E+00 -0.00000000000E+00 -0.72846800166E+02  0.72846800211E+02  0.25500000000E-02 0. -1.
    5000001    1    1    2    0    0 -0.18825244329E+03  0.55140117563E+02  0.68350936660E+03  0.73842092955E+03  0.19900000000E+03 0.  0.
   -5000001    1    1    2    0    0  0.18825244329E+03 -0.55140117563E+02  0.38465228710E+03  0.47543432453E+03  0.19900000000E+03 0.  0.
<mgrwt>
<rscale>  0 0.57660668E+03</rscale>
<asrwt>0</asrwt>
<pdfrwt beam="1">  1        2 0.16300120E+00 0.57660668E+03</pdfrwt>
<pdfrwt beam="2">  1       -2 0.10406686E-01 0.57660668E+03</pdfrwt>
<totfact> 0.14967806E+03</totfact>
</mgrwt>
</event>
<event>
 4    1  0.5131465E-005  0.4502360E+03  0.7818608E-02  0.1027652E+00
         -2   -1    0    0    0  501 -0.00000000000E+00  0.00000000000E+00  0.43660202802E+02  0.43660202876E+02  0.25500000000E-02 0. -1.
          2   -1    0    0  501    0  0.00000000000E+00 -0.00000000000E+00 -0.11607394257E+04  0.11607394257E+04  0.25500000000E-02 0.  1.
    5000001    1    1    2    0    0 -0.86865662963E+02 -0.55163035051E+02 -0.49941486412E+03  0.54736168147E+03  0.19900000000E+03 0.  0.
   -5000001    1    1    2    0    0  0.86865662963E+02  0.55163035051E+02 -0.61766435880E+03  0.65703794713E+03  0.19900000000E+03 0.  0.
<mgrwt>
<rscale>  0 0.45023602E+03</rscale>
<asrwt>0</asrwt>
<pdfrwt beam="1">  1        2 0.16581990E+00 0.45023602E+03</pdfrwt>
<pdfrwt beam="2">  1       -2 0.62371726E-02 0.45023602E+03</pdfrwt>
<totfact> 0.32955303E+03</totfact>
</mgrwt>
</event>
<event>
 4    1  0.5131465E-005  0.7932798E+03  0.7818608E-02  0.9569796E-01
         -2   -1    0    0    0  501 -0.00000000000E+00  0.00000000000E+00  0.16594360042E+03  0.16594360044E+03  0.25500000000E-02 0. -1.
          2   -1    0    0  501    0  0.00000000000E+00 -0.00000000000E+00 -0.94805223742E+03  0.94805223743E+03  0.25500000000E-02 0.  1.
    5000001    1    1    2    0    0 -0.31542193709E+03 -0.95532868754E+02 -0.52504956468E+03  0.65107263250E+03  0.19900000000E+03 0.  0.
   -5000001    1    1    2    0    0  0.31542193709E+03  0.95532868754E+02 -0.25705907232E+03  0.46292320537E+03  0.19900000000E+03 0.  0.
<mgrwt>
<rscale>  0 0.79327978E+03</rscale>
<asrwt>0</asrwt>
<pdfrwt beam="1">  1        2 0.13543603E+00 0.79327978E+03</pdfrwt>
<pdfrwt beam="2">  1       -2 0.23706229E-01 0.79327978E+03</pdfrwt>
<totfact> 0.47885811E+02</totfact>
</mgrwt>
</event>
<event>
 4    1  0.5131465E-005  0.6210491E+03  0.7818608E-02  0.9862673E-01
         -2   -1    0    0    0  501 -0.00000000000E+00  0.00000000000E+00  0.51817992259E+03  0.51817992259E+03  0.25500000000E-02 0. -1.
          2   -1    0    0  501    0  0.00000000000E+00 -0.00000000000E+00 -0.18608499702E+03  0.18608499703E+03  0.25500000000E-02 0.  1.
    5000001    1    1    2    0    0 -0.13212729613E+03 -0.18966292572E+03  0.23212002148E+03  0.38328886254E+03  0.19900000000E+03 0.  0.
   -5000001    1    1    2    0    0  0.13212729613E+03  0.18966292572E+03  0.99974904096E+02  0.32097605709E+03  0.19900000000E+03 0.  0.
<mgrwt>
<rscale>  0 0.62104914E+03</rscale>
<asrwt>0</asrwt>
<pdfrwt beam="1">  1        2 0.26583571E-01 0.62104914E+03</pdfrwt>
<pdfrwt beam="2">  1       -2 0.74025702E-01 0.62104914E+03</pdfrwt>
<totfact> 0.33902260E+02</totfact>
</mgrwt>
</event>
<event>
 4    1  0.5131465E-005  0.6186000E+03  0.7818608E-02  0.9867551E-01
          2   -1    0    0  501    0  0.00000000000E+00  0.00000000000E+00  0.12681011274E+04  0.12681011274E+04  0.25500000000E-02 0.  1.
         -2   -1    0    0    0  501 -0.00000000000E+00 -0.00000000000E+00 -0.75440737945E+02  0.75440737988E+02  0.25500000000E-02 0. -1.
    5000001    1    1    2    0    0  0.20021799839E+03 -0.72127259867E+02  0.37087097324E+03  0.47163107117E+03  0.19900000000E+03 0.  0.
   -5000001    1    1    2    0    0 -0.20021799839E+03  0.72127259867E+02  0.82178941626E+03  0.87191079427E+03  0.19900000000E+03 0.  0.
<mgrwt>
<rscale>  0 0.61859998E+03</rscale>
<asrwt>0</asrwt>
<pdfrwt beam="1">  1        2 0.18115730E+00 0.61859998E+03</pdfrwt>
<pdfrwt beam="2">  1       -2 0.10777248E-01 0.61859998E+03</pdfrwt>
<totfact> 0.11989220E+03</totfact>
</mgrwt>
</event>
<event>
 4    1  0.5131465E-005  0.6799845E+03  0.7818608E-02  0.9752087E-01
          2   -1    0    0  501    0  0.00000000000E+00  0.00000000000E+00  0.76689468840E+03  0.76689468840E+03  0.25500000000E-02 0.  1.
         -2   -1    0    0    0  501 -0.00000000000E+00 -0.00000000000E+00 -0.15073088838E+03  0.15073088840E+03  0.25500000000E-02 0. -1.
    5000001    1    1    2    0    0  0.25503976075E+03 -0.95742226813E+02  0.36504633738E+03  0.49706305635E+03  0.19900000000E+03 0.  0.
   -5000001    1    1    2    0    0 -0.25503976075E+03  0.95742226813E+02  0.25111746264E+03  0.42056252045E+03  0.19900000000E+03 0.  0.
<mgrwt>
<rscale>  0 0.67998446E+03</rscale>
<asrwt>0</asrwt>
<pdfrwt beam="1">  1        2 0.10955638E+00 0.67998446E+03</pdfrwt>
<pdfrwt beam="2">  1       -2 0.21532984E-01 0.67998446E+03</pdfrwt>
<totfact> 0.75420703E+02</totfact>
</mgrwt>
</event>
<event>
 4    1  0.5131465E-005  0.7036330E+03  0.7818608E-02  0.9711039E-01
         -2   -1    0    0    0  501 -0.00000000000E+00  0.00000000000E+00  0.48059801613E+02  0.48059801681E+02  0.25500000000E-02 0. -1.
          2   -1    0    0  501    0  0.00000000000E+00 -0.00000000000E+00 -0.25754337122E+04  0.25754337122E+04  0.25500000000E-02 0.  1.
    5000001    1    1    2    0    0 -0.20341154201E+02 -0.26371252064E+03 -0.81913847576E+03  0.88348565272E+03  0.19900000000E+03 0.  0.
   -5000001    1    1    2    0    0  0.20341154201E+02  0.26371252064E+03 -0.17082354349E+04  0.17400078612E+04  0.19900000000E+03 0.  0.
<mgrwt>
<rscale>  0 0.70363295E+03</rscale>
<asrwt>0</asrwt>
<pdfrwt beam="1">  1        2 0.36791901E+00 0.70363295E+03</pdfrwt>
<pdfrwt beam="2">  1       -2 0.68656876E-02 0.70363295E+03</pdfrwt>
<totfact> 0.52409498E+02</totfact>
</mgrwt>
</event>
<event>
 4    1  0.5131465E-005  0.4182259E+03  0.7818608E-02  0.1037645E+00
         -2   -1    0    0    0  501 -0.00000000000E+00  0.00000000000E+00  0.67726849039E+02  0.67726849087E+02  0.25500000000E-02 0. -1.
          2   -1    0    0  501    0  0.00000000000E+00 -0.00000000000E+00 -0.64565581907E+03  0.64565581907E+03  0.25500000000E-02 0.  1.
    5000001    1    1    2    0    0  0.52917023617E+02  0.32636114540E+02 -0.26135965902E+03  0.33432798076E+03  0.19900000000E+03 0.  0.
   -5000001    1    1    2    0    0 -0.52917023617E+02 -0.32636114540E+02 -0.31656931101E+03  0.37905468739E+03  0.19900000000E+03 0.  0.
<mgrwt>
<rscale>  0 0.41822594E+03</rscale>
<asrwt>0</asrwt>
<pdfrwt beam="1">  1        2 0.92236542E-01 0.41822594E+03</pdfrwt>
<pdfrwt beam="2">  1       -2 0.96752645E-02 0.41822594E+03</pdfrwt>
<totfact> 0.35584018E+03</totfact>
</mgrwt>
</event>
<event>
 4    1  0.5131465E-005  0.9703594E+03  0.7818608E-02  0.9341665E-01
         -2   -1    0    0    0  501 -0.00000000000E+00  0.00000000000E+00  0.12519024838E+04  0.12519024838E+04  0.25500000000E-02 0.  1.
          2   -1    0    0  501    0  0.00000000000E+00 -0.00000000000E+00 -0.18803330216E+03  0.18803330217E+03  0.25500000000E-02 0. -1.
    5000001    1    1    2    0    0  0.12461142634E+03  0.37856782009E+03  0.24666372911E+03  0.50920093994E+03  0.19900000000E+03 0.  0.
   -5000001    1    1    2    0    0 -0.12461142634E+03 -0.37856782009E+03  0.81720545256E+03  0.93073484606E+03  0.19900000000E+03 0.  0.
<mgrwt>
<rscale>  0 0.97035943E+03</rscale>
<asrwt>0</asrwt>
<pdfrwt beam="1">  1        2 0.26861900E-01 0.97035943E+03</pdfrwt>
<pdfrwt beam="2">  1       -2 0.17884321E+00 0.97035943E+03</pdfrwt>
<totfact> 0.37322820E+01</totfact>
</mgrwt>
</event>
<event>
 4    1  0.5131465E-005  0.6948518E+03  0.7818608E-02  0.9726077E-01
         -2   -1    0    0    0  501 -0.00000000000E+00  0.00000000000E+00  0.93719480486E+02  0.93719480521E+02  0.25500000000E-02 0. -1.
          2   -1    0    0  501    0  0.00000000000E+00 -0.00000000000E+00 -0.12879366421E+04  0.12879366421E+04  0.25500000000E-02 0.  1.
    5000001    1    1    2    0    0 -0.78142990498E+02 -0.25512614428E+03 -0.79503440471E+03  0.86190276779E+03  0.19900000000E+03 0.  0.
   -5000001    1    1    2    0    0  0.78142990498E+02  0.25512614428E+03 -0.39918275694E+03  0.51975335487E+03  0.19900000000E+03 0.  0.
<mgrwt>
<rscale>  0 0.69485179E+03</rscale>
<asrwt>0</asrwt>
<pdfrwt beam="1">  1        2 0.18399094E+00 0.69485179E+03</pdfrwt>
<pdfrwt beam="2">  1       -2 0.13388498E-01 0.69485179E+03</pdfrwt>
<totfact> 0.81527214E+02</totfact>
</mgrwt>
</event>
<event>
 4    1  0.5131465E-005  0.4960267E+03  0.7818608E-02  0.1014821E+00
          2   -1    0    0  501    0  0.00000000000E+00  0.00000000000E+00  0.31822207590E+04  0.31822207590E+04  0.25500000000E-02 0.  1.
         -2   -1    0    0    0  501 -0.00000000000E+00 -0.00000000000E+00 -0.19329465879E+02  0.19329466047E+02  0.25500000000E-02 0. -1.
    5000001    1    1    2    0    0  0.22455768428E+02 -0.13696248168E+03  0.12493959529E+04  0.12727349410E+04  0.19900000000E+03 0.  0.
   -5000001    1    1    2    0    0 -0.22455768428E+02  0.13696248168E+03  0.19134953403E+04  0.19288152841E+04  0.19900000000E+03 0.  0.
<mgrwt>
<rscale>  0 0.49602672E+03</rscale>
<asrwt>0</asrwt>
<pdfrwt beam="1">  1        2 0.45460341E+00 0.49602672E+03</pdfrwt>
<pdfrwt beam="2">  1       -2 0.27613496E-02 0.49602672E+03</pdfrwt>
<totfact> 0.10297860E+03</totfact>
</mgrwt>
</event>
<event>
 4    1  0.5131465E-005  0.8797690E+03  0.7818608E-02  0.9451231E-01
          2   -1    0    0  501    0  0.00000000000E+00  0.00000000000E+00  0.12095542939E+04  0.12095542939E+04  0.25500000000E-02 0.  1.
         -2   -1    0    0    0  501 -0.00000000000E+00 -0.00000000000E+00 -0.15997493344E+03  0.15997493346E+03  0.25500000000E-02 0. -1.
    5000001    1    1    2    0    0  0.34260840346E+03 -0.15902093907E+03  0.35983035126E+03  0.55834313721E+03  0.19900000000E+03 0.  0.
   -5000001    1    1    2    0    0 -0.34260840346E+03  0.15902093907E+03  0.68974900924E+03  0.81118609019E+03  0.19900000000E+03 0.  0.
<mgrwt>
<rscale>  0 0.87976899E+03</rscale>
<asrwt>0</asrwt>
<pdfrwt beam="1">  1        2 0.17279348E+00 0.87976899E+03</pdfrwt>
<pdfrwt beam="2">  1       -2 0.22853561E-01 0.87976899E+03</pdfrwt>
<totfact> 0.35587968E+02</totfact>
</mgrwt>
</event>
<event>
 4    1  0.5131465E-005  0.1043203E+04  0.7818608E-02  0.9262390E-01
         -2   -1    0    0    0  501 -0.00000000000E+00  0.00000000000E+00  0.20576716535E+03  0.20576716536E+03  0.25500000000E-02 0. -1.
          2   -1    0    0  501    0  0.00000000000E+00 -0.00000000000E+00 -0.13222140075E+04  0.13222140075E+04  0.25500000000E-02 0.  1.
    5000001    1    1    2    0    0 -0.16242399876E+03 -0.44982345403E+03 -0.46859454861E+03  0.69850164363E+03  0.19900000000E+03 0.  0.
   -5000001    1    1    2    0    0  0.16242399876E+03  0.44982345403E+03 -0.64785229354E+03  0.82947952923E+03  0.19900000000E+03 0.  0.
<mgrwt>
<rscale>  0 0.10432032E+04</rscale>
<asrwt>0</asrwt>
<pdfrwt beam="1">  1        2 0.18888771E+00 0.10432032E+04</pdfrwt>
<pdfrwt beam="2">  1       -2 0.29395310E-01 0.10432032E+04</pdfrwt>
<totfact> 0.19314966E+02</totfact>
</mgrwt>
</event>
<event>
 4    1  0.5131465E-005  0.5240682E+03  0.7818608E-02  0.1007681E+00
         -2   -1    0    0    0  501 -0.00000000000E+00  0.00000000000E+00  0.53995868455E+02  0.53995868515E+02  0.25500000000E-02 0. -1.
          2   -1    0    0  501    0  0.00000000000E+00 -0.00000000000E+00 -0.12716135247E+04  0.12716135247E+04  0.25500000000E-02 0.  1.
    5000001    1    1    2    0    0  0.11005510628E+03 -0.11685135828E+03 -0.75399430552E+03  0.79616253310E+03  0.19900000000E+03 0.  0.
   -5000001    1    1    2    0    0 -0.11005510628E+03  0.11685135828E+03 -0.46362335068E+03  0.52944686008E+03  0.19900000000E+03 0.  0.
<mgrwt>
<rscale>  0 0.52406823E+03</rscale>
<asrwt>0</asrwt>
<pdfrwt beam="1">  1        2 0.18165906E+00 0.52406823E+03</pdfrwt>
<pdfrwt beam="2">  1       -2 0.77136963E-02 0.52406823E+03</pdfrwt>
<totfact> 0.20481868E+03</totfact>
</mgrwt>
</event>
<event>
 4    1  0.5131465E-005  0.1053812E+04  0.7818608E-02  0.9251417E-01
          2   -1    0    0  501    0  0.00000000000E+00  0.00000000000E+00  0.15291605187E+04  0.15291605187E+04  0.25500000000E-02 0.  1.
         -2   -1    0    0    0  501 -0.00000000000E+00 -0.00000000000E+00 -0.18155709357E+03  0.18155709359E+03  0.25500000000E-02 0. -1.
    5000001    1    1    2    0    0 -0.39469447345E+03  0.27778040712E+03  0.55806097794E+03  0.76418501494E+03  0.19900000000E+03 0.  0.
   -5000001    1    1    2    0    0  0.39469447345E+03 -0.27778040712E+03  0.78954244720E+03  0.94653259737E+03  0.19900000000E+03 0.  0.
<mgrwt>
<rscale>  0 0.10538120E+04</rscale>
<asrwt>0</asrwt>
<pdfrwt beam="1">  1        2 0.21845150E+00 0.10538120E+04</pdfrwt>
<pdfrwt beam="2">  1       -2 0.25936728E-01 0.10538120E+04</pdfrwt>
<totfact> 0.18801505E+02</totfact>
</mgrwt>
</event>
<event>
 4    1  0.5131465E-005  0.6903326E+03  0.7818608E-02  0.9733909E-01
         -2   -1    0    0    0  501 -0.00000000000E+00  0.00000000000E+00  0.24873341620E+03  0.24873341621E+03  0.25500000000E-02 0. -1.
          2   -1    0    0  501    0  0.00000000000E+00 -0.00000000000E+00 -0.47898581034E+03  0.47898581034E+03  0.25500000000E-02 0.  1.
    5000001    1    1    2    0    0  0.25208117744E+03 -0.12494481602E+03 -0.13574703154E+03  0.37038410285E+03  0.19900000000E+03 0.  0.
   -5000001    1    1    2    0    0 -0.25208117744E+03  0.12494481602E+03 -0.94505362602E+02  0.35733512370E+03  0.19900000000E+03 0.  0.
<mgrwt>
<rscale>  0 0.69033261E+03</rscale>
<asrwt>0</asrwt>
<pdfrwt beam="1">  1        2 0.68426544E-01 0.69033261E+03</pdfrwt>
<pdfrwt beam="2">  1       -2 0.35533345E-01 0.69033261E+03</pdfrwt>
<totfact> 0.52782799E+02</totfact>
</mgrwt>
</event>
<event>
 4    1  0.5131465E-005  0.8921776E+03  0.7818608E-02  0.9435413E-01
          2   -1    0    0  501    0  0.00000000000E+00  0.00000000000E+00  0.14226088709E+04  0.14226088709E+04  0.25500000000E-02 0.  1.
         -2   -1    0    0    0  501 -0.00000000000E+00 -0.00000000000E+00 -0.13988049279E+03  0.13988049281E+03  0.25500000000E-02 0. -1.
    5000001    1    1    2    0    0  0.18718400304E+03 -0.35255622851E+03  0.65498454317E+03  0.79242633541E+03  0.19900000000E+03 0.  0.
   -5000001    1    1    2    0    0 -0.18718400304E+03  0.35255622851E+03  0.62774383496E+03  0.77006302832E+03  0.19900000000E+03 0.  0.
<mgrwt>
<rscale>  0 0.89217763E+03</rscale>
<asrwt>0</asrwt>
<pdfrwt beam="1">  1        2 0.20322983E+00 0.89217763E+03</pdfrwt>
<pdfrwt beam="2">  1       -2 0.19982928E-01 0.89217763E+03</pdfrwt>
<totfact> 0.34442938E+02</totfact>
</mgrwt>
</event>
<event>
 4    1  0.5131465E-005  0.5748922E+03  0.7818608E-02  0.9958911E-01
          2   -1    0    0  501    0  0.00000000000E+00  0.00000000000E+00  0.91187475554E+03  0.91187475554E+03  0.25500000000E-02 0.  1.
         -2   -1    0    0    0  501 -0.00000000000E+00 -0.00000000000E+00 -0.90610312118E+02  0.90610312154E+02  0.25500000000E-02 0. -1.
    5000001    1    1    2    0    0  0.19184126032E+03 -0.62976654087E+02  0.32782330251E+03  0.43340309850E+03  0.19900000000E+03 0.  0.
   -5000001    1    1    2    0    0 -0.19184126032E+03  0.62976654087E+02  0.49344114091E+03  0.56908196919E+03  0.19900000000E+03 0.  0.
<mgrwt>
<rscale>  0 0.57489219E+03</rscale>
<asrwt>0</asrwt>
<pdfrwt beam="1">  1        2 0.13026782E+00 0.57489219E+03</pdfrwt>
<pdfrwt beam="2">  1       -2 0.12944331E-01 0.57489219E+03</pdfrwt>
<totfact> 0.14379058E+03</totfact>
</mgrwt>
</event>
<event>
 4    1  0.5131465E-005  0.4850808E+03  0.7818608E-02  0.1017748E+00
          2   -1    0    0  501    0  0.00000000000E+00  0.00000000000E+00  0.12318283704E+04  0.12318283704E+04  0.25500000000E-02 0.  1.
         -2   -1    0    0    0  501 -0.00000000000E+00 -0.00000000000E+00 -0.47754905680E+02  0.47754905748E+02  0.25500000000E-02 0. -1.
    5000001    1    1    2    0    0  0.11534586523E+03 -0.49735428510E+02  0.43717369402E+03  0.49648778456E+03  0.19900000000E+03 0.  0.
   -5000001    1    1    2    0    0 -0.11534586523E+03  0.49735428510E+02  0.74689977071E+03  0.78309549160E+03  0.19900000000E+03 0.  0.
<mgrwt>
<rscale>  0 0.48508081E+03</rscale>
<asrwt>0</asrwt>
<pdfrwt beam="1">  1        2 0.17597546E+00 0.48508081E+03</pdfrwt>
<pdfrwt beam="2">  1       -2 0.68221302E-02 0.48508081E+03</pdfrwt>
<totfact> 0.26152119E+03</totfact>
</mgrwt>
</event>
<event>
 4    1  0.5131465E-005  0.6653402E+03  0.7818608E-02  0.9778413E-01
         -2   -1    0    0    0  501 -0.00000000000E+00  0.00000000000E+00  0.34634937552E+03  0.34634937553E+03  0.25500000000E-02 0. -1.
          2   -1    0    0  501    0  0.00000000000E+00 -0.00000000000E+00 -0.31953108776E+03  0.31953108777E+03  0.25500000000E-02 0.  1.
    5000001    1    1    2    0    0 -0.73180015525E+02 -0.24227795515E+03 -0.70411300747E+02  0.32956436927E+03  0.19900000000E+03 0.  0.
   -5000001    1    1    2    0    0  0.73180015525E+02  0.24227795515E+03  0.97229588502E+02  0.33631609403E+03  0.19900000000E+03 0.  0.
<mgrwt>
<rscale>  0 0.66534019E+03</rscale>
<asrwt>0</asrwt>
<pdfrwt beam="1">  1        2 0.45647298E-01 0.66534019E+03</pdfrwt>
<pdfrwt beam="2">  1       -2 0.49478482E-01 0.66534019E+03</pdfrwt>
<totfact> 0.43327290E+02</totfact>
</mgrwt>
</event>
<event>
 4    1  0.5131465E-005  0.6563352E+03  0.7818608E-02  0.9794964E-01
          2   -1    0    0  501    0  0.00000000000E+00  0.00000000000E+00  0.15532579396E+04  0.15532579396E+04  0.25500000000E-02 0.  1.
         -2   -1    0    0    0  501 -0.00000000000E+00 -0.00000000000E+00 -0.69334244668E+02  0.69334244715E+02  0.25500000000E-02 0. -1.
    5000001    1    1    2    0    0  0.18803620666E+03 -0.17519374797E+03  0.85369059066E+03  0.91347637568E+03  0.19900000000E+03 0.  0.
   -5000001    1    1    2    0    0 -0.18803620666E+03  0.17519374797E+03  0.63023310428E+03  0.70911580864E+03  0.19900000000E+03 0.  0.
<mgrwt>
<rscale>  0 0.65633518E+03</rscale>
<asrwt>0</asrwt>
<pdfrwt beam="1">  1        2 0.22189397E+00 0.65633518E+03</pdfrwt>
<pdfrwt beam="2">  1       -2 0.99048930E-02 0.65633518E+03</pdfrwt>
<totfact> 0.96854075E+02</totfact>
</mgrwt>
</event>
<event>
 4    1  0.5131465E-005  0.5178907E+03  0.7818608E-02  0.1009212E+00
          2   -1    0    0  501    0  0.00000000000E+00  0.00000000000E+00  0.10460868790E+04  0.10460868790E+04  0.25500000000E-02 0.  1.
         -2   -1    0    0    0  501 -0.00000000000E+00 -0.00000000000E+00 -0.64098587494E+02  0.64098587545E+02  0.25500000000E-02 0. -1.
    5000001    1    1    2    0    0 -0.97528745922E+02 -0.13302806258E+03  0.45755226837E+03  0.52551251175E+03  0.19900000000E+03 0.  0.
   -5000001    1    1    2    0    0  0.97528745922E+02  0.13302806258E+03  0.52443602318E+03  0.58467295484E+03  0.19900000000E+03 0.  0.
<mgrwt>
<rscale>  0 0.51789069E+03</rscale>
<asrwt>0</asrwt>
<pdfrwt beam="1">  1        2 0.14944098E+00 0.51789069E+03</pdfrwt>
<pdfrwt beam="2">  1       -2 0.91569410E-02 0.51789069E+03</pdfrwt>
<totfact> 0.20914166E+03</totfact>
</mgrwt>
</event>
<event>
 4    1  0.5131465E-005  0.9310790E+03  0.7818608E-02  0.9387544E-01
         -2   -1    0    0    0  501 -0.00000000000E+00  0.00000000000E+00  0.10637074956E+04  0.10637074956E+04  0.25500000000E-02 0. -1.
          2   -1    0    0  501    0  0.00000000000E+00 -0.00000000000E+00 -0.20374680823E+03  0.20374680825E+03  0.25500000000E-02 0.  1.
    5000001    1    1    2    0    0 -0.12916957149E+03  0.30654664434E+03  0.79018509511E+02  0.39560150177E+03  0.19900000000E+03 0.  0.
   -5000001    1    1    2    0    0  0.12916957149E+03 -0.30654664434E+03  0.78094217788E+03  0.87185280211E+03  0.19900000000E+03 0.  0.
<mgrwt>
<rscale>  0 0.93107896E+03</rscale>
<asrwt>0</asrwt>
<pdfrwt beam="1">  1        2 0.29106687E-01 0.93107896E+03</pdfrwt>
<pdfrwt beam="2">  1       -2 0.15195822E+00 0.93107896E+03</pdfrwt>
<totfact> 0.53425778E+01</totfact>
</mgrwt>
</event>
<event>
 4    1  0.5131465E-005  0.7391780E+03  0.7818608E-02  0.9652483E-01
          2   -1    0    0  501    0  0.00000000000E+00  0.00000000000E+00  0.75270090093E+03  0.75270090093E+03  0.25500000000E-02 0.  1.
         -2   -1    0    0    0  501 -0.00000000000E+00 -0.00000000000E+00 -0.18147452084E+03  0.18147452085E+03  0.25500000000E-02 0. -1.
    5000001    1    1    2    0    0 -0.26931869144E+03 -0.64704228213E+02  0.10565615528E+03  0.35704820103E+03  0.19900000000E+03 0.  0.
   -5000001    1    1    2    0    0  0.26931869144E+03  0.64704228213E+02  0.46557022481E+03  0.57712722075E+03  0.19900000000E+03 0.  0.
<mgrwt>
<rscale>  0 0.73917802E+03</rscale>
<asrwt>0</asrwt>
<pdfrwt beam="1">  1        2 0.10752870E+00 0.73917802E+03</pdfrwt>
<pdfrwt beam="2">  1       -2 0.25924932E-01 0.73917802E+03</pdfrwt>
<totfact> 0.55329636E+02</totfact>
</mgrwt>
</event>
<event>
 4    1  0.5131465E-005  0.1278509E+04  0.7818608E-02  0.9046783E-01
         -2   -1    0    0    0  501 -0.00000000000E+00  0.00000000000E+00  0.57764824588E+03  0.57764824589E+03  0.25500000000E-02 0. -1.
          2   -1    0    0  501    0  0.00000000000E+00 -0.00000000000E+00 -0.70743152006E+03  0.70743152006E+03  0.25500000000E-02 0.  1.
    5000001    1    1    2    0    0  0.42958135156E+03 -0.41642918817E+03 -0.17075225419E+03  0.65323099948E+03  0.19900000000E+03 0.  0.
   -5000001    1    1    2    0    0 -0.42958135156E+03  0.41642918817E+03  0.40968980012E+02  0.63184876647E+03  0.19900000000E+03 0.  0.
<mgrwt>
<rscale>  0 0.12785094E+04</rscale>
<asrwt>0</asrwt>
<pdfrwt beam="1">  1        2 0.10106165E+00 0.12785094E+04</pdfrwt>
<pdfrwt beam="2">  1       -2 0.82521178E-01 0.12785094E+04</pdfrwt>
<totfact> 0.56283970E+01</totfact>
</mgrwt>
</event>
<event>
 4    1  0.5131465E-005  0.9434629E+03  0.7818608E-02  0.9372824E-01
          2   -1    0    0  501    0  0.00000000000E+00  0.00000000000E+00  0.34119041603E+03  0.34119041604E+03  0.25500000000E-02 0.  1.
         -2   -1    0    0    0  501 -0.00000000000E+00 -0.00000000000E+00 -0.65221814603E+03  0.65221814604E+03  0.25500000000E-02 0. -1.
    5000001    1    1    2    0    0  0.40317737903E+03 -0.14169258951E+03 -0.13725238446E+03  0.49098676757E+03  0.19900000000E+03 0.  0.
   -5000001    1    1    2    0    0 -0.40317737903E+03  0.14169258951E+03 -0.17377534553E+03  0.50242179451E+03  0.19900000000E+03 0.  0.
<mgrwt>
<rscale>  0 0.94346294E+03</rscale>
<asrwt>0</asrwt>
<pdfrwt beam="1">  1        2 0.48741488E-01 0.94346294E+03</pdfrwt>
<pdfrwt beam="2">  1       -2 0.93174020E-01 0.94346294E+03</pdfrwt>
<totfact> 0.10094646E+02</totfact>
</mgrwt>
</event>
<event>
 4    1  0.5131465E-005  0.8125782E+03  0.7818608E-02  0.9541987E-01
          2   -1    0    0  501    0  0.00000000000E+00  0.00000000000E+00  0.32166469175E+03  0.32166469176E+03  0.25500000000E-02 0.  1.
         -2   -1    0    0    0  501 -0.00000000000E+00 -0.00000000000E+00 -0.51317671724E+03  0.51317671724E+03  0.25500000000E-02 0. -1.
    5000001    1    1    2    0    0  0.31035197934E+03 -0.16095640494E+03 -0.37234745114E+02  0.40399596733E+03  0.19900000000E+03 0.  0.
   -5000001    1    1    2    0    0 -0.31035197934E+03  0.16095640494E+03 -0.15427728037E+03  0.43084544167E+03  0.19900000000E+03 0.  0.
<mgrwt>
<rscale>  0 0.81257819E+03</rscale>
<asrwt>0</asrwt>
<pdfrwt beam="1">  1        2 0.45952099E-01 0.81257819E+03</pdfrwt>
<pdfrwt beam="2">  1       -2 0.73310959E-01 0.81257819E+03</pdfrwt>
<totfact> 0.18659961E+02</totfact>
</mgrwt>
</event>
<event>
 4    1  0.5131465E-005  0.7209195E+03  0.7818608E-02  0.9682111E-01
          2   -1    0    0  501    0  0.00000000000E+00  0.00000000000E+00  0.22302112408E+04  0.22302112408E+04  0.25500000000E-02 0.  1.
         -2   -1    0    0    0  501 -0.00000000000E+00 -0.00000000000E+00 -0.58259607363E+02  0.58259607418E+02  0.25500000000E-02 0. -1.
    5000001    1    1    2    0    0 -0.28172015877E+03  0.10246614925E+03  0.11544034816E+04  0.12091790429E+04  0.19900000000E+03 0.  0.
   -5000001    1    1    2    0    0  0.28172015877E+03 -0.10246614925E+03  0.10175481519E+04  0.10792918053E+04  0.19900000000E+03 0.  0.
<mgrwt>
<rscale>  0 0.72091950E+03</rscale>
<asrwt>0</asrwt>
<pdfrwt beam="1">  1        2 0.31860151E+00 0.72091950E+03</pdfrwt>
<pdfrwt beam="2">  1       -2 0.83228036E-02 0.72091950E+03</pdfrwt>
<totfact> 0.57885799E+02</totfact>
</mgrwt>
</event>
<event>
 4    1  0.5131465E-005  0.5154800E+03  0.7818608E-02  0.1009816E+00
         -2   -1    0    0    0  501 -0.00000000000E+00  0.00000000000E+00  0.36340967154E+03  0.36340967155E+03  0.25500000000E-02 0. -1.
          2   -1    0    0  501    0  0.00000000000E+00 -0.00000000000E+00 -0.18279622297E+03  0.18279622299E+03  0.25500000000E-02 0.  1.
    5000001    1    1    2    0    0 -0.14283493517E+03 -0.18672487580E+02  0.76952408207E+01  0.24578587679E+03  0.19900000000E+03 0.  0.
   -5000001    1    1    2    0    0  0.14283493517E+03  0.18672487580E+02  0.17291820775E+03  0.30042001776E+03  0.19900000000E+03 0.  0.
<mgrwt>
<rscale>  0 0.51548003E+03</rscale>
<asrwt>0</asrwt>
<pdfrwt beam="1">  1        2 0.26113747E-01 0.51548003E+03</pdfrwt>
<pdfrwt beam="2">  1       -2 0.51915667E-01 0.51548003E+03</pdfrwt>
<totfact> 0.73409804E+02</totfact>
</mgrwt>
</event>
<event>
 4    1  0.5131465E-005  0.7044920E+03  0.7818608E-02  0.9709581E-01
         -2   -1    0    0    0  501 -0.00000000000E+00  0.00000000000E+00  0.64384931194E+02  0.64384931245E+02  0.25500000000E-02 0. -1.
          2   -1    0    0  501    0  0.00000000000E+00 -0.00000000000E+00 -0.19271159664E+04  0.19271159664E+04  0.25500000000E-02 0.  1.
    5000001    1    1    2    0    0 -0.12980527242E+03  0.20017121163E+03 -0.46208694037E+03  0.55681528640E+03  0.19900000000E+03 0.  0.
   -5000001    1    1    2    0    0  0.12980527242E+03 -0.20017121163E+03 -0.14006440949E+04  0.14346856113E+04  0.19900000000E+03 0.  0.
<mgrwt>
<rscale>  0 0.70449196E+03</rscale>
<asrwt>0</asrwt>
<pdfrwt beam="1">  1        2 0.27530225E+00 0.70449196E+03</pdfrwt>
<pdfrwt beam="2">  1       -2 0.91978485E-02 0.70449196E+03</pdfrwt>
<totfact> 0.70208528E+02</totfact>
</mgrwt>
</event>
<event>
 4    1  0.5131465E-005  0.8088335E+03  0.7818608E-02  0.9547318E-01
         -2   -1    0    0    0  501 -0.00000000000E+00  0.00000000000E+00  0.27822070636E+03  0.27822070637E+03  0.25500000000E-02 0. -1.
          2   -1    0    0  501    0  0.00000000000E+00 -0.00000000000E+00 -0.58785311346E+03  0.58785311346E+03  0.25500000000E-02 0.  1.
    5000001    1    1    2    0    0 -0.21451887356E+03  0.25883982029E+03 -0.42842697630E+02  0.39300495724E+03  0.19900000000E+03 0.  0.
   -5000001    1    1    2    0    0  0.21451887356E+03 -0.25883982029E+03 -0.26678970946E+03  0.47306886259E+03  0.19900000000E+03 0.  0.
<mgrwt>
<rscale>  0 0.80883350E+03</rscale>
<asrwt>0</asrwt>
<pdfrwt beam="1">  1        2 0.83979016E-01 0.80883350E+03</pdfrwt>
<pdfrwt beam="2">  1       -2 0.39745815E-01 0.80883350E+03</pdfrwt>
<totfact> 0.33442689E+02</totfact>
</mgrwt>
</event>
<event>
 4    1  0.5131465E-005  0.7310157E+03  0.7818608E-02  0.9665614E-01
          2   -1    0    0  501    0  0.00000000000E+00  0.00000000000E+00  0.38943584972E+03  0.38943584972E+03  0.25500000000E-02 0.  1.
         -2   -1    0    0    0  501 -0.00000000000E+00 -0.00000000000E+00 -0.34305000662E+03  0.34305000663E+03  0.25500000000E-02 0. -1.
    5000001    1    1    2    0    0  0.18831354211E+03  0.16124153830E+03  0.20392792838E+03  0.37768826271E+03  0.19900000000E+03 0.  0.
   -5000001    1    1    2    0    0 -0.18831354211E+03 -0.16124153830E+03 -0.15754208528E+03  0.35479759364E+03  0.19900000000E+03 0.  0.
<mgrwt>
<rscale>  0 0.73101565E+03</rscale>
<asrwt>0</asrwt>
<pdfrwt beam="1">  1        2 0.55633693E-01 0.73101565E+03</pdfrwt>
<pdfrwt beam="2">  1       -2 0.49007144E-01 0.73101565E+03</pdfrwt>
<totfact> 0.35401214E+02</totfact>
</mgrwt>
</event>
<event>
 4    1  0.5131465E-005  0.6458439E+03  0.7818608E-02  0.9814609E-01
         -2   -1    0    0    0  501 -0.00000000000E+00  0.00000000000E+00  0.21889416074E+03  0.21889416076E+03  0.25500000000E-02 0. -1.
          2   -1    0    0  501    0  0.00000000000E+00 -0.00000000000E+00 -0.47638808487E+03  0.47638808488E+03  0.25500000000E-02 0.  1.
    5000001    1    1    2    0    0  0.72941061620E+02 -0.23748669904E+03 -0.18729021475E+03  0.36932229181E+03  0.19900000000E+03 0.  0.
   -5000001    1    1    2    0    0 -0.72941061620E+02  0.23748669904E+03 -0.70203709382E+02  0.32595995383E+03  0.19900000000E+03 0.  0.
<mgrwt>
<rscale>  0 0.64584385E+03</rscale>
<asrwt>0</asrwt>
<pdfrwt beam="1">  1        2 0.68055440E-01 0.64584385E+03</pdfrwt>
<pdfrwt beam="2">  1       -2 0.31270595E-01 0.64584385E+03</pdfrwt>
<totfact> 0.67625954E+02</totfact>
</mgrwt>
</event>
<event>
 4    1  0.5131465E-005  0.1213766E+04  0.7818608E-02  0.9100892E-01
          2   -1    0    0  501    0  0.00000000000E+00  0.00000000000E+00  0.25035715429E+03  0.25035715430E+03  0.25500000000E-02 0.  1.
         -2   -1    0    0    0  501 -0.00000000000E+00 -0.00000000000E+00 -0.14711261021E+04  0.14711261021E+04  0.25500000000E-02 0. -1.
    5000001    1    1    2    0    0 -0.24104698353E+03  0.43638960160E+03 -0.10119570775E+04  0.11455119638E+04  0.19900000000E+03 0.  0.
   -5000001    1    1    2    0    0  0.24104698353E+03 -0.43638960160E+03 -0.20881187032E+03  0.57597129255E+03  0.19900000000E+03 0.  0.
<mgrwt>
<rscale>  0 0.12137659E+04</rscale>
<asrwt>0</asrwt>
<pdfrwt beam="1">  1        2 0.35765308E-01 0.12137659E+04</pdfrwt>
<pdfrwt beam="2">  1       -2 0.21016087E+00 0.12137659E+04</pdfrwt>
<totfact> 0.16462777E+01</totfact>
</mgrwt>
</event>
<event>
 4    1  0.5131465E-005  0.4960939E+03  0.7818608E-02  0.1014804E+00
         -2   -1    0    0    0  501 -0.00000000000E+00  0.00000000000E+00  0.63147935200E+02  0.63147935251E+02  0.25500000000E-02 0. -1.
          2   -1    0    0  501    0  0.00000000000E+00 -0.00000000000E+00 -0.97433573897E+03  0.97433573898E+03  0.25500000000E-02 0.  1.
    5000001    1    1    2    0    0 -0.64797919638E+02 -0.13282123532E+03 -0.43619551792E+03  0.50170487420E+03  0.19900000000E+03 0.  0.
   -5000001    1    1    2    0    0  0.64797919638E+02  0.13282123532E+03 -0.47499228585E+03  0.53577880003E+03  0.19900000000E+03 0.  0.
<mgrwt>
<rscale>  0 0.49609390E+03</rscale>
<asrwt>0</asrwt>
<pdfrwt beam="1">  1        2 0.13919081E+00 0.49609390E+03</pdfrwt>
<pdfrwt beam="2">  1       -2 0.90211342E-02 0.49609390E+03</pdfrwt>
<totfact> 0.23665936E+03</totfact>
</mgrwt>
</event>
<event>
 4    1  0.5131465E-005  0.5231239E+03  0.7818608E-02  0.1007913E+00
          2   -1    0    0  501    0  0.00000000000E+00  0.00000000000E+00  0.14928399793E+04  0.14928399793E+04  0.25500000000E-02 0.  1.
         -2   -1    0    0    0  501 -0.00000000000E+00 -0.00000000000E+00 -0.45828528821E+02  0.45828528892E+02  0.25500000000E-02 0. -1.
    5000001    1    1    2    0    0  0.11617289536E+03  0.12189187357E+03  0.78658218095E+03  0.82865330377E+03  0.19900000000E+03 0.  0.
   -5000001    1    1    2    0    0 -0.11617289536E+03 -0.12189187357E+03  0.66042926951E+03  0.71001520440E+03  0.19900000000E+03 0.  0.
<mgrwt>
<rscale>  0 0.52312392E+03</rscale>
<asrwt>0</asrwt>
<pdfrwt beam="1">  1        2 0.21326288E+00 0.52312392E+03</pdfrwt>
<pdfrwt beam="2">  1       -2 0.65469319E-02 0.52312392E+03</pdfrwt>
<totfact> 0.20240372E+03</totfact>
</mgrwt>
</event>
<event>
 4    1  0.5131465E-005  0.6678842E+03  0.7818608E-02  0.9773788E-01
          2   -1    0    0  501    0  0.00000000000E+00  0.00000000000E+00  0.14204079915E+04  0.14204079915E+04  0.25500000000E-02 0. -1.
         -2   -1    0    0    0  501 -0.00000000000E+00 -0.00000000000E+00 -0.78510771511E+02  0.78510771553E+02  0.25500000000E-02 0.  1.
    5000001    1    1    2    0    0 -0.26537851036E+03 -0.25987967218E+02  0.60687063594E+03  0.69209399431E+03  0.19900000000E+03 0.  0.
   -5000001    1    1    2    0    0  0.26537851036E+03  0.25987967218E+02  0.73502658407E+03  0.80682476877E+03  0.19900000000E+03 0.  0.
<mgrwt>
<rscale>  0 0.66788420E+03</rscale>
<asrwt>0</asrwt>
<pdfrwt beam="1">  1        2 0.20291544E+00 0.66788420E+03</pdfrwt>
<pdfrwt beam="2">  1       -2 0.11215824E-01 0.66788420E+03</pdfrwt>
<totfact> 0.92794650E+02</totfact>
</mgrwt>
</event>
<event>
 4    1  0.5131465E-005  0.6624120E+03  0.7818608E-02  0.9783764E-01
          2   -1    0    0  501    0  0.00000000000E+00  0.00000000000E+00  0.96240321491E+03  0.96240321491E+03  0.25500000000E-02 0.  1.
         -2   -1    0    0    0  501 -0.00000000000E+00 -0.00000000000E+00 -0.11398279472E+03  0.11398279475E+03  0.25500000000E-02 0. -1.
    5000001    1    1    2    0    0  0.67150846650E+02 -0.23848412755E+03  0.27253623058E+03  0.41864174694E+03  0.19900000000E+03 0.  0.
   -5000001    1    1    2    0    0 -0.67150846650E+02  0.23848412755E+03  0.57588418961E+03  0.65774426272E+03  0.19900000000E+03 0.  0.
<mgrwt>
<rscale>  0 0.66241198E+03</rscale>
<asrwt>0</asrwt>
<pdfrwt beam="1">  1        2 0.13748618E+00 0.66241198E+03</pdfrwt>
<pdfrwt beam="2">  1       -2 0.16283256E-01 0.66241198E+03</pdfrwt>
<totfact> 0.90712007E+02</totfact>
</mgrwt>
</event>
<event>
 4    1  0.5131465E-005  0.5526199E+03  0.7818608E-02  0.1000889E+00
          2   -1    0    0  501    0  0.00000000000E+00  0.00000000000E+00  0.76376666457E+02  0.76376666499E+02  0.25500000000E-02 0.  1.
         -2   -1    0    0    0  501 -0.00000000000E+00 -0.00000000000E+00 -0.99961409149E+03  0.99961409150E+03  0.25500000000E-02 0. -1.
    5000001    1    1    2    0    0  0.17438089230E+03  0.78907552543E+02 -0.44109629397E+03  0.52038643142E+03  0.19900000000E+03 0.  0.
   -5000001    1    1    2    0    0 -0.17438089230E+03 -0.78907552543E+02 -0.48214113106E+03  0.55560432658E+03  0.19900000000E+03 0.  0.
<mgrwt>
<rscale>  0 0.55261991E+03</rscale>
<asrwt>0</asrwt>
<pdfrwt beam="1">  1        2 0.10910953E-01 0.55261991E+03</pdfrwt>
<pdfrwt beam="2">  1       -2 0.14280201E+00 0.55261991E+03</pdfrwt>
<totfact> 0.20619414E+02</totfact>
</mgrwt>
</event>
<event>
 4    1  0.5131465E-005  0.4746899E+03  0.7818608E-02  0.1020605E+00
         -2   -1    0    0    0  501 -0.00000000000E+00  0.00000000000E+00  0.50644047740E+02  0.50644047805E+02  0.25500000000E-02 0. -1.
          2   -1    0    0  501    0  0.00000000000E+00 -0.00000000000E+00 -0.11123246857E+04  0.11123246857E+04  0.25500000000E-02 0.  1.
    5000001    1    1    2    0    0  0.91254299948E+02 -0.51544163125E+02 -0.71657656048E+03  0.75104401672E+03  0.19900000000E+03 0.  0.
   -5000001    1    1    2    0    0 -0.91254299948E+02  0.51544163125E+02 -0.34510407746E+03  0.41192471678E+03  0.19900000000E+03 0.  0.
<mgrwt>
<rscale>  0 0.47468990E+03</rscale>
<asrwt>0</asrwt>
<pdfrwt beam="1">  1        2 0.15890351E+00 0.47468990E+03</pdfrwt>
<pdfrwt beam="2">  1       -2 0.72348646E-02 0.47468990E+03</pdfrwt>
<totfact> 0.27828430E+03</totfact>
</mgrwt>
</event>
<event>
 4    1  0.5131465E-005  0.4860904E+03  0.7818608E-02  0.1017475E+00
          2   -1    0    0  501    0  0.00000000000E+00  0.00000000000E+00  0.34062830151E+04  0.34062830151E+04  0.25500000000E-02 0.  1.
         -2   -1    0    0    0  501 -0.00000000000E+00 -0.00000000000E+00 -0.17341768244E+02  0.17341768431E+02  0.25500000000E-02 0. -1.
    5000001    1    1    2    0    0 -0.13120971383E+03  0.44666201181E+02  0.18078007945E+04  0.18239944548E+04  0.19900000000E+03 0.  0.
   -5000001    1    1    2    0    0  0.13120971383E+03 -0.44666201181E+02  0.15811404523E+04  0.15996303287E+04  0.19900000000E+03 0.  0.
<mgrwt>
<rscale>  0 0.48609041E+03</rscale>
<asrwt>0</asrwt>
<pdfrwt beam="1">  1        2 0.48661230E+00 0.48609041E+03</pdfrwt>
<pdfrwt beam="2">  1       -2 0.24773932E-02 0.48609041E+03</pdfrwt>
<totfact> 0.90581184E+02</totfact>
</mgrwt>
</event>
<event>
 4    1  0.5131465E-005  0.6354823E+03  0.7818608E-02  0.9834409E-01
         -2   -1    0    0    0  501 -0.00000000000E+00  0.00000000000E+00  0.40096933087E+03  0.40096933088E+03  0.25500000000E-02 0. -1.
          2   -1    0    0  501    0  0.00000000000E+00 -0.00000000000E+00 -0.25178840795E+03  0.25178840796E+03  0.25500000000E-02 0.  1.
    5000001    1    1    2    0    0  0.22919208384E+03  0.65956626353E+02  0.58446905687E+01  0.31066774577E+03  0.19900000000E+03 0.  0.
   -5000001    1    1    2    0    0 -0.22919208384E+03 -0.65956626353E+02  0.14333623235E+03  0.34208999307E+03  0.19900000000E+03 0.  0.
<mgrwt>
<rscale>  0 0.63548227E+03</rscale>
<asrwt>0</asrwt>
<pdfrwt beam="1">  1        2 0.35969773E-01 0.63548227E+03</pdfrwt>
<pdfrwt beam="2">  1       -2 0.57281332E-01 0.63548227E+03</pdfrwt>
<totfact> 0.41787798E+02</totfact>
</mgrwt>
</event>
<event>
 4    1  0.5131465E-005  0.5857605E+03  0.7818608E-02  0.9935397E-01
         -2   -1    0    0    0  501 -0.00000000000E+00  0.00000000000E+00  0.72114406676E+02  0.72114406721E+02  0.25500000000E-02 0. -1.
          2   -1    0    0  501    0  0.00000000000E+00 -0.00000000000E+00 -0.11894827911E+04  0.11894827911E+04  0.25500000000E-02 0.  1.
    5000001    1    1    2    0    0  0.15580514176E+03 -0.14403514721E+03 -0.63192779042E+03  0.69566881354E+03  0.19900000000E+03 0.  0.
   -5000001    1    1    2    0    0 -0.15580514176E+03  0.14403514721E+03 -0.48544059399E+03  0.56592838427E+03  0.19900000000E+03 0.  0.
<mgrwt>
<rscale>  0 0.58576052E+03</rscale>
<asrwt>0</asrwt>
<pdfrwt beam="1">  1        2 0.16992610E+00 0.58576052E+03</pdfrwt>
<pdfrwt beam="2">  1       -2 0.10302059E-01 0.58576052E+03</pdfrwt>
<totfact> 0.14280073E+03</totfact>
</mgrwt>
</event>
<event>
 4    1  0.5131465E-005  0.6584041E+03  0.7818608E-02  0.9791136E-01
         -2   -1    0    0    0  501 -0.00000000000E+00  0.00000000000E+00  0.86976134910E+02  0.86976134947E+02  0.25500000000E-02 0. -1.
          2   -1    0    0  501    0  0.00000000000E+00 -0.00000000000E+00 -0.12460196771E+04  0.12460196771E+04  0.25500000000E-02 0.  1.
    5000001    1    1    2    0    0  0.71147566542E+02  0.22192024589E+03 -0.82299797855E+03  0.87820114123E+03  0.19900000000E+03 0.  0.
   -5000001    1    1    2    0    0 -0.71147566542E+02 -0.22192024589E+03 -0.33604556364E+03  0.45479467082E+03  0.19900000000E+03 0.  0.
<mgrwt>
<rscale>  0 0.65840406E+03</rscale>
<asrwt>0</asrwt>
<pdfrwt beam="1">  1        2 0.17800280E+00 0.65840406E+03</pdfrwt>
<pdfrwt beam="2">  1       -2 0.12425163E-01 0.65840406E+03</pdfrwt>
<totfact> 0.97471349E+02</totfact>
</mgrwt>
</event>
<event>
 4    1  0.5131465E-005  0.7250344E+03  0.7818608E-02  0.9675353E-01
          2   -1    0    0  501    0  0.00000000000E+00  0.00000000000E+00  0.57313646224E+03  0.57313646225E+03  0.25500000000E-02 0.  1.
         -2   -1    0    0    0  501 -0.00000000000E+00 -0.00000000000E+00 -0.22929742977E+03  0.22929742978E+03  0.25500000000E-02 0. -1.
    5000001    1    1    2    0    0  0.21008292082E+02  0.29174231036E+03  0.25950551945E+03  0.43874712377E+03  0.19900000000E+03 0.  0.
   -5000001    1    1    2    0    0 -0.21008292082E+02 -0.29174231036E+03  0.84333513025E+02  0.36368676826E+03  0.19900000000E+03 0.  0.
<mgrwt>
<rscale>  0 0.72503439E+03</rscale>
<asrwt>0</asrwt>
<pdfrwt beam="1">  1        2 0.81876638E-01 0.72503439E+03</pdfrwt>
<pdfrwt beam="2">  1       -2 0.32756776E-01 0.72503439E+03</pdfrwt>
<totfact> 0.50018827E+02</totfact>
</mgrwt>
</event>
<event>
 4    1  0.5131465E-005  0.6563086E+03  0.7818608E-02  0.9795013E-01
         -2   -1    0    0    0  501 -0.00000000000E+00  0.00000000000E+00  0.51813046254E+03  0.51813046255E+03  0.25500000000E-02 0. -1.
          2   -1    0    0  501    0  0.00000000000E+00 -0.00000000000E+00 -0.20783424620E+03  0.20783424622E+03  0.25500000000E-02 0.  1.
    5000001    1    1    2    0    0  0.13934159475E+03  0.22049623792E+03  0.16293697875E+03  0.36631152044E+03  0.19900000000E+03 0.  0.
   -5000001    1    1    2    0    0 -0.13934159475E+03 -0.22049623792E+03  0.14735923759E+03  0.35965318832E+03  0.19900000000E+03 0.  0.
<mgrwt>
<rscale>  0 0.65630863E+03</rscale>
<asrwt>0</asrwt>
<pdfrwt beam="1">  1        2 0.29690607E-01 0.65630863E+03</pdfrwt>
<pdfrwt beam="2">  1       -2 0.74018637E-01 0.65630863E+03</pdfrwt>
<totfact> 0.29894922E+02</totfact>
</mgrwt>
</event>
<event>
 4    1  0.5131465E-005  0.4267337E+03  0.7818608E-02  0.1034897E+00
          2   -1    0    0  501    0  0.00000000000E+00  0.00000000000E+00  0.18356844048E+04  0.18356844048E+04  0.25500000000E-02 0.  1.
         -2   -1    0    0    0  501 -0.00000000000E+00 -0.00000000000E+00 -0.24800236387E+02  0.24800236518E+02  0.25500000000E-02 0. -1.
    5000001    1    1    2    0    0  0.69723650980E+02 -0.13847596124E+02  0.10341318546E+04  0.10555012250E+04  0.19900000000E+03 0.  0.
   -5000001    1    1    2    0    0 -0.69723650980E+02  0.13847596124E+02  0.77675231386E+03  0.80498341630E+03  0.19900000000E+03 0.  0.
<mgrwt>
<rscale>  0 0.42673367E+03</rscale>
<asrwt>0</asrwt>
<pdfrwt beam="1">  1        2 0.26224065E+00 0.42673367E+03</pdfrwt>
<pdfrwt beam="2">  1       -2 0.35428906E-02 0.42673367E+03</pdfrwt>
<totfact> 0.35017511E+03</totfact>
</mgrwt>
</event>
