<event>
 4    1  0.8984293E-005  0.4643541E+03  0.7818608E-02  0.1023526E+00
          2   -1    0    0  501    0  0.00000000000E+00  0.00000000000E+00  0.20076155479E+04  0.20076155479E+04  0.25500000000E-02 0.  1.
         -2   -1    0    0    0  501 -0.00000000000E+00 -0.00000000000E+00 -0.26850848050E+02  0.26850848171E+02  0.25500000000E-02 0. -1.
    5000001    1    1    2    0    0 -0.12557948233E+03 -0.25847432135E+02  0.54696531504E+03  0.58552058203E+03  0.16500000000E+03 0.  0.
   -5000001    1    1    2    0    0  0.12557948233E+03  0.25847432135E+02  0.14337993848E+04  0.14489458141E+04  0.16500000000E+03 0.  0.
<mgrwt>
<rscale>  0 0.46435409E+03</rscale>
<asrwt>0</asrwt>
<pdfrwt beam="1">  1        2 0.30886411E+00 0.46435409E+03</pdfrwt>
<pdfrwt beam="2">  1       -2 0.41308973E-02 0.46435409E+03</pdfrwt>
<totfact> 0.19046493E+03</totfact>
</mgrwt>
</event>
<event>
 4    1  0.8984293E-005  0.5893670E+03  0.7818608E-02  0.9927715E-01
         -2   -1    0    0    0  501 -0.00000000000E+00  0.00000000000E+00  0.11292808194E+04  0.11292808194E+04  0.25500000000E-02 0. -1.
          2   -1    0    0  501    0  0.00000000000E+00 -0.00000000000E+00 -0.76897058755E+02  0.76897058797E+02  0.25500000000E-02 0.  1.
    5000001    1    1    2    0    0 -0.17071058597E+02  0.21596610746E+03  0.29573201504E+03  0.40201393674E+03  0.16500000000E+03 0.  0.
   -5000001    1    1    2    0    0  0.17071058597E+02 -0.21596610746E+03  0.75665174561E+03  0.80416394146E+03  0.16500000000E+03 0.  0.
<mgrwt>
<rscale>  0 0.58936703E+03</rscale>
<asrwt>0</asrwt>
<pdfrwt beam="1">  1        2 0.11830317E-01 0.58936703E+03</pdfrwt>
<pdfrwt beam="2">  1       -2 0.17373551E+00 0.58936703E+03</pdfrwt>
<totfact> 0.11002963E+02</totfact>
</mgrwt>
</event>
<event>
 4    1  0.8984293E-005  0.4984574E+03  0.7818608E-02  0.1014182E+00
         -2   -1    0    0    0  501 -0.00000000000E+00  0.00000000000E+00  0.45962145679E+02  0.45962145750E+02  0.25500000000E-02 0. -1.
          2   -1    0    0  501    0  0.00000000000E+00 -0.00000000000E+00 -0.13514367751E+04  0.13514367751E+04  0.25500000000E-02 0.  1.
    5000001    1    1    2    0    0  0.10630968625E+03  0.13997055530E+03 -0.47551091971E+03  0.53313144769E+03  0.16500000000E+03 0.  0.
   -5000001    1    1    2    0    0 -0.10630968625E+03 -0.13997055530E+03 -0.82996370967E+03  0.86426747314E+03  0.16500000000E+03 0.  0.
<mgrwt>
<rscale>  0 0.49845736E+03</rscale>
<asrwt>0</asrwt>
<pdfrwt beam="1">  1        2 0.20791332E+00 0.49845736E+03</pdfrwt>
<pdfrwt beam="2">  1       -2 0.70711004E-02 0.49845736E+03</pdfrwt>
<totfact> 0.18763782E+03</totfact>
</mgrwt>
</event>
<event>
 4    1  0.8984293E-005  0.3524895E+03  0.7818608E-02  0.1061598E+00
         -2   -1    0    0    0  501 -0.00000000000E+00  0.00000000000E+00  0.17015002160E+02  0.17015002351E+02  0.25500000000E-02 0. -1.
          2   -1    0    0  501    0  0.00000000000E+00 -0.00000000000E+00 -0.18255777156E+04  0.18255777156E+04  0.25500000000E-02 0.  1.
    5000001    1    1    2    0    0  0.49751682925E+02 -0.33435696136E+02 -0.98594103464E+03  0.10014479016E+04  0.16500000000E+03 0.  0.
   -5000001    1    1    2    0    0 -0.49751682925E+02  0.33435696136E+02 -0.82262167877E+03  0.84114481637E+03  0.16500000000E+03 0.  0.
<mgrwt>
<rscale>  0 0.35248948E+03</rscale>
<asrwt>0</asrwt>
<pdfrwt beam="1">  1        2 0.28085796E+00 0.35248948E+03</pdfrwt>
<pdfrwt beam="2">  1       -2 0.26176941E-02 0.35248948E+03</pdfrwt>
<totfact> 0.47626239E+03</totfact>
</mgrwt>
</event>
<event>
 4    1  0.8984293E-005  0.5452591E+03  0.7818608E-02  0.1002597E+00
          2   -1    0    0  501    0  0.00000000000E+00  0.00000000000E+00  0.38005980987E+02  0.38005981073E+02  0.25500000000E-02 0.  1.
         -2   -1    0    0    0  501 -0.00000000000E+00 -0.00000000000E+00 -0.19556621615E+04  0.19556621615E+04  0.25500000000E-02 0. -1.
    5000001    1    1    2    0    0 -0.50373521042E+02 -0.17393831714E+03 -0.13962164378E+04  0.14175462500E+04  0.16500000000E+03 0.  0.
   -5000001    1    1    2    0    0  0.50373521042E+02  0.17393831714E+03 -0.52143974275E+03  0.57612189258E+03  0.16500000000E+03 0.  0.
<mgrwt>
<rscale>  0 0.54525905E+03</rscale>
<asrwt>0</asrwt>
<pdfrwt beam="1">  1        2 0.58470755E-02 0.54525905E+03</pdfrwt>
<pdfrwt beam="2">  1       -2 0.30087102E+00 0.54525905E+03</pdfrwt>
<totfact> 0.44669233E+01</totfact>
</mgrwt>
</event>
<event>
 4    1  0.8984293E-005  0.1013442E+04  0.7818608E-02  0.9293924E-01
         -2   -1    0    0    0  501 -0.00000000000E+00  0.00000000000E+00  0.16231766916E+03  0.16231766918E+03  0.25500000000E-02 0. -1.
          2   -1    0    0  501    0  0.00000000000E+00 -0.00000000000E+00 -0.15818740702E+04  0.15818740702E+04  0.25500000000E-02 0.  1.
    5000001    1    1    2    0    0 -0.30306351509E+03 -0.26405518863E+03 -0.11584710419E+04  0.12372763603E+04  0.16500000000E+03 0.  0.
   -5000001    1    1    2    0    0  0.30306351509E+03  0.26405518863E+03 -0.26108535917E+03  0.50691537912E+03  0.16500000000E+03 0.  0.
<mgrwt>
<rscale>  0 0.10134419E+04</rscale>
<asrwt>0</asrwt>
<pdfrwt beam="1">  1        2 0.24336523E+00 0.10134419E+04</pdfrwt>
<pdfrwt beam="2">  1       -2 0.24971950E-01 0.10134419E+04</pdfrwt>
<totfact> 0.16365344E+02</totfact>
</mgrwt>
</event>
<event>
 4    1  0.8984293E-005  0.7291860E+03  0.7818608E-02  0.9668582E-01
          2   -1    0    0  501    0  0.00000000000E+00  0.00000000000E+00  0.10139397315E+03  0.10139397318E+03  0.25500000000E-02 0. -1.
         -2   -1    0    0    0  501 -0.00000000000E+00 -0.00000000000E+00 -0.13110054358E+04  0.13110054358E+04  0.25500000000E-02 0.  1.
    5000001    1    1    2    0    0  0.10922569669E+03 -0.30619811715E+03 -0.61243403849E+03  0.71273276287E+03  0.16500000000E+03 0.  0.
   -5000001    1    1    2    0    0 -0.10922569669E+03  0.30619811715E+03 -0.59717742415E+03  0.69966664611E+03  0.16500000000E+03 0.  0.
<mgrwt>
<rscale>  0 0.72918598E+03</rscale>
<asrwt>0</asrwt>
<pdfrwt beam="1">  1        2 0.15599074E-01 0.72918598E+03</pdfrwt>
<pdfrwt beam="2">  1       -2 0.20169313E+00 0.72918598E+03</pdfrwt>
<totfact> 0.50505771E+01</totfact>
</mgrwt>
</event>
<event>
 4    1  0.8984293E-005  0.3948354E+03  0.7818608E-02  0.1045583E+00
         -2   -1    0    0    0  501 -0.00000000000E+00  0.00000000000E+00  0.43006656810E+02  0.43006656886E+02  0.25500000000E-02 0. -1.
          2   -1    0    0  501    0  0.00000000000E+00 -0.00000000000E+00 -0.90622609629E+03  0.90622609630E+03  0.25500000000E-02 0.  1.
    5000001    1    1    2    0    0  0.35564691738E+02 -0.84009697694E+02 -0.57233363305E+03  0.60258880186E+03  0.16500000000E+03 0.  0.
   -5000001    1    1    2    0    0 -0.35564691738E+02  0.84009697694E+02 -0.29088580643E+03  0.34664395132E+03  0.16500000000E+03 0.  0.
<mgrwt>
<rscale>  0 0.39483543E+03</rscale>
<asrwt>0</asrwt>
<pdfrwt beam="1">  1        2 0.13941939E+00 0.39483543E+03</pdfrwt>
<pdfrwt beam="2">  1       -2 0.66164094E-02 0.39483543E+03</pdfrwt>
<totfact> 0.38468789E+03</totfact>
</mgrwt>
</event>
<event>
 4    1  0.8984293E-005  0.4957223E+03  0.7818608E-02  0.1014902E+00
         -2   -1    0    0    0  501 -0.00000000000E+00  0.00000000000E+00  0.23726667345E+02  0.23726667482E+02  0.25500000000E-02 0. -1.
          2   -1    0    0  501    0  0.00000000000E+00 -0.00000000000E+00 -0.25892864165E+04  0.25892864165E+04  0.25500000000E-02 0.  1.
    5000001    1    1    2    0    0 -0.66986506584E+02 -0.17096259614E+03 -0.14000237216E+04  0.14216211951E+04  0.16500000000E+03 0.  0.
   -5000001    1    1    2    0    0  0.66986506584E+02  0.17096259614E+03 -0.11655360276E+04  0.11913918889E+04  0.16500000000E+03 0.  0.
<mgrwt>
<rscale>  0 0.49572225E+03</rscale>
<asrwt>0</asrwt>
<pdfrwt beam="1">  1        2 0.39835153E+00 0.49572225E+03</pdfrwt>
<pdfrwt beam="2">  1       -2 0.36502586E-02 0.49572225E+03</pdfrwt>
<totfact> 0.11006504E+03</totfact>
</mgrwt>
</event>
<event>
 4    1  0.8984293E-005  0.7863552E+03  0.7818608E-02  0.9579980E-01
         -2   -1    0    0    0  501 -0.00000000000E+00  0.00000000000E+00  0.85642492811E+02  0.85642492849E+02  0.25500000000E-02 0. -1.
          2   -1    0    0  501    0  0.00000000000E+00 -0.00000000000E+00 -0.18050456113E+04  0.18050456113E+04  0.25500000000E-02 0.  1.
    5000001    1    1    2    0    0 -0.28716274099E+03 -0.14883731412E+03 -0.49705907317E+03  0.61555479700E+03  0.16500000000E+03 0.  0.
   -5000001    1    1    2    0    0  0.28716274099E+03  0.14883731412E+03 -0.12223440454E+04  0.12751333072E+04  0.16500000000E+03 0.  0.
<mgrwt>
<rscale>  0 0.78635515E+03</rscale>
<asrwt>0</asrwt>
<pdfrwt beam="1">  1        2 0.27769929E+00 0.78635515E+03</pdfrwt>
<pdfrwt beam="2">  1       -2 0.13175770E-01 0.78635515E+03</pdfrwt>
<totfact> 0.37965781E+02</totfact>
</mgrwt>
</event>
<event>
 4    1  0.8984293E-005  0.4956287E+03  0.7818608E-02  0.1014926E+00
          2   -1    0    0  501    0  0.00000000000E+00  0.00000000000E+00  0.23426789899E+04  0.23426789899E+04  0.25500000000E-02 0.  1.
         -2   -1    0    0    0  501 -0.00000000000E+00 -0.00000000000E+00 -0.26214411067E+02  0.26214411191E+02  0.25500000000E-02 0. -1.
    5000001    1    1    2    0    0  0.13708781182E+03  0.11701567812E+03  0.13553694235E+04  0.13772207562E+04  0.16500000000E+03 0.  0.
   -5000001    1    1    2    0    0 -0.13708781182E+03 -0.11701567812E+03  0.96109515532E+03  0.99167264491E+03  0.16500000000E+03 0.  0.
<mgrwt>
<rscale>  0 0.49562869E+03</rscale>
<asrwt>0</asrwt>
<pdfrwt beam="1">  1        2 0.36041213E+00 0.49562869E+03</pdfrwt>
<pdfrwt beam="2">  1       -2 0.40329866E-02 0.49562869E+03</pdfrwt>
<totfact> 0.12972935E+03</totfact>
</mgrwt>
</event>
<event>
 4    1  0.8984293E-005  0.6020829E+03  0.7818608E-02  0.9901094E-01
         -2   -1    0    0    0  501 -0.00000000000E+00  0.00000000000E+00  0.16596664932E+03  0.16596664934E+03  0.25500000000E-02 0. -1.
          2   -1    0    0  501    0  0.00000000000E+00 -0.00000000000E+00 -0.54604925001E+03  0.54604925001E+03  0.25500000000E-02 0.  1.
    5000001    1    1    2    0    0 -0.17925366628E+03 -0.17498502380E+03 -0.15990667727E+03  0.33992172756E+03  0.16500000000E+03 0.  0.
   -5000001    1    1    2    0    0  0.17925366628E+03  0.17498502380E+03 -0.22017592342E+03  0.37209417180E+03  0.16500000000E+03 0.  0.
<mgrwt>
<rscale>  0 0.60208293E+03</rscale>
<asrwt>0</asrwt>
<pdfrwt beam="1">  1        2 0.84007576E-01 0.60208293E+03</pdfrwt>
<pdfrwt beam="2">  1       -2 0.25533331E-01 0.60208293E+03</pdfrwt>
<totfact> 0.76973740E+02</totfact>
</mgrwt>
</event>
<event>
 4    1  0.8984293E-005  0.5382723E+03  0.7818608E-02  0.1004245E+00
          2   -1    0    0  501    0  0.00000000000E+00  0.00000000000E+00  0.10250774751E+04  0.10250774751E+04  0.25500000000E-02 0. -1.
         -2   -1    0    0    0  501 -0.00000000000E+00 -0.00000000000E+00 -0.70662244180E+02  0.70662244226E+02  0.25500000000E-02 0.  1.
    5000001    1    1    2    0    0  0.81318582520E+02 -0.19643719123E+03  0.48331219211E+03  0.55318709042E+03  0.16500000000E+03 0.  0.
   -5000001    1    1    2    0    0 -0.81318582520E+02  0.19643719123E+03  0.47110303880E+03  0.54255262891E+03  0.16500000000E+03 0.  0.
<mgrwt>
<rscale>  0 0.53827233E+03</rscale>
<asrwt>0</asrwt>
<pdfrwt beam="1">  1        2 0.15770421E+00 0.53827233E+03</pdfrwt>
<pdfrwt beam="2">  1       -2 0.10871115E-01 0.53827233E+03</pdfrwt>
<totfact> 0.14652006E+03</totfact>
</mgrwt>
</event>
<event>
 4    1  0.8984293E-005  0.8189957E+03  0.7818608E-02  0.9532921E-01
         -2   -1    0    0    0  501 -0.00000000000E+00  0.00000000000E+00  0.10606581027E+03  0.10606581030E+03  0.25500000000E-02 0. -1.
          2   -1    0    0  501    0  0.00000000000E+00 -0.00000000000E+00 -0.15809852560E+04  0.15809852560E+04  0.25500000000E-02 0.  1.
    5000001    1    1    2    0    0 -0.15286348122E+02  0.36859948723E+03 -0.87354160960E+03  0.96249633668E+03  0.16500000000E+03 0.  0.
   -5000001    1    1    2    0    0  0.15286348122E+02 -0.36859948723E+03 -0.60137783610E+03  0.72455472960E+03  0.16500000000E+03 0.  0.
<mgrwt>
<rscale>  0 0.81899568E+03</rscale>
<asrwt>0</asrwt>
<pdfrwt beam="1">  1        2 0.24322848E+00 0.81899568E+03</pdfrwt>
<pdfrwt beam="2">  1       -2 0.16317818E-01 0.81899568E+03</pdfrwt>
<totfact> 0.35041390E+02</totfact>
</mgrwt>
</event>
<event>
 4    1  0.8984293E-005  0.4654597E+03  0.7818608E-02  0.1023210E+00
         -2   -1    0    0    0  501 -0.00000000000E+00  0.00000000000E+00  0.25480373821E+02  0.25480373948E+02  0.25500000000E-02 0. -1.
          2   -1    0    0  501    0  0.00000000000E+00 -0.00000000000E+00 -0.21256823748E+04  0.21256823748E+04  0.25500000000E-02 0.  1.
    5000001    1    1    2    0    0  0.43755412551E+02 -0.13595594802E+03 -0.14238393269E+04  0.14404658916E+04  0.16500000000E+03 0.  0.
   -5000001    1    1    2    0    0 -0.43755412551E+02  0.13595594802E+03 -0.67636267408E+03  0.71069685719E+03  0.16500000000E+03 0.  0.
<mgrwt>
<rscale>  0 0.46545969E+03</rscale>
<asrwt>0</asrwt>
<pdfrwt beam="1">  1        2 0.32702792E+00 0.46545969E+03</pdfrwt>
<pdfrwt beam="2">  1       -2 0.39200592E-02 0.46545969E+03</pdfrwt>
<totfact> 0.17823092E+03</totfact>
</mgrwt>
</event>
<event>
 4    1  0.8984293E-005  0.6352675E+03  0.7818608E-02  0.9834823E-01
          2   -1    0    0  501    0  0.00000000000E+00  0.00000000000E+00  0.12236763670E+04  0.12236763670E+04  0.25500000000E-02 0.  1.
         -2   -1    0    0    0  501 -0.00000000000E+00 -0.00000000000E+00 -0.82449262055E+02  0.82449262094E+02  0.25500000000E-02 0. -1.
    5000001    1    1    2    0    0  0.12180447991E+03 -0.22760764159E+03  0.74293543550E+03  0.80362903828E+03  0.16500000000E+03 0.  0.
   -5000001    1    1    2    0    0 -0.12180447991E+03  0.22760764159E+03  0.39829166941E+03  0.50249659079E+03  0.16500000000E+03 0.  0.
<mgrwt>
<rscale>  0 0.63526755E+03</rscale>
<asrwt>0</asrwt>
<pdfrwt beam="1">  1        2 0.18825790E+00 0.63526755E+03</pdfrwt>
<pdfrwt beam="2">  1       -2 0.12684502E-01 0.63526755E+03</pdfrwt>
<totfact> 0.86097687E+02</totfact>
</mgrwt>
</event>
<event>
 4    1  0.8984293E-005  0.7060394E+03  0.7818608E-02  0.9706959E-01
          2   -1    0    0  501    0  0.00000000000E+00  0.00000000000E+00  0.48121028707E+03  0.48121028707E+03  0.25500000000E-02 0.  1.
         -2   -1    0    0    0  501 -0.00000000000E+00 -0.00000000000E+00 -0.25897808138E+03  0.25897808139E+03  0.25500000000E-02 0. -1.
    5000001    1    1    2    0    0 -0.25225388974E+03 -0.35735793429E+02 -0.77848492176E+02  0.31335995206E+03  0.16500000000E+03 0.  0.
   -5000001    1    1    2    0    0  0.25225388974E+03  0.35735793429E+02  0.30008069787E+03  0.42682841641E+03  0.16500000000E+03 0.  0.
<mgrwt>
<rscale>  0 0.70603942E+03</rscale>
<asrwt>0</asrwt>
<pdfrwt beam="1">  1        2 0.74032351E-01 0.70603942E+03</pdfrwt>
<pdfrwt beam="2">  1       -2 0.39842782E-01 0.70603942E+03</pdfrwt>
<totfact> 0.38673792E+02</totfact>
</mgrwt>
</event>
<event>
 4    1  0.8984293E-005  0.5499910E+03  0.7818608E-02  0.1001496E+00
         -2   -1    0    0    0  501 -0.00000000000E+00  0.00000000000E+00  0.62009607311E+02  0.62009607364E+02  0.25500000000E-02 0. -1.
          2   -1    0    0  501    0  0.00000000000E+00 -0.00000000000E+00 -0.12195290630E+04  0.12195290630E+04  0.25500000000E-02 0.  1.
    5000001    1    1    2    0    0  0.17513619700E+03 -0.13099748445E+02 -0.88747253146E+03  0.91960686437E+03  0.16500000000E+03 0.  0.
   -5000001    1    1    2    0    0 -0.17513619700E+03  0.13099748445E+02 -0.27004692426E+03  0.36193180602E+03  0.16500000000E+03 0.  0.
<mgrwt>
<rscale>  0 0.54999098E+03</rscale>
<asrwt>0</asrwt>
<pdfrwt beam="1">  1        2 0.18761984E+00 0.54999098E+03</pdfrwt>
<pdfrwt beam="2">  1       -2 0.95399405E-02 0.54999098E+03</pdfrwt>
<totfact> 0.13832076E+03</totfact>
</mgrwt>
</event>
<event>
 4    1  0.8984293E-005  0.8718436E+03  0.7818608E-02  0.9461479E-01
          2   -1    0    0  501    0  0.00000000000E+00  0.00000000000E+00  0.10210988218E+04  0.10210988218E+04  0.25500000000E-02 0.  1.
         -2   -1    0    0    0  501 -0.00000000000E+00 -0.00000000000E+00 -0.18610130067E+03  0.18610130069E+03  0.25500000000E-02 0. -1.
    5000001    1    1    2    0    0 -0.35347706169E+03 -0.16029930246E+03  0.26480408707E+03  0.49798403994E+03  0.16500000000E+03 0.  0.
   -5000001    1    1    2    0    0  0.35347706169E+03  0.16029930246E+03  0.57019343406E+03  0.70921608256E+03  0.16500000000E+03 0.  0.
<mgrwt>
<rscale>  0 0.87184361E+03</rscale>
<asrwt>0</asrwt>
<pdfrwt beam="1">  1        2 0.15709213E+00 0.87184361E+03</pdfrwt>
<pdfrwt beam="2">  1       -2 0.28630969E-01 0.87184361E+03</pdfrwt>
<totfact> 0.27367227E+02</totfact>
</mgrwt>
</event>
<event>
 4    1  0.8984293E-005  0.3640103E+03  0.7818608E-02  0.1057007E+00
         -2   -1    0    0    0  501 -0.00000000000E+00  0.00000000000E+00  0.18041987305E+02  0.18041987486E+02  0.25500000000E-02 0. -1.
          2   -1    0    0  501    0  0.00000000000E+00 -0.00000000000E+00 -0.18360438750E+04  0.18360438751E+04  0.25500000000E-02 0.  1.
    5000001    1    1    2    0    0  0.76503370430E+01 -0.74399089525E+02 -0.81973700799E+03  0.83951623835E+03  0.16500000000E+03 0.  0.
   -5000001    1    1    2    0    0 -0.76503370430E+01  0.74399089525E+02 -0.99826487975E+03  0.10145696242E+04  0.16500000000E+03 0.  0.
<mgrwt>
<rscale>  0 0.36401033E+03</rscale>
<asrwt>0</asrwt>
<pdfrwt beam="1">  1        2 0.28246814E+00 0.36401033E+03</pdfrwt>
<pdfrwt beam="2">  1       -2 0.27756918E-02 0.36401033E+03</pdfrwt>
<totfact> 0.43070397E+03</totfact>
</mgrwt>
</event>
<event>
 4    1  0.8984293E-005  0.1023250E+04  0.7818608E-02  0.9283405E-01
         -2   -1    0    0    0  501 -0.00000000000E+00  0.00000000000E+00  0.36464654368E+03  0.36464654369E+03  0.25500000000E-02 0. -1.
          2   -1    0    0  501    0  0.00000000000E+00 -0.00000000000E+00 -0.71784673927E+03  0.71784673927E+03  0.25500000000E-02 0.  1.
    5000001    1    1    2    0    0  0.31210660469E+03  0.31214409656E+03  0.34160085163E+02  0.47247897427E+03  0.16500000000E+03 0.  0.
   -5000001    1    1    2    0    0 -0.31210660469E+03 -0.31214409656E+03 -0.38736028075E+03  0.61001430869E+03  0.16500000000E+03 0.  0.
<mgrwt>
<rscale>  0 0.10232504E+04</rscale>
<asrwt>0</asrwt>
<pdfrwt beam="1">  1        2 0.11043796E+00 0.10232504E+04</pdfrwt>
<pdfrwt beam="2">  1       -2 0.56099468E-01 0.10232504E+04</pdfrwt>
<totfact> 0.11808119E+02</totfact>
</mgrwt>
</event>
<event>
 4    1  0.8984293E-005  0.3746753E+03  0.7818608E-02  0.1052920E+00
          2   -1    0    0  501    0  0.00000000000E+00  0.00000000000E+00  0.58770105952E+03  0.58770105952E+03  0.25500000000E-02 0.  1.
         -2   -1    0    0    0  501 -0.00000000000E+00 -0.00000000000E+00 -0.59716414835E+02  0.59716414889E+02  0.25500000000E-02 0. -1.
    5000001    1    1    2    0    0 -0.41456343280E+02 -0.78297894517E+02  0.25603409977E+03  0.31721861378E+03  0.16500000000E+03 0.  0.
   -5000001    1    1    2    0    0  0.41456343280E+02  0.78297894517E+02  0.27195054492E+03  0.33019886063E+03  0.16500000000E+03 0.  0.
<mgrwt>
<rscale>  0 0.37467533E+03</rscale>
<asrwt>0</asrwt>
<pdfrwt beam="1">  1        2 0.90415551E-01 0.37467533E+03</pdfrwt>
<pdfrwt beam="2">  1       -2 0.91871405E-02 0.37467533E+03</pdfrwt>
<totfact> 0.39475978E+03</totfact>
</mgrwt>
</event>
<event>
 4    1  0.8984293E-005  0.9858040E+03  0.7818608E-02  0.9324253E-01
         -2   -1    0    0    0  501 -0.00000000000E+00  0.00000000000E+00  0.15801571735E+03  0.15801571737E+03  0.25500000000E-02 0. -1.
          2   -1    0    0  501    0  0.00000000000E+00 -0.00000000000E+00 -0.15375204227E+04  0.15375204227E+04  0.25500000000E-02 0.  1.
    5000001    1    1    2    0    0  0.45887175893E+03  0.18376639094E+02 -0.80924141320E+03  0.94498553261E+03  0.16500000000E+03 0.  0.
   -5000001    1    1    2    0    0 -0.45887175893E+03 -0.18376639094E+02 -0.57026329220E+03  0.75055060751E+03  0.16500000000E+03 0.  0.
<mgrwt>
<rscale>  0 0.98580402E+03</rscale>
<asrwt>0</asrwt>
<pdfrwt beam="1">  1        2 0.23654159E+00 0.98580402E+03</pdfrwt>
<pdfrwt beam="2">  1       -2 0.24310111E-01 0.98580402E+03</pdfrwt>
<totfact> 0.18219080E+02</totfact>
</mgrwt>
</event>
<event>
 4    1  0.8984293E-005  0.3393616E+03  0.7818608E-02  0.1067068E+00
         -2   -1    0    0    0  501 -0.00000000000E+00  0.00000000000E+00  0.42439820992E+02  0.42439821069E+02  0.25500000000E-02 0. -1.
          2   -1    0    0  501    0  0.00000000000E+00 -0.00000000000E+00 -0.67840943815E+03  0.67840943815E+03  0.25500000000E-02 0.  1.
    5000001    1    1    2    0    0  0.38305917551E+02  0.74685115503E+01 -0.30398273263E+03  0.34807129115E+03  0.16500000000E+03 0.  0.
   -5000001    1    1    2    0    0 -0.38305917551E+02 -0.74685115503E+01 -0.33198688452E+03  0.37277796807E+03  0.16500000000E+03 0.  0.
<mgrwt>
<rscale>  0 0.33936161E+03</rscale>
<asrwt>0</asrwt>
<pdfrwt beam="1">  1        2 0.10437067E+00 0.33936161E+03</pdfrwt>
<pdfrwt beam="2">  1       -2 0.65292037E-02 0.33936161E+03</pdfrwt>
<totfact> 0.56786504E+03</totfact>
</mgrwt>
</event>
<event>
 4    1  0.8984293E-005  0.5244696E+03  0.7818608E-02  0.1007582E+00
          2   -1    0    0  501    0  0.00000000000E+00  0.00000000000E+00  0.75074804833E+03  0.75074804833E+03  0.25500000000E-02 0.  1.
         -2   -1    0    0    0  501 -0.00000000000E+00 -0.00000000000E+00 -0.91598106602E+02  0.91598106637E+02  0.25500000000E-02 0. -1.
    5000001    1    1    2    0    0  0.37784813789E+02 -0.14478146780E+03  0.55184742199E+03  0.59510498462E+03  0.16500000000E+03 0.  0.
   -5000001    1    1    2    0    0 -0.37784813789E+02  0.14478146780E+03  0.10730251974E+03  0.24724117035E+03  0.16500000000E+03 0.  0.
<mgrwt>
<rscale>  0 0.52446964E+03</rscale>
<asrwt>0</asrwt>
<pdfrwt beam="1">  1        2 0.11549970E+00 0.52446964E+03</pdfrwt>
<pdfrwt beam="2">  1       -2 0.14092017E-01 0.52446964E+03</pdfrwt>
<totfact> 0.14619924E+03</totfact>
</mgrwt>
</event>
<event>
 4    1  0.8984293E-005  0.8250137E+03  0.7818608E-02  0.9524500E-01
         -2   -1    0    0    0  501 -0.00000000000E+00  0.00000000000E+00  0.46131440361E+02  0.46131440431E+02  0.25500000000E-02 0. -1.
          2   -1    0    0  501    0  0.00000000000E+00 -0.00000000000E+00 -0.36886319768E+04  0.36886319768E+04  0.25500000000E-02 0.  1.
    5000001    1    1    2    0    0 -0.23603875713E+03 -0.82439181483E+02 -0.31050616583E+04  0.31194780678E+04  0.16500000000E+03 0.  0.
   -5000001    1    1    2    0    0  0.23603875713E+03  0.82439181483E+02 -0.53743887811E+03  0.61528534942E+03  0.16500000000E+03 0.  0.
<mgrwt>
<rscale>  0 0.82501371E+03</rscale>
<asrwt>0</asrwt>
<pdfrwt beam="1">  1        2 0.56748161E+00 0.82501371E+03</pdfrwt>
<pdfrwt beam="2">  1       -2 0.70971476E-02 0.82501371E+03</pdfrwt>
<totfact> 0.76087194E+01</totfact>
</mgrwt>
</event>
<event>
 4    1  0.8984293E-005  0.6901910E+03  0.7818608E-02  0.9734156E-01
         -2   -1    0    0    0  501 -0.00000000000E+00  0.00000000000E+00  0.38051111938E+03  0.38051111939E+03  0.25500000000E-02 0. -1.
          2   -1    0    0  501    0  0.00000000000E+00 -0.00000000000E+00 -0.31297612206E+03  0.31297612207E+03  0.25500000000E-02 0.  1.
    5000001    1    1    2    0    0 -0.17832500053E+03  0.16130207036E+03 -0.15163402016E+03  0.32868836272E+03  0.16500000000E+03 0.  0.
   -5000001    1    1    2    0    0  0.17832500053E+03 -0.16130207036E+03  0.21916901748E+03  0.36479887875E+03  0.16500000000E+03 0.  0.
<mgrwt>
<rscale>  0 0.69019097E+03</rscale>
<asrwt>0</asrwt>
<pdfrwt beam="1">  1        2 0.48150173E-01 0.69019097E+03</pdfrwt>
<pdfrwt beam="2">  1       -2 0.58540172E-01 0.69019097E+03</pdfrwt>
<totfact> 0.28849363E+02</totfact>
</mgrwt>
</event>
<event>
 4    1  0.8984293E-005  0.5297271E+03  0.7818608E-02  0.1006298E+00
         -2   -1    0    0    0  501 -0.00000000000E+00  0.00000000000E+00  0.78576328595E+02  0.78576328636E+02  0.25500000000E-02 0. -1.
          2   -1    0    0  501    0  0.00000000000E+00 -0.00000000000E+00 -0.89279690431E+03  0.89279690431E+03  0.25500000000E-02 0.  1.
    5000001    1    1    2    0    0  0.16820273884E+03 -0.46733344075E+02 -0.20249155136E+03  0.31417191978E+03  0.16500000000E+03 0.  0.
   -5000001    1    1    2    0    0 -0.16820273884E+03  0.46733344075E+02 -0.61172902435E+03  0.65720131317E+03  0.16500000000E+03 0.  0.
<mgrwt>
<rscale>  0 0.52972711E+03</rscale>
<asrwt>0</asrwt>
<pdfrwt beam="1">  1        2 0.13735336E+00 0.52972711E+03</pdfrwt>
<pdfrwt beam="2">  1       -2 0.12088667E-01 0.52972711E+03</pdfrwt>
<totfact> 0.14986472E+03</totfact>
</mgrwt>
</event>
<event>
 4    1  0.8984293E-005  0.4550844E+03  0.7818608E-02  0.1026217E+00
          2   -1    0    0  501    0  0.00000000000E+00  0.00000000000E+00  0.37472238835E+02  0.37472238922E+02  0.25500000000E-02 0.  1.
         -2   -1    0    0    0  501 -0.00000000000E+00 -0.00000000000E+00 -0.13817015690E+04  0.13817015690E+04  0.25500000000E-02 0. -1.
    5000001    1    1    2    0    0  0.86833282613E+02  0.96924127763E+02 -0.39996282920E+03  0.45180700554E+03  0.16500000000E+03 0.  0.
   -5000001    1    1    2    0    0 -0.86833282613E+02 -0.96924127763E+02 -0.94426650096E+03  0.96736680238E+03  0.16500000000E+03 0.  0.
<mgrwt>
<rscale>  0 0.45508439E+03</rscale>
<asrwt>0</asrwt>
<pdfrwt beam="1">  1        2 0.57649609E-02 0.45508439E+03</pdfrwt>
<pdfrwt beam="2">  1       -2 0.21256943E+00 0.45508439E+03</pdfrwt>
<totfact> 0.15558153E+02</totfact>
</mgrwt>
</event>
<event>
 4    1  0.8984293E-005  0.7577529E+03  0.7818608E-02  0.9623265E-01
          2   -1    0    0  501    0  0.00000000000E+00  0.00000000000E+00  0.50344843709E+03  0.50344843710E+03  0.25500000000E-02 0.  1.
         -2   -1    0    0    0  501 -0.00000000000E+00 -0.00000000000E+00 -0.28512825287E+03  0.28512825288E+03  0.25500000000E-02 0. -1.
    5000001    1    1    2    0    0  0.27055627914E+03  0.20762833876E+03  0.11278697729E+03  0.39529246070E+03  0.16500000000E+03 0.  0.
   -5000001    1    1    2    0    0 -0.27055627914E+03 -0.20762833876E+03  0.10553320693E+03  0.39328422928E+03  0.16500000000E+03 0.  0.
<mgrwt>
<rscale>  0 0.75775292E+03</rscale>
<asrwt>0</asrwt>
<pdfrwt beam="1">  1        2 0.77453604E-01 0.75775292E+03</pdfrwt>
<pdfrwt beam="2">  1       -2 0.43865886E-01 0.75775292E+03</pdfrwt>
<totfact> 0.30333625E+02</totfact>
</mgrwt>
</event>
<event>
 4    1  0.8984293E-005  0.3713393E+03  0.7818608E-02  0.1054182E+00
          2   -1    0    0  501    0  0.00000000000E+00  0.00000000000E+00  0.61587328504E+03  0.61587328505E+03  0.25500000000E-02 0.  1.
         -2   -1    0    0    0  501 -0.00000000000E+00 -0.00000000000E+00 -0.55974517586E+02  0.55974517644E+02  0.25500000000E-02 0. -1.
    5000001    1    1    2    0    0 -0.48865454416E+02  0.49298528165E+02  0.19076145329E+03  0.26159722776E+03  0.16500000000E+03 0.  0.
   -5000001    1    1    2    0    0  0.48865454416E+02 -0.49298528165E+02  0.36913731417E+03  0.41025057492E+03  0.16500000000E+03 0.  0.
<mgrwt>
<rscale>  0 0.37133925E+03</rscale>
<asrwt>0</asrwt>
<pdfrwt beam="1">  1        2 0.94749729E-01 0.37133925E+03</pdfrwt>
<pdfrwt beam="2">  1       -2 0.86114649E-02 0.37133925E+03</pdfrwt>
<totfact> 0.41394885E+03</totfact>
</mgrwt>
</event>
<event>
 4    1  0.8984293E-005  0.4196202E+03  0.7818608E-02  0.1037190E+00
          2   -1    0    0  501    0  0.00000000000E+00  0.00000000000E+00  0.16423798708E+04  0.16423798708E+04  0.25500000000E-02 0.  1.
         -2   -1    0    0    0  501 -0.00000000000E+00 -0.00000000000E+00 -0.26802741329E+02  0.26802741451E+02  0.25500000000E-02 0. -1.
    5000001    1    1    2    0    0 -0.57251803347E+02 -0.11512155534E+03  0.87248707913E+03  0.89721204001E+03  0.16500000000E+03 0.  0.
   -5000001    1    1    2    0    0  0.57251803347E+02  0.11512155534E+03  0.74309005032E+03  0.77197057223E+03  0.16500000000E+03 0.  0.
<mgrwt>
<rscale>  0 0.41962022E+03</rscale>
<asrwt>0</asrwt>
<pdfrwt beam="1">  1        2 0.25267395E+00 0.41962022E+03</pdfrwt>
<pdfrwt beam="2">  1       -2 0.41234967E-02 0.41962022E+03</pdfrwt>
<totfact> 0.30020242E+03</totfact>
</mgrwt>
</event>
<event>
 4    1  0.8984293E-005  0.4520055E+03  0.7818608E-02  0.1027126E+00
          2   -1    0    0  501    0  0.00000000000E+00  0.00000000000E+00  0.14262609260E+04  0.14262609260E+04  0.25500000000E-02 0.  1.
         -2   -1    0    0    0  501 -0.00000000000E+00 -0.00000000000E+00 -0.35811994711E+02  0.35811994802E+02  0.25500000000E-02 0. -1.
    5000001    1    1    2    0    0 -0.97004762731E+02 -0.11653886794E+03  0.79013866123E+03  0.82130100188E+03  0.16500000000E+03 0.  0.
   -5000001    1    1    2    0    0  0.97004762731E+02  0.11653886794E+03  0.60031027007E+03  0.64077191893E+03  0.16500000000E+03 0.  0.
<mgrwt>
<rscale>  0 0.45200553E+03</rscale>
<asrwt>0</asrwt>
<pdfrwt beam="1">  1        2 0.21942471E+00 0.45200553E+03</pdfrwt>
<pdfrwt beam="2">  1       -2 0.55095388E-02 0.45200553E+03</pdfrwt>
<totfact> 0.25196210E+03</totfact>
</mgrwt>
</event>
<event>
 4    1  0.8984293E-005  0.5367675E+03  0.7818608E-02  0.1004604E+00
         -2   -1    0    0    0  501 -0.00000000000E+00  0.00000000000E+00  0.10410597644E+03  0.10410597647E+03  0.25500000000E-02 0. -1.
          2   -1    0    0  501    0  0.00000000000E+00 -0.00000000000E+00 -0.69188956635E+03  0.69188956635E+03  0.25500000000E-02 0.  1.
    5000001    1    1    2    0    0 -0.16796246982E+03 -0.43724001464E+02 -0.11420672632E+03  0.26531369341E+03  0.16500000000E+03 0.  0.
   -5000001    1    1    2    0    0  0.16796246982E+03  0.43724001464E+02 -0.47357686359E+03  0.53068184942E+03  0.16500000000E+03 0.  0.
<mgrwt>
<rscale>  0 0.53676751E+03</rscale>
<asrwt>0</asrwt>
<pdfrwt beam="1">  1        2 0.10644455E+00 0.53676751E+03</pdfrwt>
<pdfrwt beam="2">  1       -2 0.16016305E-01 0.53676751E+03</pdfrwt>
<totfact> 0.13066397E+03</totfact>
</mgrwt>
</event>
<event>
 4    1  0.8984293E-005  0.5624834E+03  0.7818608E-02  0.9986451E-01
         -2   -1    0    0    0  501 -0.00000000000E+00  0.00000000000E+00  0.22962463982E+03  0.22962463983E+03  0.25500000000E-02 0. -1.
          2   -1    0    0  501    0  0.00000000000E+00 -0.00000000000E+00 -0.34446164237E+03  0.34446164238E+03  0.25500000000E-02 0.  1.
    5000001    1    1    2    0    0  0.91262633340E+02  0.20862102589E+03 -0.62014714519E+02  0.28796254184E+03  0.16500000000E+03 0.  0.
   -5000001    1    1    2    0    0 -0.91262633340E+02 -0.20862102589E+03 -0.52822288031E+02  0.28612374036E+03  0.16500000000E+03 0.  0.
<mgrwt>
<rscale>  0 0.56248335E+03</rscale>
<asrwt>0</asrwt>
<pdfrwt beam="1">  1        2 0.52994099E-01 0.56248335E+03</pdfrwt>
<pdfrwt beam="2">  1       -2 0.35326868E-01 0.56248335E+03</pdfrwt>
<totfact> 0.71187785E+02</totfact>
</mgrwt>
</event>
<event>
 4    1  0.8984293E-005  0.7479442E+03  0.7818608E-02  0.9638581E-01
          2   -1    0    0  501    0  0.00000000000E+00  0.00000000000E+00  0.77211326014E+03  0.77211326014E+03  0.25500000000E-02 0.  1.
         -2   -1    0    0    0  501 -0.00000000000E+00 -0.00000000000E+00 -0.18113294433E+03  0.18113294435E+03  0.25500000000E-02 0. -1.
    5000001    1    1    2    0    0  0.25212675446E+03 -0.66894505553E+02  0.56460757308E+03  0.64346677208E+03  0.16500000000E+03 0.  0.
   -5000001    1    1    2    0    0 -0.25212675446E+03  0.66894505553E+02  0.26372742731E+02  0.30977943241E+03  0.16500000000E+03 0.  0.
<mgrwt>
<rscale>  0 0.74794424E+03</rscale>
<asrwt>0</asrwt>
<pdfrwt beam="1">  1        2 0.11878666E+00 0.74794424E+03</pdfrwt>
<pdfrwt beam="2">  1       -2 0.27866607E-01 0.74794424E+03</pdfrwt>
<totfact> 0.42671041E+02</totfact>
</mgrwt>
</event>
<event>
 4    1  0.8984293E-005  0.4635009E+03  0.7818608E-02  0.1023771E+00
         -2   -1    0    0    0  501 -0.00000000000E+00  0.00000000000E+00  0.80287744270E+02  0.80287744311E+02  0.25500000000E-02 0. -1.
          2   -1    0    0  501    0  0.00000000000E+00 -0.00000000000E+00 -0.66894720405E+03  0.66894720405E+03  0.25500000000E-02 0.  1.
    5000001    1    1    2    0    0 -0.13791768311E+03  0.23393213275E+02 -0.42874703003E+03  0.48022655643E+03  0.16500000000E+03 0.  0.
   -5000001    1    1    2    0    0  0.13791768311E+03 -0.23393213275E+02 -0.15991242975E+03  0.26900839194E+03  0.16500000000E+03 0.  0.
<mgrwt>
<rscale>  0 0.46350086E+03</rscale>
<asrwt>0</asrwt>
<pdfrwt beam="1">  1        2 0.10291495E+00 0.46350086E+03</pdfrwt>
<pdfrwt beam="2">  1       -2 0.12351961E-01 0.46350086E+03</pdfrwt>
<totfact> 0.21002663E+03</totfact>
</mgrwt>
</event>
<event>
 4    1  0.8984293E-005  0.3465004E+03  0.7818608E-02  0.1064061E+00
         -2   -1    0    0    0  501 -0.00000000000E+00  0.00000000000E+00  0.88632257119E+01  0.88632260788E+01  0.25500000000E-02 0.  1.
          2   -1    0    0  501    0  0.00000000000E+00 -0.00000000000E+00 -0.33865352946E+04  0.33865352946E+04  0.25500000000E-02 0. -1.
    5000001    1    1    2    0    0  0.93568591002E+01  0.47410733192E+02 -0.18979270355E+04  0.19056986542E+04  0.16500000000E+03 0.  0.
   -5000001    1    1    2    0    0 -0.93568591002E+01 -0.47410733192E+02 -0.14797450334E+04  0.14896998665E+04  0.16500000000E+03 0.  0.
<mgrwt>
<rscale>  0 0.34650037E+03</rscale>
<asrwt>0</asrwt>
<pdfrwt beam="1">  1        2 0.52100439E+00 0.34650037E+03</pdfrwt>
<pdfrwt beam="2">  1       -2 0.13635759E-02 0.34650037E+03</pdfrwt>
<totfact> 0.16140244E+03</totfact>
</mgrwt>
</event>
<event>
 4    1  0.8984293E-005  0.4505261E+03  0.7818608E-02  0.1027565E+00
         -2   -1    0    0    0  501 -0.00000000000E+00  0.00000000000E+00  0.25054289119E+02  0.25054289249E+02  0.25500000000E-02 0. -1.
          2   -1    0    0  501    0  0.00000000000E+00 -0.00000000000E+00 -0.20253394633E+04  0.20253394633E+04  0.25500000000E-02 0.  1.
    5000001    1    1    2    0    0 -0.10883290700E+02  0.15235179926E+03 -0.10626973992E+04  0.10862229417E+04  0.16500000000E+03 0.  0.
   -5000001    1    1    2    0    0  0.10883290700E+02 -0.15235179926E+03 -0.93758777496E+03  0.96417081085E+03  0.16500000000E+03 0.  0.
<mgrwt>
<rscale>  0 0.45052610E+03</rscale>
<asrwt>0</asrwt>
<pdfrwt beam="1">  1        2 0.31159056E+00 0.45052610E+03</pdfrwt>
<pdfrwt beam="2">  1       -2 0.38545076E-02 0.45052610E+03</pdfrwt>
<totfact> 0.20726235E+03</totfact>
</mgrwt>
</event>
<event>
 4    1  0.8984293E-005  0.4211920E+03  0.7818608E-02  0.1036679E+00
          2   -1    0    0  501    0  0.00000000000E+00  0.00000000000E+00  0.99500807185E+03  0.99500807185E+03  0.25500000000E-02 0.  1.
         -2   -1    0    0    0  501 -0.00000000000E+00 -0.00000000000E+00 -0.44573174954E+02  0.44573175027E+02  0.25500000000E-02 0. -1.
    5000001    1    1    2    0    0 -0.70152545637E+02 -0.11028800492E+03  0.45944318979E+03  0.50536904172E+03  0.16500000000E+03 0.  0.
   -5000001    1    1    2    0    0  0.70152545637E+02  0.11028800492E+03  0.49099170711E+03  0.53421220516E+03  0.16500000000E+03 0.  0.
<mgrwt>
<rscale>  0 0.42119197E+03</rscale>
<asrwt>0</asrwt>
<pdfrwt beam="1">  1        2 0.15307816E+00 0.42119197E+03</pdfrwt>
<pdfrwt beam="2">  1       -2 0.68574117E-02 0.42119197E+03</pdfrwt>
<totfact> 0.31936273E+03</totfact>
</mgrwt>
</event>
<event>
 4    1  0.8984293E-005  0.4620975E+03  0.7818608E-02  0.1024175E+00
         -2   -1    0    0    0  501 -0.00000000000E+00  0.00000000000E+00  0.34086097235E+02  0.34086097330E+02  0.25500000000E-02 0. -1.
          2   -1    0    0  501    0  0.00000000000E+00 -0.00000000000E+00 -0.15661378167E+04  0.15661378167E+04  0.25500000000E-02 0.  1.
    5000001    1    1    2    0    0 -0.14105998849E+03 -0.60993898376E+02 -0.59148628632E+03  0.63300805911E+03  0.16500000000E+03 0.  0.
   -5000001    1    1    2    0    0  0.14105998849E+03  0.60993898376E+02 -0.94056543318E+03  0.96721585496E+03  0.16500000000E+03 0.  0.
<mgrwt>
<rscale>  0 0.46209750E+03</rscale>
<asrwt>0</asrwt>
<pdfrwt beam="1">  1        2 0.24094422E+00 0.46209750E+03</pdfrwt>
<pdfrwt beam="2">  1       -2 0.52440162E-02 0.46209750E+03</pdfrwt>
<totfact> 0.22796213E+03</totfact>
</mgrwt>
</event>
<event>
 4    1  0.8984293E-005  0.5390669E+03  0.7818608E-02  0.1004057E+00
         -2   -1    0    0    0  501 -0.00000000000E+00  0.00000000000E+00  0.13274364400E+03  0.13274364403E+03  0.25500000000E-02 0. -1.
          2   -1    0    0  501    0  0.00000000000E+00 -0.00000000000E+00 -0.54728259407E+03  0.54728259408E+03  0.25500000000E-02 0.  1.
    5000001    1    1    2    0    0  0.69681653617E+02 -0.19236713096E+03 -0.28256496322E+03  0.38591269008E+03  0.16500000000E+03 0.  0.
   -5000001    1    1    2    0    0 -0.69681653617E+02  0.19236713096E+03 -0.13197398685E+03  0.29411354802E+03  0.16500000000E+03 0.  0.
<mgrwt>
<rscale>  0 0.53906692E+03</rscale>
<asrwt>0</asrwt>
<pdfrwt beam="1">  1        2 0.84197321E-01 0.53906692E+03</pdfrwt>
<pdfrwt beam="2">  1       -2 0.20422099E-01 0.53906692E+03</pdfrwt>
<totfact> 0.11414173E+03</totfact>
</mgrwt>
</event>
<event>
 4    1  0.8984293E-005  0.4916013E+03  0.7818608E-02  0.1015995E+00
         -2   -1    0    0    0  501 -0.00000000000E+00  0.00000000000E+00  0.68777265662E+02  0.68777265710E+02  0.25500000000E-02 0.  1.
          2   -1    0    0  501    0  0.00000000000E+00 -0.00000000000E+00 -0.87845833717E+03  0.87845833717E+03  0.25500000000E-02 0. -1.
    5000001    1    1    2    0    0 -0.11687639188E+03  0.11240975822E+03 -0.24482118545E+03  0.33683595053E+03  0.16500000000E+03 0.  0.
   -5000001    1    1    2    0    0  0.11687639188E+03 -0.11240975822E+03 -0.56485988605E+03  0.61039965235E+03  0.16500000000E+03 0.  0.
<mgrwt>
<rscale>  0 0.49160131E+03</rscale>
<asrwt>0</asrwt>
<pdfrwt beam="1">  1        2 0.13514743E+00 0.49160131E+03</pdfrwt>
<pdfrwt beam="2">  1       -2 0.10581118E-01 0.49160131E+03</pdfrwt>
<totfact> 0.19050099E+03</totfact>
</mgrwt>
</event>
<event>
 4    1  0.8984293E-005  0.6135779E+03  0.7818608E-02  0.9877630E-01
          2   -1    0    0  501    0  0.00000000000E+00  0.00000000000E+00  0.19861789784E+03  0.19861789786E+03  0.25500000000E-02 0.  1.
         -2   -1    0    0    0  501 -0.00000000000E+00 -0.00000000000E+00 -0.47387203422E+03  0.47387203422E+03  0.25500000000E-02 0. -1.
    5000001    1    1    2    0    0 -0.18651208503E+03  0.17810889825E+03 -0.15913045284E+03  0.34504642951E+03  0.16500000000E+03 0.  0.
   -5000001    1    1    2    0    0  0.18651208503E+03 -0.17810889825E+03 -0.11612368353E+03  0.32744350257E+03  0.16500000000E+03 0.  0.
<mgrwt>
<rscale>  0 0.61357792E+03</rscale>
<asrwt>0</asrwt>
<pdfrwt beam="1">  1        2 0.30556600E-01 0.61357792E+03</pdfrwt>
<pdfrwt beam="2">  1       -2 0.72903389E-01 0.61357792E+03</pdfrwt>
<totfact> 0.29949233E+02</totfact>
</mgrwt>
</event>
<event>
 4    1  0.8984293E-005  0.4097219E+03  0.7818608E-02  0.1040464E+00
          2   -1    0    0  501    0  0.00000000000E+00  0.00000000000E+00  0.53816923375E+03  0.53816923375E+03  0.25500000000E-02 0.  1.
         -2   -1    0    0    0  501 -0.00000000000E+00 -0.00000000000E+00 -0.77982929224E+02  0.77982929265E+02  0.25500000000E-02 0. -1.
    5000001    1    1    2    0    0 -0.84159047829E+02 -0.84171887284E+02  0.26616506029E+03  0.33501715070E+03  0.16500000000E+03 0.  0.
   -5000001    1    1    2    0    0  0.84159047829E+02  0.84171887284E+02  0.19402124423E+03  0.28113501232E+03  0.16500000000E+03 0.  0.
<mgrwt>
<rscale>  0 0.40972192E+03</rscale>
<asrwt>0</asrwt>
<pdfrwt beam="1">  1        2 0.82795266E-01 0.40972192E+03</pdfrwt>
<pdfrwt beam="2">  1       -2 0.11997374E-01 0.40972192E+03</pdfrwt>
<totfact> 0.28480464E+03</totfact>
</mgrwt>
</event>
<event>
 4    1  0.8984293E-005  0.4996599E+03  0.7818608E-02  0.1013868E+00
         -2   -1    0    0    0  501 -0.00000000000E+00  0.00000000000E+00  0.21921561742E+02  0.21921561890E+02  0.25500000000E-02 0. -1.
          2   -1    0    0  501    0  0.00000000000E+00 -0.00000000000E+00 -0.28471964240E+04  0.28471964240E+04  0.25500000000E-02 0.  1.
    5000001    1    1    2    0    0 -0.12083247430E+03  0.13877345862E+03 -0.16221613312E+04  0.16408811487E+04  0.16500000000E+03 0.  0.
   -5000001    1    1    2    0    0  0.12083247430E+03 -0.13877345862E+03 -0.12031135311E+04  0.12282368373E+04  0.16500000000E+03 0.  0.
<mgrwt>
<rscale>  0 0.49965985E+03</rscale>
<asrwt>0</asrwt>
<pdfrwt beam="1">  1        2 0.43802993E+00 0.49965985E+03</pdfrwt>
<pdfrwt beam="2">  1       -2 0.33725502E-02 0.49965985E+03</pdfrwt>
<totfact> 0.88117690E+02</totfact>
</mgrwt>
</event>
<event>
 4    1  0.8984293E-005  0.6045267E+03  0.7818608E-02  0.9896059E-01
         -2   -1    0    0    0  501 -0.00000000000E+00  0.00000000000E+00  0.35675181791E+02  0.35675181882E+02  0.25500000000E-02 0. -1.
          2   -1    0    0  501    0  0.00000000000E+00 -0.00000000000E+00 -0.25609718988E+04  0.25609718988E+04  0.25500000000E-02 0.  1.
    5000001    1    1    2    0    0 -0.24872884733E+03  0.16173670064E+02 -0.14552458657E+04  0.14856288759E+04  0.16500000000E+03 0.  0.
   -5000001    1    1    2    0    0  0.24872884733E+03 -0.16173670064E+02 -0.10700508513E+04  0.11110182048E+04  0.16500000000E+03 0.  0.
<mgrwt>
<rscale>  0 0.60452672E+03</rscale>
<asrwt>0</asrwt>
<pdfrwt beam="1">  1        2 0.39399553E+00 0.60452672E+03</pdfrwt>
<pdfrwt beam="2">  1       -2 0.54884915E-02 0.60452672E+03</pdfrwt>
<totfact> 0.60315670E+02</totfact>
</mgrwt>
</event>
<event>
 4    1  0.8984293E-005  0.3731763E+03  0.7818608E-02  0.1053485E+00
         -2   -1    0    0    0  501 -0.00000000000E+00  0.00000000000E+00  0.89424353396E+02  0.89424353432E+02  0.25500000000E-02 0. -1.
          2   -1    0    0  501    0  0.00000000000E+00 -0.00000000000E+00 -0.38932500876E+03  0.38932500877E+03  0.25500000000E-02 0.  1.
    5000001    1    1    2    0    0  0.75457913850E+02 -0.43523709026E+02 -0.14816936768E+03  0.23825904291E+03  0.16500000000E+03 0.  0.
   -5000001    1    1    2    0    0 -0.75457913850E+02  0.43523709026E+02 -0.15173128768E+03  0.24049031929E+03  0.16500000000E+03 0.  0.
<mgrwt>
<rscale>  0 0.37317630E+03</rscale>
<asrwt>0</asrwt>
<pdfrwt beam="1">  1        2 0.59896154E-01 0.37317630E+03</pdfrwt>
<pdfrwt beam="2">  1       -2 0.13757593E-01 0.37317630E+03</pdfrwt>
<totfact> 0.32659149E+03</totfact>
</mgrwt>
</event>
<event>
 4    1  0.8984293E-005  0.4422096E+03  0.7818608E-02  0.1030071E+00
          2   -1    0    0  501    0  0.00000000000E+00  0.00000000000E+00  0.16468428586E+04  0.16468428586E+04  0.25500000000E-02 0.  1.
         -2   -1    0    0    0  501 -0.00000000000E+00 -0.00000000000E+00 -0.29685488650E+02  0.29685488760E+02  0.25500000000E-02 0. -1.
    5000001    1    1    2    0    0  0.43792569664E+02 -0.14040100437E+03  0.78709733404E+03  0.81754354284E+03  0.16500000000E+03 0.  0.
   -5000001    1    1    2    0    0 -0.43792569664E+02  0.14040100437E+03  0.83006003592E+03  0.85898480453E+03  0.16500000000E+03 0.  0.
<mgrwt>
<rscale>  0 0.44220961E+03</rscale>
<asrwt>0</asrwt>
<pdfrwt beam="1">  1        2 0.25336047E+00 0.44220961E+03</pdfrwt>
<pdfrwt beam="2">  1       -2 0.45669976E-02 0.44220961E+03</pdfrwt>
<totfact> 0.25521655E+03</totfact>
</mgrwt>
</event>
<event>
 4    1  0.8984293E-005  0.3670433E+03  0.7818608E-02  0.1055829E+00
         -2   -1    0    0    0  501 -0.00000000000E+00  0.00000000000E+00  0.79246324789E+02  0.79246324830E+02  0.25500000000E-02 0. -1.
          2   -1    0    0  501    0  0.00000000000E+00 -0.00000000000E+00 -0.42500633679E+03  0.42500633679E+03  0.25500000000E-02 0.  1.
    5000001    1    1    2    0    0  0.78078369784E+02 -0.10888294492E+02 -0.15157894357E+03  0.23752044737E+03  0.16500000000E+03 0.  0.
   -5000001    1    1    2    0    0 -0.78078369784E+02  0.10888294492E+02 -0.19418106843E+03  0.26673221425E+03  0.16500000000E+03 0.  0.
<mgrwt>
<rscale>  0 0.36704327E+03</rscale>
<asrwt>0</asrwt>
<pdfrwt beam="1">  1        2 0.65385589E-01 0.36704327E+03</pdfrwt>
<pdfrwt beam="2">  1       -2 0.12191743E-01 0.36704327E+03</pdfrwt>
<totfact> 0.36138793E+03</totfact>
</mgrwt>
</event>
<event>
 4    1  0.8984293E-005  0.4437884E+03  0.7818608E-02  0.1029591E+00
         -2   -1    0    0    0  501 -0.00000000000E+00  0.00000000000E+00  0.21103867328E+02  0.21103867482E+02  0.25500000000E-02 0. -1.
          2   -1    0    0  501    0  0.00000000000E+00 -0.00000000000E+00 -0.23330811616E+04  0.23330811616E+04  0.25500000000E-02 0.  1.
    5000001    1    1    2    0    0  0.13771497627E+03 -0.19371920628E+02 -0.88181228848E+03  0.90783181157E+03  0.16500000000E+03 0.  0.
   -5000001    1    1    2    0    0 -0.13771497627E+03  0.19371920628E+02 -0.14301650058E+04  0.14463532175E+04  0.16500000000E+03 0.  0.
<mgrwt>
<rscale>  0 0.44378840E+03</rscale>
<asrwt>0</asrwt>
<pdfrwt beam="1">  1        2 0.35893536E+00 0.44378840E+03</pdfrwt>
<pdfrwt beam="2">  1       -2 0.32467507E-02 0.44378840E+03</pdfrwt>
<totfact> 0.18334148E+03</totfact>
</mgrwt>
</event>
<event>
 4    1  0.8984293E-005  0.5315392E+03  0.7818608E-02  0.1005860E+00
          2   -1    0    0  501    0  0.00000000000E+00  0.00000000000E+00  0.69563419041E+03  0.69563419041E+03  0.25500000000E-02 0.  1.
         -2   -1    0    0    0  501 -0.00000000000E+00 -0.00000000000E+00 -0.10153826481E+03  0.10153826484E+03  0.25500000000E-02 0. -1.
    5000001    1    1    2    0    0  0.17363440467E+03  0.16212200939E+02  0.12607230336E+03  0.27116594111E+03  0.16500000000E+03 0.  0.
   -5000001    1    1    2    0    0 -0.17363440467E+03 -0.16212200939E+02  0.46802362224E+03  0.52600651414E+03  0.16500000000E+03 0.  0.
<mgrwt>
<rscale>  0 0.53153923E+03</rscale>
<asrwt>0</asrwt>
<pdfrwt beam="1">  1        2 0.10702065E+00 0.53153923E+03</pdfrwt>
<pdfrwt beam="2">  1       -2 0.15621271E-01 0.53153923E+03</pdfrwt>
<totfact> 0.13539025E+03</totfact>
</mgrwt>
</event>
<event>
 4    1  0.8984293E-005  0.4916004E+03  0.7818608E-02  0.1015995E+00
          2   -1    0    0  501    0  0.00000000000E+00  0.00000000000E+00  0.29006354462E+03  0.29006354463E+03  0.25500000000E-02 0. -1.
         -2   -1    0    0    0  501 -0.00000000000E+00 -0.00000000000E+00 -0.20829140514E+03  0.20829140515E+03  0.25500000000E-02 0.  1.
    5000001    1    1    2    0    0 -0.97070770027E+02 -0.14912879403E+03  0.12254912933E+01  0.24266980329E+03  0.16500000000E+03 0.  0.
   -5000001    1    1    2    0    0  0.97070770027E+02  0.14912879403E+03  0.80546648186E+02  0.25568514649E+03  0.16500000000E+03 0.  0.
<mgrwt>
<rscale>  0 0.49160042E+03</rscale>
<asrwt>0</asrwt>
<pdfrwt beam="1">  1        2 0.44625161E-01 0.49160042E+03</pdfrwt>
<pdfrwt beam="2">  1       -2 0.32044832E-01 0.49160042E+03</pdfrwt>
<totfact> 0.10336442E+03</totfact>
</mgrwt>
</event>
<event>
 4    1  0.8984293E-005  0.4823450E+03  0.7818608E-02  0.1018493E+00
         -2   -1    0    0    0  501 -0.00000000000E+00  0.00000000000E+00  0.29556230191E+02  0.29556230301E+02  0.25500000000E-02 0. -1.
          2   -1    0    0  501    0  0.00000000000E+00 -0.00000000000E+00 -0.19679154887E+04  0.19679154887E+04  0.25500000000E-02 0.  1.
    5000001    1    1    2    0    0  0.61940861140E+02  0.15631851405E+03 -0.11830426244E+04  0.12062698700E+04  0.16500000000E+03 0.  0.
   -5000001    1    1    2    0    0 -0.61940861140E+02 -0.15631851405E+03 -0.75531663419E+03  0.79120184909E+03  0.16500000000E+03 0.  0.
<mgrwt>
<rscale>  0 0.48234495E+03</rscale>
<asrwt>0</asrwt>
<pdfrwt beam="1">  1        2 0.30275613E+00 0.48234495E+03</pdfrwt>
<pdfrwt beam="2">  1       -2 0.45471139E-02 0.48234495E+03</pdfrwt>
<totfact> 0.17250251E+03</totfact>
</mgrwt>
</event>
<event>
 4    1  0.8984293E-005  0.5526265E+03  0.7818608E-02  0.1000888E+00
          2   -1    0    0  501    0  0.00000000000E+00  0.00000000000E+00  0.22256894004E+04  0.22256894004E+04  0.25500000000E-02 0.  1.
         -2   -1    0    0    0  501 -0.00000000000E+00 -0.00000000000E+00 -0.34303537052E+02  0.34303537147E+02  0.25500000000E-02 0. -1.
    5000001    1    1    2    0    0  0.19499238378E+03  0.87112553688E+02  0.13380963116E+04  0.13650411590E+04  0.16500000000E+03 0.  0.
   -5000001    1    1    2    0    0 -0.19499238378E+03 -0.87112553688E+02  0.85328955178E+03  0.89495177854E+03  0.16500000000E+03 0.  0.
<mgrwt>
<rscale>  0 0.55262652E+03</rscale>
<asrwt>0</asrwt>
<pdfrwt beam="1">  1        2 0.34241372E+00 0.55262652E+03</pdfrwt>
<pdfrwt beam="2">  1       -2 0.52774678E-02 0.55262652E+03</pdfrwt>
<totfact> 0.98930060E+02</totfact>
</mgrwt>
</event>
<event>
 4    1  0.8984293E-005  0.5363876E+03  0.7818608E-02  0.1004695E+00
         -2   -1    0    0    0  501 -0.00000000000E+00  0.00000000000E+00  0.22037361878E+03  0.22037361880E+03  0.25500000000E-02 0. -1.
          2   -1    0    0  501    0  0.00000000000E+00 -0.00000000000E+00 -0.32639076699E+03  0.32639076700E+03  0.25500000000E-02 0.  1.
    5000001    1    1    2    0    0  0.17371667914E+03  0.11213648645E+03 -0.79858134508E+01  0.26465231800E+03  0.16500000000E+03 0.  0.
   -5000001    1    1    2    0    0 -0.17371667914E+03 -0.11213648645E+03 -0.98031334759E+02  0.28211206780E+03  0.16500000000E+03 0.  0.
<mgrwt>
<rscale>  0 0.53638760E+03</rscale>
<asrwt>0</asrwt>
<pdfrwt beam="1">  1        2 0.50213964E-01 0.53638760E+03</pdfrwt>
<pdfrwt beam="2">  1       -2 0.33903634E-01 0.53638760E+03</pdfrwt>
<totfact> 0.81678573E+02</totfact>
</mgrwt>
</event>
<event>
 4    1  0.8984293E-005  0.6731405E+03  0.7818608E-02  0.9764301E-01
         -2   -1    0    0    0  501 -0.00000000000E+00  0.00000000000E+00  0.17463323543E+03  0.17463323545E+03  0.25500000000E-02 0. -1.
          2   -1    0    0  501    0  0.00000000000E+00 -0.00000000000E+00 -0.64867102874E+03  0.64867102875E+03  0.25500000000E-02 0.  1.
    5000001    1    1    2    0    0  0.16282595092E+03 -0.14542953222E+03 -0.47666907644E+03  0.54963665050E+03  0.16500000000E+03 0.  0.
   -5000001    1    1    2    0    0 -0.16282595092E+03  0.14542953222E+03  0.26312831336E+01  0.27366761369E+03  0.16500000000E+03 0.  0.
<mgrwt>
<rscale>  0 0.67314046E+03</rscale>
<asrwt>0</asrwt>
<pdfrwt beam="1">  1        2 0.99795542E-01 0.67314046E+03</pdfrwt>
<pdfrwt beam="2">  1       -2 0.26866652E-01 0.67314046E+03</pdfrwt>
<totfact> 0.57005072E+02</totfact>
</mgrwt>
</event>
<event>
 4    1  0.8984293E-005  0.5637031E+03  0.7818608E-02  0.9983710E-01
          2   -1    0    0  501    0  0.00000000000E+00  0.00000000000E+00  0.18874955204E+04  0.18874955204E+04  0.25500000000E-02 0.  1.
         -2   -1    0    0    0  501 -0.00000000000E+00 -0.00000000000E+00 -0.42087674780E+02  0.42087674857E+02  0.25500000000E-02 0. -1.
    5000001    1    1    2    0    0 -0.22237727002E+03  0.33752283265E+02  0.78474058455E+03  0.83284671572E+03  0.16500000000E+03 0.  0.
   -5000001    1    1    2    0    0  0.22237727002E+03 -0.33752283265E+02  0.10606672611E+04  0.10967364795E+04  0.16500000000E+03 0.  0.
<mgrwt>
<rscale>  0 0.56370311E+03</rscale>
<asrwt>0</asrwt>
<pdfrwt beam="1">  1        2 0.29038392E+00 0.56370311E+03</pdfrwt>
<pdfrwt beam="2">  1       -2 0.64750271E-02 0.56370311E+03</pdfrwt>
<totfact> 0.10955304E+03</totfact>
</mgrwt>
</event>
<event>
 4    1  0.8984293E-005  0.4007633E+03  0.7818608E-02  0.1043516E+00
         -2   -1    0    0    0  501 -0.00000000000E+00  0.00000000000E+00  0.78472601910E+03  0.78472601910E+03  0.25500000000E-02 0. -1.
          2   -1    0    0  501    0  0.00000000000E+00 -0.00000000000E+00 -0.51167924116E+02  0.51167924179E+02  0.25500000000E-02 0.  1.
    5000001    1    1    2    0    0  0.18765755829E+02  0.10176721202E+03  0.26852510835E+03  0.33172195111E+03  0.16500000000E+03 0.  0.
   -5000001    1    1    2    0    0 -0.18765755829E+02 -0.10176721202E+03  0.46503298663E+03  0.50417199217E+03  0.16500000000E+03 0.  0.
<mgrwt>
<rscale>  0 0.40076328E+03</rscale>
<asrwt>0</asrwt>
<pdfrwt beam="1">  1        2 0.78719887E-02 0.40076328E+03</pdfrwt>
<pdfrwt beam="2">  1       -2 0.12072707E+00 0.40076328E+03</pdfrwt>
<totfact> 0.47749554E+02</totfact>
</mgrwt>
</event>
<event>
 4    1  0.8984293E-005  0.3925326E+03  0.7818608E-02  0.1046396E+00
          2   -1    0    0  501    0  0.00000000000E+00  0.00000000000E+00  0.89736262935E+03  0.89736262936E+03  0.25500000000E-02 0.  1.
         -2   -1    0    0    0  501 -0.00000000000E+00 -0.00000000000E+00 -0.42926294792E+02  0.42926294868E+02  0.25500000000E-02 0. -1.
    5000001    1    1    2    0    0  0.36431698398E+02  0.97084904015E+02  0.37141385370E+03  0.41943533227E+03  0.16500000000E+03 0.  0.
   -5000001    1    1    2    0    0 -0.36431698398E+02 -0.97084904015E+02  0.48302248086E+03  0.52085359196E+03  0.16500000000E+03 0.  0.
<mgrwt>
<rscale>  0 0.39253256E+03</rscale>
<asrwt>0</asrwt>
<pdfrwt beam="1">  1        2 0.13805579E+00 0.39253256E+03</pdfrwt>
<pdfrwt beam="2">  1       -2 0.66040455E-02 0.39253256E+03</pdfrwt>
<totfact> 0.39098455E+03</totfact>
</mgrwt>
</event>
<event>
 4    1  0.8984293E-005  0.9217753E+03  0.7818608E-02  0.9398763E-01
          2   -1    0    0  501    0  0.00000000000E+00  0.00000000000E+00  0.11781301379E+04  0.11781301379E+04  0.25500000000E-02 0.  1.
         -2   -1    0    0    0  501 -0.00000000000E+00 -0.00000000000E+00 -0.18030049598E+03  0.18030049600E+03  0.25500000000E-02 0. -1.
    5000001    1    1    2    0    0  0.34412289557E+03 -0.17012925681E+03  0.21228683581E+03  0.46867390789E+03  0.16500000000E+03 0.  0.
   -5000001    1    1    2    0    0 -0.34412289557E+03  0.17012925681E+03  0.78554280614E+03  0.88975672605E+03  0.16500000000E+03 0.  0.
<mgrwt>
<rscale>  0 0.92177535E+03</rscale>
<asrwt>0</asrwt>
<pdfrwt beam="1">  1        2 0.18125079E+00 0.92177535E+03</pdfrwt>
<pdfrwt beam="2">  1       -2 0.27738538E-01 0.92177535E+03</pdfrwt>
<totfact> 0.23160615E+02</totfact>
</mgrwt>
</event>
<event>
 4    1  0.8984293E-005  0.8169680E+03  0.7818608E-02  0.9535776E-01
          2   -1    0    0  501    0  0.00000000000E+00  0.00000000000E+00  0.20134757172E+04  0.20134757172E+04  0.25500000000E-02 0.  1.
         -2   -1    0    0    0  501 -0.00000000000E+00 -0.00000000000E+00 -0.82871219978E+02  0.82871220017E+02  0.25500000000E-02 0. -1.
    5000001    1    1    2    0    0  0.26720637952E+03 -0.25806530655E+03  0.10691301150E+04  0.11437924438E+04  0.16500000000E+03 0.  0.
   -5000001    1    1    2    0    0 -0.26720637952E+03  0.25806530655E+03  0.86147438220E+03  0.95255449340E+03  0.16500000000E+03 0.  0.
<mgrwt>
<rscale>  0 0.81696803E+03</rscale>
<asrwt>0</asrwt>
<pdfrwt beam="1">  1        2 0.30976546E+00 0.81696803E+03</pdfrwt>
<pdfrwt beam="2">  1       -2 0.12749420E-01 0.81696803E+03</pdfrwt>
<totfact> 0.30790684E+02</totfact>
</mgrwt>
</event>
<event>
 4    1  0.8984293E-005  0.4184732E+03  0.7818608E-02  0.1037564E+00
          2   -1    0    0  501    0  0.00000000000E+00  0.00000000000E+00  0.96764036009E+03  0.96764036009E+03  0.25500000000E-02 0.  1.
         -2   -1    0    0    0  501 -0.00000000000E+00 -0.00000000000E+00 -0.45244040624E+02  0.45244040696E+02  0.25500000000E-02 0. -1.
    5000001    1    1    2    0    0  0.10259578301E+03 -0.76416372481E+02  0.49452659723E+03  0.53679317436E+03  0.16500000000E+03 0.  0.
   -5000001    1    1    2    0    0 -0.10259578301E+03  0.76416372481E+02  0.42786972224E+03  0.47609122643E+03  0.16500000000E+03 0.  0.
<mgrwt>
<rscale>  0 0.41847322E+03</rscale>
<asrwt>0</asrwt>
<pdfrwt beam="1">  1        2 0.14886775E+00 0.41847322E+03</pdfrwt>
<pdfrwt beam="2">  1       -2 0.69606217E-02 0.41847322E+03</pdfrwt>
<totfact> 0.32459973E+03</totfact>
</mgrwt>
</event>
<event>
 4    1  0.8984293E-005  0.5029662E+03  0.7818608E-02  0.1013008E+00
         -2   -1    0    0    0  501 -0.00000000000E+00  0.00000000000E+00  0.92235981255E+02  0.92235981290E+02  0.25500000000E-02 0. -1.
          2   -1    0    0  501    0  0.00000000000E+00 -0.00000000000E+00 -0.68567337921E+03  0.68567337921E+03  0.25500000000E-02 0.  1.
    5000001    1    1    2    0    0  0.55420599241E+02 -0.18011255529E+03 -0.33153643911E+03  0.41551580698E+03  0.16500000000E+03 0.  0.
   -5000001    1    1    2    0    0 -0.55420599241E+02  0.18011255529E+03 -0.26190095885E+03  0.36239355352E+03  0.16500000000E+03 0.  0.
<mgrwt>
<rscale>  0 0.50296623E+03</rscale>
<asrwt>0</asrwt>
<pdfrwt beam="1">  1        2 0.10548821E+00 0.50296623E+03</pdfrwt>
<pdfrwt beam="2">  1       -2 0.14190151E-01 0.50296623E+03</pdfrwt>
<totfact> 0.16197176E+03</totfact>
</mgrwt>
</event>
<event>
 4    1  0.8984293E-005  0.5322308E+03  0.7818608E-02  0.1005693E+00
         -2   -1    0    0    0  501 -0.00000000000E+00  0.00000000000E+00  0.18875263795E+03  0.18875263797E+03  0.25500000000E-02 0. -1.
          2   -1    0    0  501    0  0.00000000000E+00 -0.00000000000E+00 -0.37518633618E+03  0.37518633619E+03  0.25500000000E-02 0.  1.
    5000001    1    1    2    0    0  0.84886887281E+00 -0.20408919107E+03 -0.13987781424E+03  0.29739522761E+03  0.16500000000E+03 0.  0.
   -5000001    1    1    2    0    0 -0.84886887281E+00  0.20408919107E+03 -0.46555883996E+02  0.26654374655E+03  0.16500000000E+03 0.  0.
<mgrwt>
<rscale>  0 0.53223082E+03</rscale>
<asrwt>0</asrwt>
<pdfrwt beam="1">  1        2 0.57720975E-01 0.53223082E+03</pdfrwt>
<pdfrwt beam="2">  1       -2 0.29038868E-01 0.53223082E+03</pdfrwt>
<totfact> 0.93360840E+02</totfact>
</mgrwt>
</event>
<event>
 4    1  0.8984293E-005  0.6746878E+03  0.7818608E-02  0.9761526E-01
         -2   -1    0    0    0  501 -0.00000000000E+00  0.00000000000E+00  0.92214550093E+02  0.92214550128E+02  0.25500000000E-02 0. -1.
          2   -1    0    0  501    0  0.00000000000E+00 -0.00000000000E+00 -0.12340882826E+04  0.12340882826E+04  0.25500000000E-02 0.  1.
    5000001    1    1    2    0    0 -0.76452819394E+02 -0.27420975544E+03 -0.71725216377E+03  0.78912083358E+03  0.16500000000E+03 0.  0.
   -5000001    1    1    2    0    0  0.76452819394E+02  0.27420975544E+03 -0.42462156876E+03  0.53718199916E+03  0.16500000000E+03 0.  0.
<mgrwt>
<rscale>  0 0.67468777E+03</rscale>
<asrwt>0</asrwt>
<pdfrwt beam="1">  1        2 0.18985972E+00 0.67468777E+03</pdfrwt>
<pdfrwt beam="2">  1       -2 0.14186855E-01 0.67468777E+03</pdfrwt>
<totfact> 0.70325757E+02</totfact>
</mgrwt>
</event>
<event>
 4    1  0.8984293E-005  0.5385583E+03  0.7818608E-02  0.1004177E+00
          2   -1    0    0  501    0  0.00000000000E+00  0.00000000000E+00  0.29109320301E+04  0.29109320301E+04  0.25500000000E-02 0.  1.
         -2   -1    0    0    0  501 -0.00000000000E+00 -0.00000000000E+00 -0.24909978065E+02  0.24909978195E+02  0.25500000000E-02 0. -1.
    5000001    1    1    2    0    0  0.20190353938E+03  0.42893609957E+02  0.11607331034E+04  0.11904332146E+04  0.16500000000E+03 0.  0.
   -5000001    1    1    2    0    0 -0.20190353938E+03 -0.42893609957E+02  0.17252889486E+04  0.17454087937E+04  0.16500000000E+03 0.  0.
<mgrwt>
<rscale>  0 0.53855827E+03</rscale>
<asrwt>0</asrwt>
<pdfrwt beam="1">  1        2 0.44783564E+00 0.53855827E+03</pdfrwt>
<pdfrwt beam="2">  1       -2 0.38323048E-02 0.53855827E+03</pdfrwt>
<totfact> 0.66204468E+02</totfact>
</mgrwt>
</event>
<event>
 4    1  0.8984293E-005  0.6072929E+03  0.7818608E-02  0.9890390E-01
         -2   -1    0    0    0  501 -0.00000000000E+00  0.00000000000E+00  0.27087388629E+02  0.27087388749E+02  0.25500000000E-02 0. -1.
          2   -1    0    0  501    0  0.00000000000E+00 -0.00000000000E+00 -0.34038412653E+04  0.34038412653E+04  0.25500000000E-02 0.  1.
    5000001    1    1    2    0    0  0.60166646489E+02  0.19336945139E+03 -0.81380253208E+03  0.85469955616E+03  0.16500000000E+03 0.  0.
   -5000001    1    1    2    0    0 -0.60166646489E+02 -0.19336945139E+03 -0.25629513446E+04  0.25762290979E+04  0.16500000000E+03 0.  0.
<mgrwt>
<rscale>  0 0.60729292E+03</rscale>
<asrwt>0</asrwt>
<pdfrwt beam="1">  1        2 0.52366755E+00 0.60729292E+03</pdfrwt>
<pdfrwt beam="2">  1       -2 0.41672933E-02 0.60729292E+03</pdfrwt>
<totfact> 0.28326119E+02</totfact>
</mgrwt>
</event>
<event>
 4    1  0.8984293E-005  0.4689259E+03  0.7818608E-02  0.1022224E+00
         -2   -1    0    0    0  501 -0.00000000000E+00  0.00000000000E+00  0.10263974112E+03  0.10263974116E+03  0.25500000000E-02 0. -1.
          2   -1    0    0  501    0  0.00000000000E+00 -0.00000000000E+00 -0.53559049756E+03  0.53559049757E+03  0.25500000000E-02 0.  1.
    5000001    1    1    2    0    0 -0.12441267293E+03 -0.11076022458E+03 -0.21815862330E+03  0.32025696785E+03  0.16500000000E+03 0.  0.
   -5000001    1    1    2    0    0  0.12441267293E+03  0.11076022458E+03 -0.21479213313E+03  0.31797327087E+03  0.16500000000E+03 0.  0.
<mgrwt>
<rscale>  0 0.46892588E+03</rscale>
<asrwt>0</asrwt>
<pdfrwt beam="1">  1        2 0.82398536E-01 0.46892588E+03</pdfrwt>
<pdfrwt beam="2">  1       -2 0.15790730E-01 0.46892588E+03</pdfrwt>
<totfact> 0.18182850E+03</totfact>
</mgrwt>
</event>
<event>
 4    1  0.8984293E-005  0.4191329E+03  0.7818608E-02  0.1037349E+00
          2   -1    0    0  501    0  0.00000000000E+00  0.00000000000E+00  0.36865926268E+03  0.36865926269E+03  0.25500000000E-02 0.  1.
         -2   -1    0    0    0  501 -0.00000000000E+00 -0.00000000000E+00 -0.11912923330E+03  0.11912923333E+03  0.25500000000E-02 0. -1.
    5000001    1    1    2    0    0  0.10938267310E+03  0.30634424928E+02  0.19641279604E+03  0.28054593851E+03  0.16500000000E+03 0.  0.
   -5000001    1    1    2    0    0 -0.10938267310E+03 -0.30634424928E+02  0.53117233339E+02  0.20724255751E+03  0.16500000000E+03 0.  0.
<mgrwt>
<rscale>  0 0.41913289E+03</rscale>
<asrwt>0</asrwt>
<pdfrwt beam="1">  1        2 0.56716809E-01 0.41913289E+03</pdfrwt>
<pdfrwt beam="2">  1       -2 0.18327574E-01 0.41913289E+03</pdfrwt>
<totfact> 0.21461843E+03</totfact>
</mgrwt>
</event>
<event>
 4    1  0.8984293E-005  0.3922498E+03  0.7818608E-02  0.1046497E+00
          2   -1    0    0  501    0  0.00000000000E+00  0.00000000000E+00  0.21824273744E+03  0.21824273745E+03  0.25500000000E-02 0.  1.
         -2   -1    0    0    0  501 -0.00000000000E+00 -0.00000000000E+00 -0.17624857421E+03  0.17624857423E+03  0.25500000000E-02 0. -1.
    5000001    1    1    2    0    0 -0.85256939646E+02 -0.51551788214E+02  0.57448355075E+02  0.20112594593E+03  0.16500000000E+03 0.  0.
   -5000001    1    1    2    0    0  0.85256939646E+02  0.51551788214E+02 -0.15454191853E+02  0.19336536575E+03  0.16500000000E+03 0.  0.
<mgrwt>
<rscale>  0 0.39224977E+03</rscale>
<asrwt>0</asrwt>
<pdfrwt beam="1">  1        2 0.33575806E-01 0.39224977E+03</pdfrwt>
<pdfrwt beam="2">  1       -2 0.27115165E-01 0.39224977E+03</pdfrwt>
<totfact> 0.19153412E+03</totfact>
</mgrwt>
</event>
<event>
 4    1  0.8984293E-005  0.4675526E+03  0.7818608E-02  0.1022613E+00
         -2   -1    0    0    0  501 -0.00000000000E+00  0.00000000000E+00  0.11679072725E+03  0.11679072728E+03  0.25500000000E-02 0. -1.
          2   -1    0    0  501    0  0.00000000000E+00 -0.00000000000E+00 -0.46794267213E+03  0.46794267214E+03  0.25500000000E-02 0.  1.
    5000001    1    1    2    0    0  0.12531402602E+03 -0.93109288921E+02 -0.24468275692E+03  0.33386763296E+03  0.16500000000E+03 0.  0.
   -5000001    1    1    2    0    0 -0.12531402602E+03  0.93109288921E+02 -0.10646918795E+03  0.25086576647E+03  0.16500000000E+03 0.  0.
<mgrwt>
<rscale>  0 0.46755263E+03</rscale>
<asrwt>0</asrwt>
<pdfrwt beam="1">  1        2 0.71991180E-01 0.46755263E+03</pdfrwt>
<pdfrwt beam="2">  1       -2 0.17967804E-01 0.46755263E+03</pdfrwt>
<totfact> 0.17042974E+03</totfact>
</mgrwt>
</event>
<event>
 4    1  0.8984293E-005  0.4341140E+03  0.7818608E-02  0.1032568E+00
          2   -1    0    0  501    0  0.00000000000E+00  0.00000000000E+00  0.38284308688E+03  0.38284308689E+03  0.25500000000E-02 0.  1.
         -2   -1    0    0    0  501 -0.00000000000E+00 -0.00000000000E+00 -0.12306277758E+03  0.12306277760E+03  0.25500000000E-02 0. -1.
    5000001    1    1    2    0    0  0.16465421619E+02 -0.94348878685E+02  0.25052715756E+03  0.31489947236E+03  0.16500000000E+03 0.  0.
   -5000001    1    1    2    0    0 -0.16465421619E+02  0.94348878685E+02  0.92531517443E+01  0.19100639213E+03  0.16500000000E+03 0.  0.
<mgrwt>
<rscale>  0 0.43411397E+03</rscale>
<asrwt>0</asrwt>
<pdfrwt beam="1">  1        2 0.58898935E-01 0.43411397E+03</pdfrwt>
<pdfrwt beam="2">  1       -2 0.18932735E-01 0.43411397E+03</pdfrwt>
<totfact> 0.19480308E+03</totfact>
</mgrwt>
</event>
<event>
 4    1  0.8984293E-005  0.3795976E+03  0.7818608E-02  0.1051083E+00
          2   -1    0    0  501    0  0.00000000000E+00  0.00000000000E+00  0.25594775920E+03  0.25594775921E+03  0.25500000000E-02 0.  1.
         -2   -1    0    0    0  501 -0.00000000000E+00 -0.00000000000E+00 -0.14074582696E+03  0.14074582698E+03  0.25500000000E-02 0. -1.
    5000001    1    1    2    0    0  0.82818272515E+02 -0.64391697848E+01  0.10313209754E+03  0.21156927639E+03  0.16500000000E+03 0.  0.
   -5000001    1    1    2    0    0 -0.82818272515E+02  0.64391697848E+01  0.12069834699E+02  0.18512430980E+03  0.16500000000E+03 0.  0.
<mgrwt>
<rscale>  0 0.37959757E+03</rscale>
<asrwt>0</asrwt>
<pdfrwt beam="1">  1        2 0.39376578E-01 0.37959757E+03</pdfrwt>
<pdfrwt beam="2">  1       -2 0.21653204E-01 0.37959757E+03</pdfrwt>
<totfact> 0.23941923E+03</totfact>
</mgrwt>
</event>
<event>
 4    1  0.8984293E-005  0.7052659E+03  0.7818608E-02  0.9708269E-01
          2   -1    0    0  501    0  0.00000000000E+00  0.00000000000E+00  0.43098115415E+03  0.43098115416E+03  0.25500000000E-02 0.  1.
         -2   -1    0    0    0  501 -0.00000000000E+00 -0.00000000000E+00 -0.28852768567E+03  0.28852768568E+03  0.25500000000E-02 0. -1.
    5000001    1    1    2    0    0 -0.27500429164E+03  0.13330331550E+03  0.89374864381E+01  0.34742195240E+03  0.16500000000E+03 0.  0.
   -5000001    1    1    2    0    0  0.27500429164E+03 -0.13330331550E+03  0.13351598204E+03  0.37208688744E+03  0.16500000000E+03 0.  0.
<mgrwt>
<rscale>  0 0.70526589E+03</rscale>
<asrwt>0</asrwt>
<pdfrwt beam="1">  1        2 0.66304793E-01 0.70526589E+03</pdfrwt>
<pdfrwt beam="2">  1       -2 0.44388875E-01 0.70526589E+03</pdfrwt>
<totfact> 0.35467524E+02</totfact>
</mgrwt>
</event>
<event>
 4    1  0.8984293E-005  0.3853313E+03  0.7818608E-02  0.1048981E+00
          2   -1    0    0  501    0  0.00000000000E+00  0.00000000000E+00  0.47099114551E+03  0.47099114552E+03  0.25500000000E-02 0.  1.
         -2   -1    0    0    0  501 -0.00000000000E+00 -0.00000000000E+00 -0.78812620688E+02  0.78812620729E+02  0.25500000000E-02 0. -1.
    5000001    1    1    2    0    0 -0.63302966744E+02  0.37841862069E+02  0.10084582624E+03  0.20696413407E+03  0.16500000000E+03 0.  0.
   -5000001    1    1    2    0    0  0.63302966744E+02 -0.37841862069E+02  0.29133269859E+03  0.34283963218E+03  0.16500000000E+03 0.  0.
<mgrwt>
<rscale>  0 0.38533127E+03</rscale>
<asrwt>0</asrwt>
<pdfrwt beam="1">  1        2 0.72460177E-01 0.38533127E+03</pdfrwt>
<pdfrwt beam="2">  1       -2 0.12125018E-01 0.38533127E+03</pdfrwt>
<totfact> 0.32547189E+03</totfact>
</mgrwt>
</event>
<event>
 4    1  0.8984293E-005  0.1690376E+04  0.7818608E-02  0.8766872E-01
          2   -1    0    0  501    0  0.00000000000E+00  0.00000000000E+00  0.26973994017E+04  0.26973994017E+04  0.25500000000E-02 0.  1.
         -2   -1    0    0    0  501 -0.00000000000E+00 -0.00000000000E+00 -0.26482661348E+03  0.26482661349E+03  0.25500000000E-02 0. -1.
    5000001    1    1    2    0    0 -0.38048093794E+03 -0.72665931678E+03  0.14259802326E+04  0.16533130770E+04  0.16500000000E+03 0.  0.
   -5000001    1    1    2    0    0  0.38048093794E+03  0.72665931678E+03  0.10065925557E+04  0.13089129383E+04  0.16500000000E+03 0.  0.
<mgrwt>
<rscale>  0 0.16903765E+04</rscale>
<asrwt>0</asrwt>
<pdfrwt beam="1">  1        2 0.41498451E+00 0.16903765E+04</pdfrwt>
<pdfrwt beam="2">  1       -2 0.40742557E-01 0.16903765E+04</pdfrwt>
<totfact> 0.14516717E+01</totfact>
</mgrwt>
</event>
<event>
 4    1  0.8984293E-005  0.4704406E+03  0.7818608E-02  0.1021796E+00
         -2   -1    0    0    0  501 -0.00000000000E+00  0.00000000000E+00  0.72308033184E+03  0.72308033185E+03  0.25500000000E-02 0. -1.
          2   -1    0    0  501    0  0.00000000000E+00 -0.00000000000E+00 -0.76517909461E+02  0.76517909503E+02  0.25500000000E-02 0.  1.
    5000001    1    1    2    0    0  0.37805639121E+02  0.13932245778E+03  0.17842323021E+03  0.28266563758E+03  0.16500000000E+03 0.  0.
   -5000001    1    1    2    0    0 -0.37805639121E+02 -0.13932245778E+03  0.46813919217E+03  0.51693260377E+03  0.16500000000E+03 0.  0.
<mgrwt>
<rscale>  0 0.47044062E+03</rscale>
<asrwt>0</asrwt>
<pdfrwt beam="1">  1        2 0.11771986E-01 0.47044062E+03</pdfrwt>
<pdfrwt beam="2">  1       -2 0.11124312E+00 0.47044062E+03</pdfrwt>
<totfact> 0.34987395E+02</totfact>
</mgrwt>
</event>
<event>
 4    1  0.8984293E-005  0.4572648E+03  0.7818608E-02  0.1025577E+00
          2   -1    0    0  501    0  0.00000000000E+00  0.00000000000E+00  0.37548202722E+03  0.37548202723E+03  0.25500000000E-02 0.  1.
         -2   -1    0    0    0  501 -0.00000000000E+00 -0.00000000000E+00 -0.13921512051E+03  0.13921512053E+03  0.25500000000E-02 0. -1.
    5000001    1    1    2    0    0 -0.24124300986E+02  0.14614577094E+03  0.18087700627E+03  0.28615041440E+03  0.16500000000E+03 0.  0.
   -5000001    1    1    2    0    0  0.24124300986E+02 -0.14614577094E+03  0.55389900438E+02  0.22854673337E+03  0.16500000000E+03 0.  0.
<mgrwt>
<rscale>  0 0.45726481E+03</rscale>
<asrwt>0</asrwt>
<pdfrwt beam="1">  1        2 0.57766465E-01 0.45726481E+03</pdfrwt>
<pdfrwt beam="2">  1       -2 0.21417711E-01 0.45726481E+03</pdfrwt>
<totfact> 0.16078783E+03</totfact>
</mgrwt>
</event>
<event>
 4    1  0.8984293E-005  0.4333807E+03  0.7818608E-02  0.1032797E+00
         -2   -1    0    0    0  501 -0.00000000000E+00  0.00000000000E+00  0.15435202347E+03  0.15435202349E+03  0.25500000000E-02 0. -1.
          2   -1    0    0  501    0  0.00000000000E+00 -0.00000000000E+00 -0.30420530799E+03  0.30420530800E+03  0.25500000000E-02 0.  1.
    5000001    1    1    2    0    0 -0.89988236071E+02  0.10732966919E+03 -0.86132664041E+02  0.23294071420E+03  0.16500000000E+03 0.  0.
   -5000001    1    1    2    0    0  0.89988236071E+02 -0.10732966919E+03 -0.63720620482E+02  0.22561661728E+03  0.16500000000E+03 0.  0.
<mgrwt>
<rscale>  0 0.43338069E+03</rscale>
<asrwt>0</asrwt>
<pdfrwt beam="1">  1        2 0.46800816E-01 0.43338069E+03</pdfrwt>
<pdfrwt beam="2">  1       -2 0.23746465E-01 0.43338069E+03</pdfrwt>
<totfact> 0.16888692E+03</totfact>
</mgrwt>
</event>
<event>
 4    1  0.8984293E-005  0.5013231E+03  0.7818608E-02  0.1013434E+00
         -2   -1    0    0    0  501 -0.00000000000E+00  0.00000000000E+00  0.37686426949E+02  0.37686427036E+02  0.25500000000E-02 0. -1.
          2   -1    0    0  501    0  0.00000000000E+00 -0.00000000000E+00 -0.16672104607E+04  0.16672104607E+04  0.25500000000E-02 0.  1.
    5000001    1    1    2    0    0  0.24640265925E+01  0.12580546284E+03 -0.33655271308E+03  0.39538059461E+03  0.16500000000E+03 0.  0.
   -5000001    1    1    2    0    0 -0.24640265925E+01 -0.12580546284E+03 -0.12929713206E+04  0.13095162931E+04  0.16500000000E+03 0.  0.
<mgrwt>
<rscale>  0 0.50132307E+03</rscale>
<asrwt>0</asrwt>
<pdfrwt beam="1">  1        2 0.25649386E+00 0.50132307E+03</pdfrwt>
<pdfrwt beam="2">  1       -2 0.57979131E-02 0.50132307E+03</pdfrwt>
<totfact> 0.17173636E+03</totfact>
</mgrwt>
</event>
<event>
 4    1  0.8984293E-005  0.1334948E+04  0.7818608E-02  0.9002301E-01
          2   -1    0    0  501    0  0.00000000000E+00  0.00000000000E+00  0.20637724203E+04  0.20637724203E+04  0.25500000000E-02 0.  1.
         -2   -1    0    0    0  501 -0.00000000000E+00 -0.00000000000E+00 -0.21587714737E+03  0.21587714739E+03  0.25500000000E-02 0. -1.
    5000001    1    1    2    0    0 -0.63951012817E+03  0.17596567653E+02  0.10860724984E+04  0.12712440029E+04  0.16500000000E+03 0.  0.
   -5000001    1    1    2    0    0  0.63951012817E+03 -0.17596567653E+02  0.76182277458E+03  0.10084055648E+04  0.16500000000E+03 0.  0.
<mgrwt>
<rscale>  0 0.13349476E+04</rscale>
<asrwt>0</asrwt>
<pdfrwt beam="1">  1        2 0.31750344E+00 0.13349476E+04</pdfrwt>
<pdfrwt beam="2">  1       -2 0.33211870E-01 0.13349476E+04</pdfrwt>
<totfact> 0.51021675E+01</totfact>
</mgrwt>
</event>
<event>
 4    1  0.8984293E-005  0.4922254E+03  0.7818608E-02  0.1015828E+00
         -2   -1    0    0    0  501 -0.00000000000E+00  0.00000000000E+00  0.43830043155E+02  0.43830043229E+02  0.25500000000E-02 0. -1.
          2   -1    0    0  501    0  0.00000000000E+00 -0.00000000000E+00 -0.13819620672E+04  0.13819620672E+04  0.25500000000E-02 0.  1.
    5000001    1    1    2    0    0 -0.16775505603E+03 -0.65085713335E+02 -0.75921333161E+03  0.79750096664E+03  0.16500000000E+03 0.  0.
   -5000001    1    1    2    0    0  0.16775505603E+03  0.65085713335E+02 -0.57891869239E+03  0.62829114374E+03  0.16500000000E+03 0.  0.
<mgrwt>
<rscale>  0 0.49222538E+03</rscale>
<asrwt>0</asrwt>
<pdfrwt beam="1">  1        2 0.21260952E+00 0.49222538E+03</pdfrwt>
<pdfrwt beam="2">  1       -2 0.67430846E-02 0.49222538E+03</pdfrwt>
<totfact> 0.19441641E+03</totfact>
</mgrwt>
</event>
<event>
 4    1  0.8984293E-005  0.5625629E+03  0.7818608E-02  0.9986272E-01
         -2   -1    0    0    0  501 -0.00000000000E+00  0.00000000000E+00  0.40767826126E+02  0.40767826206E+02  0.25500000000E-02 0. -1.
          2   -1    0    0  501    0  0.00000000000E+00 -0.00000000000E+00 -0.19407275770E+04  0.19407275770E+04  0.25500000000E-02 0.  1.
    5000001    1    1    2    0    0  0.50511196203E+02  0.14653625428E+03 -0.15379975932E+04  0.15545693460E+04  0.16500000000E+03 0.  0.
   -5000001    1    1    2    0    0 -0.50511196203E+02 -0.14653625428E+03 -0.36196215772E+03  0.42692605727E+03  0.16500000000E+03 0.  0.
<mgrwt>
<rscale>  0 0.56256287E+03</rscale>
<asrwt>0</asrwt>
<pdfrwt beam="1">  1        2 0.29857340E+00 0.56256287E+03</pdfrwt>
<pdfrwt beam="2">  1       -2 0.62719748E-02 0.56256287E+03</pdfrwt>
<totfact> 0.10780707E+03</totfact>
</mgrwt>
</event>
<event>
 4    1  0.8984293E-005  0.5070173E+03  0.7818608E-02  0.1011963E+00
         -2   -1    0    0    0  501 -0.00000000000E+00  0.00000000000E+00  0.91464046613E+02  0.91464046648E+02  0.25500000000E-02 0. -1.
          2   -1    0    0  501    0  0.00000000000E+00 -0.00000000000E+00 -0.70264376440E+03  0.70264376441E+03  0.25500000000E-02 0.  1.
    5000001    1    1    2    0    0 -0.10525946413E+03  0.16013148813E+03 -0.33360723243E+03  0.41861728800E+03  0.16500000000E+03 0.  0.
   -5000001    1    1    2    0    0  0.10525946413E+03 -0.16013148813E+03 -0.27757248535E+03  0.37549052306E+03  0.16500000000E+03 0.  0.
<mgrwt>
<rscale>  0 0.50701733E+03</rscale>
<asrwt>0</asrwt>
<pdfrwt beam="1">  1        2 0.10809904E+00 0.50701733E+03</pdfrwt>
<pdfrwt beam="2">  1       -2 0.14071392E-01 0.50701733E+03</pdfrwt>
<totfact> 0.15934396E+03</totfact>
</mgrwt>
</event>
<event>
 4    1  0.8984293E-005  0.3809766E+03  0.7818608E-02  0.1050573E+00
         -2   -1    0    0    0  501 -0.00000000000E+00  0.00000000000E+00  0.45513038415E+02  0.45513038486E+02  0.25500000000E-02 0. -1.
          2   -1    0    0  501    0  0.00000000000E+00 -0.00000000000E+00 -0.79726130775E+03  0.79726130776E+03  0.25500000000E-02 0.  1.
    5000001    1    1    2    0    0  0.31075708103E+02  0.89933251300E+02 -0.38176659187E+03  0.42664319986E+03  0.16500000000E+03 0.  0.
   -5000001    1    1    2    0    0 -0.31075708103E+02 -0.89933251300E+02 -0.36998167747E+03  0.41613114638E+03  0.16500000000E+03 0.  0.
<mgrwt>
<rscale>  0 0.38097656E+03</rscale>
<asrwt>0</asrwt>
<pdfrwt beam="1">  1        2 0.12265558E+00 0.38097656E+03</pdfrwt>
<pdfrwt beam="2">  1       -2 0.70020065E-02 0.38097656E+03</pdfrwt>
<totfact> 0.41713336E+03</totfact>
</mgrwt>
</event>
<event>
 4    1  0.8984293E-005  0.4961839E+03  0.7818608E-02  0.1014780E+00
          2   -1    0    0  501    0  0.00000000000E+00  0.00000000000E+00  0.16702053505E+04  0.16702053505E+04  0.25500000000E-02 0.  1.
         -2   -1    0    0    0  501 -0.00000000000E+00 -0.00000000000E+00 -0.36851531557E+02  0.36851531645E+02  0.25500000000E-02 0. -1.
    5000001    1    1    2    0    0 -0.24992285813E+02  0.18298663496E+03  0.86722839943E+03  0.90189734432E+03  0.16500000000E+03 0.  0.
   -5000001    1    1    2    0    0  0.24992285813E+02 -0.18298663496E+03  0.76612541952E+03  0.80515953783E+03  0.16500000000E+03 0.  0.
<mgrwt>
<rscale>  0 0.49618394E+03</rscale>
<asrwt>0</asrwt>
<pdfrwt beam="1">  1        2 0.25695473E+00 0.49618394E+03</pdfrwt>
<pdfrwt beam="2">  1       -2 0.56694650E-02 0.49618394E+03</pdfrwt>
<totfact> 0.17720315E+03</totfact>
</mgrwt>
</event>
<event>
 4    1  0.8984293E-005  0.5252816E+03  0.7818608E-02  0.1007383E+00
         -2   -1    0    0    0  501 -0.00000000000E+00  0.00000000000E+00  0.13371574283E+03  0.13371574285E+03  0.25500000000E-02 0. -1.
          2   -1    0    0  501    0  0.00000000000E+00 -0.00000000000E+00 -0.51587185965E+03  0.51587185965E+03  0.25500000000E-02 0.  1.
    5000001    1    1    2    0    0 -0.17573571776E+03 -0.59981849343E+02 -0.29655119661E+03  0.38684425413E+03  0.16500000000E+03 0.  0.
   -5000001    1    1    2    0    0  0.17573571776E+03  0.59981849343E+02 -0.85604920212E+02  0.26274334837E+03  0.16500000000E+03 0.  0.
<mgrwt>
<rscale>  0 0.52528160E+03</rscale>
<asrwt>0</asrwt>
<pdfrwt beam="1">  1        2 0.79364900E-01 0.52528160E+03</pdfrwt>
<pdfrwt beam="2">  1       -2 0.20571653E-01 0.52528160E+03</pdfrwt>
<totfact> 0.12071626E+03</totfact>
</mgrwt>
</event>
<event>
 4    1  0.8984293E-005  0.4475069E+03  0.7818608E-02  0.1028468E+00
         -2   -1    0    0    0  501 -0.00000000000E+00  0.00000000000E+00  0.23239763527E+02  0.23239763667E+02  0.25500000000E-02 0. -1.
          2   -1    0    0  501    0  0.00000000000E+00 -0.00000000000E+00 -0.21543074824E+04  0.21543074824E+04  0.25500000000E-02 0.  1.
    5000001    1    1    2    0    0  0.12696826103E+03 -0.81946753085E+02 -0.10757256297E+04  0.10987478510E+04  0.16500000000E+03 0.  0.
   -5000001    1    1    2    0    0 -0.12696826103E+03  0.81946753085E+02 -0.10553420891E+04  0.10787993950E+04  0.16500000000E+03 0.  0.
<mgrwt>
<rscale>  0 0.44750686E+03</rscale>
<asrwt>0</asrwt>
<pdfrwt beam="1">  1        2 0.33143176E+00 0.44750686E+03</pdfrwt>
<pdfrwt beam="2">  1       -2 0.35753499E-02 0.44750686E+03</pdfrwt>
<totfact> 0.19808319E+03</totfact>
</mgrwt>
</event>
<event>
 4    1  0.8984293E-005  0.1305585E+04  0.7818608E-02  0.9025148E-01
         -2   -1    0    0    0  501 -0.00000000000E+00  0.00000000000E+00  0.14005725863E+03  0.14005725865E+03  0.25500000000E-02 0. -1.
          2   -1    0    0  501    0  0.00000000000E+00 -0.00000000000E+00 -0.30425983942E+04  0.30425983942E+04  0.25500000000E-02 0.  1.
    5000001    1    1    2    0    0  0.43608171132E+03 -0.13867704134E+03 -0.25124911115E+04  0.25591473514E+04  0.16500000000E+03 0.  0.
   -5000001    1    1    2    0    0 -0.43608171132E+03  0.13867704134E+03 -0.39005002409E+03  0.62350830150E+03  0.16500000000E+03 0.  0.
<mgrwt>
<rscale>  0 0.13055849E+04</rscale>
<asrwt>0</asrwt>
<pdfrwt beam="1">  1        2 0.46809201E+00 0.13055849E+04</pdfrwt>
<pdfrwt beam="2">  1       -2 0.21547273E-01 0.13055849E+04</pdfrwt>
<totfact> 0.30410467E+01</totfact>
</mgrwt>
</event>
<event>
 4    1  0.8984293E-005  0.1280629E+04  0.7818608E-02  0.9045069E-01
          2   -1    0    0  501    0  0.00000000000E+00  0.00000000000E+00  0.33830423144E+04  0.33830423144E+04  0.25500000000E-02 0.  1.
         -2   -1    0    0    0  501 -0.00000000000E+00 -0.00000000000E+00 -0.12119356626E+03  0.12119356628E+03  0.25500000000E-02 0. -1.
    5000001    1    1    2    0    0  0.22789603181E+01 -0.56682057597E+03  0.95240506518E+03  0.11205316449E+04  0.16500000000E+03 0.  0.
   -5000001    1    1    2    0    0 -0.22789603181E+01  0.56682057597E+03  0.23094436830E+04  0.23837042358E+04  0.16500000000E+03 0.  0.
<mgrwt>
<rscale>  0 0.12806295E+04</rscale>
<asrwt>0</asrwt>
<pdfrwt beam="1">  1        2 0.52046804E+00 0.12806295E+04</pdfrwt>
<pdfrwt beam="2">  1       -2 0.18645164E-01 0.12806295E+04</pdfrwt>
<totfact> 0.23674578E+01</totfact>
</mgrwt>
</event>
<event>
 4    1  0.8984293E-005  0.4016565E+03  0.7818608E-02  0.1043208E+00
          2   -1    0    0  501    0  0.00000000000E+00  0.00000000000E+00  0.11431741334E+03  0.11431741337E+03  0.25500000000E-02 0.  1.
         -2   -1    0    0    0  501 -0.00000000000E+00 -0.00000000000E+00 -0.35280695651E+03  0.35280695652E+03  0.25500000000E-02 0. -1.
    5000001    1    1    2    0    0  0.56778196087E+02  0.50843069380E+02 -0.21859882013E+03  0.28428722345E+03  0.16500000000E+03 0.  0.
   -5000001    1    1    2    0    0 -0.56778196087E+02 -0.50843069380E+02 -0.19890723034E+02  0.18283714644E+03  0.16500000000E+03 0.  0.
<mgrwt>
<rscale>  0 0.40165646E+03</rscale>
<asrwt>0</asrwt>
<pdfrwt beam="1">  1        2 0.17587295E-01 0.40165646E+03</pdfrwt>
<pdfrwt beam="2">  1       -2 0.54277993E-01 0.40165646E+03</pdfrwt>
<totfact> 0.10567474E+03</totfact>
</mgrwt>
</event>
<event>
 4    1  0.8984293E-005  0.6722073E+03  0.7818608E-02  0.9765978E-01
         -2   -1    0    0    0  501 -0.00000000000E+00  0.00000000000E+00  0.34291346868E+03  0.34291346869E+03  0.25500000000E-02 0. -1.
          2   -1    0    0  501    0  0.00000000000E+00 -0.00000000000E+00 -0.32942908487E+03  0.32942908488E+03  0.25500000000E-02 0.  1.
    5000001    1    1    2    0    0  0.15155061775E+03 -0.23575953604E+03 -0.78071810834E+02  0.33447026209E+03  0.16500000000E+03 0.  0.
   -5000001    1    1    2    0    0 -0.15155061775E+03  0.23575953604E+03  0.91556194646E+02  0.33787229148E+03  0.16500000000E+03 0.  0.
<mgrwt>
<rscale>  0 0.67220732E+03</rscale>
<asrwt>0</asrwt>
<pdfrwt beam="1">  1        2 0.50681398E-01 0.67220732E+03</pdfrwt>
<pdfrwt beam="2">  1       -2 0.52755918E-01 0.67220732E+03</pdfrwt>
<totfact> 0.33840021E+02</totfact>
</mgrwt>
</event>
<event>
 4    1  0.8984293E-005  0.5616911E+03  0.7818608E-02  0.9988235E-01
         -2   -1    0    0    0  501 -0.00000000000E+00  0.00000000000E+00  0.10325886880E+03  0.10325886884E+03  0.25500000000E-02 0. -1.
          2   -1    0    0  501    0  0.00000000000E+00 -0.00000000000E+00 -0.76384937686E+03  0.76384937687E+03  0.25500000000E-02 0.  1.
    5000001    1    1    2    0    0 -0.14871930227E+03  0.16454828951E+03 -0.40679486016E+03  0.49183394424E+03  0.16500000000E+03 0.  0.
   -5000001    1    1    2    0    0  0.14871930227E+03 -0.16454828951E+03 -0.25379564789E+03  0.37527430147E+03  0.16500000000E+03 0.  0.
<mgrwt>
<rscale>  0 0.56169110E+03</rscale>
<asrwt>0</asrwt>
<pdfrwt beam="1">  1        2 0.11751529E+00 0.56169110E+03</pdfrwt>
<pdfrwt beam="2">  1       -2 0.15885980E-01 0.56169110E+03</pdfrwt>
<totfact> 0.11686004E+03</totfact>
</mgrwt>
</event>
<event>
 4    1  0.8984293E-005  0.3633660E+03  0.7818608E-02  0.1057259E+00
          2   -1    0    0  501    0  0.00000000000E+00  0.00000000000E+00  0.26278921000E+03  0.26278921001E+03  0.25500000000E-02 0.  1.
         -2   -1    0    0    0  501 -0.00000000000E+00 -0.00000000000E+00 -0.12560909826E+03  0.12560909829E+03  0.25500000000E-02 0. -1.
    5000001    1    1    2    0    0 -0.64783386610E+02 -0.39403068757E+02  0.62336665624E+02  0.19199049166E+03  0.16500000000E+03 0.  0.
   -5000001    1    1    2    0    0  0.64783386610E+02  0.39403068757E+02  0.74843446110E+02  0.19640781663E+03  0.16500000000E+03 0.  0.
<mgrwt>
<rscale>  0 0.36336602E+03</rscale>
<asrwt>0</asrwt>
<pdfrwt beam="1">  1        2 0.40429109E-01 0.36336602E+03</pdfrwt>
<pdfrwt beam="2">  1       -2 0.19324477E-01 0.36336602E+03</pdfrwt>
<totfact> 0.28299053E+03</totfact>
</mgrwt>
</event>
<event>
 4    1  0.8984293E-005  0.4340360E+03  0.7818608E-02  0.1032593E+00
         -2   -1    0    0    0  501 -0.00000000000E+00  0.00000000000E+00  0.38211120124E+02  0.38211120209E+02  0.25500000000E-02 0. -1.
          2   -1    0    0  501    0  0.00000000000E+00 -0.00000000000E+00 -0.12325419114E+04  0.12325419114E+04  0.25500000000E-02 0.  1.
    5000001    1    1    2    0    0  0.13204903845E+03 -0.39202491622E+02 -0.50942911886E+03  0.55291664023E+03  0.16500000000E+03 0.  0.
   -5000001    1    1    2    0    0 -0.13204903845E+03  0.39202491622E+02 -0.68490167241E+03  0.71783639137E+03  0.16500000000E+03 0.  0.
<mgrwt>
<rscale>  0 0.43403598E+03</rscale>
<asrwt>0</asrwt>
<pdfrwt beam="1">  1        2 0.18962180E+00 0.43403598E+03</pdfrwt>
<pdfrwt beam="2">  1       -2 0.58786348E-02 0.43403598E+03</pdfrwt>
<totfact> 0.29287973E+03</totfact>
</mgrwt>
</event>
<event>
 4    1  0.8984293E-005  0.4157828E+03  0.7818608E-02  0.1038448E+00
          2   -1    0    0  501    0  0.00000000000E+00  0.00000000000E+00  0.36202228854E+03  0.36202228855E+03  0.25500000000E-02 0.  1.
         -2   -1    0    0    0  501 -0.00000000000E+00 -0.00000000000E+00 -0.11938167588E+03  0.11938167591E+03  0.25500000000E-02 0. -1.
    5000001    1    1    2    0    0 -0.10781042850E+03 -0.13310953934E+02  0.46342197978E+02  0.20291098861E+03  0.16500000000E+03 0.  0.
   -5000001    1    1    2    0    0  0.10781042850E+03  0.13310953934E+02  0.19629841468E+03  0.27849297584E+03  0.16500000000E+03 0.  0.
<mgrwt>
<rscale>  0 0.41578277E+03</rscale>
<asrwt>0</asrwt>
<pdfrwt beam="1">  1        2 0.55695736E-01 0.41578277E+03</pdfrwt>
<pdfrwt beam="2">  1       -2 0.18366412E-01 0.41578277E+03</pdfrwt>
<totfact> 0.21813784E+03</totfact>
</mgrwt>
</event>
<event>
 4    1  0.8984293E-005  0.4535606E+03  0.7818608E-02  0.1026666E+00
         -2   -1    0    0    0  501 -0.00000000000E+00  0.00000000000E+00  0.53860834285E+02  0.53860834346E+02  0.25500000000E-02 0.  1.
          2   -1    0    0  501    0  0.00000000000E+00 -0.00000000000E+00 -0.95485516912E+03  0.95485516912E+03  0.25500000000E-02 0. -1.
    5000001    1    1    2    0    0  0.56636099243E+02  0.10215097335E+03 -0.67905870530E+03  0.70851125209E+03  0.16500000000E+03 0.  0.
   -5000001    1    1    2    0    0 -0.56636099243E+02 -0.10215097335E+03 -0.22193562953E+03  0.30020475137E+03  0.16500000000E+03 0.  0.
<mgrwt>
<rscale>  0 0.45356056E+03</rscale>
<asrwt>0</asrwt>
<pdfrwt beam="1">  1        2 0.14690078E+00 0.45356056E+03</pdfrwt>
<pdfrwt beam="2">  1       -2 0.82862829E-02 0.45356056E+03</pdfrwt>
<totfact> 0.25130559E+03</totfact>
</mgrwt>
</event>
<event>
 4    1  0.8984293E-005  0.6399516E+03  0.7818608E-02  0.9825819E-01
         -2   -1    0    0    0  501 -0.00000000000E+00  0.00000000000E+00  0.41651813639E+02  0.41651813717E+02  0.25500000000E-02 0. -1.
          2   -1    0    0  501    0  0.00000000000E+00 -0.00000000000E+00 -0.24581048115E+04  0.24581048115E+04  0.25500000000E-02 0.  1.
    5000001    1    1    2    0    0  0.11150592185E+03  0.18016579203E+03 -0.18877896384E+04  0.19067952176E+04  0.16500000000E+03 0.  0.
   -5000001    1    1    2    0    0 -0.11150592185E+03 -0.18016579203E+03 -0.52866335946E+03  0.59296140756E+03  0.16500000000E+03 0.  0.
<mgrwt>
<rscale>  0 0.63995163E+03</rscale>
<asrwt>0</asrwt>
<pdfrwt beam="1">  1        2 0.37816986E+00 0.63995163E+03</pdfrwt>
<pdfrwt beam="2">  1       -2 0.64079733E-02 0.63995163E+03</pdfrwt>
<totfact> 0.53918398E+02</totfact>
</mgrwt>
</event>
<event>
 4    1  0.8984293E-005  0.6329221E+03  0.7818608E-02  0.9839363E-01
         -2   -1    0    0    0  501 -0.00000000000E+00  0.00000000000E+00  0.62871587403E+02  0.62871587455E+02  0.25500000000E-02 0. -1.
          2   -1    0    0  501    0  0.00000000000E+00 -0.00000000000E+00 -0.15928909901E+04  0.15928909901E+04  0.25500000000E-02 0.  1.
    5000001    1    1    2    0    0  0.82498117941E+02  0.11029233732E+03 -0.13726584260E+04  0.13893834941E+04  0.16500000000E+03 0.  0.
   -5000001    1    1    2    0    0 -0.82498117941E+02 -0.11029233732E+03 -0.15736097672E+03  0.26637908351E+03  0.16500000000E+03 0.  0.
<mgrwt>
<rscale>  0 0.63292207E+03</rscale>
<asrwt>0</asrwt>
<pdfrwt beam="1">  1        2 0.24506012E+00 0.63292207E+03</pdfrwt>
<pdfrwt beam="2">  1       -2 0.96725531E-02 0.63292207E+03</pdfrwt>
<totfact> 0.83179810E+02</totfact>
</mgrwt>
</event>
<event>
 4    1  0.8984293E-005  0.5500756E+03  0.7818608E-02  0.1001476E+00
         -2   -1    0    0    0  501 -0.00000000000E+00  0.00000000000E+00  0.14937758105E+03  0.14937758108E+03  0.25500000000E-02 0. -1.
          2   -1    0    0  501    0  0.00000000000E+00 -0.00000000000E+00 -0.50640654893E+03  0.50640654894E+03  0.25500000000E-02 0.  1.
    5000001    1    1    2    0    0  0.17770165354E+03  0.75674826562E+02 -0.30420927117E+03  0.39632415736E+03  0.16500000000E+03 0.  0.
   -5000001    1    1    2    0    0 -0.17770165354E+03 -0.75674826562E+02 -0.52819696712E+02  0.25945997265E+03  0.16500000000E+03 0.  0.
<mgrwt>
<rscale>  0 0.55007558E+03</rscale>
<asrwt>0</asrwt>
<pdfrwt beam="1">  1        2 0.77908699E-01 0.55007558E+03</pdfrwt>
<pdfrwt beam="2">  1       -2 0.22981167E-01 0.55007558E+03</pdfrwt>
<totfact> 0.10148592E+03</totfact>
</mgrwt>
</event>
<event>
 4    1  0.8984293E-005  0.7434634E+03  0.7818608E-02  0.9645661E-01
          2   -1    0    0  501    0  0.00000000000E+00  0.00000000000E+00  0.17842833794E+04  0.17842833794E+04  0.25500000000E-02 0. -1.
         -2   -1    0    0    0  501 -0.00000000000E+00 -0.00000000000E+00 -0.77445363517E+02  0.77445363559E+02  0.25500000000E-02 0.  1.
    5000001    1    1    2    0    0 -0.84430418815E+02  0.15218838431E+03  0.15646520677E+04  0.15829247907E+04  0.16500000000E+03 0.  0.
   -5000001    1    1    2    0    0  0.84430418815E+02 -0.15218838431E+03  0.14218594813E+03  0.27880395224E+03  0.16500000000E+03 0.  0.
<mgrwt>
<rscale>  0 0.74346345E+03</rscale>
<asrwt>0</asrwt>
<pdfrwt beam="1">  1        2 0.27450509E+00 0.74346345E+03</pdfrwt>
<pdfrwt beam="2">  1       -2 0.11914673E-01 0.74346345E+03</pdfrwt>
<totfact> 0.46188587E+02</totfact>
</mgrwt>
</event>
<event>
 4    1  0.8984293E-005  0.8424676E+03  0.7818608E-02  0.9500503E-01
         -2   -1    0    0    0  501 -0.00000000000E+00  0.00000000000E+00  0.55229911148E+02  0.55229911207E+02  0.25500000000E-02 0.  1.
          2   -1    0    0  501    0  0.00000000000E+00 -0.00000000000E+00 -0.32127137240E+04  0.32127137240E+04  0.25500000000E-02 0. -1.
    5000001    1    1    2    0    0  0.12695991594E+03  0.36585706099E+03 -0.15183133518E+04  0.15755858097E+04  0.16500000000E+03 0.  0.
   -5000001    1    1    2    0    0 -0.12695991594E+03 -0.36585706099E+03 -0.16391704611E+04  0.16923578256E+04  0.16500000000E+03 0.  0.
<mgrwt>
<rscale>  0 0.84246755E+03</rscale>
<asrwt>0</asrwt>
<pdfrwt beam="1">  1        2 0.49426350E+00 0.84246755E+03</pdfrwt>
<pdfrwt beam="2">  1       -2 0.84969119E-02 0.84246755E+03</pdfrwt>
<totfact> 0.11952384E+02</totfact>
</mgrwt>
</event>
<event>
 4    1  0.8984293E-005  0.4943120E+03  0.7818608E-02  0.1015274E+00
         -2   -1    0    0    0  501 -0.00000000000E+00  0.00000000000E+00  0.76687889174E+02  0.76687889217E+02  0.25500000000E-02 0. -1.
          2   -1    0    0  501    0  0.00000000000E+00 -0.00000000000E+00 -0.79655466108E+03  0.79655466108E+03  0.25500000000E-02 0.  1.
    5000001    1    1    2    0    0  0.16070321089E+03 -0.65312416444E+02 -0.46840008616E+03  0.52603695160E+03  0.16500000000E+03 0.  0.
   -5000001    1    1    2    0    0 -0.16070321089E+03  0.65312416444E+02 -0.25146668574E+03  0.34720559870E+03  0.16500000000E+03 0.  0.
<mgrwt>
<rscale>  0 0.49431203E+03</rscale>
<asrwt>0</asrwt>
<pdfrwt beam="1">  1        2 0.12254687E+00 0.49431203E+03</pdfrwt>
<pdfrwt beam="2">  1       -2 0.11798137E-01 0.49431203E+03</pdfrwt>
<totfact> 0.18170592E+03</totfact>
</mgrwt>
</event>
<event>
 4    1  0.8984293E-005  0.5083157E+03  0.7818608E-02  0.1011631E+00
         -2   -1    0    0    0  501 -0.00000000000E+00  0.00000000000E+00  0.29635145433E+03  0.29635145434E+03  0.25500000000E-02 0. -1.
          2   -1    0    0  501    0  0.00000000000E+00 -0.00000000000E+00 -0.21797162309E+03  0.21797162310E+03  0.25500000000E-02 0.  1.
    5000001    1    1    2    0    0  0.16169580677E+03 -0.97520310660E+02  0.81097548566E+02  0.26354801707E+03  0.16500000000E+03 0.  0.
   -5000001    1    1    2    0    0 -0.16169580677E+03  0.97520310660E+02 -0.27177173245E+01  0.25077506038E+03  0.16500000000E+03 0.  0.
<mgrwt>
<rscale>  0 0.50831568E+03</rscale>
<asrwt>0</asrwt>
<pdfrwt beam="1">  1        2 0.33534096E-01 0.50831568E+03</pdfrwt>
<pdfrwt beam="2">  1       -2 0.45592532E-01 0.50831568E+03</pdfrwt>
<totfact> 0.71970353E+02</totfact>
</mgrwt>
</event>
<event>
 4    1  0.8984293E-005  0.8576888E+03  0.7818608E-02  0.9480075E-01
          2   -1    0    0  501    0  0.00000000000E+00  0.00000000000E+00  0.15306394411E+03  0.15306394414E+03  0.25500000000E-02 0.  1.
         -2   -1    0    0    0  501 -0.00000000000E+00 -0.00000000000E+00 -0.12015077968E+04  0.12015077968E+04  0.25500000000E-02 0. -1.
    5000001    1    1    2    0    0  0.33311206110E+03  0.18365383488E+03 -0.69715756572E+03  0.81113873521E+03  0.16500000000E+03 0.  0.
   -5000001    1    1    2    0    0 -0.33311206110E+03 -0.18365383488E+03 -0.35128628697E+03  0.54343300574E+03  0.16500000000E+03 0.  0.
<mgrwt>
<rscale>  0 0.85768881E+03</rscale>
<asrwt>0</asrwt>
<pdfrwt beam="1">  1        2 0.23548300E-01 0.85768881E+03</pdfrwt>
<pdfrwt beam="2">  1       -2 0.18484735E+00 0.85768881E+03</pdfrwt>
<totfact> 0.39759663E+01</totfact>
</mgrwt>
</event>
<event>
 4    1  0.8984293E-005  0.6132603E+03  0.7818608E-02  0.9878271E-01
          2   -1    0    0  501    0  0.00000000000E+00  0.00000000000E+00  0.72362991513E+03  0.72362991514E+03  0.25500000000E-02 0. -1.
         -2   -1    0    0    0  501 -0.00000000000E+00 -0.00000000000E+00 -0.12993112040E+03  0.12993112042E+03  0.25500000000E-02 0.  1.
    5000001    1    1    2    0    0 -0.13600590581E+03 -0.21418855319E+03  0.36535716532E+03  0.47443145025E+03  0.16500000000E+03 0.  0.
   -5000001    1    1    2    0    0  0.13600590581E+03  0.21418855319E+03  0.22834162941E+03  0.37912958531E+03  0.16500000000E+03 0.  0.
<mgrwt>
<rscale>  0 0.61326029E+03</rscale>
<asrwt>0</asrwt>
<pdfrwt beam="1">  1        2 0.11132768E+00 0.61326029E+03</pdfrwt>
<pdfrwt beam="2">  1       -2 0.19989403E-01 0.61326029E+03</pdfrwt>
<totfact> 0.84320233E+02</totfact>
</mgrwt>
</event>
<event>
 4    1  0.8984293E-005  0.4908239E+03  0.7818608E-02  0.1016202E+00
          2   -1    0    0  501    0  0.00000000000E+00  0.00000000000E+00  0.47637962023E+02  0.47637962092E+02  0.25500000000E-02 0.  1.
         -2   -1    0    0    0  501 -0.00000000000E+00 -0.00000000000E+00 -0.12642653126E+04  0.12642653126E+04  0.25500000000E-02 0. -1.
    5000001    1    1    2    0    0  0.13633656064E+03  0.10252773044E+03 -0.44134166829E+03  0.50110583857E+03  0.16500000000E+03 0.  0.
   -5000001    1    1    2    0    0 -0.13633656064E+03 -0.10252773044E+03 -0.77528568228E+03  0.81079743613E+03  0.16500000000E+03 0.  0.
<mgrwt>
<rscale>  0 0.49082389E+03</rscale>
<asrwt>0</asrwt>
<pdfrwt beam="1">  1        2 0.73289182E-02 0.49082389E+03</pdfrwt>
<pdfrwt beam="2">  1       -2 0.19450233E+00 0.49082389E+03</pdfrwt>
<totfact> 0.14764987E+02</totfact>
</mgrwt>
</event>
<event>
 4    1  0.8984293E-005  0.4308297E+03  0.7818608E-02  0.1033598E+00
         -2   -1    0    0    0  501 -0.00000000000E+00  0.00000000000E+00  0.24404469781E+02  0.24404469914E+02  0.25500000000E-02 0. -1.
          2   -1    0    0  501    0  0.00000000000E+00 -0.00000000000E+00 -0.19014368075E+04  0.19014368075E+04  0.25500000000E-02 0.  1.
    5000001    1    1    2    0    0 -0.11544356706E+03 -0.62722955140E+02 -0.11342407081E+04  0.11536846927E+04  0.16500000000E+03 0.  0.
   -5000001    1    1    2    0    0  0.11544356706E+03  0.62722955140E+02 -0.74279162965E+03  0.77215658474E+03  0.16500000000E+03 0.  0.
<mgrwt>
<rscale>  0 0.43082970E+03</rscale>
<asrwt>0</asrwt>
<pdfrwt beam="1">  1        2 0.29252862E+00 0.43082970E+03</pdfrwt>
<pdfrwt beam="2">  1       -2 0.37545353E-02 0.43082970E+03</pdfrwt>
<totfact> 0.25154512E+03</totfact>
</mgrwt>
</event>
<event>
 4    1  0.8984293E-005  0.7311141E+03  0.7818608E-02  0.9665454E-01
         -2   -1    0    0    0  501 -0.00000000000E+00  0.00000000000E+00  0.18494565803E+03  0.18494565805E+03  0.25500000000E-02 0. -1.
          2   -1    0    0  501    0  0.00000000000E+00 -0.00000000000E+00 -0.72254716421E+03  0.72254716422E+03  0.25500000000E-02 0.  1.
    5000001    1    1    2    0    0  0.30731446533E+03 -0.89223144739E+02 -0.34734341965E+03  0.50027532553E+03  0.16500000000E+03 0.  0.
   -5000001    1    1    2    0    0 -0.30731446533E+03  0.89223144739E+02 -0.19025808653E+03  0.40721749674E+03  0.16500000000E+03 0.  0.
<mgrwt>
<rscale>  0 0.73111411E+03</rscale>
<asrwt>0</asrwt>
<pdfrwt beam="1">  1        2 0.11116110E+00 0.73111411E+03</pdfrwt>
<pdfrwt beam="2">  1       -2 0.28453179E-01 0.73111411E+03</pdfrwt>
<totfact> 0.44766025E+02</totfact>
</mgrwt>
</event>
<event>
 4    1  0.8984293E-005  0.1609892E+04  0.7818608E-02  0.8814494E-01
          2   -1    0    0  501    0  0.00000000000E+00  0.00000000000E+00  0.21353609265E+04  0.21353609265E+04  0.25500000000E-02 0.  1.
         -2   -1    0    0    0  501 -0.00000000000E+00 -0.00000000000E+00 -0.30343241603E+03  0.30343241604E+03  0.25500000000E-02 0. -1.
    5000001    1    1    2    0    0  0.13493973637E+03  0.40937927249E+03  0.19149961847E+04  0.19698313401E+04  0.16500000000E+03 0.  0.
   -5000001    1    1    2    0    0 -0.13493973637E+03 -0.40937927249E+03 -0.83067674234E+02  0.46896200240E+03  0.16500000000E+03 0.  0.
<mgrwt>
<rscale>  0 0.16098916E+04</rscale>
<asrwt>0</asrwt>
<pdfrwt beam="1">  1        2 0.32851708E+00 0.16098916E+04</pdfrwt>
<pdfrwt beam="2">  1       -2 0.46681908E-01 0.16098916E+04</pdfrwt>
<totfact> 0.23414462E+01</totfact>
</mgrwt>
</event>
<event>
 4    1  0.8984293E-005  0.4694143E+03  0.7818608E-02  0.1022086E+00
          2   -1    0    0  501    0  0.00000000000E+00  0.00000000000E+00  0.10645945771E+04  0.10645945771E+04  0.25500000000E-02 0.  1.
         -2   -1    0    0    0  501 -0.00000000000E+00 -0.00000000000E+00 -0.51744995854E+02  0.51744995917E+02  0.25500000000E-02 0. -1.
    5000001    1    1    2    0    0  0.34772320355E+01  0.16688424279E+03  0.50637837753E+03  0.55812767613E+03  0.16500000000E+03 0.  0.
   -5000001    1    1    2    0    0 -0.34772320355E+01 -0.16688424279E+03  0.50647120372E+03  0.55821189689E+03  0.16500000000E+03 0.  0.
<mgrwt>
<rscale>  0 0.46941428E+03</rscale>
<asrwt>0</asrwt>
<pdfrwt beam="1">  1        2 0.16378377E+00 0.46941428E+03</pdfrwt>
<pdfrwt beam="2">  1       -2 0.79607692E-02 0.46941428E+03</pdfrwt>
<totfact> 0.22871986E+03</totfact>
</mgrwt>
</event>
<event>
 4    1  0.8984293E-005  0.3687640E+03  0.7818608E-02  0.1055167E+00
          2   -1    0    0  501    0  0.00000000000E+00  0.00000000000E+00  0.10243390540E+04  0.10243390540E+04  0.25500000000E-02 0.  1.
         -2   -1    0    0    0  501 -0.00000000000E+00 -0.00000000000E+00 -0.33188935979E+02  0.33188936077E+02  0.25500000000E-02 0. -1.
    5000001    1    1    2    0    0  0.41549841615E+02 -0.54680059741E+02  0.62559027113E+03  0.65061854078E+03  0.16500000000E+03 0.  0.
   -5000001    1    1    2    0    0 -0.41549841615E+02  0.54680059741E+02  0.36555984688E+03  0.40690944929E+03  0.16500000000E+03 0.  0.
<mgrwt>
<rscale>  0 0.36876401E+03</rscale>
<asrwt>0</asrwt>
<pdfrwt beam="1">  1        2 0.15759063E+00 0.36876401E+03</pdfrwt>
<pdfrwt beam="2">  1       -2 0.51059901E-02 0.36876401E+03</pdfrwt>
<totfact> 0.48312303E+03</totfact>
</mgrwt>
</event>
<event>
 4    1  0.8984293E-005  0.5127880E+03  0.7818608E-02  0.1010494E+00
         -2   -1    0    0    0  501 -0.00000000000E+00  0.00000000000E+00  0.22033660236E+03  0.22033660237E+03  0.25500000000E-02 0. -1.
          2   -1    0    0  501    0  0.00000000000E+00 -0.00000000000E+00 -0.29835202024E+03  0.29835202026E+03  0.25500000000E-02 0.  1.
    5000001    1    1    2    0    0 -0.49589318440E+02  0.17271437570E+03 -0.11880474478E+03  0.27134650073E+03  0.16500000000E+03 0.  0.
   -5000001    1    1    2    0    0  0.49589318440E+02 -0.17271437570E+03  0.40789326892E+02  0.24734212190E+03  0.16500000000E+03 0.  0.
<mgrwt>
<rscale>  0 0.51278795E+03</rscale>
<asrwt>0</asrwt>
<pdfrwt beam="1">  1        2 0.45900311E-01 0.51278795E+03</pdfrwt>
<pdfrwt beam="2">  1       -2 0.33897939E-01 0.51278795E+03</pdfrwt>
<totfact> 0.90208559E+02</totfact>
</mgrwt>
</event>
<event>
 4    1  0.8984293E-005  0.3957652E+03  0.7818608E-02  0.1045256E+00
         -2   -1    0    0    0  501 -0.00000000000E+00  0.00000000000E+00  0.19153289199E+03  0.19153289201E+03  0.25500000000E-02 0. -1.
          2   -1    0    0  501    0  0.00000000000E+00 -0.00000000000E+00 -0.20444277352E+03  0.20444277354E+03  0.25500000000E-02 0.  1.
    5000001    1    1    2    0    0 -0.20364667542E+02 -0.95152508066E+02 -0.56117983731E+02  0.19960698278E+03  0.16500000000E+03 0.  0.
   -5000001    1    1    2    0    0  0.20364667542E+02  0.95152508066E+02  0.43208102200E+02  0.19636868277E+03  0.16500000000E+03 0.  0.
<mgrwt>
<rscale>  0 0.39576516E+03</rscale>
<asrwt>0</asrwt>
<pdfrwt beam="1">  1        2 0.31452734E-01 0.39576516E+03</pdfrwt>
<pdfrwt beam="2">  1       -2 0.29466599E-01 0.39576516E+03</pdfrwt>
<totfact> 0.17705192E+03</totfact>
</mgrwt>
</event>
<event>
 4    1  0.8984293E-005  0.8517073E+03  0.7818608E-02  0.9488048E-01
         -2   -1    0    0    0  501 -0.00000000000E+00  0.00000000000E+00  0.12804795313E+03  0.12804795316E+03  0.25500000000E-02 0. -1.
          2   -1    0    0  501    0  0.00000000000E+00 -0.00000000000E+00 -0.14162765671E+04  0.14162765671E+04  0.25500000000E-02 0.  1.
    5000001    1    1    2    0    0 -0.80614514263E+02  0.24885473276E+03 -0.11330817014E+03  0.32937990125E+03  0.16500000000E+03 0.  0.
   -5000001    1    1    2    0    0  0.80614514263E+02 -0.24885473276E+03 -0.11749204439E+04  0.12149446190E+04  0.16500000000E+03 0.  0.
<mgrwt>
<rscale>  0 0.85170726E+03</rscale>
<asrwt>0</asrwt>
<pdfrwt beam="1">  1        2 0.21788869E+00 0.85170726E+03</pdfrwt>
<pdfrwt beam="2">  1       -2 0.19699686E-01 0.85170726E+03</pdfrwt>
<totfact> 0.31219332E+02</totfact>
</mgrwt>
</event>
<event>
 4    1  0.8984293E-005  0.6404684E+03  0.7818608E-02  0.9824831E-01
          2   -1    0    0  501    0  0.00000000000E+00  0.00000000000E+00  0.40549945234E+04  0.40549945234E+04  0.25500000000E-02 0.  1.
         -2   -1    0    0    0  501 -0.00000000000E+00 -0.00000000000E+00 -0.25289786844E+02  0.25289786972E+02  0.25500000000E-02 0. -1.
    5000001    1    1    2    0    0 -0.24384894653E+03 -0.56080508394E+02  0.27333007154E+04  0.27496845516E+04  0.16500000000E+03 0.  0.
   -5000001    1    1    2    0    0  0.24384894653E+03  0.56080508394E+02  0.12964040211E+04  0.13305997588E+04  0.16500000000E+03 0.  0.
<mgrwt>
<rscale>  0 0.64046841E+03</rscale>
<asrwt>0</asrwt>
<pdfrwt beam="1">  1        2 0.62384554E+00 0.64046841E+03</pdfrwt>
<pdfrwt beam="2">  1       -2 0.38907350E-02 0.64046841E+03</pdfrwt>
<totfact> 0.10561565E+02</totfact>
</mgrwt>
</event>
<event>
 4    1  0.8984293E-005  0.4600853E+03  0.7818608E-02  0.1024756E+00
          2   -1    0    0  501    0  0.00000000000E+00  0.00000000000E+00  0.15945116966E+04  0.15945116966E+04  0.25500000000E-02 0.  1.
         -2   -1    0    0    0  501 -0.00000000000E+00 -0.00000000000E+00 -0.33188609751E+02  0.33188609849E+02  0.25500000000E-02 0. -1.
    5000001    1    1    2    0    0  0.23525465376E+02 -0.14661144949E+03  0.56703264903E+03  0.60893299279E+03  0.16500000000E+03 0.  0.
   -5000001    1    1    2    0    0 -0.23525465376E+02  0.14661144949E+03  0.99429043785E+03  0.10187673137E+04  0.16500000000E+03 0.  0.
<mgrwt>
<rscale>  0 0.46008532E+03</rscale>
<asrwt>0</asrwt>
<pdfrwt beam="1">  1        2 0.24530946E+00 0.46008532E+03</pdfrwt>
<pdfrwt beam="2">  1       -2 0.51059406E-02 0.46008532E+03</pdfrwt>
<totfact> 0.22929744E+03</totfact>
</mgrwt>
</event>
<event>
 4    1  0.8984293E-005  0.5120211E+03  0.7818608E-02  0.1010688E+00
         -2   -1    0    0    0  501 -0.00000000000E+00  0.00000000000E+00  0.31611542224E+03  0.31611542225E+03  0.25500000000E-02 0.  1.
          2   -1    0    0  501    0  0.00000000000E+00 -0.00000000000E+00 -0.20733375592E+03  0.20733375594E+03  0.25500000000E-02 0. -1.
    5000001    1    1    2    0    0 -0.12471152100E+03 -0.15025790523E+03  0.40448393527E+02  0.25882711236E+03  0.16500000000E+03 0.  0.
   -5000001    1    1    2    0    0  0.12471152100E+03  0.15025790523E+03  0.68333272791E+02  0.26462206583E+03  0.16500000000E+03 0.  0.
<mgrwt>
<rscale>  0 0.51202108E+03</rscale>
<asrwt>0</asrwt>
<pdfrwt beam="1">  1        2 0.31897501E-01 0.51202108E+03</pdfrwt>
<pdfrwt beam="2">  1       -2 0.48633141E-01 0.51202108E+03</pdfrwt>
<totfact> 0.66884978E+02</totfact>
</mgrwt>
</event>
<event>
 4    1  0.8984293E-005  0.7059013E+03  0.7818608E-02  0.9707193E-01
          2   -1    0    0  501    0  0.00000000000E+00  0.00000000000E+00  0.21080511855E+03  0.21080511856E+03  0.25500000000E-02 0.  1.
         -2   -1    0    0    0  501 -0.00000000000E+00 -0.00000000000E+00 -0.59094466446E+03  0.59094466446E+03  0.25500000000E-02 0. -1.
    5000001    1    1    2    0    0  0.16487588631E+03  0.24713539952E+03 -0.81787436729E+02  0.34953418772E+03  0.16500000000E+03 0.  0.
   -5000001    1    1    2    0    0 -0.16487588631E+03 -0.24713539952E+03 -0.29835210918E+03  0.45221559530E+03  0.16500000000E+03 0.  0.
<mgrwt>
<rscale>  0 0.70590130E+03</rscale>
<asrwt>0</asrwt>
<pdfrwt beam="1">  1        2 0.32431557E-01 0.70590130E+03</pdfrwt>
<pdfrwt beam="2">  1       -2 0.90914563E-01 0.70590130E+03</pdfrwt>
<totfact> 0.16992981E+02</totfact>
</mgrwt>
</event>
<event>
 4    1  0.8984293E-005  0.3998133E+03  0.7818608E-02  0.1043844E+00
          2   -1    0    0  501    0  0.00000000000E+00  0.00000000000E+00  0.12660063621E+04  0.12660063621E+04  0.25500000000E-02 0.  1.
         -2   -1    0    0    0  501 -0.00000000000E+00 -0.00000000000E+00 -0.31565938153E+02  0.31565938256E+02  0.25500000000E-02 0. -1.
    5000001    1    1    2    0    0  0.80962778960E+02 -0.54111811793E+02  0.43206994502E+03  0.47264415488E+03  0.16500000000E+03 0.  0.
   -5000001    1    1    2    0    0 -0.80962778960E+02  0.54111811793E+02  0.80237047896E+03  0.82492814551E+03  0.16500000000E+03 0.  0.
<mgrwt>
<rscale>  0 0.39981335E+03</rscale>
<asrwt>0</asrwt>
<pdfrwt beam="1">  1        2 0.19477023E+00 0.39981335E+03</pdfrwt>
<pdfrwt beam="2">  1       -2 0.48562977E-02 0.39981335E+03</pdfrwt>
<totfact> 0.37636767E+03</totfact>
</mgrwt>
</event>
<event>
 4    1  0.8984293E-005  0.7726750E+03  0.7818608E-02  0.9600433E-01
         -2   -1    0    0    0  501 -0.00000000000E+00  0.00000000000E+00  0.61322575627E+02  0.61322575680E+02  0.25500000000E-02 0. -1.
          2   -1    0    0  501    0  0.00000000000E+00 -0.00000000000E+00 -0.24339597539E+04  0.24339597539E+04  0.25500000000E-02 0.  1.
    5000001    1    1    2    0    0  0.14304443638E+03 -0.31850029059E+03 -0.12227887724E+04  0.12823188089E+04  0.16500000000E+03 0.  0.
   -5000001    1    1    2    0    0 -0.14304443638E+03  0.31850029059E+03 -0.11498484059E+04  0.12129635207E+04  0.16500000000E+03 0.  0.
<mgrwt>
<rscale>  0 0.77267504E+03</rscale>
<asrwt>0</asrwt>
<pdfrwt beam="1">  1        2 0.37445527E+00 0.77267504E+03</pdfrwt>
<pdfrwt beam="2">  1       -2 0.94342443E-02 0.77267504E+03</pdfrwt>
<totfact> 0.29645073E+02</totfact>
</mgrwt>
</event>
<event>
 4    1  0.8984293E-005  0.6106605E+03  0.7818608E-02  0.9883532E-01
         -2   -1    0    0    0  501 -0.00000000000E+00  0.00000000000E+00  0.49062358910E+02  0.49062358976E+02  0.25500000000E-02 0. -1.
          2   -1    0    0  501    0  0.00000000000E+00 -0.00000000000E+00 -0.19001646775E+04  0.19001646775E+04  0.25500000000E-02 0.  1.
    5000001    1    1    2    0    0 -0.84207078786E+02  0.15217774165E+03 -0.15291060916E+04  0.15477853005E+04  0.16500000000E+03 0.  0.
   -5000001    1    1    2    0    0  0.84207078786E+02 -0.15217774165E+03 -0.32199622704E+03  0.40144173600E+03  0.16500000000E+03 0.  0.
<mgrwt>
<rscale>  0 0.61066050E+03</rscale>
<asrwt>0</asrwt>
<pdfrwt beam="1">  1        2 0.29233297E+00 0.61066050E+03</pdfrwt>
<pdfrwt beam="2">  1       -2 0.75480567E-02 0.61066050E+03</pdfrwt>
<totfact> 0.84393153E+02</totfact>
</mgrwt>
</event>
<event>
 4    1  0.8984293E-005  0.2091465E+04  0.7818608E-02  0.8565012E-01
          2   -1    0    0  501    0  0.00000000000E+00  0.00000000000E+00  0.16704733531E+04  0.16704733531E+04  0.25500000000E-02 0.  1.
         -2   -1    0    0    0  501 -0.00000000000E+00 -0.00000000000E+00 -0.65463894227E+03  0.65463894227E+03  0.25500000000E-02 0. -1.
    5000001    1    1    2    0    0 -0.76309540414E+03 -0.71435766006E+02  0.12772639492E+04  0.14986813739E+04  0.16500000000E+03 0.  0.
   -5000001    1    1    2    0    0  0.76309540414E+03  0.71435766006E+02 -0.26142953836E+03  0.82643092150E+03  0.16500000000E+03 0.  0.
<mgrwt>
<rscale>  0 0.20914654E+04</rscale>
<asrwt>0</asrwt>
<pdfrwt beam="1">  1        2 0.25699590E+00 0.20914654E+04</pdfrwt>
<pdfrwt beam="2">  1       -2 0.10071369E+00 0.20914654E+04</pdfrwt>
<totfact> 0.76289789E+00</totfact>
</mgrwt>
</event>
<event>
 4    1  0.8984293E-005  0.1338792E+04  0.7818608E-02  0.8999356E-01
         -2   -1    0    0    0  501 -0.00000000000E+00  0.00000000000E+00  0.21045675251E+03  0.21045675252E+03  0.25500000000E-02 0. -1.
          2   -1    0    0  501    0  0.00000000000E+00 -0.00000000000E+00 -0.21291361071E+04  0.21291361071E+04  0.25500000000E-02 0.  1.
    5000001    1    1    2    0    0 -0.40356844233E+03  0.40126634891E+03 -0.15035627746E+04  0.16161089652E+04  0.16500000000E+03 0.  0.
   -5000001    1    1    2    0    0  0.40356844233E+03 -0.40126634891E+03 -0.41511657997E+03  0.72348389435E+03  0.16500000000E+03 0.  0.
<mgrwt>
<rscale>  0 0.13387921E+04</rscale>
<asrwt>0</asrwt>
<pdfrwt beam="1">  1        2 0.32755939E+00 0.13387921E+04</pdfrwt>
<pdfrwt beam="2">  1       -2 0.32377963E-01 0.13387921E+04</pdfrwt>
<totfact> 0.49223104E+01</totfact>
</mgrwt>
</event>
<event>
 4    1  0.8984293E-005  0.6589809E+03  0.7818608E-02  0.9790072E-01
          2   -1    0    0  501    0  0.00000000000E+00  0.00000000000E+00  0.14350116437E+04  0.14350116437E+04  0.25500000000E-02 0.  1.
         -2   -1    0    0    0  501 -0.00000000000E+00 -0.00000000000E+00 -0.75653716447E+02  0.75653716489E+02  0.25500000000E-02 0. -1.
    5000001    1    1    2    0    0 -0.26909534652E+03 -0.54545301192E+02  0.50282797045E+03  0.59619498762E+03  0.16500000000E+03 0.  0.
   -5000001    1    1    2    0    0  0.26909534652E+03  0.54545301192E+02  0.85652995676E+03  0.91447037253E+03  0.16500000000E+03 0.  0.
<mgrwt>
<rscale>  0 0.65898092E+03</rscale>
<asrwt>0</asrwt>
<pdfrwt beam="1">  1        2 0.22077103E+00 0.65898092E+03</pdfrwt>
<pdfrwt beam="2">  1       -2 0.11639033E-01 0.65898092E+03</pdfrwt>
<totfact> 0.75098700E+02</totfact>
</mgrwt>
</event>
<event>
 4    1  0.8984293E-005  0.4406530E+03  0.7818608E-02  0.1030547E+00
          2   -1    0    0  501    0  0.00000000000E+00  0.00000000000E+00  0.31782664216E+04  0.31782664216E+04  0.25500000000E-02 0.  1.
         -2   -1    0    0    0  501 -0.00000000000E+00 -0.00000000000E+00 -0.15273664715E+02  0.15273664927E+02  0.25500000000E-02 0. -1.
    5000001    1    1    2    0    0 -0.28830242440E+02 -0.13093728821E+03  0.20005263307E+04  0.20117918273E+04  0.16500000000E+03 0.  0.
   -5000001    1    1    2    0    0  0.28830242440E+02  0.13093728821E+03  0.11624664262E+04  0.11817482593E+04  0.16500000000E+03 0.  0.
<mgrwt>
<rscale>  0 0.44065304E+03</rscale>
<asrwt>0</asrwt>
<pdfrwt beam="1">  1        2 0.48896414E+00 0.44065304E+03</pdfrwt>
<pdfrwt beam="2">  1       -2 0.23497942E-02 0.44065304E+03</pdfrwt>
<totfact> 0.96470442E+02</totfact>
</mgrwt>
</event>
<event>
 4    1  0.8984293E-005  0.6072676E+03  0.7818608E-02  0.9890442E-01
         -2   -1    0    0    0  501 -0.00000000000E+00  0.00000000000E+00  0.59160260667E+02  0.59160260722E+02  0.25500000000E-02 0. -1.
          2   -1    0    0  501    0  0.00000000000E+00 -0.00000000000E+00 -0.15583685566E+04  0.15583685566E+04  0.25500000000E-02 0.  1.
    5000001    1    1    2    0    0  0.22671768166E+03 -0.11187426384E+03 -0.83598638448E+03  0.88882787599E+03  0.16500000000E+03 0.  0.
   -5000001    1    1    2    0    0 -0.22671768166E+03  0.11187426384E+03 -0.66322191147E+03  0.72870094136E+03  0.16500000000E+03 0.  0.
<mgrwt>
<rscale>  0 0.60726762E+03</rscale>
<asrwt>0</asrwt>
<pdfrwt beam="1">  1        2 0.23974898E+00 0.60726762E+03</pdfrwt>
<pdfrwt beam="2">  1       -2 0.91015797E-02 0.60726762E+03</pdfrwt>
<totfact> 0.95982054E+02</totfact>
</mgrwt>
</event>
<event>
 4    1  0.8984293E-005  0.4703523E+03  0.7818608E-02  0.1021821E+00
         -2   -1    0    0    0  501 -0.00000000000E+00  0.00000000000E+00  0.17388481365E+02  0.17388481552E+02  0.25500000000E-02 0. -1.
          2   -1    0    0  501    0  0.00000000000E+00 -0.00000000000E+00 -0.31807166053E+04  0.31807166053E+04  0.25500000000E-02 0.  1.
    5000001    1    1    2    0    0  0.19925376421E+02  0.16499379890E+03 -0.17279467835E+04  0.17437445515E+04  0.16500000000E+03 0.  0.
   -5000001    1    1    2    0    0 -0.19925376421E+02 -0.16499379890E+03 -0.14353813404E+04  0.14543605353E+04  0.16500000000E+03 0.  0.
<mgrwt>
<rscale>  0 0.47035234E+03</rscale>
<asrwt>0</asrwt>
<pdfrwt beam="1">  1        2 0.48934055E+00 0.47035234E+03</pdfrwt>
<pdfrwt beam="2">  1       -2 0.26751535E-02 0.47035234E+03</pdfrwt>
<totfact> 0.78821303E+02</totfact>
</mgrwt>
</event>
<event>
 4    1  0.8984293E-005  0.6469061E+03  0.7818608E-02  0.9812602E-01
          2   -1    0    0  501    0  0.00000000000E+00  0.00000000000E+00  0.21354309312E+03  0.21354309314E+03  0.25500000000E-02 0.  1.
         -2   -1    0    0    0  501 -0.00000000000E+00 -0.00000000000E+00 -0.48993327341E+03  0.48993327341E+03  0.25500000000E-02 0. -1.
    5000001    1    1    2    0    0  0.19091829531E+03 -0.19957259529E+03 -0.17455310132E+03  0.36602295209E+03  0.16500000000E+03 0.  0.
   -5000001    1    1    2    0    0 -0.19091829531E+03  0.19957259529E+03 -0.10183707896E+03  0.33745341446E+03  0.16500000000E+03 0.  0.
<mgrwt>
<rscale>  0 0.64690607E+03</rscale>
<asrwt>0</asrwt>
<pdfrwt beam="1">  1        2 0.32852783E-01 0.64690607E+03</pdfrwt>
<pdfrwt beam="2">  1       -2 0.75374350E-01 0.64690607E+03</pdfrwt>
<totfact> 0.25632866E+02</totfact>
</mgrwt>
</event>
<event>
 4    1  0.8984293E-005  0.9212580E+03  0.7818608E-02  0.9399391E-01
         -2   -1    0    0    0  501 -0.00000000000E+00  0.00000000000E+00  0.29749374690E+03  0.29749374691E+03  0.25500000000E-02 0. -1.
          2   -1    0    0  501    0  0.00000000000E+00 -0.00000000000E+00 -0.71322197071E+03  0.71322197071E+03  0.25500000000E-02 0.  1.
    5000001    1    1    2    0    0 -0.39318229495E+03  0.17280860751E+03 -0.23237019438E+03  0.51543771605E+03  0.16500000000E+03 0.  0.
   -5000001    1    1    2    0    0  0.39318229495E+03 -0.17280860751E+03 -0.18335802942E+03  0.49527800157E+03  0.16500000000E+03 0.  0.
<mgrwt>
<rscale>  0 0.92125800E+03</rscale>
<asrwt>0</asrwt>
<pdfrwt beam="1">  1        2 0.10972646E+00 0.92125800E+03</pdfrwt>
<pdfrwt beam="2">  1       -2 0.45768269E-01 0.92125800E+03</pdfrwt>
<totfact> 0.18147058E+02</totfact>
</mgrwt>
</event>
<event>
 4    1  0.8984293E-005  0.5461230E+03  0.7818608E-02  0.1002395E+00
          2   -1    0    0  501    0  0.00000000000E+00  0.00000000000E+00  0.35715052639E+04  0.35715052639E+04  0.25500000000E-02 0.  1.
         -2   -1    0    0    0  501 -0.00000000000E+00 -0.00000000000E+00 -0.20877071801E+02  0.20877071956E+02  0.25500000000E-02 0. -1.
    5000001    1    1    2    0    0 -0.21301983181E+03  0.14008421996E+02  0.14990480228E+04  0.15231361263E+04  0.16500000000E+03 0.  0.
   -5000001    1    1    2    0    0  0.21301983181E+03 -0.14008421996E+02  0.20515801693E+04  0.20692462096E+04  0.16500000000E+03 0.  0.
<mgrwt>
<rscale>  0 0.54612296E+03</rscale>
<asrwt>0</asrwt>
<pdfrwt beam="1">  1        2 0.54946227E+00 0.54612296E+03</pdfrwt>
<pdfrwt beam="2">  1       -2 0.32118577E-02 0.54612296E+03</pdfrwt>
<totfact> 0.32788810E+02</totfact>
</mgrwt>
</event>
<event>
 4    1  0.8984293E-005  0.7474342E+03  0.7818608E-02  0.9639384E-01
          2   -1    0    0  501    0  0.00000000000E+00  0.00000000000E+00  0.30159250616E+03  0.30159250617E+03  0.25500000000E-02 0.  1.
         -2   -1    0    0    0  501 -0.00000000000E+00 -0.00000000000E+00 -0.46308999142E+03  0.46308999143E+03  0.25500000000E-02 0. -1.
    5000001    1    1    2    0    0  0.90755007411E+02  0.31885073896E+03 -0.13228181647E+03  0.39322480094E+03  0.16500000000E+03 0.  0.
   -5000001    1    1    2    0    0 -0.90755007411E+02 -0.31885073896E+03 -0.29215668794E+02  0.37145769666E+03  0.16500000000E+03 0.  0.
<mgrwt>
<rscale>  0 0.74743420E+03</rscale>
<asrwt>0</asrwt>
<pdfrwt beam="1">  1        2 0.46398847E-01 0.74743420E+03</pdfrwt>
<pdfrwt beam="2">  1       -2 0.71244614E-01 0.74743420E+03</pdfrwt>
<totfact> 0.19697645E+02</totfact>
</mgrwt>
</event>
<event>
 4    1  0.8984293E-005  0.4401214E+03  0.7818608E-02  0.1030710E+00
         -2   -1    0    0    0  501 -0.00000000000E+00  0.00000000000E+00  0.12707072046E+03  0.12707072048E+03  0.25500000000E-02 0. -1.
          2   -1    0    0  501    0  0.00000000000E+00 -0.00000000000E+00 -0.38110048807E+03  0.38110048808E+03  0.25500000000E-02 0.  1.
    5000001    1    1    2    0    0  0.14514385639E+03  0.11029121143E+02 -0.12279886994E+03  0.25197806059E+03  0.16500000000E+03 0.  0.
   -5000001    1    1    2    0    0 -0.14514385639E+03 -0.11029121143E+02 -0.13123089767E+03  0.25619314797E+03  0.16500000000E+03 0.  0.
<mgrwt>
<rscale>  0 0.44012141E+03</rscale>
<asrwt>0</asrwt>
<pdfrwt beam="1">  1        2 0.58630844E-01 0.44012141E+03</pdfrwt>
<pdfrwt beam="2">  1       -2 0.19549342E-01 0.44012141E+03</pdfrwt>
<totfact> 0.18529522E+03</totfact>
</mgrwt>
</event>
<event>
 4    1  0.8984293E-005  0.1076575E+04  0.7818608E-02  0.9228329E-01
          2   -1    0    0  501    0  0.00000000000E+00  0.00000000000E+00  0.13571258055E+04  0.13571258055E+04  0.25500000000E-02 0.  1.
         -2   -1    0    0    0  501 -0.00000000000E+00 -0.00000000000E+00 -0.21350513787E+03  0.21350513788E+03  0.25500000000E-02 0. -1.
    5000001    1    1    2    0    0 -0.33103069173E+03 -0.37882134013E+03  0.43005211039E+03  0.68209731289E+03  0.16500000000E+03 0.  0.
   -5000001    1    1    2    0    0  0.33103069173E+03  0.37882134013E+03  0.71356855721E+03  0.88853363046E+03  0.16500000000E+03 0.  0.
<mgrwt>
<rscale>  0 0.10765748E+04</rscale>
<asrwt>0</asrwt>
<pdfrwt beam="1">  1        2 0.20878858E+00 0.10765748E+04</pdfrwt>
<pdfrwt beam="2">  1       -2 0.32846944E-01 0.10765748E+04</pdfrwt>
<totfact> 0.13152095E+02</totfact>
</mgrwt>
</event>
<event>
 4    1  0.8984293E-005  0.6333839E+03  0.7818608E-02  0.9838468E-01
         -2   -1    0    0    0  501 -0.00000000000E+00  0.00000000000E+00  0.15997577000E+03  0.15997577002E+03  0.25500000000E-02 0. -1.
          2   -1    0    0  501    0  0.00000000000E+00 -0.00000000000E+00 -0.62693104890E+03  0.62693104890E+03  0.25500000000E-02 0.  1.
    5000001    1    1    2    0    0  0.39302576496E+02 -0.21196105507E+03 -0.43609159091E+03  0.51368575711E+03  0.16500000000E+03 0.  0.
   -5000001    1    1    2    0    0 -0.39302576496E+02  0.21196105507E+03 -0.30863687984E+02  0.27322106182E+03  0.16500000000E+03 0.  0.
<mgrwt>
<rscale>  0 0.63338386E+03</rscale>
<asrwt>0</asrwt>
<pdfrwt beam="1">  1        2 0.96450929E-01 0.63338386E+03</pdfrwt>
<pdfrwt beam="2">  1       -2 0.24611657E-01 0.63338386E+03</pdfrwt>
<totfact> 0.69699785E+02</totfact>
</mgrwt>
</event>
<event>
 4    1  0.8984293E-005  0.4275884E+03  0.7818608E-02  0.1034625E+00
          2   -1    0    0  501    0  0.00000000000E+00  0.00000000000E+00  0.30243577398E+04  0.30243577398E+04  0.25500000000E-02 0.  1.
         -2   -1    0    0    0  501 -0.00000000000E+00 -0.00000000000E+00 -0.15113275398E+02  0.15113275613E+02  0.25500000000E-02 0. -1.
    5000001    1    1    2    0    0  0.71529278052E+02  0.88770836250E+02  0.97810809490E+03  0.99845738231E+03  0.16500000000E+03 0.  0.
   -5000001    1    1    2    0    0 -0.71529278052E+02 -0.88770836250E+02  0.20311363695E+04  0.20410136331E+04  0.16500000000E+03 0.  0.
<mgrwt>
<rscale>  0 0.42758836E+03</rscale>
<asrwt>0</asrwt>
<pdfrwt beam="1">  1        2 0.46528580E+00 0.42758836E+03</pdfrwt>
<pdfrwt beam="2">  1       -2 0.23251193E-02 0.42758836E+03</pdfrwt>
<totfact> 0.12201579E+03</totfact>
</mgrwt>
</event>
<event>
 4    1  0.8984293E-005  0.1422844E+04  0.7818608E-02  0.8937447E-01
          2   -1    0    0  501    0  0.00000000000E+00  0.00000000000E+00  0.19234359043E+04  0.19234359043E+04  0.25500000000E-02 0.  1.
         -2   -1    0    0    0  501 -0.00000000000E+00 -0.00000000000E+00 -0.26313388642E+03  0.26313388643E+03  0.25500000000E-02 0. -1.
    5000001    1    1    2    0    0  0.34615747676E+03  0.41207811050E+03  0.16159357003E+03  0.58563713146E+03  0.16500000000E+03 0.  0.
   -5000001    1    1    2    0    0 -0.34615747676E+03 -0.41207811050E+03  0.14987084478E+04  0.16009326593E+04  0.16500000000E+03 0.  0.
<mgrwt>
<rscale>  0 0.14228439E+04</rscale>
<asrwt>0</asrwt>
<pdfrwt beam="1">  1        2 0.29591321E+00 0.14228439E+04</pdfrwt>
<pdfrwt beam="2">  1       -2 0.40482137E-01 0.14228439E+04</pdfrwt>
<totfact> 0.41379021E+01</totfact>
</mgrwt>
</event>
<event>
 4    1  0.8984293E-005  0.3448078E+03  0.7818608E-02  0.1064767E+00
         -2   -1    0    0    0  501 -0.00000000000E+00  0.00000000000E+00  0.16285743853E+02  0.16285744053E+02  0.25500000000E-02 0. -1.
          2   -1    0    0  501    0  0.00000000000E+00 -0.00000000000E+00 -0.18250995025E+04  0.18250995025E+04  0.25500000000E-02 0.  1.
    5000001    1    1    2    0    0  0.45274975881E+01  0.38574998349E+02 -0.73641363113E+03  0.75567093688E+03  0.16500000000E+03 0.  0.
   -5000001    1    1    2    0    0 -0.45274975881E+01 -0.38574998349E+02 -0.10724001275E+04  0.10857143096E+04  0.16500000000E+03 0.  0.
<mgrwt>
<rscale>  0 0.34480779E+03</rscale>
<asrwt>0</asrwt>
<pdfrwt beam="1">  1        2 0.28078438E+00 0.34480779E+03</pdfrwt>
<pdfrwt beam="2">  1       -2 0.25055005E-02 0.34480779E+03</pdfrwt>
<totfact> 0.50874715E+03</totfact>
</mgrwt>
</event>
<event>
 4    1  0.8984293E-005  0.3850394E+03  0.7818608E-02  0.1049087E+00
          2   -1    0    0  501    0  0.00000000000E+00  0.00000000000E+00  0.16168424823E+04  0.16168424823E+04  0.25500000000E-02 0.  1.
         -2   -1    0    0    0  501 -0.00000000000E+00 -0.00000000000E+00 -0.22923593785E+02  0.22923593927E+02  0.25500000000E-02 0. -1.
    5000001    1    1    2    0    0 -0.67230801479E+02 -0.59045430371E+02  0.97926433319E+03  0.99709075704E+03  0.16500000000E+03 0.  0.
   -5000001    1    1    2    0    0  0.67230801479E+02  0.59045430371E+02  0.61465455536E+03  0.64267531922E+03  0.16500000000E+03 0.  0.
<mgrwt>
<rscale>  0 0.38503943E+03</rscale>
<asrwt>0</asrwt>
<pdfrwt beam="1">  1        2 0.24874503E+00 0.38503943E+03</pdfrwt>
<pdfrwt beam="2">  1       -2 0.35267062E-02 0.38503943E+03</pdfrwt>
<totfact> 0.39306248E+03</totfact>
</mgrwt>
</event>
<event>
 4    1  0.8984293E-005  0.4176232E+03  0.7818608E-02  0.1037843E+00
          2   -1    0    0  501    0  0.00000000000E+00  0.00000000000E+00  0.42224409672E+02  0.42224409749E+02  0.25500000000E-02 0.  1.
         -2   -1    0    0    0  501 -0.00000000000E+00 -0.00000000000E+00 -0.10326323465E+04  0.10326323465E+04  0.25500000000E-02 0. -1.
    5000001    1    1    2    0    0  0.11476973135E+03  0.46843423971E+02 -0.41337281370E+03  0.46202649351E+03  0.16500000000E+03 0.  0.
   -5000001    1    1    2    0    0 -0.11476973135E+03 -0.46843423971E+02 -0.57703512311E+03  0.61283026272E+03  0.16500000000E+03 0.  0.
<mgrwt>
<rscale>  0 0.41762323E+03</rscale>
<asrwt>0</asrwt>
<pdfrwt beam="1">  1        2 0.64960638E-02 0.41762323E+03</pdfrwt>
<pdfrwt beam="2">  1       -2 0.15886650E+00 0.41762323E+03</pdfrwt>
<totfact> 0.30434496E+02</totfact>
</mgrwt>
</event>
<event>
 4    1  0.8984293E-005  0.4170920E+03  0.7818608E-02  0.1038017E+00
          2   -1    0    0  501    0  0.00000000000E+00  0.00000000000E+00  0.41704944460E+03  0.41704944460E+03  0.25500000000E-02 0.  1.
         -2   -1    0    0    0  501 -0.00000000000E+00 -0.00000000000E+00 -0.10428365005E+03  0.10428365008E+03  0.25500000000E-02 0. -1.
    5000001    1    1    2    0    0 -0.42898522865E+02 -0.11781225650E+03  0.12716495629E+03  0.24313769176E+03  0.16500000000E+03 0.  0.
   -5000001    1    1    2    0    0  0.42898522865E+02  0.11781225650E+03  0.18560083826E+03  0.27819540292E+03  0.16500000000E+03 0.  0.
<mgrwt>
<rscale>  0 0.41709202E+03</rscale>
<asrwt>0</asrwt>
<pdfrwt beam="1">  1        2 0.64161453E-01 0.41709202E+03</pdfrwt>
<pdfrwt beam="2">  1       -2 0.16043638E-01 0.41709202E+03</pdfrwt>
<totfact> 0.23471604E+03</totfact>
</mgrwt>
</event>
<event>
 4    1  0.8984293E-005  0.4547694E+03  0.7818608E-02  0.1026309E+00
          2   -1    0    0  501    0  0.00000000000E+00  0.00000000000E+00  0.39870531069E+03  0.39870531070E+03  0.25500000000E-02 0.  1.
         -2   -1    0    0    0  501 -0.00000000000E+00 -0.00000000000E+00 -0.12967921459E+03  0.12967921461E+03  0.25500000000E-02 0. -1.
    5000001    1    1    2    0    0 -0.45098493240E+02 -0.29492059494E+02  0.30517459117E+03  0.35108430151E+03  0.16500000000E+03 0.  0.
   -5000001    1    1    2    0    0  0.45098493240E+02  0.29492059494E+02 -0.36148495067E+02  0.17730022381E+03  0.16500000000E+03 0.  0.
<mgrwt>
<rscale>  0 0.45476935E+03</rscale>
<asrwt>0</asrwt>
<pdfrwt beam="1">  1        2 0.61339278E-01 0.45476935E+03</pdfrwt>
<pdfrwt beam="2">  1       -2 0.19950649E-01 0.45476935E+03</pdfrwt>
<totfact> 0.17023090E+03</totfact>
</mgrwt>
</event>
<event>
 4    1  0.8984293E-005  0.7779908E+03  0.7818608E-02  0.9592433E-01
          2   -1    0    0  501    0  0.00000000000E+00  0.00000000000E+00  0.19403314534E+04  0.19403314534E+04  0.25500000000E-02 0.  1.
         -2   -1    0    0    0  501 -0.00000000000E+00 -0.00000000000E+00 -0.77985338156E+02  0.77985338198E+02  0.25500000000E-02 0. -1.
    5000001    1    1    2    0    0  0.25726758565E+03  0.21645864463E+03  0.65844833417E+03  0.75750918426E+03  0.16500000000E+03 0.  0.
   -5000001    1    1    2    0    0 -0.25726758565E+03 -0.21645864463E+03  0.12038977811E+04  0.12608076073E+04  0.16500000000E+03 0.  0.
<mgrwt>
<rscale>  0 0.77799076E+03</rscale>
<asrwt>0</asrwt>
<pdfrwt beam="1">  1        2 0.29851250E+00 0.77799076E+03</pdfrwt>
<pdfrwt beam="2">  1       -2 0.11997745E-01 0.77799076E+03</pdfrwt>
<totfact> 0.37448927E+02</totfact>
</mgrwt>
</event>
<event>
 4    1  0.8984293E-005  0.3594656E+03  0.7818608E-02  0.1058796E+00
         -2   -1    0    0    0  501 -0.00000000000E+00  0.00000000000E+00  0.10544428789E+03  0.10544428792E+03  0.25500000000E-02 0. -1.
          2   -1    0    0  501    0  0.00000000000E+00 -0.00000000000E+00 -0.30635962094E+03  0.30635962095E+03  0.25500000000E-02 0.  1.
    5000001    1    1    2    0    0  0.48373497377E+02 -0.39068934905E+02 -0.60566826301E+02  0.18643958102E+03  0.16500000000E+03 0.  0.
   -5000001    1    1    2    0    0 -0.48373497377E+02  0.39068934905E+02 -0.14034850675E+03  0.22536432786E+03  0.16500000000E+03 0.  0.
<mgrwt>
<rscale>  0 0.35946556E+03</rscale>
<asrwt>0</asrwt>
<pdfrwt beam="1">  1        2 0.47132249E-01 0.35946556E+03</pdfrwt>
<pdfrwt beam="2">  1       -2 0.16222198E-01 0.35946556E+03</pdfrwt>
<totfact> 0.32222956E+03</totfact>
</mgrwt>
</event>
<event>
 4    1  0.8984293E-005  0.6776079E+03  0.7818608E-02  0.9756311E-01
          2   -1    0    0  501    0  0.00000000000E+00  0.00000000000E+00  0.37268448863E+04  0.37268448863E+04  0.25500000000E-02 0.  1.
         -2   -1    0    0    0  501 -0.00000000000E+00 -0.00000000000E+00 -0.30800343973E+02  0.30800344079E+02  0.25500000000E-02 0. -1.
    5000001    1    1    2    0    0 -0.26308518834E+03  0.59109347210E+02  0.25239170984E+04  0.25436372089E+04  0.16500000000E+03 0.  0.
   -5000001    1    1    2    0    0  0.26308518834E+03 -0.59109347210E+02  0.11721274440E+04  0.12140080215E+04  0.16500000000E+03 0.  0.
<mgrwt>
<rscale>  0 0.67760786E+03</rscale>
<asrwt>0</asrwt>
<pdfrwt beam="1">  1        2 0.57336127E+00 0.67760786E+03</pdfrwt>
<pdfrwt beam="2">  1       -2 0.47385102E-02 0.67760786E+03</pdfrwt>
<totfact> 0.13749775E+02</totfact>
</mgrwt>
</event>
<event>
 4    1  0.8984293E-005  0.4440932E+03  0.7818608E-02  0.1029498E+00
          2   -1    0    0  501    0  0.00000000000E+00  0.00000000000E+00  0.37313421836E+03  0.37313421836E+03  0.25500000000E-02 0.  1.
         -2   -1    0    0    0  501 -0.00000000000E+00 -0.00000000000E+00 -0.13213660676E+03  0.13213660678E+03  0.25500000000E-02 0. -1.
    5000001    1    1    2    0    0 -0.85514359173E+02  0.84115582778E+02  0.22028193510E+03  0.30022869254E+03  0.16500000000E+03 0.  0.
   -5000001    1    1    2    0    0  0.85514359173E+02 -0.84115582778E+02  0.20715676496E+02  0.20504213261E+03  0.16500000000E+03 0.  0.
<mgrwt>
<rscale>  0 0.44409319E+03</rscale>
<asrwt>0</asrwt>
<pdfrwt beam="1">  1        2 0.57405265E-01 0.44409319E+03</pdfrwt>
<pdfrwt beam="2">  1       -2 0.20328709E-01 0.44409319E+03</pdfrwt>
<totfact> 0.17726792E+03</totfact>
</mgrwt>
</event>
<event>
 4    1  0.8984293E-005  0.3732080E+03  0.7818608E-02  0.1053473E+00
          2   -1    0    0  501    0  0.00000000000E+00  0.00000000000E+00  0.81572985729E+03  0.81572985729E+03  0.25500000000E-02 0.  1.
         -2   -1    0    0    0  501 -0.00000000000E+00 -0.00000000000E+00 -0.42686982282E+02  0.42686982358E+02  0.25500000000E-02 0. -1.
    5000001    1    1    2    0    0  0.38997102406E+02 -0.73248650554E+02  0.44780558027E+03  0.48439753975E+03  0.16500000000E+03 0.  0.
   -5000001    1    1    2    0    0 -0.38997102406E+02  0.73248650554E+02  0.32523729474E+03  0.37401929990E+03  0.16500000000E+03 0.  0.
<mgrwt>
<rscale>  0 0.37320796E+03</rscale>
<asrwt>0</asrwt>
<pdfrwt beam="1">  1        2 0.12549690E+00 0.37320796E+03</pdfrwt>
<pdfrwt beam="2">  1       -2 0.65672280E-02 0.37320796E+03</pdfrwt>
<totfact> 0.44738954E+03</totfact>
</mgrwt>
</event>
<event>
 4    1  0.8984293E-005  0.3664747E+03  0.7818608E-02  0.1056049E+00
         -2   -1    0    0    0  501 -0.00000000000E+00  0.00000000000E+00  0.17467595346E+02  0.17467595532E+02  0.25500000000E-02 0. -1.
          2   -1    0    0  501    0  0.00000000000E+00 -0.00000000000E+00 -0.19221839321E+04  0.19221839321E+04  0.25500000000E-02 0.  1.
    5000001    1    1    2    0    0  0.61604574493E+02 -0.55848723612E+00 -0.68480058319E+03  0.70708717584E+03  0.16500000000E+03 0.  0.
   -5000001    1    1    2    0    0 -0.61604574493E+02  0.55848723612E+00 -0.12199157535E+04  0.12325643518E+04  0.16500000000E+03 0.  0.
<mgrwt>
<rscale>  0 0.36647473E+03</rscale>
<asrwt>0</asrwt>
<pdfrwt beam="1">  1        2 0.29572044E+00 0.36647473E+03</pdfrwt>
<pdfrwt beam="2">  1       -2 0.26873239E-02 0.36647473E+03</pdfrwt>
<totfact> 0.40687490E+03</totfact>
</mgrwt>
</event>
<event>
 4    1  0.8984293E-005  0.3640418E+03  0.7818608E-02  0.1056995E+00
          2   -1    0    0  501    0  0.00000000000E+00  0.00000000000E+00  0.17709383509E+03  0.17709383511E+03  0.25500000000E-02 0.  1.
         -2   -1    0    0    0  501 -0.00000000000E+00 -0.00000000000E+00 -0.18708500999E+03  0.18708501001E+03  0.25500000000E-02 0. -1.
    5000001    1    1    2    0    0 -0.21785220473E+02  0.25102571186E+02  0.64326010481E+02  0.18018759817E+03  0.16500000000E+03 0.  0.
   -5000001    1    1    2    0    0  0.21785220473E+02 -0.25102571186E+02 -0.74317185380E+02  0.18399124695E+03  0.16500000000E+03 0.  0.
<mgrwt>
<rscale>  0 0.36404177E+03</rscale>
<asrwt>0</asrwt>
<pdfrwt beam="1">  1        2 0.27245205E-01 0.36404177E+03</pdfrwt>
<pdfrwt beam="2">  1       -2 0.28782309E-01 0.36404177E+03</pdfrwt>
<totfact> 0.21652875E+03</totfact>
</mgrwt>
</event>
<event>
 4    1  0.8984293E-005  0.5918226E+03  0.7818608E-02  0.9922518E-01
          2   -1    0    0  501    0  0.00000000000E+00  0.00000000000E+00  0.18632994470E+04  0.18632994470E+04  0.25500000000E-02 0.  1.
         -2   -1    0    0    0  501 -0.00000000000E+00 -0.00000000000E+00 -0.46993793820E+02  0.46993793889E+02  0.25500000000E-02 0. -1.
    5000001    1    1    2    0    0  0.17080277703E+03  0.11134714691E+02  0.33946243393E+03  0.41443614051E+03  0.16500000000E+03 0.  0.
   -5000001    1    1    2    0    0 -0.17080277703E+03 -0.11134714691E+02  0.14768432192E+04  0.14958571003E+04  0.16500000000E+03 0.  0.
<mgrwt>
<rscale>  0 0.59182264E+03</rscale>
<asrwt>0</asrwt>
<pdfrwt beam="1">  1        2 0.28666144E+00 0.59182264E+03</pdfrwt>
<pdfrwt beam="2">  1       -2 0.72298149E-02 0.59182264E+03</pdfrwt>
<totfact> 0.94716021E+02</totfact>
</mgrwt>
</event>
<event>
 4    1  0.8984293E-005  0.4103149E+03  0.7818608E-02  0.1040265E+00
         -2   -1    0    0    0  501 -0.00000000000E+00  0.00000000000E+00  0.15794575195E+03  0.15794575197E+03  0.25500000000E-02 0.  1.
          2   -1    0    0  501    0  0.00000000000E+00 -0.00000000000E+00 -0.26648125723E+03  0.26648125725E+03  0.25500000000E-02 0. -1.
    5000001    1    1    2    0    0 -0.98525906237E+02 -0.69668417069E+02 -0.36246138301E+02  0.20760497364E+03  0.16500000000E+03 0.  0.
   -5000001    1    1    2    0    0  0.98525906237E+02  0.69668417069E+02 -0.72289366980E+02  0.21682203558E+03  0.16500000000E+03 0.  0.
<mgrwt>
<rscale>  0 0.41031492E+03</rscale>
<asrwt>0</asrwt>
<pdfrwt beam="1">  1        2 0.40997116E-01 0.41031492E+03</pdfrwt>
<pdfrwt beam="2">  1       -2 0.24299346E-01 0.41031492E+03</pdfrwt>
<totfact> 0.18727466E+03</totfact>
</mgrwt>
</event>
<event>
 4    1  0.8984293E-005  0.3667966E+03  0.7818608E-02  0.1055925E+00
         -2   -1    0    0    0  501 -0.00000000000E+00  0.00000000000E+00  0.17589906405E+03  0.17589906407E+03  0.25500000000E-02 0. -1.
          2   -1    0    0  501    0  0.00000000000E+00 -0.00000000000E+00 -0.19121722791E+03  0.19121722792E+03  0.25500000000E-02 0.  1.
    5000001    1    1    2    0    0  0.78389117029E+02  0.44701690219E+01  0.80100855159E+01  0.18290433989E+03  0.16500000000E+03 0.  0.
   -5000001    1    1    2    0    0 -0.78389117029E+02 -0.44701690219E+01 -0.23328249373E+02  0.18421195211E+03  0.16500000000E+03 0.  0.
<mgrwt>
<rscale>  0 0.36679657E+03</rscale>
<asrwt>0</asrwt>
<pdfrwt beam="1">  1        2 0.29418035E-01 0.36679657E+03</pdfrwt>
<pdfrwt beam="2">  1       -2 0.27061395E-01 0.36679657E+03</pdfrwt>
<totfact> 0.22225570E+03</totfact>
</mgrwt>
</event>
<event>
 4    1  0.8984293E-005  0.3623013E+03  0.7818608E-02  0.1057676E+00
          2   -1    0    0  501    0  0.00000000000E+00  0.00000000000E+00  0.49028898660E+03  0.49028898661E+03  0.25500000000E-02 0.  1.
         -2   -1    0    0    0  501 -0.00000000000E+00 -0.00000000000E+00 -0.66931056052E+02  0.66931056101E+02  0.25500000000E-02 0. -1.
    5000001    1    1    2    0    0  0.38691697580E+02  0.30066810783E+02  0.29853861365E+03  0.34460319850E+03  0.16500000000E+03 0.  0.
   -5000001    1    1    2    0    0 -0.38691697580E+02 -0.30066810783E+02  0.12481931690E+03  0.21261684421E+03  0.16500000000E+03 0.  0.
<mgrwt>
<rscale>  0 0.36230131E+03</rscale>
<asrwt>0</asrwt>
<pdfrwt beam="1">  1        2 0.75429074E-01 0.36230131E+03</pdfrwt>
<pdfrwt beam="2">  1       -2 0.10297086E-01 0.36230131E+03</pdfrwt>
<totfact> 0.40477825E+03</totfact>
</mgrwt>
</event>
<event>
 4    1  0.8984293E-005  0.5969968E+03  0.7818608E-02  0.9911656E-01
          2   -1    0    0  501    0  0.00000000000E+00  0.00000000000E+00  0.13410685412E+04  0.13410685413E+04  0.25500000000E-02 0.  1.
         -2   -1    0    0    0  501 -0.00000000000E+00 -0.00000000000E+00 -0.66440519690E+02  0.66440519739E+02  0.25500000000E-02 0. -1.
    5000001    1    1    2    0    0 -0.21533596468E+03  0.93291869319E+02  0.83177849799E+03  0.87985988673E+03  0.16500000000E+03 0.  0.
   -5000001    1    1    2    0    0  0.21533596468E+03 -0.93291869319E+02  0.44284952357E+03  0.52764917426E+03  0.16500000000E+03 0.  0.
<mgrwt>
<rscale>  0 0.59699679E+03</rscale>
<asrwt>0</asrwt>
<pdfrwt beam="1">  1        2 0.20631824E+00 0.59699679E+03</pdfrwt>
<pdfrwt beam="2">  1       -2 0.10221618E-01 0.59699679E+03</pdfrwt>
<totfact> 0.10517546E+03</totfact>
</mgrwt>
</event>
<event>
 4    1  0.8984293E-005  0.5094745E+03  0.7818608E-02  0.1011335E+00
         -2   -1    0    0    0  501 -0.00000000000E+00  0.00000000000E+00  0.17647869440E+02  0.17647869624E+02  0.25500000000E-02 0. -1.
          2   -1    0    0  501    0  0.00000000000E+00 -0.00000000000E+00 -0.36769907954E+04  0.36769907954E+04  0.25500000000E-02 0.  1.
    5000001    1    1    2    0    0 -0.16362411671E+03  0.29854382833E+02 -0.11044156667E+04  0.11289920729E+04  0.16500000000E+03 0.  0.
   -5000001    1    1    2    0    0  0.16362411671E+03 -0.29854382833E+02 -0.25549272592E+04  0.25656465921E+04  0.16500000000E+03 0.  0.
<mgrwt>
<rscale>  0 0.50947445E+03</rscale>
<asrwt>0</asrwt>
<pdfrwt beam="1">  1        2 0.56569028E+00 0.50947445E+03</pdfrwt>
<pdfrwt beam="2">  1       -2 0.27150598E-02 0.50947445E+03</pdfrwt>
<totfact> 0.35897957E+02</totfact>
</mgrwt>
</event>
<event>
 4    1  0.8984293E-005  0.3817725E+03  0.7818608E-02  0.1050281E+00
          2   -1    0    0  501    0  0.00000000000E+00  0.00000000000E+00  0.36917086928E+04  0.36917086928E+04  0.25500000000E-02 0.  1.
         -2   -1    0    0    0  501 -0.00000000000E+00 -0.00000000000E+00 -0.98701056395E+01  0.98701059689E+01  0.25500000000E-02 0. -1.
    5000001    1    1    2    0    0 -0.92132399608E+02  0.24863319453E+02  0.17410991269E+04  0.17515015653E+04  0.16500000000E+03 0.  0.
   -5000001    1    1    2    0    0  0.92132399608E+02 -0.24863319453E+02  0.19407394603E+04  0.19500772334E+04  0.16500000000E+03 0.  0.
<mgrwt>
<rscale>  0 0.38177247E+03</rscale>
<asrwt>0</asrwt>
<pdfrwt beam="1">  1        2 0.56795632E+00 0.38177247E+03</pdfrwt>
<pdfrwt beam="2">  1       -2 0.15184748E-02 0.38177247E+03</pdfrwt>
<totfact> 0.85218350E+02</totfact>
</mgrwt>
</event>
<event>
 4    1  0.8984293E-005  0.5724942E+03  0.7818608E-02  0.9964174E-01
          2   -1    0    0  501    0  0.00000000000E+00  0.00000000000E+00  0.59814970548E+03  0.59814970548E+03  0.25500000000E-02 0.  1.
         -2   -1    0    0    0  501 -0.00000000000E+00 -0.00000000000E+00 -0.13698478083E+03  0.13698478085E+03  0.25500000000E-02 0. -1.
    5000001    1    1    2    0    0 -0.11060016508E+03 -0.16333658477E+03  0.39199613375E+03  0.46882534628E+03  0.16500000000E+03 0.  0.
   -5000001    1    1    2    0    0  0.11060016508E+03  0.16333658477E+03  0.69168790898E+02  0.26630914005E+03  0.16500000000E+03 0.  0.
<mgrwt>
<rscale>  0 0.57249421E+03</rscale>
<asrwt>0</asrwt>
<pdfrwt beam="1">  1        2 0.92023033E-01 0.57249421E+03</pdfrwt>
<pdfrwt beam="2">  1       -2 0.21074581E-01 0.57249421E+03</pdfrwt>
<totfact> 0.97231561E+02</totfact>
</mgrwt>
</event>
<event>
 4    1  0.8984293E-005  0.5011271E+03  0.7818608E-02  0.1013485E+00
         -2   -1    0    0    0  501 -0.00000000000E+00  0.00000000000E+00  0.44180651228E+02  0.44180651301E+02  0.25500000000E-02 0. -1.
          2   -1    0    0  501    0  0.00000000000E+00 -0.00000000000E+00 -0.14210312891E+04  0.14210312891E+04  0.25500000000E-02 0.  1.
    5000001    1    1    2    0    0 -0.16937489509E+03 -0.69436064944E+02 -0.55611207890E+03  0.60827203330E+03  0.16500000000E+03 0.  0.
   -5000001    1    1    2    0    0  0.16937489509E+03  0.69436064944E+02 -0.82073855901E+03  0.85693990714E+03  0.16500000000E+03 0.  0.
<mgrwt>
<rscale>  0 0.50112708E+03</rscale>
<asrwt>0</asrwt>
<pdfrwt beam="1">  1        2 0.21862016E+00 0.50112708E+03</pdfrwt>
<pdfrwt beam="2">  1       -2 0.67970244E-02 0.50112708E+03</pdfrwt>
<totfact> 0.18257480E+03</totfact>
</mgrwt>
</event>
<event>
 4    1  0.8984293E-005  0.1023106E+04  0.7818608E-02  0.9283560E-01
         -2   -1    0    0    0  501 -0.00000000000E+00  0.00000000000E+00  0.25230252165E+04  0.25230252165E+04  0.25500000000E-02 0. -1.
          2   -1    0    0  501    0  0.00000000000E+00 -0.00000000000E+00 -0.10371923556E+03  0.10371923559E+03  0.25500000000E-02 0.  1.
    5000001    1    1    2    0    0 -0.30347688555E+03  0.37729874705E+03  0.12020879221E+04  0.13064045840E+04  0.16500000000E+03 0.  0.
   -5000001    1    1    2    0    0  0.30347688555E+03 -0.37729874705E+03  0.12172180588E+04  0.13203398681E+04  0.16500000000E+03 0.  0.
<mgrwt>
<rscale>  0 0.10231056E+04</rscale>
<asrwt>0</asrwt>
<pdfrwt beam="1">  1        2 0.15956807E-01 0.10231056E+04</pdfrwt>
<pdfrwt beam="2">  1       -2 0.38815768E+00 0.10231056E+04</pdfrwt>
<totfact> 0.33870780E+00</totfact>
</mgrwt>
</event>
<event>
 4    1  0.8984293E-005  0.6556456E+03  0.7818608E-02  0.9796243E-01
         -2   -1    0    0    0  501 -0.00000000000E+00  0.00000000000E+00  0.11960075826E+03  0.11960075829E+03  0.25500000000E-02 0. -1.
          2   -1    0    0  501    0  0.00000000000E+00 -0.00000000000E+00 -0.89855439334E+03  0.89855439334E+03  0.25500000000E-02 0.  1.
    5000001    1    1    2    0    0  0.19119923792E+03 -0.84501784712E+02 -0.68634203262E+03  0.73619840121E+03  0.16500000000E+03 0.  0.
   -5000001    1    1    2    0    0 -0.19119923792E+03  0.84501784712E+02 -0.92611602460E+02  0.28195675043E+03  0.16500000000E+03 0.  0.
<mgrwt>
<rscale>  0 0.65564560E+03</rscale>
<asrwt>0</asrwt>
<pdfrwt beam="1">  1        2 0.13823913E+00 0.65564560E+03</pdfrwt>
<pdfrwt beam="2">  1       -2 0.18400117E-01 0.65564560E+03</pdfrwt>
<totfact> 0.73017382E+02</totfact>
</mgrwt>
</event>
<event>
 4    1  0.8984293E-005  0.4621213E+03  0.7818608E-02  0.1024168E+00
         -2   -1    0    0    0  501 -0.00000000000E+00  0.00000000000E+00  0.97891828623E+02  0.97891828656E+02  0.25500000000E-02 0. -1.
          2   -1    0    0  501    0  0.00000000000E+00 -0.00000000000E+00 -0.54538787204E+03  0.54538787205E+03  0.25500000000E-02 0.  1.
    5000001    1    1    2    0    0 -0.12823602874E+03  0.94022604606E+02 -0.26502512263E+03  0.35035417062E+03  0.16500000000E+03 0.  0.
   -5000001    1    1    2    0    0  0.12823602874E+03 -0.94022604606E+02 -0.18247092079E+03  0.29292553009E+03  0.16500000000E+03 0.  0.
<mgrwt>
<rscale>  0 0.46212127E+03</rscale>
<asrwt>0</asrwt>
<pdfrwt beam="1">  1        2 0.83905825E-01 0.46212127E+03</pdfrwt>
<pdfrwt beam="2">  1       -2 0.15060282E-01 0.46212127E+03</pdfrwt>
<totfact> 0.19277524E+03</totfact>
</mgrwt>
</event>
<event>
 4    1  0.8984293E-005  0.6927905E+03  0.7818608E-02  0.9729641E-01
         -2   -1    0    0    0  501 -0.00000000000E+00  0.00000000000E+00  0.48765176262E+03  0.48765176263E+03  0.25500000000E-02 0. -1.
          2   -1    0    0  501    0  0.00000000000E+00 -0.00000000000E+00 -0.24605605994E+03  0.24605605995E+03  0.25500000000E-02 0.  1.
    5000001    1    1    2    0    0 -0.12238219195E+03  0.27642205716E+03  0.81482312990E+02  0.35390806987E+03  0.16500000000E+03 0.  0.
   -5000001    1    1    2    0    0  0.12238219195E+03 -0.27642205716E+03  0.16011338970E+03  0.37979975270E+03  0.16500000000E+03 0.  0.
<mgrwt>
<rscale>  0 0.69279051E+03</rscale>
<asrwt>0</asrwt>
<pdfrwt beam="1">  1        2 0.37854779E-01 0.69279051E+03</pdfrwt>
<pdfrwt beam="2">  1       -2 0.75023347E-01 0.69279051E+03</pdfrwt>
<totfact> 0.22078817E+02</totfact>
</mgrwt>
</event>
<event>
 4    1  0.8984293E-005  0.4726554E+03  0.7818608E-02  0.1021173E+00
         -2   -1    0    0    0  501 -0.00000000000E+00  0.00000000000E+00  0.19865569892E+02  0.19865570056E+02  0.25500000000E-02 0. -1.
          2   -1    0    0  501    0  0.00000000000E+00 -0.00000000000E+00 -0.28114355669E+04  0.28114355669E+04  0.25500000000E-02 0.  1.
    5000001    1    1    2    0    0  0.15906902252E+03 -0.19658753407E+02 -0.17203826372E+04  0.17356931869E+04  0.16500000000E+03 0.  0.
   -5000001    1    1    2    0    0 -0.15906902252E+03  0.19658753407E+02 -0.10711873597E+04  0.10956079500E+04  0.16500000000E+03 0.  0.
<mgrwt>
<rscale>  0 0.47265535E+03</rscale>
<asrwt>0</asrwt>
<pdfrwt beam="1">  1        2 0.43252823E+00 0.47265535E+03</pdfrwt>
<pdfrwt beam="2">  1       -2 0.30562438E-02 0.47265535E+03</pdfrwt>
<totfact> 0.10767465E+03</totfact>
</mgrwt>
</event>
<event>
 4    1  0.8984293E-005  0.4013068E+03  0.7818608E-02  0.1043328E+00
         -2   -1    0    0    0  501 -0.00000000000E+00  0.00000000000E+00  0.56435453530E+03  0.56435453531E+03  0.25500000000E-02 0. -1.
          2   -1    0    0  501    0  0.00000000000E+00 -0.00000000000E+00 -0.71341306068E+02  0.71341306113E+02  0.25500000000E-02 0.  1.
    5000001    1    1    2    0    0  0.63723264056E+02 -0.70629748832E+02  0.34653590928E+03  0.39542553310E+03  0.16500000000E+03 0.  0.
   -5000001    1    1    2    0    0 -0.63723264056E+02  0.70629748832E+02  0.14647731995E+03  0.24027030832E+03  0.16500000000E+03 0.  0.
<mgrwt>
<rscale>  0 0.40130681E+03</rscale>
<asrwt>0</asrwt>
<pdfrwt beam="1">  1        2 0.10975585E-01 0.40130681E+03</pdfrwt>
<pdfrwt beam="2">  1       -2 0.86823776E-01 0.40130681E+03</pdfrwt>
<totfact> 0.68093566E+02</totfact>
</mgrwt>
</event>
<event>
 4    1  0.8984293E-005  0.4245114E+03  0.7818608E-02  0.1035608E+00
          2   -1    0    0  501    0  0.00000000000E+00  0.00000000000E+00  0.34337330678E+03  0.34337330679E+03  0.25500000000E-02 0.  1.
         -2   -1    0    0    0  501 -0.00000000000E+00 -0.00000000000E+00 -0.13120556206E+03  0.13120556209E+03  0.25500000000E-02 0. -1.
    5000001    1    1    2    0    0  0.66876248552E+01  0.85530519345E+02 -0.82924733583E+01  0.18615573905E+03  0.16500000000E+03 0.  0.
   -5000001    1    1    2    0    0 -0.66876248552E+01 -0.85530519345E+02  0.22046021808E+03  0.28842312983E+03  0.16500000000E+03 0.  0.
<mgrwt>
<rscale>  0 0.42451143E+03</rscale>
<asrwt>0</asrwt>
<pdfrwt beam="1">  1        2 0.52826662E-01 0.42451143E+03</pdfrwt>
<pdfrwt beam="2">  1       -2 0.20185471E-01 0.42451143E+03</pdfrwt>
<totfact> 0.19654823E+03</totfact>
</mgrwt>
</event>
<event>
 4    1  0.8984293E-005  0.7284988E+03  0.7818608E-02  0.9669700E-01
          2   -1    0    0  501    0  0.00000000000E+00  0.00000000000E+00  0.59230652486E+03  0.59230652486E+03  0.25500000000E-02 0.  1.
         -2   -1    0    0    0  501 -0.00000000000E+00 -0.00000000000E+00 -0.22400163185E+03  0.22400163186E+03  0.25500000000E-02 0. -1.
    5000001    1    1    2    0    0 -0.39717411156E+02  0.30209549816E+03  0.30999934027E+03  0.46493413913E+03  0.16500000000E+03 0.  0.
   -5000001    1    1    2    0    0  0.39717411156E+02 -0.30209549816E+03  0.58305552739E+02  0.35137401759E+03  0.16500000000E+03 0.  0.
<mgrwt>
<rscale>  0 0.72849881E+03</rscale>
<asrwt>0</asrwt>
<pdfrwt beam="1">  1        2 0.91124080E-01 0.72849881E+03</pdfrwt>
<pdfrwt beam="2">  1       -2 0.34461790E-01 0.72849881E+03</pdfrwt>
<totfact> 0.40016939E+02</totfact>
</mgrwt>
</event>
<event>
 4    1  0.8984293E-005  0.7601941E+03  0.7818608E-02  0.9619492E-01
         -2   -1    0    0    0  501 -0.00000000000E+00  0.00000000000E+00  0.79350055789E+02  0.79350055830E+02  0.25500000000E-02 0. -1.
          2   -1    0    0  501    0  0.00000000000E+00 -0.00000000000E+00 -0.18207142987E+04  0.18207142987E+04  0.25500000000E-02 0.  1.
    5000001    1    1    2    0    0  0.16088570064E+03  0.30284709161E+00 -0.11518556254E+03  0.25763736958E+03  0.16500000000E+03 0.  0.
   -5000001    1    1    2    0    0 -0.16088570064E+03 -0.30284709161E+00 -0.16261786804E+04  0.16424269850E+04  0.16500000000E+03 0.  0.
<mgrwt>
<rscale>  0 0.76019414E+03</rscale>
<asrwt>0</asrwt>
<pdfrwt beam="1">  1        2 0.28010986E+00 0.76019414E+03</pdfrwt>
<pdfrwt beam="2">  1       -2 0.12207702E-01 0.76019414E+03</pdfrwt>
<totfact> 0.42337989E+02</totfact>
</mgrwt>
</event>
<event>
 4    1  0.8984293E-005  0.1018777E+04  0.7818608E-02  0.9288187E-01
         -2   -1    0    0    0  501 -0.00000000000E+00  0.00000000000E+00  0.14166931999E+03  0.14166932001E+03  0.25500000000E-02 0. -1.
          2   -1    0    0  501    0  0.00000000000E+00 -0.00000000000E+00 -0.18315645459E+04  0.18315645459E+04  0.25500000000E-02 0.  1.
    5000001    1    1    2    0    0 -0.26463990927E+03  0.28259014357E+03 -0.28909736737E+03  0.51058178448E+03  0.16500000000E+03 0.  0.
   -5000001    1    1    2    0    0  0.26463990927E+03 -0.28259014357E+03 -0.14007978585E+04  0.14626520814E+04  0.16500000000E+03 0.  0.
<mgrwt>
<rscale>  0 0.10187767E+04</rscale>
<asrwt>0</asrwt>
<pdfrwt beam="1">  1        2 0.28177914E+00 0.10187767E+04</pdfrwt>
<pdfrwt beam="2">  1       -2 0.21795281E-01 0.10187767E+04</pdfrwt>
<totfact> 0.15197399E+02</totfact>
</mgrwt>
</event>
<event>
 4    1  0.8984293E-005  0.7704672E+03  0.7818608E-02  0.9603777E-01
         -2   -1    0    0    0  501 -0.00000000000E+00  0.00000000000E+00  0.35903816457E+03  0.35903816458E+03  0.25500000000E-02 0.  1.
          2   -1    0    0  501    0  0.00000000000E+00 -0.00000000000E+00 -0.41334027052E+03  0.41334027053E+03  0.25500000000E-02 0. -1.
    5000001    1    1    2    0    0  0.21717524336E+03 -0.28564794862E+02  0.24407302967E+03  0.36712079435E+03  0.16500000000E+03 0.  0.
   -5000001    1    1    2    0    0 -0.21717524336E+03  0.28564794862E+02 -0.29837513563E+03  0.40525764076E+03  0.16500000000E+03 0.  0.
<mgrwt>
<rscale>  0 0.77046721E+03</rscale>
<asrwt>0</asrwt>
<pdfrwt beam="1">  1        2 0.63590811E-01 0.77046721E+03</pdfrwt>
<pdfrwt beam="2">  1       -2 0.55236641E-01 0.77046721E+03</pdfrwt>
<totfact> 0.23803913E+02</totfact>
</mgrwt>
</event>
<event>
 4    1  0.8984293E-005  0.5439122E+03  0.7818608E-02  0.1002913E+00
         -2   -1    0    0    0  501 -0.00000000000E+00  0.00000000000E+00  0.48554914490E+02  0.48554914557E+02  0.25500000000E-02 0. -1.
          2   -1    0    0  501    0  0.00000000000E+00 -0.00000000000E+00 -0.15232259710E+04  0.15232259710E+04  0.25500000000E-02 0.  1.
    5000001    1    1    2    0    0 -0.78862899691E+02 -0.12709623181E+03 -0.11883831172E+04  0.12090708178E+04  0.16500000000E+03 0.  0.
   -5000001    1    1    2    0    0  0.78862899691E+02  0.12709623181E+03 -0.28628793924E+03  0.36271006774E+03  0.16500000000E+03 0.  0.
<mgrwt>
<rscale>  0 0.54391215E+03</rscale>
<asrwt>0</asrwt>
<pdfrwt beam="1">  1        2 0.23434242E+00 0.54391215E+03</pdfrwt>
<pdfrwt beam="2">  1       -2 0.74699880E-02 0.54391215E+03</pdfrwt>
<totfact> 0.13794448E+03</totfact>
</mgrwt>
</event>
<event>
 4    1  0.8984293E-005  0.1450403E+04  0.7818608E-02  0.8918121E-01
         -2   -1    0    0    0  501 -0.00000000000E+00  0.00000000000E+00  0.25580024952E+04  0.25580024952E+04  0.25500000000E-02 0. -1.
          2   -1    0    0  501    0  0.00000000000E+00 -0.00000000000E+00 -0.20559689290E+03  0.20559689292E+03  0.25500000000E-02 0.  1.
    5000001    1    1    2    0    0 -0.31621556496E+03  0.62288205507E+03  0.97894065179E+03  0.12138880252E+04  0.16500000000E+03 0.  0.
   -5000001    1    1    2    0    0  0.31621556496E+03 -0.62288205507E+03  0.13734649505E+04  0.15497113629E+04  0.16500000000E+03 0.  0.
<mgrwt>
<rscale>  0 0.14504032E+04</rscale>
<asrwt>0</asrwt>
<pdfrwt beam="1">  1        2 0.31630291E-01 0.14504032E+04</pdfrwt>
<pdfrwt beam="2">  1       -2 0.39353885E+00 0.14504032E+04</pdfrwt>
<totfact> 0.13443362E+00</totfact>
</mgrwt>
</event>
<event>
 4    1  0.8984293E-005  0.6011427E+03  0.7818608E-02  0.9903038E-01
         -2   -1    0    0    0  501 -0.00000000000E+00  0.00000000000E+00  0.33482680410E+02  0.33482680507E+02  0.25500000000E-02 0. -1.
          2   -1    0    0  501    0  0.00000000000E+00 -0.00000000000E+00 -0.26982052945E+04  0.26982052945E+04  0.25500000000E-02 0.  1.
    5000001    1    1    2    0    0 -0.17769741027E+03 -0.42484878536E+02 -0.21159726044E+04  0.21302456190E+04  0.16500000000E+03 0.  0.
   -5000001    1    1    2    0    0  0.17769741027E+03  0.42484878536E+02 -0.54875000973E+03  0.60144235609E+03  0.16500000000E+03 0.  0.
<mgrwt>
<rscale>  0 0.60114273E+03</rscale>
<asrwt>0</asrwt>
<pdfrwt beam="1">  1        2 0.41510834E+00 0.60114273E+03</pdfrwt>
<pdfrwt beam="2">  1       -2 0.51511837E-02 0.60114273E+03</pdfrwt>
<totfact> 0.55571796E+02</totfact>
</mgrwt>
</event>
<event>
 4    1  0.8984293E-005  0.3516016E+03  0.7818608E-02  0.1061960E+00
         -2   -1    0    0    0  501 -0.00000000000E+00  0.00000000000E+00  0.19293402048E+02  0.19293402216E+02  0.25500000000E-02 0. -1.
          2   -1    0    0  501    0  0.00000000000E+00 -0.00000000000E+00 -0.16018909119E+04  0.16018909119E+04  0.25500000000E-02 0.  1.
    5000001    1    1    2    0    0 -0.21330196814E+02 -0.44684232339E+02 -0.95295956166E+03  0.96840517558E+03  0.16500000000E+03 0.  0.
   -5000001    1    1    2    0    0  0.21330196814E+02  0.44684232339E+02 -0.62963794815E+03  0.65277913851E+03  0.16500000000E+03 0.  0.
<mgrwt>
<rscale>  0 0.35160162E+03</rscale>
<asrwt>0</asrwt>
<pdfrwt beam="1">  1        2 0.24644465E+00 0.35160162E+03</pdfrwt>
<pdfrwt beam="2">  1       -2 0.29682170E-02 0.35160162E+03</pdfrwt>
<totfact> 0.51906151E+03</totfact>
</mgrwt>
</event>
<event>
 4    1  0.8984293E-005  0.5172261E+03  0.7818608E-02  0.1009378E+00
         -2   -1    0    0    0  501 -0.00000000000E+00  0.00000000000E+00  0.30167903168E+02  0.30167903276E+02  0.25500000000E-02 0. -1.
          2   -1    0    0  501    0  0.00000000000E+00 -0.00000000000E+00 -0.22169492424E+04  0.22169492424E+04  0.25500000000E-02 0.  1.
    5000001    1    1    2    0    0  0.82865063801E+02 -0.15952213085E+03 -0.14656503478E+04  0.14858229608E+04  0.16500000000E+03 0.  0.
   -5000001    1    1    2    0    0 -0.82865063801E+02  0.15952213085E+03 -0.72113099149E+03  0.76129418487E+03  0.16500000000E+03 0.  0.
<mgrwt>
<rscale>  0 0.51722610E+03</rscale>
<asrwt>0</asrwt>
<pdfrwt beam="1">  1        2 0.34106899E+00 0.51722610E+03</pdfrwt>
<pdfrwt beam="2">  1       -2 0.46412176E-02 0.51722610E+03</pdfrwt>
<totfact> 0.12232863E+03</totfact>
</mgrwt>
</event>
<event>
 4    1  0.8984293E-005  0.8978297E+03  0.7818608E-02  0.9428298E-01
          2   -1    0    0  501    0  0.00000000000E+00  0.00000000000E+00  0.42200655609E+03  0.42200655610E+03  0.25500000000E-02 0.  1.
         -2   -1    0    0    0  501 -0.00000000000E+00 -0.00000000000E+00 -0.47753887668E+03  0.47753887669E+03  0.25500000000E-02 0. -1.
    5000001    1    1    2    0    0  0.25158222449E+03 -0.14887157310E+03 -0.32640148558E+03  0.46820859747E+03  0.16500000000E+03 0.  0.
   -5000001    1    1    2    0    0 -0.25158222449E+03  0.14887157310E+03  0.27086916499E+03  0.43133683532E+03  0.16500000000E+03 0.  0.
<mgrwt>
<rscale>  0 0.89782969E+03</rscale>
<asrwt>0</asrwt>
<pdfrwt beam="1">  1        2 0.64924085E-01 0.89782969E+03</pdfrwt>
<pdfrwt beam="2">  1       -2 0.73467520E-01 0.89782969E+03</pdfrwt>
<totfact> 0.12560533E+02</totfact>
</mgrwt>
</event>
<event>
 4    1  0.8984293E-005  0.3744157E+03  0.7818608E-02  0.1053017E+00
         -2   -1    0    0    0  501 -0.00000000000E+00  0.00000000000E+00  0.12103658665E+03  0.12103658668E+03  0.25500000000E-02 0. -1.
          2   -1    0    0  501    0  0.00000000000E+00 -0.00000000000E+00 -0.28955525782E+03  0.28955525783E+03  0.25500000000E-02 0.  1.
    5000001    1    1    2    0    0  0.20767442971E+02  0.51394204453E+02 -0.15983174182E+03  0.23631300563E+03  0.16500000000E+03 0.  0.
   -5000001    1    1    2    0    0 -0.20767442971E+02 -0.51394204453E+02 -0.86869293455E+01  0.17427883888E+03  0.16500000000E+03 0.  0.
<mgrwt>
<rscale>  0 0.37441571E+03</rscale>
<asrwt>0</asrwt>
<pdfrwt beam="1">  1        2 0.44546962E-01 0.37441571E+03</pdfrwt>
<pdfrwt beam="2">  1       -2 0.18621013E-01 0.37441571E+03</pdfrwt>
<totfact> 0.27148651E+03</totfact>
</mgrwt>
</event>
<event>
 4    1  0.8984293E-005  0.4450349E+03  0.7818608E-02  0.1029213E+00
          2   -1    0    0  501    0  0.00000000000E+00  0.00000000000E+00  0.93324013717E+02  0.93324013752E+02  0.25500000000E-02 0.  1.
         -2   -1    0    0    0  501 -0.00000000000E+00 -0.00000000000E+00 -0.53056032249E+03  0.53056032250E+03  0.25500000000E-02 0. -1.
    5000001    1    1    2    0    0 -0.91428853662E+02 -0.24446847073E+02 -0.38048572639E+03  0.42538367576E+03  0.16500000000E+03 0.  0.
   -5000001    1    1    2    0    0  0.91428853662E+02  0.24446847073E+02 -0.56750582379E+02  0.19850066049E+03  0.16500000000E+03 0.  0.
<mgrwt>
<rscale>  0 0.44503491E+03</rscale>
<asrwt>0</asrwt>
<pdfrwt beam="1">  1        2 0.14357541E-01 0.44503491E+03</pdfrwt>
<pdfrwt beam="2">  1       -2 0.81624663E-01 0.44503491E+03</pdfrwt>
<totfact> 0.56281840E+02</totfact>
</mgrwt>
</event>
<event>
 4    1  0.8984293E-005  0.4401375E+03  0.7818608E-02  0.1030705E+00
          2   -1    0    0  501    0  0.00000000000E+00  0.00000000000E+00  0.16367213374E+03  0.16367213376E+03  0.25500000000E-02 0.  1.
         -2   -1    0    0    0  501 -0.00000000000E+00 -0.00000000000E+00 -0.29589803697E+03  0.29589803698E+03  0.25500000000E-02 0. -1.
    5000001    1    1    2    0    0  0.83291649916E+02  0.11827930228E+03 -0.83515254067E+02  0.23479201425E+03  0.16500000000E+03 0.  0.
   -5000001    1    1    2    0    0 -0.83291649916E+02 -0.11827930228E+03 -0.48710649156E+02  0.22477815649E+03  0.16500000000E+03 0.  0.
<mgrwt>
<rscale>  0 0.44013754E+03</rscale>
<asrwt>0</asrwt>
<pdfrwt beam="1">  1        2 0.25180328E-01 0.44013754E+03</pdfrwt>
<pdfrwt beam="2">  1       -2 0.45522775E-01 0.44013754E+03</pdfrwt>
<totfact> 0.99519828E+02</totfact>
</mgrwt>
</event>
<event>
 4    1  0.8984293E-005  0.4077669E+03  0.7818608E-02  0.1041123E+00
         -2   -1    0    0    0  501 -0.00000000000E+00  0.00000000000E+00  0.23216023097E+03  0.23216023098E+03  0.25500000000E-02 0. -1.
          2   -1    0    0  501    0  0.00000000000E+00 -0.00000000000E+00 -0.17905078178E+03  0.17905078180E+03  0.25500000000E-02 0.  1.
    5000001    1    1    2    0    0  0.10387510020E+03  0.17631830700E+02  0.83979096848E+02  0.21302208008E+03  0.16500000000E+03 0.  0.
   -5000001    1    1    2    0    0 -0.10387510020E+03 -0.17631830700E+02 -0.30869647657E+02  0.19818893269E+03  0.16500000000E+03 0.  0.
<mgrwt>
<rscale>  0 0.40776695E+03</rscale>
<asrwt>0</asrwt>
<pdfrwt beam="1">  1        2 0.27546274E-01 0.40776695E+03</pdfrwt>
<pdfrwt beam="2">  1       -2 0.35716958E-01 0.40776695E+03</pdfrwt>
<totfact> 0.14363942E+03</totfact>
</mgrwt>
</event>
<event>
 4    1  0.8984293E-005  0.3886860E+03  0.7818608E-02  0.1047769E+00
          2   -1    0    0  501    0  0.00000000000E+00  0.00000000000E+00  0.97594995614E+03  0.97594995614E+03  0.25500000000E-02 0.  1.
         -2   -1    0    0    0  501 -0.00000000000E+00 -0.00000000000E+00 -0.38699940898E+02  0.38699940982E+02  0.25500000000E-02 0. -1.
    5000001    1    1    2    0    0  0.74808055548E+02 -0.67632592447E+02  0.51909495316E+03  0.55394492788E+03  0.16500000000E+03 0.  0.
   -5000001    1    1    2    0    0 -0.74808055548E+02  0.67632592447E+02  0.41815506209E+03  0.46070496924E+03  0.16500000000E+03 0.  0.
<mgrwt>
<rscale>  0 0.38868602E+03</rscale>
<asrwt>0</asrwt>
<pdfrwt beam="1">  1        2 0.15014615E+00 0.38868602E+03</pdfrwt>
<pdfrwt beam="2">  1       -2 0.59538369E-02 0.38868602E+03</pdfrwt>
<totfact> 0.40882663E+03</totfact>
</mgrwt>
</event>
<event>
 4    1  0.8984293E-005  0.5002764E+03  0.7818608E-02  0.1013707E+00
         -2   -1    0    0    0  501 -0.00000000000E+00  0.00000000000E+00  0.80112217001E+02  0.80112217041E+02  0.25500000000E-02 0. -1.
          2   -1    0    0  501    0  0.00000000000E+00 -0.00000000000E+00 -0.78101857065E+03  0.78101857065E+03  0.25500000000E-02 0.  1.
    5000001    1    1    2    0    0 -0.92824138007E+02  0.10432556657E+03 -0.13378692321E+03  0.25421267722E+03  0.16500000000E+03 0.  0.
   -5000001    1    1    2    0    0  0.92824138007E+02 -0.10432556657E+03 -0.56711943044E+03  0.60691811048E+03  0.16500000000E+03 0.  0.
<mgrwt>
<rscale>  0 0.50027644E+03</rscale>
<asrwt>0</asrwt>
<pdfrwt beam="1">  1        2 0.12015670E+00 0.50027644E+03</pdfrwt>
<pdfrwt beam="2">  1       -2 0.12324957E-01 0.50027644E+03</pdfrwt>
<totfact> 0.17351425E+03</totfact>
</mgrwt>
</event>
<event>
 4    1  0.8984293E-005  0.4881804E+03  0.7818608E-02  0.1016911E+00
          2   -1    0    0  501    0  0.00000000000E+00  0.00000000000E+00  0.19662259508E+03  0.19662259510E+03  0.25500000000E-02 0.  1.
         -2   -1    0    0    0  501 -0.00000000000E+00 -0.00000000000E+00 -0.30301720896E+03  0.30301720898E+03  0.25500000000E-02 0. -1.
    5000001    1    1    2    0    0  0.32670059281E+02 -0.16676539644E+03 -0.11354754750E+03  0.26267104098E+03  0.16500000000E+03 0.  0.
   -5000001    1    1    2    0    0 -0.32670059281E+02  0.16676539644E+03  0.71529336242E+01  0.23696876310E+03  0.16500000000E+03 0.  0.
<mgrwt>
<rscale>  0 0.48818042E+03</rscale>
<asrwt>0</asrwt>
<pdfrwt beam="1">  1        2 0.30249630E-01 0.48818042E+03</pdfrwt>
<pdfrwt beam="2">  1       -2 0.46618032E-01 0.48818042E+03</pdfrwt>
<totfact> 0.77244394E+02</totfact>
</mgrwt>
</event>
<event>
 4    1  0.8984293E-005  0.8701713E+03  0.7818608E-02  0.9463657E-01
         -2   -1    0    0    0  501 -0.00000000000E+00  0.00000000000E+00  0.44933150777E+03  0.44933150778E+03  0.25500000000E-02 0. -1.
          2   -1    0    0  501    0  0.00000000000E+00 -0.00000000000E+00 -0.42129141507E+03  0.42129141507E+03  0.25500000000E-02 0.  1.
    5000001    1    1    2    0    0  0.17884498551E+03  0.34545439562E+03 -0.89717126882E+02  0.43197040541E+03  0.16500000000E+03 0.  0.
   -5000001    1    1    2    0    0 -0.17884498551E+03 -0.34545439562E+03  0.11775721959E+03  0.43865251744E+03  0.16500000000E+03 0.  0.
<mgrwt>
<rscale>  0 0.87017126E+03</rscale>
<asrwt>0</asrwt>
<pdfrwt beam="1">  1        2 0.64814064E-01 0.87017126E+03</pdfrwt>
<pdfrwt beam="2">  1       -2 0.69127924E-01 0.87017126E+03</pdfrwt>
<totfact> 0.14401023E+02</totfact>
</mgrwt>
</event>
<event>
 4    1  0.8984293E-005  0.1199643E+04  0.7818608E-02  0.9113169E-01
         -2   -1    0    0    0  501 -0.00000000000E+00  0.00000000000E+00  0.21401355193E+03  0.21401355195E+03  0.25500000000E-02 0. -1.
          2   -1    0    0  501    0  0.00000000000E+00 -0.00000000000E+00 -0.16811369206E+04  0.16811369206E+04  0.25500000000E-02 0.  1.
    5000001    1    1    2    0    0 -0.37169011085E+03  0.16909933316E+03 -0.90280632979E+02  0.44958171189E+03  0.16500000000E+03 0.  0.
   -5000001    1    1    2    0    0  0.37169011085E+03 -0.16909933316E+03 -0.13768427357E+04  0.14455687606E+04  0.16500000000E+03 0.  0.
<mgrwt>
<rscale>  0 0.11996434E+04</rscale>
<asrwt>0</asrwt>
<pdfrwt beam="1">  1        2 0.25863644E+00 0.11996434E+04</pdfrwt>
<pdfrwt beam="2">  1       -2 0.32925163E-01 0.11996434E+04</pdfrwt>
<totfact> 0.85314093E+01</totfact>
</mgrwt>
</event>
<event>
 4    1  0.8984293E-005  0.4927637E+03  0.7818608E-02  0.1015685E+00
         -2   -1    0    0    0  501 -0.00000000000E+00  0.00000000000E+00  0.22954253506E+02  0.22954253648E+02  0.25500000000E-02 0. -1.
          2   -1    0    0  501    0  0.00000000000E+00 -0.00000000000E+00 -0.26445645043E+04  0.26445645043E+04  0.25500000000E-02 0.  1.
    5000001    1    1    2    0    0 -0.15062299713E+03 -0.10356314093E+03 -0.13549143421E+04  0.13771094676E+04  0.16500000000E+03 0.  0.
   -5000001    1    1    2    0    0  0.15062299713E+03  0.10356314093E+03 -0.12666959087E+04  0.12904092903E+04  0.16500000000E+03 0.  0.
<mgrwt>
<rscale>  0 0.49276365E+03</rscale>
<asrwt>0</asrwt>
<pdfrwt beam="1">  1        2 0.40685584E+00 0.49276365E+03</pdfrwt>
<pdfrwt beam="2">  1       -2 0.35314257E-02 0.49276365E+03</pdfrwt>
<totfact> 0.10771112E+03</totfact>
</mgrwt>
</event>
<event>
 4    1  0.8984293E-005  0.3437191E+03  0.7818608E-02  0.1065223E+00
         -2   -1    0    0    0  501 -0.00000000000E+00  0.00000000000E+00  0.50083723465E+02  0.50083723530E+02  0.25500000000E-02 0. -1.
          2   -1    0    0  501    0  0.00000000000E+00 -0.00000000000E+00 -0.58972676651E+03  0.58972676652E+03  0.25500000000E-02 0.  1.
    5000001    1    1    2    0    0  0.46036667277E+02  0.54453474199E+01 -0.29349071945E+03  0.33986884080E+03  0.16500000000E+03 0.  0.
   -5000001    1    1    2    0    0 -0.46036667277E+02 -0.54453474199E+01 -0.24615232360E+03  0.29994164925E+03  0.16500000000E+03 0.  0.
<mgrwt>
<rscale>  0 0.34371914E+03</rscale>
<asrwt>0</asrwt>
<pdfrwt beam="1">  1        2 0.90727190E-01 0.34371914E+03</pdfrwt>
<pdfrwt beam="2">  1       -2 0.77051887E-02 0.34371914E+03</pdfrwt>
<totfact> 0.51825961E+03</totfact>
</mgrwt>
</event>
<event>
 4    1  0.8984293E-005  0.5914924E+03  0.7818608E-02  0.9923215E-01
          2   -1    0    0  501    0  0.00000000000E+00  0.00000000000E+00  0.35352188069E+03  0.35352188070E+03  0.25500000000E-02 0.  1.
         -2   -1    0    0    0  501 -0.00000000000E+00 -0.00000000000E+00 -0.24741276090E+03  0.24741276091E+03  0.25500000000E-02 0. -1.
    5000001    1    1    2    0    0  0.70342709914E+02 -0.19014640446E+03 -0.87490569339E+02  0.27565077851E+03  0.16500000000E+03 0.  0.
   -5000001    1    1    2    0    0 -0.70342709914E+02  0.19014640446E+03  0.19359968913E+03  0.32528386311E+03  0.16500000000E+03 0.  0.
<mgrwt>
<rscale>  0 0.59149243E+03</rscale>
<asrwt>0</asrwt>
<pdfrwt beam="1">  1        2 0.54387982E-01 0.59149243E+03</pdfrwt>
<pdfrwt beam="2">  1       -2 0.38063502E-01 0.59149243E+03</pdfrwt>
<totfact> 0.59956438E+02</totfact>
</mgrwt>
</event>
<event>
 4    1  0.8984293E-005  0.6168559E+03  0.7818608E-02  0.9871040E-01
          2   -1    0    0  501    0  0.00000000000E+00  0.00000000000E+00  0.11412343938E+04  0.11412343938E+04  0.25500000000E-02 0.  1.
         -2   -1    0    0    0  501 -0.00000000000E+00 -0.00000000000E+00 -0.83355171927E+02  0.83355171966E+02  0.25500000000E-02 0. -1.
    5000001    1    1    2    0    0  0.12639938440E+03  0.22741367585E+03  0.55763981428E+03  0.63708786428E+03  0.16500000000E+03 0.  0.
   -5000001    1    1    2    0    0 -0.12639938440E+03 -0.22741367585E+03  0.50023940757E+03  0.58750170146E+03  0.16500000000E+03 0.  0.
<mgrwt>
<rscale>  0 0.61685586E+03</rscale>
<asrwt>0</asrwt>
<pdfrwt beam="1">  1        2 0.17557452E+00 0.61685586E+03</pdfrwt>
<pdfrwt beam="2">  1       -2 0.12823873E-01 0.61685586E+03</pdfrwt>
<totfact> 0.94660368E+02</totfact>
</mgrwt>
</event>
<event>
 4    1  0.8984293E-005  0.3391924E+03  0.7818608E-02  0.1067140E+00
          2   -1    0    0  501    0  0.00000000000E+00  0.00000000000E+00  0.11781637660E+04  0.11781637660E+04  0.25500000000E-02 0.  1.
         -2   -1    0    0    0  501 -0.00000000000E+00 -0.00000000000E+00 -0.24413304226E+02  0.24413304360E+02  0.25500000000E-02 0. -1.
    5000001    1    1    2    0    0  0.31210241761E+02 -0.20247387421E+02  0.62084901918E+03  0.64347691528E+03  0.16500000000E+03 0.  0.
   -5000001    1    1    2    0    0 -0.31210241761E+02  0.20247387421E+02  0.53290144258E+03  0.55910015506E+03  0.16500000000E+03 0.  0.
<mgrwt>
<rscale>  0 0.33919240E+03</rscale>
<asrwt>0</asrwt>
<pdfrwt beam="1">  1        2 0.18125597E+00 0.33919240E+03</pdfrwt>
<pdfrwt beam="2">  1       -2 0.37558928E-02 0.33919240E+03</pdfrwt>
<totfact> 0.62390688E+03</totfact>
</mgrwt>
</event>
<event>
 4    1  0.8984293E-005  0.4043632E+03  0.7818608E-02  0.1042279E+00
         -2   -1    0    0    0  501 -0.00000000000E+00  0.00000000000E+00  0.46580176109E+02  0.46580176179E+02  0.25500000000E-02 0. -1.
          2   -1    0    0  501    0  0.00000000000E+00 -0.00000000000E+00 -0.87757061813E+03  0.87757061814E+03  0.25500000000E-02 0.  1.
    5000001    1    1    2    0    0  0.36827058487E+02 -0.10957375286E+03 -0.37659193533E+03  0.42709381324E+03  0.16500000000E+03 0.  0.
   -5000001    1    1    2    0    0 -0.36827058487E+02  0.10957375286E+03 -0.45439850669E+03  0.49705698108E+03  0.16500000000E+03 0.  0.
<mgrwt>
<rscale>  0 0.40436317E+03</rscale>
<asrwt>0</asrwt>
<pdfrwt beam="1">  1        2 0.13501085E+00 0.40436317E+03</pdfrwt>
<pdfrwt beam="2">  1       -2 0.71661816E-02 0.40436317E+03</pdfrwt>
<totfact> 0.35475247E+03</totfact>
</mgrwt>
</event>
<event>
 4    1  0.8984293E-005  0.5919555E+03  0.7818608E-02  0.9922238E-01
          2   -1    0    0  501    0  0.00000000000E+00  0.00000000000E+00  0.92818917310E+03  0.92818917310E+03  0.25500000000E-02 0.  1.
         -2   -1    0    0    0  501 -0.00000000000E+00 -0.00000000000E+00 -0.94380375326E+02  0.94380375360E+02  0.25500000000E-02 0. -1.
    5000001    1    1    2    0    0  0.19105459628E+03 -0.13970493964E+03  0.53094853632E+03  0.60427698710E+03  0.16500000000E+03 0.  0.
   -5000001    1    1    2    0    0 -0.19105459628E+03  0.13970493964E+03  0.30286026146E+03  0.41829256136E+03  0.16500000000E+03 0.  0.
<mgrwt>
<rscale>  0 0.59195555E+03</rscale>
<asrwt>0</asrwt>
<pdfrwt beam="1">  1        2 0.14279834E+00 0.59195555E+03</pdfrwt>
<pdfrwt beam="2">  1       -2 0.14520057E-01 0.59195555E+03</pdfrwt>
<totfact> 0.10461385E+03</totfact>
</mgrwt>
</event>
<event>
 4    1  0.8984293E-005  0.4035594E+03  0.7818608E-02  0.1042554E+00
         -2   -1    0    0    0  501 -0.00000000000E+00  0.00000000000E+00  0.68215561587E+03  0.68215561588E+03  0.25500000000E-02 0. -1.
          2   -1    0    0  501    0  0.00000000000E+00 -0.00000000000E+00 -0.59685870591E+02  0.59685870645E+02  0.25500000000E-02 0.  1.
    5000001    1    1    2    0    0 -0.53082409189E+02 -0.10243390607E+03  0.33587042479E+03  0.39159212138E+03  0.16500000000E+03 0.  0.
   -5000001    1    1    2    0    0  0.53082409189E+02  0.10243390607E+03  0.28659932049E+03  0.35024936514E+03  0.16500000000E+03 0.  0.
<mgrwt>
<rscale>  0 0.40355942E+03</rscale>
<asrwt>0</asrwt>
<pdfrwt beam="1">  1        2 0.91824422E-02 0.40355942E+03</pdfrwt>
<pdfrwt beam="2">  1       -2 0.10494701E+00 0.40355942E+03</pdfrwt>
<totfact> 0.54934639E+02</totfact>
</mgrwt>
</event>
<event>
 4    1  0.8984293E-005  0.4447769E+03  0.7818608E-02  0.1029291E+00
         -2   -1    0    0    0  501 -0.00000000000E+00  0.00000000000E+00  0.43525982580E+02  0.43525982655E+02  0.25500000000E-02 0. -1.
          2   -1    0    0  501    0  0.00000000000E+00 -0.00000000000E+00 -0.11362551300E+04  0.11362551300E+04  0.25500000000E-02 0.  1.
    5000001    1    1    2    0    0 -0.13883292963E+03 -0.35095639888E+02 -0.65654283320E+03  0.69193914336E+03  0.16500000000E+03 0.  0.
   -5000001    1    1    2    0    0  0.13883292963E+03  0.35095639888E+02 -0.43618631418E+03  0.48784196925E+03  0.16500000000E+03 0.  0.
<mgrwt>
<rscale>  0 0.44477689E+03</rscale>
<asrwt>0</asrwt>
<pdfrwt beam="1">  1        2 0.17480846E+00 0.44477689E+03</pdfrwt>
<pdfrwt beam="2">  1       -2 0.66963059E-02 0.44477689E+03</pdfrwt>
<totfact> 0.27203692E+03</totfact>
</mgrwt>
</event>
<event>
 4    1  0.8984293E-005  0.1553505E+04  0.7818608E-02  0.8849632E-01
         -2   -1    0    0    0  501 -0.00000000000E+00  0.00000000000E+00  0.14354578936E+04  0.14354578936E+04  0.25500000000E-02 0. -1.
          2   -1    0    0  501    0  0.00000000000E+00 -0.00000000000E+00 -0.42031507157E+03  0.42031507158E+03  0.25500000000E-02 0.  1.
    5000001    1    1    2    0    0  0.12008318997E+03 -0.62419954627E+03  0.10031019762E+04  0.11989510502E+04  0.16500000000E+03 0.  0.
   -5000001    1    1    2    0    0 -0.12008318997E+03  0.62419954627E+03  0.12040845846E+02  0.65682191502E+03  0.16500000000E+03 0.  0.
<mgrwt>
<rscale>  0 0.15535052E+04</rscale>
<asrwt>0</asrwt>
<pdfrwt beam="1">  1        2 0.64663856E-01 0.15535052E+04</pdfrwt>
<pdfrwt beam="2">  1       -2 0.22083968E+00 0.15535052E+04</pdfrwt>
<totfact> 0.70588263E+00</totfact>
</mgrwt>
</event>
<event>
 4    1  0.8984293E-005  0.7509797E+03  0.7818608E-02  0.9633815E-01
          2   -1    0    0  501    0  0.00000000000E+00  0.00000000000E+00  0.31623592822E+03  0.31623592823E+03  0.25500000000E-02 0.  1.
         -2   -1    0    0    0  501 -0.00000000000E+00 -0.00000000000E+00 -0.44584628353E+03  0.44584628354E+03  0.25500000000E-02 0. -1.
    5000001    1    1    2    0    0 -0.33477830699E+03  0.22671618158E+02 -0.29989116891E+02  0.37511979984E+03  0.16500000000E+03 0.  0.
   -5000001    1    1    2    0    0  0.33477830699E+03 -0.22671618158E+02 -0.99621238422E+02  0.38696241193E+03  0.16500000000E+03 0.  0.
<mgrwt>
<rscale>  0 0.75097966E+03</rscale>
<asrwt>0</asrwt>
<pdfrwt beam="1">  1        2 0.48651681E-01 0.75097966E+03</pdfrwt>
<pdfrwt beam="2">  1       -2 0.68591736E-01 0.75097966E+03</pdfrwt>
<totfact> 0.20296542E+02</totfact>
</mgrwt>
</event>
<event>
 4    1  0.8984293E-005  0.4558835E+03  0.7818608E-02  0.1025982E+00
         -2   -1    0    0    0  501 -0.00000000000E+00  0.00000000000E+00  0.49694529573E+02  0.49694529638E+02  0.25500000000E-02 0. -1.
          2   -1    0    0  501    0  0.00000000000E+00 -0.00000000000E+00 -0.10455363675E+04  0.10455363675E+04  0.25500000000E-02 0.  1.
    5000001    1    1    2    0    0  0.77921503397E+02  0.13154653037E+03 -0.40944772280E+03  0.46717094093E+03  0.16500000000E+03 0.  0.
   -5000001    1    1    2    0    0 -0.77921503397E+02 -0.13154653037E+03 -0.58639411518E+03  0.62805995626E+03  0.16500000000E+03 0.  0.
<mgrwt>
<rscale>  0 0.45588348E+03</rscale>
<asrwt>0</asrwt>
<pdfrwt beam="1">  1        2 0.16085173E+00 0.45588348E+03</pdfrwt>
<pdfrwt beam="2">  1       -2 0.76453130E-02 0.45588348E+03</pdfrwt>
<totfact> 0.25047633E+03</totfact>
</mgrwt>
</event>
<event>
 4    1  0.8984293E-005  0.4747346E+03  0.7818608E-02  0.1020592E+00
         -2   -1    0    0    0  501 -0.00000000000E+00  0.00000000000E+00  0.22562031435E+03  0.22562031436E+03  0.25500000000E-02 0. -1.
          2   -1    0    0  501    0  0.00000000000E+00 -0.00000000000E+00 -0.24972589896E+03  0.24972589897E+03  0.25500000000E-02 0.  1.
    5000001    1    1    2    0    0 -0.12191355430E+03  0.11854543519E+03 -0.26294368574E+02  0.23839532031E+03  0.16500000000E+03 0.  0.
   -5000001    1    1    2    0    0  0.12191355430E+03 -0.11854543519E+03  0.21887839629E+01  0.23695089302E+03  0.16500000000E+03 0.  0.
<mgrwt>
<rscale>  0 0.47473460E+03</rscale>
<asrwt>0</asrwt>
<pdfrwt beam="1">  1        2 0.38419369E-01 0.47473460E+03</pdfrwt>
<pdfrwt beam="2">  1       -2 0.34710818E-01 0.47473460E+03</pdfrwt>
<totfact> 0.10490247E+03</totfact>
</mgrwt>
</event>
<event>
 4    1  0.8984293E-005  0.1162801E+04  0.7818608E-02  0.9146055E-01
          2   -1    0    0  501    0  0.00000000000E+00  0.00000000000E+00  0.94945110413E+03  0.94945110414E+03  0.25500000000E-02 0.  1.
         -2   -1    0    0    0  501 -0.00000000000E+00 -0.00000000000E+00 -0.35602303553E+03  0.35602303554E+03  0.25500000000E-02 0. -1.
    5000001    1    1    2    0    0  0.54352980838E+03  0.19966427857E+02  0.15931234804E+03  0.59027852331E+03  0.16500000000E+03 0.  0.
   -5000001    1    1    2    0    0 -0.54352980838E+03 -0.19966427857E+02  0.43411572056E+03  0.71519561637E+03  0.16500000000E+03 0.  0.
<mgrwt>
<rscale>  0 0.11628009E+04</rscale>
<asrwt>0</asrwt>
<pdfrwt beam="1">  1        2 0.14606940E+00 0.11628009E+04</pdfrwt>
<pdfrwt beam="2">  1       -2 0.54772776E-01 0.11628009E+04</pdfrwt>
<totfact> 0.84281880E+01</totfact>
</mgrwt>
</event>
<event>
 4    1  0.8984293E-005  0.7493598E+03  0.7818608E-02  0.9636355E-01
          2   -1    0    0  501    0  0.00000000000E+00  0.00000000000E+00  0.15428531933E+04  0.15428531933E+04  0.25500000000E-02 0.  1.
         -2   -1    0    0    0  501 -0.00000000000E+00 -0.00000000000E+00 -0.90990531526E+02  0.90990531561E+02  0.25500000000E-02 0. -1.
    5000001    1    1    2    0    0  0.10217298379E+03  0.31665602729E+03  0.61801820943E+03  0.72102833885E+03  0.16500000000E+03 0.  0.
   -5000001    1    1    2    0    0 -0.10217298379E+03 -0.31665602729E+03  0.83384445234E+03  0.91281538601E+03  0.16500000000E+03 0.  0.
<mgrwt>
<rscale>  0 0.74935981E+03</rscale>
<asrwt>0</asrwt>
<pdfrwt beam="1">  1        2 0.23736205E+00 0.74935981E+03</pdfrwt>
<pdfrwt beam="2">  1       -2 0.13998542E-01 0.74935981E+03</pdfrwt>
<totfact> 0.47893877E+02</totfact>
</mgrwt>
</event>
<event>
 4    1  0.8984293E-005  0.4660669E+03  0.7818608E-02  0.1023036E+00
         -2   -1    0    0    0  501 -0.00000000000E+00  0.00000000000E+00  0.50877849754E+02  0.50877849818E+02  0.25500000000E-02 0. -1.
          2   -1    0    0  501    0  0.00000000000E+00 -0.00000000000E+00 -0.10673520897E+04  0.10673520898E+04  0.25500000000E-02 0.  1.
    5000001    1    1    2    0    0  0.15384246580E+03  0.43484293725E+02 -0.41465889627E+03  0.47405209454E+03  0.16500000000E+03 0.  0.
   -5000001    1    1    2    0    0 -0.15384246580E+03 -0.43484293725E+02 -0.60181534373E+03  0.64417784503E+03  0.16500000000E+03 0.  0.
<mgrwt>
<rscale>  0 0.46606686E+03</rscale>
<asrwt>0</asrwt>
<pdfrwt beam="1">  1        2 0.16420800E+00 0.46606686E+03</pdfrwt>
<pdfrwt beam="2">  1       -2 0.78273623E-02 0.46606686E+03</pdfrwt>
<totfact> 0.23402254E+03</totfact>
</mgrwt>
</event>
<event>
 4    1  0.8984293E-005  0.3871010E+03  0.7818608E-02  0.1048340E+00
          2   -1    0    0  501    0  0.00000000000E+00  0.00000000000E+00  0.17857393604E+04  0.17857393604E+04  0.25500000000E-02 0.  1.
         -2   -1    0    0    0  501 -0.00000000000E+00 -0.00000000000E+00 -0.20978316087E+02  0.20978316242E+02  0.25500000000E-02 0. -1.
    5000001    1    1    2    0    0  0.99375594337E+02  0.78092873617E+01  0.80149855711E+03  0.82435516057E+03  0.16500000000E+03 0.  0.
   -5000001    1    1    2    0    0 -0.99375594337E+02 -0.78092873617E+01  0.96326248717E+03  0.98236251603E+03  0.16500000000E+03 0.  0.
<mgrwt>
<rscale>  0 0.38710105E+03</rscale>
<asrwt>0</asrwt>
<pdfrwt beam="1">  1        2 0.27472910E+00 0.38710105E+03</pdfrwt>
<pdfrwt beam="2">  1       -2 0.32274337E-02 0.38710105E+03</pdfrwt>
<totfact> 0.36505633E+03</totfact>
</mgrwt>
</event>
<event>
 4    1  0.8984293E-005  0.5867967E+03  0.7818608E-02  0.9933184E-01
          2   -1    0    0  501    0  0.00000000000E+00  0.00000000000E+00  0.27096055259E+03  0.27096055261E+03  0.25500000000E-02 0.  1.
         -2   -1    0    0    0  501 -0.00000000000E+00 -0.00000000000E+00 -0.31769419334E+03  0.31769419335E+03  0.25500000000E-02 0. -1.
    5000001    1    1    2    0    0  0.11315905693E+03 -0.27844336050E+02 -0.23682525153E+03  0.31127396129E+03  0.16500000000E+03 0.  0.
   -5000001    1    1    2    0    0 -0.11315905693E+03  0.27844336050E+02  0.19009161078E+03  0.27738078467E+03  0.16500000000E+03 0.  0.
<mgrwt>
<rscale>  0 0.58679671E+03</rscale>
<asrwt>0</asrwt>
<pdfrwt beam="1">  1        2 0.41686239E-01 0.58679671E+03</pdfrwt>
<pdfrwt beam="2">  1       -2 0.48876030E-01 0.58679671E+03</pdfrwt>
<totfact> 0.49167120E+02</totfact>
</mgrwt>
</event>
<event>
 4    1  0.8984293E-005  0.4584536E+03  0.7818608E-02  0.1025231E+00
          2   -1    0    0  501    0  0.00000000000E+00  0.00000000000E+00  0.31865273595E+03  0.31865273596E+03  0.25500000000E-02 0.  1.
         -2   -1    0    0    0  501 -0.00000000000E+00 -0.00000000000E+00 -0.16489710732E+03  0.16489710734E+03  0.25500000000E-02 0. -1.
    5000001    1    1    2    0    0 -0.10248898847E+03  0.22906534465E+02 -0.49212126993E+02  0.20168176795E+03  0.16500000000E+03 0.  0.
   -5000001    1    1    2    0    0  0.10248898847E+03 -0.22906534465E+02  0.20296775563E+03  0.28186807535E+03  0.16500000000E+03 0.  0.
<mgrwt>
<rscale>  0 0.45845355E+03</rscale>
<asrwt>0</asrwt>
<pdfrwt beam="1">  1        2 0.49023498E-01 0.45845355E+03</pdfrwt>
<pdfrwt beam="2">  1       -2 0.25368786E-01 0.45845355E+03</pdfrwt>
<totfact> 0.14276025E+03</totfact>
</mgrwt>
</event>
<event>
 4    1  0.8984293E-005  0.7531733E+03  0.7818608E-02  0.9630385E-01
          2   -1    0    0  501    0  0.00000000000E+00  0.00000000000E+00  0.13635606081E+04  0.13635606081E+04  0.25500000000E-02 0.  1.
         -2   -1    0    0    0  501 -0.00000000000E+00 -0.00000000000E+00 -0.10400526976E+03  0.10400526979E+03  0.25500000000E-02 0. -1.
    5000001    1    1    2    0    0  0.33593360813E+01  0.20881706869E+03  0.11488888928E+04  0.11793161329E+04  0.16500000000E+03 0.  0.
   -5000001    1    1    2    0    0 -0.33593360813E+01 -0.20881706869E+03  0.11066644553E+03  0.28824974498E+03  0.16500000000E+03 0.  0.
<mgrwt>
<rscale>  0 0.75317326E+03</rscale>
<asrwt>0</asrwt>
<pdfrwt beam="1">  1        2 0.20977854E+00 0.75317326E+03</pdfrwt>
<pdfrwt beam="2">  1       -2 0.16000812E-01 0.75317326E+03</pdfrwt>
<totfact> 0.48145543E+02</totfact>
</mgrwt>
</event>
<event>
 4    1  0.8984293E-005  0.4826904E+03  0.7818608E-02  0.1018398E+00
          2   -1    0    0  501    0  0.00000000000E+00  0.00000000000E+00  0.25167556502E+04  0.25167556502E+04  0.25500000000E-02 0.  1.
         -2   -1    0    0    0  501 -0.00000000000E+00 -0.00000000000E+00 -0.23143885978E+02  0.23143886118E+02  0.25500000000E-02 0. -1.
    5000001    1    1    2    0    0  0.91746204316E+02 -0.14853313005E+03  0.11241841386E+04  0.11495627143E+04  0.16500000000E+03 0.  0.
   -5000001    1    1    2    0    0 -0.91746204316E+02  0.14853313005E+03  0.13694276257E+04  0.13903368220E+04  0.16500000000E+03 0.  0.
<mgrwt>
<rscale>  0 0.48269040E+03</rscale>
<asrwt>0</asrwt>
<pdfrwt beam="1">  1        2 0.38719279E+00 0.48269040E+03</pdfrwt>
<pdfrwt beam="2">  1       -2 0.35606014E-02 0.48269040E+03</pdfrwt>
<totfact> 0.12573015E+03</totfact>
</mgrwt>
</event>
<event>
 4    1  0.8984293E-005  0.4908377E+03  0.7818608E-02  0.1016198E+00
          2   -1    0    0  501    0  0.00000000000E+00  0.00000000000E+00  0.44804631432E+03  0.44804631433E+03  0.25500000000E-02 0.  1.
         -2   -1    0    0    0  501 -0.00000000000E+00 -0.00000000000E+00 -0.13442896432E+03  0.13442896434E+03  0.25500000000E-02 0. -1.
    5000001    1    1    2    0    0 -0.11197454682E+03 -0.24233319892E+02 -0.10510672681E+02  0.20114926589E+03  0.16500000000E+03 0.  0.
   -5000001    1    1    2    0    0  0.11197454682E+03  0.24233319892E+02  0.32412802268E+03  0.38132601277E+03  0.16500000000E+03 0.  0.
<mgrwt>
<rscale>  0 0.49083766E+03</rscale>
<asrwt>0</asrwt>
<pdfrwt beam="1">  1        2 0.68930202E-01 0.49083766E+03</pdfrwt>
<pdfrwt beam="2">  1       -2 0.20681379E-01 0.49083766E+03</pdfrwt>
<totfact> 0.14044001E+03</totfact>
</mgrwt>
</event>
<event>
 4    1  0.8984293E-005  0.6787887E+03  0.7818608E-02  0.9754210E-01
          2   -1    0    0  501    0  0.00000000000E+00  0.00000000000E+00  0.28289232583E+03  0.28289232584E+03  0.25500000000E-02 0.  1.
         -2   -1    0    0    0  501 -0.00000000000E+00 -0.00000000000E+00 -0.40718145875E+03  0.40718145876E+03  0.25500000000E-02 0. -1.
    5000001    1    1    2    0    0 -0.28343453761E+03 -0.54035575471E+02 -0.13190410447E+03  0.35760127698E+03  0.16500000000E+03 0.  0.
   -5000001    1    1    2    0    0  0.28343453761E+03  0.54035575471E+02  0.76149715501E+01  0.33247250761E+03  0.16500000000E+03 0.  0.
<mgrwt>
<rscale>  0 0.67878866E+03</rscale>
<asrwt>0</asrwt>
<pdfrwt beam="1">  1        2 0.43521896E-01 0.67878866E+03</pdfrwt>
<pdfrwt beam="2">  1       -2 0.62643302E-01 0.67878866E+03</pdfrwt>
<totfact> 0.27976628E+02</totfact>
</mgrwt>
</event>
<event>
 4    1  0.8984293E-005  0.3742410E+03  0.7818608E-02  0.1053083E+00
          2   -1    0    0  501    0  0.00000000000E+00  0.00000000000E+00  0.22827854526E+03  0.22827854527E+03  0.25500000000E-02 0.  1.
         -2   -1    0    0    0  501 -0.00000000000E+00 -0.00000000000E+00 -0.15338313661E+03  0.15338313664E+03  0.25500000000E-02 0. -1.
    5000001    1    1    2    0    0 -0.71508410555E+02  0.62127375281E+01  0.89817950230E+02  0.20110772007E+03  0.16500000000E+03 0.  0.
   -5000001    1    1    2    0    0  0.71508410555E+02 -0.62127375281E+01 -0.14922541587E+02  0.18055396184E+03  0.16500000000E+03 0.  0.
<mgrwt>
<rscale>  0 0.37424099E+03</rscale>
<asrwt>0</asrwt>
<pdfrwt beam="1">  1        2 0.35119776E-01 0.37424099E+03</pdfrwt>
<pdfrwt beam="2">  1       -2 0.23597406E-01 0.37424099E+03</pdfrwt>
<totfact> 0.23334777E+03</totfact>
</mgrwt>
</event>
<event>
 4    1  0.8984293E-005  0.4490742E+03  0.7818608E-02  0.1027998E+00
          2   -1    0    0  501    0  0.00000000000E+00  0.00000000000E+00  0.21121533931E+04  0.21121533931E+04  0.25500000000E-02 0.  1.
         -2   -1    0    0    0  501 -0.00000000000E+00 -0.00000000000E+00 -0.23869905461E+02  0.23869905597E+02  0.25500000000E-02 0. -1.
    5000001    1    1    2    0    0  0.87011956190E+02  0.12477949930E+03  0.10102074946E+04  0.10348358257E+04  0.16500000000E+03 0.  0.
   -5000001    1    1    2    0    0 -0.87011956190E+02 -0.12477949930E+03  0.10780759930E+04  0.11011874730E+04  0.16500000000E+03 0.  0.
<mgrwt>
<rscale>  0 0.44907417E+03</rscale>
<asrwt>0</asrwt>
<pdfrwt beam="1">  1        2 0.32494672E+00 0.44907417E+03</pdfrwt>
<pdfrwt beam="2">  1       -2 0.36722926E-02 0.44907417E+03</pdfrwt>
<totfact> 0.20039525E+03</totfact>
</mgrwt>
</event>
<event>
 4    1  0.8984293E-005  0.8539390E+03  0.7818608E-02  0.9485065E-01
          2   -1    0    0  501    0  0.00000000000E+00  0.00000000000E+00  0.13084368012E+04  0.13084368012E+04  0.25500000000E-02 0.  1.
         -2   -1    0    0    0  501 -0.00000000000E+00 -0.00000000000E+00 -0.13932883014E+03  0.13932883016E+03  0.25500000000E-02 0. -1.
    5000001    1    1    2    0    0  0.37787864017E+03 -0.11083938076E+03  0.58357444825E+03  0.72309181414E+03  0.16500000000E+03 0.  0.
   -5000001    1    1    2    0    0 -0.37787864017E+03  0.11083938076E+03  0.58553352277E+03  0.72467381718E+03  0.16500000000E+03 0.  0.
<mgrwt>
<rscale>  0 0.85393903E+03</rscale>
<asrwt>0</asrwt>
<pdfrwt beam="1">  1        2 0.20129797E+00 0.85393903E+03</pdfrwt>
<pdfrwt beam="2">  1       -2 0.21435204E-01 0.85393903E+03</pdfrwt>
<totfact> 0.31009431E+02</totfact>
</mgrwt>
</event>
<event>
 4    1  0.8984293E-005  0.5393334E+03  0.7818608E-02  0.1003993E+00
          2   -1    0    0  501    0  0.00000000000E+00  0.00000000000E+00  0.17944783940E+04  0.17944783940E+04  0.25500000000E-02 0.  1.
         -2   -1    0    0    0  501 -0.00000000000E+00 -0.00000000000E+00 -0.40524388273E+02  0.40524388353E+02  0.25500000000E-02 0. -1.
    5000001    1    1    2    0    0 -0.20231445154E+03  0.21939760627E+02  0.10943724253E+04  0.11252948483E+04  0.16500000000E+03 0.  0.
   -5000001    1    1    2    0    0  0.20231445154E+03 -0.21939760627E+02  0.65958158048E+03  0.70970793408E+03  0.16500000000E+03 0.  0.
<mgrwt>
<rscale>  0 0.53933344E+03</rscale>
<asrwt>0</asrwt>
<pdfrwt beam="1">  1        2 0.27607354E+00 0.53933344E+03</pdfrwt>
<pdfrwt beam="2">  1       -2 0.62345226E-02 0.53933344E+03</pdfrwt>
<totfact> 0.13066863E+03</totfact>
</mgrwt>
</event>
<event>
 4    1  0.8984293E-005  0.3607855E+03  0.7818608E-02  0.1058273E+00
          2   -1    0    0  501    0  0.00000000000E+00  0.00000000000E+00  0.16145688059E+04  0.16145688059E+04  0.25500000000E-02 0.  1.
         -2   -1    0    0    0  501 -0.00000000000E+00 -0.00000000000E+00 -0.20154939267E+02  0.20154939428E+02  0.25500000000E-02 0. -1.
    5000001    1    1    2    0    0 -0.52548637019E+02  0.42652536929E+02  0.92012508526E+03  0.93724904411E+03  0.16500000000E+03 0.  0.
   -5000001    1    1    2    0    0  0.52548637019E+02 -0.42652536929E+02  0.67428878142E+03  0.69747470126E+03  0.16500000000E+03 0.  0.
<mgrwt>
<rscale>  0 0.36078546E+03</rscale>
<asrwt>0</asrwt>
<pdfrwt beam="1">  1        2 0.24839522E+00 0.36078546E+03</pdfrwt>
<pdfrwt beam="2">  1       -2 0.31007597E-02 0.36078546E+03</pdfrwt>
<totfact> 0.47860157E+03</totfact>
</mgrwt>
</event>
<event>
 4    1  0.8984293E-005  0.4235984E+03  0.7818608E-02  0.1035901E+00
          2   -1    0    0  501    0  0.00000000000E+00  0.00000000000E+00  0.11394345105E+04  0.11394345105E+04  0.25500000000E-02 0.  1.
         -2   -1    0    0    0  501 -0.00000000000E+00 -0.00000000000E+00 -0.39369435425E+02  0.39369435508E+02  0.25500000000E-02 0. -1.
    5000001    1    1    2    0    0 -0.13218355356E+03  0.67051099345E+01  0.52000330799E+03  0.56137856269E+03  0.16500000000E+03 0.  0.
   -5000001    1    1    2    0    0  0.13218355356E+03 -0.67051099345E+01  0.58006176705E+03  0.61742538329E+03  0.16500000000E+03 0.  0.
<mgrwt>
<rscale>  0 0.42359836E+03</rscale>
<asrwt>0</asrwt>
<pdfrwt beam="1">  1        2 0.17529760E+00 0.42359836E+03</pdfrwt>
<pdfrwt beam="2">  1       -2 0.60568368E-02 0.42359836E+03</pdfrwt>
<totfact> 0.31676741E+03</totfact>
</mgrwt>
</event>
<event>
 4    1  0.8984293E-005  0.3744972E+03  0.7818608E-02  0.1052987E+00
          2   -1    0    0  501    0  0.00000000000E+00  0.00000000000E+00  0.10611480959E+03  0.10611480962E+03  0.25500000000E-02 0.  1.
         -2   -1    0    0    0  501 -0.00000000000E+00 -0.00000000000E+00 -0.33041600064E+03  0.33041600065E+03  0.25500000000E-02 0. -1.
    5000001    1    1    2    0    0  0.49241309303E+02  0.30293617521E+02 -0.34003486015E+02  0.17811133278E+03  0.16500000000E+03 0.  0.
   -5000001    1    1    2    0    0 -0.49241309303E+02 -0.30293617521E+02 -0.19029770504E+03  0.25841947749E+03  0.16500000000E+03 0.  0.
<mgrwt>
<rscale>  0 0.37449716E+03</rscale>
<asrwt>0</asrwt>
<pdfrwt beam="1">  1        2 0.16325356E-01 0.37449716E+03</pdfrwt>
<pdfrwt beam="2">  1       -2 0.50833230E-01 0.37449716E+03</pdfrwt>
<totfact> 0.13172732E+03</totfact>
</mgrwt>
</event>
<event>
 4    1  0.8984293E-005  0.4718118E+03  0.7818608E-02  0.1021410E+00
         -2   -1    0    0    0  501 -0.00000000000E+00  0.00000000000E+00  0.62135942873E+02  0.62135942926E+02  0.25500000000E-02 0.  1.
          2   -1    0    0  501    0  0.00000000000E+00 -0.00000000000E+00 -0.89564271462E+03  0.89564271462E+03  0.25500000000E-02 0. -1.
    5000001    1    1    2    0    0  0.12873119844E+02 -0.16162046445E+03 -0.32285155502E+03  0.39717127077E+03  0.16500000000E+03 0.  0.
   -5000001    1    1    2    0    0 -0.12873119844E+02  0.16162046445E+03 -0.51065521672E+03  0.56060738678E+03  0.16500000000E+03 0.  0.
<mgrwt>
<rscale>  0 0.47181185E+03</rscale>
<asrwt>0</asrwt>
<pdfrwt beam="1">  1        2 0.13779118E+00 0.47181185E+03</pdfrwt>
<pdfrwt beam="2">  1       -2 0.95593765E-02 0.47181185E+03</pdfrwt>
<totfact> 0.21859622E+03</totfact>
</mgrwt>
</event>
<event>
 4    1  0.8984293E-005  0.3734963E+03  0.7818608E-02  0.1053364E+00
         -2   -1    0    0    0  501 -0.00000000000E+00  0.00000000000E+00  0.15355481254E+02  0.15355481465E+02  0.25500000000E-02 0. -1.
          2   -1    0    0  501    0  0.00000000000E+00 -0.00000000000E+00 -0.22711679733E+04  0.22711679733E+04  0.25500000000E-02 0.  1.
    5000001    1    1    2    0    0  0.36053959775E+02  0.32181688152E+02 -0.68161998792E+03  0.70296967005E+03  0.16500000000E+03 0.  0.
   -5000001    1    1    2    0    0 -0.36053959775E+02 -0.32181688152E+02 -0.15741925042E+04  0.15835537848E+04  0.16500000000E+03 0.  0.
<mgrwt>
<rscale>  0 0.37349633E+03</rscale>
<asrwt>0</asrwt>
<pdfrwt beam="1">  1        2 0.34941019E+00 0.37349633E+03</pdfrwt>
<pdfrwt beam="2">  1       -2 0.23623835E-02 0.37349633E+03</pdfrwt>
<totfact> 0.32080996E+03</totfact>
</mgrwt>
</event>
<event>
 4    1  0.8984293E-005  0.8332137E+03  0.7818608E-02  0.9513148E-01
          2   -1    0    0  501    0  0.00000000000E+00  0.00000000000E+00  0.92141998313E+03  0.92141998313E+03  0.25500000000E-02 0.  1.
         -2   -1    0    0    0  501 -0.00000000000E+00 -0.00000000000E+00 -0.18836280760E+03  0.18836280762E+03  0.25500000000E-02 0. -1.
    5000001    1    1    2    0    0  0.29820631827E+03  0.23173344612E+03  0.28541350295E+03  0.50131154582E+03  0.16500000000E+03 0.  0.
   -5000001    1    1    2    0    0 -0.29820631827E+03 -0.23173344612E+03  0.44764367258E+03  0.60847124493E+03  0.16500000000E+03 0.  0.
<mgrwt>
<rscale>  0 0.83321367E+03</rscale>
<asrwt>0</asrwt>
<pdfrwt beam="1">  1        2 0.14175692E+00 0.83321367E+03</pdfrwt>
<pdfrwt beam="2">  1       -2 0.28978893E-01 0.83321367E+03</pdfrwt>
<totfact> 0.31124323E+02</totfact>
</mgrwt>
</event>
<event>
 4    1  0.8984293E-005  0.4801627E+03  0.7818608E-02  0.1019090E+00
          2   -1    0    0  501    0  0.00000000000E+00  0.00000000000E+00  0.59802340859E+03  0.59802340860E+03  0.25500000000E-02 0.  1.
         -2   -1    0    0    0  501 -0.00000000000E+00 -0.00000000000E+00 -0.96382609819E+02  0.96382609852E+02  0.25500000000E-02 0. -1.
    5000001    1    1    2    0    0 -0.54305252173E+02 -0.16569989017E+03  0.24659345550E+03  0.34414945345E+03  0.16500000000E+03 0.  0.
   -5000001    1    1    2    0    0  0.54305252173E+02  0.16569989017E+03  0.25504734328E+03  0.35025656500E+03  0.16500000000E+03 0.  0.
<mgrwt>
<rscale>  0 0.48016271E+03</rscale>
<asrwt>0</asrwt>
<pdfrwt beam="1">  1        2 0.92003601E-01 0.48016271E+03</pdfrwt>
<pdfrwt beam="2">  1       -2 0.14828094E-01 0.48016271E+03</pdfrwt>
<totfact> 0.17760250E+03</totfact>
</mgrwt>
</event>
<event>
 4    1  0.8984293E-005  0.4437143E+03  0.7818608E-02  0.1029613E+00
         -2   -1    0    0    0  501 -0.00000000000E+00  0.00000000000E+00  0.22618603371E+02  0.22618603515E+02  0.25500000000E-02 0.  1.
          2   -1    0    0  501    0  0.00000000000E+00 -0.00000000000E+00 -0.21761112799E+04  0.21761112799E+04  0.25500000000E-02 0. -1.
    5000001    1    1    2    0    0  0.26509526891E+02  0.85056057848E+02 -0.48920963853E+03  0.52391636586E+03  0.16500000000E+03 0.  0.
   -5000001    1    1    2    0    0 -0.26509526891E+02 -0.85056057848E+02 -0.16642830380E+04  0.16748135175E+04  0.16500000000E+03 0.  0.
<mgrwt>
<rscale>  0 0.44371431E+03</rscale>
<asrwt>0</asrwt>
<pdfrwt beam="1">  1        2 0.33478619E+00 0.44371431E+03</pdfrwt>
<pdfrwt beam="2">  1       -2 0.34797868E-02 0.44371431E+03</pdfrwt>
<totfact> 0.20092049E+03</totfact>
</mgrwt>
</event>
<event>
 4    1  0.8984293E-005  0.4245656E+03  0.7818608E-02  0.1035591E+00
          2   -1    0    0  501    0  0.00000000000E+00  0.00000000000E+00  0.74535002504E+03  0.74535002504E+03  0.25500000000E-02 0.  1.
         -2   -1    0    0    0  501 -0.00000000000E+00 -0.00000000000E+00 -0.60460170657E+02  0.60460170711E+02  0.25500000000E-02 0. -1.
    5000001    1    1    2    0    0 -0.83316555741E+02 -0.14661554352E+02  0.14627973130E+03  0.23617656409E+03  0.16500000000E+03 0.  0.
   -5000001    1    1    2    0    0  0.83316555741E+02  0.14661554352E+02  0.53861012307E+03  0.56963363166E+03  0.16500000000E+03 0.  0.
<mgrwt>
<rscale>  0 0.42456561E+03</rscale>
<asrwt>0</asrwt>
<pdfrwt beam="1">  1        2 0.11466923E+00 0.42456561E+03</pdfrwt>
<pdfrwt beam="2">  1       -2 0.93015650E-02 0.42456561E+03</pdfrwt>
<totfact> 0.29053794E+03</totfact>
</mgrwt>
</event>
<event>
 4    1  0.8984293E-005  0.3801538E+03  0.7818608E-02  0.1050877E+00
         -2   -1    0    0    0  501 -0.00000000000E+00  0.00000000000E+00  0.13878175182E+03  0.13878175185E+03  0.25500000000E-02 0. -1.
          2   -1    0    0  501    0  0.00000000000E+00 -0.00000000000E+00 -0.26033128626E+03  0.26033128627E+03  0.25500000000E-02 0.  1.
    5000001    1    1    2    0    0 -0.89023759232E+02 -0.24778847533E+02 -0.80832854512E+02  0.20566519239E+03  0.16500000000E+03 0.  0.
   -5000001    1    1    2    0    0  0.89023759232E+02  0.24778847533E+02 -0.40716679926E+02  0.19344784573E+03  0.16500000000E+03 0.  0.
<mgrwt>
<rscale>  0 0.38015382E+03</rscale>
<asrwt>0</asrwt>
<pdfrwt beam="1">  1        2 0.40050967E-01 0.38015382E+03</pdfrwt>
<pdfrwt beam="2">  1       -2 0.21351039E-01 0.38015382E+03</pdfrwt>
<totfact> 0.24085276E+03</totfact>
</mgrwt>
</event>
<event>
 4    1  0.8984293E-005  0.8396396E+03  0.7818608E-02  0.9504349E-01
          2   -1    0    0  501    0  0.00000000000E+00  0.00000000000E+00  0.24448397226E+03  0.24448397228E+03  0.25500000000E-02 0. -1.
         -2   -1    0    0    0  501 -0.00000000000E+00 -0.00000000000E+00 -0.72090075055E+03  0.72090075055E+03  0.25500000000E-02 0.  1.
    5000001    1    1    2    0    0  0.10631328717E+03 -0.36691108621E+03 -0.30219770434E+03  0.51427104986E+03  0.16500000000E+03 0.  0.
   -5000001    1    1    2    0    0 -0.10631328717E+03  0.36691108621E+03 -0.17421907395E+03  0.45111367297E+03  0.16500000000E+03 0.  0.
<mgrwt>
<rscale>  0 0.83963963E+03</rscale>
<asrwt>0</asrwt>
<pdfrwt beam="1">  1        2 0.37612919E-01 0.83963963E+03</pdfrwt>
<pdfrwt beam="2">  1       -2 0.11090781E+00 0.83963963E+03</pdfrwt>
<totfact> 0.89364748E+01</totfact>
</mgrwt>
</event>
<event>
 4    1  0.8984293E-005  0.4147051E+03  0.7818608E-02  0.1038804E+00
         -2   -1    0    0    0  501 -0.00000000000E+00  0.00000000000E+00  0.36909870617E+02  0.36909870705E+02  0.25500000000E-02 0. -1.
          2   -1    0    0  501    0  0.00000000000E+00 -0.00000000000E+00 -0.11648665728E+04  0.11648665728E+04  0.25500000000E-02 0.  1.
    5000001    1    1    2    0    0 -0.97806273167E+02  0.12400091116E+02 -0.33856957208E+03  0.38932529390E+03  0.16500000000E+03 0.  0.
   -5000001    1    1    2    0    0  0.97806273167E+02 -0.12400091116E+02 -0.78938713012E+03  0.81245114963E+03  0.16500000000E+03 0.  0.
<mgrwt>
<rscale>  0 0.41470507E+03</rscale>
<asrwt>0</asrwt>
<pdfrwt beam="1">  1        2 0.17921021E+00 0.41470507E+03</pdfrwt>
<pdfrwt beam="2">  1       -2 0.56784425E-02 0.41470507E+03</pdfrwt>
<totfact> 0.33824476E+03</totfact>
</mgrwt>
</event>
<event>
 4    1  0.8984293E-005  0.5916630E+03  0.7818608E-02  0.9922855E-01
         -2   -1    0    0    0  501 -0.00000000000E+00  0.00000000000E+00  0.12207575002E+03  0.12207575005E+03  0.25500000000E-02 0.  1.
          2   -1    0    0  501    0  0.00000000000E+00 -0.00000000000E+00 -0.71690147420E+03  0.71690147420E+03  0.25500000000E-02 0. -1.
    5000001    1    1    2    0    0 -0.82265750425E+02  0.23121264459E+03 -0.30878733564E+03  0.42755299012E+03  0.16500000000E+03 0.  0.
   -5000001    1    1    2    0    0  0.82265750425E+02 -0.23121264459E+03 -0.28603838854E+03  0.41142423413E+03  0.16500000000E+03 0.  0.
<mgrwt>
<rscale>  0 0.59166303E+03</rscale>
<asrwt>0</asrwt>
<pdfrwt beam="1">  1        2 0.11029253E+00 0.59166303E+03</pdfrwt>
<pdfrwt beam="2">  1       -2 0.18780885E-01 0.59166303E+03</pdfrwt>
<totfact> 0.95121011E+02</totfact>
</mgrwt>
</event>
<event>
 4    1  0.8984293E-005  0.5063817E+03  0.7818608E-02  0.1012126E+00
          2   -1    0    0  501    0  0.00000000000E+00  0.00000000000E+00  0.95059419753E+03  0.95059419754E+03  0.25500000000E-02 0.  1.
         -2   -1    0    0    0  501 -0.00000000000E+00 -0.00000000000E+00 -0.67437406868E+02  0.67437406916E+02  0.25500000000E-02 0. -1.
    5000001    1    1    2    0    0  0.18569159612E+03  0.16041450264E+02  0.53462144442E+03  0.58973196100E+03  0.16500000000E+03 0.  0.
   -5000001    1    1    2    0    0 -0.18569159612E+03 -0.16041450264E+02  0.34853534625E+03  0.42829964345E+03  0.16500000000E+03 0.  0.
<mgrwt>
<rscale>  0 0.50638170E+03</rscale>
<asrwt>0</asrwt>
<pdfrwt beam="1">  1        2 0.14624525E+00 0.50638170E+03</pdfrwt>
<pdfrwt beam="2">  1       -2 0.10374987E-01 0.50638170E+03</pdfrwt>
<totfact> 0.17630445E+03</totfact>
</mgrwt>
</event>
<event>
 4    1  0.8984293E-005  0.5756181E+03  0.7818608E-02  0.9957323E-01
          2   -1    0    0  501    0  0.00000000000E+00  0.00000000000E+00  0.28242370005E+03  0.28242370006E+03  0.25500000000E-02 0.  1.
         -2   -1    0    0    0  501 -0.00000000000E+00 -0.00000000000E+00 -0.29329705402E+03  0.29329705403E+03  0.25500000000E-02 0. -1.
    5000001    1    1    2    0    0 -0.34906093879E+01  0.14734450277E+03  0.17867889536E+03  0.28438307702E+03  0.16500000000E+03 0.  0.
   -5000001    1    1    2    0    0  0.34906093879E+01 -0.14734450277E+03 -0.18955224934E+03  0.29133767707E+03  0.16500000000E+03 0.  0.
<mgrwt>
<rscale>  0 0.57561807E+03</rscale>
<asrwt>0</asrwt>
<pdfrwt beam="1">  1        2 0.43449800E-01 0.57561807E+03</pdfrwt>
<pdfrwt beam="2">  1       -2 0.45122624E-01 0.57561807E+03</pdfrwt>
<totfact> 0.55122700E+02</totfact>
</mgrwt>
</event>
<event>
 4    1  0.8984293E-005  0.4166706E+03  0.7818608E-02  0.1038155E+00
          2   -1    0    0  501    0  0.00000000000E+00  0.00000000000E+00  0.80638730861E+02  0.80638730901E+02  0.25500000000E-02 0.  1.
         -2   -1    0    0    0  501 -0.00000000000E+00 -0.00000000000E+00 -0.53824745560E+03  0.53824745560E+03  0.25500000000E-02 0. -1.
    5000001    1    1    2    0    0  0.78283052008E+00  0.11261597662E+03 -0.14098705622E+03  0.24451037000E+03  0.16500000000E+03 0.  0.
   -5000001    1    1    2    0    0 -0.78283052008E+00 -0.11261597662E+03 -0.31662166851E+03  0.37437581651E+03  0.16500000000E+03 0.  0.
<mgrwt>
<rscale>  0 0.41667057E+03</rscale>
<asrwt>0</asrwt>
<pdfrwt beam="1">  1        2 0.12405959E-01 0.41667057E+03</pdfrwt>
<pdfrwt beam="2">  1       -2 0.82807298E-01 0.41667057E+03</pdfrwt>
<totfact> 0.65116281E+02</totfact>
</mgrwt>
</event>
<event>
 4    1  0.8984293E-005  0.6675176E+03  0.7818608E-02  0.9774453E-01
          2   -1    0    0  501    0  0.00000000000E+00  0.00000000000E+00  0.35985044492E+04  0.35985044493E+04  0.25500000000E-02 0.  1.
         -2   -1    0    0    0  501 -0.00000000000E+00 -0.00000000000E+00 -0.30955900376E+02  0.30955900481E+02  0.25500000000E-02 0. -1.
    5000001    1    1    2    0    0 -0.13465750794E+03 -0.19767246145E+03  0.89095694701E+03  0.93714264010E+03  0.16500000000E+03 0.  0.
   -5000001    1    1    2    0    0  0.13465750794E+03  0.19767246145E+03  0.26765916019E+04  0.26923177096E+04  0.16500000000E+03 0.  0.
<mgrwt>
<rscale>  0 0.66751763E+03</rscale>
<asrwt>0</asrwt>
<pdfrwt beam="1">  1        2 0.55361628E+00 0.66751763E+03</pdfrwt>
<pdfrwt beam="2">  1       -2 0.47624444E-02 0.66751763E+03</pdfrwt>
<totfact> 0.16853381E+02</totfact>
</mgrwt>
</event>
<event>
 4    1  0.8984293E-005  0.7926045E+03  0.7818608E-02  0.9570784E-01
         -2   -1    0    0    0  501 -0.00000000000E+00  0.00000000000E+00  0.14230110955E+03  0.14230110958E+03  0.25500000000E-02 0. -1.
          2   -1    0    0  501    0  0.00000000000E+00 -0.00000000000E+00 -0.11036840749E+04  0.11036840749E+04  0.25500000000E-02 0.  1.
    5000001    1    1    2    0    0 -0.13185917904E+03 -0.13266224251E+03  0.34386279816E+01  0.24944526022E+03  0.16500000000E+03 0.  0.
   -5000001    1    1    2    0    0  0.13185917904E+03  0.13266224251E+03 -0.96482159328E+03  0.99653992421E+03  0.16500000000E+03 0.  0.
<mgrwt>
<rscale>  0 0.79260449E+03</rscale>
<asrwt>0</asrwt>
<pdfrwt beam="1">  1        2 0.16979754E+00 0.79260449E+03</pdfrwt>
<pdfrwt beam="2">  1       -2 0.21892479E-01 0.79260449E+03</pdfrwt>
<totfact> 0.39636257E+02</totfact>
</mgrwt>
</event>
<event>
 4    1  0.8984293E-005  0.6469027E+03  0.7818608E-02  0.9812608E-01
         -2   -1    0    0    0  501 -0.00000000000E+00  0.00000000000E+00  0.17188609525E+03  0.17188609527E+03  0.25500000000E-02 0. -1.
          2   -1    0    0  501    0  0.00000000000E+00 -0.00000000000E+00 -0.60866341610E+03  0.60866341611E+03  0.25500000000E-02 0.  1.
    5000001    1    1    2    0    0  0.16054168169E+03  0.19890845589E+03 -0.85896119278E+02  0.31613501656E+03  0.16500000000E+03 0.  0.
   -5000001    1    1    2    0    0 -0.16054168169E+03 -0.19890845589E+03 -0.35088120157E+03  0.46441449482E+03  0.16500000000E+03 0.  0.
<mgrwt>
<rscale>  0 0.64690271E+03</rscale>
<asrwt>0</asrwt>
<pdfrwt beam="1">  1        2 0.93640524E-01 0.64690271E+03</pdfrwt>
<pdfrwt beam="2">  1       -2 0.26444015E-01 0.64690271E+03</pdfrwt>
<totfact> 0.63440727E+02</totfact>
</mgrwt>
</event>
<event>
 4    1  0.8984293E-005  0.3748423E+03  0.7818608E-02  0.1052857E+00
         -2   -1    0    0    0  501 -0.00000000000E+00  0.00000000000E+00  0.61292127642E+02  0.61292127695E+02  0.25500000000E-02 0. -1.
          2   -1    0    0  501    0  0.00000000000E+00 -0.00000000000E+00 -0.57310285577E+03  0.57310285578E+03  0.25500000000E-02 0.  1.
    5000001    1    1    2    0    0  0.35746163822E+02  0.80304174522E+02 -0.27830338519E+03  0.33526753926E+03  0.16500000000E+03 0.  0.
   -5000001    1    1    2    0    0 -0.35746163822E+02 -0.80304174522E+02 -0.23350734294E+03  0.29912744421E+03  0.16500000000E+03 0.  0.
<mgrwt>
<rscale>  0 0.37484233E+03</rscale>
<asrwt>0</asrwt>
<pdfrwt beam="1">  1        2 0.88169666E-01 0.37484233E+03</pdfrwt>
<pdfrwt beam="2">  1       -2 0.94295585E-02 0.37484233E+03</pdfrwt>
<totfact> 0.38999646E+03</totfact>
</mgrwt>
</event>
<event>
 4    1  0.8984293E-005  0.3651610E+03  0.7818608E-02  0.1056559E+00
          2   -1    0    0  501    0  0.00000000000E+00  0.00000000000E+00  0.43234227425E+03  0.43234227426E+03  0.25500000000E-02 0.  1.
         -2   -1    0    0    0  501 -0.00000000000E+00 -0.00000000000E+00 -0.77104734741E+02  0.77104734784E+02  0.25500000000E-02 0. -1.
    5000001    1    1    2    0    0  0.67321647735E+02 -0.39202537242E+02  0.18661635241E+03  0.26099752138E+03  0.16500000000E+03 0.  0.
   -5000001    1    1    2    0    0 -0.67321647735E+02  0.39202537242E+02  0.16862118710E+03  0.24844948766E+03  0.16500000000E+03 0.  0.
<mgrwt>
<rscale>  0 0.36516099E+03</rscale>
<asrwt>0</asrwt>
<pdfrwt beam="1">  1        2 0.66514197E-01 0.36516099E+03</pdfrwt>
<pdfrwt beam="2">  1       -2 0.11862267E-01 0.36516099E+03</pdfrwt>
<totfact> 0.37073737E+03</totfact>
</mgrwt>
</event>
<event>
 4    1  0.8984293E-005  0.9769087E+03  0.7818608E-02  0.9334240E-01
          2   -1    0    0  501    0  0.00000000000E+00  0.00000000000E+00  0.12998552737E+04  0.12998552737E+04  0.25500000000E-02 0.  1.
         -2   -1    0    0    0  501 -0.00000000000E+00 -0.00000000000E+00 -0.18354940825E+03  0.18354940827E+03  0.25500000000E-02 0. -1.
    5000001    1    1    2    0    0 -0.16194881704E+02 -0.45937345422E+03  0.54487856221E+03  0.73171298484E+03  0.16500000000E+03 0.  0.
   -5000001    1    1    2    0    0  0.16194881704E+02  0.45937345422E+03  0.57142730324E+03  0.75169169712E+03  0.16500000000E+03 0.  0.
<mgrwt>
<rscale>  0 0.97690873E+03</rscale>
<asrwt>0</asrwt>
<pdfrwt beam="1">  1        2 0.19997774E+00 0.97690873E+03</pdfrwt>
<pdfrwt beam="2">  1       -2 0.28238370E-01 0.97690873E+03</pdfrwt>
<totfact> 0.18937946E+02</totfact>
</mgrwt>
</event>
<event>
 4    1  0.8984293E-005  0.4479205E+03  0.7818608E-02  0.1028344E+00
         -2   -1    0    0    0  501 -0.00000000000E+00  0.00000000000E+00  0.47686954540E+02  0.47686954608E+02  0.25500000000E-02 0. -1.
          2   -1    0    0  501    0  0.00000000000E+00 -0.00000000000E+00 -0.10518221183E+04  0.10518221183E+04  0.25500000000E-02 0.  1.
    5000001    1    1    2    0    0 -0.13068164728E+03 -0.58853565588E+02 -0.38201913721E+03  0.44011936598E+03  0.16500000000E+03 0.  0.
   -5000001    1    1    2    0    0  0.13068164728E+03  0.58853565588E+02 -0.62211602660E+03  0.65938970698E+03  0.16500000000E+03 0.  0.
<mgrwt>
<rscale>  0 0.44792050E+03</rscale>
<asrwt>0</asrwt>
<pdfrwt beam="1">  1        2 0.16181877E+00 0.44792050E+03</pdfrwt>
<pdfrwt beam="2">  1       -2 0.73364553E-02 0.44792050E+03</pdfrwt>
<totfact> 0.26494912E+03</totfact>
</mgrwt>
</event>
<event>
 4    1  0.8984293E-005  0.3797294E+03  0.7818608E-02  0.1051034E+00
          2   -1    0    0  501    0  0.00000000000E+00  0.00000000000E+00  0.45486498480E+03  0.45486498481E+03  0.25500000000E-02 0. -1.
         -2   -1    0    0    0  501 -0.00000000000E+00 -0.00000000000E+00 -0.79251214763E+02  0.79251214804E+02  0.25500000000E-02 0.  1.
    5000001    1    1    2    0    0  0.14525022004E+01 -0.85458936390E+02  0.13300000910E+03  0.22851551806E+03  0.16500000000E+03 0.  0.
   -5000001    1    1    2    0    0 -0.14525022004E+01  0.85458936390E+02  0.24261376094E+03  0.30560068156E+03  0.16500000000E+03 0.  0.
<mgrwt>
<rscale>  0 0.37972939E+03</rscale>
<asrwt>0</asrwt>
<pdfrwt beam="1">  1        2 0.69979228E-01 0.37972939E+03</pdfrwt>
<pdfrwt beam="2">  1       -2 0.12192495E-01 0.37972939E+03</pdfrwt>
<totfact> 0.33529219E+03</totfact>
</mgrwt>
</event>
<event>
 4    1  0.8984293E-005  0.4032574E+03  0.7818608E-02  0.1042658E+00
         -2   -1    0    0    0  501 -0.00000000000E+00  0.00000000000E+00  0.32503316144E+02  0.32503316244E+02  0.25500000000E-02 0. -1.
          2   -1    0    0  501    0  0.00000000000E+00 -0.00000000000E+00 -0.12507688416E+04  0.12507688416E+04  0.25500000000E-02 0.  1.
    5000001    1    1    2    0    0 -0.41351575872E+02  0.10815509054E+03 -0.62394268302E+03  0.65569577406E+03  0.16500000000E+03 0.  0.
   -5000001    1    1    2    0    0  0.41351575872E+02 -0.10815509054E+03 -0.59432284245E+03  0.62757638379E+03  0.16500000000E+03 0.  0.
<mgrwt>
<rscale>  0 0.40325741E+03</rscale>
<asrwt>0</asrwt>
<pdfrwt beam="1">  1        2 0.19242594E+00 0.40325741E+03</pdfrwt>
<pdfrwt beam="2">  1       -2 0.50005111E-02 0.40325741E+03</pdfrwt>
<totfact> 0.36709080E+03</totfact>
</mgrwt>
</event>
<event>
 4    1  0.8984293E-005  0.4226247E+03  0.7818608E-02  0.1036215E+00
          2   -1    0    0  501    0  0.00000000000E+00  0.00000000000E+00  0.69229422888E+03  0.69229422888E+03  0.25500000000E-02 0.  1.
         -2   -1    0    0    0  501 -0.00000000000E+00 -0.00000000000E+00 -0.64499895841E+02  0.64499895891E+02  0.25500000000E-02 0. -1.
    5000001    1    1    2    0    0  0.84794955288E+02 -0.99329486600E+02  0.27938844808E+03  0.34977054803E+03  0.16500000000E+03 0.  0.
   -5000001    1    1    2    0    0 -0.84794955288E+02  0.99329486600E+02  0.34840588496E+03  0.40702357675E+03  0.16500000000E+03 0.  0.
<mgrwt>
<rscale>  0 0.42262468E+03</rscale>
<asrwt>0</asrwt>
<pdfrwt beam="1">  1        2 0.10650680E+00 0.42262468E+03</pdfrwt>
<pdfrwt beam="2">  1       -2 0.99230612E-02 0.42262468E+03</pdfrwt>
<totfact> 0.28717549E+03</totfact>
</mgrwt>
</event>
<event>
 4    1  0.8984293E-005  0.4171096E+03  0.7818608E-02  0.1038011E+00
         -2   -1    0    0    0  501 -0.00000000000E+00  0.00000000000E+00  0.29874133805E+03  0.29874133806E+03  0.25500000000E-02 0. -1.
          2   -1    0    0  501    0  0.00000000000E+00 -0.00000000000E+00 -0.14559452565E+03  0.14559452567E+03  0.25500000000E-02 0.  1.
    5000001    1    1    2    0    0  0.96150961383E+02  0.53785479346E+02  0.80951308434E+01  0.19856589915E+03  0.16500000000E+03 0.  0.
   -5000001    1    1    2    0    0 -0.96150961383E+02 -0.53785479346E+02  0.14505168156E+03  0.24576996457E+03  0.16500000000E+03 0.  0.
<mgrwt>
<rscale>  0 0.41710959E+03</rscale>
<asrwt>0</asrwt>
<pdfrwt beam="1">  1        2 0.22399158E-01 0.41710959E+03</pdfrwt>
<pdfrwt beam="2">  1       -2 0.45960206E-01 0.41710959E+03</pdfrwt>
<totfact> 0.11155879E+03</totfact>
</mgrwt>
</event>
<event>
 4    1  0.8984293E-005  0.4642694E+03  0.7818608E-02  0.1023550E+00
         -2   -1    0    0    0  501 -0.00000000000E+00  0.00000000000E+00  0.76031067109E+02  0.76031067152E+02  0.25500000000E-02 0. -1.
          2   -1    0    0  501    0  0.00000000000E+00 -0.00000000000E+00 -0.70874341922E+03  0.70874341923E+03  0.25500000000E-02 0.  1.
    5000001    1    1    2    0    0 -0.15785010924E+03  0.38879715339E+02 -0.34217083030E+03  0.41319991089E+03  0.16500000000E+03 0.  0.
   -5000001    1    1    2    0    0  0.15785010924E+03 -0.38879715339E+02 -0.29054152181E+03  0.37157457548E+03  0.16500000000E+03 0.  0.
<mgrwt>
<rscale>  0 0.46426940E+03</rscale>
<asrwt>0</asrwt>
<pdfrwt beam="1">  1        2 0.10903744E+00 0.46426940E+03</pdfrwt>
<pdfrwt beam="2">  1       -2 0.11697088E-01 0.46426940E+03</pdfrwt>
<totfact> 0.21381444E+03</totfact>
</mgrwt>
</event>
<event>
 4    1  0.8984293E-005  0.6159450E+03  0.7818608E-02  0.9872866E-01
         -2   -1    0    0    0  501 -0.00000000000E+00  0.00000000000E+00  0.41189809147E+03  0.41189809148E+03  0.25500000000E-02 0. -1.
          2   -1    0    0  501    0  0.00000000000E+00 -0.00000000000E+00 -0.23026830580E+03  0.23026830581E+03  0.25500000000E-02 0.  1.
    5000001    1    1    2    0    0 -0.37781547489E+02 -0.25526927567E+03  0.57318867958E+02  0.31160921208E+03  0.16500000000E+03 0.  0.
   -5000001    1    1    2    0    0  0.37781547489E+02  0.25526927567E+03  0.12431091771E+03  0.33055718521E+03  0.16500000000E+03 0.  0.
<mgrwt>
<rscale>  0 0.61594505E+03</rscale>
<asrwt>0</asrwt>
<pdfrwt beam="1">  1        2 0.35425894E-01 0.61594505E+03</pdfrwt>
<pdfrwt beam="2">  1       -2 0.63368936E-01 0.61594505E+03</pdfrwt>
<totfact> 0.34363604E+02</totfact>
</mgrwt>
</event>
<event>
 4    1  0.8984293E-005  0.5207777E+03  0.7818608E-02  0.1008494E+00
          2   -1    0    0  501    0  0.00000000000E+00  0.00000000000E+00  0.13193702887E+04  0.13193702887E+04  0.25500000000E-02 0.  1.
         -2   -1    0    0    0  501 -0.00000000000E+00 -0.00000000000E+00 -0.51389925477E+02  0.51389925540E+02  0.25500000000E-02 0. -1.
    5000001    1    1    2    0    0  0.82886220050E+02 -0.17017468433E+03  0.45262454602E+03  0.51761329999E+03  0.16500000000E+03 0.  0.
   -5000001    1    1    2    0    0 -0.82886220050E+02  0.17017468433E+03  0.81535581719E+03  0.85314691425E+03  0.16500000000E+03 0.  0.
<mgrwt>
<rscale>  0 0.52077765E+03</rscale>
<asrwt>0</asrwt>
<pdfrwt beam="1">  1        2 0.20298003E+00 0.52077765E+03</pdfrwt>
<pdfrwt beam="2">  1       -2 0.79061431E-02 0.52077765E+03</pdfrwt>
<totfact> 0.16386184E+03</totfact>
</mgrwt>
</event>
<event>
 4    1  0.8984293E-005  0.3780372E+03  0.7818608E-02  0.1051662E+00
         -2   -1    0    0    0  501 -0.00000000000E+00  0.00000000000E+00  0.13639623402E+02  0.13639623640E+02  0.25500000000E-02 0. -1.
          2   -1    0    0  501    0  0.00000000000E+00 -0.00000000000E+00 -0.26194296098E+04  0.26194296098E+04  0.25500000000E-02 0.  1.
    5000001    1    1    2    0    0  0.26212486341E+02 -0.87930105285E+02 -0.12389691826E+04  0.12532710933E+04  0.16500000000E+03 0.  0.
   -5000001    1    1    2    0    0 -0.26212486341E+02  0.87930105285E+02 -0.13668208038E+04  0.13797981402E+04  0.16500000000E+03 0.  0.
<mgrwt>
<rscale>  0 0.37803721E+03</rscale>
<asrwt>0</asrwt>
<pdfrwt beam="1">  1        2 0.40298877E+00 0.37803721E+03</pdfrwt>
<pdfrwt beam="2">  1       -2 0.20984057E-02 0.37803721E+03</pdfrwt>
<totfact> 0.24593674E+03</totfact>
</mgrwt>
</event>
<event>
 4    1  0.8984293E-005  0.6808066E+03  0.7818608E-02  0.9750630E-01
          2   -1    0    0  501    0  0.00000000000E+00  0.00000000000E+00  0.34254781652E+04  0.34254781652E+04  0.25500000000E-02 0.  1.
         -2   -1    0    0    0  501 -0.00000000000E+00 -0.00000000000E+00 -0.33827223369E+02  0.33827223465E+02  0.25500000000E-02 0. -1.
    5000001    1    1    2    0    0  0.14366232732E+03 -0.17294931926E+03  0.26876215716E+04  0.27020520060E+04  0.16500000000E+03 0.  0.
   -5000001    1    1    2    0    0 -0.14366232732E+03  0.17294931926E+03  0.70402937027E+03  0.75725338264E+03  0.16500000000E+03 0.  0.
<mgrwt>
<rscale>  0 0.68080663E+03</rscale>
<asrwt>0</asrwt>
<pdfrwt beam="1">  1        2 0.52699663E+00 0.68080663E+03</pdfrwt>
<pdfrwt beam="2">  1       -2 0.52041884E-02 0.68080663E+03</pdfrwt>
<totfact> 0.19235195E+02</totfact>
</mgrwt>
</event>
<event>
 4    1  0.8984293E-005  0.5108026E+03  0.7818608E-02  0.1010997E+00
         -2   -1    0    0    0  501 -0.00000000000E+00  0.00000000000E+00  0.68972818703E+02  0.68972818750E+02  0.25500000000E-02 0. -1.
          2   -1    0    0  501    0  0.00000000000E+00 -0.00000000000E+00 -0.94573248516E+03  0.94573248516E+03  0.25500000000E-02 0.  1.
    5000001    1    1    2    0    0 -0.11522433359E+03 -0.11184562745E+03 -0.65796352069E+03  0.69708470503E+03  0.16500000000E+03 0.  0.
   -5000001    1    1    2    0    0  0.11522433359E+03  0.11184562745E+03 -0.21879614577E+03  0.31762059888E+03  0.16500000000E+03 0.  0.
<mgrwt>
<rscale>  0 0.51080264E+03</rscale>
<asrwt>0</asrwt>
<pdfrwt beam="1">  1        2 0.14549730E+00 0.51080264E+03</pdfrwt>
<pdfrwt beam="2">  1       -2 0.10611204E-01 0.51080264E+03</pdfrwt>
<totfact> 0.17120688E+03</totfact>
</mgrwt>
</event>
<event>
 4    1  0.8984293E-005  0.6654888E+03  0.7818608E-02  0.9778142E-01
          2   -1    0    0  501    0  0.00000000000E+00  0.00000000000E+00  0.15856567440E+04  0.15856567440E+04  0.25500000000E-02 0.  1.
         -2   -1    0    0    0  501 -0.00000000000E+00 -0.00000000000E+00 -0.69825227237E+02  0.69825227284E+02  0.25500000000E-02 0. -1.
    5000001    1    1    2    0    0  0.27389541604E+03 -0.49386089583E+02  0.95118555134E+03  0.10047072399E+04  0.16500000000E+03 0.  0.
   -5000001    1    1    2    0    0 -0.27389541604E+03  0.49386089583E+02  0.56464596538E+03  0.65077473137E+03  0.16500000000E+03 0.  0.
<mgrwt>
<rscale>  0 0.66548882E+03</rscale>
<asrwt>0</asrwt>
<pdfrwt beam="1">  1        2 0.24394719E+00 0.66548882E+03</pdfrwt>
<pdfrwt beam="2">  1       -2 0.10742343E-01 0.66548882E+03</pdfrwt>
<totfact> 0.70651678E+02</totfact>
</mgrwt>
</event>
<event>
 4    1  0.8984293E-005  0.7659179E+03  0.7818608E-02  0.9610703E-01
          2   -1    0    0  501    0  0.00000000000E+00  0.00000000000E+00  0.53793895605E+03  0.53793895606E+03  0.25500000000E-02 0. -1.
         -2   -1    0    0    0  501 -0.00000000000E+00 -0.00000000000E+00 -0.27262861905E+03  0.27262861907E+03  0.25500000000E-02 0.  1.
    5000001    1    1    2    0    0  0.29334849555E+02  0.30796372913E+03 -0.30371705438E+02  0.35192276475E+03  0.16500000000E+03 0.  0.
   -5000001    1    1    2    0    0 -0.29334849555E+02 -0.30796372913E+03  0.29568204243E+03  0.45864481037E+03  0.16500000000E+03 0.  0.
<mgrwt>
<rscale>  0 0.76591789E+03</rscale>
<asrwt>0</asrwt>
<pdfrwt beam="1">  1        2 0.82759839E-01 0.76591789E+03</pdfrwt>
<pdfrwt beam="2">  1       -2 0.41942865E-01 0.76591789E+03</pdfrwt>
<totfact> 0.30661863E+02</totfact>
</mgrwt>
</event>
<event>
 4    1  0.8984293E-005  0.4209360E+03  0.7818608E-02  0.1036762E+00
         -2   -1    0    0    0  501 -0.00000000000E+00  0.00000000000E+00  0.51504306783E+02  0.51504306846E+02  0.25500000000E-02 0. -1.
          2   -1    0    0  501    0  0.00000000000E+00 -0.00000000000E+00 -0.86005956341E+03  0.86005956341E+03  0.25500000000E-02 0.  1.
    5000001    1    1    2    0    0 -0.12570579569E+03 -0.26507579408E+02 -0.35270387155E+03  0.41003612016E+03  0.16500000000E+03 0.  0.
   -5000001    1    1    2    0    0  0.12570579569E+03  0.26507579408E+02 -0.45585138508E+03  0.50152775009E+03  0.16500000000E+03 0.  0.
<mgrwt>
<rscale>  0 0.42093596E+03</rscale>
<asrwt>0</asrwt>
<pdfrwt beam="1">  1        2 0.13231685E+00 0.42093596E+03</pdfrwt>
<pdfrwt beam="2">  1       -2 0.79237401E-02 0.42093596E+03</pdfrwt>
<totfact> 0.31125519E+03</totfact>
</mgrwt>
</event>
<event>
 4    1  0.8984293E-005  0.4695344E+03  0.7818608E-02  0.1022052E+00
         -2   -1    0    0    0  501 -0.00000000000E+00  0.00000000000E+00  0.27690154154E+02  0.27690154272E+02  0.25500000000E-02 0. -1.
          2   -1    0    0  501    0  0.00000000000E+00 -0.00000000000E+00 -0.19904418216E+04  0.19904418216E+04  0.25500000000E-02 0.  1.
    5000001    1    1    2    0    0 -0.78189259206E+02  0.10504105752E+03 -0.14268824529E+04  0.14423472947E+04  0.16500000000E+03 0.  0.
   -5000001    1    1    2    0    0  0.78189259206E+02 -0.10504105752E+03 -0.53586921451E+03  0.57578468118E+03  0.16500000000E+03 0.  0.
<mgrwt>
<rscale>  0 0.46953441E+03</rscale>
<asrwt>0</asrwt>
<pdfrwt beam="1">  1        2 0.30622171E+00 0.46953441E+03</pdfrwt>
<pdfrwt beam="2">  1       -2 0.42600253E-02 0.46953441E+03</pdfrwt>
<totfact> 0.18554980E+03</totfact>
</mgrwt>
</event>
<event>
 4    1  0.8984293E-005  0.4352017E+03  0.7818608E-02  0.1032229E+00
          2   -1    0    0  501    0  0.00000000000E+00  0.00000000000E+00  0.70449008384E+03  0.70449008384E+03  0.25500000000E-02 0.  1.
         -2   -1    0    0    0  501 -0.00000000000E+00 -0.00000000000E+00 -0.67211907276E+02  0.67211907324E+02  0.25500000000E-02 0. -1.
    5000001    1    1    2    0    0  0.12438866091E+03 -0.45341333030E+02  0.22827957708E+03  0.31123132997E+03  0.16500000000E+03 0.  0.
   -5000001    1    1    2    0    0 -0.12438866091E+03  0.45341333030E+02  0.40899859949E+03  0.46047066120E+03  0.16500000000E+03 0.  0.
<mgrwt>
<rscale>  0 0.43520166E+03</rscale>
<asrwt>0</asrwt>
<pdfrwt beam="1">  1        2 0.10838308E+00 0.43520166E+03</pdfrwt>
<pdfrwt beam="2">  1       -2 0.10340294E-01 0.43520166E+03</pdfrwt>
<totfact> 0.26306722E+03</totfact>
</mgrwt>
</event>
<event>
 4    1  0.8984293E-005  0.1010802E+04  0.7818608E-02  0.9296776E-01
          2   -1    0    0  501    0  0.00000000000E+00  0.00000000000E+00  0.46587809139E+03  0.46587809139E+03  0.25500000000E-02 0.  1.
         -2   -1    0    0    0  501 -0.00000000000E+00 -0.00000000000E+00 -0.54827716345E+03  0.54827716346E+03  0.25500000000E-02 0. -1.
    5000001    1    1    2    0    0  0.37241818829E+03  0.29777739489E+03 -0.70254785804E+02  0.50943833661E+03  0.16500000000E+03 0.  0.
   -5000001    1    1    2    0    0 -0.37241818829E+03 -0.29777739489E+03 -0.12144286260E+02  0.50471691825E+03  0.16500000000E+03 0.  0.
<mgrwt>
<rscale>  0 0.10108023E+04</rscale>
<asrwt>0</asrwt>
<pdfrwt beam="1">  1        2 0.71673553E-01 0.10108023E+04</pdfrwt>
<pdfrwt beam="2">  1       -2 0.84350333E-01 0.10108023E+04</pdfrwt>
<totfact> 0.81822641E+01</totfact>
</mgrwt>
</event>
<event>
 4    1  0.8984293E-005  0.5067343E+03  0.7818608E-02  0.1012036E+00
         -2   -1    0    0    0  501 -0.00000000000E+00  0.00000000000E+00  0.40873347197E+02  0.40873347276E+02  0.25500000000E-02 0. -1.
          2   -1    0    0  501    0  0.00000000000E+00 -0.00000000000E+00 -0.15705814676E+04  0.15705814676E+04  0.25500000000E-02 0.  1.
    5000001    1    1    2    0    0 -0.77304644731E+02 -0.17380411054E+03 -0.67569583042E+03  0.72109204141E+03  0.16500000000E+03 0.  0.
   -5000001    1    1    2    0    0  0.77304644731E+02  0.17380411054E+03 -0.85401228995E+03  0.89036277343E+03  0.16500000000E+03 0.  0.
<mgrwt>
<rscale>  0 0.50673434E+03</rscale>
<asrwt>0</asrwt>
<pdfrwt beam="1">  1        2 0.24162787E+00 0.50673434E+03</pdfrwt>
<pdfrwt beam="2">  1       -2 0.62882085E-02 0.50673434E+03</pdfrwt>
<totfact> 0.17067585E+03</totfact>
</mgrwt>
</event>
<event>
 4    1  0.8984293E-005  0.1553454E+04  0.7818608E-02  0.8849665E-01
          2   -1    0    0  501    0  0.00000000000E+00  0.00000000000E+00  0.73346669257E+03  0.73346669257E+03  0.25500000000E-02 0.  1.
         -2   -1    0    0    0  501 -0.00000000000E+00 -0.00000000000E+00 -0.82253885748E+03  0.82253885748E+03  0.25500000000E-02 0. -1.
    5000001    1    1    2    0    0 -0.32911890802E+03  0.68366521399E+03 -0.25466038651E+02  0.77691112719E+03  0.16500000000E+03 0.  0.
   -5000001    1    1    2    0    0  0.32911890802E+03 -0.68366521399E+03 -0.63606126256E+02  0.77909442286E+03  0.16500000000E+03 0.  0.
<mgrwt>
<rscale>  0 0.15534540E+04</rscale>
<asrwt>0</asrwt>
<pdfrwt beam="1">  1        2 0.11284103E+00 0.15534540E+04</pdfrwt>
<pdfrwt beam="2">  1       -2 0.12654444E+00 0.15534540E+04</pdfrwt>
<totfact> 0.17264360E+01</totfact>
</mgrwt>
</event>
<event>
 4    1  0.8984293E-005  0.1041014E+04  0.7818608E-02  0.9264671E-01
         -2   -1    0    0    0  501 -0.00000000000E+00  0.00000000000E+00  0.20253775928E+03  0.20253775929E+03  0.25500000000E-02 0. -1.
          2   -1    0    0  501    0  0.00000000000E+00 -0.00000000000E+00 -0.13376638945E+04  0.13376638945E+04  0.25500000000E-02 0.  1.
    5000001    1    1    2    0    0  0.14827550754E+03  0.45597841463E+03 -0.74137060623E+03  0.89819670258E+03  0.16500000000E+03 0.  0.
   -5000001    1    1    2    0    0 -0.14827550754E+03 -0.45597841463E+03 -0.39375552895E+03  0.64200495117E+03  0.16500000000E+03 0.  0.
<mgrwt>
<rscale>  0 0.10410138E+04</rscale>
<asrwt>0</asrwt>
<pdfrwt beam="1">  1        2 0.20579444E+00 0.10410138E+04</pdfrwt>
<pdfrwt beam="2">  1       -2 0.31159656E-01 0.10410138E+04</pdfrwt>
<totfact> 0.14937600E+02</totfact>
</mgrwt>
</event>
<event>
 4    1  0.8984293E-005  0.4136827E+03  0.7818608E-02  0.1039142E+00
         -2   -1    0    0    0  501 -0.00000000000E+00  0.00000000000E+00  0.13112327788E+03  0.13112327790E+03  0.25500000000E-02 0. -1.
          2   -1    0    0  501    0  0.00000000000E+00 -0.00000000000E+00 -0.32628332337E+03  0.32628332338E+03  0.25500000000E-02 0.  1.
    5000001    1    1    2    0    0  0.55396536169E+02  0.67502888601E+02 -0.19606085411E+03  0.27072176621E+03  0.16500000000E+03 0.  0.
   -5000001    1    1    2    0    0 -0.55396536169E+02 -0.67502888601E+02  0.90080861728E+00  0.18668483507E+03  0.16500000000E+03 0.  0.
<mgrwt>
<rscale>  0 0.41368267E+03</rscale>
<asrwt>0</asrwt>
<pdfrwt beam="1">  1        2 0.50197434E-01 0.41368267E+03</pdfrwt>
<pdfrwt beam="2">  1       -2 0.20172812E-01 0.41368267E+03</pdfrwt>
<totfact> 0.20801617E+03</totfact>
</mgrwt>
</event>
<event>
 4    1  0.8984293E-005  0.6181685E+03  0.7818608E-02  0.9868413E-01
          2   -1    0    0  501    0  0.00000000000E+00  0.00000000000E+00  0.12020129543E+04  0.12020129543E+04  0.25500000000E-02 0.  1.
         -2   -1    0    0    0  501 -0.00000000000E+00 -0.00000000000E+00 -0.79477566660E+02  0.79477566701E+02  0.25500000000E-02 0. -1.
    5000001    1    1    2    0    0  0.25309044568E+03  0.54895211316E+02  0.48827396396E+03  0.57680561873E+03  0.16500000000E+03 0.  0.
   -5000001    1    1    2    0    0 -0.25309044568E+03 -0.54895211316E+02  0.63426142366E+03  0.70468490226E+03  0.16500000000E+03 0.  0.
<mgrwt>
<rscale>  0 0.61816847E+03</rscale>
<asrwt>0</asrwt>
<pdfrwt beam="1">  1        2 0.18492506E+00 0.61816847E+03</pdfrwt>
<pdfrwt beam="2">  1       -2 0.12227319E-01 0.61816847E+03</pdfrwt>
<totfact> 0.94262193E+02</totfact>
</mgrwt>
</event>
<event>
 4    1  0.8984293E-005  0.4647062E+03  0.7818608E-02  0.1023425E+00
         -2   -1    0    0    0  501 -0.00000000000E+00  0.00000000000E+00  0.58818064688E+02  0.58818064744E+02  0.25500000000E-02 0. -1.
          2   -1    0    0  501    0  0.00000000000E+00 -0.00000000000E+00 -0.91788045398E+03  0.91788045399E+03  0.25500000000E-02 0.  1.
    5000001    1    1    2    0    0 -0.13643486266E+03  0.59202721132E+02 -0.57275185579E+03  0.61432004871E+03  0.16500000000E+03 0.  0.
   -5000001    1    1    2    0    0  0.13643486266E+03 -0.59202721132E+02 -0.28631053350E+03  0.36237847002E+03  0.16500000000E+03 0.  0.
<mgrwt>
<rscale>  0 0.46470615E+03</rscale>
<asrwt>0</asrwt>
<pdfrwt beam="1">  1        2 0.14121237E+00 0.46470615E+03</pdfrwt>
<pdfrwt beam="2">  1       -2 0.90489338E-02 0.46470615E+03</pdfrwt>
<totfact> 0.23078380E+03</totfact>
</mgrwt>
</event>
<event>
 4    1  0.8984293E-005  0.4272945E+03  0.7818608E-02  0.1034718E+00
         -2   -1    0    0    0  501 -0.00000000000E+00  0.00000000000E+00  0.26349004875E+03  0.26349004877E+03  0.25500000000E-02 0.  1.
          2   -1    0    0  501    0  0.00000000000E+00 -0.00000000000E+00 -0.17323292890E+03  0.17323292892E+03  0.25500000000E-02 0. -1.
    5000001    1    1    2    0    0 -0.12905278413E+03  0.40571223702E+02  0.33955387957E+02  0.21605234009E+03  0.16500000000E+03 0.  0.
   -5000001    1    1    2    0    0  0.12905278413E+03 -0.40571223702E+02  0.56301731893E+02  0.22067063760E+03  0.16500000000E+03 0.  0.
<mgrwt>
<rscale>  0 0.42729453E+03</rscale>
<asrwt>0</asrwt>
<pdfrwt beam="1">  1        2 0.26651220E-01 0.42729453E+03</pdfrwt>
<pdfrwt beam="2">  1       -2 0.40536930E-01 0.42729453E+03</pdfrwt>
<totfact> 0.11708677E+03</totfact>
</mgrwt>
</event>
<event>
 4    1  0.8984293E-005  0.4582861E+03  0.7818608E-02  0.1025279E+00
          2   -1    0    0  501    0  0.00000000000E+00  0.00000000000E+00  0.39816643861E+03  0.39816643861E+03  0.25500000000E-02 0.  1.
         -2   -1    0    0    0  501 -0.00000000000E+00 -0.00000000000E+00 -0.13187084376E+03  0.13187084379E+03  0.25500000000E-02 0. -1.
    5000001    1    1    2    0    0 -0.73420628021E+02 -0.13846407869E+03  0.10214293664E+03  0.24944151461E+03  0.16500000000E+03 0.  0.
   -5000001    1    1    2    0    0  0.73420628021E+02  0.13846407869E+03  0.16415265820E+03  0.28059576779E+03  0.16500000000E+03 0.  0.
<mgrwt>
<rscale>  0 0.45828613E+03</rscale>
<asrwt>0</asrwt>
<pdfrwt beam="1">  1        2 0.61256375E-01 0.45828613E+03</pdfrwt>
<pdfrwt beam="2">  1       -2 0.20287822E-01 0.45828613E+03</pdfrwt>
<totfact> 0.16561259E+03</totfact>
</mgrwt>
</event>
<event>
 4    1  0.8984293E-005  0.6417988E+03  0.7818608E-02  0.9822291E-01
         -2   -1    0    0    0  501 -0.00000000000E+00  0.00000000000E+00  0.85640895512E+02  0.85640895549E+02  0.25500000000E-02 0. -1.
          2   -1    0    0  501    0  0.00000000000E+00 -0.00000000000E+00 -0.12024212805E+04  0.12024212805E+04  0.25500000000E-02 0.  1.
    5000001    1    1    2    0    0 -0.15200848791E+03  0.15941086424E+03 -0.88958681323E+03  0.93118639504E+03  0.16500000000E+03 0.  0.
   -5000001    1    1    2    0    0  0.15200848791E+03 -0.15941086424E+03 -0.22719357180E+03  0.35687578105E+03  0.16500000000E+03 0.  0.
<mgrwt>
<rscale>  0 0.64179883E+03</rscale>
<asrwt>0</asrwt>
<pdfrwt beam="1">  1        2 0.18498788E+00 0.64179883E+03</pdfrwt>
<pdfrwt beam="2">  1       -2 0.13175523E-01 0.64179883E+03</pdfrwt>
<totfact> 0.83165825E+02</totfact>
</mgrwt>
</event>
<event>
 4    1  0.8984293E-005  0.6595793E+03  0.7818608E-02  0.9788968E-01
          2   -1    0    0  501    0  0.00000000000E+00  0.00000000000E+00  0.22002990045E+04  0.22002990045E+04  0.25500000000E-02 0.  1.
         -2   -1    0    0    0  501 -0.00000000000E+00 -0.00000000000E+00 -0.49430203167E+02  0.49430203233E+02  0.25500000000E-02 0. -1.
    5000001    1    1    2    0    0 -0.22353824797E+03 -0.11419902765E+02  0.16801902115E+04  0.17030454807E+04  0.16500000000E+03 0.  0.
   -5000001    1    1    2    0    0  0.22353824797E+03  0.11419902765E+02  0.47067858983E+03  0.54668372704E+03  0.16500000000E+03 0.  0.
<mgrwt>
<rscale>  0 0.65957934E+03</rscale>
<asrwt>0</asrwt>
<pdfrwt beam="1">  1        2 0.33850754E+00 0.65957934E+03</pdfrwt>
<pdfrwt beam="2">  1       -2 0.76046467E-02 0.65957934E+03</pdfrwt>
<totfact> 0.57057537E+02</totfact>
</mgrwt>
</event>
<event>
 4    1  0.8984293E-005  0.5929059E+03  0.7818608E-02  0.9920234E-01
          2   -1    0    0  501    0  0.00000000000E+00  0.00000000000E+00  0.17179688933E+04  0.17179688933E+04  0.25500000000E-02 0.  1.
         -2   -1    0    0    0  501 -0.00000000000E+00 -0.00000000000E+00 -0.51155958526E+02  0.51155958590E+02  0.25500000000E-02 0. -1.
    5000001    1    1    2    0    0 -0.13379670070E+03  0.50507930667E+02  0.14317107929E+04  0.14482656533E+04  0.16500000000E+03 0.  0.
   -5000001    1    1    2    0    0  0.13379670070E+03 -0.50507930667E+02  0.23510214192E+03  0.32085919858E+03  0.16500000000E+03 0.  0.
<mgrwt>
<rscale>  0 0.59290588E+03</rscale>
<asrwt>0</asrwt>
<pdfrwt beam="1">  1        2 0.26430290E+00 0.59290588E+03</pdfrwt>
<pdfrwt beam="2">  1       -2 0.78701477E-02 0.59290588E+03</pdfrwt>
<totfact> 0.99204730E+02</totfact>
</mgrwt>
</event>
<event>
 4    1  0.8984293E-005  0.9195577E+03  0.7818608E-02  0.9401458E-01
          2   -1    0    0  501    0  0.00000000000E+00  0.00000000000E+00  0.37440396859E+03  0.37440396860E+03  0.25500000000E-02 0.  1.
         -2   -1    0    0    0  501 -0.00000000000E+00 -0.00000000000E+00 -0.56462164366E+03  0.56462164367E+03  0.25500000000E-02 0. -1.
    5000001    1    1    2    0    0 -0.11963639924E+03  0.28872211052E+03  0.20522353212E+03  0.40867471571E+03  0.16500000000E+03 0.  0.
   -5000001    1    1    2    0    0  0.11963639924E+03 -0.28872211052E+03 -0.39544120719E+03  0.53035089655E+03  0.16500000000E+03 0.  0.
<mgrwt>
<rscale>  0 0.91955769E+03</rscale>
<asrwt>0</asrwt>
<pdfrwt beam="1">  1        2 0.57600611E-01 0.91955769E+03</pdfrwt>
<pdfrwt beam="2">  1       -2 0.86864868E-01 0.91955769E+03</pdfrwt>
<totfact> 0.98519757E+01</totfact>
</mgrwt>
</event>
<event>
 4    1  0.8984293E-005  0.7280557E+03  0.7818608E-02  0.9670421E-01
         -2   -1    0    0    0  501 -0.00000000000E+00  0.00000000000E+00  0.30377441194E+03  0.30377441195E+03  0.25500000000E-02 0.  1.
          2   -1    0    0  501    0  0.00000000000E+00 -0.00000000000E+00 -0.43623256181E+03  0.43623256182E+03  0.25500000000E-02 0. -1.
    5000001    1    1    2    0    0  0.26373196317E+02 -0.31061742587E+03  0.25319190919E+02  0.35361673061E+03  0.16500000000E+03 0.  0.
   -5000001    1    1    2    0    0 -0.26373196317E+02  0.31061742587E+03 -0.15777734079E+03  0.38639024315E+03  0.16500000000E+03 0.  0.
<mgrwt>
<rscale>  0 0.72805574E+03</rscale>
<asrwt>0</asrwt>
<pdfrwt beam="1">  1        2 0.67112702E-01 0.72805574E+03</pdfrwt>
<pdfrwt beam="2">  1       -2 0.46734525E-01 0.72805574E+03</pdfrwt>
<totfact> 0.31544270E+02</totfact>
</mgrwt>
</event>
<event>
 4    1  0.8984293E-005  0.4406853E+03  0.7818608E-02  0.1030537E+00
         -2   -1    0    0    0  501 -0.00000000000E+00  0.00000000000E+00  0.29247402752E+02  0.29247402863E+02  0.25500000000E-02 0. -1.
          2   -1    0    0  501    0  0.00000000000E+00 -0.00000000000E+00 -0.16600066438E+04  0.16600066438E+04  0.25500000000E-02 0.  1.
    5000001    1    1    2    0    0  0.27274142361E+02 -0.14345069302E+03 -0.80780684733E+03  0.83731647707E+03  0.16500000000E+03 0.  0.
   -5000001    1    1    2    0    0 -0.27274142361E+02  0.14345069302E+03 -0.82295239369E+03  0.85193756957E+03  0.16500000000E+03 0.  0.
<mgrwt>
<rscale>  0 0.44068530E+03</rscale>
<asrwt>0</asrwt>
<pdfrwt beam="1">  1        2 0.25538556E+00 0.44068530E+03</pdfrwt>
<pdfrwt beam="2">  1       -2 0.44996017E-02 0.44068530E+03</pdfrwt>
<totfact> 0.25688732E+03</totfact>
</mgrwt>
</event>
<event>
 4    1  0.8984293E-005  0.4195251E+03  0.7818608E-02  0.1037221E+00
         -2   -1    0    0    0  501 -0.00000000000E+00  0.00000000000E+00  0.41312261640E+02  0.41312261719E+02  0.25500000000E-02 0. -1.
          2   -1    0    0  501    0  0.00000000000E+00 -0.00000000000E+00 -0.10650670512E+04  0.10650670512E+04  0.25500000000E-02 0.  1.
    5000001    1    1    2    0    0  0.11049032871E+03 -0.66961936208E+02 -0.53594915898E+03  0.57546373878E+03  0.16500000000E+03 0.  0.
   -5000001    1    1    2    0    0 -0.11049032871E+03  0.66961936208E+02 -0.48780563057E+03  0.53091557413E+03  0.16500000000E+03 0.  0.
<mgrwt>
<rscale>  0 0.41952511E+03</rscale>
<asrwt>0</asrwt>
<pdfrwt beam="1">  1        2 0.16385645E+00 0.41952511E+03</pdfrwt>
<pdfrwt beam="2">  1       -2 0.63557334E-02 0.41952511E+03</pdfrwt>
<totfact> 0.32558364E+03</totfact>
</mgrwt>
</event>
<event>
 4    1  0.8984293E-005  0.7646582E+03  0.7818608E-02  0.9612630E-01
          2   -1    0    0  501    0  0.00000000000E+00  0.00000000000E+00  0.93610160014E+02  0.93610160049E+02  0.25500000000E-02 0.  1.
         -2   -1    0    0    0  501 -0.00000000000E+00 -0.00000000000E+00 -0.15615351405E+04  0.15615351405E+04  0.25500000000E-02 0. -1.
    5000001    1    1    2    0    0  0.21212825512E+03  0.15392265321E+03 -0.24869646396E+03  0.39719706819E+03  0.16500000000E+03 0.  0.
   -5000001    1    1    2    0    0 -0.21212825512E+03 -0.15392265321E+03 -0.12192285165E+04  0.12579482324E+04  0.16500000000E+03 0.  0.
<mgrwt>
<rscale>  0 0.76465824E+03</rscale>
<asrwt>0</asrwt>
<pdfrwt beam="1">  1        2 0.14401564E-01 0.76465824E+03</pdfrwt>
<pdfrwt beam="2">  1       -2 0.24023616E+00 0.76465824E+03</pdfrwt>
<totfact> 0.31866687E+01</totfact>
</mgrwt>
</event>
<event>
 4    1  0.8984293E-005  0.3757287E+03  0.7818608E-02  0.1052524E+00
          2   -1    0    0  501    0  0.00000000000E+00  0.00000000000E+00  0.47429220744E+03  0.47429220745E+03  0.25500000000E-02 0.  1.
         -2   -1    0    0    0  501 -0.00000000000E+00 -0.00000000000E+00 -0.74411962632E+02  0.74411962676E+02  0.25500000000E-02 0. -1.
    5000001    1    1    2    0    0 -0.45743949868E+02 -0.46842840047E+02  0.28974124857E+03  0.33979663291E+03  0.16500000000E+03 0.  0.
   -5000001    1    1    2    0    0  0.45743949868E+02  0.46842840047E+02  0.11013899624E+03  0.20890753722E+03  0.16500000000E+03 0.  0.
<mgrwt>
<rscale>  0 0.37572870E+03</rscale>
<asrwt>0</asrwt>
<pdfrwt beam="1">  1        2 0.72968028E-01 0.37572870E+03</pdfrwt>
<pdfrwt beam="2">  1       -2 0.11447995E-01 0.37572870E+03</pdfrwt>
<totfact> 0.35440083E+03</totfact>
</mgrwt>
</event>
<event>
 4    1  0.8984293E-005  0.3691669E+03  0.7818608E-02  0.1055012E+00
         -2   -1    0    0    0  501 -0.00000000000E+00  0.00000000000E+00  0.69712951425E+02  0.69712951472E+02  0.25500000000E-02 0. -1.
          2   -1    0    0  501    0  0.00000000000E+00 -0.00000000000E+00 -0.48873331548E+03  0.48873331549E+03  0.25500000000E-02 0.  1.
    5000001    1    1    2    0    0  0.41623251906E+02  0.67746690583E+02 -0.24413571340E+03  0.30520379379E+03  0.16500000000E+03 0.  0.
   -5000001    1    1    2    0    0 -0.41623251906E+02 -0.67746690583E+02 -0.17488465066E+03  0.25324247317E+03  0.16500000000E+03 0.  0.
<mgrwt>
<rscale>  0 0.36916686E+03</rscale>
<asrwt>0</asrwt>
<pdfrwt beam="1">  1        2 0.75189739E-01 0.36916686E+03</pdfrwt>
<pdfrwt beam="2">  1       -2 0.10725070E-01 0.36916686E+03</pdfrwt>
<totfact> 0.38061352E+03</totfact>
</mgrwt>
</event>
<event>
 4    1  0.8984293E-005  0.9835241E+03  0.7818608E-02  0.9326802E-01
          2   -1    0    0  501    0  0.00000000000E+00  0.00000000000E+00  0.85232429387E+03  0.85232429388E+03  0.25500000000E-02 0.  1.
         -2   -1    0    0    0  501 -0.00000000000E+00 -0.00000000000E+00 -0.28372994841E+03  0.28372994842E+03  0.25500000000E-02 0. -1.
    5000001    1    1    2    0    0 -0.35298998135E+03 -0.20809990317E+03  0.53390634772E+03  0.69295633684E+03  0.16500000000E+03 0.  0.
   -5000001    1    1    2    0    0  0.35298998135E+03  0.20809990317E+03  0.34687997745E+02  0.44309790546E+03  0.16500000000E+03 0.  0.
<mgrwt>
<rscale>  0 0.98352413E+03</rscale>
<asrwt>0</asrwt>
<pdfrwt beam="1">  1        2 0.13112681E+00 0.98352413E+03</pdfrwt>
<pdfrwt beam="2">  1       -2 0.43650762E-01 0.98352413E+03</pdfrwt>
<totfact> 0.15716656E+02</totfact>
</mgrwt>
</event>
<event>
 4    1  0.8984293E-005  0.3677627E+03  0.7818608E-02  0.1055552E+00
          2   -1    0    0  501    0  0.00000000000E+00  0.00000000000E+00  0.25836633932E+04  0.25836633932E+04  0.25500000000E-02 0.  1.
         -2   -1    0    0    0  501 -0.00000000000E+00 -0.00000000000E+00 -0.13086978288E+02  0.13086978537E+02  0.25500000000E-02 0. -1.
    5000001    1    1    2    0    0  0.61912221507E+02  0.28528221674E+02  0.97425683086E+03  0.99047885140E+03  0.16500000000E+03 0.  0.
   -5000001    1    1    2    0    0 -0.61912221507E+02 -0.28528221674E+02  0.15963195840E+04  0.16062715203E+04  0.16500000000E+03 0.  0.
<mgrwt>
<rscale>  0 0.36776268E+03</rscale>
<asrwt>0</asrwt>
<pdfrwt beam="1">  1        2 0.39748683E+00 0.36776268E+03</pdfrwt>
<pdfrwt beam="2">  1       -2 0.20133805E-02 0.36776268E+03</pdfrwt>
<totfact> 0.27411085E+03</totfact>
</mgrwt>
</event>
<event>
 4    1  0.8984293E-005  0.4102102E+03  0.7818608E-02  0.1040301E+00
          2   -1    0    0  501    0  0.00000000000E+00  0.00000000000E+00  0.28149682859E+03  0.28149682860E+03  0.25500000000E-02 0.  1.
         -2   -1    0    0    0  501 -0.00000000000E+00 -0.00000000000E+00 -0.14944428399E+03  0.14944428401E+03  0.25500000000E-02 0. -1.
    5000001    1    1    2    0    0  0.10496558707E+03 -0.52928474423E+02  0.32410812857E+02  0.20516982883E+03  0.16500000000E+03 0.  0.
   -5000001    1    1    2    0    0 -0.10496558707E+03  0.52928474423E+02  0.99641731745E+02  0.22577128378E+03  0.16500000000E+03 0.  0.
<mgrwt>
<rscale>  0 0.41021015E+03</rscale>
<asrwt>0</asrwt>
<pdfrwt beam="1">  1        2 0.43307204E-01 0.41021015E+03</pdfrwt>
<pdfrwt beam="2">  1       -2 0.22991428E-01 0.41021015E+03</pdfrwt>
<totfact> 0.19451357E+03</totfact>
</mgrwt>
</event>
<event>
 4    1  0.8984293E-005  0.7995975E+03  0.7818608E-02  0.9560600E-01
         -2   -1    0    0    0  501 -0.00000000000E+00  0.00000000000E+00  0.20791370796E+03  0.20791370798E+03  0.25500000000E-02 0. -1.
          2   -1    0    0  501    0  0.00000000000E+00 -0.00000000000E+00 -0.76877593853E+03  0.76877593853E+03  0.25500000000E-02 0.  1.
    5000001    1    1    2    0    0  0.21641923204E+03  0.22601650504E+03 -0.50794505592E+03  0.61899428461E+03  0.16500000000E+03 0.  0.
   -5000001    1    1    2    0    0 -0.21641923204E+03 -0.22601650504E+03 -0.52917174646E+02  0.35769536189E+03  0.16500000000E+03 0.  0.
<mgrwt>
<rscale>  0 0.79959754E+03</rscale>
<asrwt>0</asrwt>
<pdfrwt beam="1">  1        2 0.11827322E+00 0.79959754E+03</pdfrwt>
<pdfrwt beam="2">  1       -2 0.31986725E-01 0.79959754E+03</pdfrwt>
<totfact> 0.33161375E+02</totfact>
</mgrwt>
</event>
<event>
 4    1  0.8984293E-005  0.5299196E+03  0.7818608E-02  0.1006252E+00
         -2   -1    0    0    0  501 -0.00000000000E+00  0.00000000000E+00  0.32967278924E+03  0.32967278925E+03  0.25500000000E-02 0. -1.
          2   -1    0    0  501    0  0.00000000000E+00 -0.00000000000E+00 -0.21294958396E+03  0.21294958397E+03  0.25500000000E-02 0.  1.
    5000001    1    1    2    0    0 -0.14657222703E+03 -0.37017097562E+02 -0.86901627406E+02  0.24006369175E+03  0.16500000000E+03 0.  0.
   -5000001    1    1    2    0    0  0.14657222703E+03  0.37017097562E+02  0.20362483269E+03  0.30255868147E+03  0.16500000000E+03 0.  0.
<mgrwt>
<rscale>  0 0.52991955E+03</rscale>
<asrwt>0</asrwt>
<pdfrwt beam="1">  1        2 0.32761474E-01 0.52991955E+03</pdfrwt>
<pdfrwt beam="2">  1       -2 0.50718891E-01 0.52991955E+03</pdfrwt>
<totfact> 0.59634291E+02</totfact>
</mgrwt>
</event>
<event>
 4    1  0.8984293E-005  0.4101441E+03  0.7818608E-02  0.1040323E+00
         -2   -1    0    0    0  501 -0.00000000000E+00  0.00000000000E+00  0.66360678338E+02  0.66360678387E+02  0.25500000000E-02 0. -1.
          2   -1    0    0  501    0  0.00000000000E+00 -0.00000000000E+00 -0.63372692753E+03  0.63372692753E+03  0.25500000000E-02 0.  1.
    5000001    1    1    2    0    0  0.10960430743E+03 -0.16926318550E+02 -0.36953927032E+03  0.41962349407E+03  0.16500000000E+03 0.  0.
   -5000001    1    1    2    0    0 -0.10960430743E+03  0.16926318550E+02 -0.19782697888E+03  0.28046411185E+03  0.16500000000E+03 0.  0.
<mgrwt>
<rscale>  0 0.41014412E+03</rscale>
<asrwt>0</asrwt>
<pdfrwt beam="1">  1        2 0.97496446E-01 0.41014412E+03</pdfrwt>
<pdfrwt beam="2">  1       -2 0.10209336E-01 0.41014412E+03</pdfrwt>
<totfact> 0.30534351E+03</totfact>
</mgrwt>
</event>
<event>
 4    1  0.8984293E-005  0.4378365E+03  0.7818608E-02  0.1031413E+00
          2   -1    0    0  501    0  0.00000000000E+00  0.00000000000E+00  0.56835143992E+02  0.56835144049E+02  0.25500000000E-02 0.  1.
         -2   -1    0    0    0  501 -0.00000000000E+00 -0.00000000000E+00 -0.84323161074E+03  0.84323161074E+03  0.25500000000E-02 0. -1.
    5000001    1    1    2    0    0 -0.39885814689E+02 -0.13811485736E+03 -0.38128253368E+03  0.43962252277E+03  0.16500000000E+03 0.  0.
   -5000001    1    1    2    0    0  0.39885814689E+02  0.13811485736E+03 -0.40511393307E+03  0.46044423202E+03  0.16500000000E+03 0.  0.
<mgrwt>
<rscale>  0 0.43783645E+03</rscale>
<asrwt>0</asrwt>
<pdfrwt beam="1">  1        2 0.87438689E-02 0.43783645E+03</pdfrwt>
<pdfrwt beam="2">  1       -2 0.12972793E+00 0.43783645E+03</pdfrwt>
<totfact> 0.34910205E+02</totfact>
</mgrwt>
</event>
<event>
 4    1  0.8984293E-005  0.5912646E+03  0.7818608E-02  0.9923697E-01
         -2   -1    0    0    0  501 -0.00000000000E+00  0.00000000000E+00  0.43214925691E+02  0.43214925767E+02  0.25500000000E-02 0. -1.
          2   -1    0    0  501    0  0.00000000000E+00 -0.00000000000E+00 -0.20224135468E+04  0.20224135468E+04  0.25500000000E-02 0.  1.
    5000001    1    1    2    0    0  0.17281263991E+03  0.12932764034E+03 -0.58242735687E+03  0.64267913697E+03  0.16500000000E+03 0.  0.
   -5000001    1    1    2    0    0 -0.17281263991E+03 -0.12932764034E+03 -0.13967712642E+04  0.14229493356E+04  0.16500000000E+03 0.  0.
<mgrwt>
<rscale>  0 0.59126458E+03</rscale>
<asrwt>0</asrwt>
<pdfrwt beam="1">  1        2 0.31114047E+00 0.59126458E+03</pdfrwt>
<pdfrwt beam="2">  1       -2 0.66484517E-02 0.59126458E+03</pdfrwt>
<totfact> 0.88687987E+02</totfact>
</mgrwt>
</event>
<event>
 4    1  0.8984293E-005  0.4105593E+03  0.7818608E-02  0.1040183E+00
          2   -1    0    0  501    0  0.00000000000E+00  0.00000000000E+00  0.35009229972E+02  0.35009230065E+02  0.25500000000E-02 0.  1.
         -2   -1    0    0    0  501 -0.00000000000E+00 -0.00000000000E+00 -0.12036749485E+04  0.12036749485E+04  0.25500000000E-02 0. -1.
    5000001    1    1    2    0    0  0.26678093833E+02 -0.99102822247E+02 -0.38462129976E+03  0.43091952184E+03  0.16500000000E+03 0.  0.
   -5000001    1    1    2    0    0 -0.26678093833E+02  0.99102822247E+02 -0.78404441875E+03  0.80776465672E+03  0.16500000000E+03 0.  0.
<mgrwt>
<rscale>  0 0.41055929E+03</rscale>
<asrwt>0</asrwt>
<pdfrwt beam="1">  1        2 0.53860363E-02 0.41055929E+03</pdfrwt>
<pdfrwt beam="2">  1       -2 0.18518073E+00 0.41055929E+03</pdfrwt>
<totfact> 0.25596301E+02</totfact>
</mgrwt>
</event>
<event>
 4    1  0.8984293E-005  0.4699802E+03  0.7818608E-02  0.1021926E+00
          2   -1    0    0  501    0  0.00000000000E+00  0.00000000000E+00  0.12910519111E+04  0.12910519111E+04  0.25500000000E-02 0.  1.
         -2   -1    0    0    0  501 -0.00000000000E+00 -0.00000000000E+00 -0.42771586243E+02  0.42771586319E+02  0.25500000000E-02 0. -1.
    5000001    1    1    2    0    0 -0.88755141797E+02  0.14142071581E+03  0.59330536604E+03  0.63805450506E+03  0.16500000000E+03 0.  0.
   -5000001    1    1    2    0    0  0.88755141797E+02 -0.14142071581E+03  0.65497495882E+03  0.69576899237E+03  0.16500000000E+03 0.  0.
<mgrwt>
<rscale>  0 0.46998016E+03</rscale>
<asrwt>0</asrwt>
<pdfrwt beam="1">  1        2 0.19862336E+00 0.46998016E+03</pdfrwt>
<pdfrwt beam="2">  1       -2 0.65802444E-02 0.46998016E+03</pdfrwt>
<totfact> 0.22738446E+03</totfact>
</mgrwt>
</event>
<event>
 4    1  0.8984293E-005  0.7032916E+03  0.7818608E-02  0.9711620E-01
         -2   -1    0    0    0  501 -0.00000000000E+00  0.00000000000E+00  0.10758961421E+03  0.10758961424E+03  0.25500000000E-02 0. -1.
          2   -1    0    0  501    0  0.00000000000E+00 -0.00000000000E+00 -0.11493187067E+04  0.11493187067E+04  0.25500000000E-02 0.  1.
    5000001    1    1    2    0    0 -0.10170695064E+03  0.15978368638E+03 -0.96065100797E+03  0.99295039622E+03  0.16500000000E+03 0.  0.
   -5000001    1    1    2    0    0  0.10170695064E+03 -0.15978368638E+03 -0.81078084556E+02  0.26395792475E+03  0.16500000000E+03 0.  0.
<mgrwt>
<rscale>  0 0.70329156E+03</rscale>
<asrwt>0</asrwt>
<pdfrwt beam="1">  1        2 0.17681825E+00 0.70329156E+03</pdfrwt>
<pdfrwt beam="2">  1       -2 0.16552249E-01 0.70329156E+03</pdfrwt>
<totfact> 0.60724860E+02</totfact>
</mgrwt>
</event>
<event>
 4    1  0.8984293E-005  0.3571813E+03  0.7818608E-02  0.1059706E+00
         -2   -1    0    0    0  501 -0.00000000000E+00  0.00000000000E+00  0.97472261595E+03  0.97472261595E+03  0.25500000000E-02 0. -1.
          2   -1    0    0  501    0  0.00000000000E+00 -0.00000000000E+00 -0.32721744533E+02  0.32721744633E+02  0.25500000000E-02 0.  1.
    5000001    1    1    2    0    0 -0.56383171269E+02 -0.17320980090E+02  0.37367968701E+03  0.41272337811E+03  0.16500000000E+03 0.  0.
   -5000001    1    1    2    0    0  0.56383171269E+02  0.17320980090E+02  0.56832118441E+03  0.59472098248E+03  0.16500000000E+03 0.  0.
<mgrwt>
<rscale>  0 0.35718132E+03</rscale>
<asrwt>0</asrwt>
<pdfrwt beam="1">  1        2 0.50341154E-02 0.35718132E+03</pdfrwt>
<pdfrwt beam="2">  1       -2 0.14995730E+00 0.35718132E+03</pdfrwt>
<totfact> 0.49644457E+02</totfact>
</mgrwt>
</event>
<event>
 4    1  0.8984293E-005  0.3555316E+03  0.7818608E-02  0.1060367E+00
          2   -1    0    0  501    0  0.00000000000E+00  0.00000000000E+00  0.32032630267E+03  0.32032630268E+03  0.25500000000E-02 0.  1.
         -2   -1    0    0    0  501 -0.00000000000E+00 -0.00000000000E+00 -0.98651545510E+02  0.98651545543E+02  0.25500000000E-02 0. -1.
    5000001    1    1    2    0    0  0.64451202809E+02 -0.96242186600E+01  0.97447433024E+02  0.20240450917E+03  0.16500000000E+03 0.  0.
   -5000001    1    1    2    0    0 -0.64451202809E+02  0.96242186600E+01  0.12422732414E+03  0.21657333906E+03  0.16500000000E+03 0.  0.
<mgrwt>
<rscale>  0 0.35553163E+03</rscale>
<asrwt>0</asrwt>
<pdfrwt beam="1">  1        2 0.49280970E-01 0.35553163E+03</pdfrwt>
<pdfrwt beam="2">  1       -2 0.15177161E-01 0.35553163E+03</pdfrwt>
<totfact> 0.34306811E+03</totfact>
</mgrwt>
</event>
<event>
 4    1  0.8984293E-005  0.1283375E+04  0.7818608E-02  0.9042854E-01
          2   -1    0    0  501    0  0.00000000000E+00  0.00000000000E+00  0.16035973679E+04  0.16035973679E+04  0.25500000000E-02 0.  1.
         -2   -1    0    0    0  501 -0.00000000000E+00 -0.00000000000E+00 -0.25677432877E+03  0.25677432878E+03  0.25500000000E-02 0. -1.
    5000001    1    1    2    0    0 -0.21432443968E+03  0.25223526185E+03 -0.86734190074E+02  0.37987552237E+03  0.16500000000E+03 0.  0.
   -5000001    1    1    2    0    0  0.21432443968E+03 -0.25223526185E+03  0.14335572292E+04  0.14804961743E+04  0.16500000000E+03 0.  0.
<mgrwt>
<rscale>  0 0.12833747E+04</rscale>
<asrwt>0</asrwt>
<pdfrwt beam="1">  1        2 0.24670729E+00 0.12833747E+04</pdfrwt>
<pdfrwt beam="2">  1       -2 0.39503742E-01 0.12833747E+04</pdfrwt>
<totfact> 0.65994496E+01</totfact>
</mgrwt>
</event>
<event>
 4    1  0.8984293E-005  0.5787468E+03  0.7818608E-02  0.9950508E-01
         -2   -1    0    0    0  501 -0.00000000000E+00  0.00000000000E+00  0.36379568547E+03  0.36379568548E+03  0.25500000000E-02 0. -1.
          2   -1    0    0  501    0  0.00000000000E+00 -0.00000000000E+00 -0.23017578009E+03  0.23017578011E+03  0.25500000000E-02 0.  1.
    5000001    1    1    2    0    0  0.22608757828E+03 -0.72850018465E+02  0.57114890329E+02  0.29480473019E+03  0.16500000000E+03 0.  0.
   -5000001    1    1    2    0    0 -0.22608757828E+03  0.72850018465E+02  0.76505015049E+02  0.29916673540E+03  0.16500000000E+03 0.  0.
<mgrwt>
<rscale>  0 0.57874677E+03</rscale>
<asrwt>0</asrwt>
<pdfrwt beam="1">  1        2 0.35411658E-01 0.57874677E+03</pdfrwt>
<pdfrwt beam="2">  1       -2 0.55968567E-01 0.57874677E+03</pdfrwt>
<totfact> 0.44657509E+02</totfact>
</mgrwt>
</event>
<event>
 4    1  0.8984293E-005  0.4197468E+03  0.7818608E-02  0.1037149E+00
          2   -1    0    0  501    0  0.00000000000E+00  0.00000000000E+00  0.30178525577E+04  0.30178525577E+04  0.25500000000E-02 0.  1.
         -2   -1    0    0    0  501 -0.00000000000E+00 -0.00000000000E+00 -0.14595426080E+02  0.14595426303E+02  0.25500000000E-02 0. -1.
    5000001    1    1    2    0    0 -0.20409596057E+02  0.98394204800E+02  0.20940294796E+04  0.21029223554E+04  0.16500000000E+03 0.  0.
   -5000001    1    1    2    0    0  0.20409596057E+02 -0.98394204800E+02  0.90922765202E+03  0.92952562866E+03  0.16500000000E+03 0.  0.
<mgrwt>
<rscale>  0 0.41974680E+03</rscale>
<asrwt>0</asrwt>
<pdfrwt beam="1">  1        2 0.46428525E+00 0.41974680E+03</pdfrwt>
<pdfrwt beam="2">  1       -2 0.22454490E-02 0.41974680E+03</pdfrwt>
<totfact> 0.12982611E+03</totfact>
</mgrwt>
</event>
<event>
 4    1  0.8984293E-005  0.5104217E+03  0.7818608E-02  0.1011094E+00
         -2   -1    0    0    0  501 -0.00000000000E+00  0.00000000000E+00  0.29889539192E+02  0.29889539301E+02  0.25500000000E-02 0. -1.
          2   -1    0    0  501    0  0.00000000000E+00 -0.00000000000E+00 -0.21791098594E+04  0.21791098594E+04  0.25500000000E-02 0.  1.
    5000001    1    1    2    0    0  0.13443431633E+02  0.16347851809E+03 -0.62067366187E+03  0.66284745324E+03  0.16500000000E+03 0.  0.
   -5000001    1    1    2    0    0 -0.13443431633E+02 -0.16347851809E+03 -0.15285466583E+04  0.15461519454E+04  0.16500000000E+03 0.  0.
<mgrwt>
<rscale>  0 0.51042175E+03</rscale>
<asrwt>0</asrwt>
<pdfrwt beam="1">  1        2 0.33524755E+00 0.51042175E+03</pdfrwt>
<pdfrwt beam="2">  1       -2 0.45983924E-02 0.51042175E+03</pdfrwt>
<totfact> 0.13017591E+03</totfact>
</mgrwt>
</event>
<event>
 4    1  0.8984293E-005  0.4023138E+03  0.7818608E-02  0.1042981E+00
          2   -1    0    0  501    0  0.00000000000E+00  0.00000000000E+00  0.10517394429E+04  0.10517394429E+04  0.25500000000E-02 0.  1.
         -2   -1    0    0    0  501 -0.00000000000E+00 -0.00000000000E+00 -0.38473496893E+02  0.38473496978E+02  0.25500000000E-02 0. -1.
    5000001    1    1    2    0    0 -0.86218309358E+02 -0.48771849208E+01  0.30058203608E+03  0.35359856365E+03  0.16500000000E+03 0.  0.
   -5000001    1    1    2    0    0  0.86218309358E+02  0.48771849208E+01  0.71268390996E+03  0.73661437626E+03  0.16500000000E+03 0.  0.
<mgrwt>
<rscale>  0 0.40231378E+03</rscale>
<asrwt>0</asrwt>
<pdfrwt beam="1">  1        2 0.16180604E+00 0.40231378E+03</pdfrwt>
<pdfrwt beam="2">  1       -2 0.59190004E-02 0.40231378E+03</pdfrwt>
<totfact> 0.37044048E+03</totfact>
</mgrwt>
</event>
<event>
 4    1  0.8984293E-005  0.3808478E+03  0.7818608E-02  0.1050621E+00
         -2   -1    0    0    0  501 -0.00000000000E+00  0.00000000000E+00  0.51551359992E+03  0.51551359993E+03  0.25500000000E-02 0. -1.
          2   -1    0    0  501    0  0.00000000000E+00 -0.00000000000E+00 -0.70340065102E+02  0.70340065148E+02  0.25500000000E-02 0.  1.
    5000001    1    1    2    0    0 -0.27911418171E+02  0.54194927250E+02  0.33478823487E+03  0.37818553596E+03  0.16500000000E+03 0.  0.
   -5000001    1    1    2    0    0  0.27911418171E+02 -0.54194927250E+02  0.11038529994E+03  0.20766812911E+03  0.16500000000E+03 0.  0.
<mgrwt>
<rscale>  0 0.38084779E+03</rscale>
<asrwt>0</asrwt>
<pdfrwt beam="1">  1        2 0.10821549E-01 0.38084779E+03</pdfrwt>
<pdfrwt beam="2">  1       -2 0.79309782E-01 0.38084779E+03</pdfrwt>
<totfact> 0.84843056E+02</totfact>
</mgrwt>
</event>
<event>
 4    1  0.8984293E-005  0.4965701E+03  0.7818608E-02  0.1014678E+00
         -2   -1    0    0    0  501 -0.00000000000E+00  0.00000000000E+00  0.50555347773E+02  0.50555347838E+02  0.25500000000E-02 0. -1.
          2   -1    0    0  501    0  0.00000000000E+00 -0.00000000000E+00 -0.12193658403E+04  0.12193658403E+04  0.25500000000E-02 0.  1.
    5000001    1    1    2    0    0 -0.21110117644E+02  0.17376751950E+03 -0.74163093716E+03  0.77966802862E+03  0.16500000000E+03 0.  0.
   -5000001    1    1    2    0    0  0.21110117644E+02 -0.17376751950E+03 -0.42717955540E+03  0.49025315955E+03  0.16500000000E+03 0.  0.
<mgrwt>
<rscale>  0 0.49657009E+03</rscale>
<asrwt>0</asrwt>
<pdfrwt beam="1">  1        2 0.18759472E+00 0.49657009E+03</pdfrwt>
<pdfrwt beam="2">  1       -2 0.77777467E-02 0.49657009E+03</pdfrwt>
<totfact> 0.19199871E+03</totfact>
</mgrwt>
</event>
<event>
 4    1  0.8984293E-005  0.5387100E+03  0.7818608E-02  0.1004141E+00
          2   -1    0    0  501    0  0.00000000000E+00  0.00000000000E+00  0.12371866076E+04  0.12371866076E+04  0.25500000000E-02 0.  1.
         -2   -1    0    0    0  501 -0.00000000000E+00 -0.00000000000E+00 -0.58642830514E+02  0.58642830570E+02  0.25500000000E-02 0. -1.
    5000001    1    1    2    0    0  0.19790226991E+03 -0.30093455745E+01  0.40059106385E+03  0.47631141602E+03  0.16500000000E+03 0.  0.
   -5000001    1    1    2    0    0 -0.19790226991E+03  0.30093455745E+01  0.77795271320E+03  0.81951802211E+03  0.16500000000E+03 0.  0.
<mgrwt>
<rscale>  0 0.53871003E+03</rscale>
<asrwt>0</asrwt>
<pdfrwt beam="1">  1        2 0.19033639E+00 0.53871003E+03</pdfrwt>
<pdfrwt beam="2">  1       -2 0.90219746E-02 0.53871003E+03</pdfrwt>
<totfact> 0.14783627E+03</totfact>
</mgrwt>
</event>
<event>
 4    1  0.8984293E-005  0.4360937E+03  0.7818608E-02  0.1031952E+00
          2   -1    0    0  501    0  0.00000000000E+00  0.00000000000E+00  0.10424756226E+04  0.10424756226E+04  0.25500000000E-02 0.  1.
         -2   -1    0    0    0  501 -0.00000000000E+00 -0.00000000000E+00 -0.45607226026E+02  0.45607226098E+02  0.25500000000E-02 0. -1.
    5000001    1    1    2    0    0  0.97985244739E+02  0.10305412380E+03  0.47371404496E+03  0.52139357208E+03  0.16500000000E+03 0.  0.
   -5000001    1    1    2    0    0 -0.97985244739E+02 -0.10305412380E+03  0.52315435162E+03  0.56668927662E+03  0.16500000000E+03 0.  0.
<mgrwt>
<rscale>  0 0.43609367E+03</rscale>
<asrwt>0</asrwt>
<pdfrwt beam="1">  1        2 0.16038086E+00 0.43609367E+03</pdfrwt>
<pdfrwt beam="2">  1       -2 0.70164967E-02 0.43609367E+03</pdfrwt>
<totfact> 0.28795048E+03</totfact>
</mgrwt>
</event>
<event>
 4    1  0.8984293E-005  0.3676769E+03  0.7818608E-02  0.1055585E+00
          2   -1    0    0  501    0  0.00000000000E+00  0.00000000000E+00  0.36795503642E+03  0.36795503643E+03  0.25500000000E-02 0.  1.
         -2   -1    0    0    0  501 -0.00000000000E+00 -0.00000000000E+00 -0.91849731371E+02  0.91849731406E+02  0.25500000000E-02 0. -1.
    5000001    1    1    2    0    0 -0.50535199261E+02  0.63091253446E+02  0.13041920664E+03  0.22531862348E+03  0.16500000000E+03 0.  0.
   -5000001    1    1    2    0    0  0.50535199261E+02 -0.63091253446E+02  0.14568609841E+03  0.23448614436E+03  0.16500000000E+03 0.  0.
<mgrwt>
<rscale>  0 0.36767688E+03</rscale>
<asrwt>0</asrwt>
<pdfrwt beam="1">  1        2 0.56608467E-01 0.36767688E+03</pdfrwt>
<pdfrwt beam="2">  1       -2 0.14130728E-01 0.36767688E+03</pdfrwt>
<totfact> 0.33230511E+03</totfact>
</mgrwt>
</event>
<event>
 4    1  0.8984293E-005  0.1015046E+04  0.7818608E-02  0.9292195E-01
          2   -1    0    0  501    0  0.00000000000E+00  0.00000000000E+00  0.16341825174E+03  0.16341825176E+03  0.25500000000E-02 0.  1.
         -2   -1    0    0    0  501 -0.00000000000E+00 -0.00000000000E+00 -0.15761973790E+04  0.15761973790E+04  0.25500000000E-02 0. -1.
    5000001    1    1    2    0    0  0.44632645313E+03  0.61585326128E+01 -0.40410771091E+03  0.62431824601E+03  0.16500000000E+03 0.  0.
   -5000001    1    1    2    0    0 -0.44632645313E+03 -0.61585326128E+01 -0.10086714164E+04  0.11152973848E+04  0.16500000000E+03 0.  0.
<mgrwt>
<rscale>  0 0.10150457E+04</rscale>
<asrwt>0</asrwt>
<pdfrwt beam="1">  1        2 0.25141271E-01 0.10150457E+04</pdfrwt>
<pdfrwt beam="2">  1       -2 0.24249189E+00 0.10150457E+04</pdfrwt>
<totfact> 0.15627892E+01</totfact>
</mgrwt>
</event>
<event>
 4    1  0.8984293E-005  0.3738132E+03  0.7818608E-02  0.1053244E+00
          2   -1    0    0  501    0  0.00000000000E+00  0.00000000000E+00  0.35714713647E+03  0.35714713648E+03  0.25500000000E-02 0.  1.
         -2   -1    0    0    0  501 -0.00000000000E+00 -0.00000000000E+00 -0.97814258301E+02  0.97814258334E+02  0.25500000000E-02 0. -1.
    5000001    1    1    2    0    0 -0.18281899705E+02 -0.66607960442E+02  0.63693919168E+02  0.18987565297E+03  0.16500000000E+03 0.  0.
   -5000001    1    1    2    0    0  0.18281899705E+02  0.66607960442E+02  0.19563895901E+03  0.26508574185E+03  0.16500000000E+03 0.  0.
<mgrwt>
<rscale>  0 0.37381323E+03</rscale>
<asrwt>0</asrwt>
<pdfrwt beam="1">  1        2 0.54945713E-01 0.37381323E+03</pdfrwt>
<pdfrwt beam="2">  1       -2 0.15048347E-01 0.37381323E+03</pdfrwt>
<totfact> 0.30936424E+03</totfact>
</mgrwt>
</event>
<event>
 4    1  0.8984293E-005  0.4865016E+03  0.7818608E-02  0.1017363E+00
          2   -1    0    0  501    0  0.00000000000E+00  0.00000000000E+00  0.18367361074E+04  0.18367361074E+04  0.25500000000E-02 0.  1.
         -2   -1    0    0    0  501 -0.00000000000E+00 -0.00000000000E+00 -0.32215272667E+02  0.32215272768E+02  0.25500000000E-02 0. -1.
    5000001    1    1    2    0    0 -0.10275779445E+03  0.93133044179E+02  0.13354102930E+04  0.13526930838E+04  0.16500000000E+03 0.  0.
   -5000001    1    1    2    0    0  0.10275779445E+03 -0.93133044179E+02  0.46911054178E+03  0.51625829644E+03  0.16500000000E+03 0.  0.
<mgrwt>
<rscale>  0 0.48650161E+03</rscale>
<asrwt>0</asrwt>
<pdfrwt beam="1">  1        2 0.28257471E+00 0.48650161E+03</pdfrwt>
<pdfrwt beam="2">  1       -2 0.49561971E-02 0.48650161E+03</pdfrwt>
<totfact> 0.17761983E+03</totfact>
</mgrwt>
</event>
<event>
 4    1  0.8984293E-005  0.7909964E+03  0.7818608E-02  0.9573142E-01
          2   -1    0    0  501    0  0.00000000000E+00  0.00000000000E+00  0.36635312096E+04  0.36635312096E+04  0.25500000000E-02 0.  1.
         -2   -1    0    0    0  501 -0.00000000000E+00 -0.00000000000E+00 -0.42696186105E+02  0.42696186181E+02  0.25500000000E-02 0. -1.
    5000001    1    1    2    0    0  0.27421173730E+03  0.12008108624E+03  0.27426149500E+04  0.27638330826E+04  0.16500000000E+03 0.  0.
   -5000001    1    1    2    0    0 -0.27421173730E+03 -0.12008108624E+03  0.87822007343E+03  0.94239431318E+03  0.16500000000E+03 0.  0.
<mgrwt>
<rscale>  0 0.79099636E+03</rscale>
<asrwt>0</asrwt>
<pdfrwt beam="1">  1        2 0.56362039E+00 0.79099636E+03</pdfrwt>
<pdfrwt beam="2">  1       -2 0.65686417E-02 0.79099636E+03</pdfrwt>
<totfact> 0.90080458E+01</totfact>
</mgrwt>
</event>
<event>
 4    1  0.8984293E-005  0.7143205E+03  0.7818608E-02  0.9693051E-01
          2   -1    0    0  501    0  0.00000000000E+00  0.00000000000E+00  0.87883523754E+03  0.87883523754E+03  0.25500000000E-02 0.  1.
         -2   -1    0    0    0  501 -0.00000000000E+00 -0.00000000000E+00 -0.14515058929E+03  0.14515058931E+03  0.25500000000E-02 0. -1.
    5000001    1    1    2    0    0 -0.31381848553E+03  0.18490071604E+02  0.42263015476E+03  0.55196482888E+03  0.16500000000E+03 0.  0.
   -5000001    1    1    2    0    0  0.31381848553E+03 -0.18490071604E+02  0.31105449349E+03  0.47202099797E+03  0.16500000000E+03 0.  0.
<mgrwt>
<rscale>  0 0.71432052E+03</rscale>
<asrwt>0</asrwt>
<pdfrwt beam="1">  1        2 0.13520542E+00 0.71432052E+03</pdfrwt>
<pdfrwt beam="2">  1       -2 0.22330860E-01 0.71432052E+03</pdfrwt>
<totfact> 0.53544068E+02</totfact>
</mgrwt>
</event>
<event>
 4    1  0.8984293E-005  0.3776098E+03  0.7818608E-02  0.1051821E+00
         -2   -1    0    0    0  501 -0.00000000000E+00  0.00000000000E+00  0.16092707947E+02  0.16092708149E+02  0.25500000000E-02 0. -1.
          2   -1    0    0  501    0  0.00000000000E+00 -0.00000000000E+00 -0.22151210302E+04  0.22151210302E+04  0.25500000000E-02 0.  1.
    5000001    1    1    2    0    0 -0.63728887191E-01  0.72134047432E+02 -0.76427370178E+03  0.78520227718E+03  0.16500000000E+03 0.  0.
   -5000001    1    1    2    0    0  0.63728887191E-01 -0.72134047432E+02 -0.14347546205E+04  0.14460114612E+04  0.16500000000E+03 0.  0.
<mgrwt>
<rscale>  0 0.37760983E+03</rscale>
<asrwt>0</asrwt>
<pdfrwt beam="1">  1        2 0.34078761E+00 0.37760983E+03</pdfrwt>
<pdfrwt beam="2">  1       -2 0.24758030E-02 0.37760983E+03</pdfrwt>
<totfact> 0.32064771E+03</totfact>
</mgrwt>
</event>
<event>
 4    1  0.8984293E-005  0.4195541E+03  0.7818608E-02  0.1037212E+00
          2   -1    0    0  501    0  0.00000000000E+00  0.00000000000E+00  0.22456912200E+04  0.22456912200E+04  0.25500000000E-02 0.  1.
         -2   -1    0    0    0  501 -0.00000000000E+00 -0.00000000000E+00 -0.19595928141E+02  0.19595928307E+02  0.25500000000E-02 0. -1.
    5000001    1    1    2    0    0 -0.11498334392E+02  0.12867112853E+03  0.11650975805E+04  0.11837929900E+04  0.16500000000E+03 0.  0.
   -5000001    1    1    2    0    0  0.11498334392E+02 -0.12867112853E+03  0.10609977113E+04  0.10814941583E+04  0.16500000000E+03 0.  0.
<mgrwt>
<rscale>  0 0.41955407E+03</rscale>
<asrwt>0</asrwt>
<pdfrwt beam="1">  1        2 0.34549065E+00 0.41955407E+03</pdfrwt>
<pdfrwt beam="2">  1       -2 0.30147609E-02 0.41955407E+03</pdfrwt>
<totfact> 0.22918032E+03</totfact>
</mgrwt>
</event>
<event>
 4    1  0.8984293E-005  0.1256557E+04  0.7818608E-02  0.9064743E-01
         -2   -1    0    0    0  501 -0.00000000000E+00  0.00000000000E+00  0.15978894775E+03  0.15978894777E+03  0.25500000000E-02 0. -1.
          2   -1    0    0  501    0  0.00000000000E+00 -0.00000000000E+00 -0.24703463949E+04  0.24703463949E+04  0.25500000000E-02 0.  1.
    5000001    1    1    2    0    0  0.30228272960E+03  0.23390584582E+03 -0.17034628059E+03  0.44981068088E+03  0.16500000000E+03 0.  0.
   -5000001    1    1    2    0    0 -0.30228272960E+03 -0.23390584582E+03 -0.21402111665E+04  0.21803246617E+04  0.16500000000E+03 0.  0.
<mgrwt>
<rscale>  0 0.12565573E+04</rscale>
<asrwt>0</asrwt>
<pdfrwt beam="1">  1        2 0.38005326E+00 0.12565573E+04</pdfrwt>
<pdfrwt beam="2">  1       -2 0.24582917E-01 0.12565573E+04</pdfrwt>
<totfact> 0.52923929E+01</totfact>
</mgrwt>
</event>
<event>
 4    1  0.8984293E-005  0.6809222E+03  0.7818608E-02  0.9750426E-01
          2   -1    0    0  501    0  0.00000000000E+00  0.00000000000E+00  0.18028080393E+04  0.18028080393E+04  0.25500000000E-02 0.  1.
         -2   -1    0    0    0  501 -0.00000000000E+00 -0.00000000000E+00 -0.64296236016E+02  0.64296236067E+02  0.25500000000E-02 0. -1.
    5000001    1    1    2    0    0  0.26934028287E+03 -0.10090832677E+02  0.52195126543E+03  0.61016730195E+03  0.16500000000E+03 0.  0.
   -5000001    1    1    2    0    0 -0.26934028287E+03  0.10090832677E+02  0.12165605378E+04  0.12569369734E+04  0.16500000000E+03 0.  0.
<mgrwt>
<rscale>  0 0.68092223E+03</rscale>
<asrwt>0</asrwt>
<pdfrwt beam="1">  1        2 0.27735509E+00 0.68092223E+03</pdfrwt>
<pdfrwt beam="2">  1       -2 0.98917284E-02 0.68092223E+03</pdfrwt>
<totfact> 0.61457139E+02</totfact>
</mgrwt>
</event>
<event>
 4    1  0.8984293E-005  0.5840131E+03  0.7818608E-02  0.9939140E-01
         -2   -1    0    0    0  501 -0.00000000000E+00  0.00000000000E+00  0.81382221799E+02  0.81382221839E+02  0.25500000000E-02 0. -1.
          2   -1    0    0  501    0  0.00000000000E+00 -0.00000000000E+00 -0.10477450672E+04  0.10477450672E+04  0.25500000000E-02 0.  1.
    5000001    1    1    2    0    0  0.10053347348E+03  0.20452615685E+03 -0.33211798451E+03  0.43527610061E+03  0.16500000000E+03 0.  0.
   -5000001    1    1    2    0    0 -0.10053347348E+03 -0.20452615685E+03 -0.63424486088E+03  0.69385118842E+03  0.16500000000E+03 0.  0.
<mgrwt>
<rscale>  0 0.58401309E+03</rscale>
<asrwt>0</asrwt>
<pdfrwt beam="1">  1        2 0.16119154E+00 0.58401309E+03</pdfrwt>
<pdfrwt beam="2">  1       -2 0.12520343E-01 0.58401309E+03</pdfrwt>
<totfact> 0.11238766E+03</totfact>
</mgrwt>
</event>
<event>
 4    1  0.8984293E-005  0.4427172E+03  0.7818608E-02  0.1029916E+00
         -2   -1    0    0    0  501 -0.00000000000E+00  0.00000000000E+00  0.72996414192E+02  0.72996414236E+02  0.25500000000E-02 0. -1.
          2   -1    0    0  501    0  0.00000000000E+00 -0.00000000000E+00 -0.67126086184E+03  0.67126086185E+03  0.25500000000E-02 0.  1.
    5000001    1    1    2    0    0 -0.10095456675E+03 -0.57713624248E+01 -0.47979900629E+03  0.51735598925E+03  0.16500000000E+03 0.  0.
   -5000001    1    1    2    0    0  0.10095456675E+03  0.57713624248E+01 -0.11846544136E+03  0.22690128684E+03  0.16500000000E+03 0.  0.
<mgrwt>
<rscale>  0 0.44271723E+03</rscale>
<asrwt>0</asrwt>
<pdfrwt beam="1">  1        2 0.10327090E+00 0.44271723E+03</pdfrwt>
<pdfrwt beam="2">  1       -2 0.11230218E-01 0.44271723E+03</pdfrwt>
<totfact> 0.24427458E+03</totfact>
</mgrwt>
</event>
<event>
 4    1  0.8984293E-005  0.5859683E+03  0.7818608E-02  0.9934953E-01
         -2   -1    0    0    0  501 -0.00000000000E+00  0.00000000000E+00  0.14914884422E+03  0.14914884425E+03  0.25500000000E-02 0. -1.
          2   -1    0    0  501    0  0.00000000000E+00 -0.00000000000E+00 -0.57553046071E+03  0.57553046072E+03  0.25500000000E-02 0.  1.
    5000001    1    1    2    0    0  0.18100227068E+03  0.12729384802E+03 -0.33467407266E+03  0.43381710507E+03  0.16500000000E+03 0.  0.
   -5000001    1    1    2    0    0 -0.18100227068E+03 -0.12729384802E+03 -0.91707543828E+02  0.29086219990E+03  0.16500000000E+03 0.  0.
<mgrwt>
<rscale>  0 0.58596827E+03</rscale>
<asrwt>0</asrwt>
<pdfrwt beam="1">  1        2 0.88543147E-01 0.58596827E+03</pdfrwt>
<pdfrwt beam="2">  1       -2 0.22945976E-01 0.58596827E+03</pdfrwt>
<totfact> 0.87599297E+02</totfact>
</mgrwt>
</event>
<event>
 4    1  0.8984293E-005  0.6630184E+03  0.7818608E-02  0.9782653E-01
          2   -1    0    0  501    0  0.00000000000E+00  0.00000000000E+00  0.27266655308E+04  0.27266655308E+04  0.25500000000E-02 0.  1.
         -2   -1    0    0    0  501 -0.00000000000E+00 -0.00000000000E+00 -0.40305034448E+02  0.40305034529E+02  0.25500000000E-02 0. -1.
    5000001    1    1    2    0    0  0.26658340000E+03  0.27612157462E+02  0.90859210053E+03  0.96155797826E+03  0.16500000000E+03 0.  0.
   -5000001    1    1    2    0    0 -0.26658340000E+03 -0.27612157462E+02  0.17777683958E+04  0.18054125871E+04  0.16500000000E+03 0.  0.
<mgrwt>
<rscale>  0 0.66301840E+03</rscale>
<asrwt>0</asrwt>
<pdfrwt beam="1">  1        2 0.41948715E+00 0.66301840E+03</pdfrwt>
<pdfrwt beam="2">  1       -2 0.62007724E-02 0.66301840E+03</pdfrwt>
<totfact> 0.39793435E+02</totfact>
</mgrwt>
</event>
<event>
 4    1  0.8984293E-005  0.6071666E+03  0.7818608E-02  0.9890648E-01
         -2   -1    0    0    0  501 -0.00000000000E+00  0.00000000000E+00  0.81649539033E+02  0.81649539072E+02  0.25500000000E-02 0. -1.
          2   -1    0    0  501    0  0.00000000000E+00 -0.00000000000E+00 -0.11287611879E+04  0.11287611879E+04  0.25500000000E-02 0.  1.
    5000001    1    1    2    0    0 -0.20302284883E+03  0.13903192327E+03 -0.39147456817E+03  0.49094346961E+03  0.16500000000E+03 0.  0.
   -5000001    1    1    2    0    0  0.20302284883E+03 -0.13903192327E+03 -0.65563708074E+03  0.71946725740E+03  0.16500000000E+03 0.  0.
<mgrwt>
<rscale>  0 0.60716664E+03</rscale>
<asrwt>0</asrwt>
<pdfrwt beam="1">  1        2 0.17365556E+00 0.60716664E+03</pdfrwt>
<pdfrwt beam="2">  1       -2 0.12561468E-01 0.60716664E+03</pdfrwt>
<totfact> 0.99692973E+02</totfact>
</mgrwt>
</event>
<event>
 4    1  0.8984293E-005  0.3564347E+03  0.7818608E-02  0.1060005E+00
          2   -1    0    0  501    0  0.00000000000E+00  0.00000000000E+00  0.14725893541E+04  0.14725893541E+04  0.25500000000E-02 0.  1.
         -2   -1    0    0    0  501 -0.00000000000E+00 -0.00000000000E+00 -0.21568417468E+02  0.21568417619E+02  0.25500000000E-02 0. -1.
    5000001    1    1    2    0    0 -0.31119271920E+02  0.82797038995E+01  0.47753028448E+03  0.50625797295E+03  0.16500000000E+03 0.  0.
   -5000001    1    1    2    0    0  0.31119271920E+02 -0.82797038995E+01  0.97349065218E+03  0.98789979880E+03  0.16500000000E+03 0.  0.
<mgrwt>
<rscale>  0 0.35643469E+03</rscale>
<asrwt>0</asrwt>
<pdfrwt beam="1">  1        2 0.22655228E+00 0.35643469E+03</pdfrwt>
<pdfrwt beam="2">  1       -2 0.33182171E-02 0.35643469E+03</pdfrwt>
<totfact> 0.51547989E+03</totfact>
</mgrwt>
</event>
<event>
 4    1  0.8984293E-005  0.6279747E+03  0.7818608E-02  0.9849009E-01
          2   -1    0    0  501    0  0.00000000000E+00  0.00000000000E+00  0.55260662538E+03  0.55260662539E+03  0.25500000000E-02 0.  1.
         -2   -1    0    0    0  501 -0.00000000000E+00 -0.00000000000E+00 -0.17840549577E+03  0.17840549578E+03  0.25500000000E-02 0. -1.
    5000001    1    1    2    0    0  0.25061000592E+02  0.25944556298E+03  0.25520669369E+03  0.40036921761E+03  0.16500000000E+03 0.  0.
   -5000001    1    1    2    0    0 -0.25061000592E+02 -0.25944556298E+03  0.11899443592E+03  0.33064290357E+03  0.16500000000E+03 0.  0.
<mgrwt>
<rscale>  0 0.62797471E+03</rscale>
<asrwt>0</asrwt>
<pdfrwt beam="1">  1        2 0.85016403E-01 0.62797471E+03</pdfrwt>
<pdfrwt beam="2">  1       -2 0.27447000E-01 0.62797471E+03</pdfrwt>
<totfact> 0.66546612E+02</totfact>
</mgrwt>
</event>
<event>
 4    1  0.8984293E-005  0.6569131E+03  0.7818608E-02  0.9793893E-01
         -2   -1    0    0    0  501 -0.00000000000E+00  0.00000000000E+00  0.64723304130E+02  0.64723304180E+02  0.25500000000E-02 0. -1.
          2   -1    0    0  501    0  0.00000000000E+00 -0.00000000000E+00 -0.16668445920E+04  0.16668445920E+04  0.25500000000E-02 0.  1.
    5000001    1    1    2    0    0  0.26411264620E+03  0.10097506706E+03 -0.73096134935E+03  0.80092505786E+03  0.16500000000E+03 0.  0.
   -5000001    1    1    2    0    0 -0.26411264620E+03 -0.10097506706E+03 -0.87115993855E+03  0.93064283836E+03  0.16500000000E+03 0.  0.
<mgrwt>
<rscale>  0 0.65691305E+03</rscale>
<asrwt>0</asrwt>
<pdfrwt beam="1">  1        2 0.25643760E+00 0.65691305E+03</pdfrwt>
<pdfrwt beam="2">  1       -2 0.99574327E-02 0.65691305E+03</pdfrwt>
<totfact> 0.72203437E+02</totfact>
</mgrwt>
</event>
<event>
 4    1  0.8984293E-005  0.1214111E+04  0.7818608E-02  0.9100594E-01
         -2   -1    0    0    0  501 -0.00000000000E+00  0.00000000000E+00  0.18535927585E+03  0.18535927587E+03  0.25500000000E-02 0. -1.
          2   -1    0    0  501    0  0.00000000000E+00 -0.00000000000E+00 -0.19881209257E+04  0.19881209257E+04  0.25500000000E-02 0.  1.
    5000001    1    1    2    0    0  0.56365079405E+03  0.14454712001E+03 -0.80843663558E+03  0.10096488901E+04  0.16500000000E+03 0.  0.
   -5000001    1    1    2    0    0 -0.56365079405E+03 -0.14454712001E+03 -0.99432501424E+03  0.11638313114E+04  0.16500000000E+03 0.  0.
<mgrwt>
<rscale>  0 0.12141115E+04</rscale>
<asrwt>0</asrwt>
<pdfrwt beam="1">  1        2 0.30586474E+00 0.12141115E+04</pdfrwt>
<pdfrwt beam="2">  1       -2 0.28516813E-01 0.12141115E+04</pdfrwt>
<totfact> 0.75453887E+01</totfact>
</mgrwt>
</event>
<event>
 4    1  0.8984293E-005  0.5133821E+03  0.7818608E-02  0.1010344E+00
          2   -1    0    0  501    0  0.00000000000E+00  0.00000000000E+00  0.39797864740E+03  0.39797864740E+03  0.25500000000E-02 0.  1.
         -2   -1    0    0    0  501 -0.00000000000E+00 -0.00000000000E+00 -0.16556239610E+03  0.16556239612E+03  0.25500000000E-02 0. -1.
    5000001    1    1    2    0    0  0.12871523201E+03 -0.48431196911E+02 -0.38065444544E+02  0.21814483687E+03  0.16500000000E+03 0.  0.
   -5000001    1    1    2    0    0 -0.12871523201E+03  0.48431196911E+02  0.27048169584E+03  0.34539620665E+03  0.16500000000E+03 0.  0.
<mgrwt>
<rscale>  0 0.51338211E+03</rscale>
<asrwt>0</asrwt>
<pdfrwt beam="1">  1        2 0.61227484E-01 0.51338211E+03</pdfrwt>
<pdfrwt beam="2">  1       -2 0.25471138E-01 0.51338211E+03</pdfrwt>
<totfact> 0.11093489E+03</totfact>
</mgrwt>
</event>
<event>
 4    1  0.8984293E-005  0.4488782E+03  0.7818608E-02  0.1028057E+00
          2   -1    0    0  501    0  0.00000000000E+00  0.00000000000E+00  0.49066442943E+03  0.49066442944E+03  0.25500000000E-02 0.  1.
         -2   -1    0    0    0  501 -0.00000000000E+00 -0.00000000000E+00 -0.10266266181E+03  0.10266266184E+03  0.25500000000E-02 0. -1.
    5000001    1    1    2    0    0  0.13587893472E+03  0.41100253682E+02  0.26634572912E+03  0.34397291053E+03  0.16500000000E+03 0.  0.
   -5000001    1    1    2    0    0 -0.13587893472E+03 -0.41100253682E+02  0.12165603850E+03  0.24935418075E+03  0.16500000000E+03 0.  0.
<mgrwt>
<rscale>  0 0.44887823E+03</rscale>
<asrwt>0</asrwt>
<pdfrwt beam="1">  1        2 0.75486834E-01 0.44887823E+03</pdfrwt>
<pdfrwt beam="2">  1       -2 0.15794256E-01 0.44887823E+03</pdfrwt>
<totfact> 0.20092674E+03</totfact>
</mgrwt>
</event>
<event>
 4    1  0.8984293E-005  0.6012211E+03  0.7818608E-02  0.9902876E-01
         -2   -1    0    0    0  501 -0.00000000000E+00  0.00000000000E+00  0.10257471483E+03  0.10257471486E+03  0.25500000000E-02 0. -1.
          2   -1    0    0  501    0  0.00000000000E+00 -0.00000000000E+00 -0.88098430770E+03  0.88098430770E+03  0.25500000000E-02 0.  1.
    5000001    1    1    2    0    0 -0.12945815384E+01 -0.23228172838E+03 -0.54599227129E+03  0.61586446366E+03  0.16500000000E+03 0.  0.
   -5000001    1    1    2    0    0  0.12945815384E+01  0.23228172838E+03 -0.23241732157E+03  0.36769455891E+03  0.16500000000E+03 0.  0.
<mgrwt>
<rscale>  0 0.60122114E+03</rscale>
<asrwt>0</asrwt>
<pdfrwt beam="1">  1        2 0.13553604E+00 0.60122114E+03</pdfrwt>
<pdfrwt beam="2">  1       -2 0.15780726E-01 0.60122114E+03</pdfrwt>
<totfact> 0.97714042E+02</totfact>
</mgrwt>
</event>
<event>
 4    1  0.8984293E-005  0.5551548E+03  0.7818608E-02  0.1000308E+00
          2   -1    0    0  501    0  0.00000000000E+00  0.00000000000E+00  0.66511502504E+02  0.66511502553E+02  0.25500000000E-02 0.  1.
         -2   -1    0    0    0  501 -0.00000000000E+00 -0.00000000000E+00 -0.11584344170E+04  0.11584344170E+04  0.25500000000E-02 0. -1.
    5000001    1    1    2    0    0  0.15536025241E+03 -0.97873844930E+02 -0.82600475943E+03  0.86210495889E+03  0.16500000000E+03 0.  0.
   -5000001    1    1    2    0    0 -0.15536025241E+03  0.97873844930E+02 -0.26591815512E+03  0.36284096071E+03  0.16500000000E+03 0.  0.
<mgrwt>
<rscale>  0 0.55515480E+03</rscale>
<asrwt>0</asrwt>
<pdfrwt beam="1">  1        2 0.10232540E-01 0.55515480E+03</pdfrwt>
<pdfrwt beam="2">  1       -2 0.17822066E+00 0.55515480E+03</pdfrwt>
<totfact> 0.12312526E+02</totfact>
</mgrwt>
</event>
<event>
 4    1  0.8984293E-005  0.6763036E+03  0.7818608E-02  0.9758637E-01
          2   -1    0    0  501    0  0.00000000000E+00  0.00000000000E+00  0.12288531668E+03  0.12288531671E+03  0.25500000000E-02 0.  1.
         -2   -1    0    0    0  501 -0.00000000000E+00 -0.00000000000E+00 -0.93051510471E+03  0.93051510472E+03  0.25500000000E-02 0. -1.
    5000001    1    1    2    0    0  0.91705057780E+02  0.28046130472E+03 -0.41518444022E+03  0.53541710886E+03  0.16500000000E+03 0.  0.
   -5000001    1    1    2    0    0 -0.91705057780E+02 -0.28046130472E+03 -0.39244534782E+03  0.51798331256E+03  0.16500000000E+03 0.  0.
<mgrwt>
<rscale>  0 0.67630361E+03</rscale>
<asrwt>0</asrwt>
<pdfrwt beam="1">  1        2 0.18905434E-01 0.67630361E+03</pdfrwt>
<pdfrwt beam="2">  1       -2 0.14315617E+00 0.67630361E+03</pdfrwt>
<totfact> 0.10428972E+02</totfact>
</mgrwt>
</event>
<event>
 4    1  0.8984293E-005  0.7846280E+03  0.7818608E-02  0.9582538E-01
         -2   -1    0    0    0  501 -0.00000000000E+00  0.00000000000E+00  0.77865329613E+02  0.77865329655E+02  0.25500000000E-02 0. -1.
          2   -1    0    0  501    0  0.00000000000E+00 -0.00000000000E+00 -0.19766213883E+04  0.19766213883E+04  0.25500000000E-02 0.  1.
    5000001    1    1    2    0    0 -0.15618145989E+03 -0.22203745417E+03 -0.34661768146E+03  0.47017241154E+03  0.16500000000E+03 0.  0.
   -5000001    1    1    2    0    0  0.15618145989E+03  0.22203745417E+03 -0.15521383772E+04  0.15843143064E+04  0.16500000000E+03 0.  0.
<mgrwt>
<rscale>  0 0.78462800E+03</rscale>
<asrwt>0</asrwt>
<pdfrwt beam="1">  1        2 0.30409556E+00 0.78462800E+03</pdfrwt>
<pdfrwt beam="2">  1       -2 0.11979283E-01 0.78462800E+03</pdfrwt>
<totfact> 0.35853069E+02</totfact>
</mgrwt>
</event>
<event>
 4    1  0.8984293E-005  0.4872706E+03  0.7818608E-02  0.1017156E+00
         -2   -1    0    0    0  501 -0.00000000000E+00  0.00000000000E+00  0.55541266157E+02  0.55541266215E+02  0.25500000000E-02 0. -1.
          2   -1    0    0  501    0  0.00000000000E+00 -0.00000000000E+00 -0.10687217501E+04  0.10687217501E+04  0.25500000000E-02 0.  1.
    5000001    1    1    2    0    0 -0.99638723703E+02  0.14576509886E+03 -0.43518342996E+03  0.49778002874E+03  0.16500000000E+03 0.  0.
   -5000001    1    1    2    0    0  0.99638723703E+02 -0.14576509886E+03 -0.57799705400E+03  0.62648298759E+03  0.16500000000E+03 0.  0.
<mgrwt>
<rscale>  0 0.48727060E+03</rscale>
<asrwt>0</asrwt>
<pdfrwt beam="1">  1        2 0.16441872E+00 0.48727060E+03</pdfrwt>
<pdfrwt beam="2">  1       -2 0.85448110E-02 0.48727060E+03</pdfrwt>
<totfact> 0.20316552E+03</totfact>
</mgrwt>
</event>
<event>
 4    1  0.8984293E-005  0.1334399E+04  0.7818608E-02  0.9002722E-01
          2   -1    0    0  501    0  0.00000000000E+00  0.00000000000E+00  0.96435415510E+03  0.96435415510E+03  0.25500000000E-02 0.  1.
         -2   -1    0    0    0  501 -0.00000000000E+00 -0.00000000000E+00 -0.46160992444E+03  0.46160992445E+03  0.25500000000E-02 0. -1.
    5000001    1    1    2    0    0 -0.22711338252E+03  0.30344664806E+03 -0.30827203581E+03  0.51567141166E+03  0.16500000000E+03 0.  0.
   -5000001    1    1    2    0    0  0.22711338252E+03 -0.30344664806E+03  0.81101626647E+03  0.91029266789E+03  0.16500000000E+03 0.  0.
<mgrwt>
<rscale>  0 0.13343994E+04</rscale>
<asrwt>0</asrwt>
<pdfrwt beam="1">  1        2 0.14836218E+00 0.13343994E+04</pdfrwt>
<pdfrwt beam="2">  1       -2 0.71016912E-01 0.13343994E+04</pdfrwt>
<totfact> 0.46802555E+01</totfact>
</mgrwt>
</event>
<event>
 4    1  0.8984293E-005  0.4089004E+03  0.7818608E-02  0.1040741E+00
          2   -1    0    0  501    0  0.00000000000E+00  0.00000000000E+00  0.17833088055E+04  0.17833088055E+04  0.25500000000E-02 0.  1.
         -2   -1    0    0    0  501 -0.00000000000E+00 -0.00000000000E+00 -0.23439508977E+02  0.23439509115E+02  0.25500000000E-02 0. -1.
    5000001    1    1    2    0    0 -0.66732278279E+02  0.47409770403E+02  0.12720174781E+04  0.12852837616E+04  0.16500000000E+03 0.  0.
   -5000001    1    1    2    0    0  0.66732278279E+02 -0.47409770403E+02  0.48785181844E+03  0.52146455301E+03  0.16500000000E+03 0.  0.
<mgrwt>
<rscale>  0 0.40890039E+03</rscale>
<asrwt>0</asrwt>
<pdfrwt beam="1">  1        2 0.27435522E+00 0.40890039E+03</pdfrwt>
<pdfrwt beam="2">  1       -2 0.36060780E-02 0.40890039E+03</pdfrwt>
<totfact> 0.30945446E+03</totfact>
</mgrwt>
</event>
<event>
 4    1  0.8984293E-005  0.6512748E+03  0.7818608E-02  0.9804390E-01
         -2   -1    0    0    0  501 -0.00000000000E+00  0.00000000000E+00  0.11397691915E+03  0.11397691917E+03  0.25500000000E-02 0. -1.
          2   -1    0    0  501    0  0.00000000000E+00 -0.00000000000E+00 -0.93036122894E+03  0.93036122894E+03  0.25500000000E-02 0.  1.
    5000001    1    1    2    0    0  0.44031183464E+02  0.22578096299E+03 -0.66625037661E+03  0.72389940786E+03  0.16500000000E+03 0.  0.
   -5000001    1    1    2    0    0 -0.44031183464E+02 -0.22578096299E+03 -0.15013393318E+03  0.32043874026E+03  0.16500000000E+03 0.  0.
<mgrwt>
<rscale>  0 0.65127477E+03</rscale>
<asrwt>0</asrwt>
<pdfrwt beam="1">  1        2 0.14313249E+00 0.65127477E+03</pdfrwt>
<pdfrwt beam="2">  1       -2 0.17534911E-01 0.65127477E+03</pdfrwt>
<totfact> 0.75575248E+02</totfact>
</mgrwt>
</event>
<event>
 4    1  0.8984293E-005  0.7322964E+03  0.7818608E-02  0.9663541E-01
          2   -1    0    0  501    0  0.00000000000E+00  0.00000000000E+00  0.13612514795E+04  0.13612514795E+04  0.25500000000E-02 0.  1.
         -2   -1    0    0    0  501 -0.00000000000E+00 -0.00000000000E+00 -0.98486217742E+02  0.98486217775E+02  0.25500000000E-02 0. -1.
    5000001    1    1    2    0    0 -0.28075063832E+03 -0.16554816611E+03  0.58205353311E+03  0.68719606491E+03  0.16500000000E+03 0.  0.
   -5000001    1    1    2    0    0  0.28075063832E+03  0.16554816611E+03  0.68071172866E+03  0.77254163238E+03  0.16500000000E+03 0.  0.
<mgrwt>
<rscale>  0 0.73229641E+03</rscale>
<asrwt>0</asrwt>
<pdfrwt beam="1">  1        2 0.20942329E+00 0.73229641E+03</pdfrwt>
<pdfrwt beam="2">  1       -2 0.15151727E-01 0.73229641E+03</pdfrwt>
<totfact> 0.53032383E+02</totfact>
</mgrwt>
</event>
<event>
 4    1  0.8984293E-005  0.3457611E+03  0.7818608E-02  0.1064368E+00
          2   -1    0    0  501    0  0.00000000000E+00  0.00000000000E+00  0.82458503857E+02  0.82458503896E+02  0.25500000000E-02 0.  1.
         -2   -1    0    0    0  501 -0.00000000000E+00 -0.00000000000E+00 -0.36245727283E+03  0.36245727284E+03  0.25500000000E-02 0. -1.
    5000001    1    1    2    0    0  0.43929449811E+02 -0.26336252721E+02 -0.14806506248E+03  0.22753386011E+03  0.16500000000E+03 0.  0.
   -5000001    1    1    2    0    0 -0.43929449811E+02  0.26336252721E+02 -0.13193370649E+03  0.21738191663E+03  0.16500000000E+03 0.  0.
<mgrwt>
<rscale>  0 0.34576110E+03</rscale>
<asrwt>0</asrwt>
<pdfrwt beam="1">  1        2 0.12685924E-01 0.34576110E+03</pdfrwt>
<pdfrwt beam="2">  1       -2 0.55762656E-01 0.34576110E+03</pdfrwt>
<totfact> 0.14761971E+03</totfact>
</mgrwt>
</event>
<event>
 4    1  0.8984293E-005  0.5534356E+03  0.7818608E-02  0.1000702E+00
          2   -1    0    0  501    0  0.00000000000E+00  0.00000000000E+00  0.75652269503E+03  0.75652269504E+03  0.25500000000E-02 0.  1.
         -2   -1    0    0    0  501 -0.00000000000E+00 -0.00000000000E+00 -0.10121669716E+03  0.10121669719E+03  0.25500000000E-02 0. -1.
    5000001    1    1    2    0    0  0.21939802091E+03 -0.21187025467E+02  0.28483274158E+03  0.39615536385E+03  0.16500000000E+03 0.  0.
   -5000001    1    1    2    0    0 -0.21939802091E+03  0.21187025467E+02  0.37047325629E+03  0.46158402838E+03  0.16500000000E+03 0.  0.
<mgrwt>
<rscale>  0 0.55343556E+03</rscale>
<asrwt>0</asrwt>
<pdfrwt beam="1">  1        2 0.11638811E+00 0.55343556E+03</pdfrwt>
<pdfrwt beam="2">  1       -2 0.15571800E-01 0.55343556E+03</pdfrwt>
<totfact> 0.12239489E+03</totfact>
</mgrwt>
</event>
<event>
 4    1  0.8984293E-005  0.5618191E+03  0.7818608E-02  0.9987947E-01
         -2   -1    0    0    0  501 -0.00000000000E+00  0.00000000000E+00  0.19794041623E+04  0.19794041623E+04  0.25500000000E-02 0. -1.
          2   -1    0    0  501    0  0.00000000000E+00 -0.00000000000E+00 -0.39865617380E+02  0.39865617461E+02  0.25500000000E-02 0.  1.
    5000001    1    1    2    0    0 -0.14266911567E+03  0.15981886721E+03  0.12432240185E+04  0.12722922255E+04  0.16500000000E+03 0.  0.
   -5000001    1    1    2    0    0  0.14266911567E+03 -0.15981886721E+03  0.69631452648E+03  0.74697755432E+03  0.16500000000E+03 0.  0.
<mgrwt>
<rscale>  0 0.56181908E+03</rscale>
<asrwt>0</asrwt>
<pdfrwt beam="1">  1        2 0.61331732E-02 0.56181908E+03</pdfrwt>
<pdfrwt beam="2">  1       -2 0.30452365E+00 0.56181908E+03</pdfrwt>
<totfact> 0.39797240E+01</totfact>
</mgrwt>
</event>
<event>
 4    1  0.8984293E-005  0.4338570E+03  0.7818608E-02  0.1032648E+00
         -2   -1    0    0    0  501 -0.00000000000E+00  0.00000000000E+00  0.22155660322E+02  0.22155660469E+02  0.25500000000E-02 0. -1.
          2   -1    0    0  501    0  0.00000000000E+00 -0.00000000000E+00 -0.21239705442E+04  0.21239705442E+04  0.25500000000E-02 0.  1.
    5000001    1    1    2    0    0 -0.13620852336E+03  0.33669397822E+02 -0.99101860852E+03  0.10144108007E+04  0.16500000000E+03 0.  0.
   -5000001    1    1    2    0    0  0.13620852336E+03 -0.33669397822E+02 -0.11107962753E+04  0.11317154039E+04  0.16500000000E+03 0.  0.
<mgrwt>
<rscale>  0 0.43385698E+03</rscale>
<asrwt>0</asrwt>
<pdfrwt beam="1">  1        2 0.32676454E+00 0.43385698E+03</pdfrwt>
<pdfrwt beam="2">  1       -2 0.34085648E-02 0.43385698E+03</pdfrwt>
<totfact> 0.22131693E+03</totfact>
</mgrwt>
</event>
<event>
 4    1  0.8984293E-005  0.6418797E+03  0.7818608E-02  0.9822137E-01
         -2   -1    0    0    0  501 -0.00000000000E+00  0.00000000000E+00  0.38989427053E+02  0.38989427136E+02  0.25500000000E-02 0. -1.
          2   -1    0    0  501    0  0.00000000000E+00 -0.00000000000E+00 -0.26418028544E+04  0.26418028544E+04  0.25500000000E-02 0.  1.
    5000001    1    1    2    0    0 -0.24025853550E+03  0.88057648936E+02 -0.87756034384E+03  0.92887860913E+03  0.16500000000E+03 0.  0.
   -5000001    1    1    2    0    0  0.24025853550E+03 -0.88057648936E+02 -0.17252530835E+04  0.17519136724E+04  0.16500000000E+03 0.  0.
<mgrwt>
<rscale>  0 0.64187968E+03</rscale>
<asrwt>0</asrwt>
<pdfrwt beam="1">  1        2 0.40643107E+00 0.64187968E+03</pdfrwt>
<pdfrwt beam="2">  1       -2 0.59983755E-02 0.64187968E+03</pdfrwt>
<totfact> 0.47036352E+02</totfact>
</mgrwt>
</event>
<event>
 4    1  0.8984293E-005  0.4109559E+03  0.7818608E-02  0.1040051E+00
          2   -1    0    0  501    0  0.00000000000E+00  0.00000000000E+00  0.70281934961E+03  0.70281934962E+03  0.25500000000E-02 0.  1.
         -2   -1    0    0    0  501 -0.00000000000E+00 -0.00000000000E+00 -0.60074023768E+02  0.60074023822E+02  0.25500000000E-02 0. -1.
    5000001    1    1    2    0    0  0.81026408649E+02  0.86424414260E+02  0.26380285586E+03  0.33294354632E+03  0.16500000000E+03 0.  0.
   -5000001    1    1    2    0    0 -0.81026408649E+02 -0.86424414260E+02  0.37894246999E+03  0.42994982712E+03  0.16500000000E+03 0.  0.
<mgrwt>
<rscale>  0 0.41095589E+03</rscale>
<asrwt>0</asrwt>
<pdfrwt beam="1">  1        2 0.10812605E+00 0.41095589E+03</pdfrwt>
<pdfrwt beam="2">  1       -2 0.92421578E-02 0.41095589E+03</pdfrwt>
<totfact> 0.31579624E+03</totfact>
</mgrwt>
</event>
<event>
 4    1  0.8984293E-005  0.4030429E+03  0.7818608E-02  0.1042731E+00
          2   -1    0    0  501    0  0.00000000000E+00  0.00000000000E+00  0.58332422522E+03  0.58332422522E+03  0.25500000000E-02 0.  1.
         -2   -1    0    0    0  501 -0.00000000000E+00 -0.00000000000E+00 -0.69619765513E+02  0.69619765559E+02  0.25500000000E-02 0. -1.
    5000001    1    1    2    0    0  0.97108285825E+02 -0.11010827923E+02  0.35717207453E+03  0.40539875226E+03  0.16500000000E+03 0.  0.
   -5000001    1    1    2    0    0 -0.97108285825E+02  0.11010827923E+02  0.15653238517E+03  0.24754523852E+03  0.16500000000E+03 0.  0.
<mgrwt>
<rscale>  0 0.40304290E+03</rscale>
<asrwt>0</asrwt>
<pdfrwt beam="1">  1        2 0.89742186E-01 0.40304290E+03</pdfrwt>
<pdfrwt beam="2">  1       -2 0.10710733E-01 0.40304290E+03</pdfrwt>
<totfact> 0.31172519E+03</totfact>
</mgrwt>
</event>
<event>
 4    1  0.8984293E-005  0.8021307E+03  0.7818608E-02  0.9556938E-01
          2   -1    0    0  501    0  0.00000000000E+00  0.00000000000E+00  0.38256277443E+03  0.38256277443E+03  0.25500000000E-02 0.  1.
         -2   -1    0    0    0  501 -0.00000000000E+00 -0.00000000000E+00 -0.42046281348E+03  0.42046281349E+03  0.25500000000E-02 0. -1.
    5000001    1    1    2    0    0 -0.21084701589E+03  0.24462145239E+03  0.15250780441E+03  0.39342057583E+03  0.16500000000E+03 0.  0.
   -5000001    1    1    2    0    0  0.21084701589E+03 -0.24462145239E+03 -0.19040784346E+03  0.40960501209E+03  0.16500000000E+03 0.  0.
<mgrwt>
<rscale>  0 0.80213071E+03</rscale>
<asrwt>0</asrwt>
<pdfrwt beam="1">  1        2 0.58855812E-01 0.80213071E+03</pdfrwt>
<pdfrwt beam="2">  1       -2 0.64686587E-01 0.80213071E+03</pdfrwt>
<totfact> 0.18587480E+02</totfact>
</mgrwt>
</event>
<event>
 4    1  0.8984293E-005  0.4621858E+03  0.7818608E-02  0.1024149E+00
         -2   -1    0    0    0  501 -0.00000000000E+00  0.00000000000E+00  0.23560441598E+02  0.23560441736E+02  0.25500000000E-02 0. -1.
          2   -1    0    0  501    0  0.00000000000E+00 -0.00000000000E+00 -0.22666780306E+04  0.22666780306E+04  0.25500000000E-02 0.  1.
    5000001    1    1    2    0    0  0.37842290001E+02 -0.15030691542E+03 -0.13515759798E+04  0.13704038955E+04  0.16500000000E+03 0.  0.
   -5000001    1    1    2    0    0 -0.37842290001E+02  0.15030691542E+03 -0.89154160923E+03  0.91983457682E+03  0.16500000000E+03 0.  0.
<mgrwt>
<rscale>  0 0.46218583E+03</rscale>
<asrwt>0</asrwt>
<pdfrwt beam="1">  1        2 0.34871952E+00 0.46218583E+03</pdfrwt>
<pdfrwt beam="2">  1       -2 0.36246851E-02 0.46218583E+03</pdfrwt>
<totfact> 0.16843652E+03</totfact>
</mgrwt>
</event>
<event>
 4    1  0.8984293E-005  0.5033985E+03  0.7818608E-02  0.1012896E+00
         -2   -1    0    0    0  501 -0.00000000000E+00  0.00000000000E+00  0.10692328779E+03  0.10692328782E+03  0.25500000000E-02 0. -1.
          2   -1    0    0  501    0  0.00000000000E+00 -0.00000000000E+00 -0.59250424466E+03  0.59250424467E+03  0.25500000000E-02 0.  1.
    5000001    1    1    2    0    0  0.17579001858E+03 -0.42536204952E+02 -0.32399729334E+03  0.40609199137E+03  0.16500000000E+03 0.  0.
   -5000001    1    1    2    0    0 -0.17579001858E+03  0.42536204952E+02 -0.16158366353E+03  0.29333554112E+03  0.16500000000E+03 0.  0.
<mgrwt>
<rscale>  0 0.50339846E+03</rscale>
<asrwt>0</asrwt>
<pdfrwt beam="1">  1        2 0.91154497E-01 0.50339846E+03</pdfrwt>
<pdfrwt beam="2">  1       -2 0.16449737E-01 0.50339846E+03</pdfrwt>
<totfact> 0.15077977E+03</totfact>
</mgrwt>
</event>
<event>
 4    1  0.8984293E-005  0.5097995E+03  0.7818608E-02  0.1011252E+00
          2   -1    0    0  501    0  0.00000000000E+00  0.00000000000E+00  0.47896813120E+03  0.47896813120E+03  0.25500000000E-02 0.  1.
         -2   -1    0    0    0  501 -0.00000000000E+00 -0.00000000000E+00 -0.13565386036E+03  0.13565386038E+03  0.25500000000E-02 0. -1.
    5000001    1    1    2    0    0 -0.16921515540E+03  0.94740757022E+02  0.18588626217E+03  0.31525907175E+03  0.16500000000E+03 0.  0.
   -5000001    1    1    2    0    0  0.16921515540E+03 -0.94740757022E+02  0.15742800866E+03  0.29936291983E+03  0.16500000000E+03 0.  0.
<mgrwt>
<rscale>  0 0.50979947E+03</rscale>
<asrwt>0</asrwt>
<pdfrwt beam="1">  1        2 0.73687405E-01 0.50979947E+03</pdfrwt>
<pdfrwt beam="2">  1       -2 0.20869825E-01 0.50979947E+03</pdfrwt>
<totfact> 0.12818057E+03</totfact>
</mgrwt>
</event>
<event>
 4    1  0.8984293E-005  0.4331564E+03  0.7818608E-02  0.1032867E+00
         -2   -1    0    0    0  501 -0.00000000000E+00  0.00000000000E+00  0.21414677096E+02  0.21414677248E+02  0.25500000000E-02 0. -1.
          2   -1    0    0  501    0  0.00000000000E+00 -0.00000000000E+00 -0.21903728425E+04  0.21903728425E+04  0.25500000000E-02 0.  1.
    5000001    1    1    2    0    0 -0.41619545317E+02  0.55278187846E+02 -0.17076304376E+04  0.17169783272E+04  0.16500000000E+03 0.  0.
   -5000001    1    1    2    0    0  0.41619545317E+02 -0.55278187846E+02 -0.46132772778E+03  0.49480919254E+03  0.16500000000E+03 0.  0.
<mgrwt>
<rscale>  0 0.43315645E+03</rscale>
<asrwt>0</asrwt>
<pdfrwt beam="1">  1        2 0.33698026E+00 0.43315645E+03</pdfrwt>
<pdfrwt beam="2">  1       -2 0.32945675E-02 0.43315645E+03</pdfrwt>
<totfact> 0.21457211E+03</totfact>
</mgrwt>
</event>
<event>
 4    1  0.8984293E-005  0.4065069E+03  0.7818608E-02  0.1041550E+00
          2   -1    0    0  501    0  0.00000000000E+00  0.00000000000E+00  0.23802959697E+03  0.23802959699E+03  0.25500000000E-02 0.  1.
         -2   -1    0    0    0  501 -0.00000000000E+00 -0.00000000000E+00 -0.17355813693E+03  0.17355813695E+03  0.25500000000E-02 0. -1.
    5000001    1    1    2    0    0 -0.19664277379E+02 -0.98265024700E+02  0.96625188167E+02  0.21587988761E+03  0.16500000000E+03 0.  0.
   -5000001    1    1    2    0    0  0.19664277379E+02  0.98265024700E+02 -0.32153728128E+02  0.19570784633E+03  0.16500000000E+03 0.  0.
<mgrwt>
<rscale>  0 0.40650694E+03</rscale>
<asrwt>0</asrwt>
<pdfrwt beam="1">  1        2 0.36619938E-01 0.40650694E+03</pdfrwt>
<pdfrwt beam="2">  1       -2 0.26701252E-01 0.40650694E+03</pdfrwt>
<totfact> 0.17906594E+03</totfact>
</mgrwt>
</event>
<event>
 4    1  0.8984293E-005  0.5009981E+03  0.7818608E-02  0.1013519E+00
         -2   -1    0    0    0  501 -0.00000000000E+00  0.00000000000E+00  0.97720755381E+02  0.97720755414E+02  0.25500000000E-02 0. -1.
          2   -1    0    0  501    0  0.00000000000E+00 -0.00000000000E+00 -0.64213344782E+03  0.64213344782E+03  0.25500000000E-02 0.  1.
    5000001    1    1    2    0    0 -0.50177372864E+02  0.16024811413E+03 -0.39861859526E+03  0.46294601340E+03  0.16500000000E+03 0.  0.
   -5000001    1    1    2    0    0  0.50177372864E+02 -0.16024811413E+03 -0.14579409717E+03  0.27690818984E+03  0.16500000000E+03 0.  0.
<mgrwt>
<rscale>  0 0.50099807E+03</rscale>
<asrwt>0</asrwt>
<pdfrwt beam="1">  1        2 0.98789759E-01 0.50099807E+03</pdfrwt>
<pdfrwt beam="2">  1       -2 0.15033963E-01 0.50099807E+03</pdfrwt>
<totfact> 0.15935100E+03</totfact>
</mgrwt>
</event>
<event>
 4    1  0.8984293E-005  0.3856818E+03  0.7818608E-02  0.1048853E+00
          2   -1    0    0  501    0  0.00000000000E+00  0.00000000000E+00  0.17368916217E+03  0.17368916219E+03  0.25500000000E-02 0.  1.
         -2   -1    0    0    0  501 -0.00000000000E+00 -0.00000000000E+00 -0.21410440076E+03  0.21410440077E+03  0.25500000000E-02 0. -1.
    5000001    1    1    2    0    0  0.57908440965E+02  0.21833346058E+02  0.58531641868E+02  0.18569069884E+03  0.16500000000E+03 0.  0.
   -5000001    1    1    2    0    0 -0.57908440965E+02 -0.21833346058E+02 -0.98946880455E+02  0.20210286412E+03  0.16500000000E+03 0.  0.
<mgrwt>
<rscale>  0 0.38568181E+03</rscale>
<asrwt>0</asrwt>
<pdfrwt beam="1">  1        2 0.26721410E-01 0.38568181E+03</pdfrwt>
<pdfrwt beam="2">  1       -2 0.32939139E-01 0.38568181E+03</pdfrwt>
<totfact> 0.17285214E+03</totfact>
</mgrwt>
</event>
<event>
 4    1  0.8984293E-005  0.8522018E+03  0.7818608E-02  0.9487386E-01
          2   -1    0    0  501    0  0.00000000000E+00  0.00000000000E+00  0.11817767423E+04  0.11817767423E+04  0.25500000000E-02 0.  1.
         -2   -1    0    0    0  501 -0.00000000000E+00 -0.00000000000E+00 -0.15363476819E+03  0.15363476821E+03  0.25500000000E-02 0. -1.
    5000001    1    1    2    0    0  0.10059490914E+03 -0.21637846422E+03  0.10031147342E+04  0.10442237047E+04  0.16500000000E+03 0.  0.
   -5000001    1    1    2    0    0 -0.10059490914E+03  0.21637846422E+03  0.25027239954E+02  0.29118780583E+03  0.16500000000E+03 0.  0.
<mgrwt>
<rscale>  0 0.85220184E+03</rscale>
<asrwt>0</asrwt>
<pdfrwt beam="1">  1        2 0.18181181E+00 0.85220184E+03</pdfrwt>
<pdfrwt beam="2">  1       -2 0.23636118E-01 0.85220184E+03</pdfrwt>
<totfact> 0.30924082E+02</totfact>
</mgrwt>
</event>
<event>
 4    1  0.8984293E-005  0.8137065E+03  0.7818608E-02  0.9540387E-01
          2   -1    0    0  501    0  0.00000000000E+00  0.00000000000E+00  0.14820633849E+04  0.14820633849E+04  0.25500000000E-02 0.  1.
         -2   -1    0    0    0  501 -0.00000000000E+00 -0.00000000000E+00 -0.11168857648E+03  0.11168857651E+03  0.25500000000E-02 0. -1.
    5000001    1    1    2    0    0 -0.35625620480E+03  0.57967356156E+02  0.50971915586E+03  0.64600101833E+03  0.16500000000E+03 0.  0.
   -5000001    1    1    2    0    0  0.35625620480E+03 -0.57967356156E+02  0.86065565260E+03  0.94775094312E+03  0.16500000000E+03 0.  0.
<mgrwt>
<rscale>  0 0.81370646E+03</rscale>
<asrwt>0</asrwt>
<pdfrwt beam="1">  1        2 0.22800974E+00 0.81370646E+03</pdfrwt>
<pdfrwt beam="2">  1       -2 0.17182858E-01 0.81370646E+03</pdfrwt>
<totfact> 0.36416953E+02</totfact>
</mgrwt>
</event>
<event>
 4    1  0.8984293E-005  0.7344764E+03  0.7818608E-02  0.9660024E-01
         -2   -1    0    0    0  501 -0.00000000000E+00  0.00000000000E+00  0.27900709855E+03  0.27900709856E+03  0.25500000000E-02 0. -1.
          2   -1    0    0  501    0  0.00000000000E+00 -0.00000000000E+00 -0.48337084539E+03  0.48337084540E+03  0.25500000000E-02 0.  1.
    5000001    1    1    2    0    0 -0.25954491898E+03 -0.19729146740E+03 -0.64023848841E+02  0.37096029612E+03  0.16500000000E+03 0.  0.
   -5000001    1    1    2    0    0  0.25954491898E+03  0.19729146740E+03 -0.14033989800E+03  0.39141764785E+03  0.16500000000E+03 0.  0.
<mgrwt>
<rscale>  0 0.73447640E+03</rscale>
<asrwt>0</asrwt>
<pdfrwt beam="1">  1        2 0.74364745E-01 0.73447640E+03</pdfrwt>
<pdfrwt beam="2">  1       -2 0.42924169E-01 0.73447640E+03</pdfrwt>
<totfact> 0.33218055E+02</totfact>
</mgrwt>
</event>
<event>
 4    1  0.8984293E-005  0.4347438E+03  0.7818608E-02  0.1032372E+00
         -2   -1    0    0    0  501 -0.00000000000E+00  0.00000000000E+00  0.16724232420E+03  0.16724232422E+03  0.25500000000E-02 0. -1.
          2   -1    0    0  501    0  0.00000000000E+00 -0.00000000000E+00 -0.28252741419E+03  0.28252741421E+03  0.25500000000E-02 0.  1.
    5000001    1    1    2    0    0 -0.43518443473E+01  0.13938967095E+03 -0.82496232886E+02  0.23125537260E+03  0.16500000000E+03 0.  0.
   -5000001    1    1    2    0    0  0.43518443473E+01 -0.13938967095E+03 -0.32788857113E+02  0.21851436582E+03  0.16500000000E+03 0.  0.
<mgrwt>
<rscale>  0 0.43474379E+03</rscale>
<asrwt>0</asrwt>
<pdfrwt beam="1">  1        2 0.43465756E-01 0.43474379E+03</pdfrwt>
<pdfrwt beam="2">  1       -2 0.25729588E-01 0.43474379E+03</pdfrwt>
<totfact> 0.15873415E+03</totfact>
</mgrwt>
</event>
<event>
 4    1  0.8984293E-005  0.5674956E+03  0.7818608E-02  0.9975236E-01
         -2   -1    0    0    0  501 -0.00000000000E+00  0.00000000000E+00  0.48355129056E+02  0.48355129123E+02  0.25500000000E-02 0. -1.
          2   -1    0    0  501    0  0.00000000000E+00 -0.00000000000E+00 -0.16650317761E+04  0.16650317761E+04  0.25500000000E-02 0.  1.
    5000001    1    1    2    0    0 -0.17434905659E+03  0.14630820361E+03 -0.69202466620E+03  0.74694499302E+03  0.16500000000E+03 0.  0.
   -5000001    1    1    2    0    0  0.17434905659E+03 -0.14630820361E+03 -0.92465198088E+03  0.96644191223E+03  0.16500000000E+03 0.  0.
<mgrwt>
<rscale>  0 0.56749564E+03</rscale>
<asrwt>0</asrwt>
<pdfrwt beam="1">  1        2 0.25615869E+00 0.56749564E+03</pdfrwt>
<pdfrwt beam="2">  1       -2 0.74392519E-02 0.56749564E+03</pdfrwt>
<totfact> 0.11606180E+03</totfact>
</mgrwt>
</event>
<event>
 4    1  0.8984293E-005  0.6407603E+03  0.7818608E-02  0.9824273E-01
          2   -1    0    0  501    0  0.00000000000E+00  0.00000000000E+00  0.28396835668E+04  0.28396835668E+04  0.25500000000E-02 0.  1.
         -2   -1    0    0    0  501 -0.00000000000E+00 -0.00000000000E+00 -0.36146088992E+02  0.36146089082E+02  0.25500000000E-02 0. -1.
    5000001    1    1    2    0    0  0.74656060412E+02 -0.15787275905E+03  0.45052279652E+03  0.51058116455E+03  0.16500000000E+03 0.  0.
   -5000001    1    1    2    0    0 -0.74656060412E+02  0.15787275905E+03  0.23530146813E+04  0.23652484914E+04  0.16500000000E+03 0.  0.
<mgrwt>
<rscale>  0 0.64076035E+03</rscale>
<asrwt>0</asrwt>
<pdfrwt beam="1">  1        2 0.43687456E+00 0.64076035E+03</pdfrwt>
<pdfrwt beam="2">  1       -2 0.55609346E-02 0.64076035E+03</pdfrwt>
<totfact> 0.40603678E+02</totfact>
</mgrwt>
</event>
<event>
 4    1  0.8984293E-005  0.4128634E+03  0.7818608E-02  0.1039414E+00
         -2   -1    0    0    0  501 -0.00000000000E+00  0.00000000000E+00  0.35917253613E+02  0.35917253704E+02  0.25500000000E-02 0. -1.
          2   -1    0    0  501    0  0.00000000000E+00 -0.00000000000E+00 -0.11864507491E+04  0.11864507491E+04  0.25500000000E-02 0.  1.
    5000001    1    1    2    0    0 -0.11987388898E+03 -0.28604057836E+01 -0.48112176167E+03  0.52257160345E+03  0.16500000000E+03 0.  0.
   -5000001    1    1    2    0    0  0.11987388898E+03  0.28604057836E+01 -0.66941173379E+03  0.69979639933E+03  0.16500000000E+03 0.  0.
<mgrwt>
<rscale>  0 0.41286343E+03</rscale>
<asrwt>0</asrwt>
<pdfrwt beam="1">  1        2 0.18253085E+00 0.41286343E+03</pdfrwt>
<pdfrwt beam="2">  1       -2 0.55257322E-02 0.41286343E+03</pdfrwt>
<totfact> 0.34273356E+03</totfact>
</mgrwt>
</event>
<event>
 4    1  0.8984293E-005  0.3631967E+03  0.7818608E-02  0.1057325E+00
         -2   -1    0    0    0  501 -0.00000000000E+00  0.00000000000E+00  0.22565848800E+02  0.22565848944E+02  0.25500000000E-02 0. -1.
          2   -1    0    0  501    0  0.00000000000E+00 -0.00000000000E+00 -0.14614100498E+04  0.14614100498E+04  0.25500000000E-02 0.  1.
    5000001    1    1    2    0    0 -0.36599891027E+02  0.66412638423E+02 -0.71262459770E+03  0.73539717691E+03  0.16500000000E+03 0.  0.
   -5000001    1    1    2    0    0  0.36599891027E+02 -0.66412638423E+02 -0.72621960333E+03  0.74857872186E+03  0.16500000000E+03 0.  0.
<mgrwt>
<rscale>  0 0.36319669E+03</rscale>
<asrwt>0</asrwt>
<pdfrwt beam="1">  1        2 0.22483224E+00 0.36319669E+03</pdfrwt>
<pdfrwt beam="2">  1       -2 0.34716702E-02 0.36319669E+03</pdfrwt>
<totfact> 0.48835857E+03</totfact>
</mgrwt>
</event>
<event>
 4    1  0.8984293E-005  0.8124229E+03  0.7818608E-02  0.9542207E-01
         -2   -1    0    0    0  501 -0.00000000000E+00  0.00000000000E+00  0.15889059702E+03  0.15889059704E+03  0.25500000000E-02 0. -1.
          2   -1    0    0  501    0  0.00000000000E+00 -0.00000000000E+00 -0.10384991885E+04  0.10384991885E+04  0.25500000000E-02 0.  1.
    5000001    1    1    2    0    0  0.22711414678E+03  0.91654217252E+02 -0.85090398603E+03  0.90069080414E+03  0.16500000000E+03 0.  0.
   -5000001    1    1    2    0    0 -0.22711414678E+03 -0.91654217252E+02 -0.28704605466E+02  0.29669898143E+03  0.16500000000E+03 0.  0.
<mgrwt>
<rscale>  0 0.81242293E+03</rscale>
<asrwt>0</asrwt>
<pdfrwt beam="1">  1        2 0.15976910E+00 0.81242293E+03</pdfrwt>
<pdfrwt beam="2">  1       -2 0.24444708E-01 0.81242293E+03</pdfrwt>
<totfact> 0.35692503E+02</totfact>
</mgrwt>
</event>
<event>
 4    1  0.8984293E-005  0.3596601E+03  0.7818608E-02  0.1058719E+00
          2   -1    0    0  501    0  0.00000000000E+00  0.00000000000E+00  0.60991422398E+03  0.60991422398E+03  0.25500000000E-02 0.  1.
         -2   -1    0    0    0  501 -0.00000000000E+00 -0.00000000000E+00 -0.53021965599E+02  0.53021965660E+02  0.25500000000E-02 0. -1.
    5000001    1    1    2    0    0 -0.62847621223E+02 -0.75394401467E+01  0.33977845202E+03  0.38298963838E+03  0.16500000000E+03 0.  0.
   -5000001    1    1    2    0    0  0.62847621223E+02  0.75394401467E+01  0.21711380636E+03  0.27994655126E+03  0.16500000000E+03 0.  0.
<mgrwt>
<rscale>  0 0.35966012E+03</rscale>
<asrwt>0</asrwt>
<pdfrwt beam="1">  1        2 0.93832960E-01 0.35966012E+03</pdfrwt>
<pdfrwt beam="2">  1       -2 0.81572253E-02 0.35966012E+03</pdfrwt>
<totfact> 0.45589675E+03</totfact>
</mgrwt>
</event>
<event>
 4    1  0.8984293E-005  0.8375092E+03  0.7818608E-02  0.9507257E-01
         -2   -1    0    0    0  501 -0.00000000000E+00  0.00000000000E+00  0.37001778328E+03  0.37001778329E+03  0.25500000000E-02 0. -1.
          2   -1    0    0  501    0  0.00000000000E+00 -0.00000000000E+00 -0.47391082005E+03  0.47391082006E+03  0.25500000000E-02 0.  1.
    5000001    1    1    2    0    0  0.24956370623E+03  0.21789499162E+03  0.14543791850E+03  0.39766500849E+03  0.16500000000E+03 0.  0.
   -5000001    1    1    2    0    0 -0.24956370623E+03 -0.21789499162E+03 -0.24933095527E+03  0.44626359486E+03  0.16500000000E+03 0.  0.
<mgrwt>
<rscale>  0 0.83750924E+03</rscale>
<asrwt>0</asrwt>
<pdfrwt beam="1">  1        2 0.72909357E-01 0.83750924E+03</pdfrwt>
<pdfrwt beam="2">  1       -2 0.56925813E-01 0.83750924E+03</pdfrwt>
<totfact> 0.19078343E+02</totfact>
</mgrwt>
</event>
<event>
 4    1  0.8984293E-005  0.7318399E+03  0.7818608E-02  0.9664279E-01
         -2   -1    0    0    0  501 -0.00000000000E+00  0.00000000000E+00  0.34072794058E+02  0.34072794153E+02  0.25500000000E-02 0. -1.
          2   -1    0    0  501    0  0.00000000000E+00 -0.00000000000E+00 -0.39297459618E+04  0.39297459618E+04  0.25500000000E-02 0.  1.
    5000001    1    1    2    0    0  0.30385438222E+03 -0.70772123589E+02 -0.14244967133E+04  0.14675667158E+04  0.16500000000E+03 0.  0.
   -5000001    1    1    2    0    0 -0.30385438222E+03  0.70772123589E+02 -0.24711764545E+04  0.24962520402E+04  0.16500000000E+03 0.  0.
<mgrwt>
<rscale>  0 0.73183994E+03</rscale>
<asrwt>0</asrwt>
<pdfrwt beam="1">  1        2 0.60457594E+00 0.73183994E+03</pdfrwt>
<pdfrwt beam="2">  1       -2 0.52419714E-02 0.73183994E+03</pdfrwt>
<totfact> 0.82243966E+01</totfact>
</mgrwt>
</event>
<event>
 4    1  0.8984293E-005  0.4520635E+03  0.7818608E-02  0.1027108E+00
         -2   -1    0    0    0  501 -0.00000000000E+00  0.00000000000E+00  0.57934626896E+02  0.57934626952E+02  0.25500000000E-02 0. -1.
          2   -1    0    0  501    0  0.00000000000E+00 -0.00000000000E+00 -0.88186207124E+03  0.88186207124E+03  0.25500000000E-02 0.  1.
    5000001    1    1    2    0    0 -0.12350791880E+03 -0.79124833128E+02 -0.31117642022E+03  0.38153729795E+03  0.16500000000E+03 0.  0.
   -5000001    1    1    2    0    0  0.12350791880E+03  0.79124833128E+02 -0.51275102412E+03  0.55825940025E+03  0.16500000000E+03 0.  0.
<mgrwt>
<rscale>  0 0.45206349E+03</rscale>
<asrwt>0</asrwt>
<pdfrwt beam="1">  1        2 0.13567108E+00 0.45206349E+03</pdfrwt>
<pdfrwt beam="2">  1       -2 0.89130202E-02 0.45206349E+03</pdfrwt>
<totfact> 0.24974070E+03</totfact>
</mgrwt>
</event>
<event>
 4    1  0.8984293E-005  0.5360977E+03  0.7818608E-02  0.1004764E+00
         -2   -1    0    0    0  501 -0.00000000000E+00  0.00000000000E+00  0.83817689484E+02  0.83817689523E+02  0.25500000000E-02 0. -1.
          2   -1    0    0  501    0  0.00000000000E+00 -0.00000000000E+00 -0.85721994298E+03  0.85721994298E+03  0.25500000000E-02 0.  1.
    5000001    1    1    2    0    0 -0.10178516123E+03 -0.13619411585E+03 -0.16664374181E+03  0.28966220486E+03  0.16500000000E+03 0.  0.
   -5000001    1    1    2    0    0  0.10178516123E+03  0.13619411585E+03 -0.60675851169E+03  0.65137542765E+03  0.16500000000E+03 0.  0.
<mgrwt>
<rscale>  0 0.53609773E+03</rscale>
<asrwt>0</asrwt>
<pdfrwt beam="1">  1        2 0.13187999E+00 0.53609773E+03</pdfrwt>
<pdfrwt beam="2">  1       -2 0.12895030E-01 0.53609773E+03</pdfrwt>
<totfact> 0.14237479E+03</totfact>
</mgrwt>
</event>
<event>
 4    1  0.8984293E-005  0.5155957E+03  0.7818608E-02  0.1009787E+00
         -2   -1    0    0    0  501 -0.00000000000E+00  0.00000000000E+00  0.60896135241E+02  0.60896135294E+02  0.25500000000E-02 0. -1.
          2   -1    0    0  501    0  0.00000000000E+00 -0.00000000000E+00 -0.10913618937E+04  0.10913618937E+04  0.25500000000E-02 0.  1.
    5000001    1    1    2    0    0 -0.16457228262E+03  0.55806882460E+02 -0.30279338411E+03  0.38614411532E+03  0.16500000000E+03 0.  0.
   -5000001    1    1    2    0    0  0.16457228262E+03 -0.55806882460E+02 -0.72767237437E+03  0.76611391370E+03  0.16500000000E+03 0.  0.
<mgrwt>
<rscale>  0 0.51559566E+03</rscale>
<asrwt>0</asrwt>
<pdfrwt beam="1">  1        2 0.16790181E+00 0.51559566E+03</pdfrwt>
<pdfrwt beam="2">  1       -2 0.93686370E-02 0.51559566E+03</pdfrwt>
<totfact> 0.16979096E+03</totfact>
</mgrwt>
</event>
<event>
 4    1  0.8984293E-005  0.7021967E+03  0.7818608E-02  0.9713483E-01
         -2   -1    0    0    0  501 -0.00000000000E+00  0.00000000000E+00  0.72589741125E+02  0.72589741169E+02  0.25500000000E-02 0. -1.
          2   -1    0    0  501    0  0.00000000000E+00 -0.00000000000E+00 -0.16981746830E+04  0.16981746830E+04  0.25500000000E-02 0.  1.
    5000001    1    1    2    0    0  0.29237899447E+03 -0.99311684299E+02 -0.74622717951E+03  0.82427440242E+03  0.16500000000E+03 0.  0.
   -5000001    1    1    2    0    0 -0.29237899447E+03  0.99311684299E+02 -0.87935776239E+03  0.94649002177E+03  0.16500000000E+03 0.  0.
<mgrwt>
<rscale>  0 0.70219673E+03</rscale>
<asrwt>0</asrwt>
<pdfrwt beam="1">  1        2 0.26125761E+00 0.70219673E+03</pdfrwt>
<pdfrwt beam="2">  1       -2 0.11167654E-01 0.70219673E+03</pdfrwt>
<totfact> 0.57406522E+02</totfact>
</mgrwt>
</event>
<event>
 4    1  0.8984293E-005  0.9811367E+03  0.7818608E-02  0.9329479E-01
          2   -1    0    0  501    0  0.00000000000E+00  0.00000000000E+00  0.34373324022E+03  0.34373324023E+03  0.25500000000E-02 0.  1.
         -2   -1    0    0    0  501 -0.00000000000E+00 -0.00000000000E+00 -0.70012810969E+03  0.70012810970E+03  0.25500000000E-02 0. -1.
    5000001    1    1    2    0    0  0.30273485046E+03 -0.28496044209E+03  0.36129688646E+02  0.44875516447E+03  0.16500000000E+03 0.  0.
   -5000001    1    1    2    0    0 -0.30273485046E+03  0.28496044209E+03 -0.39252455812E+03  0.59510618545E+03  0.16500000000E+03 0.  0.
<mgrwt>
<rscale>  0 0.98113670E+03</rscale>
<asrwt>0</asrwt>
<pdfrwt beam="1">  1        2 0.52882037E-01 0.98113670E+03</pdfrwt>
<pdfrwt beam="2">  1       -2 0.10771202E+00 0.98113670E+03</pdfrwt>
<totfact> 0.65146959E+01</totfact>
</mgrwt>
</event>
<event>
 4    1  0.8984293E-005  0.7133170E+03  0.7818608E-02  0.9694725E-01
         -2   -1    0    0    0  501 -0.00000000000E+00  0.00000000000E+00  0.85077245235E+02  0.85077245273E+02  0.25500000000E-02 0. -1.
          2   -1    0    0  501    0  0.00000000000E+00 -0.00000000000E+00 -0.14951741426E+04  0.14951741426E+04  0.25500000000E-02 0.  1.
    5000001    1    1    2    0    0  0.30343267836E+03 -0.60369154991E+02 -0.84971769623E+03  0.91921759581E+03  0.16500000000E+03 0.  0.
   -5000001    1    1    2    0    0 -0.30343267836E+03  0.60369154991E+02 -0.56037920109E+03  0.66103379202E+03  0.16500000000E+03 0.  0.
<mgrwt>
<rscale>  0 0.71331703E+03</rscale>
<asrwt>0</asrwt>
<pdfrwt beam="1">  1        2 0.23002677E+00 0.71331703E+03</pdfrwt>
<pdfrwt beam="2">  1       -2 0.13088808E-01 0.71331703E+03</pdfrwt>
<totfact> 0.57074542E+02</totfact>
</mgrwt>
</event>
<event>
 4    1  0.8984293E-005  0.5757987E+03  0.7818608E-02  0.9956928E-01
         -2   -1    0    0    0  501 -0.00000000000E+00  0.00000000000E+00  0.19459655785E+03  0.19459655787E+03  0.25500000000E-02 0. -1.
          2   -1    0    0  501    0  0.00000000000E+00 -0.00000000000E+00 -0.42593787554E+03  0.42593787554E+03  0.25500000000E-02 0.  1.
    5000001    1    1    2    0    0 -0.12472608382E+02  0.23100557992E+03 -0.16554702815E+03  0.32886161594E+03  0.16500000000E+03 0.  0.
   -5000001    1    1    2    0    0  0.12472608382E+02 -0.23100557992E+03 -0.65794289540E+02  0.29167281747E+03  0.16500000000E+03 0.  0.
<mgrwt>
<rscale>  0 0.57579873E+03</rscale>
<asrwt>0</asrwt>
<pdfrwt beam="1">  1        2 0.65528904E-01 0.57579873E+03</pdfrwt>
<pdfrwt beam="2">  1       -2 0.29937932E-01 0.57579873E+03</pdfrwt>
<totfact> 0.76582010E+02</totfact>
</mgrwt>
</event>
<event>
 4    1  0.8984293E-005  0.9920636E+03  0.7818608E-02  0.9317292E-01
          2   -1    0    0  501    0  0.00000000000E+00  0.00000000000E+00  0.60847475749E+03  0.60847475750E+03  0.25500000000E-02 0.  1.
         -2   -1    0    0    0  501 -0.00000000000E+00 -0.00000000000E+00 -0.40436775020E+03  0.40436775021E+03  0.25500000000E-02 0. -1.
    5000001    1    1    2    0    0  0.37801855824E+03  0.26842563542E+03  0.38523013256E+02  0.49361865309E+03  0.16500000000E+03 0.  0.
   -5000001    1    1    2    0    0 -0.37801855824E+03 -0.26842563542E+03  0.16558399403E+03  0.51922385462E+03  0.16500000000E+03 0.  0.
<mgrwt>
<rscale>  0 0.99206364E+03</rscale>
<asrwt>0</asrwt>
<pdfrwt beam="1">  1        2 0.93611501E-01 0.99206364E+03</pdfrwt>
<pdfrwt beam="2">  1       -2 0.62210423E-01 0.99206364E+03</pdfrwt>
<totfact> 0.11687433E+02</totfact>
</mgrwt>
</event>
<event>
 4    1  0.8984293E-005  0.4358585E+03  0.7818608E-02  0.1032025E+00
          2   -1    0    0  501    0  0.00000000000E+00  0.00000000000E+00  0.16148760109E+03  0.16148760111E+03  0.25500000000E-02 0. -1.
         -2   -1    0    0    0  501 -0.00000000000E+00 -0.00000000000E+00 -0.29409782306E+03  0.29409782307E+03  0.25500000000E-02 0.  1.
    5000001    1    1    2    0    0 -0.11794110069E+03 -0.55080235594E+02 -0.12657063950E+03  0.24533459269E+03  0.16500000000E+03 0.  0.
   -5000001    1    1    2    0    0  0.11794110069E+03  0.55080235594E+02 -0.60395824646E+01  0.21025083149E+03  0.16500000000E+03 0.  0.
<mgrwt>
<rscale>  0 0.43585847E+03</rscale>
<asrwt>0</asrwt>
<pdfrwt beam="1">  1        2 0.24844246E-01 0.43585847E+03</pdfrwt>
<pdfrwt beam="2">  1       -2 0.45245819E-01 0.43585847E+03</pdfrwt>
<totfact> 0.10227057E+03</totfact>
</mgrwt>
</event>
<event>
 4    1  0.8984293E-005  0.6153580E+03  0.7818608E-02  0.9874046E-01
         -2   -1    0    0    0  501 -0.00000000000E+00  0.00000000000E+00  0.59243357969E+02  0.59243358023E+02  0.25500000000E-02 0. -1.
          2   -1    0    0  501    0  0.00000000000E+00 -0.00000000000E+00 -0.15979235680E+04  0.15979235680E+04  0.25500000000E-02 0.  1.
    5000001    1    1    2    0    0 -0.15931290856E+03 -0.18750075847E+03 -0.54557324878E+03  0.62081583988E+03  0.16500000000E+03 0.  0.
   -5000001    1    1    2    0    0  0.15931290856E+03  0.18750075847E+03 -0.99310696122E+03  0.10363510861E+04  0.16500000000E+03 0.  0.
<mgrwt>
<rscale>  0 0.61535797E+03</rscale>
<asrwt>0</asrwt>
<pdfrwt beam="1">  1        2 0.24583436E+00 0.61535797E+03</pdfrwt>
<pdfrwt beam="2">  1       -2 0.91143640E-02 0.61535797E+03</pdfrwt>
<totfact> 0.91063613E+02</totfact>
</mgrwt>
</event>
<event>
 4    1  0.8984293E-005  0.4374588E+03  0.7818608E-02  0.1031529E+00
          2   -1    0    0  501    0  0.00000000000E+00  0.00000000000E+00  0.15010433848E+04  0.15010433848E+04  0.25500000000E-02 0.  1.
         -2   -1    0    0    0  501 -0.00000000000E+00 -0.00000000000E+00 -0.31872862483E+02  0.31872862585E+02  0.25500000000E-02 0. -1.
    5000001    1    1    2    0    0  0.12181901938E+03 -0.35022898476E+02  0.97098018930E+03  0.99302266082E+03  0.16500000000E+03 0.  0.
   -5000001    1    1    2    0    0 -0.12181901938E+03  0.35022898476E+02  0.49819033303E+03  0.53989358658E+03  0.16500000000E+03 0.  0.
<mgrwt>
<rscale>  0 0.43745880E+03</rscale>
<asrwt>0</asrwt>
<pdfrwt beam="1">  1        2 0.23092970E+00 0.43745880E+03</pdfrwt>
<pdfrwt beam="2">  1       -2 0.49035183E-02 0.43745880E+03</pdfrwt>
<totfact> 0.27448762E+03</totfact>
</mgrwt>
</event>
<event>
 4    1  0.8984293E-005  0.5360321E+03  0.7818608E-02  0.1004780E+00
         -2   -1    0    0    0  501 -0.00000000000E+00  0.00000000000E+00  0.35503050658E+02  0.35503050749E+02  0.25500000000E-02 0. -1.
          2   -1    0    0  501    0  0.00000000000E+00 -0.00000000000E+00 -0.20232794867E+04  0.20232794867E+04  0.25500000000E-02 0.  1.
    5000001    1    1    2    0    0 -0.16336328874E+03  0.37318892722E+02 -0.50012235804E+03  0.55265507948E+03  0.16500000000E+03 0.  0.
   -5000001    1    1    2    0    0  0.16336328874E+03 -0.37318892722E+02 -0.14876540780E+04  0.15061274580E+04  0.16500000000E+03 0.  0.
<mgrwt>
<rscale>  0 0.53603207E+03</rscale>
<asrwt>0</asrwt>
<pdfrwt beam="1">  1        2 0.31127368E+00 0.53603207E+03</pdfrwt>
<pdfrwt beam="2">  1       -2 0.54620094E-02 0.53603207E+03</pdfrwt>
<totfact> 0.12093427E+03</totfact>
</mgrwt>
</event>
<event>
 4    1  0.8984293E-005  0.5181720E+03  0.7818608E-02  0.1009142E+00
          2   -1    0    0  501    0  0.00000000000E+00  0.00000000000E+00  0.84119399859E+03  0.84119399859E+03  0.25500000000E-02 0.  1.
         -2   -1    0    0    0  501 -0.00000000000E+00 -0.00000000000E+00 -0.79797942961E+02  0.79797943002E+02  0.25500000000E-02 0. -1.
    5000001    1    1    2    0    0  0.18545279860E+03 -0.36733871292E+02  0.49531442538E+03  0.55525084223E+03  0.16500000000E+03 0.  0.
   -5000001    1    1    2    0    0 -0.18545279860E+03  0.36733871292E+02  0.26608163025E+03  0.36574109936E+03  0.16500000000E+03 0.  0.
<mgrwt>
<rscale>  0 0.51817198E+03</rscale>
<asrwt>0</asrwt>
<pdfrwt beam="1">  1        2 0.12941447E+00 0.51817198E+03</pdfrwt>
<pdfrwt beam="2">  1       -2 0.12276606E-01 0.51817198E+03</pdfrwt>
<totfact> 0.15838987E+03</totfact>
</mgrwt>
</event>
<event>
 4    1  0.8984293E-005  0.4673700E+03  0.7818608E-02  0.1022665E+00
          2   -1    0    0  501    0  0.00000000000E+00  0.00000000000E+00  0.81828751453E+03  0.81828751454E+03  0.25500000000E-02 0.  1.
         -2   -1    0    0    0  501 -0.00000000000E+00 -0.00000000000E+00 -0.66735310710E+02  0.66735310759E+02  0.25500000000E-02 0. -1.
    5000001    1    1    2    0    0  0.10740785268E+03 -0.12541945873E+03  0.35527732101E+03  0.42510406052E+03  0.16500000000E+03 0.  0.
   -5000001    1    1    2    0    0 -0.10740785268E+03  0.12541945873E+03  0.39627488281E+03  0.45991876478E+03  0.16500000000E+03 0.  0.
<mgrwt>
<rscale>  0 0.46736997E+03</rscale>
<asrwt>0</asrwt>
<pdfrwt beam="1">  1        2 0.12589039E+00 0.46736997E+03</pdfrwt>
<pdfrwt beam="2">  1       -2 0.10266970E-01 0.46736997E+03</pdfrwt>
<totfact> 0.21990892E+03</totfact>
</mgrwt>
</event>
<event>
 4    1  0.8984293E-005  0.5129790E+03  0.7818608E-02  0.1010446E+00
          2   -1    0    0  501    0  0.00000000000E+00  0.00000000000E+00  0.19049484727E+04  0.19049484727E+04  0.25500000000E-02 0.  1.
         -2   -1    0    0    0  501 -0.00000000000E+00 -0.00000000000E+00 -0.34534720571E+02  0.34534720665E+02  0.25500000000E-02 0. -1.
    5000001    1    1    2    0    0  0.16709523097E+03 -0.75132858064E+02  0.12024472235E+04  0.12274649029E+04  0.16500000000E+03 0.  0.
   -5000001    1    1    2    0    0 -0.16709523097E+03  0.75132858064E+02  0.66796652865E+03  0.71201829047E+03  0.16500000000E+03 0.  0.
<mgrwt>
<rscale>  0 0.51297900E+03</rscale>
<asrwt>0</asrwt>
<pdfrwt beam="1">  1        2 0.29306900E+00 0.51297900E+03</pdfrwt>
<pdfrwt beam="2">  1       -2 0.53130338E-02 0.51297900E+03</pdfrwt>
<totfact> 0.14640010E+03</totfact>
</mgrwt>
</event>
<event>
 4    1  0.8984293E-005  0.4256245E+03  0.7818608E-02  0.1035251E+00
          2   -1    0    0  501    0  0.00000000000E+00  0.00000000000E+00  0.17963916348E+04  0.17963916348E+04  0.25500000000E-02 0.  1.
         -2   -1    0    0    0  501 -0.00000000000E+00 -0.00000000000E+00 -0.25211127458E+02  0.25211127587E+02  0.25500000000E-02 0. -1.
    5000001    1    1    2    0    0 -0.61354650596E+02  0.82183000646E+02  0.51382012263E+03  0.54932190669E+03  0.16500000000E+03 0.  0.
   -5000001    1    1    2    0    0  0.61354650596E+02 -0.82183000646E+02  0.12573603847E+04  0.12722808557E+04  0.16500000000E+03 0.  0.
<mgrwt>
<rscale>  0 0.42562452E+03</rscale>
<asrwt>0</asrwt>
<pdfrwt beam="1">  1        2 0.27636799E+00 0.42562452E+03</pdfrwt>
<pdfrwt beam="2">  1       -2 0.38786344E-02 0.42562452E+03</pdfrwt>
<totfact> 0.27248098E+03</totfact>
</mgrwt>
</event>
<event>
 4    1  0.8984293E-005  0.4055318E+03  0.7818608E-02  0.1041881E+00
          2   -1    0    0  501    0  0.00000000000E+00  0.00000000000E+00  0.31901843018E+03  0.31901843019E+03  0.25500000000E-02 0.  1.
         -2   -1    0    0    0  501 -0.00000000000E+00 -0.00000000000E+00 -0.12887656736E+03  0.12887656738E+03  0.25500000000E-02 0. -1.
    5000001    1    1    2    0    0 -0.48466238849E+02 -0.90633026611E+02  0.15876389749E+03  0.25098664699E+03  0.16500000000E+03 0.  0.
   -5000001    1    1    2    0    0  0.48466238849E+02  0.90633026611E+02  0.31377965334E+02  0.19690835058E+03  0.16500000000E+03 0.  0.
<mgrwt>
<rscale>  0 0.40553175E+03</rscale>
<asrwt>0</asrwt>
<pdfrwt beam="1">  1        2 0.49079758E-01 0.40553175E+03</pdfrwt>
<pdfrwt beam="2">  1       -2 0.19827164E-01 0.40553175E+03</pdfrwt>
<totfact> 0.21960547E+03</totfact>
</mgrwt>
</event>
<event>
 4    1  0.8984293E-005  0.4059716E+03  0.7818608E-02  0.1041731E+00
          2   -1    0    0  501    0  0.00000000000E+00  0.00000000000E+00  0.39873837986E+03  0.39873837987E+03  0.25500000000E-02 0.  1.
         -2   -1    0    0    0  501 -0.00000000000E+00 -0.00000000000E+00 -0.10333400691E+03  0.10333400694E+03  0.25500000000E-02 0. -1.
    5000001    1    1    2    0    0  0.20163721250E+02  0.10830897553E+03  0.94641007037E+02  0.21981658274E+03  0.16500000000E+03 0.  0.
   -5000001    1    1    2    0    0 -0.20163721250E+02 -0.10830897553E+03  0.20076336592E+03  0.28225580406E+03  0.16500000000E+03 0.  0.
<mgrwt>
<rscale>  0 0.40597160E+03</rscale>
<asrwt>0</asrwt>
<pdfrwt beam="1">  1        2 0.61344367E-01 0.40597160E+03</pdfrwt>
<pdfrwt beam="2">  1       -2 0.15897539E-01 0.40597160E+03</pdfrwt>
<totfact> 0.25041025E+03</totfact>
</mgrwt>
</event>
<event>
 4    1  0.8984293E-005  0.4901177E+03  0.7818608E-02  0.1016391E+00
         -2   -1    0    0    0  501 -0.00000000000E+00  0.00000000000E+00  0.16300781615E+03  0.16300781617E+03  0.25500000000E-02 0. -1.
          2   -1    0    0  501    0  0.00000000000E+00 -0.00000000000E+00 -0.36841073766E+03  0.36841073767E+03  0.25500000000E-02 0.  1.
    5000001    1    1    2    0    0  0.97135760472E+02 -0.11143153823E+03  0.10895844580E+02  0.22180185550E+03  0.16500000000E+03 0.  0.
   -5000001    1    1    2    0    0 -0.97135760472E+02  0.11143153823E+03 -0.21629876609E+03  0.30961669833E+03  0.16500000000E+03 0.  0.
<mgrwt>
<rscale>  0 0.49011766E+03</rscale>
<asrwt>0</asrwt>
<pdfrwt beam="1">  1        2 0.56678575E-01 0.49011766E+03</pdfrwt>
<pdfrwt beam="2">  1       -2 0.25078126E-01 0.49011766E+03</pdfrwt>
<totfact> 0.12426001E+03</totfact>
</mgrwt>
</event>
<event>
 4    1  0.8984293E-005  0.1100122E+04  0.7818608E-02  0.9205073E-01
         -2   -1    0    0    0  501 -0.00000000000E+00  0.00000000000E+00  0.52618729637E+03  0.52618729638E+03  0.25500000000E-02 0. -1.
          2   -1    0    0  501    0  0.00000000000E+00 -0.00000000000E+00 -0.57501778089E+03  0.57501778090E+03  0.25500000000E-02 0.  1.
    5000001    1    1    2    0    0  0.44551918516E+03  0.27105663367E+03  0.33805660791E+02  0.54802086247E+03  0.16500000000E+03 0.  0.
   -5000001    1    1    2    0    0 -0.44551918516E+03 -0.27105663367E+03 -0.82636145310E+02  0.55318421481E+03  0.16500000000E+03 0.  0.
<mgrwt>
<rscale>  0 0.11001219E+04</rscale>
<asrwt>0</asrwt>
<pdfrwt beam="1">  1        2 0.88464274E-01 0.11001219E+04</pdfrwt>
<pdfrwt beam="2">  1       -2 0.80951892E-01 0.11001219E+04</pdfrwt>
<totfact> 0.69806684E+01</totfact>
</mgrwt>
</event>
<event>
 4    1  0.8984293E-005  0.3742498E+03  0.7818608E-02  0.1053080E+00
         -2   -1    0    0    0  501 -0.00000000000E+00  0.00000000000E+00  0.32969673197E+03  0.32969673198E+03  0.25500000000E-02 0. -1.
          2   -1    0    0  501    0  0.00000000000E+00 -0.00000000000E+00 -0.10620587058E+03  0.10620587061E+03  0.25500000000E-02 0.  1.
    5000001    1    1    2    0    0  0.85253106769E+02  0.63910589792E+01  0.86179768456E+02  0.20484357530E+03  0.16500000000E+03 0.  0.
   -5000001    1    1    2    0    0 -0.85253106769E+02 -0.63910589792E+01  0.13731109294E+03  0.23105902729E+03  0.16500000000E+03 0.  0.
<mgrwt>
<rscale>  0 0.37424980E+03</rscale>
<asrwt>0</asrwt>
<pdfrwt beam="1">  1        2 0.16339365E-01 0.37424980E+03</pdfrwt>
<pdfrwt beam="2">  1       -2 0.50722573E-01 0.37424980E+03</pdfrwt>
<totfact> 0.13217153E+03</totfact>
</mgrwt>
</event>
<event>
 4    1  0.8984293E-005  0.7652091E+03  0.7818608E-02  0.9611787E-01
         -2   -1    0    0    0  501 -0.00000000000E+00  0.00000000000E+00  0.76468594942E+02  0.76468594984E+02  0.25500000000E-02 0. -1.
          2   -1    0    0  501    0  0.00000000000E+00 -0.00000000000E+00 -0.19143312844E+04  0.19143312844E+04  0.25500000000E-02 0.  1.
    5000001    1    1    2    0    0 -0.10345731062E+03 -0.25845844711E+03 -0.38793478408E+03  0.50519558658E+03  0.16500000000E+03 0.  0.
   -5000001    1    1    2    0    0  0.10345731062E+03  0.25845844711E+03 -0.14499279053E+04  0.14856042928E+04  0.16500000000E+03 0.  0.
<mgrwt>
<rscale>  0 0.76520905E+03</rscale>
<asrwt>0</asrwt>
<pdfrwt beam="1">  1        2 0.29451247E+00 0.76520905E+03</pdfrwt>
<pdfrwt beam="2">  1       -2 0.11764401E-01 0.76520905E+03</pdfrwt>
<totfact> 0.40005034E+02</totfact>
</mgrwt>
</event>
<event>
 4    1  0.8984293E-005  0.4141088E+03  0.7818608E-02  0.1039001E+00
          2   -1    0    0  501    0  0.00000000000E+00  0.00000000000E+00  0.89464217804E+03  0.89464217805E+03  0.25500000000E-02 0.  1.
         -2   -1    0    0    0  501 -0.00000000000E+00 -0.00000000000E+00 -0.47920311724E+02  0.47920311792E+02  0.25500000000E-02 0. -1.
    5000001    1    1    2    0    0 -0.82740757550E+02  0.92891237032E+02  0.39353441443E+03  0.44448751413E+03  0.16500000000E+03 0.  0.
   -5000001    1    1    2    0    0  0.82740757550E+02 -0.92891237032E+02  0.45318745188E+03  0.49807497570E+03  0.16500000000E+03 0.  0.
<mgrwt>
<rscale>  0 0.41410884E+03</rscale>
<asrwt>0</asrwt>
<pdfrwt beam="1">  1        2 0.13763726E+00 0.41410884E+03</pdfrwt>
<pdfrwt beam="2">  1       -2 0.73723558E-02 0.41410884E+03</pdfrwt>
<totfact> 0.33063877E+03</totfact>
</mgrwt>
</event>
<event>
 4    1  0.8984293E-005  0.4606414E+03  0.7818608E-02  0.1024595E+00
         -2   -1    0    0    0  501 -0.00000000000E+00  0.00000000000E+00  0.42762925604E+02  0.42762925681E+02  0.25500000000E-02 0. -1.
          2   -1    0    0  501    0  0.00000000000E+00 -0.00000000000E+00 -0.12405050496E+04  0.12405050496E+04  0.25500000000E-02 0.  1.
    5000001    1    1    2    0    0 -0.66095169085E+02  0.12982539853E+02 -0.10053110145E+04  0.10209859713E+04  0.16500000000E+03 0.  0.
   -5000001    1    1    2    0    0  0.66095169085E+02 -0.12982539853E+02 -0.19243110954E+03  0.26228200403E+03  0.16500000000E+03 0.  0.
<mgrwt>
<rscale>  0 0.46064140E+03</rscale>
<asrwt>0</asrwt>
<pdfrwt beam="1">  1        2 0.19084690E+00 0.46064140E+03</pdfrwt>
<pdfrwt beam="2">  1       -2 0.65789126E-02 0.46064140E+03</pdfrwt>
<totfact> 0.24312333E+03</totfact>
</mgrwt>
</event>
<event>
 4    1  0.8984293E-005  0.5304597E+03  0.7818608E-02  0.1006121E+00
         -2   -1    0    0    0  501 -0.00000000000E+00  0.00000000000E+00  0.78790343773E+02  0.78790343815E+02  0.25500000000E-02 0. -1.
          2   -1    0    0  501    0  0.00000000000E+00 -0.00000000000E+00 -0.89283633596E+03  0.89283633597E+03  0.25500000000E-02 0.  1.
    5000001    1    1    2    0    0 -0.12617487884E+03  0.13943914322E+03 -0.56836078186E+03  0.62098498619E+03  0.16500000000E+03 0.  0.
   -5000001    1    1    2    0    0  0.12617487884E+03 -0.13943914322E+03 -0.24568521032E+03  0.35064169359E+03  0.16500000000E+03 0.  0.
<mgrwt>
<rscale>  0 0.53045973E+03</rscale>
<asrwt>0</asrwt>
<pdfrwt beam="1">  1        2 0.13735943E+00 0.53045973E+03</pdfrwt>
<pdfrwt beam="2">  1       -2 0.12121592E-01 0.53045973E+03</pdfrwt>
<totfact> 0.14918559E+03</totfact>
</mgrwt>
</event>
<event>
 4    1  0.8984293E-005  0.5863813E+03  0.7818608E-02  0.9934070E-01
         -2   -1    0    0    0  501 -0.00000000000E+00  0.00000000000E+00  0.34859467141E+03  0.34859467142E+03  0.25500000000E-02 0. -1.
          2   -1    0    0  501    0  0.00000000000E+00 -0.00000000000E+00 -0.24659226334E+03  0.24659226336E+03  0.25500000000E-02 0.  1.
    5000001    1    1    2    0    0  0.13263533001E+03 -0.12618759888E+03 -0.11019265489E+03  0.26996826123E+03  0.16500000000E+03 0.  0.
   -5000001    1    1    2    0    0 -0.13263533001E+03  0.12618759888E+03  0.21219506296E+03  0.32521867355E+03  0.16500000000E+03 0.  0.
<mgrwt>
<rscale>  0 0.58638127E+03</rscale>
<asrwt>0</asrwt>
<pdfrwt beam="1">  1        2 0.37937271E-01 0.58638127E+03</pdfrwt>
<pdfrwt beam="2">  1       -2 0.53629949E-01 0.58638127E+03</pdfrwt>
<totfact> 0.45172874E+02</totfact>
</mgrwt>
</event>
<event>
 4    1  0.8984293E-005  0.5982211E+03  0.7818608E-02  0.9909104E-01
          2   -1    0    0  501    0  0.00000000000E+00  0.00000000000E+00  0.52998864051E+03  0.52998864052E+03  0.25500000000E-02 0. -1.
         -2   -1    0    0    0  501 -0.00000000000E+00 -0.00000000000E+00 -0.16880950898E+03  0.16880950900E+03  0.25500000000E-02 0.  1.
    5000001    1    1    2    0    0  0.20416389707E+03  0.13956266574E+03  0.14217456931E+03  0.32954399205E+03  0.16500000000E+03 0.  0.
   -5000001    1    1    2    0    0 -0.20416389707E+03 -0.13956266574E+03  0.21900456222E+03  0.36925415747E+03  0.16500000000E+03 0.  0.
<mgrwt>
<rscale>  0 0.59822110E+03</rscale>
<asrwt>0</asrwt>
<pdfrwt beam="1">  1        2 0.81536714E-01 0.59822110E+03</pdfrwt>
<pdfrwt beam="2">  1       -2 0.25970694E-01 0.59822110E+03</pdfrwt>
<totfact> 0.77307251E+02</totfact>
</mgrwt>
</event>
<event>
 4    1  0.8984293E-005  0.6660589E+03  0.7818608E-02  0.9777104E-01
         -2   -1    0    0    0  501 -0.00000000000E+00  0.00000000000E+00  0.12433315574E+03  0.12433315577E+03  0.25500000000E-02 0. -1.
          2   -1    0    0  501    0  0.00000000000E+00 -0.00000000000E+00 -0.89202769828E+03  0.89202769829E+03  0.25500000000E-02 0.  1.
    5000001    1    1    2    0    0  0.18104884518E+03  0.22122618282E+03 -0.45147053479E+03  0.55925875236E+03  0.16500000000E+03 0.  0.
   -5000001    1    1    2    0    0 -0.18104884518E+03 -0.22122618282E+03 -0.31622400775E+03  0.45710210170E+03  0.16500000000E+03 0.  0.
<mgrwt>
<rscale>  0 0.66605891E+03</rscale>
<asrwt>0</asrwt>
<pdfrwt beam="1">  1        2 0.13723503E+00 0.66605891E+03</pdfrwt>
<pdfrwt beam="2">  1       -2 0.19128178E-01 0.66605891E+03</pdfrwt>
<totfact> 0.68942008E+02</totfact>
</mgrwt>
</event>
<event>
 4    1  0.8984293E-005  0.4052686E+03  0.7818608E-02  0.1041970E+00
          2   -1    0    0  501    0  0.00000000000E+00  0.00000000000E+00  0.55919304240E+03  0.55919304241E+03  0.25500000000E-02 0.  1.
         -2   -1    0    0    0  501 -0.00000000000E+00 -0.00000000000E+00 -0.73428418069E+02  0.73428418113E+02  0.25500000000E-02 0. -1.
    5000001    1    1    2    0    0 -0.36312403106E+02 -0.11187577280E+03  0.24434778110E+03  0.31743600502E+03  0.16500000000E+03 0.  0.
   -5000001    1    1    2    0    0  0.36312403106E+02  0.11187577280E+03  0.24141684323E+03  0.31518545550E+03  0.16500000000E+03 0.  0.
<mgrwt>
<rscale>  0 0.40526860E+03</rscale>
<asrwt>0</asrwt>
<pdfrwt beam="1">  1        2 0.86029702E-01 0.40526860E+03</pdfrwt>
<pdfrwt beam="2">  1       -2 0.11296679E-01 0.40526860E+03</pdfrwt>
<totfact> 0.30044366E+03</totfact>
</mgrwt>
</event>
<event>
 4    1  0.8984293E-005  0.3869392E+03  0.7818608E-02  0.1048398E+00
          2   -1    0    0  501    0  0.00000000000E+00  0.00000000000E+00  0.14979042803E+03  0.14979042805E+03  0.25500000000E-02 0.  1.
         -2   -1    0    0    0  501 -0.00000000000E+00 -0.00000000000E+00 -0.24988572028E+03  0.24988572029E+03  0.25500000000E-02 0. -1.
    5000001    1    1    2    0    0  0.41834780064E+02 -0.43721311860E+02 -0.13360411244E+03  0.22076403873E+03  0.16500000000E+03 0.  0.
   -5000001    1    1    2    0    0 -0.41834780064E+02  0.43721311860E+02  0.33508820194E+02  0.17891210961E+03  0.16500000000E+03 0.  0.
<mgrwt>
<rscale>  0 0.38693921E+03</rscale>
<asrwt>0</asrwt>
<pdfrwt beam="1">  1        2 0.23044681E-01 0.38693921E+03</pdfrwt>
<pdfrwt beam="2">  1       -2 0.38443957E-01 0.38693921E+03</pdfrwt>
<totfact> 0.15272612E+03</totfact>
</mgrwt>
</event>
<event>
 4    1  0.8984293E-005  0.4403905E+03  0.7818608E-02  0.1030627E+00
         -2   -1    0    0    0  501 -0.00000000000E+00  0.00000000000E+00  0.15701797611E+02  0.15701797818E+02  0.25500000000E-02 0. -1.
          2   -1    0    0  501    0  0.00000000000E+00 -0.00000000000E+00 -0.30879233322E+04  0.30879233322E+04  0.25500000000E-02 0.  1.
    5000001    1    1    2    0    0 -0.25824936711E+00 -0.13170269992E+03 -0.19770844939E+04  0.19883243608E+04  0.16500000000E+03 0.  0.
   -5000001    1    1    2    0    0  0.25824936711E+00  0.13170269992E+03 -0.10951370407E+04  0.11153007692E+04  0.16500000000E+03 0.  0.
<mgrwt>
<rscale>  0 0.44039050E+03</rscale>
<asrwt>0</asrwt>
<pdfrwt beam="1">  1        2 0.47506465E+00 0.44039050E+03</pdfrwt>
<pdfrwt beam="2">  1       -2 0.24156636E-02 0.44039050E+03</pdfrwt>
<totfact> 0.10525893E+03</totfact>
</mgrwt>
</event>
<event>
 4    1  0.8984293E-005  0.5491124E+03  0.7818608E-02  0.1001700E+00
          2   -1    0    0  501    0  0.00000000000E+00  0.00000000000E+00  0.19544282171E+04  0.19544282171E+04  0.25500000000E-02 0.  1.
         -2   -1    0    0    0  501 -0.00000000000E+00 -0.00000000000E+00 -0.38569390482E+02  0.38569390566E+02  0.25500000000E-02 0. -1.
    5000001    1    1    2    0    0 -0.13969977133E+03 -0.16920238431E+03  0.94609472023E+03  0.98512217142E+03  0.16500000000E+03 0.  0.
   -5000001    1    1    2    0    0  0.13969977133E+03  0.16920238431E+03  0.96976410638E+03  0.10078754362E+04  0.16500000000E+03 0.  0.
<mgrwt>
<rscale>  0 0.54911239E+03</rscale>
<asrwt>0</asrwt>
<pdfrwt beam="1">  1        2 0.30068128E+00 0.54911239E+03</pdfrwt>
<pdfrwt beam="2">  1       -2 0.59337520E-02 0.54911239E+03</pdfrwt>
<totfact> 0.11568950E+03</totfact>
</mgrwt>
</event>
<event>
 4    1  0.8984293E-005  0.5675007E+03  0.7818608E-02  0.9975224E-01
         -2   -1    0    0    0  501 -0.00000000000E+00  0.00000000000E+00  0.59570246195E+03  0.59570246196E+03  0.25500000000E-02 0. -1.
          2   -1    0    0  501    0  0.00000000000E+00 -0.00000000000E+00 -0.13515853269E+03  0.13515853271E+03  0.25500000000E-02 0.  1.
    5000001    1    1    2    0    0  0.11155833780E+02 -0.21265166554E+03  0.34505834431E+03  0.43776185817E+03  0.16500000000E+03 0.  0.
   -5000001    1    1    2    0    0 -0.11155833780E+02  0.21265166554E+03  0.11548558495E+03  0.29309913650E+03  0.16500000000E+03 0.  0.
<mgrwt>
<rscale>  0 0.56750073E+03</rscale>
<asrwt>0</asrwt>
<pdfrwt beam="1">  1        2 0.20793621E-01 0.56750073E+03</pdfrwt>
<pdfrwt beam="2">  1       -2 0.91646531E-01 0.56750073E+03</pdfrwt>
<totfact> 0.27829478E+02</totfact>
</mgrwt>
</event>
<event>
 4    1  0.8984293E-005  0.4882707E+03  0.7818608E-02  0.1016887E+00
         -2   -1    0    0    0  501 -0.00000000000E+00  0.00000000000E+00  0.37321716933E+02  0.37321717020E+02  0.25500000000E-02 0. -1.
          2   -1    0    0  501    0  0.00000000000E+00 -0.00000000000E+00 -0.15969808103E+04  0.15969808103E+04  0.25500000000E-02 0.  1.
    5000001    1    1    2    0    0 -0.64939248741E+02  0.16463445994E+03 -0.67108899380E+03  0.71337721369E+03  0.16500000000E+03 0.  0.
   -5000001    1    1    2    0    0  0.64939248741E+02 -0.16463445994E+03 -0.88857009955E+03  0.92092531361E+03  0.16500000000E+03 0.  0.
<mgrwt>
<rscale>  0 0.48827069E+03</rscale>
<asrwt>0</asrwt>
<pdfrwt beam="1">  1        2 0.24568930E+00 0.48827069E+03</pdfrwt>
<pdfrwt beam="2">  1       -2 0.57418038E-02 0.48827069E+03</pdfrwt>
<totfact> 0.19040865E+03</totfact>
</mgrwt>
</event>
<event>
 4    1  0.8984293E-005  0.7826012E+03  0.7818608E-02  0.9585548E-01
          2   -1    0    0  501    0  0.00000000000E+00  0.00000000000E+00  0.59114966533E+03  0.59114966533E+03  0.25500000000E-02 0.  1.
         -2   -1    0    0    0  501 -0.00000000000E+00 -0.00000000000E+00 -0.25901421677E+03  0.25901421678E+03  0.25500000000E-02 0. -1.
    5000001    1    1    2    0    0  0.18396559929E+03  0.30038947527E+03  0.11979985994E+03  0.40700636975E+03  0.16500000000E+03 0.  0.
   -5000001    1    1    2    0    0 -0.18396559929E+03 -0.30038947527E+03  0.21233558861E+03  0.44315751237E+03  0.16500000000E+03 0.  0.
<mgrwt>
<rscale>  0 0.78260122E+03</rscale>
<asrwt>0</asrwt>
<pdfrwt beam="1">  1        2 0.90946101E-01 0.78260122E+03</pdfrwt>
<pdfrwt beam="2">  1       -2 0.39848342E-01 0.78260122E+03</pdfrwt>
<totfact> 0.30280128E+02</totfact>
</mgrwt>
</event>
<event>
 4    1  0.8984293E-005  0.5222475E+03  0.7818608E-02  0.1008130E+00
          2   -1    0    0  501    0  0.00000000000E+00  0.00000000000E+00  0.62668225286E+02  0.62668225338E+02  0.25500000000E-02 0.  1.
         -2   -1    0    0    0  501 -0.00000000000E+00 -0.00000000000E+00 -0.10880413177E+04  0.10880413177E+04  0.25500000000E-02 0. -1.
    5000001    1    1    2    0    0 -0.30884676804E+02  0.18955942951E+03 -0.65332324388E+03  0.70067317743E+03  0.16500000000E+03 0.  0.
   -5000001    1    1    2    0    0  0.30884676804E+02 -0.18955942951E+03 -0.37204984856E+03  0.45003636563E+03  0.16500000000E+03 0.  0.
<mgrwt>
<rscale>  0 0.52224752E+03</rscale>
<asrwt>0</asrwt>
<pdfrwt beam="1">  1        2 0.96412662E-02 0.52224752E+03</pdfrwt>
<pdfrwt beam="2">  1       -2 0.16739096E+00 0.52224752E+03</pdfrwt>
<totfact> 0.15817311E+02</totfact>
</mgrwt>
</event>
<event>
 4    1  0.8984293E-005  0.6332922E+03  0.7818608E-02  0.9838645E-01
          2   -1    0    0  501    0  0.00000000000E+00  0.00000000000E+00  0.11260200994E+04  0.11260200994E+04  0.25500000000E-02 0.  1.
         -2   -1    0    0    0  501 -0.00000000000E+00 -0.00000000000E+00 -0.89043471600E+02  0.89043471637E+02  0.25500000000E-02 0. -1.
    5000001    1    1    2    0    0 -0.10048783027E+03 -0.22064739541E+03  0.74757709030E+03  0.80304394841E+03  0.16500000000E+03 0.  0.
   -5000001    1    1    2    0    0  0.10048783027E+03  0.22064739541E+03  0.28939953753E+03  0.41201962266E+03  0.16500000000E+03 0.  0.
<mgrwt>
<rscale>  0 0.63329216E+03</rscale>
<asrwt>0</asrwt>
<pdfrwt beam="1">  1        2 0.17323387E+00 0.63329216E+03</pdfrwt>
<pdfrwt beam="2">  1       -2 0.13698995E-01 0.63329216E+03</pdfrwt>
<totfact> 0.86562584E+02</totfact>
</mgrwt>
</event>
<event>
 4    1  0.8984293E-005  0.3690384E+03  0.7818608E-02  0.1055061E+00
         -2   -1    0    0    0  501 -0.00000000000E+00  0.00000000000E+00  0.44988563704E+03  0.44988563705E+03  0.25500000000E-02 0. -1.
          2   -1    0    0  501    0  0.00000000000E+00 -0.00000000000E+00 -0.75679986619E+02  0.75679986662E+02  0.25500000000E-02 0.  1.
    5000001    1    1    2    0    0  0.28770595068E+02  0.73366017547E+02  0.15187077319E+03  0.23769739464E+03  0.16500000000E+03 0.  0.
   -5000001    1    1    2    0    0 -0.28770595068E+02 -0.73366017547E+02  0.22233487723E+03  0.28786822907E+03  0.16500000000E+03 0.  0.
<mgrwt>
<rscale>  0 0.36903842E+03</rscale>
<asrwt>0</asrwt>
<pdfrwt beam="1">  1        2 0.11643075E-01 0.36903842E+03</pdfrwt>
<pdfrwt beam="2">  1       -2 0.69213177E-01 0.36903842E+03</pdfrwt>
<totfact> 0.10428177E+03</totfact>
</mgrwt>
</event>
<event>
 4    1  0.8984293E-005  0.9186318E+03  0.7818608E-02  0.9402586E-01
          2   -1    0    0  501    0  0.00000000000E+00  0.00000000000E+00  0.10544169258E+04  0.10544169258E+04  0.25500000000E-02 0.  1.
         -2   -1    0    0    0  501 -0.00000000000E+00 -0.00000000000E+00 -0.20008316490E+03  0.20008316491E+03  0.25500000000E-02 0. -1.
    5000001    1    1    2    0    0  0.16669195766E+03  0.39260369371E+03  0.48546144327E+03  0.66694953479E+03  0.16500000000E+03 0.  0.
   -5000001    1    1    2    0    0 -0.16669195766E+03 -0.39260369371E+03  0.36887231766E+03  0.58755055595E+03  0.16500000000E+03 0.  0.
<mgrwt>
<rscale>  0 0.91863176E+03</rscale>
<asrwt>0</asrwt>
<pdfrwt beam="1">  1        2 0.16221799E+00 0.91863176E+03</pdfrwt>
<pdfrwt beam="2">  1       -2 0.30782025E-01 0.91863176E+03</pdfrwt>
<totfact> 0.22739340E+02</totfact>
</mgrwt>
</event>
<event>
 4    1  0.8984293E-005  0.3906503E+03  0.7818608E-02  0.1047066E+00
         -2   -1    0    0    0  501 -0.00000000000E+00  0.00000000000E+00  0.13505087628E+03  0.13505087630E+03  0.25500000000E-02 0. -1.
          2   -1    0    0  501    0  0.00000000000E+00 -0.00000000000E+00 -0.28250034169E+03  0.28250034170E+03  0.25500000000E-02 0.  1.
    5000001    1    1    2    0    0 -0.83336456725E+02  0.84448601728E+01 -0.68833575481E+01  0.18517197762E+03  0.16500000000E+03 0.  0.
   -5000001    1    1    2    0    0  0.83336456725E+02 -0.84448601728E+01 -0.14056610787E+03  0.23237924039E+03  0.16500000000E+03 0.  0.
<mgrwt>
<rscale>  0 0.39065032E+03</rscale>
<asrwt>0</asrwt>
<pdfrwt beam="1">  1        2 0.43461591E-01 0.39065032E+03</pdfrwt>
<pdfrwt beam="2">  1       -2 0.20777058E-01 0.39065032E+03</pdfrwt>
<totfact> 0.23110863E+03</totfact>
</mgrwt>
</event>
<event>
 4    1  0.8984293E-005  0.4356249E+03  0.7818608E-02  0.1032098E+00
         -2   -1    0    0    0  501 -0.00000000000E+00  0.00000000000E+00  0.35704073966E+02  0.35704074057E+02  0.25500000000E-02 0. -1.
          2   -1    0    0  501    0  0.00000000000E+00 -0.00000000000E+00 -0.13287630341E+04  0.13287630341E+04  0.25500000000E-02 0.  1.
    5000001    1    1    2    0    0  0.10054916707E+03  0.97326671712E+02 -0.72543608350E+03  0.75701065202E+03  0.16500000000E+03 0.  0.
   -5000001    1    1    2    0    0 -0.10054916707E+03 -0.97326671712E+02 -0.56762287660E+03  0.60745645610E+03  0.16500000000E+03 0.  0.
<mgrwt>
<rscale>  0 0.43562486E+03</rscale>
<asrwt>0</asrwt>
<pdfrwt beam="1">  1        2 0.20442504E+00 0.43562486E+03</pdfrwt>
<pdfrwt beam="2">  1       -2 0.54929355E-02 0.43562486E+03</pdfrwt>
<totfact> 0.28690548E+03</totfact>
</mgrwt>
</event>
<event>
 4    1  0.8984293E-005  0.7664145E+03  0.7818608E-02  0.9609945E-01
          2   -1    0    0  501    0  0.00000000000E+00  0.00000000000E+00  0.22144120373E+04  0.22144120373E+04  0.25500000000E-02 0.  1.
         -2   -1    0    0    0  501 -0.00000000000E+00 -0.00000000000E+00 -0.66314568064E+02  0.66314568113E+02  0.25500000000E-02 0. -1.
    5000001    1    1    2    0    0  0.17698406377E+03 -0.18447014549E+03  0.38079823326E+03  0.48742680257E+03  0.16500000000E+03 0.  0.
   -5000001    1    1    2    0    0 -0.17698406377E+03  0.18447014549E+03  0.17672992360E+04  0.17932998029E+04  0.16500000000E+03 0.  0.
<mgrwt>
<rscale>  0 0.76641445E+03</rscale>
<asrwt>0</asrwt>
<pdfrwt beam="1">  1        2 0.34067869E+00 0.76641445E+03</pdfrwt>
<pdfrwt beam="2">  1       -2 0.10202244E-01 0.76641445E+03</pdfrwt>
<totfact> 0.34613341E+02</totfact>
</mgrwt>
</event>
<event>
 4    1  0.8984293E-005  0.5555310E+03  0.7818608E-02  0.1000222E+00
         -2   -1    0    0    0  501 -0.00000000000E+00  0.00000000000E+00  0.78057825706E+02  0.78057825748E+02  0.25500000000E-02 0. -1.
          2   -1    0    0  501    0  0.00000000000E+00 -0.00000000000E+00 -0.98841701674E+03  0.98841701674E+03  0.25500000000E-02 0.  1.
    5000001    1    1    2    0    0  0.44956996850E+02 -0.20054907786E+03 -0.28685862962E+03  0.38955607759E+03  0.16500000000E+03 0.  0.
   -5000001    1    1    2    0    0 -0.44956996850E+02  0.20054907786E+03 -0.62350056142E+03  0.67691876491E+03  0.16500000000E+03 0.  0.
<mgrwt>
<rscale>  0 0.55553104E+03</rscale>
<asrwt>0</asrwt>
<pdfrwt beam="1">  1        2 0.15206415E+00 0.55553104E+03</pdfrwt>
<pdfrwt beam="2">  1       -2 0.12008897E-01 0.55553104E+03</pdfrwt>
<totfact> 0.13123612E+03</totfact>
</mgrwt>
</event>
<event>
 4    1  0.8984293E-005  0.9919529E+03  0.7818608E-02  0.9317415E-01
          2   -1    0    0  501    0  0.00000000000E+00  0.00000000000E+00  0.13817757285E+04  0.13817757285E+04  0.25500000000E-02 0.  1.
         -2   -1    0    0    0  501 -0.00000000000E+00 -0.00000000000E+00 -0.17802646427E+03  0.17802646429E+03  0.25500000000E-02 0. -1.
    5000001    1    1    2    0    0  0.29840966785E+03  0.35156976753E+03  0.72486858918E+03  0.87481946874E+03  0.16500000000E+03 0.  0.
   -5000001    1    1    2    0    0 -0.29840966785E+03 -0.35156976753E+03  0.47888067502E+03  0.68498272403E+03  0.16500000000E+03 0.  0.
<mgrwt>
<rscale>  0 0.99195292E+03</rscale>
<asrwt>0</asrwt>
<pdfrwt beam="1">  1        2 0.21258087E+00 0.99195292E+03</pdfrwt>
<pdfrwt beam="2">  1       -2 0.27388688E-01 0.99195292E+03</pdfrwt>
<totfact> 0.17953433E+02</totfact>
</mgrwt>
</event>
<event>
 4    1  0.8984293E-005  0.7030555E+03  0.7818608E-02  0.9712021E-01
          2   -1    0    0  501    0  0.00000000000E+00  0.00000000000E+00  0.17663657265E+04  0.17663657265E+04  0.25500000000E-02 0.  1.
         -2   -1    0    0    0  501 -0.00000000000E+00 -0.00000000000E+00 -0.69958200141E+02  0.69958200187E+02  0.25500000000E-02 0. -1.
    5000001    1    1    2    0    0 -0.26310579627E+03  0.11966305309E+03  0.55266586538E+03  0.64514220530E+03  0.16500000000E+03 0.  0.
   -5000001    1    1    2    0    0  0.26310579627E+03 -0.11966305309E+03  0.11437416610E+04  0.11911817214E+04  0.16500000000E+03 0.  0.
<mgrwt>
<rscale>  0 0.70305552E+03</rscale>
<asrwt>0</asrwt>
<pdfrwt beam="1">  1        2 0.27174856E+00 0.70305552E+03</pdfrwt>
<pdfrwt beam="2">  1       -2 0.10762800E-01 0.70305552E+03</pdfrwt>
<totfact> 0.55980245E+02</totfact>
</mgrwt>
</event>
<event>
 4    1  0.8984293E-005  0.7071673E+03  0.7818608E-02  0.9705053E-01
          2   -1    0    0  501    0  0.00000000000E+00  0.00000000000E+00  0.10841724442E+04  0.10841724442E+04  0.25500000000E-02 0.  1.
         -2   -1    0    0    0  501 -0.00000000000E+00 -0.00000000000E+00 -0.11531504159E+03  0.11531504162E+03  0.25500000000E-02 0. -1.
    5000001    1    1    2    0    0  0.14104627379E+03  0.18072131734E+03  0.12364645763E+03  0.30833049213E+03  0.16500000000E+03 0.  0.
   -5000001    1    1    2    0    0 -0.14104627379E+03 -0.18072131734E+03  0.84521094499E+03  0.89115699370E+03  0.16500000000E+03 0.  0.
<mgrwt>
<rscale>  0 0.70716728E+03</rscale>
<asrwt>0</asrwt>
<pdfrwt beam="1">  1        2 0.16679577E+00 0.70716728E+03</pdfrwt>
<pdfrwt beam="2">  1       -2 0.17740775E-01 0.70716728E+03</pdfrwt>
<totfact> 0.59046425E+02</totfact>
</mgrwt>
</event>
<event>
 4    1  0.8984293E-005  0.8103385E+03  0.7818608E-02  0.9545172E-01
         -2   -1    0    0    0  501 -0.00000000000E+00  0.00000000000E+00  0.21040313611E+03  0.21040313613E+03  0.25500000000E-02 0. -1.
          2   -1    0    0  501    0  0.00000000000E+00 -0.00000000000E+00 -0.78022656779E+03  0.78022656779E+03  0.25500000000E-02 0.  1.
    5000001    1    1    2    0    0 -0.23346435058E+03 -0.12440778772E+03  0.31413522287E+02  0.31336035170E+03  0.16500000000E+03 0.  0.
   -5000001    1    1    2    0    0  0.23346435058E+03  0.12440778772E+03 -0.60123695397E+03  0.67726935222E+03  0.16500000000E+03 0.  0.
<mgrwt>
<rscale>  0 0.81033849E+03</rscale>
<asrwt>0</asrwt>
<pdfrwt beam="1">  1        2 0.12003485E+00 0.81033849E+03</pdfrwt>
<pdfrwt beam="2">  1       -2 0.32369714E-01 0.81033849E+03</pdfrwt>
<totfact> 0.31791821E+02</totfact>
</mgrwt>
</event>
<event>
 4    1  0.8984293E-005  0.5004701E+03  0.7818608E-02  0.1013656E+00
          2   -1    0    0  501    0  0.00000000000E+00  0.00000000000E+00  0.24324467428E+04  0.24324467428E+04  0.25500000000E-02 0.  1.
         -2   -1    0    0    0  501 -0.00000000000E+00 -0.00000000000E+00 -0.25742628341E+02  0.25742628467E+02  0.25500000000E-02 0. -1.
    5000001    1    1    2    0    0 -0.18379302617E+02 -0.18095144236E+03  0.96721180464E+03  0.99790024466E+03  0.16500000000E+03 0.  0.
   -5000001    1    1    2    0    0  0.18379302617E+02  0.18095144236E+03  0.14394923098E+04  0.14602891266E+04  0.16500000000E+03 0.  0.
<mgrwt>
<rscale>  0 0.50047007E+03</rscale>
<asrwt>0</asrwt>
<pdfrwt beam="1">  1        2 0.37422273E+00 0.50047007E+03</pdfrwt>
<pdfrwt beam="2">  1       -2 0.39604028E-02 0.50047007E+03</pdfrwt>
<totfact> 0.11893773E+03</totfact>
</mgrwt>
</event>
<event>
 4    1  0.8984293E-005  0.4716554E+03  0.7818608E-02  0.1021454E+00
          2   -1    0    0  501    0  0.00000000000E+00  0.00000000000E+00  0.50367769328E+03  0.50367769328E+03  0.25500000000E-02 0.  1.
         -2   -1    0    0    0  501 -0.00000000000E+00 -0.00000000000E+00 -0.11041726825E+03  0.11041726828E+03  0.25500000000E-02 0. -1.
    5000001    1    1    2    0    0 -0.81926981377E+02  0.86704016557E+02  0.35156317081E+03  0.40626503644E+03  0.16500000000E+03 0.  0.
   -5000001    1    1    2    0    0  0.81926981377E+02 -0.86704016557E+02  0.41697254214E+02  0.20782992512E+03  0.16500000000E+03 0.  0.
<mgrwt>
<rscale>  0 0.47165545E+03</rscale>
<asrwt>0</asrwt>
<pdfrwt beam="1">  1        2 0.77488874E-01 0.47165545E+03</pdfrwt>
<pdfrwt beam="2">  1       -2 0.16987272E-01 0.47165545E+03</pdfrwt>
<totfact> 0.17247868E+03</totfact>
</mgrwt>
</event>
<event>
 4    1  0.8984293E-005  0.5318096E+03  0.7818608E-02  0.1005794E+00
         -2   -1    0    0    0  501 -0.00000000000E+00  0.00000000000E+00  0.10062386441E+03  0.10062386444E+03  0.25500000000E-02 0. -1.
          2   -1    0    0  501    0  0.00000000000E+00 -0.00000000000E+00 -0.70266988807E+03  0.70266988807E+03  0.25500000000E-02 0.  1.
    5000001    1    1    2    0    0 -0.14661877760E+03 -0.12601801494E+03 -0.18302324722E+03  0.31320937894E+03  0.16500000000E+03 0.  0.
   -5000001    1    1    2    0    0  0.14661877760E+03  0.12601801494E+03 -0.41902277645E+03  0.49008437357E+03  0.16500000000E+03 0.  0.
<mgrwt>
<rscale>  0 0.53180959E+03</rscale>
<asrwt>0</asrwt>
<pdfrwt beam="1">  1        2 0.10810306E+00 0.53180959E+03</pdfrwt>
<pdfrwt beam="2">  1       -2 0.15480595E-01 0.53180959E+03</pdfrwt>
<totfact> 0.13575707E+03</totfact>
</mgrwt>
</event>
<event>
 4    1  0.8984293E-005  0.5250088E+03  0.7818608E-02  0.1007450E+00
         -2   -1    0    0    0  501 -0.00000000000E+00  0.00000000000E+00  0.10613463397E+04  0.10613463397E+04  0.25500000000E-02 0. -1.
          2   -1    0    0  501    0  0.00000000000E+00 -0.00000000000E+00 -0.64925621889E+02  0.64925621939E+02  0.25500000000E-02 0.  1.
    5000001    1    1    2    0    0 -0.58765348350E+02 -0.11937626695E+03  0.83040821389E+03  0.85703375720E+03  0.16500000000E+03 0.  0.
   -5000001    1    1    2    0    0  0.58765348350E+02  0.11937626695E+03  0.16601250393E+03  0.26923820445E+03  0.16500000000E+03 0.  0.
<mgrwt>
<rscale>  0 0.52500884E+03</rscale>
<asrwt>0</asrwt>
<pdfrwt beam="1">  1        2 0.99885577E-02 0.52500884E+03</pdfrwt>
<pdfrwt beam="2">  1       -2 0.16328404E+00 0.52500884E+03</pdfrwt>
<totfact> 0.16177956E+02</totfact>
</mgrwt>
</event>
<event>
 4    1  0.8984293E-005  0.5282386E+03  0.7818608E-02  0.1006660E+00
         -2   -1    0    0    0  501 -0.00000000000E+00  0.00000000000E+00  0.46866494712E+03  0.46866494712E+03  0.25500000000E-02 0.  1.
          2   -1    0    0  501    0  0.00000000000E+00 -0.00000000000E+00 -0.14884624016E+03  0.14884624019E+03  0.25500000000E-02 0. -1.
    5000001    1    1    2    0    0 -0.19245480428E+03 -0.54064654539E+01  0.24633583727E+03  0.35351722204E+03  0.16500000000E+03 0.  0.
   -5000001    1    1    2    0    0  0.19245480428E+03  0.54064654539E+01  0.73482869684E+02  0.26399396526E+03  0.16500000000E+03 0.  0.
<mgrwt>
<rscale>  0 0.52823864E+03</rscale>
<asrwt>0</asrwt>
<pdfrwt beam="1">  1        2 0.22899422E-01 0.52823864E+03</pdfrwt>
<pdfrwt beam="2">  1       -2 0.72102299E-01 0.52823864E+03</pdfrwt>
<totfact> 0.42660568E+02</totfact>
</mgrwt>
</event>
<event>
 4    1  0.8984293E-005  0.7271104E+03  0.7818608E-02  0.9671961E-01
         -2   -1    0    0    0  501 -0.00000000000E+00  0.00000000000E+00  0.32762267036E+03  0.32762267037E+03  0.25500000000E-02 0. -1.
          2   -1    0    0  501    0  0.00000000000E+00 -0.00000000000E+00 -0.40342868543E+03  0.40342868544E+03  0.25500000000E-02 0.  1.
    5000001    1    1    2    0    0  0.28575285896E+03 -0.53234959691E+02  0.10590624287E+03  0.35061344757E+03  0.16500000000E+03 0.  0.
   -5000001    1    1    2    0    0 -0.28575285896E+03  0.53234959691E+02 -0.18171225794E+03  0.38043790824E+03  0.16500000000E+03 0.  0.
<mgrwt>
<rscale>  0 0.72711040E+03</rscale>
<asrwt>0</asrwt>
<pdfrwt beam="1">  1        2 0.62065952E-01 0.72711040E+03</pdfrwt>
<pdfrwt beam="2">  1       -2 0.50403488E-01 0.72711040E+03</pdfrwt>
<totfact> 0.29577152E+02</totfact>
</mgrwt>
</event>
<event>
 4    1  0.8984293E-005  0.5746516E+03  0.7818608E-02  0.9959438E-01
         -2   -1    0    0    0  501 -0.00000000000E+00  0.00000000000E+00  0.38197374275E+02  0.38197374360E+02  0.25500000000E-02 0. -1.
          2   -1    0    0  501    0  0.00000000000E+00 -0.00000000000E+00 -0.21613031112E+04  0.21613031112E+04  0.25500000000E-02 0.  1.
    5000001    1    1    2    0    0  0.15689540482E+03  0.54228041003E+02 -0.16994353643E+04  0.17154773114E+04  0.16500000000E+03 0.  0.
   -5000001    1    1    2    0    0 -0.15689540482E+03 -0.54228041003E+02 -0.42367037260E+03  0.48402317414E+03  0.16500000000E+03 0.  0.
<mgrwt>
<rscale>  0 0.57465156E+03</rscale>
<asrwt>0</asrwt>
<pdfrwt beam="1">  1        2 0.33250807E+00 0.57465156E+03</pdfrwt>
<pdfrwt beam="2">  1       -2 0.58765208E-02 0.57465156E+03</pdfrwt>
<totfact> 0.90577919E+02</totfact>
</mgrwt>
</event>
<event>
 4    1  0.8984293E-005  0.9143028E+03  0.7818608E-02  0.9407877E-01
          2   -1    0    0  501    0  0.00000000000E+00  0.00000000000E+00  0.12277352752E+04  0.12277352752E+04  0.25500000000E-02 0.  1.
         -2   -1    0    0    0  501 -0.00000000000E+00 -0.00000000000E+00 -0.17022187846E+03  0.17022187848E+03  0.25500000000E-02 0. -1.
    5000001    1    1    2    0    0 -0.26413236950E+03 -0.25810862492E+03  0.85445762177E+03  0.94536172880E+03  0.16500000000E+03 0.  0.
   -5000001    1    1    2    0    0  0.26413236950E+03  0.25810862492E+03  0.20305577497E+03  0.45259542489E+03  0.16500000000E+03 0.  0.
<mgrwt>
<rscale>  0 0.91430281E+03</rscale>
<asrwt>0</asrwt>
<pdfrwt beam="1">  1        2 0.18888234E+00 0.91430281E+03</pdfrwt>
<pdfrwt beam="2">  1       -2 0.26187982E-01 0.91430281E+03</pdfrwt>
<totfact> 0.24049938E+02</totfact>
</mgrwt>
</event>
<event>
 4    1  0.8984293E-005  0.5202379E+03  0.7818608E-02  0.1008627E+00
         -2   -1    0    0    0  501 -0.00000000000E+00  0.00000000000E+00  0.61889481997E+02  0.61889482049E+02  0.25500000000E-02 0. -1.
          2   -1    0    0  501    0  0.00000000000E+00 -0.00000000000E+00 -0.10932691000E+04  0.10932691000E+04  0.25500000000E-02 0.  1.
    5000001    1    1    2    0    0  0.13439548919E+03 -0.36699047032E+02 -0.83767619423E+03  0.86506379761E+03  0.16500000000E+03 0.  0.
   -5000001    1    1    2    0    0 -0.13439548919E+03  0.36699047032E+02 -0.19370342373E+03  0.29009478439E+03  0.16500000000E+03 0.  0.
<mgrwt>
<rscale>  0 0.52023786E+03</rscale>
<asrwt>0</asrwt>
<pdfrwt beam="1">  1        2 0.16819523E+00 0.52023786E+03</pdfrwt>
<pdfrwt beam="2">  1       -2 0.95214596E-02 0.52023786E+03</pdfrwt>
<totfact> 0.16497378E+03</totfact>
</mgrwt>
</event>
<event>
 4    1  0.8984293E-005  0.7554167E+03  0.7818608E-02  0.9626891E-01
         -2   -1    0    0    0  501 -0.00000000000E+00  0.00000000000E+00  0.27354616276E+03  0.27354616278E+03  0.25500000000E-02 0. -1.
          2   -1    0    0  501    0  0.00000000000E+00 -0.00000000000E+00 -0.52153385071E+03  0.52153385071E+03  0.25500000000E-02 0.  1.
    5000001    1    1    2    0    0  0.17455034474E+03 -0.83216251461E+02  0.17004119716E+03  0.30582965208E+03  0.16500000000E+03 0.  0.
   -5000001    1    1    2    0    0 -0.17455034474E+03  0.83216251461E+02 -0.41802888511E+03  0.48925036141E+03  0.16500000000E+03 0.  0.
<mgrwt>
<rscale>  0 0.75541666E+03</rscale>
<asrwt>0</asrwt>
<pdfrwt beam="1">  1        2 0.80235976E-01 0.75541666E+03</pdfrwt>
<pdfrwt beam="2">  1       -2 0.42084025E-01 0.75541666E+03</pdfrwt>
<totfact> 0.31598859E+02</totfact>
</mgrwt>
</event>
<event>
 4    1  0.8984293E-005  0.4468951E+03  0.7818608E-02  0.1028652E+00
          2   -1    0    0  501    0  0.00000000000E+00  0.00000000000E+00  0.13169601629E+04  0.13169601629E+04  0.25500000000E-02 0.  1.
         -2   -1    0    0    0  501 -0.00000000000E+00 -0.00000000000E+00 -0.37912165543E+02  0.37912165629E+02  0.25500000000E-02 0. -1.
    5000001    1    1    2    0    0  0.56482204104E+02 -0.13645368460E+03  0.54887711853E+03  0.59186226326E+03  0.16500000000E+03 0.  0.
   -5000001    1    1    2    0    0 -0.56482204104E+02  0.13645368460E+03  0.73017087879E+03  0.76301006524E+03  0.16500000000E+03 0.  0.
<mgrwt>
<rscale>  0 0.44689512E+03</rscale>
<asrwt>0</asrwt>
<pdfrwt beam="1">  1        2 0.20260927E+00 0.44689512E+03</pdfrwt>
<pdfrwt beam="2">  1       -2 0.58326405E-02 0.44689512E+03</pdfrwt>
<totfact> 0.26541749E+03</totfact>
</mgrwt>
</event>
<event>
 4    1  0.8984293E-005  0.5563974E+03  0.7818608E-02  0.1000024E+00
          2   -1    0    0  501    0  0.00000000000E+00  0.00000000000E+00  0.22418411572E+04  0.22418411572E+04  0.25500000000E-02 0.  1.
         -2   -1    0    0    0  501 -0.00000000000E+00 -0.00000000000E+00 -0.34522748364E+02  0.34522748458E+02  0.25500000000E-02 0. -1.
    5000001    1    1    2    0    0  0.15372729779E+03 -0.12867138188E+03  0.15123981792E+04  0.15345232677E+04  0.16500000000E+03 0.  0.
   -5000001    1    1    2    0    0 -0.15372729779E+03  0.12867138188E+03  0.69492022961E+03  0.74184063796E+03  0.16500000000E+03 0.  0.
<mgrwt>
<rscale>  0 0.55639741E+03</rscale>
<asrwt>0</asrwt>
<pdfrwt beam="1">  1        2 0.34489852E+00 0.55639741E+03</pdfrwt>
<pdfrwt beam="2">  1       -2 0.53111939E-02 0.55639741E+03</pdfrwt>
<totfact> 0.95955732E+02</totfact>
</mgrwt>
</event>
<event>
 4    1  0.8984293E-005  0.5652222E+03  0.7818608E-02  0.9980307E-01
         -2   -1    0    0    0  501 -0.00000000000E+00  0.00000000000E+00  0.61219142822E+02  0.61219142875E+02  0.25500000000E-02 0. -1.
          2   -1    0    0  501    0  0.00000000000E+00 -0.00000000000E+00 -0.13046415220E+04  0.13046415220E+04  0.25500000000E-02 0.  1.
    5000001    1    1    2    0    0  0.21796281108E+03  0.70429161676E+02 -0.65376806227E+03  0.71211356754E+03  0.16500000000E+03 0.  0.
   -5000001    1    1    2    0    0 -0.21796281108E+03 -0.70429161676E+02 -0.58965431688E+03  0.65374709731E+03  0.16500000000E+03 0.  0.
<mgrwt>
<rscale>  0 0.56522221E+03</rscale>
<asrwt>0</asrwt>
<pdfrwt beam="1">  1        2 0.20071406E+00 0.56522221E+03</pdfrwt>
<pdfrwt beam="2">  1       -2 0.94183307E-02 0.56522221E+03</pdfrwt>
<totfact> 0.12608119E+03</totfact>
</mgrwt>
</event>
<event>
 4    1  0.8984293E-005  0.3783415E+03  0.7818608E-02  0.1051548E+00
         -2   -1    0    0    0  501 -0.00000000000E+00  0.00000000000E+00  0.22820103281E+03  0.22820103282E+03  0.25500000000E-02 0. -1.
          2   -1    0    0  501    0  0.00000000000E+00 -0.00000000000E+00 -0.15681601922E+03  0.15681601924E+03  0.25500000000E-02 0.  1.
    5000001    1    1    2    0    0 -0.79301835340E+02 -0.47350397425E+02  0.41241824970E+02  0.19353741073E+03  0.16500000000E+03 0.  0.
   -5000001    1    1    2    0    0  0.79301835340E+02  0.47350397425E+02  0.30143188620E+02  0.19147964133E+03  0.16500000000E+03 0.  0.
<mgrwt>
<rscale>  0 0.37834153E+03</rscale>
<asrwt>0</asrwt>
<pdfrwt beam="1">  1        2 0.24125541E-01 0.37834153E+03</pdfrwt>
<pdfrwt beam="2">  1       -2 0.35107851E-01 0.37834153E+03</pdfrwt>
<totfact> 0.17213291E+03</totfact>
</mgrwt>
</event>
<event>
 4    1  0.8984293E-005  0.5050222E+03  0.7818608E-02  0.1012476E+00
         -2   -1    0    0    0  501 -0.00000000000E+00  0.00000000000E+00  0.58949680311E+02  0.58949680366E+02  0.25500000000E-02 0. -1.
          2   -1    0    0  501    0  0.00000000000E+00 -0.00000000000E+00 -0.10816318600E+04  0.10816318600E+04  0.25500000000E-02 0.  1.
    5000001    1    1    2    0    0  0.87990687886E+02 -0.14772992345E+03 -0.69989846079E+03  0.73935738778E+03  0.16500000000E+03 0.  0.
   -5000001    1    1    2    0    0 -0.87990687886E+02  0.14772992345E+03 -0.32278371887E+03  0.40122415257E+03  0.16500000000E+03 0.  0.
<mgrwt>
<rscale>  0 0.50502219E+03</rscale>
<asrwt>0</asrwt>
<pdfrwt beam="1">  1        2 0.16640489E+00 0.50502219E+03</pdfrwt>
<pdfrwt beam="2">  1       -2 0.90691824E-02 0.50502219E+03</pdfrwt>
<totfact> 0.18136134E+03</totfact>
</mgrwt>
</event>
<event>
 4    1  0.8984293E-005  0.5936136E+03  0.7818608E-02  0.9918745E-01
         -2   -1    0    0    0  501 -0.00000000000E+00  0.00000000000E+00  0.41387638218E+02  0.41387638296E+02  0.25500000000E-02 0. -1.
          2   -1    0    0  501    0  0.00000000000E+00 -0.00000000000E+00 -0.21285164578E+04  0.21285164578E+04  0.25500000000E-02 0.  1.
    5000001    1    1    2    0    0 -0.24224994924E+03 -0.26232242651E+02 -0.90217491856E+03  0.94895613815E+03  0.16500000000E+03 0.  0.
   -5000001    1    1    2    0    0  0.24224994924E+03  0.26232242651E+02 -0.11849539010E+04  0.12209479579E+04  0.16500000000E+03 0.  0.
<mgrwt>
<rscale>  0 0.59361358E+03</rscale>
<asrwt>0</asrwt>
<pdfrwt beam="1">  1        2 0.32746398E+00 0.59361358E+03</pdfrwt>
<pdfrwt beam="2">  1       -2 0.63673306E-02 0.59361358E+03</pdfrwt>
<totfact> 0.83115948E+02</totfact>
</mgrwt>
</event>
<event>
 4    1  0.8984293E-005  0.6059363E+03  0.7818608E-02  0.9893166E-01
          2   -1    0    0  501    0  0.00000000000E+00  0.00000000000E+00  0.10031905891E+04  0.10031905891E+04  0.25500000000E-02 0.  1.
         -2   -1    0    0    0  501 -0.00000000000E+00 -0.00000000000E+00 -0.91497760156E+02  0.91497760191E+02  0.25500000000E-02 0. -1.
    5000001    1    1    2    0    0 -0.11312227494E+02 -0.18889118622E+03  0.14948493086E+03  0.29219615205E+03  0.16500000000E+03 0.  0.
   -5000001    1    1    2    0    0  0.11312227494E+02  0.18889118622E+03  0.76220789804E+03  0.80249219720E+03  0.16500000000E+03 0.  0.
<mgrwt>
<rscale>  0 0.60593627E+03</rscale>
<asrwt>0</asrwt>
<pdfrwt beam="1">  1        2 0.15433702E+00 0.60593627E+03</pdfrwt>
<pdfrwt beam="2">  1       -2 0.14076578E-01 0.60593627E+03</pdfrwt>
<totfact> 0.98560603E+02</totfact>
</mgrwt>
</event>
<event>
 4    1  0.8984293E-005  0.1430008E+04  0.7818608E-02  0.8932379E-01
         -2   -1    0    0    0  501 -0.00000000000E+00  0.00000000000E+00  0.14894937739E+04  0.14894937739E+04  0.25500000000E-02 0. -1.
          2   -1    0    0  501    0  0.00000000000E+00 -0.00000000000E+00 -0.34322468855E+03  0.34322468856E+03  0.25500000000E-02 0.  1.
    5000001    1    1    2    0    0 -0.41366144061E+03 -0.53715949640E+03  0.77312347595E+03  0.10414417992E+04  0.16500000000E+03 0.  0.
   -5000001    1    1    2    0    0  0.41366144061E+03  0.53715949640E+03  0.37314560940E+03  0.79127666328E+03  0.16500000000E+03 0.  0.
<mgrwt>
<rscale>  0 0.14300084E+04</rscale>
<asrwt>0</asrwt>
<pdfrwt beam="1">  1        2 0.52803798E-01 0.14300084E+04</pdfrwt>
<pdfrwt beam="2">  1       -2 0.22915289E+00 0.14300084E+04</pdfrwt>
<totfact> 0.79389023E+00</totfact>
</mgrwt>
</event>
<event>
 4    1  0.8984293E-005  0.4607609E+03  0.7818608E-02  0.1024561E+00
         -2   -1    0    0    0  501 -0.00000000000E+00  0.00000000000E+00  0.16753831778E+03  0.16753831780E+03  0.25500000000E-02 0. -1.
          2   -1    0    0  501    0  0.00000000000E+00 -0.00000000000E+00 -0.31679412440E+03  0.31679412441E+03  0.25500000000E-02 0.  1.
    5000001    1    1    2    0    0  0.11990295764E+03  0.85043751257E+02 -0.14308237963E+03  0.26326170675E+03  0.16500000000E+03 0.  0.
   -5000001    1    1    2    0    0 -0.11990295764E+03 -0.85043751257E+02 -0.61734269957E+01  0.22107073547E+03  0.16500000000E+03 0.  0.
<mgrwt>
<rscale>  0 0.46076091E+03</rscale>
<asrwt>0</asrwt>
<pdfrwt beam="1">  1        2 0.48737558E-01 0.46076091E+03</pdfrwt>
<pdfrwt beam="2">  1       -2 0.25775126E-01 0.46076091E+03</pdfrwt>
<totfact> 0.13964863E+03</totfact>
</mgrwt>
</event>
<event>
 4    1  0.8984293E-005  0.6287980E+03  0.7818608E-02  0.9847397E-01
          2   -1    0    0  501    0  0.00000000000E+00  0.00000000000E+00  0.14268974804E+04  0.14268974804E+04  0.25500000000E-02 0.  1.
         -2   -1    0    0    0  501 -0.00000000000E+00 -0.00000000000E+00 -0.69273887261E+02  0.69273887308E+02  0.25500000000E-02 0. -1.
    5000001    1    1    2    0    0 -0.23846789550E+03  0.10004236622E+03  0.84273816729E+03  0.89683222000E+03  0.16500000000E+03 0.  0.
   -5000001    1    1    2    0    0  0.23846789550E+03 -0.10004236622E+03  0.51488542581E+03  0.59933914767E+03  0.16500000000E+03 0.  0.
<mgrwt>
<rscale>  0 0.62879801E+03</rscale>
<asrwt>0</asrwt>
<pdfrwt beam="1">  1        2 0.21952269E+00 0.62879801E+03</pdfrwt>
<pdfrwt beam="2">  1       -2 0.10657521E-01 0.62879801E+03</pdfrwt>
<totfact> 0.87797353E+02</totfact>
</mgrwt>
</event>
<event>
 4    1  0.8984293E-005  0.8608379E+03  0.7818608E-02  0.9475905E-01
          2   -1    0    0  501    0  0.00000000000E+00  0.00000000000E+00  0.67046532263E+03  0.67046532264E+03  0.25500000000E-02 0.  1.
         -2   -1    0    0    0  501 -0.00000000000E+00 -0.00000000000E+00 -0.27631629432E+03  0.27631629433E+03  0.25500000000E-02 0. -1.
    5000001    1    1    2    0    0  0.14333978339E+03 -0.22771864556E+03  0.51892195003E+03  0.60737720180E+03  0.16500000000E+03 0.  0.
   -5000001    1    1    2    0    0 -0.14333978339E+03  0.22771864556E+03 -0.12477292172E+03  0.33940441517E+03  0.16500000000E+03 0.  0.
<mgrwt>
<rscale>  0 0.86083795E+03</rscale>
<asrwt>0</asrwt>
<pdfrwt beam="1">  1        2 0.10314851E+00 0.86083795E+03</pdfrwt>
<pdfrwt beam="2">  1       -2 0.42510199E-01 0.86083795E+03</pdfrwt>
<totfact> 0.22787317E+02</totfact>
</mgrwt>
</event>
<event>
 4    1  0.8984293E-005  0.7361022E+03  0.7818608E-02  0.9657410E-01
          2   -1    0    0  501    0  0.00000000000E+00  0.00000000000E+00  0.29157328240E+03  0.29157328242E+03  0.25500000000E-02 0.  1.
         -2   -1    0    0    0  501 -0.00000000000E+00 -0.00000000000E+00 -0.46458861434E+03  0.46458861435E+03  0.25500000000E-02 0. -1.
    5000001    1    1    2    0    0 -0.18955980943E+03 -0.17444074041E+03  0.12370049304E+03  0.32998379543E+03  0.16500000000E+03 0.  0.
   -5000001    1    1    2    0    0  0.18955980943E+03  0.17444074041E+03 -0.29671582498E+03  0.42617810134E+03  0.16500000000E+03 0.  0.
<mgrwt>
<rscale>  0 0.73610224E+03</rscale>
<asrwt>0</asrwt>
<pdfrwt beam="1">  1        2 0.44857428E-01 0.73610224E+03</pdfrwt>
<pdfrwt beam="2">  1       -2 0.71475171E-01 0.73610224E+03</pdfrwt>
<totfact> 0.20314471E+02</totfact>
</mgrwt>
</event>
<event>
 4    1  0.8984293E-005  0.3920641E+03  0.7818608E-02  0.1046563E+00
          2   -1    0    0  501    0  0.00000000000E+00  0.00000000000E+00  0.34071445118E+03  0.34071445119E+03  0.25500000000E-02 0.  1.
         -2   -1    0    0    0  501 -0.00000000000E+00 -0.00000000000E+00 -0.11278820536E+03  0.11278820539E+03  0.25500000000E-02 0. -1.
    5000001    1    1    2    0    0  0.10082821025E+03  0.19986532011E+02  0.84751286046E+02  0.21206972894E+03  0.16500000000E+03 0.  0.
   -5000001    1    1    2    0    0 -0.10082821025E+03 -0.19986532011E+02  0.14317495978E+03  0.24143292765E+03  0.16500000000E+03 0.  0.
<mgrwt>
<rscale>  0 0.39206414E+03</rscale>
<asrwt>0</asrwt>
<pdfrwt beam="1">  1        2 0.52417608E-01 0.39206414E+03</pdfrwt>
<pdfrwt beam="2">  1       -2 0.17352031E-01 0.39206414E+03</pdfrwt>
<totfact> 0.25658710E+03</totfact>
</mgrwt>
</event>
<event>
 4    1  0.8984293E-005  0.7282182E+03  0.7818608E-02  0.9670156E-01
          2   -1    0    0  501    0  0.00000000000E+00  0.00000000000E+00  0.28520731062E+04  0.28520731062E+04  0.25500000000E-02 0.  1.
         -2   -1    0    0    0  501 -0.00000000000E+00 -0.00000000000E+00 -0.46483881463E+02  0.46483881533E+02  0.25500000000E-02 0. -1.
    5000001    1    1    2    0    0 -0.54033817547E+02  0.29608243506E+03  0.18864669701E+04  0.19174376368E+04  0.16500000000E+03 0.  0.
   -5000001    1    1    2    0    0  0.54033817547E+02 -0.29608243506E+03  0.91912225468E+03  0.98111935097E+03  0.16500000000E+03 0.  0.
<mgrwt>
<rscale>  0 0.72821818E+03</rscale>
<asrwt>0</asrwt>
<pdfrwt beam="1">  1        2 0.43878064E+00 0.72821818E+03</pdfrwt>
<pdfrwt beam="2">  1       -2 0.71513638E-02 0.72821818E+03</pdfrwt>
<totfact> 0.26615231E+02</totfact>
</mgrwt>
</event>
<event>
 4    1  0.8984293E-005  0.4165158E+03  0.7818608E-02  0.1038206E+00
          2   -1    0    0  501    0  0.00000000000E+00  0.00000000000E+00  0.64398928472E+03  0.64398928473E+03  0.25500000000E-02 0.  1.
         -2   -1    0    0    0  501 -0.00000000000E+00 -0.00000000000E+00 -0.67347937044E+02  0.67347937092E+02  0.25500000000E-02 0. -1.
    5000001    1    1    2    0    0 -0.97376313779E+02  0.79831540605E+02  0.25918088481E+03  0.33204661180E+03  0.16500000000E+03 0.  0.
   -5000001    1    1    2    0    0  0.97376313779E+02 -0.79831540605E+02  0.31746046287E+03  0.37929061002E+03  0.16500000000E+03 0.  0.
<mgrwt>
<rscale>  0 0.41651579E+03</rscale>
<asrwt>0</asrwt>
<pdfrwt beam="1">  1        2 0.99075277E-01 0.41651579E+03</pdfrwt>
<pdfrwt beam="2">  1       -2 0.10361221E-01 0.41651579E+03</pdfrwt>
<totfact> 0.29251189E+03</totfact>
</mgrwt>
</event>
<event>
 4    1  0.8984293E-005  0.4320574E+03  0.7818608E-02  0.1033212E+00
         -2   -1    0    0    0  501 -0.00000000000E+00  0.00000000000E+00  0.95083197814E+02  0.95083197848E+02  0.25500000000E-02 0. -1.
          2   -1    0    0  501    0  0.00000000000E+00 -0.00000000000E+00 -0.49081641766E+03  0.49081641767E+03  0.25500000000E-02 0.  1.
    5000001    1    1    2    0    0 -0.26980289071E+02 -0.10323313227E+03 -0.76134365298E+02  0.21072839670E+03  0.16500000000E+03 0.  0.
   -5000001    1    1    2    0    0  0.26980289071E+02  0.10323313227E+03 -0.31959885455E+03  0.37517121882E+03  0.16500000000E+03 0.  0.
<mgrwt>
<rscale>  0 0.43205738E+03</rscale>
<asrwt>0</asrwt>
<pdfrwt beam="1">  1        2 0.75510217E-01 0.43205738E+03</pdfrwt>
<pdfrwt beam="2">  1       -2 0.14628185E-01 0.43205738E+03</pdfrwt>
<totfact> 0.22831546E+03</totfact>
</mgrwt>
</event>
<event>
 4    1  0.8984293E-005  0.3830000E+03  0.7818608E-02  0.1049830E+00
          2   -1    0    0  501    0  0.00000000000E+00  0.00000000000E+00  0.19004230952E+02  0.19004231123E+02  0.25500000000E-02 0.  1.
         -2   -1    0    0    0  501 -0.00000000000E+00 -0.00000000000E+00 -0.19296892039E+04  0.19296892039E+04  0.25500000000E-02 0. -1.
    5000001    1    1    2    0    0 -0.86209606373E+02  0.42418821111E+02 -0.88059831989E+03  0.90106040508E+03  0.16500000000E+03 0.  0.
   -5000001    1    1    2    0    0  0.86209606373E+02 -0.42418821111E+02 -0.10300866530E+04  0.10476330299E+04  0.16500000000E+03 0.  0.
<mgrwt>
<rscale>  0 0.38300005E+03</rscale>
<asrwt>0</asrwt>
<pdfrwt beam="1">  1        2 0.29237294E-02 0.38300005E+03</pdfrwt>
<pdfrwt beam="2">  1       -2 0.29687511E+00 0.38300005E+03</pdfrwt>
<totfact> 0.12277144E+02</totfact>
</mgrwt>
</event>
<event>
 4    1  0.8984293E-005  0.8394583E+03  0.7818608E-02  0.9504596E-01
          2   -1    0    0  501    0  0.00000000000E+00  0.00000000000E+00  0.69001885916E+03  0.69001885916E+03  0.25500000000E-02 0.  1.
         -2   -1    0    0    0  501 -0.00000000000E+00 -0.00000000000E+00 -0.25531555952E+03  0.25531555953E+03  0.25500000000E-02 0. -1.
    5000001    1    1    2    0    0  0.33547315702E+03  0.17502853124E+03  0.13180825112E+03  0.43333086769E+03  0.16500000000E+03 0.  0.
   -5000001    1    1    2    0    0 -0.33547315702E+03 -0.17502853124E+03  0.30289504852E+03  0.51200355101E+03  0.16500000000E+03 0.  0.
<mgrwt>
<rscale>  0 0.83945828E+03</rscale>
<asrwt>0</asrwt>
<pdfrwt beam="1">  1        2 0.10615675E+00 0.83945828E+03</pdfrwt>
<pdfrwt beam="2">  1       -2 0.39279317E-01 0.83945828E+03</pdfrwt>
<totfact> 0.25687266E+02</totfact>
</mgrwt>
</event>
<event>
 4    1  0.8984293E-005  0.4826758E+03  0.7818608E-02  0.1018402E+00
         -2   -1    0    0    0  501 -0.00000000000E+00  0.00000000000E+00  0.21108371281E+03  0.21108371282E+03  0.25500000000E-02 0. -1.
          2   -1    0    0  501    0  0.00000000000E+00 -0.00000000000E+00 -0.27592831364E+03  0.27592831365E+03  0.25500000000E-02 0.  1.
    5000001    1    1    2    0    0  0.36663634683E+02  0.15008475025E+03  0.52890955908E+02  0.23214673718E+03  0.16500000000E+03 0.  0.
   -5000001    1    1    2    0    0 -0.36663634683E+02 -0.15008475025E+03 -0.11773555674E+03  0.25486528929E+03  0.16500000000E+03 0.  0.
<mgrwt>
<rscale>  0 0.48267576E+03</rscale>
<asrwt>0</asrwt>
<pdfrwt beam="1">  1        2 0.42450510E-01 0.48267576E+03</pdfrwt>
<pdfrwt beam="2">  1       -2 0.32474417E-01 0.48267576E+03</pdfrwt>
<totfact> 0.10651192E+03</totfact>
</mgrwt>
</event>
<event>
 4    1  0.8984293E-005  0.6382944E+03  0.7818608E-02  0.9828995E-01
         -2   -1    0    0    0  501 -0.00000000000E+00  0.00000000000E+00  0.95294608963E+03  0.95294608963E+03  0.25500000000E-02 0. -1.
          2   -1    0    0  501    0  0.00000000000E+00 -0.00000000000E+00 -0.10688425771E+03  0.10688425774E+03  0.25500000000E-02 0.  1.
    5000001    1    1    2    0    0 -0.13242472045E+03  0.23465084259E+03  0.34817218760E+03  0.47015550271E+03  0.16500000000E+03 0.  0.
   -5000001    1    1    2    0    0  0.13242472045E+03 -0.23465084259E+03  0.49788964432E+03  0.58967484466E+03  0.16500000000E+03 0.  0.
<mgrwt>
<rscale>  0 0.63829440E+03</rscale>
<asrwt>0</asrwt>
<pdfrwt beam="1">  1        2 0.16443733E-01 0.63829440E+03</pdfrwt>
<pdfrwt beam="2">  1       -2 0.14660708E+00 0.63829440E+03</pdfrwt>
<totfact> 0.11592849E+02</totfact>
</mgrwt>
</event>
<event>
 4    1  0.8984293E-005  0.5016403E+03  0.7818608E-02  0.1013352E+00
         -2   -1    0    0    0  501 -0.00000000000E+00  0.00000000000E+00  0.31405092687E+03  0.31405092688E+03  0.25500000000E-02 0. -1.
          2   -1    0    0  501    0  0.00000000000E+00 -0.00000000000E+00 -0.20032023776E+03  0.20032023777E+03  0.25500000000E-02 0.  1.
    5000001    1    1    2    0    0  0.15371896386E+03 -0.10203465553E+03  0.15275339731E+02  0.24798977153E+03  0.16500000000E+03 0.  0.
   -5000001    1    1    2    0    0 -0.15371896386E+03  0.10203465553E+03  0.98455349384E+02  0.26638139312E+03  0.16500000000E+03 0.  0.
<mgrwt>
<rscale>  0 0.50164033E+03</rscale>
<asrwt>0</asrwt>
<pdfrwt beam="1">  1        2 0.30818498E-01 0.50164033E+03</pdfrwt>
<pdfrwt beam="2">  1       -2 0.48315527E-01 0.50164033E+03</pdfrwt>
<totfact> 0.70429393E+02</totfact>
</mgrwt>
</event>
<event>
 4    1  0.8984293E-005  0.7487950E+03  0.7818608E-02  0.9637243E-01
          2   -1    0    0  501    0  0.00000000000E+00  0.00000000000E+00  0.11749956425E+04  0.11749956425E+04  0.25500000000E-02 0.  1.
         -2   -1    0    0    0  501 -0.00000000000E+00 -0.00000000000E+00 -0.11929703877E+03  0.11929703880E+03  0.25500000000E-02 0. -1.
    5000001    1    1    2    0    0  0.28741079693E+02 -0.30751120209E+03  0.29880300028E+03  0.46032317131E+03  0.16500000000E+03 0.  0.
   -5000001    1    1    2    0    0 -0.28741079693E+02  0.30751120209E+03  0.75689560345E+03  0.83396950999E+03  0.16500000000E+03 0.  0.
<mgrwt>
<rscale>  0 0.74879503E+03</rscale>
<asrwt>0</asrwt>
<pdfrwt beam="1">  1        2 0.18076857E+00 0.74879503E+03</pdfrwt>
<pdfrwt beam="2">  1       -2 0.18353390E-01 0.74879503E+03</pdfrwt>
<totfact> 0.48980616E+02</totfact>
</mgrwt>
</event>
<event>
 4    1  0.8984293E-005  0.7009995E+03  0.7818608E-02  0.9715524E-01
          2   -1    0    0  501    0  0.00000000000E+00  0.00000000000E+00  0.54247700967E+03  0.54247700968E+03  0.25500000000E-02 0.  1.
         -2   -1    0    0    0  501 -0.00000000000E+00 -0.00000000000E+00 -0.22646134102E+03  0.22646134104E+03  0.25500000000E-02 0. -1.
    5000001    1    1    2    0    0 -0.25656071425E+03  0.14717572208E+03  0.59035889120E+02  0.34379402187E+03  0.16500000000E+03 0.  0.
   -5000001    1    1    2    0    0  0.25656071425E+03 -0.14717572208E+03  0.25697977953E+03  0.42514432885E+03  0.16500000000E+03 0.  0.
<mgrwt>
<rscale>  0 0.70099949E+03</rscale>
<asrwt>0</asrwt>
<pdfrwt beam="1">  1        2 0.83458001E-01 0.70099949E+03</pdfrwt>
<pdfrwt beam="2">  1       -2 0.34840206E-01 0.70099949E+03</pdfrwt>
<totfact> 0.43548380E+02</totfact>
</mgrwt>
</event>
<event>
 4    1  0.8984293E-005  0.5320500E+03  0.7818608E-02  0.1005736E+00
         -2   -1    0    0    0  501 -0.00000000000E+00  0.00000000000E+00  0.42639666647E+02  0.42639666724E+02  0.25500000000E-02 0. -1.
          2   -1    0    0  501    0  0.00000000000E+00 -0.00000000000E+00 -0.16597058329E+04  0.16597058329E+04  0.25500000000E-02 0.  1.
    5000001    1    1    2    0    0  0.18713260683E+03 -0.79618617494E+02 -0.95814859333E+03  0.99329324154E+03  0.16500000000E+03 0.  0.
   -5000001    1    1    2    0    0 -0.18713260683E+03  0.79618617494E+02 -0.65891757294E+03  0.70905225810E+03  0.16500000000E+03 0.  0.
<mgrwt>
<rscale>  0 0.53205001E+03</rscale>
<asrwt>0</asrwt>
<pdfrwt beam="1">  1        2 0.25533931E+00 0.53205001E+03</pdfrwt>
<pdfrwt beam="2">  1       -2 0.65599500E-02 0.53205001E+03</pdfrwt>
<totfact> 0.14272294E+03</totfact>
</mgrwt>
</event>
<event>
 4    1  0.8984293E-005  0.6053266E+03  0.7818608E-02  0.9894416E-01
          2   -1    0    0  501    0  0.00000000000E+00  0.00000000000E+00  0.52899881962E+03  0.52899881963E+03  0.25500000000E-02 0.  1.
         -2   -1    0    0    0  501 -0.00000000000E+00 -0.00000000000E+00 -0.17316690125E+03  0.17316690126E+03  0.25500000000E-02 0. -1.
    5000001    1    1    2    0    0  0.20698143725E+03 -0.18887549375E+02  0.34673974635E+03  0.43663658412E+03  0.16500000000E+03 0.  0.
   -5000001    1    1    2    0    0 -0.20698143725E+03  0.18887549375E+02  0.90921720246E+01  0.26552913678E+03  0.16500000000E+03 0.  0.
<mgrwt>
<rscale>  0 0.60532664E+03</rscale>
<asrwt>0</asrwt>
<pdfrwt beam="1">  1        2 0.81384432E-01 0.60532664E+03</pdfrwt>
<pdfrwt beam="2">  1       -2 0.26641062E-01 0.60532664E+03</pdfrwt>
<totfact> 0.73973269E+02</totfact>
</mgrwt>
</event>
<event>
 4    1  0.8984293E-005  0.4348698E+03  0.7818608E-02  0.1032333E+00
         -2   -1    0    0    0  501 -0.00000000000E+00  0.00000000000E+00  0.53532769369E+02  0.53532769430E+02  0.25500000000E-02 0. -1.
          2   -1    0    0  501    0  0.00000000000E+00 -0.00000000000E+00 -0.88315884979E+03  0.88315884980E+03  0.25500000000E-02 0.  1.
    5000001    1    1    2    0    0  0.58879312023E+02 -0.30107395244E+02 -0.68452884097E+03  0.70723260866E+03  0.16500000000E+03 0.  0.
   -5000001    1    1    2    0    0 -0.58879312023E+02  0.30107395244E+02 -0.14509723945E+03  0.22945901056E+03  0.16500000000E+03 0.  0.
<mgrwt>
<rscale>  0 0.43486982E+03</rscale>
<asrwt>0</asrwt>
<pdfrwt beam="1">  1        2 0.13587058E+00 0.43486982E+03</pdfrwt>
<pdfrwt beam="2">  1       -2 0.82358113E-02 0.43486982E+03</pdfrwt>
<totfact> 0.28259096E+03</totfact>
</mgrwt>
</event>
<event>
 4    1  0.8984293E-005  0.4321037E+03  0.7818608E-02  0.1033197E+00
          2   -1    0    0  501    0  0.00000000000E+00  0.00000000000E+00  0.10083768940E+03  0.10083768944E+03  0.25500000000E-02 0.  1.
         -2   -1    0    0    0  501 -0.00000000000E+00 -0.00000000000E+00 -0.46290633366E+03  0.46290633367E+03  0.25500000000E-02 0. -1.
    5000001    1    1    2    0    0 -0.32720453854E+02 -0.13153850148E+03 -0.22391742137E+03  0.30941398977E+03  0.16500000000E+03 0.  0.
   -5000001    1    1    2    0    0  0.32720453854E+02  0.13153850148E+03 -0.13815122289E+03  0.25433003334E+03  0.16500000000E+03 0.  0.
<mgrwt>
<rscale>  0 0.43210371E+03</rscale>
<asrwt>0</asrwt>
<pdfrwt beam="1">  1        2 0.15513491E-01 0.43210371E+03</pdfrwt>
<pdfrwt beam="2">  1       -2 0.71216358E-01 0.43210371E+03</pdfrwt>
<totfact> 0.69249825E+02</totfact>
</mgrwt>
</event>
<event>
 4    1  0.8984293E-005  0.4435494E+03  0.7818608E-02  0.1029663E+00
         -2   -1    0    0    0  501 -0.00000000000E+00  0.00000000000E+00  0.21735077312E+02  0.21735077461E+02  0.25500000000E-02 0. -1.
          2   -1    0    0  501    0  0.00000000000E+00 -0.00000000000E+00 -0.22628870186E+04  0.22628870186E+04  0.25500000000E-02 0.  1.
    5000001    1    1    2    0    0  0.98196745709E+02 -0.11027141492E+03 -0.10561112929E+04  0.10790729581E+04  0.16500000000E+03 0.  0.
   -5000001    1    1    2    0    0 -0.98196745709E+02  0.11027141492E+03 -0.11850406483E+04  0.12055491380E+04  0.16500000000E+03 0.  0.
<mgrwt>
<rscale>  0 0.44354943E+03</rscale>
<asrwt>0</asrwt>
<pdfrwt beam="1">  1        2 0.34813628E+00 0.44354943E+03</pdfrwt>
<pdfrwt beam="2">  1       -2 0.33438598E-02 0.44354943E+03</pdfrwt>
<totfact> 0.19151436E+03</totfact>
</mgrwt>
</event>
<event>
 4    1  0.8984293E-005  0.3682144E+03  0.7818608E-02  0.1055378E+00
         -2   -1    0    0    0  501 -0.00000000000E+00  0.00000000000E+00  0.24458507834E+02  0.24458507967E+02  0.25500000000E-02 0. -1.
          2   -1    0    0  501    0  0.00000000000E+00 -0.00000000000E+00 -0.13858353479E+04  0.13858353479E+04  0.25500000000E-02 0.  1.
    5000001    1    1    2    0    0  0.35688345623E+02 -0.71819907155E+02 -0.62151290264E+03  0.64802395420E+03  0.16500000000E+03 0.  0.
   -5000001    1    1    2    0    0 -0.35688345623E+02  0.71819907155E+02 -0.73986393743E+03  0.76226990167E+03  0.16500000000E+03 0.  0.
<mgrwt>
<rscale>  0 0.36821442E+03</rscale>
<asrwt>0</asrwt>
<pdfrwt beam="1">  1        2 0.21320538E+00 0.36821442E+03</pdfrwt>
<pdfrwt beam="2">  1       -2 0.37628485E-02 0.36821442E+03</pdfrwt>
<totfact> 0.47567003E+03</totfact>
</mgrwt>
</event>
<event>
 4    1  0.8984293E-005  0.4198718E+03  0.7818608E-02  0.1037108E+00
         -2   -1    0    0    0  501 -0.00000000000E+00  0.00000000000E+00  0.16533784736E+02  0.16533784932E+02  0.25500000000E-02 0. -1.
          2   -1    0    0  501    0  0.00000000000E+00 -0.00000000000E+00 -0.26656383401E+04  0.26656383401E+04  0.25500000000E-02 0.  1.
    5000001    1    1    2    0    0  0.12508126514E+03 -0.16393647736E+02 -0.15197825217E+04  0.15339093806E+04  0.16500000000E+03 0.  0.
   -5000001    1    1    2    0    0 -0.12508126514E+03  0.16393647736E+02 -0.11293220337E+04  0.11482627444E+04  0.16500000000E+03 0.  0.
<mgrwt>
<rscale>  0 0.41987184E+03</rscale>
<asrwt>0</asrwt>
<pdfrwt beam="1">  1        2 0.41009786E+00 0.41987184E+03</pdfrwt>
<pdfrwt beam="2">  1       -2 0.25436613E-02 0.41987184E+03</pdfrwt>
<totfact> 0.17312501E+03</totfact>
</mgrwt>
</event>
<event>
 4    1  0.8984293E-005  0.6883425E+03  0.7818608E-02  0.9737378E-01
          2   -1    0    0  501    0  0.00000000000E+00  0.00000000000E+00  0.67900322850E+03  0.67900322851E+03  0.25500000000E-02 0.  1.
         -2   -1    0    0    0  501 -0.00000000000E+00 -0.00000000000E+00 -0.17445258176E+03  0.17445258178E+03  0.25500000000E-02 0. -1.
    5000001    1    1    2    0    0  0.92594404863E+02  0.15870495310E+03  0.54950283992E+03  0.60244448461E+03  0.16500000000E+03 0.  0.
   -5000001    1    1    2    0    0 -0.92594404863E+02 -0.15870495310E+03 -0.44952193181E+02  0.25101132568E+03  0.16500000000E+03 0.  0.
<mgrwt>
<rscale>  0 0.68834255E+03</rscale>
<asrwt>0</asrwt>
<pdfrwt beam="1">  1        2 0.10446204E+00 0.68834255E+03</pdfrwt>
<pdfrwt beam="2">  1       -2 0.26838859E-01 0.68834255E+03</pdfrwt>
<totfact> 0.53948726E+02</totfact>
</mgrwt>
</event>
<event>
 4    1  0.8984293E-005  0.3817765E+03  0.7818608E-02  0.1050279E+00
          2   -1    0    0  501    0  0.00000000000E+00  0.00000000000E+00  0.15437052933E+04  0.15437052933E+04  0.25500000000E-02 0.  1.
         -2   -1    0    0    0  501 -0.00000000000E+00 -0.00000000000E+00 -0.23604460250E+02  0.23604460388E+02  0.25500000000E-02 0. -1.
    5000001    1    1    2    0    0  0.44502780290E+02  0.59538620688E+02  0.10093607105E+04  0.10254556980E+04  0.16500000000E+03 0.  0.
   -5000001    1    1    2    0    0 -0.44502780290E+02 -0.59538620688E+02  0.51074012255E+03  0.54185405562E+03  0.16500000000E+03 0.  0.
<mgrwt>
<rscale>  0 0.38177653E+03</rscale>
<asrwt>0</asrwt>
<pdfrwt beam="1">  1        2 0.23749313E+00 0.38177653E+03</pdfrwt>
<pdfrwt beam="2">  1       -2 0.36314553E-02 0.38177653E+03</pdfrwt>
<totfact> 0.41173636E+03</totfact>
</mgrwt>
</event>
<event>
 4    1  0.8984293E-005  0.5095220E+03  0.7818608E-02  0.1011323E+00
         -2   -1    0    0    0  501 -0.00000000000E+00  0.00000000000E+00  0.21271765734E+03  0.21271765735E+03  0.25500000000E-02 0. -1.
          2   -1    0    0  501    0  0.00000000000E+00 -0.00000000000E+00 -0.30511414831E+03  0.30511414832E+03  0.25500000000E-02 0.  1.
    5000001    1    1    2    0    0 -0.18988434037E+03  0.33112995680E+02 -0.69498859419E+02  0.26307342067E+03  0.16500000000E+03 0.  0.
   -5000001    1    1    2    0    0  0.18988434037E+03 -0.33112995680E+02 -0.22897631554E+02  0.25475838501E+03  0.16500000000E+03 0.  0.
<mgrwt>
<rscale>  0 0.50952200E+03</rscale>
<asrwt>0</asrwt>
<pdfrwt beam="1">  1        2 0.46940638E-01 0.50952200E+03</pdfrwt>
<pdfrwt beam="2">  1       -2 0.32725793E-01 0.50952200E+03</pdfrwt>
<totfact> 0.94015435E+02</totfact>
</mgrwt>
</event>
<event>
 4    1  0.8984293E-005  0.5270907E+03  0.7818608E-02  0.1006940E+00
          2   -1    0    0  501    0  0.00000000000E+00  0.00000000000E+00  0.12459570462E+04  0.12459570462E+04  0.25500000000E-02 0.  1.
         -2   -1    0    0    0  501 -0.00000000000E+00 -0.00000000000E+00 -0.55745219834E+02  0.55745219892E+02  0.25500000000E-02 0. -1.
    5000001    1    1    2    0    0 -0.33084694197E+02  0.20075618274E+03  0.66640452777E+03  0.71604304098E+03  0.16500000000E+03 0.  0.
   -5000001    1    1    2    0    0  0.33084694197E+02 -0.20075618274E+03  0.52380729858E+03  0.58565922510E+03  0.16500000000E+03 0.  0.
<mgrwt>
<rscale>  0 0.52709069E+03</rscale>
<asrwt>0</asrwt>
<pdfrwt beam="1">  1        2 0.19168569E+00 0.52709069E+03</pdfrwt>
<pdfrwt beam="2">  1       -2 0.85761882E-02 0.52709069E+03</pdfrwt>
<totfact> 0.15852096E+03</totfact>
</mgrwt>
</event>
<event>
 4    1  0.8984293E-005  0.5028680E+03  0.7818608E-02  0.1013033E+00
          2   -1    0    0  501    0  0.00000000000E+00  0.00000000000E+00  0.20061204512E+04  0.20061204512E+04  0.25500000000E-02 0.  1.
         -2   -1    0    0    0  501 -0.00000000000E+00 -0.00000000000E+00 -0.31513095016E+02  0.31513095119E+02  0.25500000000E-02 0. -1.
    5000001    1    1    2    0    0  0.10745129061E+03 -0.10466885950E+03  0.14579793153E+04  0.14749339083E+04  0.16500000000E+03 0.  0.
   -5000001    1    1    2    0    0 -0.10745129061E+03  0.10466885950E+03  0.51662804088E+03  0.56269963802E+03  0.16500000000E+03 0.  0.
<mgrwt>
<rscale>  0 0.50286803E+03</rscale>
<asrwt>0</asrwt>
<pdfrwt beam="1">  1        2 0.30863393E+00 0.50286803E+03</pdfrwt>
<pdfrwt beam="2">  1       -2 0.48481683E-02 0.50286803E+03</pdfrwt>
<totfact> 0.14888915E+03</totfact>
</mgrwt>
</event>
<event>
 4    1  0.8984293E-005  0.5956341E+03  0.7818608E-02  0.9914506E-01
          2   -1    0    0  501    0  0.00000000000E+00  0.00000000000E+00  0.33894195239E+03  0.33894195240E+03  0.25500000000E-02 0.  1.
         -2   -1    0    0    0  501 -0.00000000000E+00 -0.00000000000E+00 -0.26168195615E+03  0.26168195616E+03  0.25500000000E-02 0. -1.
    5000001    1    1    2    0    0 -0.16427508310E+03 -0.15867582920E+03  0.13590403175E+03  0.31282459550E+03  0.16500000000E+03 0.  0.
   -5000001    1    1    2    0    0  0.16427508310E+03  0.15867582920E+03 -0.58644035502E+02  0.28779931307E+03  0.16500000000E+03 0.  0.
<mgrwt>
<rscale>  0 0.59563409E+03</rscale>
<asrwt>0</asrwt>
<pdfrwt beam="1">  1        2 0.52144916E-01 0.59563409E+03</pdfrwt>
<pdfrwt beam="2">  1       -2 0.40258763E-01 0.59563409E+03</pdfrwt>
<totfact> 0.56362533E+02</totfact>
</mgrwt>
</event>
<event>
 4    1  0.8984293E-005  0.4463780E+03  0.7818608E-02  0.1028808E+00
          2   -1    0    0  501    0  0.00000000000E+00  0.00000000000E+00  0.34221050633E+03  0.34221050634E+03  0.25500000000E-02 0.  1.
         -2   -1    0    0    0  501 -0.00000000000E+00 -0.00000000000E+00 -0.14556344605E+03  0.14556344607E+03  0.25500000000E-02 0. -1.
    5000001    1    1    2    0    0  0.86088430717E+02  0.72901503413E+02  0.20684336897E+03  0.28763696979E+03  0.16500000000E+03 0.  0.
   -5000001    1    1    2    0    0 -0.86088430717E+02 -0.72901503413E+02 -0.10196308682E+02  0.20013698262E+03  0.16500000000E+03 0.  0.
<mgrwt>
<rscale>  0 0.44637805E+03</rscale>
<asrwt>0</asrwt>
<pdfrwt beam="1">  1        2 0.52647769E-01 0.44637805E+03</pdfrwt>
<pdfrwt beam="2">  1       -2 0.22394377E-01 0.44637805E+03</pdfrwt>
<totfact> 0.16466596E+03</totfact>
</mgrwt>
</event>
<event>
 4    1  0.8984293E-005  0.4044319E+03  0.7818608E-02  0.1042256E+00
          2   -1    0    0  501    0  0.00000000000E+00  0.00000000000E+00  0.14060071264E+04  0.14060071264E+04  0.25500000000E-02 0.  1.
         -2   -1    0    0    0  501 -0.00000000000E+00 -0.00000000000E+00 -0.29083268970E+02  0.29083269082E+02  0.25500000000E-02 0. -1.
    5000001    1    1    2    0    0  0.34534248695E+02 -0.10623972297E+03  0.81070405934E+03  0.83483265682E+03  0.16500000000E+03 0.  0.
   -5000001    1    1    2    0    0 -0.34534248695E+02  0.10623972297E+03  0.56621979808E+03  0.60025773865E+03  0.16500000000E+03 0.  0.
<mgrwt>
<rscale>  0 0.40443187E+03</rscale>
<asrwt>0</asrwt>
<pdfrwt beam="1">  1        2 0.21630871E+00 0.40443187E+03</pdfrwt>
<pdfrwt beam="2">  1       -2 0.44743507E-02 0.40443187E+03</pdfrwt>
<totfact> 0.35631702E+03</totfact>
</mgrwt>
</event>
<event>
 4    1  0.8984293E-005  0.7030893E+03  0.7818608E-02  0.9711964E-01
          2   -1    0    0  501    0  0.00000000000E+00  0.00000000000E+00  0.20209142737E+04  0.20209142737E+04  0.25500000000E-02 0.  1.
         -2   -1    0    0    0  501 -0.00000000000E+00 -0.00000000000E+00 -0.61152336487E+02  0.61152336540E+02  0.25500000000E-02 0. -1.
    5000001    1    1    2    0    0 -0.23300353602E+03  0.15784543910E+03  0.59204181224E+03  0.67597658087E+03  0.16500000000E+03 0.  0.
   -5000001    1    1    2    0    0  0.23300353602E+03 -0.15784543910E+03  0.13677201250E+04  0.14060900294E+04  0.16500000000E+03 0.  0.
<mgrwt>
<rscale>  0 0.70308927E+03</rscale>
<asrwt>0</asrwt>
<pdfrwt beam="1">  1        2 0.31090988E+00 0.70308927E+03</pdfrwt>
<pdfrwt beam="2">  1       -2 0.94080520E-02 0.70308927E+03</pdfrwt>
<totfact> 0.50655115E+02</totfact>
</mgrwt>
</event>
<event>
 4    1  0.8984293E-005  0.5658865E+03  0.7818608E-02  0.9978823E-01
         -2   -1    0    0    0  501 -0.00000000000E+00  0.00000000000E+00  0.41834174731E+02  0.41834174809E+02  0.25500000000E-02 0. -1.
          2   -1    0    0  501    0  0.00000000000E+00 -0.00000000000E+00 -0.19136721384E+04  0.19136721384E+04  0.25500000000E-02 0.  1.
    5000001    1    1    2    0    0  0.11587648562E+03  0.17542629550E+03 -0.61489386028E+03  0.67046342516E+03  0.16500000000E+03 0.  0.
   -5000001    1    1    2    0    0 -0.11587648562E+03 -0.17542629550E+03 -0.12569441034E+04  0.12850428880E+04  0.16500000000E+03 0.  0.
<mgrwt>
<rscale>  0 0.56588654E+03</rscale>
<asrwt>0</asrwt>
<pdfrwt beam="1">  1        2 0.29441103E+00 0.56588654E+03</pdfrwt>
<pdfrwt beam="2">  1       -2 0.64360284E-02 0.56588654E+03</pdfrwt>
<totfact> 0.10704402E+03</totfact>
</mgrwt>
</event>
<event>
 4    1  0.8984293E-005  0.5130870E+03  0.7818608E-02  0.1010418E+00
         -2   -1    0    0    0  501 -0.00000000000E+00  0.00000000000E+00  0.18424323189E+02  0.18424323365E+02  0.25500000000E-02 0. -1.
          2   -1    0    0  501    0  0.00000000000E+00 -0.00000000000E+00 -0.35721563440E+04  0.35721563440E+04  0.25500000000E-02 0.  1.
    5000001    1    1    2    0    0  0.78535935026E+02 -0.17880819683E+03 -0.16285317791E+04  0.16484783953E+04  0.16500000000E+03 0.  0.
   -5000001    1    1    2    0    0 -0.78535935026E+02  0.17880819683E+03 -0.19252002417E+04  0.19421022720E+04  0.16500000000E+03 0.  0.
<mgrwt>
<rscale>  0 0.51308698E+03</rscale>
<asrwt>0</asrwt>
<pdfrwt beam="1">  1        2 0.54956196E+00 0.51308698E+03</pdfrwt>
<pdfrwt beam="2">  1       -2 0.28345141E-02 0.51308698E+03</pdfrwt>
<totfact> 0.39784250E+02</totfact>
</mgrwt>
</event>
<event>
 4    1  0.8984293E-005  0.5467381E+03  0.7818608E-02  0.1002252E+00
         -2   -1    0    0    0  501 -0.00000000000E+00  0.00000000000E+00  0.26101333066E+02  0.26101333191E+02  0.25500000000E-02 0. -1.
          2   -1    0    0  501    0  0.00000000000E+00 -0.00000000000E+00 -0.28630970095E+04  0.28630970095E+04  0.25500000000E-02 0.  1.
    5000001    1    1    2    0    0 -0.37252077404E+02 -0.10613438566E+03 -0.43194418725E+03  0.47587078707E+03  0.16500000000E+03 0.  0.
   -5000001    1    1    2    0    0  0.37252077404E+02  0.10613438566E+03 -0.24050514892E+04  0.24133275556E+04  0.16500000000E+03 0.  0.
<mgrwt>
<rscale>  0 0.54673814E+03</rscale>
<asrwt>0</asrwt>
<pdfrwt beam="1">  1        2 0.44047621E+00 0.54673814E+03</pdfrwt>
<pdfrwt beam="2">  1       -2 0.40155920E-02 0.54673814E+03</pdfrwt>
<totfact> 0.65741418E+02</totfact>
</mgrwt>
</event>
<event>
 4    1  0.8984293E-005  0.3995254E+03  0.7818608E-02  0.1043944E+00
         -2   -1    0    0    0  501 -0.00000000000E+00  0.00000000000E+00  0.52334282211E+02  0.52334282273E+02  0.25500000000E-02 0.  1.
          2   -1    0    0  501    0  0.00000000000E+00 -0.00000000000E+00 -0.76250478511E+03  0.76250478512E+03  0.25500000000E-02 0. -1.
    5000001    1    1    2    0    0 -0.69558503556E+02  0.87335431416E+02 -0.32523033550E+03  0.38139957279E+03  0.16500000000E+03 0.  0.
   -5000001    1    1    2    0    0  0.69558503556E+02 -0.87335431416E+02 -0.38494016740E+03  0.43343949460E+03  0.16500000000E+03 0.  0.
<mgrwt>
<rscale>  0 0.39952542E+03</rscale>
<asrwt>0</asrwt>
<pdfrwt beam="1">  1        2 0.11730842E+00 0.39952542E+03</pdfrwt>
<pdfrwt beam="2">  1       -2 0.80514286E-02 0.39952542E+03</pdfrwt>
<totfact> 0.35484034E+03</totfact>
</mgrwt>
</event>
<event>
 4    1  0.8984293E-005  0.6660709E+03  0.7818608E-02  0.9777082E-01
         -2   -1    0    0    0  501 -0.00000000000E+00  0.00000000000E+00  0.10443333403E+03  0.10443333406E+03  0.25500000000E-02 0. -1.
          2   -1    0    0  501    0  0.00000000000E+00 -0.00000000000E+00 -0.10620421701E+04  0.10620421701E+04  0.25500000000E-02 0.  1.
    5000001    1    1    2    0    0  0.89101112808E+02  0.21579219519E+03 -0.77797240514E+03  0.82883734409E+03  0.16500000000E+03 0.  0.
   -5000001    1    1    2    0    0 -0.89101112808E+02 -0.21579219519E+03 -0.17963643092E+03  0.33763816005E+03  0.16500000000E+03 0.  0.
<mgrwt>
<rscale>  0 0.66607088E+03</rscale>
<asrwt>0</asrwt>
<pdfrwt beam="1">  1        2 0.16339110E+00 0.66607088E+03</pdfrwt>
<pdfrwt beam="2">  1       -2 0.16066668E-01 0.66607088E+03</pdfrwt>
<totfact> 0.72305788E+02</totfact>
</mgrwt>
</event>
<event>
 4    1  0.8984293E-005  0.4999357E+03  0.7818608E-02  0.1013796E+00
          2   -1    0    0  501    0  0.00000000000E+00  0.00000000000E+00  0.16767272413E+03  0.16767272415E+03  0.25500000000E-02 0.  1.
         -2   -1    0    0    0  501 -0.00000000000E+00 -0.00000000000E+00 -0.37265414340E+03  0.37265414341E+03  0.25500000000E-02 0. -1.
    5000001    1    1    2    0    0  0.95708563954E+02 -0.54654106078E+02  0.61817269271E+02  0.20783064092E+03  0.16500000000E+03 0.  0.
   -5000001    1    1    2    0    0 -0.95708563954E+02  0.54654106078E+02 -0.26679868854E+03  0.33249622664E+03  0.16500000000E+03 0.  0.
<mgrwt>
<rscale>  0 0.49993574E+03</rscale>
<asrwt>0</asrwt>
<pdfrwt beam="1">  1        2 0.25795804E-01 0.49993574E+03</pdfrwt>
<pdfrwt beam="2">  1       -2 0.57331406E-01 0.49993574E+03</pdfrwt>
<totfact> 0.60675448E+02</totfact>
</mgrwt>
</event>
<event>
 4    1  0.8984293E-005  0.7600405E+03  0.7818608E-02  0.9619729E-01
         -2   -1    0    0    0  501 -0.00000000000E+00  0.00000000000E+00  0.55865704965E+03  0.55865704965E+03  0.25500000000E-02 0. -1.
          2   -1    0    0  501    0  0.00000000000E+00 -0.00000000000E+00 -0.25850456127E+03  0.25850456128E+03  0.25500000000E-02 0.  1.
    5000001    1    1    2    0    0  0.53224750743E+02  0.33619557309E+03  0.18928711744E+03  0.42298339245E+03  0.16500000000E+03 0.  0.
   -5000001    1    1    2    0    0 -0.53224750743E+02 -0.33619557309E+03  0.11086537093E+03  0.39417821849E+03  0.16500000000E+03 0.  0.
<mgrwt>
<rscale>  0 0.76004051E+03</rscale>
<asrwt>0</asrwt>
<pdfrwt beam="1">  1        2 0.39769933E-01 0.76004051E+03</pdfrwt>
<pdfrwt beam="2">  1       -2 0.85947238E-01 0.76004051E+03</pdfrwt>
<totfact> 0.15360617E+02</totfact>
</mgrwt>
</event>
<event>
 4    1  0.8984293E-005  0.4460311E+03  0.7818608E-02  0.1028912E+00
          2   -1    0    0  501    0  0.00000000000E+00  0.00000000000E+00  0.96472190616E+03  0.96472190616E+03  0.25500000000E-02 0.  1.
         -2   -1    0    0    0  501 -0.00000000000E+00 -0.00000000000E+00 -0.51554695272E+02  0.51554695335E+02  0.25500000000E-02 0. -1.
    5000001    1    1    2    0    0  0.11180447435E+03  0.75793276406E+02  0.30776357693E+03  0.37441725456E+03  0.16500000000E+03 0.  0.
   -5000001    1    1    2    0    0 -0.11180447435E+03 -0.75793276406E+02  0.60540363396E+03  0.64185934693E+03  0.16500000000E+03 0.  0.
<mgrwt>
<rscale>  0 0.44603114E+03</rscale>
<asrwt>0</asrwt>
<pdfrwt beam="1">  1        2 0.14841877E+00 0.44603114E+03</pdfrwt>
<pdfrwt beam="2">  1       -2 0.79314908E-02 0.44603114E+03</pdfrwt>
<totfact> 0.26547134E+03</totfact>
</mgrwt>
</event>
<event>
 4    1  0.8984293E-005  0.6627891E+03  0.7818608E-02  0.9783073E-01
          2   -1    0    0  501    0  0.00000000000E+00  0.00000000000E+00  0.12719435068E+04  0.12719435068E+04  0.25500000000E-02 0.  1.
         -2   -1    0    0    0  501 -0.00000000000E+00 -0.00000000000E+00 -0.86342145464E+02  0.86342145502E+02  0.25500000000E-02 0. -1.
    5000001    1    1    2    0    0 -0.48345423304E+02  0.25412125140E+03  0.84943965955E+03  0.90315426455E+03  0.16500000000E+03 0.  0.
   -5000001    1    1    2    0    0  0.48345423304E+02 -0.25412125140E+03  0.33616170179E+03  0.45513138776E+03  0.16500000000E+03 0.  0.
<mgrwt>
<rscale>  0 0.66278905E+03</rscale>
<asrwt>0</asrwt>
<pdfrwt beam="1">  1        2 0.19568361E+00 0.66278905E+03</pdfrwt>
<pdfrwt beam="2">  1       -2 0.13283407E-01 0.66278905E+03</pdfrwt>
<totfact> 0.74669839E+02</totfact>
</mgrwt>
</event>
<event>
 4    1  0.8984293E-005  0.3518304E+03  0.7818608E-02  0.1061866E+00
          2   -1    0    0  501    0  0.00000000000E+00  0.00000000000E+00  0.15162483536E+04  0.15162483536E+04  0.25500000000E-02 0.  1.
         -2   -1    0    0    0  501 -0.00000000000E+00 -0.00000000000E+00 -0.20409683777E+02  0.20409683936E+02  0.25500000000E-02 0. -1.
    5000001    1    1    2    0    0  0.19099112718E+02 -0.54329438400E+02  0.83578167846E+03  0.85385741083E+03  0.16500000000E+03 0.  0.
   -5000001    1    1    2    0    0 -0.19099112718E+02  0.54329438400E+02  0.66005699137E+03  0.68280062672E+03  0.16500000000E+03 0.  0.
<mgrwt>
<rscale>  0 0.35183035E+03</rscale>
<asrwt>0</asrwt>
<pdfrwt beam="1">  1        2 0.23326908E+00 0.35183035E+03</pdfrwt>
<pdfrwt beam="2">  1       -2 0.31399500E-02 0.35183035E+03</pdfrwt>
<totfact> 0.53039989E+03</totfact>
</mgrwt>
</event>
<event>
 4    1  0.8984293E-005  0.6509654E+03  0.7818608E-02  0.9804969E-01
         -2   -1    0    0    0  501 -0.00000000000E+00  0.00000000000E+00  0.48810064660E+02  0.48810064727E+02  0.25500000000E-02 0. -1.
          2   -1    0    0  501    0  0.00000000000E+00 -0.00000000000E+00 -0.21704335471E+04  0.21704335471E+04  0.25500000000E-02 0.  1.
    5000001    1    1    2    0    0 -0.57656268642E+02  0.17579209179E+03 -0.17798683821E+04  0.17970485699E+04  0.16500000000E+03 0.  0.
   -5000001    1    1    2    0    0  0.57656268642E+02 -0.17579209179E+03 -0.34175510033E+03  0.42219504195E+03  0.16500000000E+03 0.  0.
<mgrwt>
<rscale>  0 0.65096544E+03</rscale>
<asrwt>0</asrwt>
<pdfrwt beam="1">  1        2 0.33391278E+00 0.65096544E+03</pdfrwt>
<pdfrwt beam="2">  1       -2 0.75092424E-02 0.65096544E+03</pdfrwt>
<totfact> 0.60492641E+02</totfact>
</mgrwt>
</event>
<event>
 4    1  0.8984293E-005  0.4804135E+03  0.7818608E-02  0.1019022E+00
         -2   -1    0    0    0  501 -0.00000000000E+00  0.00000000000E+00  0.61589131261E+02  0.61589131314E+02  0.25500000000E-02 0. -1.
          2   -1    0    0  501    0  0.00000000000E+00 -0.00000000000E+00 -0.93684201431E+03  0.93684201431E+03  0.25500000000E-02 0.  1.
    5000001    1    1    2    0    0  0.15870260067E+02 -0.15193100103E+03 -0.26202280419E+03  0.34527647494E+03  0.16500000000E+03 0.  0.
   -5000001    1    1    2    0    0 -0.15870260067E+02  0.15193100103E+03 -0.61323007886E+03  0.65315467069E+03  0.16500000000E+03 0.  0.
<mgrwt>
<rscale>  0 0.48041351E+03</rscale>
<asrwt>0</asrwt>
<pdfrwt beam="1">  1        2 0.14412953E+00 0.48041351E+03</pdfrwt>
<pdfrwt beam="2">  1       -2 0.94752516E-02 0.48041351E+03</pdfrwt>
<totfact> 0.20835298E+03</totfact>
</mgrwt>
</event>
<event>
 4    1  0.8984293E-005  0.9067413E+03  0.7818608E-02  0.9417193E-01
         -2   -1    0    0    0  501 -0.00000000000E+00  0.00000000000E+00  0.24426151250E+03  0.24426151251E+03  0.25500000000E-02 0. -1.
          2   -1    0    0  501    0  0.00000000000E+00 -0.00000000000E+00 -0.84149548228E+03  0.84149548229E+03  0.25500000000E-02 0.  1.
    5000001    1    1    2    0    0  0.41531942212E+02 -0.38580529330E+03 -0.49808602461E+03  0.65259889249E+03  0.16500000000E+03 0.  0.
   -5000001    1    1    2    0    0 -0.41531942212E+02  0.38580529330E+03 -0.99147945171E+02  0.43315810231E+03  0.16500000000E+03 0.  0.
<mgrwt>
<rscale>  0 0.90674133E+03</rscale>
<asrwt>0</asrwt>
<pdfrwt beam="1">  1        2 0.12946084E+00 0.90674133E+03</pdfrwt>
<pdfrwt beam="2">  1       -2 0.37578695E-01 0.90674133E+03</pdfrwt>
<totfact> 0.21530274E+02</totfact>
</mgrwt>
</event>
<event>
 4    1  0.8984293E-005  0.3748816E+03  0.7818608E-02  0.1052842E+00
         -2   -1    0    0    0  501 -0.00000000000E+00  0.00000000000E+00  0.43704361293E+02  0.43704361367E+02  0.25500000000E-02 0. -1.
          2   -1    0    0  501    0  0.00000000000E+00 -0.00000000000E+00 -0.80390261327E+03  0.80390261327E+03  0.25500000000E-02 0.  1.
    5000001    1    1    2    0    0 -0.79200928742E+02 -0.34181331925E+02 -0.42900677765E+03  0.46766758048E+03  0.16500000000E+03 0.  0.
   -5000001    1    1    2    0    0  0.79200928742E+02  0.34181331925E+02 -0.33119147433E+03  0.37993939416E+03  0.16500000000E+03 0.  0.
<mgrwt>
<rscale>  0 0.37488158E+03</rscale>
<asrwt>0</asrwt>
<pdfrwt beam="1">  1        2 0.12367731E+00 0.37488158E+03</pdfrwt>
<pdfrwt beam="2">  1       -2 0.67237485E-02 0.37488158E+03</pdfrwt>
<totfact> 0.43955052E+03</totfact>
</mgrwt>
</event>
<event>
 4    1  0.8984293E-005  0.1126665E+04  0.7818608E-02  0.9179585E-01
         -2   -1    0    0    0  501 -0.00000000000E+00  0.00000000000E+00  0.28563089700E+03  0.28563089701E+03  0.25500000000E-02 0. -1.
          2   -1    0    0  501    0  0.00000000000E+00 -0.00000000000E+00 -0.11110262715E+04  0.11110262715E+04  0.25500000000E-02 0.  1.
    5000001    1    1    2    0    0 -0.45948154115E+03 -0.24932954693E+03 -0.57351622182E+03  0.79336899758E+03  0.16500000000E+03 0.  0.
   -5000001    1    1    2    0    0  0.45948154115E+03  0.24932954693E+03 -0.25187915267E+03  0.60328817093E+03  0.16500000000E+03 0.  0.
<mgrwt>
<rscale>  0 0.11266649E+04</rscale>
<asrwt>0</asrwt>
<pdfrwt beam="1">  1        2 0.17092712E+00 0.11266649E+04</pdfrwt>
<pdfrwt beam="2">  1       -2 0.43943215E-01 0.11266649E+04</pdfrwt>
<totfact> 0.10435377E+02</totfact>
</mgrwt>
</event>
<event>
 4    1  0.8984293E-005  0.1490339E+04  0.7818608E-02  0.8890903E-01
          2   -1    0    0  501    0  0.00000000000E+00  0.00000000000E+00  0.75400839983E+03  0.75400839984E+03  0.25500000000E-02 0.  1.
         -2   -1    0    0    0  501 -0.00000000000E+00 -0.00000000000E+00 -0.73643417261E+03  0.73643417262E+03  0.25500000000E-02 0. -1.
    5000001    1    1    2    0    0  0.51506462816E+03 -0.67212768333E+02  0.51699901268E+03  0.75121375555E+03  0.16500000000E+03 0.  0.
   -5000001    1    1    2    0    0 -0.51506462816E+03  0.67212768333E+02 -0.49942478546E+03  0.73922881691E+03  0.16500000000E+03 0.  0.
<mgrwt>
<rscale>  0 0.14903390E+04</rscale>
<asrwt>0</asrwt>
<pdfrwt beam="1">  1        2 0.11600129E+00 0.14903390E+04</pdfrwt>
<pdfrwt beam="2">  1       -2 0.11329756E+00 0.14903390E+04</pdfrwt>
<totfact> 0.22019487E+01</totfact>
</mgrwt>
</event>
<event>
 4    1  0.8984293E-005  0.5714023E+03  0.7818608E-02  0.9966580E-01
         -2   -1    0    0    0  501 -0.00000000000E+00  0.00000000000E+00  0.10148786858E+03  0.10148786861E+03  0.25500000000E-02 0. -1.
          2   -1    0    0  501    0  0.00000000000E+00 -0.00000000000E+00 -0.80428471460E+03  0.80428471461E+03  0.25500000000E-02 0.  1.
    5000001    1    1    2    0    0  0.18793148642E+03 -0.54999139404E+02 -0.15053109422E+03  0.29703157955E+03  0.16500000000E+03 0.  0.
   -5000001    1    1    2    0    0 -0.18793148642E+03  0.54999139404E+02 -0.55226575181E+03  0.60874100366E+03  0.16500000000E+03 0.  0.
<mgrwt>
<rscale>  0 0.57140228E+03</rscale>
<asrwt>0</asrwt>
<pdfrwt beam="1">  1        2 0.12373611E+00 0.57140228E+03</pdfrwt>
<pdfrwt beam="2">  1       -2 0.15613519E-01 0.57140228E+03</pdfrwt>
<totfact> 0.11249675E+03</totfact>
</mgrwt>
</event>
<event>
 4    1  0.8984293E-005  0.4638498E+03  0.7818608E-02  0.1023671E+00
         -2   -1    0    0    0  501 -0.00000000000E+00  0.00000000000E+00  0.20154566577E+02  0.20154566739E+02  0.25500000000E-02 0. -1.
          2   -1    0    0  501    0  0.00000000000E+00 -0.00000000000E+00 -0.26688318386E+04  0.26688318386E+04  0.25500000000E-02 0.  1.
    5000001    1    1    2    0    0 -0.13330461863E+03 -0.60104099382E+02 -0.90704661959E+03  0.93345658400E+03  0.16500000000E+03 0.  0.
   -5000001    1    1    2    0    0  0.13330461863E+03  0.60104099382E+02 -0.17416306524E+04  0.17555298213E+04  0.16500000000E+03 0.  0.
<mgrwt>
<rscale>  0 0.46384976E+03</rscale>
<asrwt>0</asrwt>
<pdfrwt beam="1">  1        2 0.41058923E+00 0.46384976E+03</pdfrwt>
<pdfrwt beam="2">  1       -2 0.31007047E-02 0.46384976E+03</pdfrwt>
<totfact> 0.12744387E+03</totfact>
</mgrwt>
</event>
<event>
 4    1  0.8984293E-005  0.3434814E+03  0.7818608E-02  0.1065323E+00
          2   -1    0    0  501    0  0.00000000000E+00  0.00000000000E+00  0.12883319419E+04  0.12883319419E+04  0.25500000000E-02 0.  1.
         -2   -1    0    0    0  501 -0.00000000000E+00 -0.00000000000E+00 -0.22893839679E+02  0.22893839821E+02  0.25500000000E-02 0. -1.
    5000001    1    1    2    0    0 -0.40993265412E+02  0.50475801711E+01  0.54206433531E+03  0.56812381528E+03  0.16500000000E+03 0.  0.
   -5000001    1    1    2    0    0  0.40993265412E+02 -0.50475801711E+01  0.72337376688E+03  0.74310196641E+03  0.16500000000E+03 0.  0.
<mgrwt>
<rscale>  0 0.34348138E+03</rscale>
<asrwt>0</asrwt>
<pdfrwt beam="1">  1        2 0.19820492E+00 0.34348138E+03</pdfrwt>
<pdfrwt beam="2">  1       -2 0.35221291E-02 0.34348138E+03</pdfrwt>
<totfact> 0.59515869E+03</totfact>
</mgrwt>
</event>
<event>
 4    1  0.8984293E-005  0.3660876E+03  0.7818608E-02  0.1056199E+00
         -2   -1    0    0    0  501 -0.00000000000E+00  0.00000000000E+00  0.89605008239E+02  0.89605008276E+02  0.25500000000E-02 0. -1.
          2   -1    0    0  501    0  0.00000000000E+00 -0.00000000000E+00 -0.37391925415E+03  0.37391925416E+03  0.25500000000E-02 0.  1.
    5000001    1    1    2    0    0  0.72212536910E+02 -0.10004011129E+02 -0.10281840726E+03  0.20763274211E+03  0.16500000000E+03 0.  0.
   -5000001    1    1    2    0    0 -0.72212536910E+02  0.10004011129E+02 -0.18149583866E+03  0.25589152033E+03  0.16500000000E+03 0.  0.
<mgrwt>
<rscale>  0 0.36608763E+03</rscale>
<asrwt>0</asrwt>
<pdfrwt beam="1">  1        2 0.57526038E-01 0.36608763E+03</pdfrwt>
<pdfrwt beam="2">  1       -2 0.13785386E-01 0.36608763E+03</pdfrwt>
<totfact> 0.34010482E+03</totfact>
</mgrwt>
</event>
<event>
 4    1  0.8984293E-005  0.5699406E+03  0.7818608E-02  0.9969810E-01
          2   -1    0    0  501    0  0.00000000000E+00  0.00000000000E+00  0.15178729340E+04  0.15178729340E+04  0.25500000000E-02 0.  1.
         -2   -1    0    0    0  501 -0.00000000000E+00 -0.00000000000E+00 -0.53501226234E+02  0.53501226295E+02  0.25500000000E-02 0. -1.
    5000001    1    1    2    0    0 -0.32688219865E+02 -0.35642680086E+02  0.13587428335E+04  0.13695787702E+04  0.16500000000E+03 0.  0.
   -5000001    1    1    2    0    0  0.32688219865E+02  0.35642680086E+02  0.10562887427E+03  0.20179539004E+03  0.16500000000E+03 0.  0.
<mgrwt>
<rscale>  0 0.56994057E+03</rscale>
<asrwt>0</asrwt>
<pdfrwt beam="1">  1        2 0.23351891E+00 0.56994057E+03</pdfrwt>
<pdfrwt beam="2">  1       -2 0.82309580E-02 0.56994057E+03</pdfrwt>
<totfact> 0.11890276E+03</totfact>
</mgrwt>
</event>
<event>
 4    1  0.8984293E-005  0.7304106E+03  0.7818608E-02  0.9666594E-01
         -2   -1    0    0    0  501 -0.00000000000E+00  0.00000000000E+00  0.14850637864E+03  0.14850637866E+03  0.25500000000E-02 0. -1.
          2   -1    0    0  501    0  0.00000000000E+00 -0.00000000000E+00 -0.89810908070E+03  0.89810908070E+03  0.25500000000E-02 0.  1.
    5000001    1    1    2    0    0  0.29115615789E+03 -0.13020868287E+03 -0.47010592864E+03  0.59156638978E+03  0.16500000000E+03 0.  0.
   -5000001    1    1    2    0    0 -0.29115615789E+03  0.13020868287E+03 -0.27949677342E+03  0.45504906958E+03  0.16500000000E+03 0.  0.
<mgrwt>
<rscale>  0 0.73041064E+03</rscale>
<asrwt>0</asrwt>
<pdfrwt beam="1">  1        2 0.13817062E+00 0.73041064E+03</pdfrwt>
<pdfrwt beam="2">  1       -2 0.22847136E-01 0.73041064E+03</pdfrwt>
<totfact> 0.49862360E+02</totfact>
</mgrwt>
</event>
<event>
 4    1  0.8984293E-005  0.6421531E+03  0.7818608E-02  0.9821616E-01
         -2   -1    0    0    0  501 -0.00000000000E+00  0.00000000000E+00  0.80875320880E+02  0.80875320920E+02  0.25500000000E-02 0. -1.
          2   -1    0    0  501    0  0.00000000000E+00 -0.00000000000E+00 -0.12746801364E+04  0.12746801364E+04  0.25500000000E-02 0.  1.
    5000001    1    1    2    0    0 -0.10616173860E+03 -0.14191324380E+03 -0.15181907010E+03  0.28580362761E+03  0.16500000000E+03 0.  0.
   -5000001    1    1    2    0    0  0.10616173860E+03  0.14191324380E+03 -0.10419857454E+04  0.10697518297E+04  0.16500000000E+03 0.  0.
<mgrwt>
<rscale>  0 0.64215314E+03</rscale>
<asrwt>0</asrwt>
<pdfrwt beam="1">  1        2 0.19610462E+00 0.64215314E+03</pdfrwt>
<pdfrwt beam="2">  1       -2 0.12442358E-01 0.64215314E+03</pdfrwt>
<totfact> 0.83008257E+02</totfact>
</mgrwt>
</event>
<event>
 4    1  0.8984293E-005  0.3744678E+03  0.7818608E-02  0.1052998E+00
          2   -1    0    0  501    0  0.00000000000E+00  0.00000000000E+00  0.31691322787E+03  0.31691322789E+03  0.25500000000E-02 0.  1.
         -2   -1    0    0    0  501 -0.00000000000E+00 -0.00000000000E+00 -0.11061870174E+03  0.11061870177E+03  0.25500000000E-02 0. -1.
    5000001    1    1    2    0    0 -0.76816130372E+02 -0.33553863980E+01  0.53126053490E+02  0.18962951791E+03  0.16500000000E+03 0.  0.
   -5000001    1    1    2    0    0  0.76816130372E+02  0.33553863980E+01  0.15316847264E+03  0.23790241175E+03  0.16500000000E+03 0.  0.
<mgrwt>
<rscale>  0 0.37446778E+03</rscale>
<asrwt>0</asrwt>
<pdfrwt beam="1">  1        2 0.48755880E-01 0.37446778E+03</pdfrwt>
<pdfrwt beam="2">  1       -2 0.17018262E-01 0.37446778E+03</pdfrwt>
<totfact> 0.28672947E+03</totfact>
</mgrwt>
</event>
<event>
 4    1  0.8984293E-005  0.8146732E+03  0.7818608E-02  0.9539018E-01
         -2   -1    0    0    0  501 -0.00000000000E+00  0.00000000000E+00  0.74565397743E+03  0.74565397743E+03  0.25500000000E-02 0. -1.
          2   -1    0    0  501    0  0.00000000000E+00 -0.00000000000E+00 -0.22252024539E+03  0.22252024540E+03  0.25500000000E-02 0.  1.
    5000001    1    1    2    0    0 -0.14323582180E+03 -0.23276582869E+03 -0.39086280527E+02  0.32163514885E+03  0.16500000000E+03 0.  0.
   -5000001    1    1    2    0    0  0.14323582180E+03  0.23276582869E+03  0.56222001257E+03  0.64653907398E+03  0.16500000000E+03 0.  0.
<mgrwt>
<rscale>  0 0.81467320E+03</rscale>
<asrwt>0</asrwt>
<pdfrwt beam="1">  1        2 0.34233884E-01 0.81467320E+03</pdfrwt>
<pdfrwt beam="2">  1       -2 0.11471600E+00 0.81467320E+03</pdfrwt>
<totfact> 0.91569194E+01</totfact>
</mgrwt>
</event>
<event>
 4    1  0.8984293E-005  0.7786309E+03  0.7818608E-02  0.9591474E-01
         -2   -1    0    0    0  501 -0.00000000000E+00  0.00000000000E+00  0.21310926675E+03  0.21310926676E+03  0.25500000000E-02 0.  1.
          2   -1    0    0  501    0  0.00000000000E+00 -0.00000000000E+00 -0.71121508086E+03  0.71121508086E+03  0.25500000000E-02 0. -1.
    5000001    1    1    2    0    0  0.10242065479E+03  0.16887907235E+03  0.97721604353E+02  0.27529010800E+03  0.16500000000E+03 0.  0.
   -5000001    1    1    2    0    0 -0.10242065479E+03 -0.16887907235E+03 -0.59582741846E+03  0.64903423962E+03  0.16500000000E+03 0.  0.
<mgrwt>
<rscale>  0 0.77863091E+03</rscale>
<asrwt>0</asrwt>
<pdfrwt beam="1">  1        2 0.10941770E+00 0.77863091E+03</pdfrwt>
<pdfrwt beam="2">  1       -2 0.32786041E-01 0.77863091E+03</pdfrwt>
<totfact> 0.35023402E+02</totfact>
</mgrwt>
</event>
<event>
 4    1  0.8984293E-005  0.6931642E+03  0.7818608E-02  0.9728994E-01
          2   -1    0    0  501    0  0.00000000000E+00  0.00000000000E+00  0.74458787362E+03  0.74458787363E+03  0.25500000000E-02 0.  1.
         -2   -1    0    0    0  501 -0.00000000000E+00 -0.00000000000E+00 -0.16132298887E+03  0.16132298889E+03  0.25500000000E-02 0. -1.
    5000001    1    1    2    0    0 -0.26498661066E+03 -0.15044051315E+03  0.28297420704E+03  0.44738088211E+03  0.16500000000E+03 0.  0.
   -5000001    1    1    2    0    0  0.26498661066E+03  0.15044051315E+03  0.30029067770E+03  0.45852998041E+03  0.16500000000E+03 0.  0.
<mgrwt>
<rscale>  0 0.69316417E+03</rscale>
<asrwt>0</asrwt>
<pdfrwt beam="1">  1        2 0.11455199E+00 0.69316417E+03</pdfrwt>
<pdfrwt beam="2">  1       -2 0.24818920E-01 0.69316417E+03</pdfrwt>
<totfact> 0.55301188E+02</totfact>
</mgrwt>
</event>
<event>
 4    1  0.8984293E-005  0.4778688E+03  0.7818608E-02  0.1019723E+00
          2   -1    0    0  501    0  0.00000000000E+00  0.00000000000E+00  0.13646917811E+04  0.13646917811E+04  0.25500000000E-02 0.  1.
         -2   -1    0    0    0  501 -0.00000000000E+00 -0.00000000000E+00 -0.41833360026E+02  0.41833360103E+02  0.25500000000E-02 0. -1.
    5000001    1    1    2    0    0  0.95827435982E+02  0.11027598109E+03  0.38973340699E+03  0.44772850928E+03  0.16500000000E+03 0.  0.
   -5000001    1    1    2    0    0 -0.95827435982E+02 -0.11027598109E+03  0.93312501408E+03  0.95879663192E+03  0.16500000000E+03 0.  0.
<mgrwt>
<rscale>  0 0.47786878E+03</rscale>
<asrwt>0</asrwt>
<pdfrwt beam="1">  1        2 0.20995257E+00 0.47786878E+03</pdfrwt>
<pdfrwt beam="2">  1       -2 0.64359018E-02 0.47786878E+03</pdfrwt>
<totfact> 0.21393026E+03</totfact>
</mgrwt>
</event>
<event>
 4    1  0.8984293E-005  0.5648464E+03  0.7818608E-02  0.9981148E-01
          2   -1    0    0  501    0  0.00000000000E+00  0.00000000000E+00  0.30905704422E+03  0.30905704423E+03  0.25500000000E-02 0.  1.
         -2   -1    0    0    0  501 -0.00000000000E+00 -0.00000000000E+00 -0.25808460387E+03  0.25808460389E+03  0.25500000000E-02 0. -1.
    5000001    1    1    2    0    0  0.20939167066E+03 -0.89620230593E+02 -0.33222082700E+00  0.28125036505E+03  0.16500000000E+03 0.  0.
   -5000001    1    1    2    0    0 -0.20939167066E+03  0.89620230593E+02  0.51304661170E+02  0.28589128306E+03  0.16500000000E+03 0.  0.
<mgrwt>
<rscale>  0 0.56484640E+03</rscale>
<asrwt>0</asrwt>
<pdfrwt beam="1">  1        2 0.47547238E-01 0.56484640E+03</pdfrwt>
<pdfrwt beam="2">  1       -2 0.39705324E-01 0.56484640E+03</pdfrwt>
<totfact> 0.64143607E+02</totfact>
</mgrwt>
</event>
<event>
 4    1  0.8984293E-005  0.6299853E+03  0.7818608E-02  0.9845077E-01
         -2   -1    0    0    0  501 -0.00000000000E+00  0.00000000000E+00  0.58323765078E+02  0.58323765134E+02  0.25500000000E-02 0. -1.
          2   -1    0    0  501    0  0.00000000000E+00 -0.00000000000E+00 -0.17011997051E+04  0.17011997051E+04  0.25500000000E-02 0.  1.
    5000001    1    1    2    0    0  0.61380310784E+02  0.20237241025E+03 -0.12826843668E+04  0.13104298225E+04  0.16500000000E+03 0.  0.
   -5000001    1    1    2    0    0 -0.61380310784E+02 -0.20237241025E+03 -0.36019157328E+03  0.44909364774E+03  0.16500000000E+03 0.  0.
<mgrwt>
<rscale>  0 0.62998531E+03</rscale>
<asrwt>0</asrwt>
<pdfrwt beam="1">  1        2 0.26172299E+00 0.62998531E+03</pdfrwt>
<pdfrwt beam="2">  1       -2 0.89728883E-02 0.62998531E+03</pdfrwt>
<totfact> 0.81959767E+02</totfact>
</mgrwt>
</event>
<event>
 4    1  0.8984293E-005  0.3925747E+03  0.7818608E-02  0.1046382E+00
         -2   -1    0    0    0  501 -0.00000000000E+00  0.00000000000E+00  0.10416601845E+03  0.10416601848E+03  0.25500000000E-02 0. -1.
          2   -1    0    0  501    0  0.00000000000E+00 -0.00000000000E+00 -0.36987796453E+03  0.36987796454E+03  0.25500000000E-02 0.  1.
    5000001    1    1    2    0    0 -0.91913202185E+02  0.19146138223E+02 -0.19310053658E+03  0.27079037755E+03  0.16500000000E+03 0.  0.
   -5000001    1    1    2    0    0  0.91913202185E+02 -0.19146138223E+02 -0.72611409495E+02  0.20325360546E+03  0.16500000000E+03 0.  0.
<mgrwt>
<rscale>  0 0.39257465E+03</rscale>
<asrwt>0</asrwt>
<pdfrwt beam="1">  1        2 0.56904302E-01 0.39257465E+03</pdfrwt>
<pdfrwt beam="2">  1       -2 0.16025541E-01 0.39257465E+03</pdfrwt>
<totfact> 0.26820113E+03</totfact>
</mgrwt>
</event>
<event>
 4    1  0.8984293E-005  0.5299450E+03  0.7818608E-02  0.1006245E+00
          2   -1    0    0  501    0  0.00000000000E+00  0.00000000000E+00  0.45907720870E+03  0.45907720871E+03  0.25500000000E-02 0.  1.
         -2   -1    0    0    0  501 -0.00000000000E+00 -0.00000000000E+00 -0.15293817395E+03  0.15293817397E+03  0.25500000000E-02 0. -1.
    5000001    1    1    2    0    0  0.99323514813E+02 -0.11052143383E+03  0.32004762770E+03  0.38953258135E+03  0.16500000000E+03 0.  0.
   -5000001    1    1    2    0    0 -0.99323514813E+02  0.11052143383E+03 -0.13908592954E+02  0.22248280133E+03  0.16500000000E+03 0.  0.
<mgrwt>
<rscale>  0 0.52994502E+03</rscale>
<asrwt>0</asrwt>
<pdfrwt beam="1">  1        2 0.70627263E-01 0.52994502E+03</pdfrwt>
<pdfrwt beam="2">  1       -2 0.23528950E-01 0.52994502E+03</pdfrwt>
<totfact> 0.10888753E+03</totfact>
</mgrwt>
</event>
<event>
 4    1  0.8984293E-005  0.9369161E+03  0.7818608E-02  0.9380576E-01
         -2   -1    0    0    0  501 -0.00000000000E+00  0.00000000000E+00  0.81831530503E+03  0.81831530504E+03  0.25500000000E-02 0. -1.
          2   -1    0    0  501    0  0.00000000000E+00 -0.00000000000E+00 -0.26817650720E+03  0.26817650721E+03  0.25500000000E-02 0.  1.
    5000001    1    1    2    0    0  0.17645360677E+03  0.29115907917E+03  0.59543106731E+03  0.70545917008E+03  0.16500000000E+03 0.  0.
   -5000001    1    1    2    0    0 -0.17645360677E+03 -0.29115907917E+03 -0.45292269482E+02  0.38103264217E+03  0.16500000000E+03 0.  0.
<mgrwt>
<rscale>  0 0.93691609E+03</rscale>
<asrwt>0</asrwt>
<pdfrwt beam="1">  1        2 0.41257925E-01 0.93691609E+03</pdfrwt>
<pdfrwt beam="2">  1       -2 0.12589466E+00 0.93691609E+03</pdfrwt>
<totfact> 0.58657537E+01</totfact>
</mgrwt>
</event>
<event>
 4    1  0.8984293E-005  0.4691501E+03  0.7818608E-02  0.1022160E+00
         -2   -1    0    0    0  501 -0.00000000000E+00  0.00000000000E+00  0.47256986805E+02  0.47256986873E+02  0.25500000000E-02 0. -1.
          2   -1    0    0  501    0  0.00000000000E+00 -0.00000000000E+00 -0.11643879122E+04  0.11643879122E+04  0.25500000000E-02 0.  1.
    5000001    1    1    2    0    0 -0.12867614562E+03 -0.42495485845E+02 -0.30767648903E+03  0.37450399020E+03  0.16500000000E+03 0.  0.
   -5000001    1    1    2    0    0  0.12867614562E+03  0.42495485845E+02 -0.80945443632E+03  0.83714090884E+03  0.16500000000E+03 0.  0.
<mgrwt>
<rscale>  0 0.46915014E+03</rscale>
<asrwt>0</asrwt>
<pdfrwt beam="1">  1        2 0.17913658E+00 0.46915014E+03</pdfrwt>
<pdfrwt beam="2">  1       -2 0.72703066E-02 0.46915014E+03</pdfrwt>
<totfact> 0.23007224E+03</totfact>
</mgrwt>
</event>
<event>
 4    1  0.8984293E-005  0.4032581E+03  0.7818608E-02  0.1042657E+00
         -2   -1    0    0    0  501 -0.00000000000E+00  0.00000000000E+00  0.36307667256E+02  0.36307667346E+02  0.25500000000E-02 0. -1.
          2   -1    0    0  501    0  0.00000000000E+00 -0.00000000000E+00 -0.11197159121E+04  0.11197159121E+04  0.25500000000E-02 0.  1.
    5000001    1    1    2    0    0  0.74837516435E+02 -0.80068319844E+02 -0.43376641747E+03  0.47685416495E+03  0.16500000000E+03 0.  0.
   -5000001    1    1    2    0    0 -0.74837516435E+02  0.80068319844E+02 -0.64964182733E+03  0.67916941445E+03  0.16500000000E+03 0.  0.
<mgrwt>
<rscale>  0 0.40325810E+03</rscale>
<asrwt>0</asrwt>
<pdfrwt beam="1">  1        2 0.17226396E+00 0.40325810E+03</pdfrwt>
<pdfrwt beam="2">  1       -2 0.55857958E-02 0.40325810E+03</pdfrwt>
<totfact> 0.36882907E+03</totfact>
</mgrwt>
</event>
<event>
 4    1  0.8984293E-005  0.4469878E+03  0.7818608E-02  0.1028624E+00
         -2   -1    0    0    0  501 -0.00000000000E+00  0.00000000000E+00  0.12217984748E+02  0.12217985014E+02  0.25500000000E-02 0. -1.
          2   -1    0    0  501    0  0.00000000000E+00 -0.00000000000E+00 -0.40881969897E+04  0.40881969897E+04  0.25500000000E-02 0.  1.
    5000001    1    1    2    0    0  0.20276645890E+02  0.72987190430E+02 -0.32335758789E+04  0.32386688990E+04  0.16500000000E+03 0.  0.
   -5000001    1    1    2    0    0 -0.20276645890E+02 -0.72987190430E+02 -0.84240312599E+03  0.86174607571E+03  0.16500000000E+03 0.  0.
<mgrwt>
<rscale>  0 0.44698783E+03</rscale>
<asrwt>0</asrwt>
<pdfrwt beam="1">  1        2 0.62895229E+00 0.44698783E+03</pdfrwt>
<pdfrwt beam="2">  1       -2 0.18796932E-02 0.44698783E+03</pdfrwt>
<totfact> 0.30925721E+02</totfact>
</mgrwt>
</event>
<event>
 4    1  0.8984293E-005  0.1055791E+04  0.7818608E-02  0.9249386E-01
         -2   -1    0    0    0  501 -0.00000000000E+00  0.00000000000E+00  0.42693847133E+03  0.42693847134E+03  0.25500000000E-02 0.  1.
          2   -1    0    0  501    0  0.00000000000E+00 -0.00000000000E+00 -0.65272553746E+03  0.65272553746E+03  0.25500000000E-02 0. -1.
    5000001    1    1    2    0    0 -0.33336657867E+03 -0.37294742157E+03 -0.14869352715E+03  0.54731875543E+03  0.16500000000E+03 0.  0.
   -5000001    1    1    2    0    0  0.33336657867E+03  0.37294742157E+03 -0.77093538974E+02  0.53234525337E+03  0.16500000000E+03 0.  0.
<mgrwt>
<rscale>  0 0.10557910E+04</rscale>
<asrwt>0</asrwt>
<pdfrwt beam="1">  1        2 0.10041931E+00 0.10557910E+04</pdfrwt>
<pdfrwt beam="2">  1       -2 0.65682842E-01 0.10557910E+04</pdfrwt>
<totfact> 0.95096985E+01</totfact>
</mgrwt>
</event>
<event>
 4    1  0.8984293E-005  0.4382675E+03  0.7818608E-02  0.1031280E+00
          2   -1    0    0  501    0  0.00000000000E+00  0.00000000000E+00  0.99596732482E+03  0.99596732482E+03  0.25500000000E-02 0.  1.
         -2   -1    0    0    0  501 -0.00000000000E+00 -0.00000000000E+00 -0.48214038760E+02  0.48214038828E+02  0.25500000000E-02 0. -1.
    5000001    1    1    2    0    0  0.72791365510E+02  0.96854451644E+02  0.66018973666E+03  0.69119813085E+03  0.16500000000E+03 0.  0.
   -5000001    1    1    2    0    0 -0.72791365510E+02 -0.96854451644E+02  0.28756354939E+03  0.35298323280E+03  0.16500000000E+03 0.  0.
<mgrwt>
<rscale>  0 0.43826753E+03</rscale>
<asrwt>0</asrwt>
<pdfrwt beam="1">  1        2 0.15322573E+00 0.43826753E+03</pdfrwt>
<pdfrwt beam="2">  1       -2 0.74175452E-02 0.43826753E+03</pdfrwt>
<totfact> 0.28196799E+03</totfact>
</mgrwt>
</event>
<event>
 4    1  0.8984293E-005  0.7448756E+03  0.7818608E-02  0.9643424E-01
          2   -1    0    0  501    0  0.00000000000E+00  0.00000000000E+00  0.79551770931E+02  0.79551770972E+02  0.25500000000E-02 0.  1.
         -2   -1    0    0    0  501 -0.00000000000E+00 -0.00000000000E+00 -0.17436434599E+04  0.17436434599E+04  0.25500000000E-02 0. -1.
    5000001    1    1    2    0    0  0.21442966541E+03 -0.12903364804E+03 -0.29103665996E+03  0.41780031256E+03  0.16500000000E+03 0.  0.
   -5000001    1    1    2    0    0 -0.21442966541E+03  0.12903364804E+03 -0.13730550290E+04  0.14053949183E+04  0.16500000000E+03 0.  0.
<mgrwt>
<rscale>  0 0.74487563E+03</rscale>
<asrwt>0</asrwt>
<pdfrwt beam="1">  1        2 0.12238735E-01 0.74487563E+03</pdfrwt>
<pdfrwt beam="2">  1       -2 0.26825281E+00 0.74487563E+03</pdfrwt>
<totfact> 0.26431312E+01</totfact>
</mgrwt>
</event>
<event>
 4    1  0.8984293E-005  0.9444559E+03  0.7818608E-02  0.9371654E-01
         -2   -1    0    0    0  501 -0.00000000000E+00  0.00000000000E+00  0.20683813114E+03  0.20683813116E+03  0.25500000000E-02 0. -1.
          2   -1    0    0  501    0  0.00000000000E+00 -0.00000000000E+00 -0.10781340608E+04  0.10781340608E+04  0.25500000000E-02 0.  1.
    5000001    1    1    2    0    0 -0.16465310217E+03  0.42238782612E+02 -0.99144152536E+03  0.10193508017E+04  0.16500000000E+03 0.  0.
   -5000001    1    1    2    0    0  0.16465310217E+03 -0.42238782612E+02  0.12014559566E+03  0.26562139026E+03  0.16500000000E+03 0.  0.
<mgrwt>
<rscale>  0 0.94445589E+03</rscale>
<asrwt>0</asrwt>
<pdfrwt beam="1">  1        2 0.16586678E+00 0.94445589E+03</pdfrwt>
<pdfrwt beam="2">  1       -2 0.31821252E-01 0.94445589E+03</pdfrwt>
<totfact> 0.20624334E+02</totfact>
</mgrwt>
</event>
<event>
 4    1  0.8984293E-005  0.5500876E+03  0.7818608E-02  0.1001474E+00
          2   -1    0    0  501    0  0.00000000000E+00  0.00000000000E+00  0.19139835353E+04  0.19139835353E+04  0.25500000000E-02 0.  1.
         -2   -1    0    0    0  501 -0.00000000000E+00 -0.00000000000E+00 -0.39524419606E+02  0.39524419688E+02  0.25500000000E-02 0. -1.
    5000001    1    1    2    0    0 -0.13487381655E+03  0.11037364102E+03  0.14143539098E+04  0.14345714584E+04  0.16500000000E+03 0.  0.
   -5000001    1    1    2    0    0  0.13487381655E+03 -0.11037364102E+03  0.46010520588E+03  0.51893649660E+03  0.16500000000E+03 0.  0.
<mgrwt>
<rscale>  0 0.55008759E+03</rscale>
<asrwt>0</asrwt>
<pdfrwt beam="1">  1        2 0.29445898E+00 0.55008759E+03</pdfrwt>
<pdfrwt beam="2">  1       -2 0.60806805E-02 0.55008759E+03</pdfrwt>
<totfact> 0.11707843E+03</totfact>
</mgrwt>
</event>
<event>
 4    1  0.8984293E-005  0.1313535E+04  0.7818608E-02  0.9018900E-01
         -2   -1    0    0    0  501 -0.00000000000E+00  0.00000000000E+00  0.16150625769E+03  0.16150625771E+03  0.25500000000E-02 0. -1.
          2   -1    0    0  501    0  0.00000000000E+00 -0.00000000000E+00 -0.26707546400E+04  0.26707546400E+04  0.25500000000E-02 0.  1.
    5000001    1    1    2    0    0  0.28651707006E+03 -0.52316120988E+03 -0.17286424404E+04  0.18360880615E+04  0.16500000000E+03 0.  0.
   -5000001    1    1    2    0    0 -0.28651707006E+03  0.52316120988E+03 -0.78060594188E+03  0.99617283614E+03  0.16500000000E+03 0.  0.
<mgrwt>
<rscale>  0 0.13135351E+04</rscale>
<asrwt>0</asrwt>
<pdfrwt beam="1">  1        2 0.41088529E+00 0.13135351E+04</pdfrwt>
<pdfrwt beam="2">  1       -2 0.24847119E-01 0.13135351E+04</pdfrwt>
<totfact> 0.39522574E+01</totfact>
</mgrwt>
</event>
<event>
 4    1  0.8984293E-005  0.4335317E+03  0.7818608E-02  0.1032750E+00
          2   -1    0    0  501    0  0.00000000000E+00  0.00000000000E+00  0.86492173114E+03  0.86492173115E+03  0.25500000000E-02 0.  1.
         -2   -1    0    0    0  501 -0.00000000000E+00 -0.00000000000E+00 -0.54325650893E+02  0.54325650953E+02  0.25500000000E-02 0. -1.
    5000001    1    1    2    0    0  0.23884866884E+02  0.11433669902E+03  0.57116282412E+03  0.60588393217E+03  0.16500000000E+03 0.  0.
   -5000001    1    1    2    0    0 -0.23884866884E+02 -0.11433669902E+03  0.23943325613E+03  0.31336344993E+03  0.16500000000E+03 0.  0.
<mgrwt>
<rscale>  0 0.43353171E+03</rscale>
<asrwt>0</asrwt>
<pdfrwt beam="1">  1        2 0.13306488E+00 0.43353171E+03</pdfrwt>
<pdfrwt beam="2">  1       -2 0.83577927E-02 0.43353171E+03</pdfrwt>
<totfact> 0.28394688E+03</totfact>
</mgrwt>
</event>
<event>
 4    1  0.8984293E-005  0.6168989E+03  0.7818608E-02  0.9870953E-01
          2   -1    0    0  501    0  0.00000000000E+00  0.00000000000E+00  0.24406415825E+04  0.24406415825E+04  0.25500000000E-02 0.  1.
         -2   -1    0    0    0  501 -0.00000000000E+00 -0.00000000000E+00 -0.38981992588E+02  0.38981992671E+02  0.25500000000E-02 0. -1.
    5000001    1    1    2    0    0 -0.38250703257E+02  0.22308963442E+03  0.68164561301E+03  0.73695172367E+03  0.16500000000E+03 0.  0.
   -5000001    1    1    2    0    0  0.38250703257E+02 -0.22308963442E+03  0.17200139769E+04  0.17426718515E+04  0.16500000000E+03 0.  0.
<mgrwt>
<rscale>  0 0.61689893E+03</rscale>
<asrwt>0</asrwt>
<pdfrwt beam="1">  1        2 0.37548324E+00 0.61689893E+03</pdfrwt>
<pdfrwt beam="2">  1       -2 0.59972310E-02 0.61689893E+03</pdfrwt>
<totfact> 0.61318416E+02</totfact>
</mgrwt>
</event>
<event>
 4    1  0.8984293E-005  0.4609441E+03  0.7818608E-02  0.1024508E+00
          2   -1    0    0  501    0  0.00000000000E+00  0.00000000000E+00  0.18304531228E+04  0.18304531228E+04  0.25500000000E-02 0.  1.
         -2   -1    0    0    0  501 -0.00000000000E+00 -0.00000000000E+00 -0.29018693319E+02  0.29018693431E+02  0.25500000000E-02 0. -1.
    5000001    1    1    2    0    0 -0.14546171584E+03 -0.57601083482E+02  0.10524834589E+04  0.10767652608E+04  0.16500000000E+03 0.  0.
   -5000001    1    1    2    0    0  0.14546171584E+03  0.57601083482E+02  0.74895097056E+03  0.78270655541E+03  0.16500000000E+03 0.  0.
<mgrwt>
<rscale>  0 0.46094407E+03</rscale>
<asrwt>0</asrwt>
<pdfrwt beam="1">  1        2 0.28160819E+00 0.46094407E+03</pdfrwt>
<pdfrwt beam="2">  1       -2 0.44644140E-02 0.46094407E+03</pdfrwt>
<totfact> 0.21047697E+03</totfact>
</mgrwt>
</event>
<event>
 4    1  0.8984293E-005  0.4467592E+03  0.7818608E-02  0.1028693E+00
          2   -1    0    0  501    0  0.00000000000E+00  0.00000000000E+00  0.95457385855E+03  0.95457385856E+03  0.25500000000E-02 0.  1.
         -2   -1    0    0    0  501 -0.00000000000E+00 -0.00000000000E+00 -0.52273013710E+02  0.52273013772E+02  0.25500000000E-02 0. -1.
    5000001    1    1    2    0    0  0.13693732506E+03 -0.60332188056E+02  0.48897234726E+03  0.53731811834E+03  0.16500000000E+03 0.  0.
   -5000001    1    1    2    0    0 -0.13693732506E+03  0.60332188056E+02  0.41332849758E+03  0.46952875399E+03  0.16500000000E+03 0.  0.
<mgrwt>
<rscale>  0 0.44675923E+03</rscale>
<asrwt>0</asrwt>
<pdfrwt beam="1">  1        2 0.14685751E+00 0.44675923E+03</pdfrwt>
<pdfrwt beam="2">  1       -2 0.80420026E-02 0.44675923E+03</pdfrwt>
<totfact> 0.26362277E+03</totfact>
</mgrwt>
</event>
<event>
 4    1  0.8984293E-005  0.4519841E+03  0.7818608E-02  0.1027132E+00
          2   -1    0    0  501    0  0.00000000000E+00  0.00000000000E+00  0.18729373097E+04  0.18729373097E+04  0.25500000000E-02 0.  1.
         -2   -1    0    0    0  501 -0.00000000000E+00 -0.00000000000E+00 -0.27268612580E+02  0.27268612699E+02  0.25500000000E-02 0. -1.
    5000001    1    1    2    0    0  0.14701537111E+03 -0.22202537235E+02  0.74741876038E+03  0.77972192182E+03  0.16500000000E+03 0.  0.
   -5000001    1    1    2    0    0 -0.14701537111E+03  0.22202537235E+02  0.10982499367E+04  0.11204840006E+04  0.16500000000E+03 0.  0.
<mgrwt>
<rscale>  0 0.45198408E+03</rscale>
<asrwt>0</asrwt>
<pdfrwt beam="1">  1        2 0.28814430E+00 0.45198408E+03</pdfrwt>
<pdfrwt beam="2">  1       -2 0.41951698E-02 0.45198408E+03</pdfrwt>
<totfact> 0.21978638E+03</totfact>
</mgrwt>
</event>
<event>
 4    1  0.8984293E-005  0.5062507E+03  0.7818608E-02  0.1012160E+00
         -2   -1    0    0    0  501 -0.00000000000E+00  0.00000000000E+00  0.58199841315E+02  0.58199841371E+02  0.25500000000E-02 0. -1.
          2   -1    0    0  501    0  0.00000000000E+00 -0.00000000000E+00 -0.11009040373E+04  0.11009040373E+04  0.25500000000E-02 0.  1.
    5000001    1    1    2    0    0  0.15963794478E+03  0.10253801560E+03 -0.45463427889E+03  0.51953406587E+03  0.16500000000E+03 0.  0.
   -5000001    1    1    2    0    0 -0.15963794478E+03 -0.10253801560E+03 -0.58806991707E+03  0.63956981278E+03  0.16500000000E+03 0.  0.
<mgrwt>
<rscale>  0 0.50625069E+03</rscale>
<asrwt>0</asrwt>
<pdfrwt beam="1">  1        2 0.16936984E+00 0.50625069E+03</pdfrwt>
<pdfrwt beam="2">  1       -2 0.89538226E-02 0.50625069E+03</pdfrwt>
<totfact> 0.18021242E+03</totfact>
</mgrwt>
</event>
<event>
 4    1  0.8984293E-005  0.5758249E+03  0.7818608E-02  0.9956871E-01
         -2   -1    0    0    0  501 -0.00000000000E+00  0.00000000000E+00  0.41757996678E+02  0.41757996756E+02  0.25500000000E-02 0. -1.
          2   -1    0    0  501    0  0.00000000000E+00 -0.00000000000E+00 -0.19850949998E+04  0.19850949998E+04  0.25500000000E-02 0.  1.
    5000001    1    1    2    0    0  0.46145961397E+02  0.22793032552E+03 -0.11118877317E+04  0.11478680285E+04  0.16500000000E+03 0.  0.
   -5000001    1    1    2    0    0 -0.46145961397E+02 -0.22793032552E+03 -0.83144927139E+03  0.87898496799E+03  0.16500000000E+03 0.  0.
<mgrwt>
<rscale>  0 0.57582494E+03</rscale>
<asrwt>0</asrwt>
<pdfrwt beam="1">  1        2 0.30539916E+00 0.57582494E+03</pdfrwt>
<pdfrwt beam="2">  1       -2 0.64243087E-02 0.57582494E+03</pdfrwt>
<totfact> 0.98163079E+02</totfact>
</mgrwt>
</event>
<event>
 4    1  0.8984293E-005  0.8167778E+03  0.7818608E-02  0.9536044E-01
         -2   -1    0    0    0  501 -0.00000000000E+00  0.00000000000E+00  0.74776484911E+02  0.74776484954E+02  0.25500000000E-02 0. -1.
          2   -1    0    0  501    0  0.00000000000E+00 -0.00000000000E+00 -0.22304004541E+04  0.22304004541E+04  0.25500000000E-02 0.  1.
    5000001    1    1    2    0    0  0.37744630350E+02 -0.29878825587E+03 -0.45398289703E+03  0.56923154319E+03  0.16500000000E+03 0.  0.
   -5000001    1    1    2    0    0 -0.37744630350E+02  0.29878825587E+03 -0.17016410721E+04  0.17359453958E+04  0.16500000000E+03 0.  0.
<mgrwt>
<rscale>  0 0.81677783E+03</rscale>
<asrwt>0</asrwt>
<pdfrwt beam="1">  1        2 0.34313848E+00 0.81677783E+03</pdfrwt>
<pdfrwt beam="2">  1       -2 0.11504076E-01 0.81677783E+03</pdfrwt>
<totfact> 0.27737358E+02</totfact>
</mgrwt>
</event>
<event>
 4    1  0.8984293E-005  0.3864345E+03  0.7818608E-02  0.1048581E+00
          2   -1    0    0  501    0  0.00000000000E+00  0.00000000000E+00  0.14404929650E+03  0.14404929652E+03  0.25500000000E-02 0.  1.
         -2   -1    0    0    0  501 -0.00000000000E+00 -0.00000000000E+00 -0.25916756006E+03  0.25916756007E+03  0.25500000000E-02 0. -1.
    5000001    1    1    2    0    0  0.91789795963E+02  0.30355014052E+01 -0.14876343067E+02  0.18942250789E+03  0.16500000000E+03 0.  0.
   -5000001    1    1    2    0    0 -0.91789795963E+02 -0.30355014052E+01 -0.10024192050E+03  0.21379434870E+03  0.16500000000E+03 0.  0.
<mgrwt>
<rscale>  0 0.38643449E+03</rscale>
<asrwt>0</asrwt>
<pdfrwt beam="1">  1        2 0.22161430E-01 0.38643449E+03</pdfrwt>
<pdfrwt beam="2">  1       -2 0.39871932E-01 0.38643449E+03</pdfrwt>
<totfact> 0.14890990E+03</totfact>
</mgrwt>
</event>
<event>
 4    1  0.8984293E-005  0.7116757E+03  0.7818608E-02  0.9697471E-01
          2   -1    0    0  501    0  0.00000000000E+00  0.00000000000E+00  0.19363308966E+04  0.19363308966E+04  0.25500000000E-02 0.  1.
         -2   -1    0    0    0  501 -0.00000000000E+00 -0.00000000000E+00 -0.65392007933E+02  0.65392007983E+02  0.25500000000E-02 0. -1.
    5000001    1    1    2    0    0  0.99339142510E+02  0.28769901749E+03  0.70427086776E+03  0.78476840219E+03  0.16500000000E+03 0.  0.
   -5000001    1    1    2    0    0 -0.99339142510E+02 -0.28769901749E+03  0.11666680209E+04  0.12169545024E+04  0.16500000000E+03 0.  0.
<mgrwt>
<rscale>  0 0.71167567E+03</rscale>
<asrwt>0</asrwt>
<pdfrwt beam="1">  1        2 0.29789709E+00 0.71167567E+03</pdfrwt>
<pdfrwt beam="2">  1       -2 0.10060308E-01 0.71167567E+03</pdfrwt>
<totfact> 0.50484355E+02</totfact>
</mgrwt>
</event>
<event>
 4    1  0.8984293E-005  0.3536670E+03  0.7818608E-02  0.1061120E+00
         -2   -1    0    0    0  501 -0.00000000000E+00  0.00000000000E+00  0.32781068576E+03  0.32781068577E+03  0.25500000000E-02 0. -1.
          2   -1    0    0  501    0  0.00000000000E+00 -0.00000000000E+00 -0.95390698356E+02  0.95390698390E+02  0.25500000000E-02 0.  1.
    5000001    1    1    2    0    0  0.20118371657E+02 -0.30516697358E+02  0.17849203452E+03  0.24580566324E+03  0.16500000000E+03 0.  0.
   -5000001    1    1    2    0    0 -0.20118371657E+02  0.30516697358E+02  0.53927952879E+02  0.17739572091E+03  0.16500000000E+03 0.  0.
<mgrwt>
<rscale>  0 0.35366702E+03</rscale>
<asrwt>0</asrwt>
<pdfrwt beam="1">  1        2 0.14675492E-01 0.35366702E+03</pdfrwt>
<pdfrwt beam="2">  1       -2 0.50432413E-01 0.35366702E+03</pdfrwt>
<totfact> 0.15185005E+03</totfact>
</mgrwt>
</event>
<event>
 4    1  0.8984293E-005  0.4621983E+03  0.7818608E-02  0.1024146E+00
          2   -1    0    0  501    0  0.00000000000E+00  0.00000000000E+00  0.11309273962E+04  0.11309273962E+04  0.25500000000E-02 0.  1.
         -2   -1    0    0    0  501 -0.00000000000E+00 -0.00000000000E+00 -0.47223906850E+02  0.47223906919E+02  0.25500000000E-02 0. -1.
    5000001    1    1    2    0    0 -0.77666857691E+02  0.14020471799E+03  0.59840927796E+03  0.64109918709E+03  0.16500000000E+03 0.  0.
   -5000001    1    1    2    0    0  0.77666857691E+02 -0.14020471799E+03  0.48529421135E+03  0.53705211600E+03  0.16500000000E+03 0.  0.
<mgrwt>
<rscale>  0 0.46219827E+03</rscale>
<asrwt>0</asrwt>
<pdfrwt beam="1">  1        2 0.17398882E+00 0.46219827E+03</pdfrwt>
<pdfrwt beam="2">  1       -2 0.72652168E-02 0.46219827E+03</pdfrwt>
<totfact> 0.24107121E+03</totfact>
</mgrwt>
</event>
<event>
 4    1  0.8984293E-005  0.6531691E+03  0.7818608E-02  0.9800851E-01
          2   -1    0    0  501    0  0.00000000000E+00  0.00000000000E+00  0.16851687187E+03  0.16851687189E+03  0.25500000000E-02 0.  1.
         -2   -1    0    0    0  501 -0.00000000000E+00 -0.00000000000E+00 -0.63291858943E+03  0.63291858943E+03  0.25500000000E-02 0. -1.
    5000001    1    1    2    0    0  0.20807108059E+03 -0.13809368977E+03 -0.71895802327E+02  0.30782697757E+03  0.16500000000E+03 0.  0.
   -5000001    1    1    2    0    0 -0.20807108059E+03  0.13809368977E+03 -0.39250591523E+03  0.49360848374E+03  0.16500000000E+03 0.  0.
<mgrwt>
<rscale>  0 0.65316908E+03</rscale>
<asrwt>0</asrwt>
<pdfrwt beam="1">  1        2 0.25925673E-01 0.65316908E+03</pdfrwt>
<pdfrwt beam="2">  1       -2 0.97372090E-01 0.65316908E+03</pdfrwt>
<totfact> 0.18696053E+02</totfact>
</mgrwt>
</event>
<event>
 4    1  0.8984293E-005  0.4388732E+03  0.7818608E-02  0.1031093E+00
         -2   -1    0    0    0  501 -0.00000000000E+00  0.00000000000E+00  0.90658226180E+02  0.90658226216E+02  0.25500000000E-02 0. -1.
          2   -1    0    0  501    0  0.00000000000E+00 -0.00000000000E+00 -0.53114239462E+03  0.53114239462E+03  0.25500000000E-02 0.  1.
    5000001    1    1    2    0    0 -0.71103557427E+02  0.11362615960E+03 -0.29733547315E+03  0.36551334260E+03  0.16500000000E+03 0.  0.
   -5000001    1    1    2    0    0  0.71103557427E+02 -0.11362615960E+03 -0.14314869529E+03  0.25628727824E+03  0.16500000000E+03 0.  0.
<mgrwt>
<rscale>  0 0.43887323E+03</rscale>
<asrwt>0</asrwt>
<pdfrwt beam="1">  1        2 0.81714213E-01 0.43887323E+03</pdfrwt>
<pdfrwt beam="2">  1       -2 0.13947420E-01 0.43887323E+03</pdfrwt>
<totfact> 0.22583156E+03</totfact>
</mgrwt>
</event>
<event>
 4    1  0.8984293E-005  0.4666307E+03  0.7818608E-02  0.1022876E+00
         -2   -1    0    0    0  501 -0.00000000000E+00  0.00000000000E+00  0.98362970062E+02  0.98362970095E+02  0.25500000000E-02 0. -1.
          2   -1    0    0  501    0  0.00000000000E+00 -0.00000000000E+00 -0.55342013721E+03  0.55342013721E+03  0.25500000000E-02 0.  1.
    5000001    1    1    2    0    0 -0.10558732990E+03  0.26853857976E+02 -0.40053410463E+03  0.44667928416E+03  0.16500000000E+03 0.  0.
   -5000001    1    1    2    0    0  0.10558732990E+03 -0.26853857976E+02 -0.54523062515E+02  0.20510382315E+03  0.16500000000E+03 0.  0.
<mgrwt>
<rscale>  0 0.46663068E+03</rscale>
<asrwt>0</asrwt>
<pdfrwt beam="1">  1        2 0.85141558E-01 0.46663068E+03</pdfrwt>
<pdfrwt beam="2">  1       -2 0.15132765E-01 0.46663068E+03</pdfrwt>
<totfact> 0.18801576E+03</totfact>
</mgrwt>
</event>
<event>
 4    1  0.8984293E-005  0.1055778E+04  0.7818608E-02  0.9249399E-01
          2   -1    0    0  501    0  0.00000000000E+00  0.00000000000E+00  0.18819633003E+04  0.18819633003E+04  0.25500000000E-02 0.  1.
         -2   -1    0    0    0  501 -0.00000000000E+00 -0.00000000000E+00 -0.14807232051E+03  0.14807232053E+03  0.25500000000E-02 0. -1.
    5000001    1    1    2    0    0 -0.15700476819E+03  0.45667649659E+03  0.60727845770E+03  0.79323139433E+03  0.16500000000E+03 0.  0.
   -5000001    1    1    2    0    0  0.15700476819E+03 -0.45667649659E+03  0.11266125221E+04  0.12368042265E+04  0.16500000000E+03 0.  0.
<mgrwt>
<rscale>  0 0.10557778E+04</rscale>
<asrwt>0</asrwt>
<pdfrwt beam="1">  1        2 0.28953277E+00 0.10557778E+04</pdfrwt>
<pdfrwt beam="2">  1       -2 0.22780360E-01 0.10557778E+04</pdfrwt>
<totfact> 0.13142106E+02</totfact>
</mgrwt>
</event>
<event>
 4    1  0.8984293E-005  0.5134642E+03  0.7818608E-02  0.1010323E+00
         -2   -1    0    0    0  501 -0.00000000000E+00  0.00000000000E+00  0.35988822017E+02  0.35988822107E+02  0.25500000000E-02 0. -1.
          2   -1    0    0  501    0  0.00000000000E+00 -0.00000000000E+00 -0.18314399126E+04  0.18314399126E+04  0.25500000000E-02 0.  1.
    5000001    1    1    2    0    0 -0.94938315598E+00  0.15221349420E+03 -0.44469133881E+03  0.49814178299E+03  0.16500000000E+03 0.  0.
   -5000001    1    1    2    0    0  0.94938315598E+00 -0.15221349420E+03 -0.13507597518E+04  0.13692869518E+04  0.16500000000E+03 0.  0.
<mgrwt>
<rscale>  0 0.51346418E+03</rscale>
<asrwt>0</asrwt>
<pdfrwt beam="1">  1        2 0.28175991E+00 0.51346418E+03</pdfrwt>
<pdfrwt beam="2">  1       -2 0.55367433E-02 0.51346418E+03</pdfrwt>
<totfact> 0.15040339E+03</totfact>
</mgrwt>
</event>
<event>
 4    1  0.8984293E-005  0.3997383E+03  0.7818608E-02  0.1043870E+00
          2   -1    0    0  501    0  0.00000000000E+00  0.00000000000E+00  0.78332153131E+03  0.78332153131E+03  0.25500000000E-02 0.  1.
         -2   -1    0    0    0  501 -0.00000000000E+00 -0.00000000000E+00 -0.50997794276E+02  0.50997794340E+02  0.25500000000E-02 0. -1.
    5000001    1    1    2    0    0  0.89400602738E+02 -0.67695357597E+02  0.34080981617E+03  0.39490690043E+03  0.16500000000E+03 0.  0.
   -5000001    1    1    2    0    0 -0.89400602738E+02  0.67695357597E+02  0.39151392086E+03  0.43941242522E+03  0.16500000000E+03 0.  0.
<mgrwt>
<rscale>  0 0.39973827E+03</rscale>
<asrwt>0</asrwt>
<pdfrwt beam="1">  1        2 0.12051100E+00 0.39973827E+03</pdfrwt>
<pdfrwt beam="2">  1       -2 0.78458148E-02 0.39973827E+03</pdfrwt>
<totfact> 0.35713202E+03</totfact>
</mgrwt>
</event>
<event>
 4    1  0.8984293E-005  0.5963984E+03  0.7818608E-02  0.9912907E-01
          2   -1    0    0  501    0  0.00000000000E+00  0.00000000000E+00  0.12606006951E+03  0.12606006954E+03  0.25500000000E-02 0.  1.
         -2   -1    0    0    0  501 -0.00000000000E+00 -0.00000000000E+00 -0.70539991837E+03  0.70539991837E+03  0.25500000000E-02 0. -1.
    5000001    1    1    2    0    0  0.98786936130E+02  0.22773803773E+03 -0.27765362972E+03  0.40735735009E+03  0.16500000000E+03 0.  0.
   -5000001    1    1    2    0    0 -0.98786936130E+02 -0.22773803773E+03 -0.30168621914E+03  0.42410263781E+03  0.16500000000E+03 0.  0.
<mgrwt>
<rscale>  0 0.59639840E+03</rscale>
<asrwt>0</asrwt>
<pdfrwt beam="1">  1        2 0.19393857E-01 0.59639840E+03</pdfrwt>
<pdfrwt beam="2">  1       -2 0.10852306E+00 0.59639840E+03</pdfrwt>
<totfact> 0.20258800E+02</totfact>
</mgrwt>
</event>
<event>
 4    1  0.8984293E-005  0.4846143E+03  0.7818608E-02  0.1017875E+00
          2   -1    0    0  501    0  0.00000000000E+00  0.00000000000E+00  0.37871026370E+03  0.37871026371E+03  0.25500000000E-02 0.  1.
         -2   -1    0    0    0  501 -0.00000000000E+00 -0.00000000000E+00 -0.15503343192E+03  0.15503343194E+03  0.25500000000E-02 0. -1.
    5000001    1    1    2    0    0 -0.99561401516E+02  0.14679317434E+03  0.11756592130E+03  0.26927208276E+03  0.16500000000E+03 0.  0.
   -5000001    1    1    2    0    0  0.99561401516E+02 -0.14679317434E+03  0.10611091048E+03  0.26447161289E+03  0.16500000000E+03 0.  0.
<mgrwt>
<rscale>  0 0.48461429E+03</rscale>
<asrwt>0</asrwt>
<pdfrwt beam="1">  1        2 0.58263117E-01 0.48461429E+03</pdfrwt>
<pdfrwt beam="2">  1       -2 0.23851297E-01 0.48461429E+03</pdfrwt>
<totfact> 0.13180017E+03</totfact>
</mgrwt>
</event>
<event>
 4    1  0.8984293E-005  0.3799459E+03  0.7818608E-02  0.1050954E+00
          2   -1    0    0  501    0  0.00000000000E+00  0.00000000000E+00  0.32922394786E+03  0.32922394787E+03  0.25500000000E-02 0.  1.
         -2   -1    0    0    0  501 -0.00000000000E+00 -0.00000000000E+00 -0.10962060734E+03  0.10962060737E+03  0.25500000000E-02 0. -1.
    5000001    1    1    2    0    0 -0.86645820518E+02  0.28381220999E+02  0.82671342356E+02  0.20584591996E+03  0.16500000000E+03 0.  0.
   -5000001    1    1    2    0    0  0.86645820518E+02 -0.28381220999E+02  0.13693199816E+03  0.23299863527E+03  0.16500000000E+03 0.  0.
<mgrwt>
<rscale>  0 0.37994594E+03</rscale>
<asrwt>0</asrwt>
<pdfrwt beam="1">  1        2 0.50649837E-01 0.37994594E+03</pdfrwt>
<pdfrwt beam="2">  1       -2 0.16864709E-01 0.37994594E+03</pdfrwt>
<totfact> 0.27938253E+03</totfact>
</mgrwt>
</event>
<event>
 4    1  0.8984293E-005  0.5711304E+03  0.7818608E-02  0.9967180E-01
         -2   -1    0    0    0  501 -0.00000000000E+00  0.00000000000E+00  0.11864696021E+03  0.11864696024E+03  0.25500000000E-02 0. -1.
          2   -1    0    0  501    0  0.00000000000E+00 -0.00000000000E+00 -0.68731203416E+03  0.68731203416E+03  0.25500000000E-02 0.  1.
    5000001    1    1    2    0    0  0.14147119960E+03 -0.16885358131E+03 -0.39177445444E+03  0.47878790230E+03  0.16500000000E+03 0.  0.
   -5000001    1    1    2    0    0 -0.14147119960E+03  0.16885358131E+03 -0.17689061950E+03  0.32717109210E+03  0.16500000000E+03 0.  0.
<mgrwt>
<rscale>  0 0.57113040E+03</rscale>
<asrwt>0</asrwt>
<pdfrwt beam="1">  1        2 0.10574031E+00 0.57113040E+03</pdfrwt>
<pdfrwt beam="2">  1       -2 0.18253379E-01 0.57113040E+03</pdfrwt>
<totfact> 0.10536234E+03</totfact>
</mgrwt>
</event>
<event>
 4    1  0.8984293E-005  0.4117200E+03  0.7818608E-02  0.1039795E+00
         -2   -1    0    0    0  501 -0.00000000000E+00  0.00000000000E+00  0.45110623091E+03  0.45110623092E+03  0.25500000000E-02 0. -1.
          2   -1    0    0  501    0  0.00000000000E+00 -0.00000000000E+00 -0.93943158904E+02  0.93943158939E+02  0.25500000000E-02 0.  1.
    5000001    1    1    2    0    0  0.41167652948E+02 -0.11452160379E+03  0.15405051350E+03  0.25644986663E+03  0.16500000000E+03 0.  0.
   -5000001    1    1    2    0    0 -0.41167652948E+02  0.11452160379E+03  0.20311255850E+03  0.28859952323E+03  0.16500000000E+03 0.  0.
<mgrwt>
<rscale>  0 0.41172002E+03</rscale>
<asrwt>0</asrwt>
<pdfrwt beam="1">  1        2 0.14452794E-01 0.41172002E+03</pdfrwt>
<pdfrwt beam="2">  1       -2 0.69400958E-01 0.41172002E+03</pdfrwt>
<totfact> 0.79720314E+02</totfact>
</mgrwt>
</event>
<event>
 4    1  0.8984293E-005  0.3520538E+03  0.7818608E-02  0.1061775E+00
         -2   -1    0    0    0  501 -0.00000000000E+00  0.00000000000E+00  0.26794692902E+03  0.26794692903E+03  0.25500000000E-02 0. -1.
          2   -1    0    0  501    0  0.00000000000E+00 -0.00000000000E+00 -0.11564029490E+03  0.11564029492E+03  0.25500000000E-02 0.  1.
    5000001    1    1    2    0    0 -0.10131074616E+02  0.59828799242E+02  0.66509667893E+02  0.18796451744E+03  0.16500000000E+03 0.  0.
   -5000001    1    1    2    0    0  0.10131074616E+02 -0.59828799242E+02  0.85796966233E+02  0.19562270652E+03  0.16500000000E+03 0.  0.
<mgrwt>
<rscale>  0 0.35205376E+03</rscale>
<asrwt>0</asrwt>
<pdfrwt beam="1">  1        2 0.17790815E-01 0.35205376E+03</pdfrwt>
<pdfrwt beam="2">  1       -2 0.41222604E-01 0.35205376E+03</pdfrwt>
<totfact> 0.17983795E+03</totfact>
</mgrwt>
</event>
<event>
 4    1  0.8984293E-005  0.6779167E+03  0.7818608E-02  0.9755761E-01
         -2   -1    0    0    0  501 -0.00000000000E+00  0.00000000000E+00  0.32026378853E+02  0.32026378955E+02  0.25500000000E-02 0. -1.
          2   -1    0    0  501    0  0.00000000000E+00 -0.00000000000E+00 -0.35874420819E+04  0.35874420819E+04  0.25500000000E-02 0.  1.
    5000001    1    1    2    0    0 -0.88438315480E+02 -0.22837464928E+03 -0.88924067832E+03  0.93699002132E+03  0.16500000000E+03 0.  0.
   -5000001    1    1    2    0    0  0.88438315480E+02  0.22837464928E+03 -0.26661750247E+04  0.26824784395E+04  0.16500000000E+03 0.  0.
<mgrwt>
<rscale>  0 0.67791675E+03</rscale>
<asrwt>0</asrwt>
<pdfrwt beam="1">  1        2 0.55191385E+00 0.67791675E+03</pdfrwt>
<pdfrwt beam="2">  1       -2 0.49271381E-02 0.67791675E+03</pdfrwt>
<totfact> 0.16249099E+02</totfact>
</mgrwt>
</event>
<event>
 4    1  0.8984293E-005  0.5036624E+03  0.7818608E-02  0.1012827E+00
         -2   -1    0    0    0  501 -0.00000000000E+00  0.00000000000E+00  0.32596342151E+02  0.32596342251E+02  0.25500000000E-02 0. -1.
          2   -1    0    0  501    0  0.00000000000E+00 -0.00000000000E+00 -0.19455849434E+04  0.19455849434E+04  0.25500000000E-02 0.  1.
    5000001    1    1    2    0    0  0.88722544489E+02 -0.16576634623E+03 -0.84240590524E+03  0.87876212972E+03  0.16500000000E+03 0.  0.
   -5000001    1    1    2    0    0 -0.88722544489E+02  0.16576634623E+03 -0.10705826960E+04  0.10994191559E+04  0.16500000000E+03 0.  0.
<mgrwt>
<rscale>  0 0.50366240E+03</rscale>
<asrwt>0</asrwt>
<pdfrwt beam="1">  1        2 0.29932067E+00 0.50366240E+03</pdfrwt>
<pdfrwt beam="2">  1       -2 0.50148234E-02 0.50366240E+03</pdfrwt>
<totfact> 0.15231722E+03</totfact>
</mgrwt>
</event>
<event>
 4    1  0.8984293E-005  0.5927771E+03  0.7818608E-02  0.9920506E-01
         -2   -1    0    0    0  501 -0.00000000000E+00  0.00000000000E+00  0.85072577599E+03  0.85072577599E+03  0.25500000000E-02 0. -1.
          2   -1    0    0  501    0  0.00000000000E+00 -0.00000000000E+00 -0.10326025881E+03  0.10326025884E+03  0.25500000000E-02 0.  1.
    5000001    1    1    2    0    0  0.24396597211E+02 -0.23288581715E+03  0.49619328723E+03  0.57294308276E+03  0.16500000000E+03 0.  0.
   -5000001    1    1    2    0    0 -0.24396597211E+02  0.23288581715E+03  0.25127222995E+03  0.38104295208E+03  0.16500000000E+03 0.  0.
<mgrwt>
<rscale>  0 0.59277707E+03</rscale>
<asrwt>0</asrwt>
<pdfrwt beam="1">  1        2 0.15886193E-01 0.59277707E+03</pdfrwt>
<pdfrwt beam="2">  1       -2 0.13088089E+00 0.59277707E+03</pdfrwt>
<totfact> 0.16201862E+02</totfact>
</mgrwt>
</event>
<event>
 4    1  0.8984293E-005  0.4364314E+03  0.7818608E-02  0.1031847E+00
         -2   -1    0    0    0  501 -0.00000000000E+00  0.00000000000E+00  0.47279662968E+02  0.47279663037E+02  0.25500000000E-02 0. -1.
          2   -1    0    0  501    0  0.00000000000E+00 -0.00000000000E+00 -0.10071580096E+04  0.10071580096E+04  0.25500000000E-02 0.  1.
    5000001    1    1    2    0    0 -0.72295416337E+02 -0.10572196649E+03 -0.63253930229E+03  0.66613416844E+03  0.16500000000E+03 0.  0.
   -5000001    1    1    2    0    0  0.72295416337E+02  0.10572196649E+03 -0.32733904434E+03  0.38830350420E+03  0.16500000000E+03 0.  0.
<mgrwt>
<rscale>  0 0.43643140E+03</rscale>
<asrwt>0</asrwt>
<pdfrwt beam="1">  1        2 0.15494737E+00 0.43643140E+03</pdfrwt>
<pdfrwt beam="2">  1       -2 0.72737951E-02 0.43643140E+03</pdfrwt>
<totfact> 0.28614061E+03</totfact>
</mgrwt>
</event>
<event>
 4    1  0.8984293E-005  0.7020496E+03  0.7818608E-02  0.9713733E-01
         -2   -1    0    0    0  501 -0.00000000000E+00  0.00000000000E+00  0.65065151586E+02  0.65065151636E+02  0.25500000000E-02 0. -1.
          2   -1    0    0  501    0  0.00000000000E+00 -0.00000000000E+00 -0.18937697669E+04  0.18937697669E+04  0.25500000000E-02 0.  1.
    5000001    1    1    2    0    0  0.52762989687E+02 -0.29248723587E+03 -0.67014183807E+03  0.75143050202E+03  0.16500000000E+03 0.  0.
   -5000001    1    1    2    0    0 -0.52762989687E+02  0.29248723587E+03 -0.11585627772E+04  0.12074044165E+04  0.16500000000E+03 0.  0.
<mgrwt>
<rscale>  0 0.70204962E+03</rscale>
<asrwt>0</asrwt>
<pdfrwt beam="1">  1        2 0.29134915E+00 0.70204962E+03</pdfrwt>
<pdfrwt beam="2">  1       -2 0.10010025E-01 0.70204962E+03</pdfrwt>
<totfact> 0.53720044E+02</totfact>
</mgrwt>
</event>
<event>
 4    1  0.8984293E-005  0.3686425E+03  0.7818608E-02  0.1055213E+00
          2   -1    0    0  501    0  0.00000000000E+00  0.00000000000E+00  0.14516265998E+04  0.14516265998E+04  0.25500000000E-02 0.  1.
         -2   -1    0    0    0  501 -0.00000000000E+00 -0.00000000000E+00 -0.23404311104E+02  0.23404311243E+02  0.25500000000E-02 0. -1.
    5000001    1    1    2    0    0 -0.50675381014E+02  0.63336035550E+02  0.76626157854E+03  0.78801094814E+03  0.16500000000E+03 0.  0.
   -5000001    1    1    2    0    0  0.50675381014E+02 -0.63336035550E+02  0.66196071012E+03  0.68701996287E+03  0.16500000000E+03 0.  0.
<mgrwt>
<rscale>  0 0.36864249E+03</rscale>
<asrwt>0</asrwt>
<pdfrwt beam="1">  1        2 0.22332717E+00 0.36864249E+03</pdfrwt>
<pdfrwt beam="2">  1       -2 0.36006632E-02 0.36864249E+03</pdfrwt>
<totfact> 0.46791777E+03</totfact>
</mgrwt>
</event>
<event>
 4    1  0.8984293E-005  0.5570494E+03  0.7818608E-02  0.9998753E-01
          2   -1    0    0  501    0  0.00000000000E+00  0.00000000000E+00  0.15779438669E+04  0.15779438669E+04  0.25500000000E-02 0.  1.
         -2   -1    0    0    0  501 -0.00000000000E+00 -0.00000000000E+00 -0.49162718038E+02  0.49162718104E+02  0.25500000000E-02 0. -1.
    5000001    1    1    2    0    0 -0.26697022857E+02  0.21509789112E+03  0.93398554987E+03  0.97289970766E+03  0.16500000000E+03 0.  0.
   -5000001    1    1    2    0    0  0.26697022857E+02 -0.21509789112E+03  0.59479559903E+03  0.65420687739E+03  0.16500000000E+03 0.  0.
<mgrwt>
<rscale>  0 0.55704940E+03</rscale>
<asrwt>0</asrwt>
<pdfrwt beam="1">  1        2 0.24276059E+00 0.55704940E+03</pdfrwt>
<pdfrwt beam="2">  1       -2 0.75634952E-02 0.55704940E+03</pdfrwt>
<totfact> 0.12616252E+03</totfact>
</mgrwt>
</event>
<event>
 4    1  0.8984293E-005  0.7594218E+03  0.7818608E-02  0.9620684E-01
         -2   -1    0    0    0  501 -0.00000000000E+00  0.00000000000E+00  0.18781987537E+03  0.18781987539E+03  0.25500000000E-02 0. -1.
          2   -1    0    0  501    0  0.00000000000E+00 -0.00000000000E+00 -0.76765238717E+03  0.76765238717E+03  0.25500000000E-02 0.  1.
    5000001    1    1    2    0    0 -0.19731049226E+03 -0.27926101420E+03 -0.28223930027E+03  0.47307733726E+03  0.16500000000E+03 0.  0.
   -5000001    1    1    2    0    0  0.19731049226E+03  0.27926101420E+03 -0.29759321153E+03  0.48239492530E+03  0.16500000000E+03 0.  0.
<mgrwt>
<rscale>  0 0.75942182E+03</rscale>
<asrwt>0</asrwt>
<pdfrwt beam="1">  1        2 0.11810037E+00 0.75942182E+03</pdfrwt>
<pdfrwt beam="2">  1       -2 0.28895366E-01 0.75942182E+03</pdfrwt>
<totfact> 0.40204221E+02</totfact>
</mgrwt>
</event>
<event>
 4    1  0.8984293E-005  0.6486014E+03  0.7818608E-02  0.9809407E-01
         -2   -1    0    0    0  501 -0.00000000000E+00  0.00000000000E+00  0.69225427872E+03  0.69225427873E+03  0.25500000000E-02 0. -1.
          2   -1    0    0  501    0  0.00000000000E+00 -0.00000000000E+00 -0.15192532894E+03  0.15192532896E+03  0.25500000000E-02 0.  1.
    5000001    1    1    2    0    0  0.18818063190E+03  0.16783167927E+03  0.11416146399E+03  0.32223789760E+03  0.16500000000E+03 0.  0.
   -5000001    1    1    2    0    0 -0.18818063190E+03 -0.16783167927E+03  0.42616748579E+03  0.52194171009E+03  0.16500000000E+03 0.  0.
<mgrwt>
<rscale>  0 0.64860145E+03</rscale>
<asrwt>0</asrwt>
<pdfrwt beam="1">  1        2 0.23373127E-01 0.64860145E+03</pdfrwt>
<pdfrwt beam="2">  1       -2 0.10650066E+00 0.64860145E+03</pdfrwt>
<totfact> 0.17025045E+02</totfact>
</mgrwt>
</event>
<event>
 4    1  0.8984293E-005  0.7221026E+03  0.7818608E-02  0.9680163E-01
         -2   -1    0    0    0  501 -0.00000000000E+00  0.00000000000E+00  0.87387986024E+03  0.87387986024E+03  0.25500000000E-02 0. -1.
          2   -1    0    0  501    0  0.00000000000E+00 -0.00000000000E+00 -0.14917157334E+03  0.14917157336E+03  0.25500000000E-02 0.  1.
    5000001    1    1    2    0    0  0.12105362130E+03 -0.27566028031E+03  0.20401515601E+03  0.39936168225E+03  0.16500000000E+03 0.  0.
   -5000001    1    1    2    0    0 -0.12105362130E+03  0.27566028031E+03  0.52069313090E+03  0.62368975135E+03  0.16500000000E+03 0.  0.
<mgrwt>
<rscale>  0 0.72210258E+03</rscale>
<asrwt>0</asrwt>
<pdfrwt beam="1">  1        2 0.22949472E-01 0.72210258E+03</pdfrwt>
<pdfrwt beam="2">  1       -2 0.13444306E+00 0.72210258E+03</pdfrwt>
<totfact> 0.97523207E+01</totfact>
</mgrwt>
</event>
<event>
 4    1  0.8984293E-005  0.5147135E+03  0.7818608E-02  0.1010008E+00
          2   -1    0    0  501    0  0.00000000000E+00  0.00000000000E+00  0.23554002606E+03  0.23554002607E+03  0.25500000000E-02 0.  1.
         -2   -1    0    0    0  501 -0.00000000000E+00 -0.00000000000E+00 -0.28119419597E+03  0.28119419598E+03  0.25500000000E-02 0. -1.
    5000001    1    1    2    0    0  0.45451869522E+02  0.92179469100E+02  0.14649020687E+03  0.24340769847E+03  0.16500000000E+03 0.  0.
   -5000001    1    1    2    0    0 -0.45451869522E+02 -0.92179469100E+02 -0.19214437678E+03  0.27332652358E+03  0.16500000000E+03 0.  0.
<mgrwt>
<rscale>  0 0.51471347E+03</rscale>
<asrwt>0</asrwt>
<pdfrwt beam="1">  1        2 0.36236927E-01 0.51471347E+03</pdfrwt>
<pdfrwt beam="2">  1       -2 0.43260645E-01 0.51471347E+03</pdfrwt>
<totfact> 0.73253479E+02</totfact>
</mgrwt>
</event>
<event>
 4    1  0.8984293E-005  0.3630956E+03  0.7818608E-02  0.1057365E+00
         -2   -1    0    0    0  501 -0.00000000000E+00  0.00000000000E+00  0.24101177356E+02  0.24101177491E+02  0.25500000000E-02 0. -1.
          2   -1    0    0  501    0  0.00000000000E+00 -0.00000000000E+00 -0.13675516091E+04  0.13675516091E+04  0.25500000000E-02 0.  1.
    5000001    1    1    2    0    0 -0.55923098896E+02 -0.50278919969E+02 -0.70584335939E+03  0.72876279459E+03  0.16500000000E+03 0.  0.
   -5000001    1    1    2    0    0  0.55923098896E+02  0.50278919969E+02 -0.63760707235E+03  0.66288999200E+03  0.16500000000E+03 0.  0.
<mgrwt>
<rscale>  0 0.36309560E+03</rscale>
<asrwt>0</asrwt>
<pdfrwt beam="1">  1        2 0.21039249E+00 0.36309560E+03</pdfrwt>
<pdfrwt beam="2">  1       -2 0.37078745E-02 0.36309560E+03</pdfrwt>
<totfact> 0.49778187E+03</totfact>
</mgrwt>
</event>
<event>
 4    1  0.8984293E-005  0.7000525E+03  0.7818608E-02  0.9717142E-01
          2   -1    0    0  501    0  0.00000000000E+00  0.00000000000E+00  0.13746805515E+04  0.13746805515E+04  0.25500000000E-02 0.  1.
         -2   -1    0    0    0  501 -0.00000000000E+00 -0.00000000000E+00 -0.89124989622E+02  0.89124989658E+02  0.25500000000E-02 0. -1.
    5000001    1    1    2    0    0  0.22266860657E+02 -0.26875629481E+03  0.32865767507E+03  0.45603358041E+03  0.16500000000E+03 0.  0.
   -5000001    1    1    2    0    0 -0.22266860657E+02  0.26875629481E+03  0.95689788677E+03  0.10077719607E+04  0.16500000000E+03 0.  0.
<mgrwt>
<rscale>  0 0.70005254E+03</rscale>
<asrwt>0</asrwt>
<pdfrwt beam="1">  1        2 0.21148932E+00 0.70005254E+03</pdfrwt>
<pdfrwt beam="2">  1       -2 0.13711537E-01 0.70005254E+03</pdfrwt>
<totfact> 0.61748420E+02</totfact>
</mgrwt>
</event>
<event>
 4    1  0.8984293E-005  0.5642180E+03  0.7818608E-02  0.9982556E-01
          2   -1    0    0  501    0  0.00000000000E+00  0.00000000000E+00  0.35344382918E+04  0.35344382918E+04  0.25500000000E-02 0.  1.
         -2   -1    0    0    0  501 -0.00000000000E+00 -0.00000000000E+00 -0.22517149137E+02  0.22517149281E+02  0.25500000000E-02 0. -1.
    5000001    1    1    2    0    0 -0.32293004624E+02 -0.21575288565E+03  0.21912865766E+04  0.22082921017E+04  0.16500000000E+03 0.  0.
   -5000001    1    1    2    0    0  0.32293004624E+02  0.21575288565E+03  0.13206345661E+04  0.13486633394E+04  0.16500000000E+03 0.  0.
<mgrwt>
<rscale>  0 0.56421795E+03</rscale>
<asrwt>0</asrwt>
<pdfrwt beam="1">  1        2 0.54375960E+00 0.56421795E+03</pdfrwt>
<pdfrwt beam="2">  1       -2 0.34641777E-02 0.56421795E+03</pdfrwt>
<totfact> 0.30900275E+02</totfact>
</mgrwt>
</event>
<event>
 4    1  0.8984293E-005  0.7840310E+03  0.7818608E-02  0.9583424E-01
         -2   -1    0    0    0  501 -0.00000000000E+00  0.00000000000E+00  0.76736631301E+03  0.76736631302E+03  0.25500000000E-02 0. -1.
          2   -1    0    0  501    0  0.00000000000E+00 -0.00000000000E+00 -0.20026439314E+03  0.20026439315E+03  0.25500000000E-02 0.  1.
    5000001    1    1    2    0    0  0.31534154825E+03 -0.11777247062E+03  0.14207508398E+03  0.40090020750E+03  0.16500000000E+03 0.  0.
   -5000001    1    1    2    0    0 -0.31534154825E+03  0.11777247062E+03  0.42502683589E+03  0.56673049867E+03  0.16500000000E+03 0.  0.
<mgrwt>
<rscale>  0 0.78403099E+03</rscale>
<asrwt>0</asrwt>
<pdfrwt beam="1">  1        2 0.30809906E-01 0.78403099E+03</pdfrwt>
<pdfrwt beam="2">  1       -2 0.11805636E+00 0.78403099E+03</pdfrwt>
<totfact> 0.96235944E+01</totfact>
</mgrwt>
</event>
<event>
 4    1  0.8984293E-005  0.6454208E+03  0.7818608E-02  0.9815410E-01
          2   -1    0    0  501    0  0.00000000000E+00  0.00000000000E+00  0.21143389434E+04  0.21143389434E+04  0.25500000000E-02 0.  1.
         -2   -1    0    0    0  501 -0.00000000000E+00 -0.00000000000E+00 -0.49255108713E+02  0.49255108779E+02  0.25500000000E-02 0. -1.
    5000001    1    1    2    0    0  0.96660843942E+02  0.23186501718E+02  0.16460715205E+03  0.25338004483E+03  0.16500000000E+03 0.  0.
   -5000001    1    1    2    0    0 -0.96660843942E+02 -0.23186501718E+02  0.19004766827E+04  0.19102140074E+04  0.16500000000E+03 0.  0.
<mgrwt>
<rscale>  0 0.64542078E+03</rscale>
<asrwt>0</asrwt>
<pdfrwt beam="1">  1        2 0.32528290E+00 0.64542078E+03</pdfrwt>
<pdfrwt beam="2">  1       -2 0.75777095E-02 0.64542078E+03</pdfrwt>
<totfact> 0.64014169E+02</totfact>
</mgrwt>
</event>
<event>
 4    1  0.8984293E-005  0.4185370E+03  0.7818608E-02  0.1037544E+00
         -2   -1    0    0    0  501 -0.00000000000E+00  0.00000000000E+00  0.41213194166E+02  0.41213194245E+02  0.25500000000E-02 0. -1.
          2   -1    0    0  501    0  0.00000000000E+00 -0.00000000000E+00 -0.10626040425E+04  0.10626040425E+04  0.25500000000E-02 0.  1.
    5000001    1    1    2    0    0 -0.51444502549E+02  0.10850771054E+03 -0.63292180288E+03  0.66500787112E+03  0.16500000000E+03 0.  0.
   -5000001    1    1    2    0    0  0.51444502549E+02 -0.10850771054E+03 -0.38846904545E+03  0.43880936563E+03  0.16500000000E+03 0.  0.
<mgrwt>
<rscale>  0 0.41853701E+03</rscale>
<asrwt>0</asrwt>
<pdfrwt beam="1">  1        2 0.16347752E+00 0.41853701E+03</pdfrwt>
<pdfrwt beam="2">  1       -2 0.63404922E-02 0.41853701E+03</pdfrwt>
<totfact> 0.32792807E+03</totfact>
</mgrwt>
</event>
<event>
 4    1  0.8984293E-005  0.4311806E+03  0.7818608E-02  0.1033488E+00
         -2   -1    0    0    0  501 -0.00000000000E+00  0.00000000000E+00  0.24282150701E+03  0.24282150703E+03  0.25500000000E-02 0. -1.
          2   -1    0    0  501    0  0.00000000000E+00 -0.00000000000E+00 -0.19141294158E+03  0.19141294160E+03  0.25500000000E-02 0.  1.
    5000001    1    1    2    0    0  0.11808460185E+03  0.71446573690E+02  0.11264220443E+02  0.21540768034E+03  0.16500000000E+03 0.  0.
   -5000001    1    1    2    0    0 -0.11808460185E+03 -0.71446573690E+02  0.40144344990E+02  0.21882676829E+03  0.16500000000E+03 0.  0.
<mgrwt>
<rscale>  0 0.43118061E+03</rscale>
<asrwt>0</asrwt>
<pdfrwt beam="1">  1        2 0.29448145E-01 0.43118061E+03</pdfrwt>
<pdfrwt beam="2">  1       -2 0.37357155E-01 0.43118061E+03</pdfrwt>
<totfact> 0.12247627E+03</totfact>
</mgrwt>
</event>
<event>
 4    1  0.8984293E-005  0.4471794E+03  0.7818608E-02  0.1028567E+00
          2   -1    0    0  501    0  0.00000000000E+00  0.00000000000E+00  0.93026716091E+03  0.93026716091E+03  0.25500000000E-02 0.  1.
         -2   -1    0    0    0  501 -0.00000000000E+00 -0.00000000000E+00 -0.53739779833E+02  0.53739779894E+02  0.25500000000E-02 0. -1.
    5000001    1    1    2    0    0 -0.58546004890E+02 -0.12897572066E+03  0.55270913438E+03  0.59394844763E+03  0.16500000000E+03 0.  0.
   -5000001    1    1    2    0    0  0.58546004890E+02  0.12897572066E+03  0.32381824669E+03  0.39005849318E+03  0.16500000000E+03 0.  0.
<mgrwt>
<rscale>  0 0.44717939E+03</rscale>
<asrwt>0</asrwt>
<pdfrwt beam="1">  1        2 0.14311802E+00 0.44717939E+03</pdfrwt>
<pdfrwt beam="2">  1       -2 0.82676587E-02 0.44717939E+03</pdfrwt>
<totfact> 0.26157009E+03</totfact>
</mgrwt>
</event>
<event>
 4    1  0.8984293E-005  0.5763247E+03  0.7818608E-02  0.9955780E-01
         -2   -1    0    0    0  501 -0.00000000000E+00  0.00000000000E+00  0.86503392632E+02  0.86503392669E+02  0.25500000000E-02 0. -1.
          2   -1    0    0  501    0  0.00000000000E+00 -0.00000000000E+00 -0.95993381101E+03  0.95993381101E+03  0.25500000000E-02 0.  1.
    5000001    1    1    2    0    0 -0.19120401601E+03  0.98367098174E+02 -0.61440863200E+03  0.67153408611E+03  0.16500000000E+03 0.  0.
   -5000001    1    1    2    0    0  0.19120401601E+03 -0.98367098174E+02 -0.25902178638E+03  0.37490311757E+03  0.16500000000E+03 0.  0.
<mgrwt>
<rscale>  0 0.57632467E+03</rscale>
<asrwt>0</asrwt>
<pdfrwt beam="1">  1        2 0.14768212E+00 0.57632467E+03</pdfrwt>
<pdfrwt beam="2">  1       -2 0.13308215E-01 0.57632467E+03</pdfrwt>
<totfact> 0.11542913E+03</totfact>
</mgrwt>
</event>
<event>
 4    1  0.8984293E-005  0.7948894E+03  0.7818608E-02  0.9567444E-01
         -2   -1    0    0    0  501 -0.00000000000E+00  0.00000000000E+00  0.16130154516E+03  0.16130154518E+03  0.25500000000E-02 0. -1.
          2   -1    0    0  501    0  0.00000000000E+00 -0.00000000000E+00 -0.97929796275E+03  0.97929796276E+03  0.25500000000E-02 0.  1.
    5000001    1    1    2    0    0 -0.26226290180E+03 -0.44085023618E+02 -0.76051444100E+03  0.82239439075E+03  0.16500000000E+03 0.  0.
   -5000001    1    1    2    0    0  0.26226290180E+03  0.44085023618E+02 -0.57481976594E+02  0.31820511718E+03  0.16500000000E+03 0.  0.
<mgrwt>
<rscale>  0 0.79488936E+03</rscale>
<asrwt>0</asrwt>
<pdfrwt beam="1">  1        2 0.15066122E+00 0.79488936E+03</pdfrwt>
<pdfrwt beam="2">  1       -2 0.24815623E-01 0.79488936E+03</pdfrwt>
<totfact> 0.37917130E+02</totfact>
</mgrwt>
</event>
<event>
 4    1  0.8984293E-005  0.4636927E+03  0.7818608E-02  0.1023716E+00
          2   -1    0    0  501    0  0.00000000000E+00  0.00000000000E+00  0.50421067705E+03  0.50421067705E+03  0.25500000000E-02 0. -1.
         -2   -1    0    0    0  501 -0.00000000000E+00 -0.00000000000E+00 -0.10660766937E+03  0.10660766940E+03  0.25500000000E-02 0.  1.
    5000001    1    1    2    0    0  0.15401882348E+03 -0.21483574162E+02  0.13501979723E+03  0.26389143145E+03  0.16500000000E+03 0.  0.
   -5000001    1    1    2    0    0 -0.15401882348E+03  0.21483574162E+02  0.26258321045E+03  0.34692691500E+03  0.16500000000E+03 0.  0.
<mgrwt>
<rscale>  0 0.46369268E+03</rscale>
<asrwt>0</asrwt>
<pdfrwt beam="1">  1        2 0.77570873E-01 0.46369268E+03</pdfrwt>
<pdfrwt beam="2">  1       -2 0.16401180E-01 0.46369268E+03</pdfrwt>
<totfact> 0.18281560E+03</totfact>
</mgrwt>
</event>
<event>
 4    1  0.8984293E-005  0.6021829E+03  0.7818608E-02  0.9900888E-01
          2   -1    0    0  501    0  0.00000000000E+00  0.00000000000E+00  0.43615790948E+03  0.43615790949E+03  0.25500000000E-02 0.  1.
         -2   -1    0    0    0  501 -0.00000000000E+00 -0.00000000000E+00 -0.20785147538E+03  0.20785147539E+03  0.25500000000E-02 0. -1.
    5000001    1    1    2    0    0 -0.16182258866E+03  0.50074353237E+02 -0.85171146003E+02  0.25134262504E+03  0.16500000000E+03 0.  0.
   -5000001    1    1    2    0    0  0.16182258866E+03 -0.50074353237E+02  0.31347758011E+03  0.39266675984E+03  0.16500000000E+03 0.  0.
<mgrwt>
<rscale>  0 0.60218291E+03</rscale>
<asrwt>0</asrwt>
<pdfrwt beam="1">  1        2 0.67101216E-01 0.60218291E+03</pdfrwt>
<pdfrwt beam="2">  1       -2 0.31977150E-01 0.60218291E+03</pdfrwt>
<totfact> 0.65949237E+02</totfact>
</mgrwt>
</event>
<event>
 4    1  0.8984293E-005  0.9428867E+03  0.7818608E-02  0.9373504E-01
         -2   -1    0    0    0  501 -0.00000000000E+00  0.00000000000E+00  0.93024226650E+03  0.93024226651E+03  0.25500000000E-02 0. -1.
          2   -1    0    0  501    0  0.00000000000E+00 -0.00000000000E+00 -0.23892574662E+03  0.23892574663E+03  0.25500000000E-02 0.  1.
    5000001    1    1    2    0    0 -0.38561871718E+03  0.16562405569E+03  0.51613158172E+03  0.68538305531E+03  0.16500000000E+03 0.  0.
   -5000001    1    1    2    0    0  0.38561871718E+03 -0.16562405569E+03  0.17518493816E+03  0.48378495783E+03  0.16500000000E+03 0.  0.
<mgrwt>
<rscale>  0 0.94288669E+03</rscale>
<asrwt>0</asrwt>
<pdfrwt beam="1">  1        2 0.36757808E-01 0.94288669E+03</pdfrwt>
<pdfrwt beam="2">  1       -2 0.14311419E+00 0.94288669E+03</pdfrwt>
<totfact> 0.48043284E+01</totfact>
</mgrwt>
</event>
<event>
 4    1  0.8984293E-005  0.6838668E+03  0.7818608E-02  0.9745227E-01
         -2   -1    0    0    0  501 -0.00000000000E+00  0.00000000000E+00  0.16959110800E+03  0.16959110802E+03  0.25500000000E-02 0. -1.
          2   -1    0    0  501    0  0.00000000000E+00 -0.00000000000E+00 -0.68941379911E+03  0.68941379911E+03  0.25500000000E-02 0.  1.
    5000001    1    1    2    0    0  0.25429397759E+03 -0.72720549959E+02 -0.83431591638E+02  0.32270657866E+03  0.16500000000E+03 0.  0.
   -5000001    1    1    2    0    0 -0.25429397759E+03  0.72720549959E+02 -0.43639109947E+03  0.53629832847E+03  0.16500000000E+03 0.  0.
<mgrwt>
<rscale>  0 0.68386680E+03</rscale>
<asrwt>0</asrwt>
<pdfrwt beam="1">  1        2 0.10606366E+00 0.68386680E+03</pdfrwt>
<pdfrwt beam="2">  1       -2 0.26090940E-01 0.68386680E+03</pdfrwt>
<totfact> 0.55728111E+02</totfact>
</mgrwt>
</event>
<event>
 4    1  0.8984293E-005  0.8496131E+03  0.7818608E-02  0.9490856E-01
         -2   -1    0    0    0  501 -0.00000000000E+00  0.00000000000E+00  0.71093751031E+03  0.71093751031E+03  0.25500000000E-02 0. -1.
          2   -1    0    0  501    0  0.00000000000E+00 -0.00000000000E+00 -0.25383470251E+03  0.25383470253E+03  0.25500000000E-02 0.  1.
    5000001    1    1    2    0    0 -0.31190509347E+03 -0.11526589901E+03  0.46310246425E+03  0.59351487529E+03  0.16500000000E+03 0.  0.
   -5000001    1    1    2    0    0  0.31190509347E+03  0.11526589901E+03 -0.59996564546E+01  0.37125733755E+03  0.16500000000E+03 0.  0.
<mgrwt>
<rscale>  0 0.84961312E+03</rscale>
<asrwt>0</asrwt>
<pdfrwt beam="1">  1        2 0.39051493E-01 0.84961312E+03</pdfrwt>
<pdfrwt beam="2">  1       -2 0.10937500E+00 0.84961312E+03</pdfrwt>
<totfact> 0.88594965E+01</totfact>
</mgrwt>
</event>
<event>
 4    1  0.8984293E-005  0.3964807E+03  0.7818608E-02  0.1045005E+00
         -2   -1    0    0    0  501 -0.00000000000E+00  0.00000000000E+00  0.32490505442E+02  0.32490505543E+02  0.25500000000E-02 0. -1.
          2   -1    0    0  501    0  0.00000000000E+00 -0.00000000000E+00 -0.12095608188E+04  0.12095608188E+04  0.25500000000E-02 0.  1.
    5000001    1    1    2    0    0  0.89644267366E+02 -0.46249880698E+02 -0.45201683193E+03  0.49164963387E+03  0.16500000000E+03 0.  0.
   -5000001    1    1    2    0    0 -0.89644267366E+02  0.46249880698E+02 -0.72505348139E+03  0.75040169044E+03  0.16500000000E+03 0.  0.
<mgrwt>
<rscale>  0 0.39648073E+03</rscale>
<asrwt>0</asrwt>
<pdfrwt beam="1">  1        2 0.18608625E+00 0.39648073E+03</pdfrwt>
<pdfrwt beam="2">  1       -2 0.49985402E-02 0.39648073E+03</pdfrwt>
<totfact> 0.38781015E+03</totfact>
</mgrwt>
</event>
<event>
 4    1  0.8984293E-005  0.3594516E+03  0.7818608E-02  0.1058801E+00
         -2   -1    0    0    0  501 -0.00000000000E+00  0.00000000000E+00  0.16248630092E+02  0.16248630292E+02  0.25500000000E-02 0. -1.
          2   -1    0    0  501    0  0.00000000000E+00 -0.00000000000E+00 -0.19879435048E+04  0.19879435048E+04  0.25500000000E-02 0.  1.
    5000001    1    1    2    0    0  0.11198776393E+02 -0.41844959580E+02 -0.67044121232E+03  0.69180404192E+03  0.16500000000E+03 0.  0.
   -5000001    1    1    2    0    0 -0.11198776393E+02  0.41844959580E+02 -0.13012536624E+04  0.13123880932E+04  0.16500000000E+03 0.  0.
<mgrwt>
<rscale>  0 0.35945158E+03</rscale>
<asrwt>0</asrwt>
<pdfrwt beam="1">  1        2 0.30583727E+00 0.35945158E+03</pdfrwt>
<pdfrwt beam="2">  1       -2 0.24997908E-02 0.35945158E+03</pdfrwt>
<totfact> 0.41834478E+03</totfact>
</mgrwt>
</event>
<event>
 4    1  0.8984293E-005  0.3510320E+03  0.7818608E-02  0.1062192E+00
         -2   -1    0    0    0  501 -0.00000000000E+00  0.00000000000E+00  0.15974521967E+02  0.15974522171E+02  0.25500000000E-02 0. -1.
          2   -1    0    0  501    0  0.00000000000E+00 -0.00000000000E+00 -0.19284368816E+04  0.19284368816E+04  0.25500000000E-02 0.  1.
    5000001    1    1    2    0    0  0.59785745888E+02 -0.21910024008E+01 -0.94896324959E+03  0.96505719259E+03  0.16500000000E+03 0.  0.
   -5000001    1    1    2    0    0 -0.59785745888E+02  0.21910024008E+01 -0.96349911006E+03  0.97935421120E+03  0.16500000000E+03 0.  0.
<mgrwt>
<rscale>  0 0.35103195E+03</rscale>
<asrwt>0</asrwt>
<pdfrwt beam="1">  1        2 0.29668241E+00 0.35103195E+03</pdfrwt>
<pdfrwt beam="2">  1       -2 0.24576203E-02 0.35103195E+03</pdfrwt>
<totfact> 0.46154110E+03</totfact>
</mgrwt>
</event>
<event>
 4    1  0.8984293E-005  0.4284842E+03  0.7818608E-02  0.1034340E+00
         -2   -1    0    0    0  501 -0.00000000000E+00  0.00000000000E+00  0.37455544895E+03  0.37455544896E+03  0.25500000000E-02 0. -1.
          2   -1    0    0  501    0  0.00000000000E+00 -0.00000000000E+00 -0.12254441753E+03  0.12254441756E+03  0.25500000000E-02 0.  1.
    5000001    1    1    2    0    0  0.20285076621E+01  0.91746902434E+02  0.24347790296E+03  0.30810403792E+03  0.16500000000E+03 0.  0.
   -5000001    1    1    2    0    0 -0.20285076621E+01 -0.91746902434E+02  0.85331284572E+01  0.18899582861E+03  0.16500000000E+03 0.  0.
<mgrwt>
<rscale>  0 0.42848421E+03</rscale>
<asrwt>0</asrwt>
<pdfrwt beam="1">  1        2 0.18852987E-01 0.42848421E+03</pdfrwt>
<pdfrwt beam="2">  1       -2 0.57623915E-01 0.42848421E+03</pdfrwt>
<totfact> 0.86140732E+02</totfact>
</mgrwt>
</event>
<event>
 4    1  0.8984293E-005  0.1812373E+04  0.7818608E-02  0.8699747E-01
          2   -1    0    0  501    0  0.00000000000E+00  0.00000000000E+00  0.10566779599E+04  0.10566779599E+04  0.25500000000E-02 0.  1.
         -2   -1    0    0    0  501 -0.00000000000E+00 -0.00000000000E+00 -0.77712810882E+03  0.77712810883E+03  0.25500000000E-02 0. -1.
    5000001    1    1    2    0    0  0.47245064914E+03 -0.61824566278E+03 -0.29953911175E+03  0.84993293552E+03  0.16500000000E+03 0.  0.
   -5000001    1    1    2    0    0 -0.47245064914E+03  0.61824566278E+03  0.57908896287E+03  0.98387313325E+03  0.16500000000E+03 0.  0.
<mgrwt>
<rscale>  0 0.18123732E+04</rscale>
<asrwt>0</asrwt>
<pdfrwt beam="1">  1        2 0.16256584E+00 0.18123732E+04</pdfrwt>
<pdfrwt beam="2">  1       -2 0.11955817E+00 0.18123732E+04</pdfrwt>
<totfact> 0.11718426E+01</totfact>
</mgrwt>
</event>
<event>
 4    1  0.8984293E-005  0.5644686E+03  0.7818608E-02  0.9981994E-01
         -2   -1    0    0    0  501 -0.00000000000E+00  0.00000000000E+00  0.15186935769E+03  0.15186935771E+03  0.25500000000E-02 0. -1.
          2   -1    0    0  501    0  0.00000000000E+00 -0.00000000000E+00 -0.52450469085E+03  0.52450469085E+03  0.25500000000E-02 0.  1.
    5000001    1    1    2    0    0  0.11225819462E+03  0.15209593235E+03 -0.31487744340E+02  0.25288644278E+03  0.16500000000E+03 0.  0.
   -5000001    1    1    2    0    0 -0.11225819462E+03 -0.15209593235E+03 -0.34114758881E+03  0.42348760578E+03  0.16500000000E+03 0.  0.
<mgrwt>
<rscale>  0 0.56446857E+03</rscale>
<asrwt>0</asrwt>
<pdfrwt beam="1">  1        2 0.80693028E-01 0.56446857E+03</pdfrwt>
<pdfrwt beam="2">  1       -2 0.23364517E-01 0.56446857E+03</pdfrwt>
<totfact> 0.94614662E+02</totfact>
</mgrwt>
</event>
<event>
 4    1  0.8984293E-005  0.4438975E+03  0.7818608E-02  0.1029558E+00
         -2   -1    0    0    0  501 -0.00000000000E+00  0.00000000000E+00  0.56082018280E+03  0.56082018280E+03  0.25500000000E-02 0. -1.
          2   -1    0    0  501    0  0.00000000000E+00 -0.00000000000E+00 -0.87837884474E+02  0.87837884511E+02  0.25500000000E-02 0.  1.
    5000001    1    1    2    0    0 -0.80360271851E+02 -0.27189140879E+02  0.41449887198E+03  0.45412700596E+03  0.16500000000E+03 0.  0.
   -5000001    1    1    2    0    0  0.80360271851E+02  0.27189140879E+02  0.58483426347E+02  0.19453106135E+03  0.16500000000E+03 0.  0.
<mgrwt>
<rscale>  0 0.44389755E+03</rscale>
<asrwt>0</asrwt>
<pdfrwt beam="1">  1        2 0.13513521E-01 0.44389755E+03</pdfrwt>
<pdfrwt beam="2">  1       -2 0.86280024E-01 0.44389755E+03</pdfrwt>
<totfact> 0.53469875E+02</totfact>
</mgrwt>
</event>
<event>
 4    1  0.8984293E-005  0.3741496E+03  0.7818608E-02  0.1053118E+00
         -2   -1    0    0    0  501 -0.00000000000E+00  0.00000000000E+00  0.44865809945E+02  0.44865810017E+02  0.25500000000E-02 0. -1.
          2   -1    0    0  501    0  0.00000000000E+00 -0.00000000000E+00 -0.78003683189E+03  0.78003683189E+03  0.25500000000E-02 0.  1.
    5000001    1    1    2    0    0 -0.79004419051E+02 -0.32296598843E+02 -0.41625065905E+03  0.45582275030E+03  0.16500000000E+03 0.  0.
   -5000001    1    1    2    0    0  0.79004419051E+02  0.32296598843E+02 -0.31892036289E+03  0.36907989161E+03  0.16500000000E+03 0.  0.
<mgrwt>
<rscale>  0 0.37414962E+03</rscale>
<asrwt>0</asrwt>
<pdfrwt beam="1">  1        2 0.12000566E+00 0.37414962E+03</pdfrwt>
<pdfrwt beam="2">  1       -2 0.69024329E-02 0.37414962E+03</pdfrwt>
<totfact> 0.43858386E+03</totfact>
</mgrwt>
</event>
<event>
 4    1  0.8984293E-005  0.6271419E+03  0.7818608E-02  0.9850642E-01
          2   -1    0    0  501    0  0.00000000000E+00  0.00000000000E+00  0.11342209486E+04  0.11342209486E+04  0.25500000000E-02 0.  1.
         -2   -1    0    0    0  501 -0.00000000000E+00 -0.00000000000E+00 -0.86691003140E+02  0.86691003177E+02  0.25500000000E-02 0. -1.
    5000001    1    1    2    0    0  0.55629048976E+02 -0.17811128052E+03  0.15293631904E+03  0.29228879045E+03  0.16500000000E+03 0.  0.
   -5000001    1    1    2    0    0 -0.55629048976E+02  0.17811128052E+03  0.89459362644E+03  0.92862316136E+03  0.16500000000E+03 0.  0.
<mgrwt>
<rscale>  0 0.62714194E+03</rscale>
<asrwt>0</asrwt>
<pdfrwt beam="1">  1        2 0.17449552E+00 0.62714194E+03</pdfrwt>
<pdfrwt beam="2">  1       -2 0.13337078E-01 0.62714194E+03</pdfrwt>
<totfact> 0.89513877E+02</totfact>
</mgrwt>
</event>
<event>
 4    1  0.8984293E-005  0.7950790E+03  0.7818608E-02  0.9567168E-01
         -2   -1    0    0    0  501 -0.00000000000E+00  0.00000000000E+00  0.20444824520E+03  0.20444824522E+03  0.25500000000E-02 0. -1.
          2   -1    0    0  501    0  0.00000000000E+00 -0.00000000000E+00 -0.77299584121E+03  0.77299584121E+03  0.25500000000E-02 0.  1.
    5000001    1    1    2    0    0  0.18411143322E+03 -0.26910959240E+03 -0.91864459763E+02  0.37680375732E+03  0.16500000000E+03 0.  0.
   -5000001    1    1    2    0    0 -0.18411143322E+03  0.26910959240E+03 -0.47668313624E+03  0.60064032910E+03  0.16500000000E+03 0.  0.
<mgrwt>
<rscale>  0 0.79507897E+03</rscale>
<asrwt>0</asrwt>
<pdfrwt beam="1">  1        2 0.11892244E+00 0.79507897E+03</pdfrwt>
<pdfrwt beam="2">  1       -2 0.31453576E-01 0.79507897E+03</pdfrwt>
<totfact> 0.33984541E+02</totfact>
</mgrwt>
</event>
<event>
 4    1  0.8984293E-005  0.7924337E+03  0.7818608E-02  0.9571034E-01
         -2   -1    0    0    0  501 -0.00000000000E+00  0.00000000000E+00  0.11707065647E+03  0.11707065650E+03  0.25500000000E-02 0. -1.
          2   -1    0    0  501    0  0.00000000000E+00 -0.00000000000E+00 -0.13409662992E+04  0.13409662992E+04  0.25500000000E-02 0.  1.
    5000001    1    1    2    0    0 -0.20466350349E+03 -0.21795709659E+03 -0.98163712509E+03  0.10393406039E+04  0.16500000000E+03 0.  0.
   -5000001    1    1    2    0    0  0.20466350349E+03  0.21795709659E+03 -0.24225851761E+03  0.41869635175E+03  0.16500000000E+03 0.  0.
<mgrwt>
<rscale>  0 0.79243373E+03</rscale>
<asrwt>0</asrwt>
<pdfrwt beam="1">  1        2 0.20630250E+00 0.79243373E+03</pdfrwt>
<pdfrwt beam="2">  1       -2 0.18010871E-01 0.79243373E+03</pdfrwt>
<totfact> 0.40401260E+02</totfact>
</mgrwt>
</event>
<event>
 4    1  0.8984293E-005  0.4399748E+03  0.7818608E-02  0.1030755E+00
         -2   -1    0    0    0  501 -0.00000000000E+00  0.00000000000E+00  0.40236631257E+03  0.40236631258E+03  0.25500000000E-02 0. -1.
          2   -1    0    0  501    0  0.00000000000E+00 -0.00000000000E+00 -0.12027460026E+03  0.12027460028E+03  0.25500000000E-02 0.  1.
    5000001    1    1    2    0    0  0.46135223843E+02  0.12114755120E+03  0.21952078254E+03  0.30367673933E+03  0.16500000000E+03 0.  0.
   -5000001    1    1    2    0    0 -0.46135223843E+02 -0.12114755120E+03  0.62570929775E+02  0.21896417354E+03  0.16500000000E+03 0.  0.
<mgrwt>
<rscale>  0 0.43997476E+03</rscale>
<asrwt>0</asrwt>
<pdfrwt beam="1">  1        2 0.18503784E-01 0.43997476E+03</pdfrwt>
<pdfrwt beam="2">  1       -2 0.61902510E-01 0.43997476E+03</pdfrwt>
<totfact> 0.75819275E+02</totfact>
</mgrwt>
</event>
<event>
 4    1  0.8984293E-005  0.5107217E+03  0.7818608E-02  0.1011018E+00
         -2   -1    0    0    0  501 -0.00000000000E+00  0.00000000000E+00  0.25731904280E+03  0.25731904282E+03  0.25500000000E-02 0. -1.
          2   -1    0    0  501    0  0.00000000000E+00 -0.00000000000E+00 -0.25341753430E+03  0.25341753431E+03  0.25500000000E-02 0.  1.
    5000001    1    1    2    0    0 -0.50661485576E+02  0.18701477409E+03 -0.19098506280E+02  0.25520749360E+03  0.16500000000E+03 0.  0.
   -5000001    1    1    2    0    0  0.50661485576E+02 -0.18701477409E+03  0.23000014782E+02  0.25552908353E+03  0.16500000000E+03 0.  0.
<mgrwt>
<rscale>  0 0.51072168E+03</rscale>
<asrwt>0</asrwt>
<pdfrwt beam="1">  1        2 0.38987313E-01 0.51072168E+03</pdfrwt>
<pdfrwt beam="2">  1       -2 0.39587545E-01 0.51072168E+03</pdfrwt>
<totfact> 0.80318933E+02</totfact>
</mgrwt>
</event>
<event>
 4    1  0.8984293E-005  0.3850075E+03  0.7818608E-02  0.1049098E+00
         -2   -1    0    0    0  501 -0.00000000000E+00  0.00000000000E+00  0.15198702797E+02  0.15198703011E+02  0.25500000000E-02 0. -1.
          2   -1    0    0  501    0  0.00000000000E+00 -0.00000000000E+00 -0.24382139712E+04  0.24382139712E+04  0.25500000000E-02 0.  1.
    5000001    1    1    2    0    0  0.78472476733E+02 -0.52075438876E+02 -0.10137678652E+04  0.10314165335E+04  0.16500000000E+03 0.  0.
   -5000001    1    1    2    0    0 -0.78472476733E+02  0.52075438876E+02 -0.14092474031E+04  0.14219961407E+04  0.16500000000E+03 0.  0.
<mgrwt>
<rscale>  0 0.38500748E+03</rscale>
<asrwt>0</asrwt>
<pdfrwt beam="1">  1        2 0.37510953E+00 0.38500748E+03</pdfrwt>
<pdfrwt beam="2">  1       -2 0.23382639E-02 0.38500748E+03</pdfrwt>
<totfact> 0.26390395E+03</totfact>
</mgrwt>
</event>
<event>
 4    1  0.8984293E-005  0.3935906E+03  0.7818608E-02  0.1046022E+00
          2   -1    0    0  501    0  0.00000000000E+00  0.00000000000E+00  0.15528865669E+03  0.15528865671E+03  0.25500000000E-02 0.  1.
         -2   -1    0    0    0  501 -0.00000000000E+00 -0.00000000000E+00 -0.24939615123E+03  0.24939615124E+03  0.25500000000E-02 0. -1.
    5000001    1    1    2    0    0  0.61173895844E+02  0.22430020317E+02  0.40541774304E+02  0.18197248915E+03  0.16500000000E+03 0.  0.
   -5000001    1    1    2    0    0 -0.61173895844E+02 -0.22430020317E+02 -0.13464926884E+03  0.22271231880E+03  0.16500000000E+03 0.  0.
<mgrwt>
<rscale>  0 0.39359062E+03</rscale>
<asrwt>0</asrwt>
<pdfrwt beam="1">  1        2 0.23890563E-01 0.39359062E+03</pdfrwt>
<pdfrwt beam="2">  1       -2 0.38368639E-01 0.39359062E+03</pdfrwt>
<totfact> 0.14716845E+03</totfact>
</mgrwt>
</event>
<event>
 4    1  0.8984293E-005  0.5395531E+03  0.7818608E-02  0.1003941E+00
          2   -1    0    0  501    0  0.00000000000E+00  0.00000000000E+00  0.99089122418E+03  0.99089122418E+03  0.25500000000E-02 0.  1.
         -2   -1    0    0    0  501 -0.00000000000E+00 -0.00000000000E+00 -0.73448401060E+02  0.73448401104E+02  0.25500000000E-02 0. -1.
    5000001    1    1    2    0    0  0.35292668810E+02  0.13492567220E+03  0.14000935552E+03  0.25744539056E+03  0.16500000000E+03 0.  0.
   -5000001    1    1    2    0    0 -0.35292668810E+02 -0.13492567220E+03  0.77743346760E+03  0.80689423472E+03  0.16500000000E+03 0.  0.
<mgrwt>
<rscale>  0 0.53955306E+03</rscale>
<asrwt>0</asrwt>
<pdfrwt beam="1">  1        2 0.15244480E+00 0.53955306E+03</pdfrwt>
<pdfrwt beam="2">  1       -2 0.11299754E-01 0.53955306E+03</pdfrwt>
<totfact> 0.14452987E+03</totfact>
</mgrwt>
</event>
<event>
 4    1  0.8984293E-005  0.5325551E+03  0.7818608E-02  0.1005614E+00
          2   -1    0    0  501    0  0.00000000000E+00  0.00000000000E+00  0.13133672257E+03  0.13133672259E+03  0.25500000000E-02 0.  1.
         -2   -1    0    0    0  501 -0.00000000000E+00 -0.00000000000E+00 -0.53986229040E+03  0.53986229040E+03  0.25500000000E-02 0. -1.
    5000001    1    1    2    0    0  0.18419528378E+03  0.29958966742E+02 -0.85675162083E+02  0.26342109948E+03  0.16500000000E+03 0.  0.
   -5000001    1    1    2    0    0 -0.18419528378E+03 -0.29958966742E+02 -0.32285040575E+03  0.40777791351E+03  0.16500000000E+03 0.  0.
<mgrwt>
<rscale>  0 0.53255514E+03</rscale>
<asrwt>0</asrwt>
<pdfrwt beam="1">  1        2 0.20205650E-01 0.53255514E+03</pdfrwt>
<pdfrwt beam="2">  1       -2 0.83055736E-01 0.53255514E+03</pdfrwt>
<totfact> 0.36034876E+02</totfact>
</mgrwt>
</event>
<event>
 4    1  0.8984293E-005  0.7609107E+03  0.7818608E-02  0.9618387E-01
         -2   -1    0    0    0  501 -0.00000000000E+00  0.00000000000E+00  0.12223530875E+03  0.12223530877E+03  0.25500000000E-02 0. -1.
          2   -1    0    0  501    0  0.00000000000E+00 -0.00000000000E+00 -0.11841608292E+04  0.11841608292E+04  0.25500000000E-02 0.  1.
    5000001    1    1    2    0    0  0.12831303493E+03  0.27730035801E+03 -0.79783507681E+03  0.87012960717E+03  0.16500000000E+03 0.  0.
   -5000001    1    1    2    0    0 -0.12831303493E+03 -0.27730035801E+03 -0.26409044366E+03  0.43626653083E+03  0.16500000000E+03 0.  0.
<mgrwt>
<rscale>  0 0.76091068E+03</rscale>
<asrwt>0</asrwt>
<pdfrwt beam="1">  1        2 0.18217858E+00 0.76091068E+03</pdfrwt>
<pdfrwt beam="2">  1       -2 0.18805433E-01 0.76091068E+03</pdfrwt>
<totfact> 0.46345247E+02</totfact>
</mgrwt>
</event>
<event>
 4    1  0.8984293E-005  0.5478931E+03  0.7818608E-02  0.1001983E+00
         -2   -1    0    0    0  501 -0.00000000000E+00  0.00000000000E+00  0.42169326003E+03  0.42169326004E+03  0.25500000000E-02 0. -1.
          2   -1    0    0  501    0  0.00000000000E+00 -0.00000000000E+00 -0.17796515974E+03  0.17796515976E+03  0.25500000000E-02 0.  1.
    5000001    1    1    2    0    0 -0.87124039811E+02 -0.18827667223E+03  0.19755753900E+03  0.33059444163E+03  0.16500000000E+03 0.  0.
   -5000001    1    1    2    0    0  0.87124039811E+02  0.18827667223E+03  0.46170561286E+02  0.26906397817E+03  0.16500000000E+03 0.  0.
<mgrwt>
<rscale>  0 0.54789309E+03</rscale>
<asrwt>0</asrwt>
<pdfrwt beam="1">  1        2 0.27379256E-01 0.54789309E+03</pdfrwt>
<pdfrwt beam="2">  1       -2 0.64875885E-01 0.54789309E+03</pdfrwt>
<totfact> 0.43690295E+02</totfact>
</mgrwt>
</event>
<event>
 4    1  0.8984293E-005  0.7187321E+03  0.7818608E-02  0.9685723E-01
         -2   -1    0    0    0  501 -0.00000000000E+00  0.00000000000E+00  0.38355699193E+02  0.38355699278E+02  0.25500000000E-02 0. -1.
          2   -1    0    0  501    0  0.00000000000E+00 -0.00000000000E+00 -0.33670083183E+04  0.33670083183E+04  0.25500000000E-02 0.  1.
    5000001    1    1    2    0    0 -0.18742495698E+03  0.25346930057E+03 -0.19033101311E+04  0.19362823286E+04  0.16500000000E+03 0.  0.
   -5000001    1    1    2    0    0  0.18742495698E+03 -0.25346930057E+03 -0.14253424880E+04  0.14690816890E+04  0.16500000000E+03 0.  0.
<mgrwt>
<rscale>  0 0.71873210E+03</rscale>
<asrwt>0</asrwt>
<pdfrwt beam="1">  1        2 0.51800105E+00 0.71873210E+03</pdfrwt>
<pdfrwt beam="2">  1       -2 0.59008794E-02 0.71873210E+03</pdfrwt>
<totfact> 0.17194703E+02</totfact>
</mgrwt>
</event>
<event>
 4    1  0.8984293E-005  0.4490826E+03  0.7818608E-02  0.1027996E+00
          2   -1    0    0  501    0  0.00000000000E+00  0.00000000000E+00  0.27341106490E+04  0.27341106490E+04  0.25500000000E-02 0.  1.
         -2   -1    0    0    0  501 -0.00000000000E+00 -0.00000000000E+00 -0.18440657400E+02  0.18440657577E+02  0.25500000000E-02 0. -1.
    5000001    1    1    2    0    0  0.83379787620E+02 -0.11473597101E+03  0.16978450048E+04  0.17117298830E+04  0.16500000000E+03 0.  0.
   -5000001    1    1    2    0    0 -0.83379787620E+02  0.11473597101E+03  0.10178249868E+04  0.10408214236E+04  0.16500000000E+03 0.  0.
<mgrwt>
<rscale>  0 0.44908261E+03</rscale>
<asrwt>0</asrwt>
<pdfrwt beam="1">  1        2 0.42063248E+00 0.44908261E+03</pdfrwt>
<pdfrwt beam="2">  1       -2 0.28370238E-02 0.44908261E+03</pdfrwt>
<totfact> 0.13389819E+03</totfact>
</mgrwt>
</event>
<event>
 4    1  0.8984293E-005  0.3551272E+03  0.7818608E-02  0.1060530E+00
          2   -1    0    0  501    0  0.00000000000E+00  0.00000000000E+00  0.11644288616E+04  0.11644288616E+04  0.25500000000E-02 0.  1.
         -2   -1    0    0    0  501 -0.00000000000E+00 -0.00000000000E+00 -0.27076647505E+02  0.27076647625E+02  0.25500000000E-02 0. -1.
    5000001    1    1    2    0    0  0.64592726137E+02 -0.74389791186E+01  0.53937442926E+03  0.56778282259E+03  0.16500000000E+03 0.  0.
   -5000001    1    1    2    0    0 -0.64592726137E+02  0.74389791186E+01  0.59797778483E+03  0.62372268664E+03  0.16500000000E+03 0.  0.
<mgrwt>
<rscale>  0 0.35512719E+03</rscale>
<asrwt>0</asrwt>
<pdfrwt beam="1">  1        2 0.17914293E+00 0.35512719E+03</pdfrwt>
<pdfrwt beam="2">  1       -2 0.41656374E-02 0.35512719E+03</pdfrwt>
<totfact> 0.54354940E+03</totfact>
</mgrwt>
</event>
<event>
 4    1  0.8984293E-005  0.4934426E+03  0.7818608E-02  0.1015505E+00
         -2   -1    0    0    0  501 -0.00000000000E+00  0.00000000000E+00  0.99564879373E+02  0.99564879406E+02  0.25500000000E-02 0. -1.
          2   -1    0    0  501    0  0.00000000000E+00 -0.00000000000E+00 -0.61137413486E+03  0.61137413486E+03  0.25500000000E-02 0.  1.
    5000001    1    1    2    0    0  0.68658394111E+02  0.84721650519E+02 -0.43398296284E+02  0.20248492603E+03  0.16500000000E+03 0.  0.
   -5000001    1    1    2    0    0 -0.68658394111E+02 -0.84721650519E+02 -0.46841095920E+03  0.50845408824E+03  0.16500000000E+03 0.  0.
<mgrwt>
<rscale>  0 0.49344257E+03</rscale>
<asrwt>0</asrwt>
<pdfrwt beam="1">  1        2 0.94057557E-01 0.49344257E+03</pdfrwt>
<pdfrwt beam="2">  1       -2 0.15317674E-01 0.49344257E+03</pdfrwt>
<totfact> 0.16382767E+03</totfact>
</mgrwt>
</event>
<event>
 4    1  0.8984293E-005  0.5447160E+03  0.7818608E-02  0.1002724E+00
         -2   -1    0    0    0  501 -0.00000000000E+00  0.00000000000E+00  0.57844812925E+02  0.57844812981E+02  0.25500000000E-02 0. -1.
          2   -1    0    0  501    0  0.00000000000E+00 -0.00000000000E+00 -0.12823772234E+04  0.12823772234E+04  0.25500000000E-02 0.  1.
    5000001    1    1    2    0    0 -0.21378656705E+03 -0.56706810368E+01 -0.52643304421E+03  0.59168708192E+03  0.16500000000E+03 0.  0.
   -5000001    1    1    2    0    0  0.21378656705E+03  0.56706810368E+01 -0.69809936628E+03  0.74853495448E+03  0.16500000000E+03 0.  0.
<mgrwt>
<rscale>  0 0.54471596E+03</rscale>
<asrwt>0</asrwt>
<pdfrwt beam="1">  1        2 0.19728878E+00 0.54471596E+03</pdfrwt>
<pdfrwt beam="2">  1       -2 0.88992029E-02 0.54471596E+03</pdfrwt>
<totfact> 0.14231365E+03</totfact>
</mgrwt>
</event>
<event>
 4    1  0.8984293E-005  0.4028818E+03  0.7818608E-02  0.1042786E+00
          2   -1    0    0  501    0  0.00000000000E+00  0.00000000000E+00  0.89892243869E+03  0.89892243870E+03  0.25500000000E-02 0.  1.
         -2   -1    0    0    0  501 -0.00000000000E+00 -0.00000000000E+00 -0.45141202067E+02  0.45141202139E+02  0.25500000000E-02 0. -1.
    5000001    1    1    2    0    0 -0.10651650383E+03 -0.30640076601E+02  0.50350034919E+03  0.54131523304E+03  0.16500000000E+03 0.  0.
   -5000001    1    1    2    0    0  0.10651650383E+03  0.30640076601E+02  0.35028088744E+03  0.40274840780E+03  0.16500000000E+03 0.  0.
<mgrwt>
<rscale>  0 0.40288182E+03</rscale>
<asrwt>0</asrwt>
<pdfrwt beam="1">  1        2 0.13829575E+00 0.40288182E+03</pdfrwt>
<pdfrwt beam="2">  1       -2 0.69448009E-02 0.40288182E+03</pdfrwt>
<totfact> 0.36068267E+03</totfact>
</mgrwt>
</event>
<event>
 4    1  0.8984293E-005  0.4130859E+03  0.7818608E-02  0.1039340E+00
         -2   -1    0    0    0  501 -0.00000000000E+00  0.00000000000E+00  0.48450719925E+02  0.48450719992E+02  0.25500000000E-02 0. -1.
          2   -1    0    0  501    0  0.00000000000E+00 -0.00000000000E+00 -0.88048198356E+03  0.88048198356E+03  0.25500000000E-02 0.  1.
    5000001    1    1    2    0    0  0.11937720495E+03  0.30506338353E+02 -0.38021630461E+03  0.43240142464E+03  0.16500000000E+03 0.  0.
   -5000001    1    1    2    0    0 -0.11937720495E+03 -0.30506338353E+02 -0.45181495902E+03  0.49653127891E+03  0.16500000000E+03 0.  0.
<mgrwt>
<rscale>  0 0.41308588E+03</rscale>
<asrwt>0</asrwt>
<pdfrwt beam="1">  1        2 0.13545876E+00 0.41308588E+03</pdfrwt>
<pdfrwt beam="2">  1       -2 0.74539576E-02 0.41308588E+03</pdfrwt>
<totfact> 0.33205848E+03</totfact>
</mgrwt>
</event>
<event>
 4    1  0.8984293E-005  0.4736494E+03  0.7818608E-02  0.1020895E+00
          2   -1    0    0  501    0  0.00000000000E+00  0.00000000000E+00  0.69887529318E+03  0.69887529318E+03  0.25500000000E-02 0.  1.
         -2   -1    0    0    0  501 -0.00000000000E+00 -0.00000000000E+00 -0.80251722438E+02  0.80251722478E+02  0.25500000000E-02 0. -1.
    5000001    1    1    2    0    0 -0.15893054394E+03 -0.52661834878E+02  0.26195682474E+03  0.35196386843E+03  0.16500000000E+03 0.  0.
   -5000001    1    1    2    0    0  0.15893054394E+03  0.52661834878E+02  0.35666674601E+03  0.42716314724E+03  0.16500000000E+03 0.  0.
<mgrwt>
<rscale>  0 0.47364943E+03</rscale>
<asrwt>0</asrwt>
<pdfrwt beam="1">  1        2 0.10751928E+00 0.47364943E+03</pdfrwt>
<pdfrwt beam="2">  1       -2 0.12346419E-01 0.47364943E+03</pdfrwt>
<totfact> 0.19916170E+03</totfact>
</mgrwt>
</event>
<event>
 4    1  0.8984293E-005  0.5057264E+03  0.7818608E-02  0.1012295E+00
          2   -1    0    0  501    0  0.00000000000E+00  0.00000000000E+00  0.66298390216E+03  0.66298390216E+03  0.25500000000E-02 0.  1.
         -2   -1    0    0    0  501 -0.00000000000E+00 -0.00000000000E+00 -0.96442444755E+02  0.96442444788E+02  0.25500000000E-02 0. -1.
    5000001    1    1    2    0    0  0.10282257326E+02  0.18641347849E+03  0.21852383432E+03  0.33141118862E+03  0.16500000000E+03 0.  0.
   -5000001    1    1    2    0    0 -0.10282257326E+02 -0.18641347849E+03  0.34801762309E+03  0.42801515833E+03  0.16500000000E+03 0.  0.
<mgrwt>
<rscale>  0 0.50572636E+03</rscale>
<asrwt>0</asrwt>
<pdfrwt beam="1">  1        2 0.10199752E+00 0.50572636E+03</pdfrwt>
<pdfrwt beam="2">  1       -2 0.14837299E-01 0.50572636E+03</pdfrwt>
<totfact> 0.15668669E+03</totfact>
</mgrwt>
</event>
<event>
 4    1  0.8984293E-005  0.4708503E+03  0.7818608E-02  0.1021680E+00
         -2   -1    0    0    0  501 -0.00000000000E+00  0.00000000000E+00  0.10125554602E+03  0.10125554605E+03  0.25500000000E-02 0. -1.
          2   -1    0    0  501    0  0.00000000000E+00 -0.00000000000E+00 -0.54737747695E+03  0.54737747696E+03  0.25500000000E-02 0.  1.
    5000001    1    1    2    0    0  0.14840407026E+03 -0.62578878968E+02 -0.28855202978E+03  0.36936047170E+03  0.16500000000E+03 0.  0.
   -5000001    1    1    2    0    0 -0.14840407026E+03  0.62578878968E+02 -0.15756990116E+03  0.27927255131E+03  0.16500000000E+03 0.  0.
<mgrwt>
<rscale>  0 0.47085032E+03</rscale>
<asrwt>0</asrwt>
<pdfrwt beam="1">  1        2 0.84211918E-01 0.47085032E+03</pdfrwt>
<pdfrwt beam="2">  1       -2 0.15577777E-01 0.47085032E+03</pdfrwt>
<totfact> 0.18139557E+03</totfact>
</mgrwt>
</event>
<event>
 4    1  0.8984293E-005  0.3740625E+03  0.7818608E-02  0.1053150E+00
          2   -1    0    0  501    0  0.00000000000E+00  0.00000000000E+00  0.36711690398E+03  0.36711690399E+03  0.25500000000E-02 0.  1.
         -2   -1    0    0    0  501 -0.00000000000E+00 -0.00000000000E+00 -0.95284868499E+02  0.95284868533E+02  0.25500000000E-02 0. -1.
    5000001    1    1    2    0    0  0.53264005021E+02  0.39323330813E+02  0.64130157582E+02  0.18900014732E+03  0.16500000000E+03 0.  0.
   -5000001    1    1    2    0    0 -0.53264005021E+02 -0.39323330813E+02  0.20770187790E+03  0.27340162519E+03  0.16500000000E+03 0.  0.
<mgrwt>
<rscale>  0 0.37406249E+03</rscale>
<asrwt>0</asrwt>
<pdfrwt beam="1">  1        2 0.56479523E-01 0.37406249E+03</pdfrwt>
<pdfrwt beam="2">  1       -2 0.14659211E-01 0.37406249E+03</pdfrwt>
<totfact> 0.31356164E+03</totfact>
</mgrwt>
</event>
<event>
 4    1  0.8984293E-005  0.5680801E+03  0.7818608E-02  0.9973936E-01
         -2   -1    0    0    0  501 -0.00000000000E+00  0.00000000000E+00  0.35864650063E+02  0.35864650154E+02  0.25500000000E-02 0. -1.
          2   -1    0    0  501    0  0.00000000000E+00 -0.00000000000E+00 -0.22495339322E+04  0.22495339322E+04  0.25500000000E-02 0.  1.
    5000001    1    1    2    0    0  0.22840291009E+03 -0.20435423121E+01 -0.96280810199E+03  0.10031931552E+04  0.16500000000E+03 0.  0.
   -5000001    1    1    2    0    0 -0.22840291009E+03  0.20435423121E+01 -0.12508611801E+04  0.12822054271E+04  0.16500000000E+03 0.  0.
<mgrwt>
<rscale>  0 0.56808009E+03</rscale>
<asrwt>0</asrwt>
<pdfrwt beam="1">  1        2 0.34608203E+00 0.56808009E+03</pdfrwt>
<pdfrwt beam="2">  1       -2 0.55176402E-02 0.56808009E+03</pdfrwt>
<totfact> 0.89476019E+02</totfact>
</mgrwt>
</event>
<event>
 4    1  0.8984293E-005  0.4629285E+03  0.7818608E-02  0.1023935E+00
         -2   -1    0    0    0  501 -0.00000000000E+00  0.00000000000E+00  0.39223497873E+02  0.39223497956E+02  0.25500000000E-02 0. -1.
          2   -1    0    0  501    0  0.00000000000E+00 -0.00000000000E+00 -0.13659081889E+04  0.13659081889E+04  0.25500000000E-02 0.  1.
    5000001    1    1    2    0    0 -0.11022266049E+03  0.92849276024E+02 -0.89009190190E+03  0.91665621515E+03  0.16500000000E+03 0.  0.
   -5000001    1    1    2    0    0  0.11022266049E+03 -0.92849276024E+02 -0.43659278911E+03  0.48847547169E+03  0.16500000000E+03 0.  0.
<mgrwt>
<rscale>  0 0.46292849E+03</rscale>
<asrwt>0</asrwt>
<pdfrwt beam="1">  1        2 0.21013968E+00 0.46292849E+03</pdfrwt>
<pdfrwt beam="2">  1       -2 0.60343853E-02 0.46292849E+03</pdfrwt>
<totfact> 0.23626307E+03</totfact>
</mgrwt>
</event>
<event>
 4    1  0.8984293E-005  0.9110839E+03  0.7818608E-02  0.9411831E-01
          2   -1    0    0  501    0  0.00000000000E+00  0.00000000000E+00  0.83476748176E+02  0.83476748214E+02  0.25500000000E-02 0.  1.
         -2   -1    0    0    0  501 -0.00000000000E+00 -0.00000000000E+00 -0.24859431728E+04  0.24859431728E+04  0.25500000000E-02 0. -1.
    5000001    1    1    2    0    0 -0.29827724659E+03  0.28635829670E+03 -0.14735384693E+04  0.15393216072E+04  0.16500000000E+03 0.  0.
   -5000001    1    1    2    0    0  0.29827724659E+03 -0.28635829670E+03 -0.92892795534E+03  0.10300983138E+04  0.16500000000E+03 0.  0.
<mgrwt>
<rscale>  0 0.91108386E+03</rscale>
<asrwt>0</asrwt>
<pdfrwt beam="1">  1        2 0.12842579E-01 0.91108386E+03</pdfrwt>
<pdfrwt beam="2">  1       -2 0.38245274E+00 0.91108386E+03</pdfrwt>
<totfact> 0.48728974E+00</totfact>
</mgrwt>
</event>
<event>
 4    1  0.8984293E-005  0.5697737E+03  0.7818608E-02  0.9970180E-01
          2   -1    0    0  501    0  0.00000000000E+00  0.00000000000E+00  0.12776207000E+04  0.12776207000E+04  0.25500000000E-02 0. -1.
         -2   -1    0    0    0  501 -0.00000000000E+00 -0.00000000000E+00 -0.63524725047E+02  0.63524725098E+02  0.25500000000E-02 0.  1.
    5000001    1    1    2    0    0  0.87244984440E+02  0.14154862975E+03  0.98868513923E+03  0.10160565961E+04  0.16500000000E+03 0.  0.
   -5000001    1    1    2    0    0 -0.87244984440E+02 -0.14154862975E+03  0.22541083572E+03  0.32508882902E+03  0.16500000000E+03 0.  0.
<mgrwt>
<rscale>  0 0.56977365E+03</rscale>
<asrwt>0</asrwt>
<pdfrwt beam="1">  1        2 0.19655701E+00 0.56977365E+03</pdfrwt>
<pdfrwt beam="2">  1       -2 0.97730354E-02 0.56977365E+03</pdfrwt>
<totfact> 0.12306126E+03</totfact>
</mgrwt>
</event>
<event>
 4    1  0.8984293E-005  0.5985399E+03  0.7818608E-02  0.9908440E-01
          2   -1    0    0  501    0  0.00000000000E+00  0.00000000000E+00  0.20301074380E+04  0.20301074380E+04  0.25500000000E-02 0.  1.
         -2   -1    0    0    0  501 -0.00000000000E+00 -0.00000000000E+00 -0.44117130352E+02  0.44117130426E+02  0.25500000000E-02 0. -1.
    5000001    1    1    2    0    0 -0.17706618324E+03  0.16733808558E+03  0.80372041982E+03  0.85588900061E+03  0.16500000000E+03 0.  0.
   -5000001    1    1    2    0    0  0.17706618324E+03 -0.16733808558E+03  0.11822698878E+04  0.12183355678E+04  0.16500000000E+03 0.  0.
<mgrwt>
<rscale>  0 0.59853994E+03</rscale>
<asrwt>0</asrwt>
<pdfrwt beam="1">  1        2 0.31232420E+00 0.59853994E+03</pdfrwt>
<pdfrwt beam="2">  1       -2 0.67872513E-02 0.59853994E+03</pdfrwt>
<totfact> 0.84982829E+02</totfact>
</mgrwt>
</event>
<event>
 4    1  0.8984293E-005  0.4313710E+03  0.7818608E-02  0.1033428E+00
         -2   -1    0    0    0  501 -0.00000000000E+00  0.00000000000E+00  0.40491348320E+02  0.40491348401E+02  0.25500000000E-02 0.  1.
          2   -1    0    0  501    0  0.00000000000E+00 -0.00000000000E+00 -0.11488932923E+04  0.11488932924E+04  0.25500000000E-02 0. -1.
    5000001    1    1    2    0    0 -0.10483967300E+03  0.76571739477E+02 -0.41798622297E+03  0.46775214688E+03  0.16500000000E+03 0.  0.
   -5000001    1    1    2    0    0  0.10483967300E+03 -0.76571739477E+02 -0.69041572106E+03  0.72163249387E+03  0.16500000000E+03 0.  0.
<mgrwt>
<rscale>  0 0.43137102E+03</rscale>
<asrwt>0</asrwt>
<pdfrwt beam="1">  1        2 0.17675279E+00 0.43137102E+03</pdfrwt>
<pdfrwt beam="2">  1       -2 0.62294391E-02 0.43137102E+03</pdfrwt>
<totfact> 0.29935291E+03</totfact>
</mgrwt>
</event>
<event>
 4    1  0.8984293E-005  0.5340123E+03  0.7818608E-02  0.1005264E+00
         -2   -1    0    0    0  501 -0.00000000000E+00  0.00000000000E+00  0.59306675752E+03  0.59306675753E+03  0.25500000000E-02 0. -1.
          2   -1    0    0  501    0  0.00000000000E+00 -0.00000000000E+00 -0.12020952591E+03  0.12020952594E+03  0.25500000000E-02 0.  1.
    5000001    1    1    2    0    0 -0.82344649890E+02  0.19096757913E+03  0.27463073776E+03  0.38196374143E+03  0.16500000000E+03 0.  0.
   -5000001    1    1    2    0    0  0.82344649890E+02 -0.19096757913E+03  0.19822649385E+03  0.33131254203E+03  0.16500000000E+03 0.  0.
<mgrwt>
<rscale>  0 0.53401226E+03</rscale>
<asrwt>0</asrwt>
<pdfrwt beam="1">  1        2 0.18493773E-01 0.53401226E+03</pdfrwt>
<pdfrwt beam="2">  1       -2 0.91241041E-01 0.53401226E+03</pdfrwt>
<totfact> 0.32278736E+02</totfact>
</mgrwt>
</event>
<event>
 4    1  0.8984293E-005  0.4591414E+03  0.7818608E-02  0.1025031E+00
          2   -1    0    0  501    0  0.00000000000E+00  0.00000000000E+00  0.11586227565E+04  0.11586227565E+04  0.25500000000E-02 0.  1.
         -2   -1    0    0    0  501 -0.00000000000E+00 -0.00000000000E+00 -0.45487382865E+02  0.45487382936E+02  0.25500000000E-02 0. -1.
    5000001    1    1    2    0    0  0.13167873702E+03 -0.78414277796E+02  0.43958928563E+03  0.49391479912E+03  0.16500000000E+03 0.  0.
   -5000001    1    1    2    0    0 -0.13167873702E+03  0.78414277796E+02  0.67354608800E+03  0.71019534032E+03  0.16500000000E+03 0.  0.
<mgrwt>
<rscale>  0 0.45914145E+03</rscale>
<asrwt>0</asrwt>
<pdfrwt beam="1">  1        2 0.17824963E+00 0.45914145E+03</pdfrwt>
<pdfrwt beam="2">  1       -2 0.69980599E-02 0.45914145E+03</pdfrwt>
<totfact> 0.24624729E+03</totfact>
</mgrwt>
</event>
<event>
 4    1  0.8984293E-005  0.5185855E+03  0.7818608E-02  0.1009039E+00
         -2   -1    0    0    0  501 -0.00000000000E+00  0.00000000000E+00  0.49448805289E+02  0.49448805355E+02  0.25500000000E-02 0. -1.
          2   -1    0    0  501    0  0.00000000000E+00 -0.00000000000E+00 -0.13596432447E+04  0.13596432447E+04  0.25500000000E-02 0.  1.
    5000001    1    1    2    0    0 -0.19102303734E+03 -0.59039152249E+02 -0.63965179920E+03  0.69018464668E+03  0.16500000000E+03 0.  0.
   -5000001    1    1    2    0    0  0.19102303734E+03  0.59039152249E+02 -0.67054264025E+03  0.71890740341E+03  0.16500000000E+03 0.  0.
<mgrwt>
<rscale>  0 0.51858552E+03</rscale>
<asrwt>0</asrwt>
<pdfrwt beam="1">  1        2 0.20917586E+00 0.51858552E+03</pdfrwt>
<pdfrwt beam="2">  1       -2 0.76075095E-02 0.51858552E+03</pdfrwt>
<totfact> 0.16531263E+03</totfact>
</mgrwt>
</event>
<event>
 4    1  0.8984293E-005  0.4546428E+03  0.7818608E-02  0.1026347E+00
         -2   -1    0    0    0  501 -0.00000000000E+00  0.00000000000E+00  0.75367281636E+03  0.75367281636E+03  0.25500000000E-02 0.  1.
          2   -1    0    0  501    0  0.00000000000E+00 -0.00000000000E+00 -0.68564253481E+02  0.68564253529E+02  0.25500000000E-02 0. -1.
    5000001    1    1    2    0    0  0.76022606011E+02 -0.11344320700E+03  0.48030259201E+03  0.52589388448E+03  0.16500000000E+03 0.  0.
   -5000001    1    1    2    0    0 -0.76022606011E+02  0.11344320700E+03  0.20480597087E+03  0.29634318541E+03  0.16500000000E+03 0.  0.
<mgrwt>
<rscale>  0 0.45464278E+03</rscale>
<asrwt>0</asrwt>
<pdfrwt beam="1">  1        2 0.10548346E-01 0.45464278E+03</pdfrwt>
<pdfrwt beam="2">  1       -2 0.11594967E+00 0.45464278E+03</pdfrwt>
<totfact> 0.36308215E+02</totfact>
</mgrwt>
</event>
<event>
 4    1  0.8984293E-005  0.8120464E+03  0.7818608E-02  0.9542742E-01
         -2   -1    0    0    0  501 -0.00000000000E+00  0.00000000000E+00  0.64333122904E+02  0.64333122955E+02  0.25500000000E-02 0. -1.
          2   -1    0    0  501    0  0.00000000000E+00 -0.00000000000E+00 -0.25625186723E+04  0.25625186723E+04  0.25500000000E-02 0.  1.
    5000001    1    1    2    0    0  0.96995814630E+02 -0.34831734130E+03 -0.98045042575E+03  0.10579419623E+04  0.16500000000E+03 0.  0.
   -5000001    1    1    2    0    0 -0.96995814630E+02  0.34831734130E+03 -0.15177351237E+04  0.15689098329E+04  0.16500000000E+03 0.  0.
<mgrwt>
<rscale>  0 0.81204637E+03</rscale>
<asrwt>0</asrwt>
<pdfrwt beam="1">  1        2 0.39423356E+00 0.81204637E+03</pdfrwt>
<pdfrwt beam="2">  1       -2 0.98974055E-02 0.81204637E+03</pdfrwt>
<totfact> 0.23098158E+02</totfact>
</mgrwt>
</event>
<event>
 4    1  0.8984293E-005  0.8706179E+03  0.7818608E-02  0.9463075E-01
          2   -1    0    0  501    0  0.00000000000E+00  0.00000000000E+00  0.16635632058E+03  0.16635632060E+03  0.25500000000E-02 0.  1.
         -2   -1    0    0    0  501 -0.00000000000E+00 -0.00000000000E+00 -0.11390843721E+04  0.11390843721E+04  0.25500000000E-02 0. -1.
    5000001    1    1    2    0    0  0.11527459665E+03 -0.38597918023E+03 -0.48508749072E+03  0.65176915688E+03  0.16500000000E+03 0.  0.
   -5000001    1    1    2    0    0 -0.11527459665E+03  0.38597918023E+03 -0.48764056080E+03  0.65367153582E+03  0.16500000000E+03 0.  0.
<mgrwt>
<rscale>  0 0.87061791E+03</rscale>
<asrwt>0</asrwt>
<pdfrwt beam="1">  1        2 0.25593281E-01 0.87061791E+03</pdfrwt>
<pdfrwt beam="2">  1       -2 0.17524374E+00 0.87061791E+03</pdfrwt>
<totfact> 0.42013828E+01</totfact>
</mgrwt>
</event>
<event>
 4    1  0.8984293E-005  0.4798426E+03  0.7818608E-02  0.1019178E+00
          2   -1    0    0  501    0  0.00000000000E+00  0.00000000000E+00  0.20981181141E+04  0.20981181141E+04  0.25500000000E-02 0.  1.
         -2   -1    0    0    0  501 -0.00000000000E+00 -0.00000000000E+00 -0.27435170823E+02  0.27435170942E+02  0.25500000000E-02 0. -1.
    5000001    1    1    2    0    0 -0.31010130045E+02  0.11031147460E+03  0.16164075448E+04  0.16288427182E+04  0.16500000000E+03 0.  0.
   -5000001    1    1    2    0    0  0.31010130045E+02 -0.11031147460E+03  0.45427539842E+03  0.49671056684E+03  0.16500000000E+03 0.  0.
<mgrwt>
<rscale>  0 0.47984260E+03</rscale>
<asrwt>0</asrwt>
<pdfrwt beam="1">  1        2 0.32278742E+00 0.47984260E+03</pdfrwt>
<pdfrwt beam="2">  1       -2 0.42207953E-02 0.47984260E+03</pdfrwt>
<totfact> 0.16459061E+03</totfact>
</mgrwt>
</event>
<event>
 4    1  0.8984293E-005  0.4087254E+03  0.7818608E-02  0.1040800E+00
         -2   -1    0    0    0  501 -0.00000000000E+00  0.00000000000E+00  0.43199492838E+03  0.43199492839E+03  0.25500000000E-02 0. -1.
          2   -1    0    0  501    0  0.00000000000E+00 -0.00000000000E+00 -0.96677325387E+02  0.96677325421E+02  0.25500000000E-02 0.  1.
    5000001    1    1    2    0    0  0.11892514995E+03  0.13950856114E-01  0.19339593234E+03  0.28066025392E+03  0.16500000000E+03 0.  0.
   -5000001    1    1    2    0    0 -0.11892514995E+03 -0.13950856114E-01  0.14192167065E+03  0.24801199988E+03  0.16500000000E+03 0.  0.
<mgrwt>
<rscale>  0 0.40872541E+03</rscale>
<asrwt>0</asrwt>
<pdfrwt beam="1">  1        2 0.14873434E-01 0.40872541E+03</pdfrwt>
<pdfrwt beam="2">  1       -2 0.66460759E-01 0.40872541E+03</pdfrwt>
<totfact> 0.84504898E+02</totfact>
</mgrwt>
</event>
<event>
 4    1  0.8984293E-005  0.9442913E+03  0.7818608E-02  0.9371848E-01
         -2   -1    0    0    0  501 -0.00000000000E+00  0.00000000000E+00  0.12801416147E+03  0.12801416150E+03  0.25500000000E-02 0. -1.
          2   -1    0    0  501    0  0.00000000000E+00 -0.00000000000E+00 -0.17413815131E+04  0.17413815131E+04  0.25500000000E-02 0.  1.
    5000001    1    1    2    0    0 -0.14163373218E+03  0.39906248900E+03 -0.55327280170E+03  0.71599355955E+03  0.16500000000E+03 0.  0.
   -5000001    1    1    2    0    0  0.14163373218E+03 -0.39906248900E+03 -0.10600945499E+04  0.11534021150E+04  0.16500000000E+03 0.  0.
<mgrwt>
<rscale>  0 0.94429126E+03</rscale>
<asrwt>0</asrwt>
<pdfrwt beam="1">  1        2 0.26790483E+00 0.94429126E+03</pdfrwt>
<pdfrwt beam="2">  1       -2 0.19694488E-01 0.94429126E+03</pdfrwt>
<totfact> 0.20478066E+02</totfact>
</mgrwt>
</event>
<event>
 4    1  0.8984293E-005  0.6044638E+03  0.7818608E-02  0.9896188E-01
         -2   -1    0    0    0  501 -0.00000000000E+00  0.00000000000E+00  0.63054740742E+02  0.63054740794E+02  0.25500000000E-02 0. -1.
          2   -1    0    0  501    0  0.00000000000E+00 -0.00000000000E+00 -0.14486480641E+04  0.14486480641E+04  0.25500000000E-02 0.  1.
    5000001    1    1    2    0    0  0.13030430307E+03  0.16462487649E+03 -0.10468179955E+04  0.10803395194E+04  0.16500000000E+03 0.  0.
   -5000001    1    1    2    0    0 -0.13030430307E+03 -0.16462487649E+03 -0.33877532787E+03  0.43136328556E+03  0.16500000000E+03 0.  0.
<mgrwt>
<rscale>  0 0.60446382E+03</rscale>
<asrwt>0</asrwt>
<pdfrwt beam="1">  1        2 0.22286891E+00 0.60446382E+03</pdfrwt>
<pdfrwt beam="2">  1       -2 0.97007304E-02 0.60446382E+03</pdfrwt>
<totfact> 0.99585427E+02</totfact>
</mgrwt>
</event>
<event>
 4    1  0.8984293E-005  0.4103244E+03  0.7818608E-02  0.1040262E+00
          2   -1    0    0  501    0  0.00000000000E+00  0.00000000000E+00  0.11317089401E+03  0.11317089404E+03  0.25500000000E-02 0.  1.
         -2   -1    0    0    0  501 -0.00000000000E+00 -0.00000000000E+00 -0.37192883270E+03  0.37192883271E+03  0.25500000000E-02 0. -1.
    5000001    1    1    2    0    0  0.59215365976E+02  0.93559205649E+01 -0.38585578270E+01  0.17559578949E+03  0.16500000000E+03 0.  0.
   -5000001    1    1    2    0    0 -0.59215365976E+02 -0.93559205649E+01 -0.25489938086E+03  0.30950393726E+03  0.16500000000E+03 0.  0.
<mgrwt>
<rscale>  0 0.41032435E+03</rscale>
<asrwt>0</asrwt>
<pdfrwt beam="1">  1        2 0.17410907E-01 0.41032435E+03</pdfrwt>
<pdfrwt beam="2">  1       -2 0.57219820E-01 0.41032435E+03</pdfrwt>
<totfact> 0.95949999E+02</totfact>
</mgrwt>
</event>
<event>
 4    1  0.8984293E-005  0.1200323E+04  0.7818608E-02  0.9112574E-01
         -2   -1    0    0    0  501 -0.00000000000E+00  0.00000000000E+00  0.12834529932E+03  0.12834529934E+03  0.25500000000E-02 0. -1.
          2   -1    0    0  501    0  0.00000000000E+00 -0.00000000000E+00 -0.28064422993E+04  0.28064422993E+04  0.25500000000E-02 0.  1.
    5000001    1    1    2    0    0 -0.47416159879E+03 -0.21315648230E+03 -0.19512938018E+04  0.20260891907E+04  0.16500000000E+03 0.  0.
   -5000001    1    1    2    0    0  0.47416159879E+03  0.21315648230E+03 -0.72680319814E+03  0.90869840791E+03  0.16500000000E+03 0.  0.
<mgrwt>
<rscale>  0 0.12003228E+04</rscale>
<asrwt>0</asrwt>
<pdfrwt beam="1">  1        2 0.43176031E+00 0.12003228E+04</pdfrwt>
<pdfrwt beam="2">  1       -2 0.19745433E-01 0.12003228E+04</pdfrwt>
<totfact> 0.49983945E+01</totfact>
</mgrwt>
</event>
<event>
 4    1  0.8984293E-005  0.3712379E+03  0.7818608E-02  0.1054221E+00
         -2   -1    0    0    0  501 -0.00000000000E+00  0.00000000000E+00  0.40747045775E+02  0.40747045855E+02  0.25500000000E-02 0. -1.
          2   -1    0    0  501    0  0.00000000000E+00 -0.00000000000E+00 -0.84556814204E+03  0.84556814204E+03  0.25500000000E-02 0.  1.
    5000001    1    1    2    0    0  0.70498531702E+02 -0.34530976515E+02 -0.32442530291E+03  0.37234286414E+03  0.16500000000E+03 0.  0.
   -5000001    1    1    2    0    0 -0.70498531702E+02  0.34530976515E+02 -0.48039579335E+03  0.51397232375E+03  0.16500000000E+03 0.  0.
<mgrwt>
<rscale>  0 0.37123795E+03</rscale>
<asrwt>0</asrwt>
<pdfrwt beam="1">  1        2 0.13008739E+00 0.37123795E+03</pdfrwt>
<pdfrwt beam="2">  1       -2 0.62687769E-02 0.37123795E+03</pdfrwt>
<totfact> 0.45877805E+03</totfact>
</mgrwt>
</event>
<event>
 4    1  0.8984293E-005  0.3622775E+03  0.7818608E-02  0.1057686E+00
         -2   -1    0    0    0  501 -0.00000000000E+00  0.00000000000E+00  0.49750600309E+02  0.49750600375E+02  0.25500000000E-02 0. -1.
          2   -1    0    0  501    0  0.00000000000E+00 -0.00000000000E+00 -0.65951454737E+03  0.65951454738E+03  0.25500000000E-02 0.  1.
    5000001    1    1    2    0    0  0.63510267519E+02 -0.29182996096E+02 -0.25304499235E+03  0.31006768535E+03  0.16500000000E+03 0.  0.
   -5000001    1    1    2    0    0 -0.63510267519E+02  0.29182996096E+02 -0.35671895471E+03  0.39919746241E+03  0.16500000000E+03 0.  0.
<mgrwt>
<rscale>  0 0.36227749E+03</rscale>
<asrwt>0</asrwt>
<pdfrwt beam="1">  1        2 0.10146377E+00 0.36227749E+03</pdfrwt>
<pdfrwt beam="2">  1       -2 0.76539390E-02 0.36227749E+03</pdfrwt>
<totfact> 0.45913114E+03</totfact>
</mgrwt>
</event>
<event>
 4    1  0.8984293E-005  0.4166248E+03  0.7818608E-02  0.1038170E+00
          2   -1    0    0  501    0  0.00000000000E+00  0.00000000000E+00  0.80142529691E+03  0.80142529691E+03  0.25500000000E-02 0.  1.
         -2   -1    0    0    0  501 -0.00000000000E+00 -0.00000000000E+00 -0.54146093843E+02  0.54146093903E+02  0.25500000000E-02 0. -1.
    5000001    1    1    2    0    0  0.97822680642E+02 -0.69031397574E+02  0.46159505386E+03  0.50460836740E+03  0.16500000000E+03 0.  0.
   -5000001    1    1    2    0    0 -0.97822680642E+02  0.69031397574E+02  0.28568414920E+03  0.35096302342E+03  0.16500000000E+03 0.  0.
<mgrwt>
<rscale>  0 0.41662477E+03</rscale>
<asrwt>0</asrwt>
<pdfrwt beam="1">  1        2 0.12329619E+00 0.41662477E+03</pdfrwt>
<pdfrwt beam="2">  1       -2 0.83301688E-02 0.41662477E+03</pdfrwt>
<totfact> 0.31555780E+03</totfact>
</mgrwt>
</event>
<event>
 4    1  0.8984293E-005  0.4526702E+03  0.7818608E-02  0.1026929E+00
          2   -1    0    0  501    0  0.00000000000E+00  0.00000000000E+00  0.98600917620E+03  0.98600917620E+03  0.25500000000E-02 0.  1.
         -2   -1    0    0    0  501 -0.00000000000E+00 -0.00000000000E+00 -0.51954459920E+02  0.51954459982E+02  0.25500000000E-02 0. -1.
    5000001    1    1    2    0    0 -0.14681048152E+03 -0.39471622237E+02  0.39857325480E+03  0.45738054822E+03  0.16500000000E+03 0.  0.
   -5000001    1    1    2    0    0  0.14681048152E+03  0.39471622237E+02  0.53548146147E+03  0.58058308796E+03  0.16500000000E+03 0.  0.
<mgrwt>
<rscale>  0 0.45267019E+03</rscale>
<asrwt>0</asrwt>
<pdfrwt beam="1">  1        2 0.15169370E+00 0.45267019E+03</pdfrwt>
<pdfrwt beam="2">  1       -2 0.79929948E-02 0.45267019E+03</pdfrwt>
<totfact> 0.25423161E+03</totfact>
</mgrwt>
</event>
<event>
 4    1  0.8984293E-005  0.4330968E+03  0.7818608E-02  0.1032886E+00
          2   -1    0    0  501    0  0.00000000000E+00  0.00000000000E+00  0.11708580902E+04  0.11708580902E+04  0.25500000000E-02 0.  1.
         -2   -1    0    0    0  501 -0.00000000000E+00 -0.00000000000E+00 -0.40050293876E+02  0.40050293958E+02  0.25500000000E-02 0. -1.
    5000001    1    1    2    0    0  0.11805434768E+03  0.37915264212E+02  0.38219441930E+03  0.43436386867E+03  0.16500000000E+03 0.  0.
   -5000001    1    1    2    0    0 -0.11805434768E+03 -0.37915264212E+02  0.74861337698E+03  0.77654451544E+03  0.16500000000E+03 0.  0.
<mgrwt>
<rscale>  0 0.43309681E+03</rscale>
<asrwt>0</asrwt>
<pdfrwt beam="1">  1        2 0.18013203E+00 0.43309681E+03</pdfrwt>
<pdfrwt beam="2">  1       -2 0.61615833E-02 0.43309681E+03</pdfrwt>
<totfact> 0.29559730E+03</totfact>
</mgrwt>
</event>
<event>
 4    1  0.8984293E-005  0.4706898E+03  0.7818608E-02  0.1021726E+00
         -2   -1    0    0    0  501 -0.00000000000E+00  0.00000000000E+00  0.39866075933E+03  0.39866075934E+03  0.25500000000E-02 0. -1.
          2   -1    0    0  501    0  0.00000000000E+00 -0.00000000000E+00 -0.13893321487E+03  0.13893321489E+03  0.25500000000E-02 0.  1.
    5000001    1    1    2    0    0  0.15749702366E+02 -0.15528755895E+03  0.20026951502E+03  0.30281208320E+03  0.16500000000E+03 0.  0.
   -5000001    1    1    2    0    0 -0.15749702366E+02  0.15528755895E+03  0.59458029449E+02  0.23478189103E+03  0.16500000000E+03 0.  0.
<mgrwt>
<rscale>  0 0.47068980E+03</rscale>
<asrwt>0</asrwt>
<pdfrwt beam="1">  1        2 0.21374341E-01 0.47068980E+03</pdfrwt>
<pdfrwt beam="2">  1       -2 0.61332424E-01 0.47068980E+03</pdfrwt>
<totfact> 0.65365063E+02</totfact>
</mgrwt>
</event>
<event>
 4    1  0.8984293E-005  0.4793691E+03  0.7818608E-02  0.1019309E+00
          2   -1    0    0  501    0  0.00000000000E+00  0.00000000000E+00  0.21073722758E+04  0.21073722758E+04  0.25500000000E-02 0.  1.
         -2   -1    0    0    0  501 -0.00000000000E+00 -0.00000000000E+00 -0.27260817990E+02  0.27260818109E+02  0.25500000000E-02 0. -1.
    5000001    1    1    2    0    0  0.11195146590E+03 -0.85062705310E+02  0.14953718859E+04  0.15110032666E+04  0.16500000000E+03 0.  0.
   -5000001    1    1    2    0    0 -0.11195146590E+03  0.85062705310E+02  0.58473957196E+03  0.62362982735E+03  0.16500000000E+03 0.  0.
<mgrwt>
<rscale>  0 0.47936914E+03</rscale>
<asrwt>0</asrwt>
<pdfrwt beam="1">  1        2 0.32421106E+00 0.47936914E+03</pdfrwt>
<pdfrwt beam="2">  1       -2 0.41939727E-02 0.47936914E+03</pdfrwt>
<totfact> 0.16430950E+03</totfact>
</mgrwt>
</event>
<event>
 4    1  0.8984293E-005  0.4402225E+03  0.7818608E-02  0.1030679E+00
         -2   -1    0    0    0  501 -0.00000000000E+00  0.00000000000E+00  0.66910204396E+02  0.66910204444E+02  0.25500000000E-02 0. -1.
          2   -1    0    0  501    0  0.00000000000E+00 -0.00000000000E+00 -0.72408927010E+03  0.72408927011E+03  0.25500000000E-02 0.  1.
    5000001    1    1    2    0    0  0.67007110887E+02 -0.12918620822E+03 -0.31654525460E+03  0.38549309659E+03  0.16500000000E+03 0.  0.
   -5000001    1    1    2    0    0 -0.67007110887E+02  0.12918620822E+03 -0.34063381110E+03  0.40550637796E+03  0.16500000000E+03 0.  0.
<mgrwt>
<rscale>  0 0.44022249E+03</rscale>
<asrwt>0</asrwt>
<pdfrwt beam="1">  1        2 0.11139834E+00 0.44022249E+03</pdfrwt>
<pdfrwt beam="2">  1       -2 0.10293878E-01 0.44022249E+03</pdfrwt>
<totfact> 0.25609531E+03</totfact>
</mgrwt>
</event>
<event>
 4    1  0.8984293E-005  0.5820184E+03  0.7818608E-02  0.9943431E-01
         -2   -1    0    0    0  501 -0.00000000000E+00  0.00000000000E+00  0.46150317697E+02  0.46150317767E+02  0.25500000000E-02 0. -1.
          2   -1    0    0  501    0  0.00000000000E+00 -0.00000000000E+00 -0.18350112026E+04  0.18350112026E+04  0.25500000000E-02 0.  1.
    5000001    1    1    2    0    0  0.52888168077E+02 -0.22352338964E+03 -0.67281145972E+03  0.72983568313E+03  0.16500000000E+03 0.  0.
   -5000001    1    1    2    0    0 -0.52888168077E+02  0.22352338964E+03 -0.11160494252E+04  0.11513258372E+04  0.16500000000E+03 0.  0.
<mgrwt>
<rscale>  0 0.58201838E+03</rscale>
<asrwt>0</asrwt>
<pdfrwt beam="1">  1        2 0.28230936E+00 0.58201838E+03</pdfrwt>
<pdfrwt beam="2">  1       -2 0.71000503E-02 0.58201838E+03</pdfrwt>
<totfact> 0.10102139E+03</totfact>
</mgrwt>
</event>
<event>
 4    1  0.8984293E-005  0.5779601E+03  0.7818608E-02  0.9952217E-01
         -2   -1    0    0    0  501 -0.00000000000E+00  0.00000000000E+00  0.46831860419E+03  0.46831860420E+03  0.25500000000E-02 0. -1.
          2   -1    0    0  501    0  0.00000000000E+00 -0.00000000000E+00 -0.17831762074E+03  0.17831762076E+03  0.25500000000E-02 0.  1.
    5000001    1    1    2    0    0 -0.97703873478E+02 -0.18311466347E+03  0.16421091089E+02  0.26565330622E+03  0.16500000000E+03 0.  0.
   -5000001    1    1    2    0    0  0.97703873478E+02  0.18311466347E+03  0.27357989236E+03  0.38098291874E+03  0.16500000000E+03 0.  0.
<mgrwt>
<rscale>  0 0.57796007E+03</rscale>
<asrwt>0</asrwt>
<pdfrwt beam="1">  1        2 0.27433481E-01 0.57796007E+03</pdfrwt>
<pdfrwt beam="2">  1       -2 0.72049013E-01 0.57796007E+03</pdfrwt>
<totfact> 0.34735003E+02</totfact>
</mgrwt>
</event>
<event>
 4    1  0.8984293E-005  0.4401876E+03  0.7818608E-02  0.1030689E+00
          2   -1    0    0  501    0  0.00000000000E+00  0.00000000000E+00  0.12666510765E+04  0.12666510765E+04  0.25500000000E-02 0.  1.
         -2   -1    0    0    0  501 -0.00000000000E+00 -0.00000000000E+00 -0.38243594447E+02  0.38243594532E+02  0.25500000000E-02 0. -1.
    5000001    1    1    2    0    0  0.13270656302E+03  0.54825158820E+02  0.68678388043E+03  0.72077314623E+03  0.16500000000E+03 0.  0.
   -5000001    1    1    2    0    0 -0.13270656302E+03 -0.54825158820E+02  0.54162360165E+03  0.58412152484E+03  0.16500000000E+03 0.  0.
<mgrwt>
<rscale>  0 0.44018764E+03</rscale>
<asrwt>0</asrwt>
<pdfrwt beam="1">  1        2 0.19486937E+00 0.44018764E+03</pdfrwt>
<pdfrwt beam="2">  1       -2 0.58836308E-02 0.44018764E+03</pdfrwt>
<totfact> 0.27963287E+03</totfact>
</mgrwt>
</event>
<event>
 4    1  0.8984293E-005  0.6818678E+03  0.7818608E-02  0.9748753E-01
         -2   -1    0    0    0  501 -0.00000000000E+00  0.00000000000E+00  0.10092209275E+03  0.10092209278E+03  0.25500000000E-02 0. -1.
          2   -1    0    0  501    0  0.00000000000E+00 -0.00000000000E+00 -0.11517390804E+04  0.11517390804E+04  0.25500000000E-02 0.  1.
    5000001    1    1    2    0    0 -0.16137201664E+03  0.17579149996E+03 -0.19643196988E+03  0.35036280910E+03  0.16500000000E+03 0.  0.
   -5000001    1    1    2    0    0  0.16137201664E+03 -0.17579149996E+03 -0.85438501775E+03  0.90229836405E+03  0.16500000000E+03 0.  0.
<mgrwt>
<rscale>  0 0.68186778E+03</rscale>
<asrwt>0</asrwt>
<pdfrwt beam="1">  1        2 0.17719062E+00 0.68186778E+03</pdfrwt>
<pdfrwt beam="2">  1       -2 0.15526477E-01 0.68186778E+03</pdfrwt>
<totfact> 0.67541459E+02</totfact>
</mgrwt>
</event>
<event>
 4    1  0.8984293E-005  0.7331452E+03  0.7818608E-02  0.9662170E-01
          2   -1    0    0  501    0  0.00000000000E+00  0.00000000000E+00  0.14069522701E+04  0.14069522701E+04  0.25500000000E-02 0.  1.
         -2   -1    0    0    0  501 -0.00000000000E+00 -0.00000000000E+00 -0.95508196722E+02  0.95508196756E+02  0.25500000000E-02 0. -1.
    5000001    1    1    2    0    0  0.43731564275E+02  0.29088701726E+03  0.95001950615E+03  0.10081119822E+04  0.16500000000E+03 0.  0.
   -5000001    1    1    2    0    0 -0.43731564275E+02 -0.29088701726E+03  0.36142456723E+03  0.49434848469E+03  0.16500000000E+03 0.  0.
<mgrwt>
<rscale>  0 0.73314521E+03</rscale>
<asrwt>0</asrwt>
<pdfrwt beam="1">  1        2 0.21645417E+00 0.73314521E+03</pdfrwt>
<pdfrwt beam="2">  1       -2 0.14693570E-01 0.73314521E+03</pdfrwt>
<totfact> 0.52622485E+02</totfact>
</mgrwt>
</event>
<event>
 4    1  0.8984293E-005  0.4453781E+03  0.7818608E-02  0.1029109E+00
          2   -1    0    0  501    0  0.00000000000E+00  0.00000000000E+00  0.20265040377E+04  0.20265040377E+04  0.25500000000E-02 0.  1.
         -2   -1    0    0    0  501 -0.00000000000E+00 -0.00000000000E+00 -0.24470914232E+02  0.24470914365E+02  0.25500000000E-02 0. -1.
    5000001    1    1    2    0    0 -0.11663651543E+03 -0.36209894606E+02  0.60353707754E+03  0.63749293107E+03  0.16500000000E+03 0.  0.
   -5000001    1    1    2    0    0  0.11663651543E+03  0.36209894606E+02  0.13984960459E+04  0.14134820210E+04  0.16500000000E+03 0.  0.
<mgrwt>
<rscale>  0 0.44537807E+03</rscale>
<asrwt>0</asrwt>
<pdfrwt beam="1">  1        2 0.31176996E+00 0.44537807E+03</pdfrwt>
<pdfrwt beam="2">  1       -2 0.37647547E-02 0.44537807E+03</pdfrwt>
<totfact> 0.21458000E+03</totfact>
</mgrwt>
</event>
<event>
 4    1  0.8984293E-005  0.5576355E+03  0.7818608E-02  0.9997419E-01
          2   -1    0    0  501    0  0.00000000000E+00  0.00000000000E+00  0.28598176162E+03  0.28598176163E+03  0.25500000000E-02 0.  1.
         -2   -1    0    0    0  501 -0.00000000000E+00 -0.00000000000E+00 -0.27183323594E+03  0.27183323595E+03  0.25500000000E-02 0. -1.
    5000001    1    1    2    0    0  0.12037910780E+03 -0.16828419753E+03  0.94872931534E+02  0.28113444092E+03  0.16500000000E+03 0.  0.
   -5000001    1    1    2    0    0 -0.12037910780E+03  0.16828419753E+03 -0.80724405855E+02  0.27668055666E+03  0.16500000000E+03 0.  0.
<mgrwt>
<rscale>  0 0.55763554E+03</rscale>
<asrwt>0</asrwt>
<pdfrwt beam="1">  1        2 0.43997194E-01 0.55763554E+03</pdfrwt>
<pdfrwt beam="2">  1       -2 0.41820498E-01 0.55763554E+03</pdfrwt>
<totfact> 0.63164033E+02</totfact>
</mgrwt>
</event>
<event>
 4    1  0.8984293E-005  0.4884943E+03  0.7818608E-02  0.1016826E+00
          2   -1    0    0  501    0  0.00000000000E+00  0.00000000000E+00  0.78476890907E+03  0.78476890907E+03  0.25500000000E-02 0.  1.
         -2   -1    0    0    0  501 -0.00000000000E+00 -0.00000000000E+00 -0.76018136600E+02  0.76018136642E+02  0.25500000000E-02 0. -1.
    5000001    1    1    2    0    0 -0.14141867411E+03  0.11064714686E+03  0.33010936863E+03  0.41041348388E+03  0.16500000000E+03 0.  0.
   -5000001    1    1    2    0    0  0.14141867411E+03 -0.11064714686E+03  0.37864140384E+03  0.45037356183E+03  0.16500000000E+03 0.  0.
<mgrwt>
<rscale>  0 0.48849430E+03</rscale>
<asrwt>0</asrwt>
<pdfrwt beam="1">  1        2 0.12073368E+00 0.48849430E+03</pdfrwt>
<pdfrwt beam="2">  1       -2 0.11695098E-01 0.48849430E+03</pdfrwt>
<totfact> 0.18793847E+03</totfact>
</mgrwt>
</event>
<event>
 4    1  0.8984293E-005  0.1129975E+04  0.7818608E-02  0.9176459E-01
          2   -1    0    0  501    0  0.00000000000E+00  0.00000000000E+00  0.16922019493E+04  0.16922019493E+04  0.25500000000E-02 0.  1.
         -2   -1    0    0    0  501 -0.00000000000E+00 -0.00000000000E+00 -0.18863632229E+03  0.18863632231E+03  0.25500000000E-02 0. -1.
    5000001    1    1    2    0    0  0.52809936017E+03 -0.80553440780E+02  0.61647700331E+03  0.83225397965E+03  0.16500000000E+03 0.  0.
   -5000001    1    1    2    0    0 -0.52809936017E+03  0.80553440780E+02  0.88708862367E+03  0.10485842919E+04  0.16500000000E+03 0.  0.
<mgrwt>
<rscale>  0 0.11299748E+04</rscale>
<asrwt>0</asrwt>
<pdfrwt beam="1">  1        2 0.26033876E+00 0.11299748E+04</pdfrwt>
<pdfrwt beam="2">  1       -2 0.29020973E-01 0.11299748E+04</pdfrwt>
<totfact> 0.10707710E+02</totfact>
</mgrwt>
</event>
<event>
 4    1  0.8984293E-005  0.8207554E+03  0.7818608E-02  0.9530451E-01
         -2   -1    0    0    0  501 -0.00000000000E+00  0.00000000000E+00  0.67527919514E+02  0.67527919562E+02  0.25500000000E-02 0. -1.
          2   -1    0    0  501    0  0.00000000000E+00 -0.00000000000E+00 -0.24939291647E+04  0.24939291647E+04  0.25500000000E-02 0.  1.
    5000001    1    1    2    0    0 -0.81592800072E+02 -0.33415762086E+03 -0.16851222115E+04  0.17277675099E+04  0.16500000000E+03 0.  0.
   -5000001    1    1    2    0    0  0.81592800072E+02  0.33415762086E+03 -0.74127903365E+03  0.83368957432E+03  0.16500000000E+03 0.  0.
<mgrwt>
<rscale>  0 0.82075538E+03</rscale>
<asrwt>0</asrwt>
<pdfrwt beam="1">  1        2 0.38368134E+00 0.82075538E+03</pdfrwt>
<pdfrwt beam="2">  1       -2 0.10388913E-01 0.82075538E+03</pdfrwt>
<totfact> 0.23333831E+02</totfact>
</mgrwt>
</event>
<event>
 4    1  0.8984293E-005  0.3748328E+03  0.7818608E-02  0.1052860E+00
         -2   -1    0    0    0  501 -0.00000000000E+00  0.00000000000E+00  0.19611811419E+03  0.19611811420E+03  0.25500000000E-02 0. -1.
          2   -1    0    0  501    0  0.00000000000E+00 -0.00000000000E+00 -0.17910079660E+03  0.17910079662E+03  0.25500000000E-02 0.  1.
    5000001    1    1    2    0    0  0.66075913432E+02 -0.33864566939E+02 -0.40399370669E+02  0.18539132768E+03  0.16500000000E+03 0.  0.
   -5000001    1    1    2    0    0 -0.66075913432E+02  0.33864566939E+02  0.57416688255E+02  0.18982758314E+03  0.16500000000E+03 0.  0.
<mgrwt>
<rscale>  0 0.37483282E+03</rscale>
<asrwt>0</asrwt>
<pdfrwt beam="1">  1        2 0.27553969E-01 0.37483282E+03</pdfrwt>
<pdfrwt beam="2">  1       -2 0.30172018E-01 0.37483282E+03</pdfrwt>
<totfact> 0.19628870E+03</totfact>
</mgrwt>
</event>
<event>
 4    1  0.8984293E-005  0.4922400E+03  0.7818608E-02  0.1015824E+00
          2   -1    0    0  501    0  0.00000000000E+00  0.00000000000E+00  0.20293675533E+03  0.20293675535E+03  0.25500000000E-02 0.  1.
         -2   -1    0    0    0  501 -0.00000000000E+00 -0.00000000000E+00 -0.29849224865E+03  0.29849224867E+03  0.25500000000E-02 0. -1.
    5000001    1    1    2    0    0 -0.12665320061E+03  0.83442214844E+02  0.55838404065E+02  0.23096875072E+03  0.16500000000E+03 0.  0.
   -5000001    1    1    2    0    0  0.12665320061E+03 -0.83442214844E+02 -0.15139389739E+03  0.27046025329E+03  0.16500000000E+03 0.  0.
<mgrwt>
<rscale>  0 0.49223998E+03</rscale>
<asrwt>0</asrwt>
<pdfrwt beam="1">  1        2 0.31221039E-01 0.49223998E+03</pdfrwt>
<pdfrwt beam="2">  1       -2 0.45921884E-01 0.49223998E+03</pdfrwt>
<totfact> 0.76830659E+02</totfact>
</mgrwt>
</event>
<event>
 4    1  0.8984293E-005  0.3919164E+03  0.7818608E-02  0.1046615E+00
         -2   -1    0    0    0  501 -0.00000000000E+00  0.00000000000E+00  0.66660619293E+02  0.66660619342E+02  0.25500000000E-02 0. -1.
          2   -1    0    0  501    0  0.00000000000E+00 -0.00000000000E+00 -0.57604663293E+03  0.57604663294E+03  0.25500000000E-02 0.  1.
    5000001    1    1    2    0    0  0.13418019047E+02 -0.10381353556E+03 -0.23051717305E+03  0.30219275383E+03  0.16500000000E+03 0.  0.
   -5000001    1    1    2    0    0 -0.13418019047E+02  0.10381353556E+03 -0.27886884059E+03  0.34051449845E+03  0.16500000000E+03 0.  0.
<mgrwt>
<rscale>  0 0.39191645E+03</rscale>
<asrwt>0</asrwt>
<pdfrwt beam="1">  1        2 0.88622555E-01 0.39191645E+03</pdfrwt>
<pdfrwt beam="2">  1       -2 0.10255480E-01 0.39191645E+03</pdfrwt>
<totfact> 0.33913690E+03</totfact>
</mgrwt>
</event>
<event>
 4    1  0.8984293E-005  0.4683219E+03  0.7818608E-02  0.1022395E+00
         -2   -1    0    0    0  501 -0.00000000000E+00  0.00000000000E+00  0.11384612997E+03  0.11384613000E+03  0.25500000000E-02 0. -1.
          2   -1    0    0  501    0  0.00000000000E+00 -0.00000000000E+00 -0.48162686186E+03  0.48162686187E+03  0.25500000000E-02 0.  1.
    5000001    1    1    2    0    0  0.50462674801E+02  0.15522039919E+03 -0.22341961973E+03  0.32215086583E+03  0.16500000000E+03 0.  0.
   -5000001    1    1    2    0    0 -0.50462674801E+02 -0.15522039919E+03 -0.14436111216E+03  0.27332212603E+03  0.16500000000E+03 0.  0.
<mgrwt>
<rscale>  0 0.46832192E+03</rscale>
<asrwt>0</asrwt>
<pdfrwt beam="1">  1        2 0.74096439E-01 0.46832192E+03</pdfrwt>
<pdfrwt beam="2">  1       -2 0.17514789E-01 0.46832192E+03</pdfrwt>
<totfact> 0.17230260E+03</totfact>
</mgrwt>
</event>
<event>
 4    1  0.8984293E-005  0.4940454E+03  0.7818608E-02  0.1015345E+00
         -2   -1    0    0    0  501 -0.00000000000E+00  0.00000000000E+00  0.21889269391E+04  0.21889269391E+04  0.25500000000E-02 0. -1.
          2   -1    0    0  501    0  0.00000000000E+00 -0.00000000000E+00 -0.27876771588E+02  0.27876771704E+02  0.25500000000E-02 0.  1.
    5000001    1    1    2    0    0  0.42212403312E+01  0.16150478550E+03  0.68695214891E+03  0.72472744497E+03  0.16500000000E+03 0.  0.
   -5000001    1    1    2    0    0 -0.42212403312E+01 -0.16150478550E+03  0.14740980186E+04  0.14920762659E+04  0.16500000000E+03 0.  0.
<mgrwt>
<rscale>  0 0.49404541E+03</rscale>
<asrwt>0</asrwt>
<pdfrwt beam="1">  1        2 0.42887339E-02 0.49404541E+03</pdfrwt>
<pdfrwt beam="2">  1       -2 0.33675800E+00 0.49404541E+03</pdfrwt>
<totfact> 0.41471812E+01</totfact>
</mgrwt>
</event>
<event>
 4    1  0.8984293E-005  0.7111938E+03  0.7818608E-02  0.9698279E-01
          2   -1    0    0  501    0  0.00000000000E+00  0.00000000000E+00  0.10054356543E+04  0.10054356543E+04  0.25500000000E-02 0. -1.
         -2   -1    0    0    0  501 -0.00000000000E+00 -0.00000000000E+00 -0.12576552646E+03  0.12576552649E+03  0.25500000000E-02 0.  1.
    5000001    1    1    2    0    0  0.37682588138E+02  0.30268882747E+03  0.56491107712E+03  0.66286501550E+03  0.16500000000E+03 0.  0.
   -5000001    1    1    2    0    0 -0.37682588138E+02 -0.30268882747E+03  0.31475905076E+03  0.46833616533E+03  0.16500000000E+03 0.  0.
<mgrwt>
<rscale>  0 0.71119377E+03</rscale>
<asrwt>0</asrwt>
<pdfrwt beam="1">  1        2 0.15468241E+00 0.71119377E+03</pdfrwt>
<pdfrwt beam="2">  1       -2 0.19348543E-01 0.71119377E+03</pdfrwt>
<totfact> 0.56893508E+02</totfact>
</mgrwt>
</event>
<event>
 4    1  0.8984293E-005  0.9239311E+03  0.7818608E-02  0.9396151E-01
         -2   -1    0    0    0  501 -0.00000000000E+00  0.00000000000E+00  0.85394985099E+02  0.85394985137E+02  0.25500000000E-02 0. -1.
          2   -1    0    0  501    0  0.00000000000E+00 -0.00000000000E+00 -0.24991182346E+04  0.24991182346E+04  0.25500000000E-02 0.  1.
    5000001    1    1    2    0    0  0.70493908426E+02  0.29408110571E+03 -0.34588315734E+03  0.48817337739E+03  0.16500000000E+03 0.  0.
   -5000001    1    1    2    0    0 -0.70493908426E+02 -0.29408110571E+03 -0.20678400921E+04  0.20963398423E+04  0.16500000000E+03 0.  0.
<mgrwt>
<rscale>  0 0.92393109E+03</rscale>
<asrwt>0</asrwt>
<pdfrwt beam="1">  1        2 0.38447967E+00 0.92393109E+03</pdfrwt>
<pdfrwt beam="2">  1       -2 0.13137692E-01 0.92393109E+03</pdfrwt>
<totfact> 0.15573893E+02</totfact>
</mgrwt>
</event>
<event>
 4    1  0.8984293E-005  0.7986440E+03  0.7818608E-02  0.9561982E-01
          2   -1    0    0  501    0  0.00000000000E+00  0.00000000000E+00  0.20498004765E+03  0.20498004767E+03  0.25500000000E-02 0.  1.
         -2   -1    0    0    0  501 -0.00000000000E+00 -0.00000000000E+00 -0.77791985390E+03  0.77791985391E+03  0.25500000000E-02 0. -1.
    5000001    1    1    2    0    0  0.20072900780E+03  0.28368228076E+03 -0.41824955719E+03  0.56826531046E+03  0.16500000000E+03 0.  0.
   -5000001    1    1    2    0    0 -0.20072900780E+03 -0.28368228076E+03 -0.15469024907E+03  0.41463459111E+03  0.16500000000E+03 0.  0.
<mgrwt>
<rscale>  0 0.79864397E+03</rscale>
<asrwt>0</asrwt>
<pdfrwt beam="1">  1        2 0.31535392E-01 0.79864397E+03</pdfrwt>
<pdfrwt beam="2">  1       -2 0.11967998E+00 0.79864397E+03</pdfrwt>
<totfact> 0.90567521E+01</totfact>
</mgrwt>
</event>
<event>
 4    1  0.8984293E-005  0.7900729E+03  0.7818608E-02  0.9574498E-01
          2   -1    0    0  501    0  0.00000000000E+00  0.00000000000E+00  0.12097326310E+04  0.12097326310E+04  0.25500000000E-02 0.  1.
         -2   -1    0    0    0  501 -0.00000000000E+00 -0.00000000000E+00 -0.12899857959E+03  0.12899857962E+03  0.25500000000E-02 0. -1.
    5000001    1    1    2    0    0  0.15189685346E+03  0.31124482108E+03  0.38066841689E+03  0.54044374023E+03  0.16500000000E+03 0.  0.
   -5000001    1    1    2    0    0 -0.15189685346E+03 -0.31124482108E+03  0.70006563447E+03  0.79828747034E+03  0.16500000000E+03 0.  0.
<mgrwt>
<rscale>  0 0.79007289E+03</rscale>
<asrwt>0</asrwt>
<pdfrwt beam="1">  1        2 0.18611270E+00 0.79007289E+03</pdfrwt>
<pdfrwt beam="2">  1       -2 0.19845937E-01 0.79007289E+03</pdfrwt>
<totfact> 0.40687427E+02</totfact>
</mgrwt>
</event>
<event>
 4    1  0.8984293E-005  0.1565242E+04  0.7818608E-02  0.8842191E-01
         -2   -1    0    0    0  501 -0.00000000000E+00  0.00000000000E+00  0.38569530455E+03  0.38569530455E+03  0.25500000000E-02 0. -1.
          2   -1    0    0  501    0  0.00000000000E+00 -0.00000000000E+00 -0.15880291434E+04  0.15880291434E+04  0.25500000000E-02 0.  1.
    5000001    1    1    2    0    0  0.75146691478E+03 -0.14273809860E+03 -0.61871641557E+03  0.99755285158E+03  0.16500000000E+03 0.  0.
   -5000001    1    1    2    0    0 -0.75146691478E+03  0.14273809860E+03 -0.58361742326E+03  0.97617159635E+03  0.16500000000E+03 0.  0.
<mgrwt>
<rscale>  0 0.15652417E+04</rscale>
<asrwt>0</asrwt>
<pdfrwt beam="1">  1        2 0.24431217E+00 0.15652417E+04</pdfrwt>
<pdfrwt beam="2">  1       -2 0.59337740E-01 0.15652417E+04</pdfrwt>
<totfact> 0.28867853E+01</totfact>
</mgrwt>
</event>
<event>
 4    1  0.8984293E-005  0.7982220E+03  0.7818608E-02  0.9562594E-01
          2   -1    0    0  501    0  0.00000000000E+00  0.00000000000E+00  0.44091334897E+03  0.44091334898E+03  0.25500000000E-02 0.  1.
         -2   -1    0    0    0  501 -0.00000000000E+00 -0.00000000000E+00 -0.36127187640E+03  0.36127187640E+03  0.25500000000E-02 0. -1.
    5000001    1    1    2    0    0  0.30457981751E+03 -0.13934946160E+03  0.18150817645E+03  0.41515943420E+03  0.16500000000E+03 0.  0.
   -5000001    1    1    2    0    0 -0.30457981751E+03  0.13934946160E+03 -0.10186670387E+03  0.38702579119E+03  0.16500000000E+03 0.  0.
<mgrwt>
<rscale>  0 0.79822201E+03</rscale>
<asrwt>0</asrwt>
<pdfrwt beam="1">  1        2 0.67832823E-01 0.79822201E+03</pdfrwt>
<pdfrwt beam="2">  1       -2 0.55580289E-01 0.79822201E+03</pdfrwt>
<totfact> 0.21816729E+02</totfact>
</mgrwt>
</event>
<event>
 4    1  0.8984293E-005  0.6301607E+03  0.7818608E-02  0.9844735E-01
          2   -1    0    0  501    0  0.00000000000E+00  0.00000000000E+00  0.59830433805E+03  0.59830433805E+03  0.25500000000E-02 0.  1.
         -2   -1    0    0    0  501 -0.00000000000E+00 -0.00000000000E+00 -0.16592830921E+03  0.16592830923E+03  0.25500000000E-02 0. -1.
    5000001    1    1    2    0    0 -0.12279816815E+03 -0.31109339995E+02 -0.70811820317E+02  0.21974188274E+03  0.16500000000E+03 0.  0.
   -5000001    1    1    2    0    0  0.12279816815E+03  0.31109339995E+02  0.50318784915E+03  0.54449076454E+03  0.16500000000E+03 0.  0.
<mgrwt>
<rscale>  0 0.63016070E+03</rscale>
<asrwt>0</asrwt>
<pdfrwt beam="1">  1        2 0.92046822E-01 0.63016070E+03</pdfrwt>
<pdfrwt beam="2">  1       -2 0.25527432E-01 0.63016070E+03</pdfrwt>
<totfact> 0.69058440E+02</totfact>
</mgrwt>
</event>
<event>
 4    1  0.8984293E-005  0.4306749E+03  0.7818608E-02  0.1033647E+00
         -2   -1    0    0    0  501 -0.00000000000E+00  0.00000000000E+00  0.28733077879E+03  0.28733077880E+03  0.25500000000E-02 0. -1.
          2   -1    0    0  501    0  0.00000000000E+00 -0.00000000000E+00 -0.16138269189E+03  0.16138269191E+03  0.25500000000E-02 0.  1.
    5000001    1    1    2    0    0  0.11009643030E+03 -0.82763573250E+02  0.49223476340E+02  0.22049712843E+03  0.16500000000E+03 0.  0.
   -5000001    1    1    2    0    0 -0.11009643030E+03  0.82763573250E+02  0.76724610559E+02  0.22821634229E+03  0.16500000000E+03 0.  0.
<mgrwt>
<rscale>  0 0.43067489E+03</rscale>
<asrwt>0</asrwt>
<pdfrwt beam="1">  1        2 0.24828107E-01 0.43067489E+03</pdfrwt>
<pdfrwt beam="2">  1       -2 0.44204735E-01 0.43067489E+03</pdfrwt>
<totfact> 0.10714457E+03</totfact>
</mgrwt>
</event>
<event>
 4    1  0.8984293E-005  0.4089698E+03  0.7818608E-02  0.1040717E+00
          2   -1    0    0  501    0  0.00000000000E+00  0.00000000000E+00  0.41412654694E+04  0.41412654694E+04  0.25500000000E-02 0.  1.
         -2   -1    0    0    0  501 -0.00000000000E+00 -0.00000000000E+00 -0.10096932087E+02  0.10096932409E+02  0.25500000000E-02 0. -1.
    5000001    1    1    2    0    0 -0.44326410147E+02 -0.47783974147E+02  0.30978211294E+04  0.31028968543E+04  0.16500000000E+03 0.  0.
   -5000001    1    1    2    0    0  0.44326410147E+02  0.47783974147E+02  0.10333474079E+04  0.10484655475E+04  0.16500000000E+03 0.  0.
<mgrwt>
<rscale>  0 0.40896981E+03</rscale>
<asrwt>0</asrwt>
<pdfrwt beam="1">  1        2 0.63711760E+00 0.40896981E+03</pdfrwt>
<pdfrwt beam="2">  1       -2 0.15533746E-02 0.40896981E+03</pdfrwt>
<totfact> 0.37475430E+02</totfact>
</mgrwt>
</event>
<event>
 4    1  0.8984293E-005  0.4144485E+03  0.7818608E-02  0.1038888E+00
         -2   -1    0    0    0  501 -0.00000000000E+00  0.00000000000E+00  0.16946992044E+03  0.16946992046E+03  0.25500000000E-02 0. -1.
          2   -1    0    0  501    0  0.00000000000E+00 -0.00000000000E+00 -0.25338947822E+03  0.25338947823E+03  0.25500000000E-02 0.  1.
    5000001    1    1    2    0    0  0.10829046797E+03 -0.16581703829E+02  0.20228938736E+02  0.19908789094E+03  0.16500000000E+03 0.  0.
   -5000001    1    1    2    0    0 -0.10829046797E+03  0.16581703829E+02 -0.10414849651E+03  0.22377150775E+03  0.16500000000E+03 0.  0.
<mgrwt>
<rscale>  0 0.41444852E+03</rscale>
<asrwt>0</asrwt>
<pdfrwt beam="1">  1        2 0.38982997E-01 0.41444852E+03</pdfrwt>
<pdfrwt beam="2">  1       -2 0.26072296E-01 0.41444852E+03</pdfrwt>
<totfact> 0.17454227E+03</totfact>
</mgrwt>
</event>
<event>
 4    1  0.8984293E-005  0.5057627E+03  0.7818608E-02  0.1012286E+00
         -2   -1    0    0    0  501 -0.00000000000E+00  0.00000000000E+00  0.32214790408E+03  0.32214790409E+03  0.25500000000E-02 0. -1.
          2   -1    0    0  501    0  0.00000000000E+00 -0.00000000000E+00 -0.19850813463E+03  0.19850813465E+03  0.25500000000E-02 0.  1.
    5000001    1    1    2    0    0  0.27352534979E+02  0.18904180563E+03  0.77735221854E+02  0.26410742164E+03  0.16500000000E+03 0.  0.
   -5000001    1    1    2    0    0 -0.27352534979E+02 -0.18904180563E+03  0.45904547598E+02  0.25654861710E+03  0.16500000000E+03 0.  0.
<mgrwt>
<rscale>  0 0.50576271E+03</rscale>
<asrwt>0</asrwt>
<pdfrwt beam="1">  1        2 0.30539713E-01 0.50576271E+03</pdfrwt>
<pdfrwt beam="2">  1       -2 0.49561216E-01 0.50576271E+03</pdfrwt>
<totfact> 0.67594270E+02</totfact>
</mgrwt>
</event>
<event>
 4    1  0.8984293E-005  0.4096201E+03  0.7818608E-02  0.1040499E+00
         -2   -1    0    0    0  501 -0.00000000000E+00  0.00000000000E+00  0.81233210979E+02  0.81233211019E+02  0.25500000000E-02 0. -1.
          2   -1    0    0  501    0  0.00000000000E+00 -0.00000000000E+00 -0.51637944923E+03  0.51637944924E+03  0.25500000000E-02 0.  1.
    5000001    1    1    2    0    0  0.10612898787E+03  0.12847685093E+02 -0.30130346413E+03  0.35977382141E+03  0.16500000000E+03 0.  0.
   -5000001    1    1    2    0    0 -0.10612898787E+03 -0.12847685093E+02 -0.13384277412E+03  0.23783883884E+03  0.16500000000E+03 0.  0.
<mgrwt>
<rscale>  0 0.40962012E+03</rscale>
<asrwt>0</asrwt>
<pdfrwt beam="1">  1        2 0.79442990E-01 0.40962012E+03</pdfrwt>
<pdfrwt beam="2">  1       -2 0.12497417E-01 0.40962012E+03</pdfrwt>
<totfact> 0.27935686E+03</totfact>
</mgrwt>
</event>
<event>
 4    1  0.8984293E-005  0.3554047E+03  0.7818608E-02  0.1060418E+00
          2   -1    0    0  501    0  0.00000000000E+00  0.00000000000E+00  0.19677215196E+04  0.19677215196E+04  0.25500000000E-02 0.  1.
         -2   -1    0    0    0  501 -0.00000000000E+00 -0.00000000000E+00 -0.16048067195E+02  0.16048067398E+02  0.25500000000E-02 0. -1.
    5000001    1    1    2    0    0  0.61879369516E+02 -0.50662503305E+01  0.85122501726E+03  0.86928922303E+03  0.16500000000E+03 0.  0.
   -5000001    1    1    2    0    0 -0.61879369516E+02  0.50662503305E+01  0.11004484352E+04  0.11144803640E+04  0.16500000000E+03 0.  0.
<mgrwt>
<rscale>  0 0.35540471E+03</rscale>
<asrwt>0</asrwt>
<pdfrwt beam="1">  1        2 0.30272624E+00 0.35540471E+03</pdfrwt>
<pdfrwt beam="2">  1       -2 0.24689347E-02 0.35540471E+03</pdfrwt>
<totfact> 0.43687717E+03</totfact>
</mgrwt>
</event>
<event>
 4    1  0.8984293E-005  0.4144993E+03  0.7818608E-02  0.1038872E+00
         -2   -1    0    0    0  501 -0.00000000000E+00  0.00000000000E+00  0.39328318973E+03  0.39328318974E+03  0.25500000000E-02 0. -1.
          2   -1    0    0  501    0  0.00000000000E+00 -0.00000000000E+00 -0.10921496577E+03  0.10921496580E+03  0.25500000000E-02 0.  1.
    5000001    1    1    2    0    0 -0.48312190786E+02 -0.93681642702E+02  0.22440902691E+03  0.29781660349E+03  0.16500000000E+03 0.  0.
   -5000001    1    1    2    0    0  0.48312190786E+02  0.93681642702E+02  0.59659197055E+02  0.20468155205E+03  0.16500000000E+03 0.  0.
<mgrwt>
<rscale>  0 0.41449926E+03</rscale>
<asrwt>0</asrwt>
<pdfrwt beam="1">  1        2 0.16802302E-01 0.41449926E+03</pdfrwt>
<pdfrwt beam="2">  1       -2 0.60505108E-01 0.41449926E+03</pdfrwt>
<totfact> 0.89104407E+02</totfact>
</mgrwt>
</event>
<event>
 4    1  0.8984293E-005  0.9507354E+03  0.7818608E-02  0.9364291E-01
         -2   -1    0    0    0  501 -0.00000000000E+00  0.00000000000E+00  0.54768119219E+03  0.54768119220E+03  0.25500000000E-02 0. -1.
          2   -1    0    0  501    0  0.00000000000E+00 -0.00000000000E+00 -0.41260219503E+03  0.41260219503E+03  0.25500000000E-02 0.  1.
    5000001    1    1    2    0    0  0.12456653856E+03 -0.33334177930E+03  0.33878044214E+03  0.51829600841E+03  0.16500000000E+03 0.  0.
   -5000001    1    1    2    0    0 -0.12456653856E+03  0.33334177930E+03 -0.20370144497E+03  0.44198737882E+03  0.16500000000E+03 0.  0.
<mgrwt>
<rscale>  0 0.95073542E+03</rscale>
<asrwt>0</asrwt>
<pdfrwt beam="1">  1        2 0.63477261E-01 0.95073542E+03</pdfrwt>
<pdfrwt beam="2">  1       -2 0.84258645E-01 0.95073542E+03</pdfrwt>
<totfact> 0.94516187E+01</totfact>
</mgrwt>
</event>
<event>
 4    1  0.8984293E-005  0.3890168E+03  0.7818608E-02  0.1047651E+00
         -2   -1    0    0    0  501 -0.00000000000E+00  0.00000000000E+00  0.10657785481E+02  0.10657785786E+02  0.25500000000E-02 0. -1.
          2   -1    0    0  501    0  0.00000000000E+00 -0.00000000000E+00 -0.35498480536E+04  0.35498480536E+04  0.25500000000E-02 0.  1.
    5000001    1    1    2    0    0  0.61909428676E+02 -0.59336416740E+02 -0.22917679829E+04  0.22992996924E+04  0.16500000000E+03 0.  0.
   -5000001    1    1    2    0    0 -0.61909428676E+02  0.59336416740E+02 -0.12474222852E+04  0.12612061470E+04  0.16500000000E+03 0.  0.
<mgrwt>
<rscale>  0 0.38901681E+03</rscale>
<asrwt>0</asrwt>
<pdfrwt beam="1">  1        2 0.54612952E+00 0.38901681E+03</pdfrwt>
<pdfrwt beam="2">  1       -2 0.16396622E-02 0.38901681E+03</pdfrwt>
<totfact> 0.95228217E+02</totfact>
</mgrwt>
</event>
<event>
 4    1  0.8984293E-005  0.5880441E+03  0.7818608E-02  0.9930526E-01
         -2   -1    0    0    0  501 -0.00000000000E+00  0.00000000000E+00  0.17811758739E+04  0.17811758739E+04  0.25500000000E-02 0. -1.
          2   -1    0    0  501    0  0.00000000000E+00 -0.00000000000E+00 -0.48534770517E+02  0.48534770584E+02  0.25500000000E-02 0.  1.
    5000001    1    1    2    0    0  0.16679297933E+03 -0.34142766536E+02  0.14073880789E+04  0.14272182143E+04  0.16500000000E+03 0.  0.
   -5000001    1    1    2    0    0 -0.16679297933E+03  0.34142766536E+02  0.32525302446E+03  0.40249243022E+03  0.16500000000E+03 0.  0.
<mgrwt>
<rscale>  0 0.58804409E+03</rscale>
<asrwt>0</asrwt>
<pdfrwt beam="1">  1        2 0.74668861E-02 0.58804409E+03</pdfrwt>
<pdfrwt beam="2">  1       -2 0.27402712E+00 0.58804409E+03</pdfrwt>
<totfact> 0.46545073E+01</totfact>
</mgrwt>
</event>
<event>
 4    1  0.8984293E-005  0.6901779E+03  0.7818608E-02  0.9734178E-01
          2   -1    0    0  501    0  0.00000000000E+00  0.00000000000E+00  0.84195912932E+03  0.84195912932E+03  0.25500000000E-02 0.  1.
         -2   -1    0    0    0  501 -0.00000000000E+00 -0.00000000000E+00 -0.14143961928E+03  0.14143961931E+03  0.25500000000E-02 0. -1.
    5000001    1    1    2    0    0  0.12551081275E+03  0.24937781288E+03  0.18215712164E+03  0.37195224780E+03  0.16500000000E+03 0.  0.
   -5000001    1    1    2    0    0 -0.12551081275E+03 -0.24937781288E+03  0.51836238839E+03  0.61144650083E+03  0.16500000000E+03 0.  0.
<mgrwt>
<rscale>  0 0.69017789E+03</rscale>
<asrwt>0</asrwt>
<pdfrwt beam="1">  1        2 0.12953217E+00 0.69017789E+03</pdfrwt>
<pdfrwt beam="2">  1       -2 0.21759942E-01 0.69017789E+03</pdfrwt>
<totfact> 0.59477833E+02</totfact>
</mgrwt>
</event>
<event>
 4    1  0.8984293E-005  0.5844670E+03  0.7818608E-02  0.9938167E-01
          2   -1    0    0  501    0  0.00000000000E+00  0.00000000000E+00  0.27063720111E+04  0.27063720111E+04  0.25500000000E-02 0.  1.
         -2   -1    0    0    0  501 -0.00000000000E+00 -0.00000000000E+00 -0.31555310326E+02  0.31555310429E+02  0.25500000000E-02 0. -1.
    5000001    1    1    2    0    0 -0.13321851708E+03  0.19030056378E+03  0.16415008106E+04  0.16660466347E+04  0.16500000000E+03 0.  0.
   -5000001    1    1    2    0    0  0.13321851708E+03 -0.19030056378E+03  0.10333158902E+04  0.10718806868E+04  0.16500000000E+03 0.  0.
<mgrwt>
<rscale>  0 0.58446697E+03</rscale>
<asrwt>0</asrwt>
<pdfrwt beam="1">  1        2 0.41636502E+00 0.58446697E+03</pdfrwt>
<pdfrwt beam="2">  1       -2 0.48546621E-02 0.58446697E+03</pdfrwt>
<totfact> 0.60366797E+02</totfact>
</mgrwt>
</event>
<event>
 4    1  0.8984293E-005  0.5039188E+03  0.7818608E-02  0.1012761E+00
         -2   -1    0    0    0  501 -0.00000000000E+00  0.00000000000E+00  0.31838967963E+02  0.31838968065E+02  0.25500000000E-02 0. -1.
          2   -1    0    0  501    0  0.00000000000E+00 -0.00000000000E+00 -0.19938940741E+04  0.19938940741E+04  0.25500000000E-02 0.  1.
    5000001    1    1    2    0    0  0.52647814373E+02  0.18297648186E+03 -0.99115304877E+03  0.10226737267E+04  0.16500000000E+03 0.  0.
   -5000001    1    1    2    0    0 -0.52647814373E+02 -0.18297648186E+03 -0.97090205740E+03  0.10030593155E+04  0.16500000000E+03 0.  0.
<mgrwt>
<rscale>  0 0.50391876E+03</rscale>
<asrwt>0</asrwt>
<pdfrwt beam="1">  1        2 0.30675284E+00 0.50391876E+03</pdfrwt>
<pdfrwt beam="2">  1       -2 0.48983043E-02 0.50391876E+03</pdfrwt>
<totfact> 0.14877275E+03</totfact>
</mgrwt>
</event>
<event>
 4    1  0.8984293E-005  0.3410715E+03  0.7818608E-02  0.1066340E+00
          2   -1    0    0  501    0  0.00000000000E+00  0.00000000000E+00  0.13655942279E+04  0.13655942279E+04  0.25500000000E-02 0.  1.
         -2   -1    0    0    0  501 -0.00000000000E+00 -0.00000000000E+00 -0.21296552461E+02  0.21296552614E+02  0.25500000000E-02 0. -1.
    5000001    1    1    2    0    0  0.23292609541E+02  0.32446763433E+02  0.60631646804E+03  0.62963481283E+03  0.16500000000E+03 0.  0.
   -5000001    1    1    2    0    0 -0.23292609541E+02 -0.32446763433E+02  0.73798120739E+03  0.75725596768E+03  0.16500000000E+03 0.  0.
<mgrwt>
<rscale>  0 0.34107154E+03</rscale>
<asrwt>0</asrwt>
<pdfrwt beam="1">  1        2 0.21009140E+00 0.34107154E+03</pdfrwt>
<pdfrwt beam="2">  1       -2 0.32763931E-02 0.34107154E+03</pdfrwt>
<totfact> 0.60104154E+03</totfact>
</mgrwt>
</event>
<event>
 4    1  0.8984293E-005  0.5287155E+03  0.7818608E-02  0.1006544E+00
          2   -1    0    0  501    0  0.00000000000E+00  0.00000000000E+00  0.17560999819E+04  0.17560999819E+04  0.25500000000E-02 0.  1.
         -2   -1    0    0    0  501 -0.00000000000E+00 -0.00000000000E+00 -0.39795575463E+02  0.39795575544E+02  0.25500000000E-02 0. -1.
    5000001    1    1    2    0    0  0.17936538705E+03  0.80037793725E+02  0.10751706113E+04  0.11053482863E+04  0.16500000000E+03 0.  0.
   -5000001    1    1    2    0    0 -0.17936538705E+03 -0.80037793725E+02  0.64113379512E+03  0.69054727119E+03  0.16500000000E+03 0.  0.
<mgrwt>
<rscale>  0 0.52871546E+03</rscale>
<asrwt>0</asrwt>
<pdfrwt beam="1">  1        2 0.27016919E+00 0.52871546E+03</pdfrwt>
<pdfrwt beam="2">  1       -2 0.61223970E-02 0.52871546E+03</pdfrwt>
<totfact> 0.14107099E+03</totfact>
</mgrwt>
</event>
<event>
 4    1  0.8984293E-005  0.5381904E+03  0.7818608E-02  0.1004265E+00
         -2   -1    0    0    0  501 -0.00000000000E+00  0.00000000000E+00  0.50658944553E+02  0.50658944617E+02  0.25500000000E-02 0. -1.
          2   -1    0    0  501    0  0.00000000000E+00 -0.00000000000E+00 -0.14294064304E+04  0.14294064304E+04  0.25500000000E-02 0.  1.
    5000001    1    1    2    0    0  0.13719658056E+03 -0.35428211713E+02 -0.25359998731E+03  0.33408982844E+03  0.16500000000E+03 0.  0.
   -5000001    1    1    2    0    0 -0.13719658056E+03  0.35428211713E+02 -0.11251474985E+04  0.11459755466E+04  0.16500000000E+03 0.  0.
<mgrwt>
<rscale>  0 0.53819038E+03</rscale>
<asrwt>0</asrwt>
<pdfrwt beam="1">  1        2 0.21990865E+00 0.53819038E+03</pdfrwt>
<pdfrwt beam="2">  1       -2 0.77936849E-02 0.53819038E+03</pdfrwt>
<totfact> 0.14534340E+03</totfact>
</mgrwt>
</event>
<event>
 4    1  0.8984293E-005  0.4622573E+03  0.7818608E-02  0.1024129E+00
         -2   -1    0    0    0  501 -0.00000000000E+00  0.00000000000E+00  0.18548298214E+03  0.18548298216E+03  0.25500000000E-02 0. -1.
          2   -1    0    0  501    0  0.00000000000E+00 -0.00000000000E+00 -0.28800728304E+03  0.28800728305E+03  0.25500000000E-02 0.  1.
    5000001    1    1    2    0    0 -0.15812810601E+03 -0.33891609360E+02 -0.44599421660E+02  0.23530245963E+03  0.16500000000E+03 0.  0.
   -5000001    1    1    2    0    0  0.15812810601E+03  0.33891609360E+02 -0.57924879239E+02  0.23818780559E+03  0.16500000000E+03 0.  0.
<mgrwt>
<rscale>  0 0.46225729E+03</rscale>
<asrwt>0</asrwt>
<pdfrwt beam="1">  1        2 0.44308813E-01 0.46225729E+03</pdfrwt>
<pdfrwt beam="2">  1       -2 0.28535843E-01 0.46225729E+03</pdfrwt>
<totfact> 0.12895832E+03</totfact>
</mgrwt>
</event>
<event>
 4    1  0.8984293E-005  0.4174544E+03  0.7818608E-02  0.1037898E+00
         -2   -1    0    0    0  501 -0.00000000000E+00  0.00000000000E+00  0.63749959537E+03  0.63749959537E+03  0.25500000000E-02 0.  1.
          2   -1    0    0  501    0  0.00000000000E+00 -0.00000000000E+00 -0.68340505508E+02  0.68340505556E+02  0.25500000000E-02 0. -1.
    5000001    1    1    2    0    0  0.12709344758E+03 -0.13529956475E+02  0.28035571363E+03  0.34951413462E+03  0.16500000000E+03 0.  0.
   -5000001    1    1    2    0    0 -0.12709344758E+03  0.13529956475E+02  0.28880337623E+03  0.35632596630E+03  0.16500000000E+03 0.  0.
<mgrwt>
<rscale>  0 0.41745440E+03</rscale>
<asrwt>0</asrwt>
<pdfrwt beam="1">  1        2 0.10513924E-01 0.41745440E+03</pdfrwt>
<pdfrwt beam="2">  1       -2 0.98076859E-01 0.41745440E+03</pdfrwt>
<totfact> 0.54319250E+02</totfact>
</mgrwt>
</event>
<event>
 4    1  0.8984293E-005  0.6138783E+03  0.7818608E-02  0.9877024E-01
          2   -1    0    0  501    0  0.00000000000E+00  0.00000000000E+00  0.68527325661E+03  0.68527325662E+03  0.25500000000E-02 0.  1.
         -2   -1    0    0    0  501 -0.00000000000E+00 -0.00000000000E+00 -0.13748038693E+03  0.13748038696E+03  0.25500000000E-02 0. -1.
    5000001    1    1    2    0    0  0.58266707180E+01  0.15904816445E+03  0.54744108948E+03  0.59350401445E+03  0.16500000000E+03 0.  0.
   -5000001    1    1    2    0    0 -0.58266707180E+01 -0.15904816445E+03  0.35178019519E+00  0.22924962913E+03  0.16500000000E+03 0.  0.
<mgrwt>
<rscale>  0 0.61387827E+03</rscale>
<asrwt>0</asrwt>
<pdfrwt beam="1">  1        2 0.10542666E+00 0.61387827E+03</pdfrwt>
<pdfrwt beam="2">  1       -2 0.21150829E-01 0.61387827E+03</pdfrwt>
<totfact> 0.81794709E+02</totfact>
</mgrwt>
</event>
<event>
 4    1  0.8984293E-005  0.7928708E+03  0.7818608E-02  0.9570394E-01
          2   -1    0    0  501    0  0.00000000000E+00  0.00000000000E+00  0.37605854662E+04  0.37605854662E+04  0.25500000000E-02 0.  1.
         -2   -1    0    0    0  501 -0.00000000000E+00 -0.00000000000E+00 -0.41791640364E+02  0.41791640441E+02  0.25500000000E-02 0. -1.
    5000001    1    1    2    0    0 -0.34569655789E+03 -0.35131051260E+02  0.13995153862E+04  0.14514160730E+04  0.16500000000E+03 0.  0.
   -5000001    1    1    2    0    0  0.34569655789E+03  0.35131051260E+02  0.23192784397E+04  0.23509610336E+04  0.16500000000E+03 0.  0.
<mgrwt>
<rscale>  0 0.79287082E+03</rscale>
<asrwt>0</asrwt>
<pdfrwt beam="1">  1        2 0.57855157E+00 0.79287082E+03</pdfrwt>
<pdfrwt beam="2">  1       -2 0.64294836E-02 0.79287082E+03</pdfrwt>
<totfact> 0.79260239E+01</totfact>
</mgrwt>
</event>
<event>
 4    1  0.8984293E-005  0.4998784E+03  0.7818608E-02  0.1013811E+00
          2   -1    0    0  501    0  0.00000000000E+00  0.00000000000E+00  0.13648520391E+04  0.13648520391E+04  0.25500000000E-02 0.  1.
         -2   -1    0    0    0  501 -0.00000000000E+00 -0.00000000000E+00 -0.45770230425E+02  0.45770230496E+02  0.25500000000E-02 0. -1.
    5000001    1    1    2    0    0 -0.17263176734E+03  0.81222021963E+00  0.86771844605E+03  0.89997927110E+03  0.16500000000E+03 0.  0.
   -5000001    1    1    2    0    0  0.17263176734E+03 -0.81222021963E+00  0.45136336263E+03  0.51064299851E+03  0.16500000000E+03 0.  0.
<mgrwt>
<rscale>  0 0.49987835E+03</rscale>
<asrwt>0</asrwt>
<pdfrwt beam="1">  1        2 0.20997727E+00 0.49987835E+03</pdfrwt>
<pdfrwt beam="2">  1       -2 0.70415729E-02 0.49987835E+03</pdfrwt>
<totfact> 0.18562525E+03</totfact>
</mgrwt>
</event>
<event>
 4    1  0.8984293E-005  0.6390731E+03  0.7818608E-02  0.9827502E-01
         -2   -1    0    0    0  501 -0.00000000000E+00  0.00000000000E+00  0.80401351542E+02  0.80401351583E+02  0.25500000000E-02 0. -1.
          2   -1    0    0  501    0  0.00000000000E+00 -0.00000000000E+00 -0.12699238906E+04  0.12699238906E+04  0.25500000000E-02 0.  1.
    5000001    1    1    2    0    0  0.25135536577E+03  0.81817337572E+02 -0.44527891349E+03  0.54348128526E+03  0.16500000000E+03 0.  0.
   -5000001    1    1    2    0    0 -0.25135536577E+03 -0.81817337572E+02 -0.74424362560E+03  0.80684395695E+03  0.16500000000E+03 0.  0.
<mgrwt>
<rscale>  0 0.63907307E+03</rscale>
<asrwt>0</asrwt>
<pdfrwt beam="1">  1        2 0.19537289E+00 0.63907307E+03</pdfrwt>
<pdfrwt beam="2">  1       -2 0.12369440E-01 0.63907307E+03</pdfrwt>
<totfact> 0.84361569E+02</totfact>
</mgrwt>
</event>
<event>
 4    1  0.8984293E-005  0.6854221E+03  0.7818608E-02  0.9742492E-01
          2   -1    0    0  501    0  0.00000000000E+00  0.00000000000E+00  0.34526596029E+03  0.34526596030E+03  0.25500000000E-02 0.  1.
         -2   -1    0    0    0  501 -0.00000000000E+00 -0.00000000000E+00 -0.34017503645E+03  0.34017503646E+03  0.25500000000E-02 0. -1.
    5000001    1    1    2    0    0  0.12156082217E+03 -0.24472555925E+03  0.12728152764E+03  0.34364694108E+03  0.16500000000E+03 0.  0.
   -5000001    1    1    2    0    0 -0.12156082217E+03  0.24472555925E+03 -0.12219060380E+03  0.34179405567E+03  0.16500000000E+03 0.  0.
<mgrwt>
<rscale>  0 0.68542209E+03</rscale>
<asrwt>0</asrwt>
<pdfrwt beam="1">  1        2 0.53117840E-01 0.68542209E+03</pdfrwt>
<pdfrwt beam="2">  1       -2 0.52334621E-01 0.68542209E+03</pdfrwt>
<totfact> 0.32640061E+02</totfact>
</mgrwt>
</event>
<event>
 4    1  0.8984293E-005  0.6213124E+03  0.7818608E-02  0.9862150E-01
         -2   -1    0    0    0  501 -0.00000000000E+00  0.00000000000E+00  0.36470117196E+03  0.36470117197E+03  0.25500000000E-02 0. -1.
          2   -1    0    0  501    0  0.00000000000E+00 -0.00000000000E+00 -0.26462016964E+03  0.26462016966E+03  0.25500000000E-02 0.  1.
    5000001    1    1    2    0    0  0.25981139460E+03  0.42193705992E+02  0.49910740952E+02  0.31464003504E+03  0.16500000000E+03 0.  0.
   -5000001    1    1    2    0    0 -0.25981139460E+03 -0.42193705992E+02  0.50170261368E+02  0.31468130659E+03  0.16500000000E+03 0.  0.
<mgrwt>
<rscale>  0 0.62131244E+03</rscale>
<asrwt>0</asrwt>
<pdfrwt beam="1">  1        2 0.40710795E-01 0.62131244E+03</pdfrwt>
<pdfrwt beam="2">  1       -2 0.56107872E-01 0.62131244E+03</pdfrwt>
<totfact> 0.38026850E+02</totfact>
</mgrwt>
</event>
<event>
 4    1  0.8984293E-005  0.7875587E+03  0.7818608E-02  0.9578202E-01
          2   -1    0    0  501    0  0.00000000000E+00  0.00000000000E+00  0.45215023316E+03  0.45215023316E+03  0.25500000000E-02 0.  1.
         -2   -1    0    0    0  501 -0.00000000000E+00 -0.00000000000E+00 -0.34294394244E+03  0.34294394245E+03  0.25500000000E-02 0. -1.
    5000001    1    1    2    0    0  0.15741554202E+03  0.28341499309E+03 -0.97615732757E+02  0.37663980466E+03  0.16500000000E+03 0.  0.
   -5000001    1    1    2    0    0 -0.15741554202E+03 -0.28341499309E+03  0.20682202347E+03  0.41845437095E+03  0.16500000000E+03 0.  0.
<mgrwt>
<rscale>  0 0.78755872E+03</rscale>
<asrwt>0</asrwt>
<pdfrwt beam="1">  1        2 0.69561574E-01 0.78755872E+03</pdfrwt>
<pdfrwt beam="2">  1       -2 0.52760607E-01 0.78755872E+03</pdfrwt>
<totfact> 0.23619319E+02</totfact>
</mgrwt>
</event>
<event>
 4    1  0.8984293E-005  0.5389184E+03  0.7818608E-02  0.1004092E+00
         -2   -1    0    0    0  501 -0.00000000000E+00  0.00000000000E+00  0.11196551052E+04  0.11196551052E+04  0.25500000000E-02 0. -1.
          2   -1    0    0  501    0  0.00000000000E+00 -0.00000000000E+00 -0.64848779553E+02  0.64848779603E+02  0.25500000000E-02 0.  1.
    5000001    1    1    2    0    0  0.11097098100E+03 -0.18033454980E+03  0.57886278506E+03  0.63807698000E+03  0.16500000000E+03 0.  0.
   -5000001    1    1    2    0    0 -0.11097098100E+03  0.18033454980E+03  0.47594354061E+03  0.54642690483E+03  0.16500000000E+03 0.  0.
<mgrwt>
<rscale>  0 0.53891842E+03</rscale>
<asrwt>0</asrwt>
<pdfrwt beam="1">  1        2 0.99767357E-02 0.53891842E+03</pdfrwt>
<pdfrwt beam="2">  1       -2 0.17225462E+00 0.53891842E+03</pdfrwt>
<totfact> 0.13990218E+02</totfact>
</mgrwt>
</event>
<event>
 4    1  0.8984293E-005  0.9665299E+03  0.7818608E-02  0.9346036E-01
          2   -1    0    0  501    0  0.00000000000E+00  0.00000000000E+00  0.10117711758E+04  0.10117711758E+04  0.25500000000E-02 0.  1.
         -2   -1    0    0    0  501 -0.00000000000E+00 -0.00000000000E+00 -0.23082789717E+03  0.23082789718E+03  0.25500000000E-02 0. -1.
    5000001    1    1    2    0    0  0.11747959787E+03  0.32306816216E+03  0.87771834778E+01  0.38141385956E+03  0.16500000000E+03 0.  0.
   -5000001    1    1    2    0    0 -0.11747959787E+03 -0.32306816216E+03  0.77216609514E+03  0.86118521341E+03  0.16500000000E+03 0.  0.
<mgrwt>
<rscale>  0 0.96652990E+03</rscale>
<asrwt>0</asrwt>
<pdfrwt beam="1">  1        2 0.15565710E+00 0.96652990E+03</pdfrwt>
<pdfrwt beam="2">  1       -2 0.35511984E-01 0.96652990E+03</pdfrwt>
<totfact> 0.18419716E+02</totfact>
</mgrwt>
</event>
<event>
 4    1  0.8984293E-005  0.5032817E+03  0.7818608E-02  0.1012926E+00
         -2   -1    0    0    0  501 -0.00000000000E+00  0.00000000000E+00  0.28253586616E+02  0.28253586731E+02  0.25500000000E-02 0. -1.
          2   -1    0    0  501    0  0.00000000000E+00 -0.00000000000E+00 -0.22412415838E+04  0.22412415838E+04  0.25500000000E-02 0.  1.
    5000001    1    1    2    0    0  0.14662090687E+03  0.95010229408E+02 -0.14431461040E+04  0.14630175363E+04  0.16500000000E+03 0.  0.
   -5000001    1    1    2    0    0 -0.14662090687E+03 -0.95010229408E+02 -0.76984189323E+03  0.80647763428E+03  0.16500000000E+03 0.  0.
<mgrwt>
<rscale>  0 0.50328168E+03</rscale>
<asrwt>0</asrwt>
<pdfrwt beam="1">  1        2 0.34480626E+00 0.50328168E+03</pdfrwt>
<pdfrwt beam="2">  1       -2 0.43467074E-02 0.50328168E+03</pdfrwt>
<totfact> 0.13137278E+03</totfact>
</mgrwt>
</event>
<event>
 4    1  0.8984293E-005  0.5407858E+03  0.7818608E-02  0.1003649E+00
          2   -1    0    0  501    0  0.00000000000E+00  0.00000000000E+00  0.33239797568E+04  0.33239797568E+04  0.25500000000E-02 0.  1.
         -2   -1    0    0    0  501 -0.00000000000E+00 -0.00000000000E+00 -0.21995420167E+02  0.21995420314E+02  0.25500000000E-02 0. -1.
    5000001    1    1    2    0    0  0.17326897378E+03  0.34546246174E+02  0.24004347743E+04  0.24125769803E+04  0.16500000000E+03 0.  0.
   -5000001    1    1    2    0    0 -0.17326897378E+03 -0.34546246174E+02  0.90154956230E+03  0.93339819674E+03  0.16500000000E+03 0.  0.
<mgrwt>
<rscale>  0 0.54078584E+03</rscale>
<asrwt>0</asrwt>
<pdfrwt beam="1">  1        2 0.51138131E+00 0.54078584E+03</pdfrwt>
<pdfrwt beam="2">  1       -2 0.33839121E-02 0.54078584E+03</pdfrwt>
<totfact> 0.44349080E+02</totfact>
</mgrwt>
</event>
<event>
 4    1  0.8984293E-005  0.3745483E+03  0.7818608E-02  0.1052967E+00
          2   -1    0    0  501    0  0.00000000000E+00  0.00000000000E+00  0.28347556203E+04  0.28347556203E+04  0.25500000000E-02 0.  1.
         -2   -1    0    0    0  501 -0.00000000000E+00 -0.00000000000E+00 -0.12372006914E+02  0.12372007177E+02  0.25500000000E-02 0. -1.
    5000001    1    1    2    0    0 -0.86432331774E+02  0.17596392633E+02  0.14731500583E+04  0.14849835943E+04  0.16500000000E+03 0.  0.
   -5000001    1    1    2    0    0  0.86432331774E+02 -0.17596392633E+02  0.13492335550E+04  0.13621440332E+04  0.16500000000E+03 0.  0.
<mgrwt>
<rscale>  0 0.37454835E+03</rscale>
<asrwt>0</asrwt>
<pdfrwt beam="1">  1        2 0.43611675E+00 0.37454835E+03</pdfrwt>
<pdfrwt beam="2">  1       -2 0.19033835E-02 0.37454835E+03</pdfrwt>
<totfact> 0.21414611E+03</totfact>
</mgrwt>
</event>
<event>
 4    1  0.8984293E-005  0.7563315E+03  0.7818608E-02  0.9625469E-01
          2   -1    0    0  501    0  0.00000000000E+00  0.00000000000E+00  0.44939058512E+03  0.44939058512E+03  0.25500000000E-02 0.  1.
         -2   -1    0    0    0  501 -0.00000000000E+00 -0.00000000000E+00 -0.31822946876E+03  0.31822946877E+03  0.25500000000E-02 0. -1.
    5000001    1    1    2    0    0 -0.22592796172E+03 -0.16653651794E+03  0.26082243487E+03  0.41717046663E+03  0.16500000000E+03 0.  0.
   -5000001    1    1    2    0    0  0.22592796172E+03  0.16653651794E+03 -0.12966131851E+03  0.35044958726E+03  0.16500000000E+03 0.  0.
<mgrwt>
<rscale>  0 0.75633148E+03</rscale>
<asrwt>0</asrwt>
<pdfrwt beam="1">  1        2 0.69137013E-01 0.75633148E+03</pdfrwt>
<pdfrwt beam="2">  1       -2 0.48958380E-01 0.75633148E+03</pdfrwt>
<totfact> 0.27740325E+02</totfact>
</mgrwt>
</event>
<event>
 4    1  0.8984293E-005  0.7552186E+03  0.7818608E-02  0.9627199E-01
         -2   -1    0    0    0  501 -0.00000000000E+00  0.00000000000E+00  0.18621872105E+03  0.18621872107E+03  0.25500000000E-02 0. -1.
          2   -1    0    0  501    0  0.00000000000E+00 -0.00000000000E+00 -0.76570603522E+03  0.76570603523E+03  0.25500000000E-02 0.  1.
    5000001    1    1    2    0    0  0.50609164329E+02  0.31900892535E+03 -0.42215712460E+03  0.55656951032E+03  0.16500000000E+03 0.  0.
   -5000001    1    1    2    0    0 -0.50609164329E+02 -0.31900892535E+03 -0.15733018957E+03  0.39535524598E+03  0.16500000000E+03 0.  0.
<mgrwt>
<rscale>  0 0.75521864E+03</rscale>
<asrwt>0</asrwt>
<pdfrwt beam="1">  1        2 0.11780093E+00 0.75521864E+03</pdfrwt>
<pdfrwt beam="2">  1       -2 0.28649034E-01 0.75521864E+03</pdfrwt>
<totfact> 0.40985611E+02</totfact>
</mgrwt>
</event>
<event>
 4    1  0.8984293E-005  0.4367593E+03  0.7818608E-02  0.1031746E+00
         -2   -1    0    0    0  501 -0.00000000000E+00  0.00000000000E+00  0.68832183848E+02  0.68832183895E+02  0.25500000000E-02 0. -1.
          2   -1    0    0  501    0  0.00000000000E+00 -0.00000000000E+00 -0.69283976973E+03  0.69283976974E+03  0.25500000000E-02 0.  1.
    5000001    1    1    2    0    0  0.14291024205E+03  0.52175944472E+01 -0.31855541104E+03  0.38620345736E+03  0.16500000000E+03 0.  0.
   -5000001    1    1    2    0    0 -0.14291024205E+03 -0.52175944472E+01 -0.30545217484E+03  0.37546849627E+03  0.16500000000E+03 0.  0.
<mgrwt>
<rscale>  0 0.43675931E+03</rscale>
<asrwt>0</asrwt>
<pdfrwt beam="1">  1        2 0.10659073E+00 0.43675931E+03</pdfrwt>
<pdfrwt beam="2">  1       -2 0.10589567E-01 0.43675931E+03</pdfrwt>
<totfact> 0.25841889E+03</totfact>
</mgrwt>
</event>
<event>
 4    1  0.8984293E-005  0.7446154E+03  0.7818608E-02  0.9643836E-01
         -2   -1    0    0    0  501 -0.00000000000E+00  0.00000000000E+00  0.39629862612E+03  0.39629862613E+03  0.25500000000E-02 0. -1.
          2   -1    0    0  501    0  0.00000000000E+00 -0.00000000000E+00 -0.34976914397E+03  0.34976914398E+03  0.25500000000E-02 0.  1.
    5000001    1    1    2    0    0  0.27488883563E+03  0.37475839642E+01  0.21286944607E+03  0.38485882789E+03  0.16500000000E+03 0.  0.
   -5000001    1    1    2    0    0 -0.27488883563E+03 -0.37475839642E+01 -0.16633996393E+03  0.36120894222E+03  0.16500000000E+03 0.  0.
<mgrwt>
<rscale>  0 0.74461542E+03</rscale>
<asrwt>0</asrwt>
<pdfrwt beam="1">  1        2 0.53810638E-01 0.74461542E+03</pdfrwt>
<pdfrwt beam="2">  1       -2 0.60969019E-01 0.74461542E+03</pdfrwt>
<totfact> 0.23360983E+02</totfact>
</mgrwt>
</event>
<event>
 4    1  0.8984293E-005  0.1225254E+04  0.7818608E-02  0.9091035E-01
         -2   -1    0    0    0  501 -0.00000000000E+00  0.00000000000E+00  0.36708688447E+03  0.36708688448E+03  0.25500000000E-02 0. -1.
          2   -1    0    0  501    0  0.00000000000E+00 -0.00000000000E+00 -0.10224059053E+04  0.10224059053E+04  0.25500000000E-02 0.  1.
    5000001    1    1    2    0    0 -0.50640022986E+03 -0.24245343053E+03 -0.53323758312E+03  0.79170207706E+03  0.16500000000E+03 0.  0.
   -5000001    1    1    2    0    0  0.50640022986E+03  0.24245343053E+03 -0.12208143770E+03  0.59779071271E+03  0.16500000000E+03 0.  0.
<mgrwt>
<rscale>  0 0.12252539E+04</rscale>
<asrwt>0</asrwt>
<pdfrwt beam="1">  1        2 0.15729322E+00 0.12252539E+04</pdfrwt>
<pdfrwt beam="2">  1       -2 0.56474906E-01 0.12252539E+04</pdfrwt>
<totfact> 0.70628599E+01</totfact>
</mgrwt>
</event>
<event>
 4    1  0.8984293E-005  0.4704331E+03  0.7818608E-02  0.1021798E+00
         -2   -1    0    0    0  501 -0.00000000000E+00  0.00000000000E+00  0.10372310821E+03  0.10372310824E+03  0.25500000000E-02 0. -1.
          2   -1    0    0  501    0  0.00000000000E+00 -0.00000000000E+00 -0.53340883179E+03  0.53340883180E+03  0.25500000000E-02 0.  1.
    5000001    1    1    2    0    0 -0.11782419516E+03  0.11826405659E+03 -0.19417428285E+03  0.30462695246E+03  0.16500000000E+03 0.  0.
   -5000001    1    1    2    0    0  0.11782419516E+03 -0.11826405659E+03 -0.23551144074E+03  0.33250498758E+03  0.16500000000E+03 0.  0.
<mgrwt>
<rscale>  0 0.47043309E+03</rscale>
<asrwt>0</asrwt>
<pdfrwt beam="1">  1        2 0.82062896E-01 0.47043309E+03</pdfrwt>
<pdfrwt beam="2">  1       -2 0.15957402E-01 0.47043309E+03</pdfrwt>
<totfact> 0.17948791E+03</totfact>
</mgrwt>
</event>
<event>
 4    1  0.8984293E-005  0.4380722E+03  0.7818608E-02  0.1031340E+00
         -2   -1    0    0    0  501 -0.00000000000E+00  0.00000000000E+00  0.41207270952E+02  0.41207271030E+02  0.25500000000E-02 0. -1.
          2   -1    0    0  501    0  0.00000000000E+00 -0.00000000000E+00 -0.11642804102E+04  0.11642804102E+04  0.25500000000E-02 0.  1.
    5000001    1    1    2    0    0  0.20915717611E+02  0.13847791085E+03 -0.65437548106E+03  0.68923571385E+03  0.16500000000E+03 0.  0.
   -5000001    1    1    2    0    0 -0.20915717611E+02 -0.13847791085E+03 -0.46869765823E+03  0.51625196743E+03  0.16500000000E+03 0.  0.
<mgrwt>
<rscale>  0 0.43807222E+03</rscale>
<asrwt>0</asrwt>
<pdfrwt beam="1">  1        2 0.17912004E+00 0.43807222E+03</pdfrwt>
<pdfrwt beam="2">  1       -2 0.63395811E-02 0.43807222E+03</pdfrwt>
<totfact> 0.28528212E+03</totfact>
</mgrwt>
</event>
<event>
 4    1  0.8984293E-005  0.4063813E+03  0.7818608E-02  0.1041592E+00
         -2   -1    0    0    0  501 -0.00000000000E+00  0.00000000000E+00  0.14366381365E+03  0.14366381367E+03  0.25500000000E-02 0. -1.
          2   -1    0    0  501    0  0.00000000000E+00 -0.00000000000E+00 -0.28738233484E+03  0.28738233485E+03  0.25500000000E-02 0.  1.
    5000001    1    1    2    0    0 -0.96226472998E+02 -0.67281813940E+02 -0.54267545030E+02  0.20965768060E+03  0.16500000000E+03 0.  0.
   -5000001    1    1    2    0    0  0.96226472998E+02  0.67281813940E+02 -0.89450976156E+02  0.22138846792E+03  0.16500000000E+03 0.  0.
<mgrwt>
<rscale>  0 0.40638131E+03</rscale>
<asrwt>0</asrwt>
<pdfrwt beam="1">  1        2 0.44212667E-01 0.40638131E+03</pdfrwt>
<pdfrwt beam="2">  1       -2 0.22102125E-01 0.40638131E+03</pdfrwt>
<totfact> 0.20378228E+03</totfact>
</mgrwt>
</event>
<event>
 4    1  0.8984293E-005  0.5404177E+03  0.7818608E-02  0.1003736E+00
         -2   -1    0    0    0  501 -0.00000000000E+00  0.00000000000E+00  0.70486805150E+03  0.70486805151E+03  0.25500000000E-02 0. -1.
          2   -1    0    0  501    0  0.00000000000E+00 -0.00000000000E+00 -0.10358368091E+03  0.10358368094E+03  0.25500000000E-02 0.  1.
    5000001    1    1    2    0    0  0.19417804700E+03 -0.89466725533E+02  0.31388967524E+03  0.41407866056E+03  0.16500000000E+03 0.  0.
   -5000001    1    1    2    0    0 -0.19417804700E+03  0.89466725533E+02  0.28739469535E+03  0.39437307189E+03  0.16500000000E+03 0.  0.
<mgrwt>
<rscale>  0 0.54041772E+03</rscale>
<asrwt>0</asrwt>
<pdfrwt beam="1">  1        2 0.15935951E-01 0.54041772E+03</pdfrwt>
<pdfrwt beam="2">  1       -2 0.10844124E+00 0.54041772E+03</pdfrwt>
<totfact> 0.25669385E+02</totfact>
</mgrwt>
</event>
<event>
 4    1  0.8984293E-005  0.5179959E+03  0.7818608E-02  0.1009186E+00
         -2   -1    0    0    0  501 -0.00000000000E+00  0.00000000000E+00  0.26370995715E+02  0.26370995838E+02  0.25500000000E-02 0. -1.
          2   -1    0    0  501    0  0.00000000000E+00 -0.00000000000E+00 -0.25437014480E+04  0.25437014480E+04  0.25500000000E-02 0.  1.
    5000001    1    1    2    0    0 -0.18463508548E+03  0.72306394186E+02 -0.11437311774E+04  0.11724608034E+04  0.16500000000E+03 0.  0.
   -5000001    1    1    2    0    0  0.18463508548E+03 -0.72306394186E+02 -0.13735992749E+04  0.13976116404E+04  0.16500000000E+03 0.  0.
<mgrwt>
<rscale>  0 0.51799591E+03</rscale>
<asrwt>0</asrwt>
<pdfrwt beam="1">  1        2 0.39133849E+00 0.51799591E+03</pdfrwt>
<pdfrwt beam="2">  1       -2 0.40570783E-02 0.51799591E+03</pdfrwt>
<totfact> 0.99180045E+02</totfact>
</mgrwt>
</event>
<event>
 4    1  0.8984293E-005  0.5112310E+03  0.7818608E-02  0.1010888E+00
         -2   -1    0    0    0  501 -0.00000000000E+00  0.00000000000E+00  0.47583838137E+02  0.47583838205E+02  0.25500000000E-02 0. -1.
          2   -1    0    0  501    0  0.00000000000E+00 -0.00000000000E+00 -0.13731401131E+04  0.13731401131E+04  0.25500000000E-02 0.  1.
    5000001    1    1    2    0    0  0.14865652899E+03  0.10686194758E+03 -0.47437665097E+03  0.53458062670E+03  0.16500000000E+03 0.  0.
   -5000001    1    1    2    0    0 -0.14865652899E+03 -0.10686194758E+03 -0.85117962395E+03  0.88614332457E+03  0.16500000000E+03 0.  0.
<mgrwt>
<rscale>  0 0.51123097E+03</rscale>
<asrwt>0</asrwt>
<pdfrwt beam="1">  1        2 0.21125230E+00 0.51123097E+03</pdfrwt>
<pdfrwt beam="2">  1       -2 0.73205915E-02 0.51123097E+03</pdfrwt>
<totfact> 0.17267839E+03</totfact>
</mgrwt>
</event>
<event>
 4    1  0.8984293E-005  0.3691821E+03  0.7818608E-02  0.1055006E+00
          2   -1    0    0  501    0  0.00000000000E+00  0.00000000000E+00  0.52629825449E+03  0.52629825449E+03  0.25500000000E-02 0.  1.
         -2   -1    0    0    0  501 -0.00000000000E+00 -0.00000000000E+00 -0.64742490770E+02  0.64742490820E+02  0.25500000000E-02 0. -1.
    5000001    1    1    2    0    0  0.78268520122E+02  0.26645621090E+02  0.22502570738E+03  0.29102838238E+03  0.16500000000E+03 0.  0.
   -5000001    1    1    2    0    0 -0.78268520122E+02 -0.26645621090E+02  0.23653005633E+03  0.30001236294E+03  0.16500000000E+03 0.  0.
<mgrwt>
<rscale>  0 0.36918212E+03</rscale>
<asrwt>0</asrwt>
<pdfrwt beam="1">  1        2 0.80968962E-01 0.36918212E+03</pdfrwt>
<pdfrwt beam="2">  1       -2 0.99603832E-02 0.36918212E+03</pdfrwt>
<totfact> 0.39407874E+03</totfact>
</mgrwt>
</event>
<event>
 4    1  0.8984293E-005  0.5055417E+03  0.7818608E-02  0.1012343E+00
         -2   -1    0    0    0  501 -0.00000000000E+00  0.00000000000E+00  0.51327799456E+02  0.51327799520E+02  0.25500000000E-02 0.  1.
          2   -1    0    0  501    0  0.00000000000E+00 -0.00000000000E+00 -0.12448047957E+04  0.12448047957E+04  0.25500000000E-02 0. -1.
    5000001    1    1    2    0    0  0.11004026125E+03 -0.13074578900E+03 -0.37522473337E+03  0.44409674731E+03  0.16500000000E+03 0.  0.
   -5000001    1    1    2    0    0 -0.11004026125E+03  0.13074578900E+03 -0.81825226291E+03  0.85203584795E+03  0.16500000000E+03 0.  0.
<mgrwt>
<rscale>  0 0.50554165E+03</rscale>
<asrwt>0</asrwt>
<pdfrwt beam="1">  1        2 0.19150841E+00 0.50554165E+03</pdfrwt>
<pdfrwt beam="2">  1       -2 0.78965855E-02 0.50554165E+03</pdfrwt>
<totfact> 0.18116346E+03</totfact>
</mgrwt>
</event>
<event>
 4    1  0.8984293E-005  0.5650219E+03  0.7818608E-02  0.9980755E-01
         -2   -1    0    0    0  501 -0.00000000000E+00  0.00000000000E+00  0.55867836486E+02  0.55867836544E+02  0.25500000000E-02 0. -1.
          2   -1    0    0  501    0  0.00000000000E+00 -0.00000000000E+00 -0.14285936392E+04  0.14285936392E+04  0.25500000000E-02 0.  1.
    5000001    1    1    2    0    0  0.22261161679E+03 -0.54175976688E+02 -0.66055847750E+03  0.71836861748E+03  0.16500000000E+03 0.  0.
   -5000001    1    1    2    0    0 -0.22261161679E+03  0.54175976688E+02 -0.71216732518E+03  0.76609285823E+03  0.16500000000E+03 0.  0.
<mgrwt>
<rscale>  0 0.56502190E+03</rscale>
<asrwt>0</asrwt>
<pdfrwt beam="1">  1        2 0.21978361E+00 0.56502190E+03</pdfrwt>
<pdfrwt beam="2">  1       -2 0.85950529E-02 0.56502190E+03</pdfrwt>
<totfact> 0.12435208E+03</totfact>
</mgrwt>
</event>
<event>
 4    1  0.8984293E-005  0.4454336E+03  0.7818608E-02  0.1029093E+00
         -2   -1    0    0    0  501 -0.00000000000E+00  0.00000000000E+00  0.38013432331E+03  0.38013432332E+03  0.25500000000E-02 0. -1.
          2   -1    0    0  501    0  0.00000000000E+00 -0.00000000000E+00 -0.13048748776E+03  0.13048748778E+03  0.25500000000E-02 0.  1.
    5000001    1    1    2    0    0 -0.54587257336E+02  0.10475068162E+03  0.23004602224E+03  0.30675502654E+03  0.16500000000E+03 0.  0.
   -5000001    1    1    2    0    0  0.54587257336E+02 -0.10475068162E+03  0.19600813316E+02  0.20386678456E+03  0.16500000000E+03 0.  0.
<mgrwt>
<rscale>  0 0.44543360E+03</rscale>
<asrwt>0</asrwt>
<pdfrwt beam="1">  1        2 0.20074998E-01 0.44543360E+03</pdfrwt>
<pdfrwt beam="2">  1       -2 0.58482203E-01 0.44543360E+03</pdfrwt>
<totfact> 0.77647838E+02</totfact>
</mgrwt>
</event>
<event>
 4    1  0.8984293E-005  0.7545714E+03  0.7818608E-02  0.9628206E-01
         -2   -1    0    0    0  501 -0.00000000000E+00  0.00000000000E+00  0.11368271206E+03  0.11368271209E+03  0.25500000000E-02 0.  1.
          2   -1    0    0  501    0  0.00000000000E+00 -0.00000000000E+00 -0.12521208040E+04  0.12521208040E+04  0.25500000000E-02 0. -1.
    5000001    1    1    2    0    0  0.23893090829E+03  0.18200521133E+03 -0.28356753902E+03  0.44480268105E+03  0.16500000000E+03 0.  0.
   -5000001    1    1    2    0    0 -0.23893090829E+03 -0.18200521133E+03 -0.85487055287E+03  0.92100083499E+03  0.16500000000E+03 0.  0.
<mgrwt>
<rscale>  0 0.75457137E+03</rscale>
<asrwt>0</asrwt>
<pdfrwt beam="1">  1        2 0.19263396E+00 0.75457137E+03</pdfrwt>
<pdfrwt beam="2">  1       -2 0.17489649E-01 0.75457137E+03</pdfrwt>
<totfact> 0.47924068E+02</totfact>
</mgrwt>
</event>
<event>
 4    1  0.8984293E-005  0.5558428E+03  0.7818608E-02  0.1000151E+00
         -2   -1    0    0    0  501 -0.00000000000E+00  0.00000000000E+00  0.68142196544E+02  0.68142196592E+02  0.25500000000E-02 0. -1.
          2   -1    0    0  501    0  0.00000000000E+00 -0.00000000000E+00 -0.11335165286E+04  0.11335165286E+04  0.25500000000E-02 0.  1.
    5000001    1    1    2    0    0 -0.21536010748E+03  0.77982725380E+00 -0.66302327753E+03  0.71638359178E+03  0.16500000000E+03 0.  0.
   -5000001    1    1    2    0    0  0.21536010748E+03 -0.77982725380E+00 -0.40235105449E+03  0.48527513337E+03  0.16500000000E+03 0.  0.
<mgrwt>
<rscale>  0 0.55584281E+03</rscale>
<asrwt>0</asrwt>
<pdfrwt beam="1">  1        2 0.17438714E+00 0.55584281E+03</pdfrwt>
<pdfrwt beam="2">  1       -2 0.10483416E-01 0.55584281E+03</pdfrwt>
<totfact> 0.13342425E+03</totfact>
</mgrwt>
</event>
<event>
 4    1  0.8984293E-005  0.4019332E+03  0.7818608E-02  0.1043112E+00
          2   -1    0    0  501    0  0.00000000000E+00  0.00000000000E+00  0.20846033738E+04  0.20846033738E+04  0.25500000000E-02 0.  1.
         -2   -1    0    0    0  501 -0.00000000000E+00 -0.00000000000E+00 -0.19374223903E+02  0.19374224071E+02  0.25500000000E-02 0. -1.
    5000001    1    1    2    0    0 -0.68436663625E+02 -0.91843408194E+02  0.99797714809E+03  0.10179892812E+04  0.16500000000E+03 0.  0.
   -5000001    1    1    2    0    0  0.68436663625E+02  0.91843408194E+02  0.10672520018E+04  0.10859883166E+04  0.16500000000E+03 0.  0.
<mgrwt>
<rscale>  0 0.40193319E+03</rscale>
<asrwt>0</asrwt>
<pdfrwt beam="1">  1        2 0.32070795E+00 0.40193319E+03</pdfrwt>
<pdfrwt beam="2">  1       -2 0.29806523E-02 0.40193319E+03</pdfrwt>
<totfact> 0.28498404E+03</totfact>
</mgrwt>
</event>
<event>
 4    1  0.8984293E-005  0.4390036E+03  0.7818608E-02  0.1031053E+00
         -2   -1    0    0    0  501 -0.00000000000E+00  0.00000000000E+00  0.16617799404E+03  0.16617799406E+03  0.25500000000E-02 0. -1.
          2   -1    0    0  501    0  0.00000000000E+00 -0.00000000000E+00 -0.28993639038E+03  0.28993639039E+03  0.25500000000E-02 0.  1.
    5000001    1    1    2    0    0 -0.13496771797E+03 -0.42737987816E+02 -0.30481696885E+02  0.21953804760E+03  0.16500000000E+03 0.  0.
   -5000001    1    1    2    0    0  0.13496771797E+03  0.42737987816E+02 -0.93276699460E+02  0.23657633685E+03  0.16500000000E+03 0.  0.
<mgrwt>
<rscale>  0 0.43900363E+03</rscale>
<asrwt>0</asrwt>
<pdfrwt beam="1">  1        2 0.44605598E-01 0.43900363E+03</pdfrwt>
<pdfrwt beam="2">  1       -2 0.25565845E-01 0.43900363E+03</pdfrwt>
<totfact> 0.15608955E+03</totfact>
</mgrwt>
</event>
<event>
 4    1  0.8984293E-005  0.7563460E+03  0.7818608E-02  0.9625447E-01
         -2   -1    0    0    0  501 -0.00000000000E+00  0.00000000000E+00  0.12738408094E+03  0.12738408097E+03  0.25500000000E-02 0.  1.
          2   -1    0    0  501    0  0.00000000000E+00 -0.00000000000E+00 -0.11227055007E+04  0.11227055007E+04  0.25500000000E-02 0. -1.
    5000001    1    1    2    0    0 -0.57149138439E+02 -0.29691308244E+03 -0.75565872963E+03  0.83046283373E+03  0.16500000000E+03 0.  0.
   -5000001    1    1    2    0    0  0.57149138439E+02  0.29691308244E+03 -0.23966269013E+03  0.41962674794E+03  0.16500000000E+03 0.  0.
<mgrwt>
<rscale>  0 0.75634597E+03</rscale>
<asrwt>0</asrwt>
<pdfrwt beam="1">  1        2 0.17272392E+00 0.75634597E+03</pdfrwt>
<pdfrwt beam="2">  1       -2 0.19597552E-01 0.75634597E+03</pdfrwt>
<totfact> 0.46969033E+02</totfact>
</mgrwt>
</event>
<event>
 4    1  0.8984293E-005  0.4859198E+03  0.7818608E-02  0.1017521E+00
         -2   -1    0    0    0  501 -0.00000000000E+00  0.00000000000E+00  0.12932804153E+03  0.12932804156E+03  0.25500000000E-02 0.  1.
          2   -1    0    0  501    0  0.00000000000E+00 -0.00000000000E+00 -0.45643246338E+03  0.45643246338E+03  0.25500000000E-02 0. -1.
    5000001    1    1    2    0    0 -0.34537410334E+01  0.11820070244E+03 -0.26271315009E+01  0.20301535953E+03  0.16500000000E+03 0.  0.
   -5000001    1    1    2    0    0  0.34537410334E+01 -0.11820070244E+03 -0.32447729034E+03  0.38274514541E+03  0.16500000000E+03 0.  0.
<mgrwt>
<rscale>  0 0.48591981E+03</rscale>
<asrwt>0</asrwt>
<pdfrwt beam="1">  1        2 0.70220378E-01 0.48591981E+03</pdfrwt>
<pdfrwt beam="2">  1       -2 0.19896622E-01 0.48591981E+03</pdfrwt>
<totfact> 0.14709654E+03</totfact>
</mgrwt>
</event>
<event>
 4    1  0.8984293E-005  0.4384799E+03  0.7818608E-02  0.1031214E+00
         -2   -1    0    0    0  501 -0.00000000000E+00  0.00000000000E+00  0.15276868509E+03  0.15276868511E+03  0.25500000000E-02 0. -1.
          2   -1    0    0  501    0  0.00000000000E+00 -0.00000000000E+00 -0.31463360734E+03  0.31463360735E+03  0.25500000000E-02 0.  1.
    5000001    1    1    2    0    0 -0.38319382967E+02 -0.10197626689E+03 -0.18191008737E+03  0.26867045615E+03  0.16500000000E+03 0.  0.
   -5000001    1    1    2    0    0  0.38319382967E+02  0.10197626689E+03  0.20045165124E+02  0.19873183631E+03  0.16500000000E+03 0.  0.
<mgrwt>
<rscale>  0 0.43847993E+03</rscale>
<asrwt>0</asrwt>
<pdfrwt beam="1">  1        2 0.48405170E-01 0.43847993E+03</pdfrwt>
<pdfrwt beam="2">  1       -2 0.23502875E-01 0.43847993E+03</pdfrwt>
<totfact> 0.16578596E+03</totfact>
</mgrwt>
</event>
<event>
 4    1  0.8984293E-005  0.4524487E+03  0.7818608E-02  0.1026994E+00
          2   -1    0    0  501    0  0.00000000000E+00  0.00000000000E+00  0.69204738460E+03  0.69204738460E+03  0.25500000000E-02 0.  1.
         -2   -1    0    0    0  501 -0.00000000000E+00 -0.00000000000E+00 -0.73950788728E+02  0.73950788772E+02  0.25500000000E-02 0. -1.
    5000001    1    1    2    0    0 -0.79306709780E+02  0.60191443886E+02  0.10844401314E+03  0.22112817125E+03  0.16500000000E+03 0.  0.
   -5000001    1    1    2    0    0  0.79306709780E+02 -0.60191443886E+02  0.50965258273E+03  0.54487000213E+03  0.16500000000E+03 0.  0.
<mgrwt>
<rscale>  0 0.45244867E+03</rscale>
<asrwt>0</asrwt>
<pdfrwt beam="1">  1        2 0.10646883E+00 0.45244867E+03</pdfrwt>
<pdfrwt beam="2">  1       -2 0.11377044E-01 0.45244867E+03</pdfrwt>
<totfact> 0.23039921E+03</totfact>
</mgrwt>
</event>
<event>
 4    1  0.8984293E-005  0.6514325E+03  0.7818608E-02  0.9804095E-01
         -2   -1    0    0    0  501 -0.00000000000E+00  0.00000000000E+00  0.99391429531E+02  0.99391429564E+02  0.25500000000E-02 0. -1.
          2   -1    0    0  501    0  0.00000000000E+00 -0.00000000000E+00 -0.10674068261E+04  0.10674068261E+04  0.25500000000E-02 0.  1.
    5000001    1    1    2    0    0 -0.20274800718E+03  0.17181363316E+03 -0.64659042878E+03  0.71828327388E+03  0.16500000000E+03 0.  0.
   -5000001    1    1    2    0    0  0.20274800718E+03 -0.17181363316E+03 -0.32142496775E+03  0.44851498175E+03  0.16500000000E+03 0.  0.
<mgrwt>
<rscale>  0 0.65143255E+03</rscale>
<asrwt>0</asrwt>
<pdfrwt beam="1">  1        2 0.16421643E+00 0.65143255E+03</pdfrwt>
<pdfrwt beam="2">  1       -2 0.15290990E-01 0.65143255E+03</pdfrwt>
<totfact> 0.78077745E+02</totfact>
</mgrwt>
</event>
<event>
 4    1  0.8984293E-005  0.4231814E+03  0.7818608E-02  0.1036036E+00
          2   -1    0    0  501    0  0.00000000000E+00  0.00000000000E+00  0.12869670135E+04  0.12869670135E+04  0.25500000000E-02 0.  1.
         -2   -1    0    0    0  501 -0.00000000000E+00 -0.00000000000E+00 -0.34787693752E+02  0.34787693846E+02  0.25500000000E-02 0. -1.
    5000001    1    1    2    0    0 -0.12144683549E+03 -0.33457929856E+02  0.49818948921E+03  0.53970967573E+03  0.16500000000E+03 0.  0.
   -5000001    1    1    2    0    0  0.12144683549E+03  0.33457929856E+02  0.75398983057E+03  0.78204503165E+03  0.16500000000E+03 0.  0.
<mgrwt>
<rscale>  0 0.42318135E+03</rscale>
<asrwt>0</asrwt>
<pdfrwt beam="1">  1        2 0.19799495E+00 0.42318135E+03</pdfrwt>
<pdfrwt beam="2">  1       -2 0.53519522E-02 0.42318135E+03</pdfrwt>
<totfact> 0.31534590E+03</totfact>
</mgrwt>
</event>
<event>
 4    1  0.8984293E-005  0.3994495E+03  0.7818608E-02  0.1043970E+00
          2   -1    0    0  501    0  0.00000000000E+00  0.00000000000E+00  0.18844581287E+03  0.18844581289E+03  0.25500000000E-02 0.  1.
         -2   -1    0    0    0  501 -0.00000000000E+00 -0.00000000000E+00 -0.21167875640E+03  0.21167875642E+03  0.25500000000E-02 0. -1.
    5000001    1    1    2    0    0  0.10154407851E+03  0.44692368587E+02  0.72931336655E+01  0.19896431210E+03  0.16500000000E+03 0.  0.
   -5000001    1    1    2    0    0 -0.10154407851E+03 -0.44692368587E+02 -0.30526077196E+02  0.20116025721E+03  0.16500000000E+03 0.  0.
<mgrwt>
<rscale>  0 0.39944950E+03</rscale>
<asrwt>0</asrwt>
<pdfrwt beam="1">  1        2 0.28991663E-01 0.39944950E+03</pdfrwt>
<pdfrwt beam="2">  1       -2 0.32565963E-01 0.39944950E+03</pdfrwt>
<totfact> 0.16123540E+03</totfact>
</mgrwt>
</event>
<event>
 4    1  0.8984293E-005  0.3999164E+03  0.7818608E-02  0.1043809E+00
         -2   -1    0    0    0  501 -0.00000000000E+00  0.00000000000E+00  0.33497350581E+03  0.33497350582E+03  0.25500000000E-02 0. -1.
          2   -1    0    0  501    0  0.00000000000E+00 -0.00000000000E+00 -0.11936252531E+03  0.11936252534E+03  0.25500000000E-02 0.  1.
    5000001    1    1    2    0    0 -0.33976374647E+02 -0.54892803894E+02  0.25071648726E+01  0.17719734713E+03  0.16500000000E+03 0.  0.
   -5000001    1    1    2    0    0  0.33976374647E+02  0.54892803894E+02  0.21310381562E+03  0.27713868403E+03  0.16500000000E+03 0.  0.
<mgrwt>
<rscale>  0 0.39991641E+03</rscale>
<asrwt>0</asrwt>
<pdfrwt beam="1">  1        2 0.18363466E-01 0.39991641E+03</pdfrwt>
<pdfrwt beam="2">  1       -2 0.51534385E-01 0.39991641E+03</pdfrwt>
<totfact> 0.11162556E+03</totfact>
</mgrwt>
</event>
<event>
 4    1  0.8984293E-005  0.5170555E+03  0.7818608E-02  0.1009421E+00
         -2   -1    0    0    0  501 -0.00000000000E+00  0.00000000000E+00  0.69759815634E+02  0.69759815680E+02  0.25500000000E-02 0. -1.
          2   -1    0    0  501    0  0.00000000000E+00 -0.00000000000E+00 -0.95809591688E+03  0.95809591689E+03  0.25500000000E-02 0.  1.
    5000001    1    1    2    0    0  0.15517352643E+03 -0.82672195590E+02 -0.62956675368E+03  0.67416082100E+03  0.16500000000E+03 0.  0.
   -5000001    1    1    2    0    0 -0.15517352643E+03  0.82672195590E+02 -0.25876934756E+03  0.35369491156E+03  0.16500000000E+03 0.  0.
<mgrwt>
<rscale>  0 0.51705549E+03</rscale>
<asrwt>0</asrwt>
<pdfrwt beam="1">  1        2 0.14739936E+00 0.51705549E+03</pdfrwt>
<pdfrwt beam="2">  1       -2 0.10732280E-01 0.51705549E+03</pdfrwt>
<totfact> 0.16501032E+03</totfact>
</mgrwt>
</event>
<event>
 4    1  0.8984293E-005  0.4380219E+03  0.7818608E-02  0.1031355E+00
          2   -1    0    0  501    0  0.00000000000E+00  0.00000000000E+00  0.15766170712E+04  0.15766170712E+04  0.25500000000E-02 0.  1.
         -2   -1    0    0    0  501 -0.00000000000E+00 -0.00000000000E+00 -0.30423241982E+02  0.30423242089E+02  0.25500000000E-02 0. -1.
    5000001    1    1    2    0    0  0.73363220221E+02  0.94277130873E+02  0.10682168894E+04  0.10874661661E+04  0.16500000000E+03 0.  0.
   -5000001    1    1    2    0    0 -0.73363220221E+02 -0.94277130873E+02  0.47797693975E+03  0.51957414718E+03  0.16500000000E+03 0.  0.
<mgrwt>
<rscale>  0 0.43802193E+03</rscale>
<asrwt>0</asrwt>
<pdfrwt beam="1">  1        2 0.24255651E+00 0.43802193E+03</pdfrwt>
<pdfrwt beam="2">  1       -2 0.46804980E-02 0.43802193E+03</pdfrwt>
<totfact> 0.26823300E+03</totfact>
</mgrwt>
</event>
<event>
 4    1  0.8984293E-005  0.5667286E+03  0.7818608E-02  0.9976944E-01
         -2   -1    0    0    0  501 -0.00000000000E+00  0.00000000000E+00  0.71055220799E+02  0.71055220845E+02  0.25500000000E-02 0. -1.
          2   -1    0    0  501    0  0.00000000000E+00 -0.00000000000E+00 -0.11300411553E+04  0.11300411553E+04  0.25500000000E-02 0.  1.
    5000001    1    1    2    0    0  0.29390989592E+02 -0.17622445932E+03 -0.83772135676E+03  0.87230783667E+03  0.16500000000E+03 0.  0.
   -5000001    1    1    2    0    0 -0.29390989592E+02  0.17622445932E+03 -0.22126457773E+03  0.32878853947E+03  0.16500000000E+03 0.  0.
<mgrwt>
<rscale>  0 0.56672859E+03</rscale>
<asrwt>0</asrwt>
<pdfrwt beam="1">  1        2 0.17385247E+00 0.56672859E+03</pdfrwt>
<pdfrwt beam="2">  1       -2 0.10931573E-01 0.56672859E+03</pdfrwt>
<totfact> 0.12519427E+03</totfact>
</mgrwt>
</event>
<event>
 4    1  0.8984293E-005  0.4408625E+03  0.7818608E-02  0.1030483E+00
         -2   -1    0    0    0  501 -0.00000000000E+00  0.00000000000E+00  0.38303851759E+02  0.38303851843E+02  0.25500000000E-02 0. -1.
          2   -1    0    0  501    0  0.00000000000E+00 -0.00000000000E+00 -0.12685390871E+04  0.12685390871E+04  0.25500000000E-02 0.  1.
    5000001    1    1    2    0    0 -0.92958188810E+02 -0.11276132361E+03 -0.60642854875E+03  0.64524175757E+03  0.16500000000E+03 0.  0.
   -5000001    1    1    2    0    0  0.92958188810E+02  0.11276132361E+03 -0.62380668661E+03  0.66160118140E+03  0.16500000000E+03 0.  0.
<mgrwt>
<rscale>  0 0.44086249E+03</rscale>
<asrwt>0</asrwt>
<pdfrwt beam="1">  1        2 0.19515983E+00 0.44086249E+03</pdfrwt>
<pdfrwt beam="2">  1       -2 0.58929013E-02 0.44086249E+03</pdfrwt>
<totfact> 0.27825854E+03</totfact>
</mgrwt>
</event>
<event>
 4    1  0.8984293E-005  0.4906011E+03  0.7818608E-02  0.1016262E+00
         -2   -1    0    0    0  501 -0.00000000000E+00  0.00000000000E+00  0.25831455862E+02  0.25831455988E+02  0.25500000000E-02 0.  1.
          2   -1    0    0  501    0  0.00000000000E+00 -0.00000000000E+00 -0.23294221162E+04  0.23294221162E+04  0.25500000000E-02 0. -1.
    5000001    1    1    2    0    0 -0.46933529650E+02 -0.17488495076E+03 -0.12124944599E+04  0.12369944694E+04  0.16500000000E+03 0.  0.
   -5000001    1    1    2    0    0  0.46933529650E+02  0.17488495076E+03 -0.10910962005E+04  0.11182591028E+04  0.16500000000E+03 0.  0.
<mgrwt>
<rscale>  0 0.49060112E+03</rscale>
<asrwt>0</asrwt>
<pdfrwt beam="1">  1        2 0.35837247E+00 0.49060112E+03</pdfrwt>
<pdfrwt beam="2">  1       -2 0.39740720E-02 0.49060112E+03</pdfrwt>
<totfact> 0.13497921E+03</totfact>
</mgrwt>
</event>
<event>
 4    1  0.8984293E-005  0.4943231E+03  0.7818608E-02  0.1015271E+00
         -2   -1    0    0    0  501 -0.00000000000E+00  0.00000000000E+00  0.45060302938E+02  0.45060303010E+02  0.25500000000E-02 0. -1.
          2   -1    0    0  501    0  0.00000000000E+00 -0.00000000000E+00 -0.13557128400E+04  0.13557128400E+04  0.25500000000E-02 0.  1.
    5000001    1    1    2    0    0 -0.67003349224E+02 -0.72644425927E+02 -0.10952120477E+04  0.11119717132E+04  0.16500000000E+03 0.  0.
   -5000001    1    1    2    0    0  0.67003349224E+02  0.72644425927E+02 -0.21544048931E+03  0.28880142981E+03  0.16500000000E+03 0.  0.
<mgrwt>
<rscale>  0 0.49432310E+03</rscale>
<asrwt>0</asrwt>
<pdfrwt beam="1">  1        2 0.20857117E+00 0.49432310E+03</pdfrwt>
<pdfrwt beam="2">  1       -2 0.69323553E-02 0.49432310E+03</pdfrwt>
<totfact> 0.19253577E+03</totfact>
</mgrwt>
</event>
<event>
 4    1  0.8984293E-005  0.3902276E+03  0.7818608E-02  0.1047217E+00
          2   -1    0    0  501    0  0.00000000000E+00  0.00000000000E+00  0.59462391749E+03  0.59462391750E+03  0.25500000000E-02 0.  1.
         -2   -1    0    0    0  501 -0.00000000000E+00 -0.00000000000E+00 -0.64022632541E+02  0.64022632592E+02  0.25500000000E-02 0. -1.
    5000001    1    1    2    0    0 -0.97639069190E+02  0.13884804923E+01  0.32636902077E+03  0.37851955489E+03  0.16500000000E+03 0.  0.
   -5000001    1    1    2    0    0  0.97639069190E+02 -0.13884804923E+01  0.20423226418E+03  0.28012699520E+03  0.16500000000E+03 0.  0.
<mgrwt>
<rscale>  0 0.39022757E+03</rscale>
<asrwt>0</asrwt>
<pdfrwt beam="1">  1        2 0.91480599E-01 0.39022757E+03</pdfrwt>
<pdfrwt beam="2">  1       -2 0.98496361E-02 0.39022757E+03</pdfrwt>
<totfact> 0.34861439E+03</totfact>
</mgrwt>
</event>
<event>
 4    1  0.8984293E-005  0.5981172E+03  0.7818608E-02  0.9909320E-01
         -2   -1    0    0    0  501 -0.00000000000E+00  0.00000000000E+00  0.38062972227E+02  0.38062972312E+02  0.25500000000E-02 0. -1.
          2   -1    0    0  501    0  0.00000000000E+00 -0.00000000000E+00 -0.23496862079E+04  0.23496862079E+04  0.25500000000E-02 0.  1.
    5000001    1    1    2    0    0  0.67644651385E+02  0.22590372916E+03 -0.83142363064E+03  0.87982870338E+03  0.16500000000E+03 0.  0.
   -5000001    1    1    2    0    0 -0.67644651385E+02 -0.22590372916E+03 -0.14801996051E+04  0.15079204769E+04  0.16500000000E+03 0.  0.
<mgrwt>
<rscale>  0 0.59811718E+03</rscale>
<asrwt>0</asrwt>
<pdfrwt beam="1">  1        2 0.36149007E+00 0.59811718E+03</pdfrwt>
<pdfrwt beam="2">  1       -2 0.58558437E-02 0.59811718E+03</pdfrwt>
<totfact> 0.71637698E+02</totfact>
</mgrwt>
</event>
<event>
 4    1  0.8984293E-005  0.4122494E+03  0.7818608E-02  0.1039619E+00
         -2   -1    0    0    0  501 -0.00000000000E+00  0.00000000000E+00  0.40615160228E+03  0.40615160229E+03  0.25500000000E-02 0. -1.
          2   -1    0    0  501    0  0.00000000000E+00 -0.00000000000E+00 -0.10460966906E+03  0.10460966909E+03  0.25500000000E-02 0.  1.
    5000001    1    1    2    0    0  0.74870106181E+02  0.57847725109E+02  0.52349553690E+02  0.19727485362E+03  0.16500000000E+03 0.  0.
   -5000001    1    1    2    0    0 -0.74870106181E+02 -0.57847725109E+02  0.24919237954E+03  0.31348641776E+03  0.16500000000E+03 0.  0.
<mgrwt>
<rscale>  0 0.41224936E+03</rscale>
<asrwt>0</asrwt>
<pdfrwt beam="1">  1        2 0.16093795E-01 0.41224936E+03</pdfrwt>
<pdfrwt beam="2">  1       -2 0.62484862E-01 0.41224936E+03</pdfrwt>
<totfact> 0.87649900E+02</totfact>
</mgrwt>
</event>
<event>
 4    1  0.8984293E-005  0.4170958E+03  0.7818608E-02  0.1038016E+00
         -2   -1    0    0    0  501 -0.00000000000E+00  0.00000000000E+00  0.97708276214E+01  0.97708279541E+01  0.25500000000E-02 0. -1.
          2   -1    0    0  501    0  0.00000000000E+00 -0.00000000000E+00 -0.44512316241E+04  0.44512316241E+04  0.25500000000E-02 0.  1.
    5000001    1    1    2    0    0  0.14896012699E+02 -0.10639459138E+03 -0.14855035255E+04  0.14984950533E+04  0.16500000000E+03 0.  0.
   -5000001    1    1    2    0    0 -0.14896012699E+02  0.10639459138E+03 -0.29559572709E+04  0.29625073988E+04  0.16500000000E+03 0.  0.
<mgrwt>
<rscale>  0 0.41709576E+03</rscale>
<asrwt>0</asrwt>
<pdfrwt beam="1">  1        2 0.68480325E+00 0.41709576E+03</pdfrwt>
<pdfrwt beam="2">  1       -2 0.15032078E-02 0.41709576E+03</pdfrwt>
<totfact> 0.21192632E+02</totfact>
</mgrwt>
</event>
<event>
 4    1  0.8984293E-005  0.5558204E+03  0.7818608E-02  0.1000156E+00
         -2   -1    0    0    0  501 -0.00000000000E+00  0.00000000000E+00  0.10092445780E+04  0.10092445780E+04  0.25500000000E-02 0. -1.
          2   -1    0    0  501    0  0.00000000000E+00 -0.00000000000E+00 -0.76526614508E+02  0.76526614551E+02  0.25500000000E-02 0.  1.
    5000001    1    1    2    0    0 -0.49056472537E+02  0.16456282561E+03  0.74619883752E+03  0.78327847295E+03  0.16500000000E+03 0.  0.
   -5000001    1    1    2    0    0  0.49056472537E+02 -0.16456282561E+03  0.18651912601E+03  0.30249271964E+03  0.16500000000E+03 0.  0.
<mgrwt>
<rscale>  0 0.55582037E+03</rscale>
<asrwt>0</asrwt>
<pdfrwt beam="1">  1        2 0.11773325E-01 0.55582037E+03</pdfrwt>
<pdfrwt beam="2">  1       -2 0.15526840E+00 0.55582037E+03</pdfrwt>
<totfact> 0.15047740E+02</totfact>
</mgrwt>
</event>
<event>
 4    1  0.8984293E-005  0.9894679E+03  0.7818608E-02  0.9320172E-01
          2   -1    0    0  501    0  0.00000000000E+00  0.00000000000E+00  0.24849809312E+04  0.24849809312E+04  0.25500000000E-02 0.  1.
         -2   -1    0    0    0  501 -0.00000000000E+00 -0.00000000000E+00 -0.98496405020E+02  0.98496405053E+02  0.25500000000E-02 0. -1.
    5000001    1    1    2    0    0  0.40926440074E+03  0.20544439528E+03  0.96217544194E+03  0.10782909303E+04  0.16500000000E+03 0.  0.
   -5000001    1    1    2    0    0 -0.40926440074E+03 -0.20544439528E+03  0.14243090842E+04  0.15051864059E+04  0.16500000000E+03 0.  0.
<mgrwt>
<rscale>  0 0.98946791E+03</rscale>
<asrwt>0</asrwt>
<pdfrwt beam="1">  1        2 0.38230470E+00 0.98946791E+03</pdfrwt>
<pdfrwt beam="2">  1       -2 0.15153296E-01 0.98946791E+03</pdfrwt>
<totfact> 0.12399111E+02</totfact>
</mgrwt>
</event>
<event>
 4    1  0.8984293E-005  0.4628737E+03  0.7818608E-02  0.1023951E+00
          2   -1    0    0  501    0  0.00000000000E+00  0.00000000000E+00  0.51180057927E+03  0.51180057928E+03  0.25500000000E-02 0.  1.
         -2   -1    0    0    0  501 -0.00000000000E+00 -0.00000000000E+00 -0.10465604133E+03  0.10465604136E+03  0.25500000000E-02 0. -1.
    5000001    1    1    2    0    0  0.15004293170E+03  0.52551145037E+02  0.24700453504E+03  0.33691355646E+03  0.16500000000E+03 0.  0.
   -5000001    1    1    2    0    0 -0.15004293170E+03 -0.52551145037E+02  0.16014000291E+03  0.27954306418E+03  0.16500000000E+03 0.  0.
<mgrwt>
<rscale>  0 0.46287373E+03</rscale>
<asrwt>0</asrwt>
<pdfrwt beam="1">  1        2 0.78738550E-01 0.46287373E+03</pdfrwt>
<pdfrwt beam="2">  1       -2 0.16100930E-01 0.46287373E+03</pdfrwt>
<totfact> 0.18540827E+03</totfact>
</mgrwt>
</event>
<event>
 4    1  0.8984293E-005  0.6642303E+03  0.7818608E-02  0.9780437E-01
          2   -1    0    0  501    0  0.00000000000E+00  0.00000000000E+00  0.45495435487E+03  0.45495435487E+03  0.25500000000E-02 0.  1.
         -2   -1    0    0    0  501 -0.00000000000E+00 -0.00000000000E+00 -0.24244292469E+03  0.24244292471E+03  0.25500000000E-02 0. -1.
    5000001    1    1    2    0    0 -0.23031934138E+03 -0.85715176294E+01 -0.75461555357E+02  0.29332561474E+03  0.16500000000E+03 0.  0.
   -5000001    1    1    2    0    0  0.23031934138E+03  0.85715176294E+01  0.28797298553E+03  0.40407166484E+03  0.16500000000E+03 0.  0.
<mgrwt>
<rscale>  0 0.66423027E+03</rscale>
<asrwt>0</asrwt>
<pdfrwt beam="1">  1        2 0.69992977E-01 0.66423027E+03</pdfrwt>
<pdfrwt beam="2">  1       -2 0.37298912E-01 0.66423027E+03</pdfrwt>
<totfact> 0.46903921E+02</totfact>
</mgrwt>
</event>
<event>
 4    1  0.8984293E-005  0.4993291E+03  0.7818608E-02  0.1013954E+00
          2   -1    0    0  501    0  0.00000000000E+00  0.00000000000E+00  0.70350210695E+03  0.70350210696E+03  0.25500000000E-02 0.  1.
         -2   -1    0    0    0  501 -0.00000000000E+00 -0.00000000000E+00 -0.88602971071E+02  0.88602971108E+02  0.25500000000E-02 0. -1.
    5000001    1    1    2    0    0  0.14746546159E+03  0.79080299555E+02  0.44118857055E+03  0.49987209456E+03  0.16500000000E+03 0.  0.
   -5000001    1    1    2    0    0 -0.14746546159E+03 -0.79080299555E+02  0.17371056533E+03  0.29223298350E+03  0.16500000000E+03 0.  0.
<mgrwt>
<rscale>  0 0.49932906E+03</rscale>
<asrwt>0</asrwt>
<pdfrwt beam="1">  1        2 0.10823109E+00 0.49932906E+03</pdfrwt>
<pdfrwt beam="2">  1       -2 0.13631226E-01 0.49932906E+03</pdfrwt>
<totfact> 0.16774677E+03</totfact>
</mgrwt>
</event>
<event>
 4    1  0.8984293E-005  0.5878857E+03  0.7818608E-02  0.9930863E-01
          2   -1    0    0  501    0  0.00000000000E+00  0.00000000000E+00  0.78544918420E+03  0.78544918421E+03  0.25500000000E-02 0.  1.
         -2   -1    0    0    0  501 -0.00000000000E+00 -0.00000000000E+00 -0.11000381033E+03  0.11000381036E+03  0.25500000000E-02 0. -1.
    5000001    1    1    2    0    0  0.23593110138E+03 -0.15428843047E+02  0.42490194526E+03  0.51348631616E+03  0.16500000000E+03 0.  0.
   -5000001    1    1    2    0    0 -0.23593110138E+03  0.15428843047E+02  0.25054342860E+03  0.38196667841E+03  0.16500000000E+03 0.  0.
<mgrwt>
<rscale>  0 0.58788571E+03</rscale>
<asrwt>0</asrwt>
<pdfrwt beam="1">  1        2 0.12083834E+00 0.58788571E+03</pdfrwt>
<pdfrwt beam="2">  1       -2 0.16923663E-01 0.58788571E+03</pdfrwt>
<totfact> 0.10117482E+03</totfact>
</mgrwt>
</event>
<event>
 4    1  0.8984293E-005  0.1012969E+04  0.7818608E-02  0.9294434E-01
         -2   -1    0    0    0  501 -0.00000000000E+00  0.00000000000E+00  0.19268866985E+03  0.19268866987E+03  0.25500000000E-02 0. -1.
          2   -1    0    0  501    0  0.00000000000E+00 -0.00000000000E+00 -0.13313010104E+04  0.13313010104E+04  0.25500000000E-02 0.  1.
    5000001    1    1    2    0    0  0.53608087898E+01  0.47599341760E+03 -0.49108563132E+03  0.70355424038E+03  0.16500000000E+03 0.  0.
   -5000001    1    1    2    0    0 -0.53608087898E+01 -0.47599341760E+03 -0.64752670927E+03  0.82043543992E+03  0.16500000000E+03 0.  0.
<mgrwt>
<rscale>  0 0.10129691E+04</rscale>
<asrwt>0</asrwt>
<pdfrwt beam="1">  1        2 0.20481553E+00 0.10129691E+04</pdfrwt>
<pdfrwt beam="2">  1       -2 0.29644412E-01 0.10129691E+04</pdfrwt>
<totfact> 0.16561797E+02</totfact>
</mgrwt>
</event>
<event>
 4    1  0.8984293E-005  0.5265230E+03  0.7818608E-02  0.1007079E+00
          2   -1    0    0  501    0  0.00000000000E+00  0.00000000000E+00  0.38356105593E+04  0.38356105593E+04  0.25500000000E-02 0.  1.
         -2   -1    0    0    0  501 -0.00000000000E+00 -0.00000000000E+00 -0.18069254919E+02  0.18069255099E+02  0.25500000000E-02 0. -1.
    5000001    1    1    2    0    0 -0.36653260931E+02 -0.19859355675E+03  0.21725393217E+04  0.21881350431E+04  0.16500000000E+03 0.  0.
   -5000001    1    1    2    0    0  0.36653260931E+02  0.19859355675E+03  0.16450019827E+04  0.16655447713E+04  0.16500000000E+03 0.  0.
<mgrwt>
<rscale>  0 0.52652303E+03</rscale>
<asrwt>0</asrwt>
<pdfrwt beam="1">  1        2 0.59009454E+00 0.52652303E+03</pdfrwt>
<pdfrwt beam="2">  1       -2 0.27798825E-02 0.52652303E+03</pdfrwt>
<totfact> 0.26517169E+02</totfact>
</mgrwt>
</event>
<event>
 4    1  0.8984293E-005  0.5592067E+03  0.7818608E-02  0.9993851E-01
          2   -1    0    0  501    0  0.00000000000E+00  0.00000000000E+00  0.75870152207E+03  0.75870152207E+03  0.25500000000E-02 0.  1.
         -2   -1    0    0    0  501 -0.00000000000E+00 -0.00000000000E+00 -0.10304188356E+03  0.10304188359E+03  0.25500000000E-02 0. -1.
    5000001    1    1    2    0    0  0.91225847720E+02 -0.18446552235E+03  0.47076508338E+03  0.53962435820E+03  0.16500000000E+03 0.  0.
   -5000001    1    1    2    0    0 -0.91225847720E+02  0.18446552235E+03  0.18489455512E+03  0.32211904747E+03  0.16500000000E+03 0.  0.
<mgrwt>
<rscale>  0 0.55920670E+03</rscale>
<asrwt>0</asrwt>
<pdfrwt beam="1">  1        2 0.11672331E+00 0.55920670E+03</pdfrwt>
<pdfrwt beam="2">  1       -2 0.15852598E-01 0.55920670E+03</pdfrwt>
<totfact> 0.11830593E+03</totfact>
</mgrwt>
</event>
<event>
 4    1  0.8984293E-005  0.4018805E+03  0.7818608E-02  0.1043130E+00
          2   -1    0    0  501    0  0.00000000000E+00  0.00000000000E+00  0.33625636864E+02  0.33625636960E+02  0.25500000000E-02 0.  1.
         -2   -1    0    0    0  501 -0.00000000000E+00 -0.00000000000E+00 -0.12007794712E+04  0.12007794712E+04  0.25500000000E-02 0. -1.
    5000001    1    1    2    0    0  0.33615059043E+02 -0.10947573316E+03 -0.60227726490E+03  0.63488409348E+03  0.16500000000E+03 0.  0.
   -5000001    1    1    2    0    0 -0.33615059043E+02  0.10947573316E+03 -0.56487656948E+03  0.59952101472E+03  0.16500000000E+03 0.  0.
<mgrwt>
<rscale>  0 0.40188045E+03</rscale>
<asrwt>0</asrwt>
<pdfrwt beam="1">  1        2 0.51731758E-02 0.40188045E+03</pdfrwt>
<pdfrwt beam="2">  1       -2 0.18473527E+00 0.40188045E+03</pdfrwt>
<totfact> 0.27199855E+02</totfact>
</mgrwt>
</event>
<event>
 4    1  0.8984293E-005  0.4691138E+03  0.7818608E-02  0.1022171E+00
         -2   -1    0    0    0  501 -0.00000000000E+00  0.00000000000E+00  0.32412342146E+02  0.32412342246E+02  0.25500000000E-02 0. -1.
          2   -1    0    0  501    0  0.00000000000E+00 -0.00000000000E+00 -0.16974071622E+04  0.16974071622E+04  0.25500000000E-02 0.  1.
    5000001    1    1    2    0    0 -0.41359830948E+00 -0.16242908928E+03 -0.69410556293E+03  0.73170411547E+03  0.16500000000E+03 0.  0.
   -5000001    1    1    2    0    0  0.41359830948E+00  0.16242908928E+03 -0.97088925710E+03  0.99811538895E+03  0.16500000000E+03 0.  0.
<mgrwt>
<rscale>  0 0.46911381E+03</rscale>
<asrwt>0</asrwt>
<pdfrwt beam="1">  1        2 0.26113949E+00 0.46911381E+03</pdfrwt>
<pdfrwt beam="2">  1       -2 0.49865155E-02 0.46911381E+03</pdfrwt>
<totfact> 0.20921271E+03</totfact>
</mgrwt>
</event>
<event>
 4    1  0.8984293E-005  0.6315563E+03  0.7818608E-02  0.9842017E-01
          2   -1    0    0  501    0  0.00000000000E+00  0.00000000000E+00  0.61121282343E+03  0.61121282343E+03  0.25500000000E-02 0.  1.
         -2   -1    0    0    0  501 -0.00000000000E+00 -0.00000000000E+00 -0.16314421349E+03  0.16314421351E+03  0.25500000000E-02 0. -1.
    5000001    1    1    2    0    0 -0.13117754852E+03  0.14907264058E+03  0.44697265179E+03  0.51617802438E+03  0.16500000000E+03 0.  0.
   -5000001    1    1    2    0    0  0.13117754852E+03 -0.14907264058E+03  0.10959581515E+01  0.25817901256E+03  0.16500000000E+03 0.  0.
<mgrwt>
<rscale>  0 0.63155629E+03</rscale>
<asrwt>0</asrwt>
<pdfrwt beam="1">  1        2 0.94032741E-01 0.63155629E+03</pdfrwt>
<pdfrwt beam="2">  1       -2 0.25099110E-01 0.63155629E+03</pdfrwt>
<totfact> 0.69389179E+02</totfact>
</mgrwt>
</event>
<event>
 4    1  0.8984293E-005  0.5007186E+03  0.7818608E-02  0.1013592E+00
         -2   -1    0    0    0  501 -0.00000000000E+00  0.00000000000E+00  0.22717143036E+03  0.22717143038E+03  0.25500000000E-02 0. -1.
          2   -1    0    0  501    0  0.00000000000E+00 -0.00000000000E+00 -0.27591395626E+03  0.27591395627E+03  0.25500000000E-02 0.  1.
    5000001    1    1    2    0    0 -0.13532778468E+03  0.10163752801E+03 -0.10728997621E+03  0.25957645387E+03  0.16500000000E+03 0.  0.
   -5000001    1    1    2    0    0  0.13532778468E+03 -0.10163752801E+03  0.58547450311E+02  0.24350893278E+03  0.16500000000E+03 0.  0.
<mgrwt>
<rscale>  0 0.50071856E+03</rscale>
<asrwt>0</asrwt>
<pdfrwt beam="1">  1        2 0.42448301E-01 0.50071856E+03</pdfrwt>
<pdfrwt beam="2">  1       -2 0.34949451E-01 0.50071856E+03</pdfrwt>
<totfact> 0.92806181E+02</totfact>
</mgrwt>
</event>
<event>
 4    1  0.8984293E-005  0.5026287E+03  0.7818608E-02  0.1013095E+00
          2   -1    0    0  501    0  0.00000000000E+00  0.00000000000E+00  0.13198293810E+04  0.13198293810E+04  0.25500000000E-02 0.  1.
         -2   -1    0    0    0  501 -0.00000000000E+00 -0.00000000000E+00 -0.47853831322E+02  0.47853831390E+02  0.25500000000E-02 0. -1.
    5000001    1    1    2    0    0  0.89670423386E+02  0.13098282051E+03  0.35403795188E+03  0.42162205287E+03  0.16500000000E+03 0.  0.
   -5000001    1    1    2    0    0 -0.89670423386E+02 -0.13098282051E+03  0.91793759776E+03  0.94606115948E+03  0.16500000000E+03 0.  0.
<mgrwt>
<rscale>  0 0.50262866E+03</rscale>
<asrwt>0</asrwt>
<pdfrwt beam="1">  1        2 0.20305066E+00 0.50262866E+03</pdfrwt>
<pdfrwt beam="2">  1       -2 0.73621285E-02 0.50262866E+03</pdfrwt>
<totfact> 0.18342830E+03</totfact>
</mgrwt>
</event>
<event>
 4    1  0.8984293E-005  0.7693859E+03  0.7818608E-02  0.9605418E-01
         -2   -1    0    0    0  501 -0.00000000000E+00  0.00000000000E+00  0.10061815789E+03  0.10061815792E+03  0.25500000000E-02 0. -1.
          2   -1    0    0  501    0  0.00000000000E+00 -0.00000000000E+00 -0.14707947328E+04  0.14707947328E+04  0.25500000000E-02 0.  1.
    5000001    1    1    2    0    0  0.12291091985E+03 -0.31766915153E+03 -0.54442951196E+03  0.66306053837E+03  0.16500000000E+03 0.  0.
   -5000001    1    1    2    0    0 -0.12291091985E+03  0.31766915153E+03 -0.82574706298E+03  0.90835235238E+03  0.16500000000E+03 0.  0.
<mgrwt>
<rscale>  0 0.76938588E+03</rscale>
<asrwt>0</asrwt>
<pdfrwt beam="1">  1        2 0.22627610E+00 0.76938588E+03</pdfrwt>
<pdfrwt beam="2">  1       -2 0.15479718E-01 0.76938588E+03</pdfrwt>
<totfact> 0.44274091E+02</totfact>
</mgrwt>
</event>
<event>
 4    1  0.8984293E-005  0.8301393E+03  0.7818608E-02  0.9517388E-01
         -2   -1    0    0    0  501 -0.00000000000E+00  0.00000000000E+00  0.10623661804E+03  0.10623661807E+03  0.25500000000E-02 0. -1.
          2   -1    0    0  501    0  0.00000000000E+00 -0.00000000000E+00 -0.16216895132E+04  0.16216895132E+04  0.25500000000E-02 0.  1.
    5000001    1    1    2    0    0 -0.69615738097E+02 -0.35258351045E+03 -0.10201619539E+04  0.10941283722E+04  0.16500000000E+03 0.  0.
   -5000001    1    1    2    0    0  0.69615738097E+02  0.35258351045E+03 -0.49529094133E+03  0.63379775906E+03  0.16500000000E+03 0.  0.
<mgrwt>
<rscale>  0 0.83013929E+03</rscale>
<asrwt>0</asrwt>
<pdfrwt beam="1">  1        2 0.24949068E+00 0.83013929E+03</pdfrwt>
<pdfrwt beam="2">  1       -2 0.16344096E-01 0.83013929E+03</pdfrwt>
<totfact> 0.33158173E+02</totfact>
</mgrwt>
</event>
<event>
 4    1  0.8984293E-005  0.4460549E+03  0.7818608E-02  0.1028905E+00
         -2   -1    0    0    0  501 -0.00000000000E+00  0.00000000000E+00  0.81108620858E+02  0.81108620898E+02  0.25500000000E-02 0. -1.
          2   -1    0    0  501    0  0.00000000000E+00 -0.00000000000E+00 -0.61326710784E+03  0.61326710785E+03  0.25500000000E-02 0.  1.
    5000001    1    1    2    0    0  0.14317653585E+03  0.34254356315E+02 -0.22087129987E+03  0.31254121720E+03  0.16500000000E+03 0.  0.
   -5000001    1    1    2    0    0 -0.14317653585E+03 -0.34254356315E+02 -0.31128718711E+03  0.38183451154E+03  0.16500000000E+03 0.  0.
<mgrwt>
<rscale>  0 0.44605493E+03</rscale>
<asrwt>0</asrwt>
<pdfrwt beam="1">  1        2 0.94348783E-01 0.44605493E+03</pdfrwt>
<pdfrwt beam="2">  1       -2 0.12478250E-01 0.44605493E+03</pdfrwt>
<totfact> 0.22934832E+03</totfact>
</mgrwt>
</event>
<event>
 4    1  0.8984293E-005  0.5543523E+03  0.7818608E-02  0.1000492E+00
          2   -1    0    0  501    0  0.00000000000E+00  0.00000000000E+00  0.25328723760E+04  0.25328723760E+04  0.25500000000E-02 0.  1.
         -2   -1    0    0    0  501 -0.00000000000E+00 -0.00000000000E+00 -0.30331812501E+02  0.30331812608E+02  0.25500000000E-02 0. -1.
    5000001    1    1    2    0    0 -0.96191098781E+02 -0.12013865733E+03  0.19956214716E+04  0.20083366457E+04  0.16500000000E+03 0.  0.
   -5000001    1    1    2    0    0  0.96191098781E+02  0.12013865733E+03  0.50691909194E+03  0.55486754297E+03  0.16500000000E+03 0.  0.
<mgrwt>
<rscale>  0 0.55435227E+03</rscale>
<asrwt>0</asrwt>
<pdfrwt beam="1">  1        2 0.38967280E+00 0.55435227E+03</pdfrwt>
<pdfrwt beam="2">  1       -2 0.46664311E-02 0.55435227E+03</pdfrwt>
<totfact> 0.80845602E+02</totfact>
</mgrwt>
</event>
<event>
 4    1  0.8984293E-005  0.4090270E+03  0.7818608E-02  0.1040698E+00
          2   -1    0    0  501    0  0.00000000000E+00  0.00000000000E+00  0.68994385540E+03  0.68994385540E+03  0.25500000000E-02 0.  1.
         -2   -1    0    0    0  501 -0.00000000000E+00 -0.00000000000E+00 -0.60622001036E+02  0.60622001090E+02  0.25500000000E-02 0. -1.
    5000001    1    1    2    0    0  0.29559275723E+02  0.11138992127E+03  0.24800933597E+03  0.31939802139E+03  0.16500000000E+03 0.  0.
   -5000001    1    1    2    0    0 -0.29559275723E+02 -0.11138992127E+03  0.38131251839E+03  0.43116783510E+03  0.16500000000E+03 0.  0.
<mgrwt>
<rscale>  0 0.40902703E+03</rscale>
<asrwt>0</asrwt>
<pdfrwt beam="1">  1        2 0.10614521E+00 0.40902703E+03</pdfrwt>
<pdfrwt beam="2">  1       -2 0.93264615E-02 0.40902703E+03</pdfrwt>
<totfact> 0.31840771E+03</totfact>
</mgrwt>
</event>
<event>
 4    1  0.8984293E-005  0.5467216E+03  0.7818608E-02  0.1002256E+00
          2   -1    0    0  501    0  0.00000000000E+00  0.00000000000E+00  0.52252574718E+02  0.52252574781E+02  0.25500000000E-02 0.  1.
         -2   -1    0    0    0  501 -0.00000000000E+00 -0.00000000000E+00 -0.14300946859E+04  0.14300946859E+04  0.25500000000E-02 0. -1.
    5000001    1    1    2    0    0 -0.92723525242E+02 -0.16533526382E+03 -0.98053463750E+03  0.10122285201E+04  0.16500000000E+03 0.  0.
   -5000001    1    1    2    0    0  0.92723525242E+02  0.16533526382E+03 -0.39730747373E+03  0.47011874062E+03  0.16500000000E+03 0.  0.
<mgrwt>
<rscale>  0 0.54672161E+03</rscale>
<asrwt>0</asrwt>
<pdfrwt beam="1">  1        2 0.80388588E-02 0.54672161E+03</pdfrwt>
<pdfrwt beam="2">  1       -2 0.22001454E+00 0.54672161E+03</pdfrwt>
<totfact> 0.89900234E+01</totfact>
</mgrwt>
</event>
<event>
 4    1  0.8984293E-005  0.3981497E+03  0.7818608E-02  0.1044422E+00
         -2   -1    0    0    0  501 -0.00000000000E+00  0.00000000000E+00  0.87045422704E+02  0.87045422741E+02  0.25500000000E-02 0. -1.
          2   -1    0    0  501    0  0.00000000000E+00 -0.00000000000E+00 -0.45528869206E+03  0.45528869206E+03  0.25500000000E-02 0.  1.
    5000001    1    1    2    0    0 -0.83831945816E+02 -0.63710917085E+02 -0.13465300870E+03  0.23757800582E+03  0.16500000000E+03 0.  0.
   -5000001    1    1    2    0    0  0.83831945816E+02  0.63710917085E+02 -0.23359026065E+03  0.30475610899E+03  0.16500000000E+03 0.  0.
<mgrwt>
<rscale>  0 0.39814970E+03</rscale>
<asrwt>0</asrwt>
<pdfrwt beam="1">  1        2 0.70044413E-01 0.39814970E+03</pdfrwt>
<pdfrwt beam="2">  1       -2 0.13391604E-01 0.39814970E+03</pdfrwt>
<totfact> 0.28740911E+03</totfact>
</mgrwt>
</event>
<event>
 4    1  0.8984293E-005  0.7150512E+03  0.7818608E-02  0.9691833E-01
          2   -1    0    0  501    0  0.00000000000E+00  0.00000000000E+00  0.27994082059E+04  0.27994082059E+04  0.25500000000E-02 0.  1.
         -2   -1    0    0    0  501 -0.00000000000E+00 -0.00000000000E+00 -0.45661272057E+02  0.45661272128E+02  0.25500000000E-02 0. -1.
    5000001    1    1    2    0    0  0.12893198172E+03  0.22169852973E+03  0.21193908038E+04  0.21412183618E+04  0.16500000000E+03 0.  0.
   -5000001    1    1    2    0    0 -0.12893198172E+03 -0.22169852973E+03  0.63435613009E+03  0.70385111620E+03  0.16500000000E+03 0.  0.
<mgrwt>
<rscale>  0 0.71505116E+03</rscale>
<asrwt>0</asrwt>
<pdfrwt beam="1">  1        2 0.43067814E+00 0.71505116E+03</pdfrwt>
<pdfrwt beam="2">  1       -2 0.70248119E-02 0.71505116E+03</pdfrwt>
<totfact> 0.29461531E+02</totfact>
</mgrwt>
</event>
<event>
 4    1  0.8984293E-005  0.3811063E+03  0.7818608E-02  0.1050526E+00
          2   -1    0    0  501    0  0.00000000000E+00  0.00000000000E+00  0.91556732616E+03  0.91556732617E+03  0.25500000000E-02 0.  1.
         -2   -1    0    0    0  501 -0.00000000000E+00 -0.00000000000E+00 -0.39659010232E+02  0.39659010314E+02  0.25500000000E-02 0. -1.
    5000001    1    1    2    0    0 -0.65619977159E+02  0.55411443835E+02  0.33433454171E+03  0.38259769378E+03  0.16500000000E+03 0.  0.
   -5000001    1    1    2    0    0  0.65619977159E+02 -0.55411443835E+02  0.54157377422E+03  0.57262864270E+03  0.16500000000E+03 0.  0.
<mgrwt>
<rscale>  0 0.38110625E+03</rscale>
<asrwt>0</asrwt>
<pdfrwt beam="1">  1        2 0.14085650E+00 0.38110625E+03</pdfrwt>
<pdfrwt beam="2">  1       -2 0.61013869E-02 0.38110625E+03</pdfrwt>
<totfact> 0.43009668E+03</totfact>
</mgrwt>
</event>
<event>
 4    1  0.8984293E-005  0.4739798E+03  0.7818608E-02  0.1020803E+00
         -2   -1    0    0    0  501 -0.00000000000E+00  0.00000000000E+00  0.63413390788E+03  0.63413390789E+03  0.25500000000E-02 0. -1.
          2   -1    0    0  501    0  0.00000000000E+00 -0.00000000000E+00 -0.88568365315E+02  0.88568365352E+02  0.25500000000E-02 0.  1.
    5000001    1    1    2    0    0 -0.13802988917E+03 -0.12001983106E+02  0.12228021634E+03  0.24773725842E+03  0.16500000000E+03 0.  0.
   -5000001    1    1    2    0    0  0.13802988917E+03  0.12001983106E+02  0.42328532623E+03  0.47496501482E+03  0.16500000000E+03 0.  0.
<mgrwt>
<rscale>  0 0.47397976E+03</rscale>
<asrwt>0</asrwt>
<pdfrwt beam="1">  1        2 0.13625902E-01 0.47397976E+03</pdfrwt>
<pdfrwt beam="2">  1       -2 0.97559064E-01 0.47397976E+03</pdfrwt>
<totfact> 0.39908681E+02</totfact>
</mgrwt>
</event>
<event>
 4    1  0.8984293E-005  0.5583590E+03  0.7818608E-02  0.9995775E-01
         -2   -1    0    0    0  501 -0.00000000000E+00  0.00000000000E+00  0.10562152886E+03  0.10562152890E+03  0.25500000000E-02 0. -1.
          2   -1    0    0  501    0  0.00000000000E+00 -0.00000000000E+00 -0.73792899171E+03  0.73792899172E+03  0.25500000000E-02 0.  1.
    5000001    1    1    2    0    0 -0.20979685200E+03  0.75253693712E+02 -0.36483586893E+03  0.45826635136E+03  0.16500000000E+03 0.  0.
   -5000001    1    1    2    0    0  0.20979685200E+03 -0.75253693712E+02 -0.26747159392E+03  0.38528416926E+03  0.16500000000E+03 0.  0.
<mgrwt>
<rscale>  0 0.55835898E+03</rscale>
<asrwt>0</asrwt>
<pdfrwt beam="1">  1        2 0.11352753E+00 0.55835898E+03</pdfrwt>
<pdfrwt beam="2">  1       -2 0.16249466E-01 0.55835898E+03</pdfrwt>
<totfact> 0.11755256E+03</totfact>
</mgrwt>
</event>
<event>
 4    1  0.8984293E-005  0.5084704E+03  0.7818608E-02  0.1011591E+00
          2   -1    0    0  501    0  0.00000000000E+00  0.00000000000E+00  0.13810455379E+04  0.13810455379E+04  0.25500000000E-02 0.  1.
         -2   -1    0    0    0  501 -0.00000000000E+00 -0.00000000000E+00 -0.46801889652E+02  0.46801889722E+02  0.25500000000E-02 0. -1.
    5000001    1    1    2    0    0 -0.12324228291E+03  0.14850332282E+03  0.70358892344E+03  0.74800018073E+03  0.16500000000E+03 0.  0.
   -5000001    1    1    2    0    0  0.12324228291E+03 -0.14850332282E+03  0.63065472481E+03  0.67984724689E+03  0.16500000000E+03 0.  0.
<mgrwt>
<rscale>  0 0.50847042E+03</rscale>
<asrwt>0</asrwt>
<pdfrwt beam="1">  1        2 0.21246853E+00 0.50847042E+03</pdfrwt>
<pdfrwt beam="2">  1       -2 0.72002911E-02 0.50847042E+03</pdfrwt>
<totfact> 0.17547228E+03</totfact>
</mgrwt>
</event>
<event>
 4    1  0.8984293E-005  0.4289688E+03  0.7818608E-02  0.1034186E+00
          2   -1    0    0  501    0  0.00000000000E+00  0.00000000000E+00  0.15583634311E+04  0.15583634311E+04  0.25500000000E-02 0. -1.
         -2   -1    0    0    0  501 -0.00000000000E+00 -0.00000000000E+00 -0.29520435602E+02  0.29520435712E+02  0.25500000000E-02 0.  1.
    5000001    1    1    2    0    0  0.11373443796E+02  0.11804372250E+03  0.51024882925E+03  0.54921994082E+03  0.16500000000E+03 0.  0.
   -5000001    1    1    2    0    0 -0.11373443796E+02 -0.11804372250E+03  0.10185941663E+04  0.10386639260E+04  0.16500000000E+03 0.  0.
<mgrwt>
<rscale>  0 0.42896884E+03</rscale>
<asrwt>0</asrwt>
<pdfrwt beam="1">  1        2 0.23974831E+00 0.42896884E+03</pdfrwt>
<pdfrwt beam="2">  1       -2 0.45416038E-02 0.42896884E+03</pdfrwt>
<totfact> 0.28744406E+03</totfact>
</mgrwt>
</event>
<event>
 4    1  0.8984293E-005  0.3401299E+03  0.7818608E-02  0.1066741E+00
         -2   -1    0    0    0  501 -0.00000000000E+00  0.00000000000E+00  0.68938424285E+02  0.68938424332E+02  0.25500000000E-02 0. -1.
          2   -1    0    0  501    0  0.00000000000E+00 -0.00000000000E+00 -0.41953508458E+03  0.41953508459E+03  0.25500000000E-02 0.  1.
    5000001    1    1    2    0    0 -0.24467206640E+02  0.27951606505E+02 -0.20087413795E+03  0.26259351821E+03  0.16500000000E+03 0.  0.
   -5000001    1    1    2    0    0  0.24467206640E+02 -0.27951606505E+02 -0.14972252234E+03  0.22587999071E+03  0.16500000000E+03 0.  0.
<mgrwt>
<rscale>  0 0.34012990E+03</rscale>
<asrwt>0</asrwt>
<pdfrwt beam="1">  1        2 0.64543858E-01 0.34012990E+03</pdfrwt>
<pdfrwt beam="2">  1       -2 0.10605912E-01 0.34012990E+03</pdfrwt>
<totfact> 0.45857008E+03</totfact>
</mgrwt>
</event>
<event>
 4    1  0.8984293E-005  0.5410834E+03  0.7818608E-02  0.1003579E+00
         -2   -1    0    0    0  501 -0.00000000000E+00  0.00000000000E+00  0.24119812635E+03  0.24119812636E+03  0.25500000000E-02 0. -1.
          2   -1    0    0  501    0  0.00000000000E+00 -0.00000000000E+00 -0.30345518834E+03  0.30345518835E+03  0.25500000000E-02 0.  1.
    5000001    1    1    2    0    0  0.19512133622E+03 -0.78240230627E+02 -0.73524737762E+02  0.27717279196E+03  0.16500000000E+03 0.  0.
   -5000001    1    1    2    0    0 -0.19512133622E+03  0.78240230627E+02  0.11267675768E+02  0.26748052276E+03  0.16500000000E+03 0.  0.
<mgrwt>
<rscale>  0 0.54108344E+03</rscale>
<asrwt>0</asrwt>
<pdfrwt beam="1">  1        2 0.46685414E-01 0.54108344E+03</pdfrwt>
<pdfrwt beam="2">  1       -2 0.37107404E-01 0.54108344E+03</pdfrwt>
<totfact> 0.74572254E+02</totfact>
</mgrwt>
</event>
<event>
 4    1  0.8984293E-005  0.5585888E+03  0.7818608E-02  0.9995253E-01
         -2   -1    0    0    0  501 -0.00000000000E+00  0.00000000000E+00  0.11877718397E+03  0.11877718400E+03  0.25500000000E-02 0. -1.
          2   -1    0    0  501    0  0.00000000000E+00 -0.00000000000E+00 -0.65673694785E+03  0.65673694785E+03  0.25500000000E-02 0.  1.
    5000001    1    1    2    0    0  0.56816979493E+02  0.21721466848E+03 -0.29568465616E+03  0.40628167231E+03  0.16500000000E+03 0.  0.
   -5000001    1    1    2    0    0 -0.56816979493E+02 -0.21721466848E+03 -0.24227510772E+03  0.36923245954E+03  0.16500000000E+03 0.  0.
<mgrwt>
<rscale>  0 0.55858881E+03</rscale>
<asrwt>0</asrwt>
<pdfrwt beam="1">  1        2 0.10103645E+00 0.55858881E+03</pdfrwt>
<pdfrwt beam="2">  1       -2 0.18273413E-01 0.55858881E+03</pdfrwt>
<totfact> 0.11125815E+03</totfact>
</mgrwt>
</event>
<event>
 4    1  0.8984293E-005  0.5468872E+03  0.7818608E-02  0.1002217E+00
         -2   -1    0    0    0  501 -0.00000000000E+00  0.00000000000E+00  0.34020860460E+02  0.34020860555E+02  0.25500000000E-02 0. -1.
          2   -1    0    0  501    0  0.00000000000E+00 -0.00000000000E+00 -0.21978102951E+04  0.21978102951E+04  0.25500000000E-02 0.  1.
    5000001    1    1    2    0    0  0.69290840516E+02 -0.20659832093E+03 -0.10496807031E+04  0.10846836706E+04  0.16500000000E+03 0.  0.
   -5000001    1    1    2    0    0 -0.69290840516E+02  0.20659832093E+03 -0.11141087316E+04  0.11471474851E+04  0.16500000000E+03 0.  0.
<mgrwt>
<rscale>  0 0.54688718E+03</rscale>
<asrwt>0</asrwt>
<pdfrwt beam="1">  1        2 0.33812455E+00 0.54688718E+03</pdfrwt>
<pdfrwt beam="2">  1       -2 0.52339803E-02 0.54688718E+03</pdfrwt>
<totfact> 0.10382816E+03</totfact>
</mgrwt>
</event>
<event>
 4    1  0.8984293E-005  0.8083823E+03  0.7818608E-02  0.9547963E-01
          2   -1    0    0  501    0  0.00000000000E+00  0.00000000000E+00  0.28871341820E+04  0.28871341820E+04  0.25500000000E-02 0.  1.
         -2   -1    0    0    0  501 -0.00000000000E+00 -0.00000000000E+00 -0.56585688817E+02  0.56585688875E+02  0.25500000000E-02 0. -1.
    5000001    1    1    2    0    0  0.22303299423E+03  0.59743866274E+02  0.36722932448E+03  0.46410712431E+03  0.16500000000E+03 0.  0.
   -5000001    1    1    2    0    0 -0.22303299423E+03 -0.59743866274E+02  0.24633191687E+04  0.24796127465E+04  0.16500000000E+03 0.  0.
<mgrwt>
<rscale>  0 0.80838228E+03</rscale>
<asrwt>0</asrwt>
<pdfrwt beam="1">  1        2 0.44417460E+00 0.80838228E+03</pdfrwt>
<pdfrwt beam="2">  1       -2 0.87054885E-02 0.80838228E+03</pdfrwt>
<totfact> 0.18359610E+02</totfact>
</mgrwt>
</event>
<event>
 4    1  0.8984293E-005  0.4416251E+03  0.7818608E-02  0.1030249E+00
          2   -1    0    0  501    0  0.00000000000E+00  0.00000000000E+00  0.55454202686E+03  0.55454202686E+03  0.25500000000E-02 0. -1.
         -2   -1    0    0    0  501 -0.00000000000E+00 -0.00000000000E+00 -0.87925124192E+02  0.87925124229E+02  0.25500000000E-02 0.  1.
    5000001    1    1    2    0    0  0.10206146537E+03  0.35965872547E+02  0.89123059192E+02  0.21651329378E+03  0.16500000000E+03 0.  0.
   -5000001    1    1    2    0    0 -0.10206146537E+03 -0.35965872547E+02  0.37749384347E+03  0.42595385732E+03  0.16500000000E+03 0.  0.
<mgrwt>
<rscale>  0 0.44162507E+03</rscale>
<asrwt>0</asrwt>
<pdfrwt beam="1">  1        2 0.85314159E-01 0.44162507E+03</pdfrwt>
<pdfrwt beam="2">  1       -2 0.13526942E-01 0.44162507E+03</pdfrwt>
<totfact> 0.22602561E+03</totfact>
</mgrwt>
</event>
<event>
 4    1  0.8984293E-005  0.4238362E+03  0.7818608E-02  0.1035825E+00
         -2   -1    0    0    0  501 -0.00000000000E+00  0.00000000000E+00  0.20948726111E+03  0.20948726113E+03  0.25500000000E-02 0. -1.
          2   -1    0    0  501    0  0.00000000000E+00 -0.00000000000E+00 -0.21437714194E+03  0.21437714195E+03  0.25500000000E-02 0.  1.
    5000001    1    1    2    0    0 -0.10309771678E+03  0.66483189132E+02  0.48891960799E+02  0.21133995712E+03  0.16500000000E+03 0.  0.
   -5000001    1    1    2    0    0  0.10309771678E+03 -0.66483189132E+02 -0.53781841623E+02  0.21252444596E+03  0.16500000000E+03 0.  0.
<mgrwt>
<rscale>  0 0.42383620E+03</rscale>
<asrwt>0</asrwt>
<pdfrwt beam="1">  1        2 0.32981099E-01 0.42383620E+03</pdfrwt>
<pdfrwt beam="2">  1       -2 0.32228809E-01 0.42383620E+03</pdfrwt>
<totfact> 0.14254146E+03</totfact>
</mgrwt>
</event>
<event>
 4    1  0.8984293E-005  0.5270038E+03  0.7818608E-02  0.1006961E+00
         -2   -1    0    0    0  501 -0.00000000000E+00  0.00000000000E+00  0.20573714965E+02  0.20573715123E+02  0.25500000000E-02 0. -1.
          2   -1    0    0  501    0  0.00000000000E+00 -0.00000000000E+00 -0.33748518275E+04  0.33748518275E+04  0.25500000000E-02 0.  1.
    5000001    1    1    2    0    0 -0.12321720238E+03 -0.11635491758E+03 -0.92889562491E+03  0.95853692041E+03  0.16500000000E+03 0.  0.
   -5000001    1    1    2    0    0  0.12321720238E+03  0.11635491758E+03 -0.24253824877E+04  0.24368886223E+04  0.16500000000E+03 0.  0.
<mgrwt>
<rscale>  0 0.52700376E+03</rscale>
<asrwt>0</asrwt>
<pdfrwt beam="1">  1        2 0.51920753E+00 0.52700376E+03</pdfrwt>
<pdfrwt beam="2">  1       -2 0.31651896E-02 0.52700376E+03</pdfrwt>
<totfact> 0.45568929E+02</totfact>
</mgrwt>
</event>
<event>
 4    1  0.8984293E-005  0.4323256E+03  0.7818608E-02  0.1033128E+00
         -2   -1    0    0    0  501 -0.00000000000E+00  0.00000000000E+00  0.39381817402E+02  0.39381817485E+02  0.25500000000E-02 0. -1.
          2   -1    0    0  501    0  0.00000000000E+00 -0.00000000000E+00 -0.11864955856E+04  0.11864955856E+04  0.25500000000E-02 0.  1.
    5000001    1    1    2    0    0 -0.12836232475E+03  0.36584445117E+02 -0.68998841861E+03  0.72188941387E+03  0.16500000000E+03 0.  0.
   -5000001    1    1    2    0    0  0.12836232475E+03 -0.36584445117E+02 -0.45712534956E+03  0.50398798919E+03  0.16500000000E+03 0.  0.
<mgrwt>
<rscale>  0 0.43232558E+03</rscale>
<asrwt>0</asrwt>
<pdfrwt beam="1">  1        2 0.18253776E+00 0.43232558E+03</pdfrwt>
<pdfrwt beam="2">  1       -2 0.60587421E-02 0.43232558E+03</pdfrwt>
<totfact> 0.29713280E+03</totfact>
</mgrwt>
</event>
<event>
 4    1  0.8984293E-005  0.5724286E+03  0.7818608E-02  0.9964319E-01
         -2   -1    0    0    0  501 -0.00000000000E+00  0.00000000000E+00  0.12412100738E+03  0.12412100741E+03  0.25500000000E-02 0. -1.
          2   -1    0    0  501    0  0.00000000000E+00 -0.00000000000E+00 -0.65998999485E+03  0.65998999486E+03  0.25500000000E-02 0.  1.
    5000001    1    1    2    0    0 -0.88507660724E+02 -0.20705354233E+03 -0.18142177624E+03  0.33293187936E+03  0.16500000000E+03 0.  0.
   -5000001    1    1    2    0    0  0.88507660724E+02  0.20705354233E+03 -0.35444721123E+03  0.45117912290E+03  0.16500000000E+03 0.  0.
<mgrwt>
<rscale>  0 0.57242859E+03</rscale>
<asrwt>0</asrwt>
<pdfrwt beam="1">  1        2 0.10153692E+00 0.57242859E+03</pdfrwt>
<pdfrwt beam="2">  1       -2 0.19095540E-01 0.57242859E+03</pdfrwt>
<totfact> 0.10248173E+03</totfact>
</mgrwt>
</event>
<event>
 4    1  0.8984293E-005  0.1413071E+04  0.7818608E-02  0.8944411E-01
         -2   -1    0    0    0  501 -0.00000000000E+00  0.00000000000E+00  0.83388491930E+03  0.83388491930E+03  0.25500000000E-02 0. -1.
          2   -1    0    0  501    0  0.00000000000E+00 -0.00000000000E+00 -0.59863467375E+03  0.59863467375E+03  0.25500000000E-02 0.  1.
    5000001    1    1    2    0    0 -0.49943245372E+03 -0.33037840342E+02 -0.35942906015E+03  0.63791733321E+03  0.16500000000E+03 0.  0.
   -5000001    1    1    2    0    0  0.49943245372E+03  0.33037840342E+02  0.59467930570E+03  0.79460225985E+03  0.16500000000E+03 0.  0.
<mgrwt>
<rscale>  0 0.14130710E+04</rscale>
<asrwt>0</asrwt>
<pdfrwt beam="1">  1        2 0.92097642E-01 0.14130710E+04</pdfrwt>
<pdfrwt beam="2">  1       -2 0.12828999E+00 0.14130710E+04</pdfrwt>
<totfact> 0.21710492E+01</totfact>
</mgrwt>
</event>
<event>
 4    1  0.8984293E-005  0.4265312E+03  0.7818608E-02  0.1034961E+00
          2   -1    0    0  501    0  0.00000000000E+00  0.00000000000E+00  0.19728035399E+03  0.19728035401E+03  0.25500000000E-02 0.  1.
         -2   -1    0    0    0  501 -0.00000000000E+00 -0.00000000000E+00 -0.23054607739E+03  0.23054607740E+03  0.25500000000E-02 0. -1.
    5000001    1    1    2    0    0 -0.34915673416E+01 -0.21404868702E+02  0.11713949495E+03  0.20351172134E+03  0.16500000000E+03 0.  0.
   -5000001    1    1    2    0    0  0.34915673416E+01  0.21404868702E+02 -0.15040521835E+03  0.22431471007E+03  0.16500000000E+03 0.  0.
<mgrwt>
<rscale>  0 0.42653118E+03</rscale>
<asrwt>0</asrwt>
<pdfrwt beam="1">  1        2 0.30350824E-01 0.42653118E+03</pdfrwt>
<pdfrwt beam="2">  1       -2 0.35468627E-01 0.42653118E+03</pdfrwt>
<totfact> 0.13065735E+03</totfact>
</mgrwt>
</event>
<event>
 4    1  0.8984293E-005  0.7555400E+03  0.7818608E-02  0.9626699E-01
         -2   -1    0    0    0  501 -0.00000000000E+00  0.00000000000E+00  0.62645128359E+02  0.62645128410E+02  0.25500000000E-02 0. -1.
          2   -1    0    0  501    0  0.00000000000E+00 -0.00000000000E+00 -0.22780730700E+04  0.22780730700E+04  0.25500000000E-02 0.  1.
    5000001    1    1    2    0    0 -0.23527280584E+02  0.33580033553E+03 -0.12520250507E+04  0.13069457242E+04  0.16500000000E+03 0.  0.
   -5000001    1    1    2    0    0  0.23527280584E+02 -0.33580033553E+03 -0.96340289091E+03  0.10337724742E+04  0.16500000000E+03 0.  0.
<mgrwt>
<rscale>  0 0.75554002E+03</rscale>
<asrwt>0</asrwt>
<pdfrwt beam="1">  1        2 0.35047272E+00 0.75554002E+03</pdfrwt>
<pdfrwt beam="2">  1       -2 0.96377138E-02 0.75554002E+03</pdfrwt>
<totfact> 0.35046347E+02</totfact>
</mgrwt>
</event>
<event>
 4    1  0.8984293E-005  0.7106093E+03  0.7818608E-02  0.9699259E-01
         -2   -1    0    0    0  501 -0.00000000000E+00  0.00000000000E+00  0.21867881853E+03  0.21867881854E+03  0.25500000000E-02 0. -1.
          2   -1    0    0  501    0  0.00000000000E+00 -0.00000000000E+00 -0.57729133691E+03  0.57729133691E+03  0.25500000000E-02 0.  1.
    5000001    1    1    2    0    0  0.19144385260E+03 -0.21171824263E+03 -0.32765825294E+03  0.46482286269E+03  0.16500000000E+03 0.  0.
   -5000001    1    1    2    0    0 -0.19144385260E+03  0.21171824263E+03 -0.30954265431E+02  0.33114729277E+03  0.16500000000E+03 0.  0.
<mgrwt>
<rscale>  0 0.71060928E+03</rscale>
<asrwt>0</asrwt>
<pdfrwt beam="1">  1        2 0.88814051E-01 0.71060928E+03</pdfrwt>
<pdfrwt beam="2">  1       -2 0.33642895E-01 0.71060928E+03</pdfrwt>
<totfact> 0.43213480E+02</totfact>
</mgrwt>
</event>
<event>
 4    1  0.8984293E-005  0.3903722E+03  0.7818608E-02  0.1047165E+00
         -2   -1    0    0    0  501 -0.00000000000E+00  0.00000000000E+00  0.52816048114E+02  0.52816048175E+02  0.25500000000E-02 0. -1.
          2   -1    0    0  501    0  0.00000000000E+00 -0.00000000000E+00 -0.72132641627E+03  0.72132641628E+03  0.25500000000E-02 0.  1.
    5000001    1    1    2    0    0 -0.20650867330E+02  0.96090272758E+02 -0.40331712006E+03  0.44670963519E+03  0.16500000000E+03 0.  0.
   -5000001    1    1    2    0    0  0.20650867330E+02 -0.96090272758E+02 -0.26519324810E+03  0.32743282926E+03  0.16500000000E+03 0.  0.
<mgrwt>
<rscale>  0 0.39037219E+03</rscale>
<asrwt>0</asrwt>
<pdfrwt beam="1">  1        2 0.11097329E+00 0.39037219E+03</pdfrwt>
<pdfrwt beam="2">  1       -2 0.81255464E-02 0.39037219E+03</pdfrwt>
<totfact> 0.37490817E+03</totfact>
</mgrwt>
</event>
<event>
 4    1  0.8984293E-005  0.7989948E+03  0.7818608E-02  0.9561473E-01
         -2   -1    0    0    0  501 -0.00000000000E+00  0.00000000000E+00  0.33166774849E+03  0.33166774850E+03  0.25500000000E-02 0. -1.
          2   -1    0    0  501    0  0.00000000000E+00 -0.00000000000E+00 -0.48119892742E+03  0.48119892743E+03  0.25500000000E-02 0.  1.
    5000001    1    1    2    0    0  0.28846777207E+03  0.18215380196E+03  0.53839155986E+02  0.38277580620E+03  0.16500000000E+03 0.  0.
   -5000001    1    1    2    0    0 -0.28846777207E+03 -0.18215380196E+03 -0.20337033492E+03  0.43009086972E+03  0.16500000000E+03 0.  0.
<mgrwt>
<rscale>  0 0.79899478E+03</rscale>
<asrwt>0</asrwt>
<pdfrwt beam="1">  1        2 0.74030604E-01 0.79899478E+03</pdfrwt>
<pdfrwt beam="2">  1       -2 0.51025807E-01 0.79899478E+03</pdfrwt>
<totfact> 0.23539776E+02</totfact>
</mgrwt>
</event>
<event>
 4    1  0.8984293E-005  0.6854087E+03  0.7818608E-02  0.9742516E-01
          2   -1    0    0  501    0  0.00000000000E+00  0.00000000000E+00  0.42428463631E+03  0.42428463632E+03  0.25500000000E-02 0.  1.
         -2   -1    0    0    0  501 -0.00000000000E+00 -0.00000000000E+00 -0.27681011700E+03  0.27681011701E+03  0.25500000000E-02 0. -1.
    5000001    1    1    2    0    0  0.13268232016E+03 -0.63331789169E+02  0.34165865635E+03  0.40690435124E+03  0.16500000000E+03 0.  0.
   -5000001    1    1    2    0    0 -0.13268232016E+03  0.63331789169E+02 -0.19418413704E+03  0.29419040209E+03  0.16500000000E+03 0.  0.
<mgrwt>
<rscale>  0 0.68540872E+03</rscale>
<asrwt>0</asrwt>
<pdfrwt beam="1">  1        2 0.65274560E-01 0.68540872E+03</pdfrwt>
<pdfrwt beam="2">  1       -2 0.42586172E-01 0.68540872E+03</pdfrwt>
<totfact> 0.39208165E+02</totfact>
</mgrwt>
</event>
<event>
 4    1  0.8984293E-005  0.5828467E+03  0.7818608E-02  0.9941647E-01
          2   -1    0    0  501    0  0.00000000000E+00  0.00000000000E+00  0.57846364030E+03  0.57846364031E+03  0.25500000000E-02 0.  1.
         -2   -1    0    0    0  501 -0.00000000000E+00 -0.00000000000E+00 -0.14681576532E+03  0.14681576534E+03  0.25500000000E-02 0. -1.
    5000001    1    1    2    0    0  0.15042431371E+03 -0.17965386483E+03  0.28166528522E+03  0.40182498454E+03  0.16500000000E+03 0.  0.
   -5000001    1    1    2    0    0 -0.15042431371E+03  0.17965386483E+03  0.14998258976E+03  0.32345442111E+03  0.16500000000E+03 0.  0.
<mgrwt>
<rscale>  0 0.58284675E+03</rscale>
<asrwt>0</asrwt>
<pdfrwt beam="1">  1        2 0.88994407E-01 0.58284675E+03</pdfrwt>
<pdfrwt beam="2">  1       -2 0.22587041E-01 0.58284675E+03</pdfrwt>
<totfact> 0.89543792E+02</totfact>
</mgrwt>
</event>
<event>
 4    1  0.8984293E-005  0.4550211E+03  0.7818608E-02  0.1026235E+00
         -2   -1    0    0    0  501 -0.00000000000E+00  0.00000000000E+00  0.16502816141E+03  0.16502816143E+03  0.25500000000E-02 0. -1.
          2   -1    0    0  501    0  0.00000000000E+00 -0.00000000000E+00 -0.31364976966E+03  0.31364976967E+03  0.25500000000E-02 0.  1.
    5000001    1    1    2    0    0  0.83758254745E+02  0.13118254398E+03 -0.55736695715E+02  0.23357201102E+03  0.16500000000E+03 0.  0.
   -5000001    1    1    2    0    0 -0.83758254745E+02 -0.13118254398E+03 -0.92884912533E+02  0.24510592008E+03  0.16500000000E+03 0.  0.
<mgrwt>
<rscale>  0 0.45502108E+03</rscale>
<asrwt>0</asrwt>
<pdfrwt beam="1">  1        2 0.48253811E-01 0.45502108E+03</pdfrwt>
<pdfrwt beam="2">  1       -2 0.25388948E-01 0.45502108E+03</pdfrwt>
<totfact> 0.14504538E+03</totfact>
</mgrwt>
</event>
<event>
 4    1  0.8984293E-005  0.7651713E+03  0.7818608E-02  0.9611845E-01
          2   -1    0    0  501    0  0.00000000000E+00  0.00000000000E+00  0.93898780106E+03  0.93898780107E+03  0.25500000000E-02 0.  1.
         -2   -1    0    0    0  501 -0.00000000000E+00 -0.00000000000E+00 -0.15588251465E+03  0.15588251467E+03  0.25500000000E-02 0. -1.
    5000001    1    1    2    0    0 -0.19696130520E+03  0.53545277144E+02 -0.67520522263E+01  0.26254798163E+03  0.16500000000E+03 0.  0.
   -5000001    1    1    2    0    0  0.19696130520E+03 -0.53545277144E+02  0.78985733864E+03  0.83232233411E+03  0.16500000000E+03 0.  0.
<mgrwt>
<rscale>  0 0.76517130E+03</rscale>
<asrwt>0</asrwt>
<pdfrwt beam="1">  1        2 0.14445966E+00 0.76517130E+03</pdfrwt>
<pdfrwt beam="2">  1       -2 0.23981925E-01 0.76517130E+03</pdfrwt>
<totfact> 0.42889591E+02</totfact>
</mgrwt>
</event>
<event>
 4    1  0.8984293E-005  0.5147388E+03  0.7818608E-02  0.1010002E+00
          2   -1    0    0  501    0  0.00000000000E+00  0.00000000000E+00  0.35881807749E+03  0.35881807750E+03  0.25500000000E-02 0.  1.
         -2   -1    0    0    0  501 -0.00000000000E+00 -0.00000000000E+00 -0.18460333959E+03  0.18460333960E+03  0.25500000000E-02 0. -1.
    5000001    1    1    2    0    0  0.13106667088E+03 -0.14659552563E+03  0.10672492969E+03  0.27799987585E+03  0.16500000000E+03 0.  0.
   -5000001    1    1    2    0    0 -0.13106667088E+03  0.14659552563E+03  0.67489808212E+02  0.26542154126E+03  0.16500000000E+03 0.  0.
<mgrwt>
<rscale>  0 0.51473883E+03</rscale>
<asrwt>0</asrwt>
<pdfrwt beam="1">  1        2 0.55202781E-01 0.51473883E+03</pdfrwt>
<pdfrwt beam="2">  1       -2 0.28400514E-01 0.51473883E+03</pdfrwt>
<totfact> 0.10217130E+03</totfact>
</mgrwt>
</event>
<event>
 4    1  0.8984293E-005  0.5464542E+03  0.7818608E-02  0.1002318E+00
         -2   -1    0    0    0  501 -0.00000000000E+00  0.00000000000E+00  0.33436212361E+02  0.33436212458E+02  0.25500000000E-02 0. -1.
          2   -1    0    0  501    0  0.00000000000E+00 -0.00000000000E+00 -0.22327002620E+04  0.22327002620E+04  0.25500000000E-02 0.  1.
    5000001    1    1    2    0    0 -0.20230547799E+02 -0.19299667303E+03 -0.68970842762E+03  0.73524125700E+03  0.16500000000E+03 0.  0.
   -5000001    1    1    2    0    0  0.20230547799E+02  0.19299667303E+03 -0.15095556220E+04  0.15308952175E+04  0.16500000000E+03 0.  0.
<mgrwt>
<rscale>  0 0.54645417E+03</rscale>
<asrwt>0</asrwt>
<pdfrwt beam="1">  1        2 0.34349223E+00 0.54645417E+03</pdfrwt>
<pdfrwt beam="2">  1       -2 0.51440344E-02 0.54645417E+03</pdfrwt>
<totfact> 0.10208295E+03</totfact>
</mgrwt>
</event>
<event>
 4    1  0.8984293E-005  0.4541417E+03  0.7818608E-02  0.1026494E+00
         -2   -1    0    0    0  501 -0.00000000000E+00  0.00000000000E+00  0.41623578070E+02  0.41623578148E+02  0.25500000000E-02 0. -1.
          2   -1    0    0  501    0  0.00000000000E+00 -0.00000000000E+00 -0.12387488870E+04  0.12387488870E+04  0.25500000000E-02 0.  1.
    5000001    1    1    2    0    0 -0.84045393408E+02  0.10993982702E+03 -0.39553672832E+03  0.45036063013E+03  0.16500000000E+03 0.  0.
   -5000001    1    1    2    0    0  0.84045393408E+02 -0.10993982702E+03 -0.80158858062E+03  0.83001183504E+03  0.16500000000E+03 0.  0.
<mgrwt>
<rscale>  0 0.45414166E+03</rscale>
<asrwt>0</asrwt>
<pdfrwt beam="1">  1        2 0.19057672E+00 0.45414166E+03</pdfrwt>
<pdfrwt beam="2">  1       -2 0.64036284E-02 0.45414166E+03</pdfrwt>
<totfact> 0.25421796E+03</totfact>
</mgrwt>
</event>
<event>
 4    1  0.8984293E-005  0.5791208E+03  0.7818608E-02  0.9949696E-01
          2   -1    0    0  501    0  0.00000000000E+00  0.00000000000E+00  0.74159355321E+03  0.74159355321E+03  0.25500000000E-02 0.  1.
         -2   -1    0    0    0  501 -0.00000000000E+00 -0.00000000000E+00 -0.11306088068E+03  0.11306088071E+03  0.25500000000E-02 0. -1.
    5000001    1    1    2    0    0  0.42023618747E+02 -0.20476075755E+03  0.48205969741E+03  0.55072634242E+03  0.16500000000E+03 0.  0.
   -5000001    1    1    2    0    0 -0.42023618747E+02  0.20476075755E+03  0.14647297512E+03  0.30392809150E+03  0.16500000000E+03 0.  0.
<mgrwt>
<rscale>  0 0.57912078E+03</rscale>
<asrwt>0</asrwt>
<pdfrwt beam="1">  1        2 0.11409131E+00 0.57912078E+03</pdfrwt>
<pdfrwt beam="2">  1       -2 0.17393982E-01 0.57912078E+03</pdfrwt>
<totfact> 0.10398961E+03</totfact>
</mgrwt>
</event>
<event>
 4    1  0.8984293E-005  0.4117013E+03  0.7818608E-02  0.1039802E+00
          2   -1    0    0  501    0  0.00000000000E+00  0.00000000000E+00  0.25816370076E+04  0.25816370076E+04  0.25500000000E-02 0.  1.
         -2   -1    0    0    0  501 -0.00000000000E+00 -0.00000000000E+00 -0.16413810204E+02  0.16413810402E+02  0.25500000000E-02 0. -1.
    5000001    1    1    2    0    0 -0.81719276237E+02 -0.88801977871E+02  0.14353300013E+04  0.14498141412E+04  0.16500000000E+03 0.  0.
   -5000001    1    1    2    0    0  0.81719276237E+02  0.88801977871E+02  0.11298931962E+04  0.11482366769E+04  0.16500000000E+03 0.  0.
<mgrwt>
<rscale>  0 0.41170135E+03</rscale>
<asrwt>0</asrwt>
<pdfrwt beam="1">  1        2 0.39717497E+00 0.41170135E+03</pdfrwt>
<pdfrwt beam="2">  1       -2 0.25252013E-02 0.41170135E+03</pdfrwt>
<totfact> 0.19537511E+03</totfact>
</mgrwt>
</event>
<event>
 4    1  0.8984293E-005  0.4382887E+03  0.7818608E-02  0.1031273E+00
         -2   -1    0    0    0  501 -0.00000000000E+00  0.00000000000E+00  0.19573621067E+03  0.19573621069E+03  0.25500000000E-02 0. -1.
          2   -1    0    0  501    0  0.00000000000E+00 -0.00000000000E+00 -0.24535182593E+03  0.24535182594E+03  0.25500000000E-02 0.  1.
    5000001    1    1    2    0    0 -0.90105306925E+02  0.10446399751E+03  0.17502882904E+02  0.21578471684E+03  0.16500000000E+03 0.  0.
   -5000001    1    1    2    0    0  0.90105306925E+02 -0.10446399751E+03 -0.67118498163E+02  0.22530331979E+03  0.16500000000E+03 0.  0.
<mgrwt>
<rscale>  0 0.43828866E+03</rscale>
<asrwt>0</asrwt>
<pdfrwt beam="1">  1        2 0.37746435E-01 0.43828866E+03</pdfrwt>
<pdfrwt beam="2">  1       -2 0.30113263E-01 0.43828866E+03</pdfrwt>
<totfact> 0.13927822E+03</totfact>
</mgrwt>
</event>
<event>
 4    1  0.8984293E-005  0.8111634E+03  0.7818608E-02  0.9543998E-01
          2   -1    0    0  501    0  0.00000000000E+00  0.00000000000E+00  0.12987673756E+04  0.12987673756E+04  0.25500000000E-02 0.  1.
         -2   -1    0    0    0  501 -0.00000000000E+00 -0.00000000000E+00 -0.12665587274E+03  0.12665587276E+03  0.25500000000E-02 0. -1.
    5000001    1    1    2    0    0  0.36634079081E+03 -0.74099348569E+01  0.68248155595E+03  0.79200161386E+03  0.16500000000E+03 0.  0.
   -5000001    1    1    2    0    0 -0.36634079081E+03  0.74099348569E+01  0.48962994691E+03  0.63342163451E+03  0.16500000000E+03 0.  0.
<mgrwt>
<rscale>  0 0.81116340E+03</rscale>
<asrwt>0</asrwt>
<pdfrwt beam="1">  1        2 0.19981035E+00 0.81116340E+03</pdfrwt>
<pdfrwt beam="2">  1       -2 0.19485520E-01 0.81116340E+03</pdfrwt>
<totfact> 0.37228533E+02</totfact>
</mgrwt>
</event>
<event>
 4    1  0.8984293E-005  0.4674671E+03  0.7818608E-02  0.1022638E+00
          2   -1    0    0  501    0  0.00000000000E+00  0.00000000000E+00  0.11943505473E+04  0.11943505473E+04  0.25500000000E-02 0.  1.
         -2   -1    0    0    0  501 -0.00000000000E+00 -0.00000000000E+00 -0.45741483640E+02  0.45741483711E+02  0.25500000000E-02 0. -1.
    5000001    1    1    2    0    0 -0.14019403999E+02  0.16437017716E+03  0.53752082155E+03  0.58597588042E+03  0.16500000000E+03 0.  0.
   -5000001    1    1    2    0    0  0.14019403999E+02 -0.16437017716E+03  0.61108824207E+03  0.65411615056E+03  0.16500000000E+03 0.  0.
<mgrwt>
<rscale>  0 0.46746707E+03</rscale>
<asrwt>0</asrwt>
<pdfrwt beam="1">  1        2 0.18374623E+00 0.46746707E+03</pdfrwt>
<pdfrwt beam="2">  1       -2 0.70371517E-02 0.46746707E+03</pdfrwt>
<totfact> 0.23260456E+03</totfact>
</mgrwt>
</event>
<event>
 4    1  0.8984293E-005  0.4765299E+03  0.7818608E-02  0.1020093E+00
         -2   -1    0    0    0  501 -0.00000000000E+00  0.00000000000E+00  0.28693144593E+02  0.28693144707E+02  0.25500000000E-02 0. -1.
          2   -1    0    0  501    0  0.00000000000E+00 -0.00000000000E+00 -0.19785277456E+04  0.19785277456E+04  0.25500000000E-02 0.  1.
    5000001    1    1    2    0    0  0.12575025779E+03  0.10642644116E+03 -0.11815051744E+04  0.12042919878E+04  0.16500000000E+03 0.  0.
   -5000001    1    1    2    0    0 -0.12575025779E+03 -0.10642644116E+03 -0.76832942656E+03  0.80292890247E+03  0.16500000000E+03 0.  0.
<mgrwt>
<rscale>  0 0.47652988E+03</rscale>
<asrwt>0</asrwt>
<pdfrwt beam="1">  1        2 0.30438878E+00 0.47652988E+03</pdfrwt>
<pdfrwt beam="2">  1       -2 0.44143315E-02 0.47652988E+03</pdfrwt>
<totfact> 0.17823862E+03</totfact>
</mgrwt>
</event>
<event>
 4    1  0.8984293E-005  0.4916293E+03  0.7818608E-02  0.1015987E+00
          2   -1    0    0  501    0  0.00000000000E+00  0.00000000000E+00  0.11508050163E+04  0.11508050163E+04  0.25500000000E-02 0.  1.
         -2   -1    0    0    0  501 -0.00000000000E+00 -0.00000000000E+00 -0.52506586781E+02  0.52506586843E+02  0.25500000000E-02 0. -1.
    5000001    1    1    2    0    0 -0.16062958837E+03 -0.64118923579E+02  0.68947037927E+03  0.72973111823E+03  0.16500000000E+03 0.  0.
   -5000001    1    1    2    0    0  0.16062958837E+03  0.64118923579E+02  0.40882805023E+03  0.47358048490E+03  0.16500000000E+03 0.  0.
<mgrwt>
<rscale>  0 0.49162931E+03</rscale>
<asrwt>0</asrwt>
<pdfrwt beam="1">  1        2 0.17704693E+00 0.49162931E+03</pdfrwt>
<pdfrwt beam="2">  1       -2 0.80779361E-02 0.49162931E+03</pdfrwt>
<totfact> 0.19832867E+03</totfact>
</mgrwt>
</event>
<event>
 4    1  0.8984293E-005  0.4065844E+03  0.7818608E-02  0.1041523E+00
          2   -1    0    0  501    0  0.00000000000E+00  0.00000000000E+00  0.36478923082E+04  0.36478923082E+04  0.25500000000E-02 0.  1.
         -2   -1    0    0    0  501 -0.00000000000E+00 -0.00000000000E+00 -0.11329203452E+02  0.11329203739E+02  0.25500000000E-02 0. -1.
    5000001    1    1    2    0    0 -0.35736619292E+02  0.89675199835E+02  0.11957919412E+04  0.12109756868E+04  0.16500000000E+03 0.  0.
   -5000001    1    1    2    0    0  0.35736619292E+02 -0.89675199835E+02  0.24407711636E+04  0.24482458252E+04  0.16500000000E+03 0.  0.
<mgrwt>
<rscale>  0 0.40658438E+03</rscale>
<asrwt>0</asrwt>
<pdfrwt beam="1">  1        2 0.56121457E+00 0.40658438E+03</pdfrwt>
<pdfrwt beam="2">  1       -2 0.17429533E-02 0.40658438E+03</pdfrwt>
<totfact> 0.74259684E+02</totfact>
</mgrwt>
</event>
<event>
 4    1  0.8984293E-005  0.6309918E+03  0.7818608E-02  0.9843115E-01
          2   -1    0    0  501    0  0.00000000000E+00  0.00000000000E+00  0.79780345335E+03  0.79780345335E+03  0.25500000000E-02 0. -1.
         -2   -1    0    0    0  501 -0.00000000000E+00 -0.00000000000E+00 -0.12476465944E+03  0.12476465947E+03  0.25500000000E-02 0.  1.
    5000001    1    1    2    0    0  0.10455408546E+03 -0.23721479134E+03  0.44103864714E+03  0.53753372200E+03  0.16500000000E+03 0.  0.
   -5000001    1    1    2    0    0 -0.10455408546E+03  0.23721479134E+03  0.23200014677E+03  0.38503439082E+03  0.16500000000E+03 0.  0.
<mgrwt>
<rscale>  0 0.63099184E+03</rscale>
<asrwt>0</asrwt>
<pdfrwt beam="1">  1        2 0.12273899E+00 0.63099184E+03</pdfrwt>
<pdfrwt beam="2">  1       -2 0.19194564E-01 0.63099184E+03</pdfrwt>
<totfact> 0.79740789E+02</totfact>
</mgrwt>
</event>
<event>
 4    1  0.8984293E-005  0.4085759E+03  0.7818608E-02  0.1040850E+00
          2   -1    0    0  501    0  0.00000000000E+00  0.00000000000E+00  0.71186107707E+03  0.71186107708E+03  0.25500000000E-02 0.  1.
         -2   -1    0    0    0  501 -0.00000000000E+00 -0.00000000000E+00 -0.58625997997E+02  0.58625998052E+02  0.25500000000E-02 0. -1.
    5000001    1    1    2    0    0  0.89632350371E+02  0.67762402173E+02  0.40844558410E+03  0.45461906752E+03  0.16500000000E+03 0.  0.
   -5000001    1    1    2    0    0 -0.89632350371E+02 -0.67762402173E+02  0.24478949498E+03  0.31586800761E+03  0.16500000000E+03 0.  0.
<mgrwt>
<rscale>  0 0.40857590E+03</rscale>
<asrwt>0</asrwt>
<pdfrwt beam="1">  1        2 0.10951709E+00 0.40857590E+03</pdfrwt>
<pdfrwt beam="2">  1       -2 0.90193845E-02 0.40857590E+03</pdfrwt>
<totfact> 0.32315354E+03</totfact>
</mgrwt>
</event>
<event>
 4    1  0.8984293E-005  0.3382848E+03  0.7818608E-02  0.1067529E+00
         -2   -1    0    0    0  501 -0.00000000000E+00  0.00000000000E+00  0.36483616556E+02  0.36483616646E+02  0.25500000000E-02 0. -1.
          2   -1    0    0  501    0  0.00000000000E+00 -0.00000000000E+00 -0.78416423299E+03  0.78416423299E+03  0.25500000000E-02 0.  1.
    5000001    1    1    2    0    0 -0.27912040177E+01 -0.34807367699E+02 -0.40498311030E+03  0.43869769010E+03  0.16500000000E+03 0.  0.
   -5000001    1    1    2    0    0  0.27912040177E+01  0.34807367699E+02 -0.34269750613E+03  0.38195015954E+03  0.16500000000E+03 0.  0.
<mgrwt>
<rscale>  0 0.33828477E+03</rscale>
<asrwt>0</asrwt>
<pdfrwt beam="1">  1        2 0.12064064E+00 0.33828477E+03</pdfrwt>
<pdfrwt beam="2">  1       -2 0.56128647E-02 0.33828477E+03</pdfrwt>
<totfact> 0.59908216E+03</totfact>
</mgrwt>
</event>
<event>
 4    1  0.8984293E-005  0.3535695E+03  0.7818608E-02  0.1061159E+00
         -2   -1    0    0    0  501 -0.00000000000E+00  0.00000000000E+00  0.33093742624E+02  0.33093742722E+02  0.25500000000E-02 0. -1.
          2   -1    0    0  501    0  0.00000000000E+00 -0.00000000000E+00 -0.94437328184E+03  0.94437328185E+03  0.25500000000E-02 0.  1.
    5000001    1    1    2    0    0 -0.37806699111E+02 -0.29385408238E+02 -0.34048636623E+03  0.38137752202E+03  0.16500000000E+03 0.  0.
   -5000001    1    1    2    0    0  0.37806699111E+02  0.29385408238E+02 -0.57079317299E+03  0.59608950255E+03  0.16500000000E+03 0.  0.
<mgrwt>
<rscale>  0 0.35356949E+03</rscale>
<asrwt>0</asrwt>
<pdfrwt beam="1">  1        2 0.14528818E+00 0.35356949E+03</pdfrwt>
<pdfrwt beam="2">  1       -2 0.50913457E-02 0.35356949E+03</pdfrwt>
<totfact> 0.54412360E+03</totfact>
</mgrwt>
</event>
<event>
 4    1  0.8984293E-005  0.3905584E+03  0.7818608E-02  0.1047099E+00
          2   -1    0    0  501    0  0.00000000000E+00  0.00000000000E+00  0.56450601032E+03  0.56450601032E+03  0.25500000000E-02 0.  1.
         -2   -1    0    0    0  501 -0.00000000000E+00 -0.00000000000E+00 -0.67552805505E+02  0.67552805554E+02  0.25500000000E-02 0. -1.
    5000001    1    1    2    0    0  0.53756305848E+02  0.81730489231E+02  0.18924973084E+03  0.26946256495E+03  0.16500000000E+03 0.  0.
   -5000001    1    1    2    0    0 -0.53756305848E+02 -0.81730489231E+02  0.30770347397E+03  0.36259625092E+03  0.16500000000E+03 0.  0.
<mgrwt>
<rscale>  0 0.39055839E+03</rscale>
<asrwt>0</asrwt>
<pdfrwt beam="1">  1        2 0.86847077E-01 0.39055839E+03</pdfrwt>
<pdfrwt beam="2">  1       -2 0.10392739E-01 0.39055839E+03</pdfrwt>
<totfact> 0.33985887E+03</totfact>
</mgrwt>
</event>
<event>
 4    1  0.8984293E-005  0.6513697E+03  0.7818608E-02  0.9804213E-01
          2   -1    0    0  501    0  0.00000000000E+00  0.00000000000E+00  0.29746181064E+04  0.29746181064E+04  0.25500000000E-02 0.  1.
         -2   -1    0    0    0  501 -0.00000000000E+00 -0.00000000000E+00 -0.35658562392E+02  0.35658562483E+02  0.25500000000E-02 0. -1.
    5000001    1    1    2    0    0 -0.16045294382E+03 -0.35080005245E+02  0.41694513780E+03  0.47753952913E+03  0.16500000000E+03 0.  0.
   -5000001    1    1    2    0    0  0.16045294382E+03  0.35080005245E+02  0.25220144062E+04  0.25327371397E+04  0.16500000000E+03 0.  0.
<mgrwt>
<rscale>  0 0.65136965E+03</rscale>
<asrwt>0</asrwt>
<pdfrwt beam="1">  1        2 0.45763355E+00 0.65136965E+03</pdfrwt>
<pdfrwt beam="2">  1       -2 0.54859327E-02 0.65136965E+03</pdfrwt>
<totfact> 0.34389520E+02</totfact>
</mgrwt>
</event>
<event>
 4    1  0.8984293E-005  0.4487490E+03  0.7818608E-02  0.1028096E+00
         -2   -1    0    0    0  501 -0.00000000000E+00  0.00000000000E+00  0.13297791242E+03  0.13297791244E+03  0.25500000000E-02 0. -1.
          2   -1    0    0  501    0  0.00000000000E+00 -0.00000000000E+00 -0.37858850656E+03  0.37858850657E+03  0.25500000000E-02 0.  1.
    5000001    1    1    2    0    0 -0.71385794280E+02  0.12269558062E+03 -0.60691654592E+02  0.22596153227E+03  0.16500000000E+03 0.  0.
   -5000001    1    1    2    0    0  0.71385794280E+02 -0.12269558062E+03 -0.18491893955E+03  0.28560488674E+03  0.16500000000E+03 0.  0.
<mgrwt>
<rscale>  0 0.44874897E+03</rscale>
<asrwt>0</asrwt>
<pdfrwt beam="1">  1        2 0.58244385E-01 0.44874897E+03</pdfrwt>
<pdfrwt beam="2">  1       -2 0.20458141E-01 0.44874897E+03</pdfrwt>
<totfact> 0.17255765E+03</totfact>
</mgrwt>
</event>
<event>
 4    1  0.8984293E-005  0.5103243E+03  0.7818608E-02  0.1011119E+00
         -2   -1    0    0    0  501 -0.00000000000E+00  0.00000000000E+00  0.25983987443E+03  0.25983987444E+03  0.25500000000E-02 0. -1.
          2   -1    0    0  501    0  0.00000000000E+00 -0.00000000000E+00 -0.25056866576E+03  0.25056866577E+03  0.25500000000E-02 0.  1.
    5000001    1    1    2    0    0 -0.11326138129E+03  0.12299672660E+03 -0.95012133299E+02  0.25339423972E+03  0.16500000000E+03 0.  0.
   -5000001    1    1    2    0    0  0.11326138129E+03 -0.12299672660E+03  0.10428334197E+03  0.25701430050E+03  0.16500000000E+03 0.  0.
<mgrwt>
<rscale>  0 0.51032433E+03</rscale>
<asrwt>0</asrwt>
<pdfrwt beam="1">  1        2 0.38549026E-01 0.51032433E+03</pdfrwt>
<pdfrwt beam="2">  1       -2 0.39975365E-01 0.51032433E+03</pdfrwt>
<totfact> 0.79808334E+02</totfact>
</mgrwt>
</event>
<event>
 4    1  0.8984293E-005  0.4366184E+03  0.7818608E-02  0.1031789E+00
          2   -1    0    0  501    0  0.00000000000E+00  0.00000000000E+00  0.21084042101E+03  0.21084042102E+03  0.25500000000E-02 0.  1.
         -2   -1    0    0    0  501 -0.00000000000E+00 -0.00000000000E+00 -0.22604251922E+03  0.22604251923E+03  0.25500000000E-02 0. -1.
    5000001    1    1    2    0    0  0.60959216720E+01  0.13720748001E+03  0.32056880716E+02  0.21706150380E+03  0.16500000000E+03 0.  0.
   -5000001    1    1    2    0    0 -0.60959216720E+01 -0.13720748001E+03 -0.47258978927E+02  0.21982143645E+03  0.16500000000E+03 0.  0.
<mgrwt>
<rscale>  0 0.43661837E+03</rscale>
<asrwt>0</asrwt>
<pdfrwt beam="1">  1        2 0.32436988E-01 0.43661837E+03</pdfrwt>
<pdfrwt beam="2">  1       -2 0.34775772E-01 0.43661837E+03</pdfrwt>
<totfact> 0.12597528E+03</totfact>
</mgrwt>
</event>
<event>
 4    1  0.8984293E-005  0.7327039E+03  0.7818608E-02  0.9662883E-01
          2   -1    0    0  501    0  0.00000000000E+00  0.00000000000E+00  0.12861789819E+04  0.12861789819E+04  0.25500000000E-02 0.  1.
         -2   -1    0    0    0  501 -0.00000000000E+00 -0.00000000000E+00 -0.10435074410E+03  0.10435074414E+03  0.25500000000E-02 0. -1.
    5000001    1    1    2    0    0  0.27420939060E+03  0.87911376871E+02  0.29648169021E+03  0.44502313727E+03  0.16500000000E+03 0.  0.
   -5000001    1    1    2    0    0 -0.27420939060E+03 -0.87911376871E+02  0.88534654757E+03  0.94550658875E+03  0.16500000000E+03 0.  0.
<mgrwt>
<rscale>  0 0.73270385E+03</rscale>
<asrwt>0</asrwt>
<pdfrwt beam="1">  1        2 0.19787370E+00 0.73270385E+03</pdfrwt>
<pdfrwt beam="2">  1       -2 0.16053960E-01 0.73270385E+03</pdfrwt>
<totfact> 0.53078290E+02</totfact>
</mgrwt>
</event>
<event>
 4    1  0.8984293E-005  0.8275487E+03  0.7818608E-02  0.9520976E-01
         -2   -1    0    0    0  501 -0.00000000000E+00  0.00000000000E+00  0.16082196083E+03  0.16082196085E+03  0.25500000000E-02 0. -1.
          2   -1    0    0  501    0  0.00000000000E+00 -0.00000000000E+00 -0.10645884039E+04  0.10645884039E+04  0.25500000000E-02 0.  1.
    5000001    1    1    2    0    0  0.33431977576E+03 -0.17921983008E+03 -0.46629582404E+03  0.62333478603E+03  0.16500000000E+03 0.  0.
   -5000001    1    1    2    0    0 -0.33431977576E+03  0.17921983008E+03 -0.43747061899E+03  0.60207557868E+03  0.16500000000E+03 0.  0.
<mgrwt>
<rscale>  0 0.82754866E+03</rscale>
<asrwt>0</asrwt>
<pdfrwt beam="1">  1        2 0.16378283E+00 0.82754866E+03</pdfrwt>
<pdfrwt beam="2">  1       -2 0.24741841E-01 0.82754866E+03</pdfrwt>
<totfact> 0.33612476E+02</totfact>
</mgrwt>
</event>
<event>
 4    1  0.8984293E-005  0.4328577E+03  0.7818608E-02  0.1032961E+00
         -2   -1    0    0    0  501 -0.00000000000E+00  0.00000000000E+00  0.22014273772E+03  0.22014273774E+03  0.25500000000E-02 0. -1.
          2   -1    0    0  501    0  0.00000000000E+00 -0.00000000000E+00 -0.21277760055E+03  0.21277760057E+03  0.25500000000E-02 0.  1.
    5000001    1    1    2    0    0  0.11312262044E+03 -0.71193737149E+02  0.45535585716E+02  0.21717220133E+03  0.16500000000E+03 0.  0.
   -5000001    1    1    2    0    0 -0.11312262044E+03  0.71193737149E+02 -0.38170448550E+02  0.21574813697E+03  0.16500000000E+03 0.  0.
<mgrwt>
<rscale>  0 0.43285768E+03</rscale>
<asrwt>0</asrwt>
<pdfrwt beam="1">  1        2 0.32735015E-01 0.43285768E+03</pdfrwt>
<pdfrwt beam="2">  1       -2 0.33868113E-01 0.43285768E+03</pdfrwt>
<totfact> 0.13104664E+03</totfact>
</mgrwt>
</event>
<event>
 4    1  0.8984293E-005  0.4748104E+03  0.7818608E-02  0.1020571E+00
         -2   -1    0    0    0  501 -0.00000000000E+00  0.00000000000E+00  0.38128685211E+02  0.38128685296E+02  0.25500000000E-02 0. -1.
          2   -1    0    0  501    0  0.00000000000E+00 -0.00000000000E+00 -0.14781843961E+04  0.14781843961E+04  0.25500000000E-02 0.  1.
    5000001    1    1    2    0    0 -0.40512136489E+02 -0.16577661529E+03 -0.73159005248E+03  0.76913725970E+03  0.16500000000E+03 0.  0.
   -5000001    1    1    2    0    0  0.40512136489E+02  0.16577661529E+03 -0.70846565845E+03  0.74717582174E+03  0.16500000000E+03 0.  0.
<mgrwt>
<rscale>  0 0.47481039E+03</rscale>
<asrwt>0</asrwt>
<pdfrwt beam="1">  1        2 0.22741294E+00 0.47481039E+03</pdfrwt>
<pdfrwt beam="2">  1       -2 0.58659527E-02 0.47481039E+03</pdfrwt>
<totfact> 0.21392027E+03</totfact>
</mgrwt>
</event>
<event>
 4    1  0.8984293E-005  0.1208721E+04  0.7818608E-02  0.9105257E-01
         -2   -1    0    0    0  501 -0.00000000000E+00  0.00000000000E+00  0.57289284253E+03  0.57289284253E+03  0.25500000000E-02 0. -1.
          2   -1    0    0  501    0  0.00000000000E+00 -0.00000000000E+00 -0.63755661721E+03  0.63755661722E+03  0.25500000000E-02 0.  1.
    5000001    1    1    2    0    0  0.51185747097E+03  0.22860883090E+03 -0.18671638942E+03  0.61347214952E+03  0.16500000000E+03 0.  0.
   -5000001    1    1    2    0    0 -0.51185747097E+03 -0.22860883090E+03  0.12205261474E+03  0.59697731023E+03  0.16500000000E+03 0.  0.
<mgrwt>
<rscale>  0 0.12087210E+04</rscale>
<asrwt>0</asrwt>
<pdfrwt beam="1">  1        2 0.98085634E-01 0.12087210E+04</pdfrwt>
<pdfrwt beam="2">  1       -2 0.88137360E-01 0.12087210E+04</pdfrwt>
<totfact> 0.50385278E+01</totfact>
</mgrwt>
</event>
<event>
 4    1  0.8984293E-005  0.3847034E+03  0.7818608E-02  0.1049209E+00
         -2   -1    0    0    0  501 -0.00000000000E+00  0.00000000000E+00  0.14690541844E+02  0.14690542065E+02  0.25500000000E-02 0. -1.
          2   -1    0    0  501    0  0.00000000000E+00 -0.00000000000E+00 -0.25185706995E+04  0.25185706995E+04  0.25500000000E-02 0.  1.
    5000001    1    1    2    0    0  0.56596472801E+02  0.67315312396E+02 -0.95454586195E+03  0.97268561960E+03  0.16500000000E+03 0.  0.
   -5000001    1    1    2    0    0 -0.56596472801E+02 -0.67315312396E+02 -0.15493342957E+04  0.15605756220E+04  0.16500000000E+03 0.  0.
<mgrwt>
<rscale>  0 0.38470336E+03</rscale>
<asrwt>0</asrwt>
<pdfrwt beam="1">  1        2 0.38747207E+00 0.38470336E+03</pdfrwt>
<pdfrwt beam="2">  1       -2 0.22600854E-02 0.38470336E+03</pdfrwt>
<totfact> 0.25062467E+03</totfact>
</mgrwt>
</event>
<event>
 4    1  0.8984293E-005  0.3601451E+03  0.7818608E-02  0.1058526E+00
         -2   -1    0    0    0  501 -0.00000000000E+00  0.00000000000E+00  0.16296651289E+02  0.16296651489E+02  0.25500000000E-02 0. -1.
          2   -1    0    0  501    0  0.00000000000E+00 -0.00000000000E+00 -0.19897409454E+04  0.19897409454E+04  0.25500000000E-02 0.  1.
    5000001    1    1    2    0    0 -0.28248776738E+02 -0.61843312874E+02 -0.85274738757E+03  0.87122080768E+03  0.16500000000E+03 0.  0.
   -5000001    1    1    2    0    0  0.28248776738E+02  0.61843312874E+02 -0.11206969065E+04  0.11348167892E+04  0.16500000000E+03 0.  0.
<mgrwt>
<rscale>  0 0.36014505E+03</rscale>
<asrwt>0</asrwt>
<pdfrwt beam="1">  1        2 0.30611380E+00 0.36014505E+03</pdfrwt>
<pdfrwt beam="2">  1       -2 0.25071787E-02 0.36014505E+03</pdfrwt>
<totfact> 0.41558468E+03</totfact>
</mgrwt>
</event>
<event>
 4    1  0.8984293E-005  0.4704961E+03  0.7818608E-02  0.1021780E+00
          2   -1    0    0  501    0  0.00000000000E+00  0.00000000000E+00  0.22618025031E+03  0.22618025032E+03  0.25500000000E-02 0.  1.
         -2   -1    0    0    0  501 -0.00000000000E+00 -0.00000000000E+00 -0.24467939671E+03  0.24467939672E+03  0.25500000000E-02 0. -1.
    5000001    1    1    2    0    0  0.81638635634E+02 -0.91394954778E+02 -0.12378774335E+03  0.23992980221E+03  0.16500000000E+03 0.  0.
   -5000001    1    1    2    0    0 -0.81638635634E+02  0.91394954778E+02  0.10528859695E+03  0.23092984483E+03  0.16500000000E+03 0.  0.
<mgrwt>
<rscale>  0 0.47049611E+03</rscale>
<asrwt>0</asrwt>
<pdfrwt beam="1">  1        2 0.34796962E-01 0.47049611E+03</pdfrwt>
<pdfrwt beam="2">  1       -2 0.37642984E-01 0.47049611E+03</pdfrwt>
<totfact> 0.10032258E+03</totfact>
</mgrwt>
</event>
<event>
 4    1  0.8984293E-005  0.4108429E+03  0.7818608E-02  0.1040089E+00
         -2   -1    0    0    0  501 -0.00000000000E+00  0.00000000000E+00  0.22214613745E+02  0.22214613891E+02  0.25500000000E-02 0. -1.
          2   -1    0    0  501    0  0.00000000000E+00 -0.00000000000E+00 -0.18995594449E+04  0.18995594449E+04  0.25500000000E-02 0.  1.
    5000001    1    1    2    0    0 -0.74942849166E+02  0.70925904232E+02 -0.12463338220E+04  0.12614356545E+04  0.16500000000E+03 0.  0.
   -5000001    1    1    2    0    0  0.74942849166E+02 -0.70925904232E+02 -0.63101100908E+03  0.66033840424E+03  0.16500000000E+03 0.  0.
<mgrwt>
<rscale>  0 0.41084294E+03</rscale>
<asrwt>0</asrwt>
<pdfrwt beam="1">  1        2 0.29223979E+00 0.41084294E+03</pdfrwt>
<pdfrwt beam="2">  1       -2 0.34176344E-02 0.41084294E+03</pdfrwt>
<totfact> 0.29098099E+03</totfact>
</mgrwt>
</event>
<event>
 4    1  0.8984293E-005  0.3529348E+03  0.7818608E-02  0.1061417E+00
         -2   -1    0    0    0  501 -0.00000000000E+00  0.00000000000E+00  0.85741451344E+02  0.85741451382E+02  0.25500000000E-02 0. -1.
          2   -1    0    0  501    0  0.00000000000E+00 -0.00000000000E+00 -0.36319361304E+03  0.36319361305E+03  0.25500000000E-02 0.  1.
    5000001    1    1    2    0    0 -0.79829876362E+01 -0.61264948474E+02 -0.12609374560E+03  0.21666045944E+03  0.16500000000E+03 0.  0.
   -5000001    1    1    2    0    0  0.79829876362E+01  0.61264948474E+02 -0.15135841610E+03  0.23227460500E+03  0.16500000000E+03 0.  0.
<mgrwt>
<rscale>  0 0.35293482E+03</rscale>
<asrwt>0</asrwt>
<pdfrwt beam="1">  1        2 0.55875940E-01 0.35293482E+03</pdfrwt>
<pdfrwt beam="2">  1       -2 0.13190993E-01 0.35293482E+03</pdfrwt>
<totfact> 0.37723496E+03</totfact>
</mgrwt>
</event>
<event>
 4    1  0.8984293E-005  0.4222826E+03  0.7818608E-02  0.1036326E+00
          2   -1    0    0  501    0  0.00000000000E+00  0.00000000000E+00  0.76617218614E+03  0.76617218615E+03  0.25500000000E-02 0.  1.
         -2   -1    0    0    0  501 -0.00000000000E+00 -0.00000000000E+00 -0.58186212965E+02  0.58186213020E+02  0.25500000000E-02 0. -1.
    5000001    1    1    2    0    0  0.83366869390E+02  0.62526262738E+02  0.51133287456E+03  0.54730784486E+03  0.16500000000E+03 0.  0.
   -5000001    1    1    2    0    0 -0.83366869390E+02 -0.62526262738E+02  0.19665309862E+03  0.27705055431E+03  0.16500000000E+03 0.  0.
<mgrwt>
<rscale>  0 0.42228264E+03</rscale>
<asrwt>0</asrwt>
<pdfrwt beam="1">  1        2 0.11787264E+00 0.42228264E+03</pdfrwt>
<pdfrwt beam="2">  1       -2 0.89517257E-02 0.42228264E+03</pdfrwt>
<totfact> 0.29825177E+03</totfact>
</mgrwt>
</event>
<event>
 4    1  0.8984293E-005  0.4574301E+03  0.7818608E-02  0.1025529E+00
         -2   -1    0    0    0  501 -0.00000000000E+00  0.00000000000E+00  0.41119266675E+03  0.41119266676E+03  0.25500000000E-02 0. -1.
          2   -1    0    0  501    0  0.00000000000E+00 -0.00000000000E+00 -0.12721672472E+03  0.12721672475E+03  0.25500000000E-02 0.  1.
    5000001    1    1    2    0    0 -0.82378877921E+02  0.13000276003E+03  0.18600620491E+03  0.29242145169E+03  0.16500000000E+03 0.  0.
   -5000001    1    1    2    0    0  0.82378877921E+02 -0.13000276003E+03  0.97969737111E+02  0.24598793981E+03  0.16500000000E+03 0.  0.
<mgrwt>
<rscale>  0 0.45743014E+03</rscale>
<asrwt>0</asrwt>
<pdfrwt beam="1">  1        2 0.19571804E-01 0.45743014E+03</pdfrwt>
<pdfrwt beam="2">  1       -2 0.63260410E-01 0.45743014E+03</pdfrwt>
<totfact> 0.67827136E+02</totfact>
</mgrwt>
</event>
<event>
 4    1  0.8984293E-005  0.4329853E+03  0.7818608E-02  0.1032921E+00
         -2   -1    0    0    0  501 -0.00000000000E+00  0.00000000000E+00  0.52048039579E+02  0.52048039642E+02  0.25500000000E-02 0. -1.
          2   -1    0    0  501    0  0.00000000000E+00 -0.00000000000E+00 -0.90049650683E+03  0.90049650683E+03  0.25500000000E-02 0.  1.
    5000001    1    1    2    0    0 -0.11427937855E+03  0.79320561349E+02 -0.38659614310E+03  0.44275625989E+03  0.16500000000E+03 0.  0.
   -5000001    1    1    2    0    0  0.11427937855E+03 -0.79320561349E+02 -0.46185232415E+03  0.50978828658E+03  0.16500000000E+03 0.  0.
<mgrwt>
<rscale>  0 0.43298535E+03</rscale>
<asrwt>0</asrwt>
<pdfrwt beam="1">  1        2 0.13853791E+00 0.43298535E+03</pdfrwt>
<pdfrwt beam="2">  1       -2 0.80073914E-02 0.43298535E+03</pdfrwt>
<totfact> 0.28774871E+03</totfact>
</mgrwt>
</event>
<event>
 4    1  0.8984293E-005  0.7548669E+03  0.7818608E-02  0.9627746E-01
          2   -1    0    0  501    0  0.00000000000E+00  0.00000000000E+00  0.11302471158E+04  0.11302471158E+04  0.25500000000E-02 0.  1.
         -2   -1    0    0    0  501 -0.00000000000E+00 -0.00000000000E+00 -0.12603970333E+03  0.12603970336E+03  0.25500000000E-02 0. -1.
    5000001    1    1    2    0    0 -0.65166756299E+02 -0.29568540160E+03  0.24668371463E+03  0.42397454866E+03  0.16500000000E+03 0.  0.
   -5000001    1    1    2    0    0  0.65166756299E+02  0.29568540160E+03  0.75752369786E+03  0.83231227052E+03  0.16500000000E+03 0.  0.
<mgrwt>
<rscale>  0 0.75486691E+03</rscale>
<asrwt>0</asrwt>
<pdfrwt beam="1">  1        2 0.17388416E+00 0.75486691E+03</pdfrwt>
<pdfrwt beam="2">  1       -2 0.19390724E-01 0.75486691E+03</pdfrwt>
<totfact> 0.47348715E+02</totfact>
</mgrwt>
</event>
<event>
 4    1  0.8984293E-005  0.7517790E+03  0.7818608E-02  0.9632564E-01
          2   -1    0    0  501    0  0.00000000000E+00  0.00000000000E+00  0.14877504695E+04  0.14877504695E+04  0.25500000000E-02 0. -1.
         -2   -1    0    0    0  501 -0.00000000000E+00 -0.00000000000E+00 -0.94970831846E+02  0.94970831880E+02  0.25500000000E-02 0.  1.
    5000001    1    1    2    0    0  0.31360173242E+03  0.93509426305E+02  0.87225294786E+03  0.94611852557E+03  0.16500000000E+03 0.  0.
   -5000001    1    1    2    0    0 -0.31360173242E+03 -0.93509426305E+02  0.52052668982E+03  0.63660277583E+03  0.16500000000E+03 0.  0.
<mgrwt>
<rscale>  0 0.75177896E+03</rscale>
<asrwt>0</asrwt>
<pdfrwt beam="1">  1        2 0.22888467E+00 0.75177896E+03</pdfrwt>
<pdfrwt beam="2">  1       -2 0.14610898E-01 0.75177896E+03</pdfrwt>
<totfact> 0.47814077E+02</totfact>
</mgrwt>
</event>
<event>
 4    1  0.8984293E-005  0.6492125E+03  0.7818608E-02  0.9808258E-01
         -2   -1    0    0    0  501 -0.00000000000E+00  0.00000000000E+00  0.76551967053E+02  0.76551967095E+02  0.25500000000E-02 0. -1.
          2   -1    0    0  501    0  0.00000000000E+00 -0.00000000000E+00 -0.13764402225E+04  0.13764402225E+04  0.25500000000E-02 0.  1.
    5000001    1    1    2    0    0 -0.27930739435E+03 -0.24125520658E+01 -0.67504318718E+03  0.74895042927E+03  0.16500000000E+03 0.  0.
   -5000001    1    1    2    0    0  0.27930739435E+03  0.24125520658E+01 -0.62484506825E+03  0.70404176031E+03  0.16500000000E+03 0.  0.
<mgrwt>
<rscale>  0 0.64921247E+03</rscale>
<asrwt>0</asrwt>
<pdfrwt beam="1">  1        2 0.21176002E+00 0.64921247E+03</pdfrwt>
<pdfrwt beam="2">  1       -2 0.11777227E-01 0.64921247E+03</pdfrwt>
<totfact> 0.79490215E+02</totfact>
</mgrwt>
</event>
<event>
 4    1  0.8984293E-005  0.5050204E+03  0.7818608E-02  0.1012477E+00
         -2   -1    0    0    0  501 -0.00000000000E+00  0.00000000000E+00  0.28243430179E+02  0.28243430294E+02  0.25500000000E-02 0. -1.
          2   -1    0    0  501    0  0.00000000000E+00 -0.00000000000E+00 -0.22575660990E+04  0.22575660990E+04  0.25500000000E-02 0.  1.
    5000001    1    1    2    0    0 -0.93098394812E+02  0.16597043405E+03 -0.10333268203E+04  0.10635801868E+04  0.16500000000E+03 0.  0.
   -5000001    1    1    2    0    0  0.93098394812E+02 -0.16597043405E+03 -0.11959958485E+04  0.12222293425E+04  0.16500000000E+03 0.  0.
<mgrwt>
<rscale>  0 0.50502044E+03</rscale>
<asrwt>0</asrwt>
<pdfrwt beam="1">  1        2 0.34731772E+00 0.50502044E+03</pdfrwt>
<pdfrwt beam="2">  1       -2 0.43451449E-02 0.50502044E+03</pdfrwt>
<totfact> 0.12875921E+03</totfact>
</mgrwt>
</event>
<event>
 4    1  0.8984293E-005  0.4362518E+03  0.7818608E-02  0.1031903E+00
          2   -1    0    0  501    0  0.00000000000E+00  0.00000000000E+00  0.11966629660E+04  0.11966629660E+04  0.25500000000E-02 0.  1.
         -2   -1    0    0    0  501 -0.00000000000E+00 -0.00000000000E+00 -0.39759661662E+02  0.39759661744E+02  0.25500000000E-02 0. -1.
    5000001    1    1    2    0    0  0.98926923461E+02 -0.97061935550E+02  0.48249169606E+03  0.52842292937E+03  0.16500000000E+03 0.  0.
   -5000001    1    1    2    0    0 -0.98926923461E+02  0.97061935550E+02  0.67441160825E+03  0.70799969835E+03  0.16500000000E+03 0.  0.
<mgrwt>
<rscale>  0 0.43625183E+03</rscale>
<asrwt>0</asrwt>
<pdfrwt beam="1">  1        2 0.18410196E+00 0.43625183E+03</pdfrwt>
<pdfrwt beam="2">  1       -2 0.61168720E-02 0.43625183E+03</pdfrwt>
<totfact> 0.28879297E+03</totfact>
</mgrwt>
</event>
<event>
 4    1  0.8984293E-005  0.7470147E+03  0.7818608E-02  0.9640045E-01
          2   -1    0    0  501    0  0.00000000000E+00  0.00000000000E+00  0.28261363520E+04  0.28261363520E+04  0.25500000000E-02 0.  1.
         -2   -1    0    0    0  501 -0.00000000000E+00 -0.00000000000E+00 -0.49363417727E+02  0.49363417793E+02  0.25500000000E-02 0. -1.
    5000001    1    1    2    0    0  0.26991054137E+02  0.30509121062E+03  0.86519605838E+03  0.93252259128E+03  0.16500000000E+03 0.  0.
   -5000001    1    1    2    0    0 -0.26991054137E+02 -0.30509121062E+03  0.19115768759E+04  0.19429771785E+04  0.16500000000E+03 0.  0.
<mgrwt>
<rscale>  0 0.74701472E+03</rscale>
<asrwt>0</asrwt>
<pdfrwt beam="1">  1        2 0.43479024E+00 0.74701472E+03</pdfrwt>
<pdfrwt beam="2">  1       -2 0.75943714E-02 0.74701472E+03</pdfrwt>
<totfact> 0.25012497E+02</totfact>
</mgrwt>
</event>
<event>
 4    1  0.8984293E-005  0.6719885E+03  0.7818608E-02  0.9766372E-01
          2   -1    0    0  501    0  0.00000000000E+00  0.00000000000E+00  0.11206081096E+04  0.11206081096E+04  0.25500000000E-02 0.  1.
         -2   -1    0    0    0  501 -0.00000000000E+00 -0.00000000000E+00 -0.10074184598E+03  0.10074184602E+03  0.25500000000E-02 0. -1.
    5000001    1    1    2    0    0 -0.23826534480E+03  0.14933188217E+03  0.65755242084E+03  0.73394180404E+03  0.16500000000E+03 0.  0.
   -5000001    1    1    2    0    0  0.23826534480E+03 -0.14933188217E+03  0.36231384282E+03  0.48740815162E+03  0.16500000000E+03 0.  0.
<mgrwt>
<rscale>  0 0.67198848E+03</rscale>
<asrwt>0</asrwt>
<pdfrwt beam="1">  1        2 0.17240125E+00 0.67198848E+03</pdfrwt>
<pdfrwt beam="2">  1       -2 0.15498745E-01 0.67198848E+03</pdfrwt>
<totfact> 0.70760578E+02</totfact>
</mgrwt>
</event>
<event>
 4    1  0.8984293E-005  0.5230113E+03  0.7818608E-02  0.1007941E+00
          2   -1    0    0  501    0  0.00000000000E+00  0.00000000000E+00  0.16874827764E+03  0.16874827765E+03  0.25500000000E-02 0.  1.
         -2   -1    0    0    0  501 -0.00000000000E+00 -0.00000000000E+00 -0.40524981218E+03  0.40524981218E+03  0.25500000000E-02 0. -1.
    5000001    1    1    2    0    0 -0.36824906700E+02 -0.17492304655E+03 -0.22355269221E+03  0.33038606533E+03  0.16500000000E+03 0.  0.
   -5000001    1    1    2    0    0  0.36824906700E+02  0.17492304655E+03 -0.12948842328E+02  0.24361202451E+03  0.16500000000E+03 0.  0.
<mgrwt>
<rscale>  0 0.52301131E+03</rscale>
<asrwt>0</asrwt>
<pdfrwt beam="1">  1        2 0.25961274E-01 0.52301131E+03</pdfrwt>
<pdfrwt beam="2">  1       -2 0.62346125E-01 0.52301131E+03</pdfrwt>
<totfact> 0.50516618E+02</totfact>
</mgrwt>
</event>
<event>
 4    1  0.8984293E-005  0.7549891E+03  0.7818608E-02  0.9627556E-01
         -2   -1    0    0    0  501 -0.00000000000E+00  0.00000000000E+00  0.13316644301E+03  0.13316644304E+03  0.25500000000E-02 0. -1.
          2   -1    0    0  501    0  0.00000000000E+00 -0.00000000000E+00 -0.10701054625E+04  0.10701054625E+04  0.25500000000E-02 0.  1.
    5000001    1    1    2    0    0  0.28383163354E+03  0.84336076230E+02 -0.20367411788E+03  0.39545052314E+03  0.16500000000E+03 0.  0.
   -5000001    1    1    2    0    0 -0.28383163354E+03 -0.84336076230E+02 -0.73326490164E+03  0.80782138244E+03  0.16500000000E+03 0.  0.
<mgrwt>
<rscale>  0 0.75498911E+03</rscale>
<asrwt>0</asrwt>
<pdfrwt beam="1">  1        2 0.16463160E+00 0.75498911E+03</pdfrwt>
<pdfrwt beam="2">  1       -2 0.20487146E-01 0.75498911E+03</pdfrwt>
<totfact> 0.46808001E+02</totfact>
</mgrwt>
</event>
<event>
 4    1  0.8984293E-005  0.5702963E+03  0.7818608E-02  0.9969023E-01
          2   -1    0    0  501    0  0.00000000000E+00  0.00000000000E+00  0.96033790437E+03  0.96033790437E+03  0.25500000000E-02 0.  1.
         -2   -1    0    0    0  501 -0.00000000000E+00 -0.00000000000E+00 -0.84667553041E+02  0.84667553079E+02  0.25500000000E-02 0. -1.
    5000001    1    1    2    0    0 -0.10840493056E+03 -0.19745573939E+03  0.33187193905E+03  0.43371002054E+03  0.16500000000E+03 0.  0.
   -5000001    1    1    2    0    0  0.10840493056E+03  0.19745573939E+03  0.54379841228E+03  0.61129543691E+03  0.16500000000E+03 0.  0.
<mgrwt>
<rscale>  0 0.57029628E+03</rscale>
<asrwt>0</asrwt>
<pdfrwt beam="1">  1        2 0.14774430E+00 0.57029628E+03</pdfrwt>
<pdfrwt beam="2">  1       -2 0.13025777E-01 0.57029628E+03</pdfrwt>
<totfact> 0.11955957E+03</totfact>
</mgrwt>
</event>
<event>
 4    1  0.8984293E-005  0.5874627E+03  0.7818608E-02  0.9931764E-01
          2   -1    0    0  501    0  0.00000000000E+00  0.00000000000E+00  0.13604580600E+04  0.13604580600E+04  0.25500000000E-02 0.  1.
         -2   -1    0    0    0  501 -0.00000000000E+00 -0.00000000000E+00 -0.63418415097E+02  0.63418415148E+02  0.25500000000E-02 0. -1.
    5000001    1    1    2    0    0 -0.22756898320E+03  0.52590462948E+02  0.48593365589E+03  0.56383500853E+03  0.16500000000E+03 0.  0.
   -5000001    1    1    2    0    0  0.22756898320E+03 -0.52590462948E+02  0.81110598904E+03  0.86004146666E+03  0.16500000000E+03 0.  0.
<mgrwt>
<rscale>  0 0.58746266E+03</rscale>
<asrwt>0</asrwt>
<pdfrwt beam="1">  1        2 0.20930122E+00 0.58746266E+03</pdfrwt>
<pdfrwt beam="2">  1       -2 0.97566802E-02 0.58746266E+03</pdfrwt>
<totfact> 0.11063200E+03</totfact>
</mgrwt>
</event>
<event>
 4    1  0.8984293E-005  0.4458344E+03  0.7818608E-02  0.1028972E+00
         -2   -1    0    0    0  501 -0.00000000000E+00  0.00000000000E+00  0.31573122225E+02  0.31573122328E+02  0.25500000000E-02 0. -1.
          2   -1    0    0  501    0  0.00000000000E+00 -0.00000000000E+00 -0.15738727412E+04  0.15738727412E+04  0.25500000000E-02 0.  1.
    5000001    1    1    2    0    0  0.44728643219E+02  0.13107651250E+03 -0.56474755846E+03  0.60443900308E+03  0.16500000000E+03 0.  0.
   -5000001    1    1    2    0    0 -0.44728643219E+02 -0.13107651250E+03 -0.97755206047E+03  0.10010068604E+04  0.16500000000E+03 0.  0.
<mgrwt>
<rscale>  0 0.44583439E+03</rscale>
<asrwt>0</asrwt>
<pdfrwt beam="1">  1        2 0.24213421E+00 0.44583439E+03</pdfrwt>
<pdfrwt beam="2">  1       -2 0.48574047E-02 0.44583439E+03</pdfrwt>
<totfact> 0.25418584E+03</totfact>
</mgrwt>
</event>
<event>
 4    1  0.8984293E-005  0.3393792E+03  0.7818608E-02  0.1067061E+00
          2   -1    0    0  501    0  0.00000000000E+00  0.00000000000E+00  0.36122113455E+04  0.36122113455E+04  0.25500000000E-02 0.  1.
         -2   -1    0    0    0  501 -0.00000000000E+00 -0.00000000000E+00 -0.79714505036E+01  0.79714509115E+01  0.25500000000E-02 0. -1.
    5000001    1    1    2    0    0 -0.38579648559E+02 -0.34401650762E+01  0.18909457756E+04  0.18985260468E+04  0.16500000000E+03 0.  0.
   -5000001    1    1    2    0    0  0.38579648559E+02  0.34401650762E+01  0.17132941194E+04  0.17216567496E+04  0.16500000000E+03 0.  0.
<mgrwt>
<rscale>  0 0.33937923E+03</rscale>
<asrwt>0</asrwt>
<pdfrwt beam="1">  1        2 0.55572476E+00 0.33937923E+03</pdfrwt>
<pdfrwt beam="2">  1       -2 0.12263772E-02 0.33937923E+03</pdfrwt>
<totfact> 0.13346321E+03</totfact>
</mgrwt>
</event>
<event>
 4    1  0.8984293E-005  0.4602034E+03  0.7818608E-02  0.1024722E+00
          2   -1    0    0  501    0  0.00000000000E+00  0.00000000000E+00  0.68518639373E+03  0.68518639374E+03  0.25500000000E-02 0.  1.
         -2   -1    0    0    0  501 -0.00000000000E+00 -0.00000000000E+00 -0.77273545174E+02  0.77273545216E+02  0.25500000000E-02 0. -1.
    5000001    1    1    2    0    0  0.12114253643E+03  0.96436065509E+02  0.23472021919E+03  0.32602762177E+03  0.16500000000E+03 0.  0.
   -5000001    1    1    2    0    0 -0.12114253643E+03 -0.96436065509E+02  0.37319262937E+03  0.43643231718E+03  0.16500000000E+03 0.  0.
<mgrwt>
<rscale>  0 0.46020335E+03</rscale>
<asrwt>0</asrwt>
<pdfrwt beam="1">  1        2 0.10541329E+00 0.46020335E+03</pdfrwt>
<pdfrwt beam="2">  1       -2 0.11888238E-01 0.46020335E+03</pdfrwt>
<totfact> 0.21712136E+03</totfact>
</mgrwt>
</event>
<event>
 4    1  0.8984293E-005  0.4080865E+03  0.7818608E-02  0.1041015E+00
          2   -1    0    0  501    0  0.00000000000E+00  0.00000000000E+00  0.96223622545E+02  0.96223622579E+02  0.25500000000E-02 0.  1.
         -2   -1    0    0    0  501 -0.00000000000E+00 -0.00000000000E+00 -0.43267587481E+03  0.43267587482E+03  0.25500000000E-02 0. -1.
    5000001    1    1    2    0    0  0.11520219798E+03 -0.31404535120E+02 -0.15230800021E+03  0.25432364848E+03  0.16500000000E+03 0.  0.
   -5000001    1    1    2    0    0 -0.11520219798E+03  0.31404535120E+02 -0.18414425206E+03  0.27457584892E+03  0.16500000000E+03 0.  0.
<mgrwt>
<rscale>  0 0.40808646E+03</rscale>
<asrwt>0</asrwt>
<pdfrwt beam="1">  1        2 0.14803634E-01 0.40808646E+03</pdfrwt>
<pdfrwt beam="2">  1       -2 0.66565518E-01 0.40808646E+03</pdfrwt>
<totfact> 0.84697831E+02</totfact>
</mgrwt>
</event>
<event>
 4    1  0.8984293E-005  0.4068575E+03  0.7818608E-02  0.1041431E+00
          2   -1    0    0  501    0  0.00000000000E+00  0.00000000000E+00  0.20956207028E+03  0.20956207029E+03  0.25500000000E-02 0.  1.
         -2   -1    0    0    0  501 -0.00000000000E+00 -0.00000000000E+00 -0.19747489213E+03  0.19747489214E+03  0.25500000000E-02 0. -1.
    5000001    1    1    2    0    0 -0.96104564836E+01  0.10863673719E+03  0.53645520240E+02  0.20493204577E+03  0.16500000000E+03 0.  0.
   -5000001    1    1    2    0    0  0.96104564836E+01 -0.10863673719E+03 -0.41558342090E+02  0.20210491666E+03  0.16500000000E+03 0.  0.
<mgrwt>
<rscale>  0 0.40685746E+03</rscale>
<asrwt>0</asrwt>
<pdfrwt beam="1">  1        2 0.32240319E-01 0.40685746E+03</pdfrwt>
<pdfrwt beam="2">  1       -2 0.30380752E-01 0.40685746E+03</pdfrwt>
<totfact> 0.16295060E+03</totfact>
</mgrwt>
</event>
<event>
 4    1  0.8984293E-005  0.1328015E+04  0.7818608E-02  0.9007640E-01
          2   -1    0    0  501    0  0.00000000000E+00  0.00000000000E+00  0.42933245317E+03  0.42933245317E+03  0.25500000000E-02 0.  1.
         -2   -1    0    0    0  501 -0.00000000000E+00 -0.00000000000E+00 -0.10269562329E+04  0.10269562329E+04  0.25500000000E-02 0. -1.
    5000001    1    1    2    0    0 -0.53876025654E+03 -0.31762245409E+03 -0.46342476926E+03  0.79569727543E+03  0.16500000000E+03 0.  0.
   -5000001    1    1    2    0    0  0.53876025654E+03  0.31762245409E+03 -0.13419901045E+03  0.66059141061E+03  0.16500000000E+03 0.  0.
<mgrwt>
<rscale>  0 0.13280145E+04</rscale>
<asrwt>0</asrwt>
<pdfrwt beam="1">  1        2 0.66051147E-01 0.13280145E+04</pdfrwt>
<pdfrwt beam="2">  1       -2 0.15799327E+00 0.13280145E+04</pdfrwt>
<totfact> 0.18694654E+01</totfact>
</mgrwt>
</event>
<event>
 4    1  0.8984293E-005  0.3686768E+03  0.7818608E-02  0.1055200E+00
         -2   -1    0    0    0  501 -0.00000000000E+00  0.00000000000E+00  0.21319900252E+03  0.21319900253E+03  0.25500000000E-02 0. -1.
          2   -1    0    0  501    0  0.00000000000E+00 -0.00000000000E+00 -0.15938464171E+03  0.15938464173E+03  0.25500000000E-02 0.  1.
    5000001    1    1    2    0    0 -0.51318517586E+02 -0.22046291947E+02 -0.34031205598E+02  0.17749014674E+03  0.16500000000E+03 0.  0.
   -5000001    1    1    2    0    0  0.51318517586E+02  0.22046291947E+02  0.87845566410E+02  0.19509349752E+03  0.16500000000E+03 0.  0.
<mgrwt>
<rscale>  0 0.36867680E+03</rscale>
<asrwt>0</asrwt>
<pdfrwt beam="1">  1        2 0.24520714E-01 0.36867680E+03</pdfrwt>
<pdfrwt beam="2">  1       -2 0.32799846E-01 0.36867680E+03</pdfrwt>
<totfact> 0.19180993E+03</totfact>
</mgrwt>
</event>
<event>
 4    1  0.8984293E-005  0.4229935E+03  0.7818608E-02  0.1036096E+00
          2   -1    0    0  501    0  0.00000000000E+00  0.00000000000E+00  0.83484334121E+03  0.83484334122E+03  0.25500000000E-02 0.  1.
         -2   -1    0    0    0  501 -0.00000000000E+00 -0.00000000000E+00 -0.53579961149E+02  0.53579961209E+02  0.25500000000E-02 0. -1.
    5000001    1    1    2    0    0 -0.43294592283E+01  0.13223874776E+03  0.39106817688E+03  0.44459548985E+03  0.16500000000E+03 0.  0.
   -5000001    1    1    2    0    0  0.43294592283E+01 -0.13223874776E+03  0.39019520318E+03  0.44382781257E+03  0.16500000000E+03 0.  0.
<mgrwt>
<rscale>  0 0.42299349E+03</rscale>
<asrwt>0</asrwt>
<pdfrwt beam="1">  1        2 0.12843744E+00 0.42299349E+03</pdfrwt>
<pdfrwt beam="2">  1       -2 0.82430709E-02 0.42299349E+03</pdfrwt>
<totfact> 0.30419108E+03</totfact>
</mgrwt>
</event>
<event>
 4    1  0.8984293E-005  0.1233348E+04  0.7818608E-02  0.9084157E-01
         -2   -1    0    0    0  501 -0.00000000000E+00  0.00000000000E+00  0.40241033672E+03  0.40241033673E+03  0.25500000000E-02 0. -1.
          2   -1    0    0  501    0  0.00000000000E+00 -0.00000000000E+00 -0.94502284260E+03  0.94502284260E+03  0.25500000000E-02 0.  1.
    5000001    1    1    2    0    0 -0.36690568288E+02  0.12014790557E+03  0.36317234296E+03  0.41821151073E+03  0.16500000000E+03 0.  0.
   -5000001    1    1    2    0    0  0.36690568288E+02 -0.12014790557E+03 -0.90578484884E+03  0.92922166860E+03  0.16500000000E+03 0.  0.
<mgrwt>
<rscale>  0 0.12333482E+04</rscale>
<asrwt>0</asrwt>
<pdfrwt beam="1">  1        2 0.14538813E+00 0.12333482E+04</pdfrwt>
<pdfrwt beam="2">  1       -2 0.61909283E-01 0.12333482E+04</pdfrwt>
<totfact> 0.65282226E+01</totfact>
</mgrwt>
</event>
<event>
 4    1  0.8984293E-005  0.6073786E+03  0.7818608E-02  0.9890215E-01
         -2   -1    0    0    0  501 -0.00000000000E+00  0.00000000000E+00  0.20879796424E+03  0.20879796425E+03  0.25500000000E-02 0. -1.
          2   -1    0    0  501    0  0.00000000000E+00 -0.00000000000E+00 -0.44170546415E+03  0.44170546416E+03  0.25500000000E-02 0.  1.
    5000001    1    1    2    0    0 -0.15815682318E+03 -0.18620505157E+03 -0.19454363958E+03  0.35321116863E+03  0.16500000000E+03 0.  0.
   -5000001    1    1    2    0    0  0.15815682318E+03  0.18620505157E+03 -0.38363860343E+02  0.29729225978E+03  0.16500000000E+03 0.  0.
<mgrwt>
<rscale>  0 0.60737864E+03</rscale>
<asrwt>0</asrwt>
<pdfrwt beam="1">  1        2 0.67954687E-01 0.60737864E+03</pdfrwt>
<pdfrwt beam="2">  1       -2 0.32122764E-01 0.60737864E+03</pdfrwt>
<totfact> 0.64457766E+02</totfact>
</mgrwt>
</event>
<event>
 4    1  0.8984293E-005  0.4107290E+03  0.7818608E-02  0.1040127E+00
         -2   -1    0    0    0  501 -0.00000000000E+00  0.00000000000E+00  0.34690665892E+03  0.34690665893E+03  0.25500000000E-02 0. -1.
          2   -1    0    0  501    0  0.00000000000E+00 -0.00000000000E+00 -0.12157328851E+03  0.12157328854E+03  0.25500000000E-02 0.  1.
    5000001    1    1    2    0    0 -0.11585765537E+03  0.30797097192E+02  0.14009169555E+03  0.24743108266E+03  0.16500000000E+03 0.  0.
   -5000001    1    1    2    0    0  0.11585765537E+03 -0.30797097192E+02  0.85241674863E+02  0.22104886482E+03  0.16500000000E+03 0.  0.
<mgrwt>
<rscale>  0 0.41072903E+03</rscale>
<asrwt>0</asrwt>
<pdfrwt beam="1">  1        2 0.18703583E-01 0.41072903E+03</pdfrwt>
<pdfrwt beam="2">  1       -2 0.53370254E-01 0.41072903E+03</pdfrwt>
<totfact> 0.10177647E+03</totfact>
</mgrwt>
</event>
<event>
 4    1  0.8984293E-005  0.4739821E+03  0.7818608E-02  0.1020802E+00
          2   -1    0    0  501    0  0.00000000000E+00  0.00000000000E+00  0.51196767288E+03  0.51196767288E+03  0.25500000000E-02 0.  1.
         -2   -1    0    0    0  501 -0.00000000000E+00 -0.00000000000E+00 -0.10970373752E+03  0.10970373755E+03  0.25500000000E-02 0. -1.
    5000001    1    1    2    0    0  0.10414098943E+03  0.13236079241E+03  0.16967993172E+03  0.29048408610E+03  0.16500000000E+03 0.  0.
   -5000001    1    1    2    0    0 -0.10414098943E+03 -0.13236079241E+03  0.23258400365E+03  0.33118732433E+03  0.16500000000E+03 0.  0.
<mgrwt>
<rscale>  0 0.47398214E+03</rscale>
<asrwt>0</asrwt>
<pdfrwt beam="1">  1        2 0.78764256E-01 0.47398214E+03</pdfrwt>
<pdfrwt beam="2">  1       -2 0.16877498E-01 0.47398214E+03</pdfrwt>
<totfact> 0.17115805E+03</totfact>
</mgrwt>
</event>
<event>
 4    1  0.8984293E-005  0.5864700E+03  0.7818608E-02  0.9933881E-01
         -2   -1    0    0    0  501 -0.00000000000E+00  0.00000000000E+00  0.31957197437E+02  0.31957197539E+02  0.25500000000E-02 0. -1.
          2   -1    0    0  501    0  0.00000000000E+00 -0.00000000000E+00 -0.26906856660E+04  0.26906856660E+04  0.25500000000E-02 0.  1.
    5000001    1    1    2    0    0 -0.39067529118E+02  0.22435029734E+03 -0.94366715693E+03  0.98467864342E+03  0.16500000000E+03 0.  0.
   -5000001    1    1    2    0    0  0.39067529118E+02 -0.22435029734E+03 -0.17150613116E+04  0.17379642201E+04  0.16500000000E+03 0.  0.
<mgrwt>
<rscale>  0 0.58647003E+03</rscale>
<asrwt>0</asrwt>
<pdfrwt beam="1">  1        2 0.41395146E+00 0.58647003E+03</pdfrwt>
<pdfrwt beam="2">  1       -2 0.49164941E-02 0.58647003E+03</pdfrwt>
<totfact> 0.60430764E+02</totfact>
</mgrwt>
</event>
<event>
 4    1  0.8984293E-005  0.3943472E+03  0.7818608E-02  0.1045755E+00
         -2   -1    0    0    0  501 -0.00000000000E+00  0.00000000000E+00  0.45849807520E+02  0.45849807591E+02  0.25500000000E-02 0. -1.
          2   -1    0    0  501    0  0.00000000000E+00 -0.00000000000E+00 -0.84792991266E+03  0.84792991266E+03  0.25500000000E-02 0.  1.
    5000001    1    1    2    0    0  0.80173122634E+02 -0.45411215744E+02 -0.27358176613E+03  0.33250848240E+03  0.16500000000E+03 0.  0.
   -5000001    1    1    2    0    0 -0.80173122634E+02  0.45411215744E+02 -0.52849833901E+03  0.56127123785E+03  0.16500000000E+03 0.  0.
<mgrwt>
<rscale>  0 0.39434717E+03</rscale>
<asrwt>0</asrwt>
<pdfrwt beam="1">  1        2 0.13045074E+00 0.39434717E+03</pdfrwt>
<pdfrwt beam="2">  1       -2 0.70538172E-02 0.39434717E+03</pdfrwt>
<totfact> 0.38061712E+03</totfact>
</mgrwt>
</event>
<event>
 4    1  0.8984293E-005  0.1122377E+04  0.7818608E-02  0.9183652E-01
          2   -1    0    0  501    0  0.00000000000E+00  0.00000000000E+00  0.14827096300E+04  0.14827096300E+04  0.25500000000E-02 0.  1.
         -2   -1    0    0    0  501 -0.00000000000E+00 -0.00000000000E+00 -0.21240355019E+03  0.21240355021E+03  0.25500000000E-02 0. -1.
    5000001    1    1    2    0    0  0.39060723310E+03 -0.36522216300E+03  0.69827061872E+03  0.89485646663E+03  0.16500000000E+03 0.  0.
   -5000001    1    1    2    0    0 -0.39060723310E+03  0.36522216300E+03  0.57203546109E+03  0.80025671359E+03  0.16500000000E+03 0.  0.
<mgrwt>
<rscale>  0 0.11223775E+04</rscale>
<asrwt>0</asrwt>
<pdfrwt beam="1">  1        2 0.22810918E+00 0.11223775E+04</pdfrwt>
<pdfrwt beam="2">  1       -2 0.32677468E-01 0.11223775E+04</pdfrwt>
<totfact> 0.11231415E+02</totfact>
</mgrwt>
</event>
<event>
 4    1  0.8984293E-005  0.4606316E+03  0.7818608E-02  0.1024598E+00
         -2   -1    0    0    0  501 -0.00000000000E+00  0.00000000000E+00  0.54180598275E+03  0.54180598275E+03  0.25500000000E-02 0. -1.
          2   -1    0    0  501    0  0.00000000000E+00 -0.00000000000E+00 -0.97904733015E+02  0.97904733048E+02  0.25500000000E-02 0.  1.
    5000001    1    1    2    0    0  0.15692445940E+03 -0.17659505497E+02  0.18067764629E+03  0.29121565198E+03  0.16500000000E+03 0.  0.
   -5000001    1    1    2    0    0 -0.15692445940E+03  0.17659505497E+02  0.26322360345E+03  0.34849506382E+03  0.16500000000E+03 0.  0.
<mgrwt>
<rscale>  0 0.46063161E+03</rscale>
<asrwt>0</asrwt>
<pdfrwt beam="1">  1        2 0.15062266E-01 0.46063161E+03</pdfrwt>
<pdfrwt beam="2">  1       -2 0.83354767E-01 0.46063161E+03</pdfrwt>
<totfact> 0.50676535E+02</totfact>
</mgrwt>
</event>
<event>
 4    1  0.8984293E-005  0.5154851E+03  0.7818608E-02  0.1009814E+00
          2   -1    0    0  501    0  0.00000000000E+00  0.00000000000E+00  0.45774599652E+03  0.45774599652E+03  0.25500000000E-02 0.  1.
         -2   -1    0    0    0  501 -0.00000000000E+00 -0.00000000000E+00 -0.14512682273E+03  0.14512682275E+03  0.25500000000E-02 0. -1.
    5000001    1    1    2    0    0  0.14153850902E+03  0.11895133214E+03  0.73416290489E+02  0.25845216320E+03  0.16500000000E+03 0.  0.
   -5000001    1    1    2    0    0 -0.14153850902E+03 -0.11895133214E+03  0.23920288330E+03  0.34442065608E+03  0.16500000000E+03 0.  0.
<mgrwt>
<rscale>  0 0.51548510E+03</rscale>
<asrwt>0</asrwt>
<pdfrwt beam="1">  1        2 0.70422460E-01 0.51548510E+03</pdfrwt>
<pdfrwt beam="2">  1       -2 0.22327204E-01 0.51548510E+03</pdfrwt>
<totfact> 0.11987195E+03</totfact>
</mgrwt>
</event>
<event>
 4    1  0.8984293E-005  0.7418956E+03  0.7818608E-02  0.9648151E-01
          2   -1    0    0  501    0  0.00000000000E+00  0.00000000000E+00  0.13008231729E+04  0.13008231729E+04  0.25500000000E-02 0.  1.
         -2   -1    0    0    0  501 -0.00000000000E+00 -0.00000000000E+00 -0.10578092044E+03  0.10578092047E+03  0.25500000000E-02 0. -1.
    5000001    1    1    2    0    0  0.48538172127E+02 -0.29816218336E+03  0.33535282113E+03  0.48056545483E+03  0.16500000000E+03 0.  0.
   -5000001    1    1    2    0    0 -0.48538172127E+02  0.29816218336E+03  0.85968943137E+03  0.92603863858E+03  0.16500000000E+03 0.  0.
<mgrwt>
<rscale>  0 0.74189561E+03</rscale>
<asrwt>0</asrwt>
<pdfrwt beam="1">  1        2 0.20012663E+00 0.74189561E+03</pdfrwt>
<pdfrwt beam="2">  1       -2 0.16273989E-01 0.74189561E+03</pdfrwt>
<totfact> 0.50838461E+02</totfact>
</mgrwt>
</event>
<event>
 4    1  0.8984293E-005  0.5224418E+03  0.7818608E-02  0.1008082E+00
         -2   -1    0    0    0  501 -0.00000000000E+00  0.00000000000E+00  0.99723796164E+02  0.99723796197E+02  0.25500000000E-02 0. -1.
          2   -1    0    0  501    0  0.00000000000E+00 -0.00000000000E+00 -0.68425346096E+03  0.68425346096E+03  0.25500000000E-02 0.  1.
    5000001    1    1    2    0    0  0.14754595983E+03  0.89132759848E+02 -0.45175910194E+03  0.51090678732E+03  0.16500000000E+03 0.  0.
   -5000001    1    1    2    0    0 -0.14754595983E+03 -0.89132759848E+02 -0.13277056285E+03  0.27307046984E+03  0.16500000000E+03 0.  0.
<mgrwt>
<rscale>  0 0.52244178E+03</rscale>
<asrwt>0</asrwt>
<pdfrwt beam="1">  1        2 0.10526976E+00 0.52244178E+03</pdfrwt>
<pdfrwt beam="2">  1       -2 0.15342123E-01 0.52244178E+03</pdfrwt>
<totfact> 0.14246483E+03</totfact>
</mgrwt>
</event>
<event>
 4    1  0.8984293E-005  0.1047074E+04  0.7818608E-02  0.9258370E-01
          2   -1    0    0  501    0  0.00000000000E+00  0.00000000000E+00  0.63955501393E+03  0.63955501393E+03  0.25500000000E-02 0. -1.
         -2   -1    0    0    0  501 -0.00000000000E+00 -0.00000000000E+00 -0.42856528383E+03  0.42856528384E+03  0.25500000000E-02 0.  1.
    5000001    1    1    2    0    0  0.39140703290E+03 -0.29631912583E+03  0.27394995604E+02  0.51863279449E+03  0.16500000000E+03 0.  0.
   -5000001    1    1    2    0    0 -0.39140703290E+03  0.29631912583E+03  0.18359473449E+03  0.54948750328E+03  0.16500000000E+03 0.  0.
<mgrwt>
<rscale>  0 0.10470742E+04</rscale>
<asrwt>0</asrwt>
<pdfrwt beam="1">  1        2 0.98393080E-01 0.10470742E+04</pdfrwt>
<pdfrwt beam="2">  1       -2 0.65933120E-01 0.10470742E+04</pdfrwt>
<totfact> 0.96777781E+01</totfact>
</mgrwt>
</event>
<event>
 4    1  0.8984293E-005  0.4583798E+03  0.7818608E-02  0.1025252E+00
          2   -1    0    0  501    0  0.00000000000E+00  0.00000000000E+00  0.37459877816E+03  0.37459877817E+03  0.25500000000E-02 0.  1.
         -2   -1    0    0    0  501 -0.00000000000E+00 -0.00000000000E+00 -0.14022474579E+03  0.14022474581E+03  0.25500000000E-02 0. -1.
    5000001    1    1    2    0    0 -0.24840167182E+01  0.15698737075E+03  0.88512601251E+02  0.24435769989E+03  0.16500000000E+03 0.  0.
   -5000001    1    1    2    0    0  0.24840167182E+01 -0.15698737075E+03  0.14586143112E+03  0.27046582409E+03  0.16500000000E+03 0.  0.
<mgrwt>
<rscale>  0 0.45837984E+03</rscale>
<asrwt>0</asrwt>
<pdfrwt beam="1">  1        2 0.57630580E-01 0.45837984E+03</pdfrwt>
<pdfrwt beam="2">  1       -2 0.21573038E-01 0.45837984E+03</pdfrwt>
<totfact> 0.15918405E+03</totfact>
</mgrwt>
</event>
<event>
 4    1  0.8984293E-005  0.5254255E+03  0.7818608E-02  0.1007348E+00
         -2   -1    0    0    0  501 -0.00000000000E+00  0.00000000000E+00  0.36594331607E+02  0.36594331696E+02  0.25500000000E-02 0. -1.
          2   -1    0    0  501    0  0.00000000000E+00 -0.00000000000E+00 -0.18860296129E+04  0.18860296129E+04  0.25500000000E-02 0.  1.
    5000001    1    1    2    0    0 -0.12865680354E+03 -0.75108184104E+02 -0.14369914429E+04  0.14540850110E+04  0.16500000000E+03 0.  0.
   -5000001    1    1    2    0    0  0.12865680354E+03  0.75108184104E+02 -0.41244383841E+03  0.46853893356E+03  0.16500000000E+03 0.  0.
<mgrwt>
<rscale>  0 0.52542552E+03</rscale>
<asrwt>0</asrwt>
<pdfrwt beam="1">  1        2 0.29015833E+00 0.52542552E+03</pdfrwt>
<pdfrwt beam="2">  1       -2 0.56298986E-02 0.52542552E+03</pdfrwt>
<totfact> 0.13688084E+03</totfact>
</mgrwt>
</event>
<event>
 4    1  0.8984293E-005  0.5956939E+03  0.7818608E-02  0.9914380E-01
         -2   -1    0    0    0  501 -0.00000000000E+00  0.00000000000E+00  0.86831359713E+02  0.86831359751E+02  0.25500000000E-02 0. -1.
          2   -1    0    0  501    0  0.00000000000E+00 -0.00000000000E+00 -0.10216677064E+04  0.10216677064E+04  0.25500000000E-02 0.  1.
    5000001    1    1    2    0    0 -0.56488215626E+02 -0.15667725155E+03 -0.12556201654E+03  0.26595018266E+03  0.16500000000E+03 0.  0.
   -5000001    1    1    2    0    0  0.56488215626E+02  0.15667725155E+03 -0.80927433017E+03  0.84254888353E+03  0.16500000000E+03 0.  0.
<mgrwt>
<rscale>  0 0.59569387E+03</rscale>
<asrwt>0</asrwt>
<pdfrwt beam="1">  1        2 0.15717964E+00 0.59569387E+03</pdfrwt>
<pdfrwt beam="2">  1       -2 0.13358671E-01 0.59569387E+03</pdfrwt>
<totfact> 0.10474739E+03</totfact>
</mgrwt>
</event>
<event>
 4    1  0.8984293E-005  0.6163978E+03  0.7818608E-02  0.9871958E-01
          2   -1    0    0  501    0  0.00000000000E+00  0.00000000000E+00  0.10069931392E+04  0.10069931392E+04  0.25500000000E-02 0.  1.
         -2   -1    0    0    0  501 -0.00000000000E+00 -0.00000000000E+00 -0.94326911661E+02  0.94326911696E+02  0.25500000000E-02 0. -1.
    5000001    1    1    2    0    0  0.13940976962E+03 -0.21826787821E+03  0.40955005138E+03  0.51189080389E+03  0.16500000000E+03 0.  0.
   -5000001    1    1    2    0    0 -0.13940976962E+03  0.21826787821E+03  0.50311617620E+03  0.58942924705E+03  0.16500000000E+03 0.  0.
<mgrwt>
<rscale>  0 0.61639777E+03</rscale>
<asrwt>0</asrwt>
<pdfrwt beam="1">  1        2 0.15492202E+00 0.61639777E+03</pdfrwt>
<pdfrwt beam="2">  1       -2 0.14511833E-01 0.61639777E+03</pdfrwt>
<totfact> 0.93109073E+02</totfact>
</mgrwt>
</event>
<event>
 4    1  0.8984293E-005  0.5217458E+03  0.7818608E-02  0.1008254E+00
          2   -1    0    0  501    0  0.00000000000E+00  0.00000000000E+00  0.39923394726E+02  0.39923394807E+02  0.25500000000E-02 0.  1.
         -2   -1    0    0    0  501 -0.00000000000E+00 -0.00000000000E+00 -0.17046312656E+04  0.17046312656E+04  0.25500000000E-02 0. -1.
    5000001    1    1    2    0    0  0.18346124765E+03  0.83480137858E+02 -0.78474845594E+03  0.82685071319E+03  0.16500000000E+03 0.  0.
   -5000001    1    1    2    0    0 -0.18346124765E+03 -0.83480137858E+02 -0.87995941490E+03  0.91770394719E+03  0.16500000000E+03 0.  0.
<mgrwt>
<rscale>  0 0.52174579E+03</rscale>
<asrwt>0</asrwt>
<pdfrwt beam="1">  1        2 0.61420621E-02 0.52174579E+03</pdfrwt>
<pdfrwt beam="2">  1       -2 0.26225091E+00 0.52174579E+03</pdfrwt>
<totfact> 0.71149716E+01</totfact>
</mgrwt>
</event>
<event>
 4    1  0.8984293E-005  0.3780655E+03  0.7818608E-02  0.1051651E+00
          2   -1    0    0  501    0  0.00000000000E+00  0.00000000000E+00  0.24151714162E+04  0.24151714162E+04  0.25500000000E-02 0.  1.
         -2   -1    0    0    0  501 -0.00000000000E+00 -0.00000000000E+00 -0.14795382853E+02  0.14795383073E+02  0.25500000000E-02 0. -1.
    5000001    1    1    2    0    0  0.89115931301E+02 -0.18645821223E+02  0.11050564001E+04  0.11210102422E+04  0.16500000000E+03 0.  0.
   -5000001    1    1    2    0    0 -0.89115931301E+02  0.18645821223E+02  0.12953196333E+04  0.13089565570E+04  0.16500000000E+03 0.  0.
<mgrwt>
<rscale>  0 0.37806553E+03</rscale>
<asrwt>0</asrwt>
<pdfrwt beam="1">  1        2 0.37156451E+00 0.37806553E+03</pdfrwt>
<pdfrwt beam="2">  1       -2 0.22762148E-02 0.37806553E+03</pdfrwt>
<totfact> 0.28296308E+03</totfact>
</mgrwt>
</event>
<event>
 4    1  0.8984293E-005  0.5353534E+03  0.7818608E-02  0.1004942E+00
         -2   -1    0    0    0  501 -0.00000000000E+00  0.00000000000E+00  0.53414178759E+03  0.53414178759E+03  0.25500000000E-02 0. -1.
          2   -1    0    0  501    0  0.00000000000E+00 -0.00000000000E+00 -0.13414192644E+03  0.13414192647E+03  0.25500000000E-02 0.  1.
    5000001    1    1    2    0    0  0.51712895836E+02 -0.19711175747E+03  0.13279363259E+03  0.29391566373E+03  0.16500000000E+03 0.  0.
   -5000001    1    1    2    0    0 -0.51712895836E+02  0.19711175747E+03  0.26720622856E+03  0.37436805033E+03  0.16500000000E+03 0.  0.
<mgrwt>
<rscale>  0 0.53535337E+03</rscale>
<asrwt>0</asrwt>
<pdfrwt beam="1">  1        2 0.20637219E-01 0.53535337E+03</pdfrwt>
<pdfrwt beam="2">  1       -2 0.82175661E-01 0.53535337E+03</pdfrwt>
<totfact> 0.36009467E+02</totfact>
</mgrwt>
</event>
<event>
 4    1  0.8984293E-005  0.4971698E+03  0.7818608E-02  0.1014520E+00
         -2   -1    0    0    0  501 -0.00000000000E+00  0.00000000000E+00  0.43756702796E+02  0.43756702870E+02  0.25500000000E-02 0. -1.
          2   -1    0    0  501    0  0.00000000000E+00 -0.00000000000E+00 -0.14122283630E+04  0.14122283630E+04  0.25500000000E-02 0.  1.
    5000001    1    1    2    0    0 -0.97271127246E+02  0.15680207618E+03 -0.75107432240E+03  0.79081363232E+03  0.16500000000E+03 0.  0.
   -5000001    1    1    2    0    0  0.97271127246E+02 -0.15680207618E+03 -0.61739733780E+03  0.66517143356E+03  0.16500000000E+03 0.  0.
<mgrwt>
<rscale>  0 0.49716982E+03</rscale>
<asrwt>0</asrwt>
<pdfrwt beam="1">  1        2 0.21726587E+00 0.49716982E+03</pdfrwt>
<pdfrwt beam="2">  1       -2 0.67318015E-02 0.49716982E+03</pdfrwt>
<totfact> 0.18748131E+03</totfact>
</mgrwt>
</event>
<event>
 4    1  0.8984293E-005  0.9122389E+03  0.7818608E-02  0.9410410E-01
          2   -1    0    0  501    0  0.00000000000E+00  0.00000000000E+00  0.81242365517E+03  0.81242365518E+03  0.25500000000E-02 0.  1.
         -2   -1    0    0    0  501 -0.00000000000E+00 -0.00000000000E+00 -0.25607936950E+03  0.25607936951E+03  0.25500000000E-02 0. -1.
    5000001    1    1    2    0    0 -0.41948291252E+03  0.19515899051E+01  0.19659891080E+03  0.49177825728E+03  0.16500000000E+03 0.  0.
   -5000001    1    1    2    0    0  0.41948291252E+03 -0.19515899051E+01  0.35974537487E+03  0.57672476741E+03  0.16500000000E+03 0.  0.
<mgrwt>
<rscale>  0 0.91223887E+03</rscale>
<asrwt>0</asrwt>
<pdfrwt beam="1">  1        2 0.12498825E+00 0.91223887E+03</pdfrwt>
<pdfrwt beam="2">  1       -2 0.39396826E-01 0.91223887E+03</pdfrwt>
<totfact> 0.20593612E+02</totfact>
</mgrwt>
</event>
<event>
 4    1  0.8984293E-005  0.3740046E+03  0.7818608E-02  0.1053172E+00
         -2   -1    0    0    0  501 -0.00000000000E+00  0.00000000000E+00  0.10301441120E+03  0.10301441123E+03  0.25500000000E-02 0. -1.
          2   -1    0    0  501    0  0.00000000000E+00 -0.00000000000E+00 -0.33946568835E+03  0.33946568836E+03  0.25500000000E-02 0.  1.
    5000001    1    1    2    0    0  0.15369843792E+02  0.36867647884E+02 -0.21100113175E+03  0.27081715817E+03  0.16500000000E+03 0.  0.
   -5000001    1    1    2    0    0 -0.15369843792E+02 -0.36867647884E+02 -0.25450145401E+02  0.17166294143E+03  0.16500000000E+03 0.  0.
<mgrwt>
<rscale>  0 0.37400459E+03</rscale>
<asrwt>0</asrwt>
<pdfrwt beam="1">  1        2 0.52225490E-01 0.37400459E+03</pdfrwt>
<pdfrwt beam="2">  1       -2 0.15848371E-01 0.37400459E+03</pdfrwt>
<totfact> 0.29989416E+03</totfact>
</mgrwt>
</event>
<event>
 4    1  0.8984293E-005  0.5425998E+03  0.7818608E-02  0.1003221E+00
         -2   -1    0    0    0  501 -0.00000000000E+00  0.00000000000E+00  0.60476648914E+02  0.60476648968E+02  0.25500000000E-02 0. -1.
          2   -1    0    0  501    0  0.00000000000E+00 -0.00000000000E+00 -0.12170585664E+04  0.12170585664E+04  0.25500000000E-02 0.  1.
    5000001    1    1    2    0    0  0.10669368856E+03  0.17445097793E+03 -0.41926503826E+03  0.49479779626E+03  0.16500000000E+03 0.  0.
   -5000001    1    1    2    0    0 -0.10669368856E+03 -0.17445097793E+03 -0.73731687919E+03  0.78273741908E+03  0.16500000000E+03 0.  0.
<mgrwt>
<rscale>  0 0.54259976E+03</rscale>
<asrwt>0</asrwt>
<pdfrwt beam="1">  1        2 0.18723976E+00 0.54259976E+03</pdfrwt>
<pdfrwt beam="2">  1       -2 0.93041008E-02 0.54259976E+03</pdfrwt>
<totfact> 0.14451956E+03</totfact>
</mgrwt>
</event>
<event>
 4    1  0.8984293E-005  0.9620340E+03  0.7818608E-02  0.9351194E-01
          2   -1    0    0  501    0  0.00000000000E+00  0.00000000000E+00  0.25573271937E+03  0.25573271938E+03  0.25500000000E-02 0.  1.
         -2   -1    0    0    0  501 -0.00000000000E+00 -0.00000000000E+00 -0.90476250214E+03  0.90476250215E+03  0.25500000000E-02 0. -1.
    5000001    1    1    2    0    0  0.12534304416E+03 -0.38532314659E+03 -0.83354054134E+02  0.44537366824E+03  0.16500000000E+03 0.  0.
   -5000001    1    1    2    0    0 -0.12534304416E+03  0.38532314659E+03 -0.56567572864E+03  0.71512155330E+03  0.16500000000E+03 0.  0.
<mgrwt>
<rscale>  0 0.96203404E+03</rscale>
<asrwt>0</asrwt>
<pdfrwt beam="1">  1        2 0.39343496E-01 0.96203404E+03</pdfrwt>
<pdfrwt beam="2">  1       -2 0.13919423E+00 0.96203404E+03</pdfrwt>
<totfact> 0.47815853E+01</totfact>
</mgrwt>
</event>
<event>
 4    1  0.8984293E-005  0.6811371E+03  0.7818608E-02  0.9750045E-01
          2   -1    0    0  501    0  0.00000000000E+00  0.00000000000E+00  0.56593973038E+03  0.56593973039E+03  0.25500000000E-02 0. -1.
         -2   -1    0    0    0  501 -0.00000000000E+00 -0.00000000000E+00 -0.20494571607E+03  0.20494571609E+03  0.25500000000E-02 0.  1.
    5000001    1    1    2    0    0 -0.21413945644E+03 -0.56538597246E+01 -0.53846867736E+02  0.27570302519E+03  0.16500000000E+03 0.  0.
   -5000001    1    1    2    0    0  0.21413945644E+03  0.56538597246E+01  0.41484088205E+03  0.49518242129E+03  0.16500000000E+03 0.  0.
<mgrwt>
<rscale>  0 0.68113706E+03</rscale>
<asrwt>0</asrwt>
<pdfrwt beam="1">  1        2 0.87067650E-01 0.68113706E+03</pdfrwt>
<pdfrwt beam="2">  1       -2 0.31530110E-01 0.68113706E+03</pdfrwt>
<totfact> 0.50021653E+02</totfact>
</mgrwt>
</event>
<event>
 4    1  0.8984293E-005  0.4501528E+03  0.7818608E-02  0.1027676E+00
         -2   -1    0    0    0  501 -0.00000000000E+00  0.00000000000E+00  0.27288612181E+02  0.27288612300E+02  0.25500000000E-02 0. -1.
          2   -1    0    0  501    0  0.00000000000E+00 -0.00000000000E+00 -0.18564294359E+04  0.18564294359E+04  0.25500000000E-02 0.  1.
    5000001    1    1    2    0    0 -0.13712593577E+03  0.23444470013E+02 -0.64723848405E+03  0.68227254134E+03  0.16500000000E+03 0.  0.
   -5000001    1    1    2    0    0  0.13712593577E+03 -0.23444470013E+02 -0.11819023397E+04  0.12014455069E+04  0.16500000000E+03 0.  0.
<mgrwt>
<rscale>  0 0.45015279E+03</rscale>
<asrwt>0</asrwt>
<pdfrwt beam="1">  1        2 0.28560443E+00 0.45015279E+03</pdfrwt>
<pdfrwt beam="2">  1       -2 0.41982495E-02 0.45015279E+03</pdfrwt>
<totfact> 0.22406952E+03</totfact>
</mgrwt>
</event>
<event>
 4    1  0.8984293E-005  0.1177462E+04  0.7818608E-02  0.9132816E-01
          2   -1    0    0  501    0  0.00000000000E+00  0.00000000000E+00  0.18026100187E+04  0.18026100187E+04  0.25500000000E-02 0.  1.
         -2   -1    0    0    0  501 -0.00000000000E+00 -0.00000000000E+00 -0.19227900024E+03  0.19227900026E+03  0.25500000000E-02 0. -1.
    5000001    1    1    2    0    0 -0.45117339520E+03  0.28227112969E+03  0.11272677990E+04  0.12574546170E+04  0.16500000000E+03 0.  0.
   -5000001    1    1    2    0    0  0.45117339520E+03 -0.28227112969E+03  0.48306321952E+03  0.73743440199E+03  0.16500000000E+03 0.  0.
<mgrwt>
<rscale>  0 0.11774618E+04</rscale>
<asrwt>0</asrwt>
<pdfrwt beam="1">  1        2 0.27732464E+00 0.11774618E+04</pdfrwt>
<pdfrwt beam="2">  1       -2 0.29581383E-01 0.11774618E+04</pdfrwt>
<totfact> 0.89487612E+01</totfact>
</mgrwt>
</event>
<event>
 4    1  0.8984293E-005  0.4969119E+03  0.7818608E-02  0.1014588E+00
          2   -1    0    0  501    0  0.00000000000E+00  0.00000000000E+00  0.35041578455E+03  0.35041578456E+03  0.25500000000E-02 0. -1.
         -2   -1    0    0    0  501 -0.00000000000E+00 -0.00000000000E+00 -0.17616319365E+03  0.17616319367E+03  0.25500000000E-02 0.  1.
    5000001    1    1    2    0    0  0.10118087668E+03 -0.14162659132E+03  0.18370421173E+02  0.24053717706E+03  0.16500000000E+03 0.  0.
   -5000001    1    1    2    0    0 -0.10118087668E+03  0.14162659132E+03  0.15588216973E+03  0.28604180116E+03  0.16500000000E+03 0.  0.
<mgrwt>
<rscale>  0 0.49691192E+03</rscale>
<asrwt>0</asrwt>
<pdfrwt beam="1">  1        2 0.53910120E-01 0.49691192E+03</pdfrwt>
<pdfrwt beam="2">  1       -2 0.27102030E-01 0.49691192E+03</pdfrwt>
<totfact> 0.11420396E+03</totfact>
</mgrwt>
</event>
<event>
 4    1  0.8984293E-005  0.4391169E+03  0.7818608E-02  0.1031018E+00
          2   -1    0    0  501    0  0.00000000000E+00  0.00000000000E+00  0.17392581687E+04  0.17392581687E+04  0.25500000000E-02 0.  1.
         -2   -1    0    0    0  501 -0.00000000000E+00 -0.00000000000E+00 -0.27716366079E+02  0.27716366196E+02  0.25500000000E-02 0. -1.
    5000001    1    1    2    0    0  0.10873876609E+03 -0.15202610124E+02  0.12359346682E+04  0.12517247073E+04  0.16500000000E+03 0.  0.
   -5000001    1    1    2    0    0 -0.10873876609E+03  0.15202610124E+02  0.47560713436E+03  0.51524982762E+03  0.16500000000E+03 0.  0.
<mgrwt>
<rscale>  0 0.43911691E+03</rscale>
<asrwt>0</asrwt>
<pdfrwt beam="1">  1        2 0.26757817E+00 0.43911691E+03</pdfrwt>
<pdfrwt beam="2">  1       -2 0.42640565E-02 0.43911691E+03</pdfrwt>
<totfact> 0.25290844E+03</totfact>
</mgrwt>
</event>
<event>
 4    1  0.8984293E-005  0.8289410E+03  0.7818608E-02  0.9519046E-01
          2   -1    0    0  501    0  0.00000000000E+00  0.00000000000E+00  0.39209747385E+03  0.39209747386E+03  0.25500000000E-02 0.  1.
         -2   -1    0    0    0  501 -0.00000000000E+00 -0.00000000000E+00 -0.43812008192E+03  0.43812008192E+03  0.25500000000E-02 0. -1.
    5000001    1    1    2    0    0  0.18614892904E+03 -0.32137394448E+03 -0.10455008175E+03  0.41962883072E+03  0.16500000000E+03 0.  0.
   -5000001    1    1    2    0    0 -0.18614892904E+03  0.32137394448E+03  0.58527473680E+02  0.41058872507E+03  0.16500000000E+03 0.  0.
<mgrwt>
<rscale>  0 0.82894096E+03</rscale>
<asrwt>0</asrwt>
<pdfrwt beam="1">  1        2 0.60322688E-01 0.82894096E+03</pdfrwt>
<pdfrwt beam="2">  1       -2 0.67403090E-01 0.82894096E+03</pdfrwt>
<totfact> 0.16528146E+02</totfact>
</mgrwt>
</event>
<event>
 4    1  0.8984293E-005  0.5571749E+03  0.7818608E-02  0.9998467E-01
         -2   -1    0    0    0  501 -0.00000000000E+00  0.00000000000E+00  0.65461349690E+02  0.65461349740E+02  0.25500000000E-02 0. -1.
          2   -1    0    0  501    0  0.00000000000E+00 -0.00000000000E+00 -0.11856000159E+04  0.11856000159E+04  0.25500000000E-02 0.  1.
    5000001    1    1    2    0    0  0.12699082316E+03 -0.12303726384E+03 -0.24958196964E+03  0.34753560542E+03  0.16500000000E+03 0.  0.
   -5000001    1    1    2    0    0 -0.12699082316E+03  0.12303726384E+03 -0.87055669661E+03  0.90352576027E+03  0.16500000000E+03 0.  0.
<mgrwt>
<rscale>  0 0.55717494E+03</rscale>
<asrwt>0</asrwt>
<pdfrwt beam="1">  1        2 0.18239999E+00 0.55717494E+03</pdfrwt>
<pdfrwt beam="2">  1       -2 0.10070978E-01 0.55717494E+03</pdfrwt>
<totfact> 0.13262397E+03</totfact>
</mgrwt>
</event>
<event>
 4    1  0.8984293E-005  0.4610809E+03  0.7818608E-02  0.1024468E+00
         -2   -1    0    0    0  501 -0.00000000000E+00  0.00000000000E+00  0.40254171487E+02  0.40254171568E+02  0.25500000000E-02 0. -1.
          2   -1    0    0  501    0  0.00000000000E+00 -0.00000000000E+00 -0.13203329390E+04  0.13203329390E+04  0.25500000000E-02 0.  1.
    5000001    1    1    2    0    0  0.11974428838E+03  0.10189811967E+03 -0.74234491262E+03  0.77654548527E+03  0.16500000000E+03 0.  0.
   -5000001    1    1    2    0    0 -0.11974428838E+03 -0.10189811967E+03 -0.53773385490E+03  0.58404162531E+03  0.16500000000E+03 0.  0.
<mgrwt>
<rscale>  0 0.46108094E+03</rscale>
<asrwt>0</asrwt>
<pdfrwt beam="1">  1        2 0.20312811E+00 0.46108094E+03</pdfrwt>
<pdfrwt beam="2">  1       -2 0.61929505E-02 0.46108094E+03</pdfrwt>
<totfact> 0.24067456E+03</totfact>
</mgrwt>
</event>
<event>
 4    1  0.8984293E-005  0.5119509E+03  0.7818608E-02  0.1010706E+00
          2   -1    0    0  501    0  0.00000000000E+00  0.00000000000E+00  0.16644929591E+04  0.16644929591E+04  0.25500000000E-02 0.  1.
         -2   -1    0    0    0  501 -0.00000000000E+00 -0.00000000000E+00 -0.39365404637E+02  0.39365404720E+02  0.25500000000E-02 0. -1.
    5000001    1    1    2    0    0  0.17173842945E+03 -0.82109849909E+02  0.66142234626E+03  0.70777159857E+03  0.16500000000E+03 0.  0.
   -5000001    1    1    2    0    0 -0.17173842945E+03  0.82109849909E+02  0.96370520819E+03  0.99608676524E+03  0.16500000000E+03 0.  0.
<mgrwt>
<rscale>  0 0.51195093E+03</rscale>
<asrwt>0</asrwt>
<pdfrwt beam="1">  1        2 0.25607582E+00 0.51195093E+03</pdfrwt>
<pdfrwt beam="2">  1       -2 0.60562165E-02 0.51195093E+03</pdfrwt>
<totfact> 0.16092546E+03</totfact>
</mgrwt>
</event>
<event>
 4    1  0.8984293E-005  0.7014412E+03  0.7818608E-02  0.9714771E-01
          2   -1    0    0  501    0  0.00000000000E+00  0.00000000000E+00  0.72032827334E+03  0.72032827334E+03  0.25500000000E-02 0.  1.
         -2   -1    0    0    0  501 -0.00000000000E+00 -0.00000000000E+00 -0.17076232164E+03  0.17076232166E+03  0.25500000000E-02 0. -1.
    5000001    1    1    2    0    0 -0.11653614965E+03  0.28292791335E+03  0.21586390911E+03  0.40920790020E+03  0.16500000000E+03 0.  0.
   -5000001    1    1    2    0    0  0.11653614965E+03 -0.28292791335E+03  0.33370204259E+03  0.48188269481E+03  0.16500000000E+03 0.  0.
<mgrwt>
<rscale>  0 0.70144117E+03</rscale>
<asrwt>0</asrwt>
<pdfrwt beam="1">  1        2 0.11081973E+00 0.70144117E+03</pdfrwt>
<pdfrwt beam="2">  1       -2 0.26271127E-01 0.70144117E+03</pdfrwt>
<totfact> 0.52045822E+02</totfact>
</mgrwt>
</event>
<event>
 4    1  0.8984293E-005  0.3537551E+03  0.7818608E-02  0.1061084E+00
          2   -1    0    0  501    0  0.00000000000E+00  0.00000000000E+00  0.13218089871E+04  0.13218089871E+04  0.25500000000E-02 0.  1.
         -2   -1    0    0    0  501 -0.00000000000E+00 -0.00000000000E+00 -0.23668822875E+02  0.23668823013E+02  0.25500000000E-02 0. -1.
    5000001    1    1    2    0    0  0.20099220825E+02  0.39005202498E+02  0.82482242183E+03  0.84230778938E+03  0.16500000000E+03 0.  0.
   -5000001    1    1    2    0    0 -0.20099220825E+02 -0.39005202498E+02  0.47331774240E+03  0.50317002074E+03  0.16500000000E+03 0.  0.
<mgrwt>
<rscale>  0 0.35375507E+03</rscale>
<asrwt>0</asrwt>
<pdfrwt beam="1">  1        2 0.20335522E+00 0.35375507E+03</pdfrwt>
<pdfrwt beam="2">  1       -2 0.36413575E-02 0.35375507E+03</pdfrwt>
<totfact> 0.54228780E+03</totfact>
</mgrwt>
</event>
<event>
 4    1  0.8984293E-005  0.4963232E+03  0.7818608E-02  0.1014743E+00
          2   -1    0    0  501    0  0.00000000000E+00  0.00000000000E+00  0.27545607888E+03  0.27545607889E+03  0.25500000000E-02 0.  1.
         -2   -1    0    0    0  501 -0.00000000000E+00 -0.00000000000E+00 -0.22357166059E+03  0.22357166060E+03  0.25500000000E-02 0. -1.
    5000001    1    1    2    0    0  0.10966587871E+03  0.14604221763E+03  0.57804618341E+02  0.25282663662E+03  0.16500000000E+03 0.  0.
   -5000001    1    1    2    0    0 -0.10966587871E+03 -0.14604221763E+03 -0.59202000491E+01  0.24620110287E+03  0.16500000000E+03 0.  0.
<mgrwt>
<rscale>  0 0.49632317E+03</rscale>
<asrwt>0</asrwt>
<pdfrwt beam="1">  1        2 0.42377859E-01 0.49632317E+03</pdfrwt>
<pdfrwt beam="2">  1       -2 0.34395640E-01 0.49632317E+03</pdfrwt>
<totfact> 0.95820515E+02</totfact>
</mgrwt>
</event>
<event>
 4    1  0.8984293E-005  0.3541080E+03  0.7818608E-02  0.1060941E+00
          2   -1    0    0  501    0  0.00000000000E+00  0.00000000000E+00  0.18384229188E+03  0.18384229190E+03  0.25500000000E-02 0.  1.
         -2   -1    0    0    0  501 -0.00000000000E+00 -0.00000000000E+00 -0.17051640745E+03  0.17051640747E+03  0.25500000000E-02 0. -1.
    5000001    1    1    2    0    0 -0.25196341454E+02  0.37365588287E+02 -0.39108742558E+02  0.17545807635E+03  0.16500000000E+03 0.  0.
   -5000001    1    1    2    0    0  0.25196341454E+02 -0.37365588287E+02  0.52434626991E+02  0.17890062302E+03  0.16500000000E+03 0.  0.
<mgrwt>
<rscale>  0 0.35410805E+03</rscale>
<asrwt>0</asrwt>
<pdfrwt beam="1">  1        2 0.28283430E-01 0.35410805E+03</pdfrwt>
<pdfrwt beam="2">  1       -2 0.26233293E-01 0.35410805E+03</pdfrwt>
<totfact> 0.24534651E+03</totfact>
</mgrwt>
</event>
<event>
 4    1  0.8984293E-005  0.4288976E+03  0.7818608E-02  0.1034209E+00
          2   -1    0    0  501    0  0.00000000000E+00  0.00000000000E+00  0.22488215539E+03  0.22488215541E+03  0.25500000000E-02 0.  1.
         -2   -1    0    0    0  501 -0.00000000000E+00 -0.00000000000E+00 -0.20449953522E+03  0.20449953524E+03  0.25500000000E-02 0. -1.
    5000001    1    1    2    0    0  0.98106663262E+02 -0.60803094367E+02  0.84040153755E+02  0.21819642780E+03  0.16500000000E+03 0.  0.
   -5000001    1    1    2    0    0 -0.98106663262E+02  0.60803094367E+02 -0.63657533586E+02  0.21118526285E+03  0.16500000000E+03 0.  0.
<mgrwt>
<rscale>  0 0.42889764E+03</rscale>
<asrwt>0</asrwt>
<pdfrwt beam="1">  1        2 0.34597255E-01 0.42889764E+03</pdfrwt>
<pdfrwt beam="2">  1       -2 0.31461467E-01 0.42889764E+03</pdfrwt>
<totfact> 0.14139059E+03</totfact>
</mgrwt>
</event>
<event>
 4    1  0.8984293E-005  0.3950889E+03  0.7818608E-02  0.1045494E+00
         -2   -1    0    0    0  501 -0.00000000000E+00  0.00000000000E+00  0.19657641906E+03  0.19657641907E+03  0.25500000000E-02 0. -1.
          2   -1    0    0  501    0  0.00000000000E+00 -0.00000000000E+00 -0.19851722497E+03  0.19851722499E+03  0.25500000000E-02 0.  1.
    5000001    1    1    2    0    0  0.10059195024E+03  0.89843571368E+01  0.39021904803E+02  0.19735036909E+03  0.16500000000E+03 0.  0.
   -5000001    1    1    2    0    0 -0.10059195024E+03 -0.89843571368E+01 -0.40962710718E+02  0.19774327497E+03  0.16500000000E+03 0.  0.
<mgrwt>
<rscale>  0 0.39508888E+03</rscale>
<asrwt>0</asrwt>
<pdfrwt beam="1">  1        2 0.30541112E-01 0.39508888E+03</pdfrwt>
<pdfrwt beam="2">  1       -2 0.30242526E-01 0.39508888E+03</pdfrwt>
<totfact> 0.17441640E+03</totfact>
</mgrwt>
</event>
<event>
 4    1  0.8984293E-005  0.4738106E+03  0.7818608E-02  0.1020850E+00
         -2   -1    0    0    0  501 -0.00000000000E+00  0.00000000000E+00  0.54214250478E+02  0.54214250538E+02  0.25500000000E-02 0. -1.
          2   -1    0    0  501    0  0.00000000000E+00 -0.00000000000E+00 -0.10352281684E+04  0.10352281684E+04  0.25500000000E-02 0.  1.
    5000001    1    1    2    0    0  0.20453777762E+02  0.97083342926E+02 -0.80790970456E+03  0.83053393863E+03  0.16500000000E+03 0.  0.
   -5000001    1    1    2    0    0 -0.20453777762E+02 -0.97083342926E+02 -0.17310421340E+03  0.25890848035E+03  0.16500000000E+03 0.  0.
<mgrwt>
<rscale>  0 0.47381059E+03</rscale>
<asrwt>0</asrwt>
<pdfrwt beam="1">  1        2 0.15926586E+00 0.47381059E+03</pdfrwt>
<pdfrwt beam="2">  1       -2 0.83406547E-02 0.47381059E+03</pdfrwt>
<totfact> 0.22139296E+03</totfact>
</mgrwt>
</event>
<event>
 4    1  0.8984293E-005  0.5062959E+03  0.7818608E-02  0.1012149E+00
          2   -1    0    0  501    0  0.00000000000E+00  0.00000000000E+00  0.36276650559E+03  0.36276650560E+03  0.25500000000E-02 0.  1.
         -2   -1    0    0    0  501 -0.00000000000E+00 -0.00000000000E+00 -0.17665322777E+03  0.17665322779E+03  0.25500000000E-02 0. -1.
    5000001    1    1    2    0    0  0.33108114044E+02 -0.17759489146E+03  0.16229101103E+03  0.29359745392E+03  0.16500000000E+03 0.  0.
   -5000001    1    1    2    0    0 -0.33108114044E+02  0.17759489146E+03  0.23822266785E+02  0.24582227947E+03  0.16500000000E+03 0.  0.
<mgrwt>
<rscale>  0 0.50629586E+03</rscale>
<asrwt>0</asrwt>
<pdfrwt beam="1">  1        2 0.55810231E-01 0.50629586E+03</pdfrwt>
<pdfrwt beam="2">  1       -2 0.27177420E-01 0.50629586E+03</pdfrwt>
<totfact> 0.10936431E+03</totfact>
</mgrwt>
</event>
<event>
 4    1  0.8984293E-005  0.4700836E+03  0.7818608E-02  0.1021897E+00
         -2   -1    0    0    0  501 -0.00000000000E+00  0.00000000000E+00  0.20611207730E+03  0.20611207732E+03  0.25500000000E-02 0. -1.
          2   -1    0    0  501    0  0.00000000000E+00 -0.00000000000E+00 -0.26803211913E+03  0.26803211914E+03  0.25500000000E-02 0.  1.
    5000001    1    1    2    0    0 -0.16737416717E+03 -0.21079413496E+01 -0.32018664406E+02  0.23721034995E+03  0.16500000000E+03 0.  0.
   -5000001    1    1    2    0    0  0.16737416717E+03  0.21079413496E+01 -0.29901377423E+02  0.23693384651E+03  0.16500000000E+03 0.  0.
<mgrwt>
<rscale>  0 0.47008364E+03</rscale>
<asrwt>0</asrwt>
<pdfrwt beam="1">  1        2 0.41235711E-01 0.47008364E+03</pdfrwt>
<pdfrwt beam="2">  1       -2 0.31709550E-01 0.47008364E+03</pdfrwt>
<totfact> 0.11493524E+03</totfact>
</mgrwt>
</event>
<event>
 4    1  0.8984293E-005  0.5903385E+03  0.7818608E-02  0.9925656E-01
         -2   -1    0    0    0  501 -0.00000000000E+00  0.00000000000E+00  0.34111830520E+03  0.34111830521E+03  0.25500000000E-02 0. -1.
          2   -1    0    0  501    0  0.00000000000E+00 -0.00000000000E+00 -0.25540955552E+03  0.25540955553E+03  0.25500000000E-02 0.  1.
    5000001    1    1    2    0    0 -0.79662844054E+02  0.23060532785E+03  0.23289329189E+02  0.29545283686E+03  0.16500000000E+03 0.  0.
   -5000001    1    1    2    0    0  0.79662844054E+02 -0.23060532785E+03  0.62419420490E+02  0.30107502389E+03  0.16500000000E+03 0.  0.
<mgrwt>
<rscale>  0 0.59033846E+03</rscale>
<asrwt>0</asrwt>
<pdfrwt beam="1">  1        2 0.39293778E-01 0.59033846E+03</pdfrwt>
<pdfrwt beam="2">  1       -2 0.52479739E-01 0.59033846E+03</pdfrwt>
<totfact> 0.45420056E+02</totfact>
</mgrwt>
</event>
<event>
 4    1  0.8984293E-005  0.4866160E+03  0.7818608E-02  0.1017333E+00
          2   -1    0    0  501    0  0.00000000000E+00  0.00000000000E+00  0.31536206274E+04  0.31536206274E+04  0.25500000000E-02 0.  1.
         -2   -1    0    0    0  501 -0.00000000000E+00 -0.00000000000E+00 -0.18771689604E+02  0.18771689778E+02  0.25500000000E-02 0. -1.
    5000001    1    1    2    0    0  0.13369051471E+02  0.12917508796E+03  0.23687633841E+04  0.23780517035E+04  0.16500000000E+03 0.  0.
   -5000001    1    1    2    0    0 -0.13369051471E+02 -0.12917508796E+03  0.76608555370E+03  0.79434061364E+03  0.16500000000E+03 0.  0.
<mgrwt>
<rscale>  0 0.48661602E+03</rscale>
<asrwt>0</asrwt>
<pdfrwt beam="1">  1        2 0.48517251E+00 0.48661602E+03</pdfrwt>
<pdfrwt beam="2">  1       -2 0.28879517E-02 0.48661602E+03</pdfrwt>
<totfact> 0.72862331E+02</totfact>
</mgrwt>
</event>
<event>
 4    1  0.8984293E-005  0.4999066E+03  0.7818608E-02  0.1013803E+00
         -2   -1    0    0    0  501 -0.00000000000E+00  0.00000000000E+00  0.32945173743E+02  0.32945173842E+02  0.25500000000E-02 0. -1.
          2   -1    0    0  501    0  0.00000000000E+00 -0.00000000000E+00 -0.18963824292E+04  0.18963824292E+04  0.25500000000E-02 0.  1.
    5000001    1    1    2    0    0 -0.92663177623E+02 -0.16149702018E+03 -0.83846083577E+03  0.87459094732E+03  0.16500000000E+03 0.  0.
   -5000001    1    1    2    0    0  0.92663177623E+02  0.16149702018E+03 -0.10249764197E+04  0.10547366557E+04  0.16500000000E+03 0.  0.
<mgrwt>
<rscale>  0 0.49990659E+03</rscale>
<asrwt>0</asrwt>
<pdfrwt beam="1">  1        2 0.29175106E+00 0.49990659E+03</pdfrwt>
<pdfrwt beam="2">  1       -2 0.50684898E-02 0.49990659E+03</pdfrwt>
<totfact> 0.15927085E+03</totfact>
</mgrwt>
</event>
<event>
 4    1  0.8984293E-005  0.7447808E+03  0.7818608E-02  0.9643574E-01
          2   -1    0    0  501    0  0.00000000000E+00  0.00000000000E+00  0.14567895850E+03  0.14567895852E+03  0.25500000000E-02 0.  1.
         -2   -1    0    0    0  501 -0.00000000000E+00 -0.00000000000E+00 -0.95191931466E+03  0.95191931466E+03  0.25500000000E-02 0. -1.
    5000001    1    1    2    0    0 -0.23583968799E+03 -0.23137362869E+03 -0.47372812308E+03  0.60066417330E+03  0.16500000000E+03 0.  0.
   -5000001    1    1    2    0    0  0.23583968799E+03  0.23137362869E+03 -0.33251223307E+03  0.49693409989E+03  0.16500000000E+03 0.  0.
<mgrwt>
<rscale>  0 0.74478081E+03</rscale>
<asrwt>0</asrwt>
<pdfrwt beam="1">  1        2 0.22412148E-01 0.74478081E+03</pdfrwt>
<pdfrwt beam="2">  1       -2 0.14644912E+00 0.74478081E+03</pdfrwt>
<totfact> 0.80248069E+01</totfact>
</mgrwt>
</event>
<event>
 4    1  0.8984293E-005  0.4271740E+03  0.7818608E-02  0.1034756E+00
         -2   -1    0    0    0  501 -0.00000000000E+00  0.00000000000E+00  0.33771590014E+02  0.33771590110E+02  0.25500000000E-02 0. -1.
          2   -1    0    0  501    0  0.00000000000E+00 -0.00000000000E+00 -0.13508218331E+04  0.13508218331E+04  0.25500000000E-02 0.  1.
    5000001    1    1    2    0    0  0.10442179857E+03  0.55705293379E+02 -0.87321993976E+03  0.89651829592E+03  0.16500000000E+03 0.  0.
   -5000001    1    1    2    0    0 -0.10442179857E+03 -0.55705293379E+02 -0.44383030329E+03  0.48807512726E+03  0.16500000000E+03 0.  0.
<mgrwt>
<rscale>  0 0.42717397E+03</rscale>
<asrwt>0</asrwt>
<pdfrwt beam="1">  1        2 0.20781870E+00 0.42717397E+03</pdfrwt>
<pdfrwt beam="2">  1       -2 0.51956303E-02 0.42717397E+03</pdfrwt>
<totfact> 0.30390957E+03</totfact>
</mgrwt>
</event>
<event>
 4    1  0.8984293E-005  0.3939227E+03  0.7818608E-02  0.1045905E+00
          2   -1    0    0  501    0  0.00000000000E+00  0.00000000000E+00  0.11789228084E+03  0.11789228087E+03  0.25500000000E-02 0.  1.
         -2   -1    0    0    0  501 -0.00000000000E+00 -0.00000000000E+00 -0.32906123342E+03  0.32906123343E+03  0.25500000000E-02 0. -1.
    5000001    1    1    2    0    0  0.51459359025E+02  0.92992011584E+02 -0.86830590478E+02  0.21461624191E+03  0.16500000000E+03 0.  0.
   -5000001    1    1    2    0    0 -0.51459359025E+02 -0.92992011584E+02 -0.12433836211E+03  0.23233727239E+03  0.16500000000E+03 0.  0.
<mgrwt>
<rscale>  0 0.39392273E+03</rscale>
<asrwt>0</asrwt>
<pdfrwt beam="1">  1        2 0.18137274E-01 0.39392273E+03</pdfrwt>
<pdfrwt beam="2">  1       -2 0.50624805E-01 0.39392273E+03</pdfrwt>
<totfact> 0.11738941E+03</totfact>
</mgrwt>
</event>
<event>
 4    1  0.8984293E-005  0.8248083E+03  0.7818608E-02  0.9524786E-01
          2   -1    0    0  501    0  0.00000000000E+00  0.00000000000E+00  0.30249081796E+04  0.30249081796E+04  0.25500000000E-02 0.  1.
         -2   -1    0    0    0  501 -0.00000000000E+00 -0.00000000000E+00 -0.56225565697E+02  0.56225565754E+02  0.25500000000E-02 0. -1.
    5000001    1    1    2    0    0  0.10049381429E+03  0.35721799857E+03  0.17523794298E+04  0.17988224957E+04  0.16500000000E+03 0.  0.
   -5000001    1    1    2    0    0 -0.10049381429E+03 -0.35721799857E+03  0.12163031841E+04  0.12823112496E+04  0.16500000000E+03 0.  0.
<mgrwt>
<rscale>  0 0.82480828E+03</rscale>
<asrwt>0</asrwt>
<pdfrwt beam="1">  1        2 0.46537040E+00 0.82480828E+03</pdfrwt>
<pdfrwt beam="2">  1       -2 0.86500886E-02 0.82480828E+03</pdfrwt>
<totfact> 0.15266784E+02</totfact>
</mgrwt>
</event>
<event>
 4    1  0.8984293E-005  0.5933826E+03  0.7818608E-02  0.9919231E-01
         -2   -1    0    0    0  501 -0.00000000000E+00  0.00000000000E+00  0.22027149463E+02  0.22027149611E+02  0.25500000000E-02 0. -1.
          2   -1    0    0  501    0  0.00000000000E+00 -0.00000000000E+00 -0.39962381384E+04  0.39962381384E+04  0.25500000000E-02 0.  1.
    5000001    1    1    2    0    0  0.23784900133E+03 -0.61372055718E+02 -0.21326689031E+04  0.21531001665E+04  0.16500000000E+03 0.  0.
   -5000001    1    1    2    0    0 -0.23784900133E+03  0.61372055718E+02 -0.18415420858E+04  0.18651651215E+04  0.16500000000E+03 0.  0.
<mgrwt>
<rscale>  0 0.59338263E+03</rscale>
<asrwt>0</asrwt>
<pdfrwt beam="1">  1        2 0.61480529E+00 0.59338263E+03</pdfrwt>
<pdfrwt beam="2">  1       -2 0.33887954E-02 0.59338263E+03</pdfrwt>
<totfact> 0.14639113E+02</totfact>
</mgrwt>
</event>
<event>
 4    1  0.8984293E-005  0.5787141E+03  0.7818608E-02  0.9950579E-01
          2   -1    0    0  501    0  0.00000000000E+00  0.00000000000E+00  0.36551527860E+03  0.36551527861E+03  0.25500000000E-02 0.  1.
         -2   -1    0    0    0  501 -0.00000000000E+00 -0.00000000000E+00 -0.22906704287E+03  0.22906704289E+03  0.25500000000E-02 0. -1.
    5000001    1    1    2    0    0 -0.19882320304E+03 -0.19695111232E+02 -0.64085614262E+02  0.26692794801E+03  0.16500000000E+03 0.  0.
   -5000001    1    1    2    0    0  0.19882320304E+03  0.19695111232E+02  0.20053384999E+03  0.32765437349E+03  0.16500000000E+03 0.  0.
<mgrwt>
<rscale>  0 0.57871411E+03</rscale>
<asrwt>0</asrwt>
<pdfrwt beam="1">  1        2 0.56233119E-01 0.57871411E+03</pdfrwt>
<pdfrwt beam="2">  1       -2 0.35241084E-01 0.57871411E+03</pdfrwt>
<totfact> 0.66950147E+02</totfact>
</mgrwt>
</event>
<event>
 4    1  0.8984293E-005  0.3949762E+03  0.7818608E-02  0.1045533E+00
         -2   -1    0    0    0  501 -0.00000000000E+00  0.00000000000E+00  0.42094572627E+02  0.42094572704E+02  0.25500000000E-02 0. -1.
          2   -1    0    0  501    0  0.00000000000E+00 -0.00000000000E+00 -0.92652204119E+03  0.92652204119E+03  0.25500000000E-02 0.  1.
    5000001    1    1    2    0    0  0.65315550254E+02  0.77307747105E+02 -0.34616641487E+03  0.39660912200E+03  0.16500000000E+03 0.  0.
   -5000001    1    1    2    0    0 -0.65315550254E+02 -0.77307747105E+02 -0.53826105369E+03  0.57200749190E+03  0.16500000000E+03 0.  0.
<mgrwt>
<rscale>  0 0.39497620E+03</rscale>
<asrwt>0</asrwt>
<pdfrwt beam="1">  1        2 0.14254184E+00 0.39497620E+03</pdfrwt>
<pdfrwt beam="2">  1       -2 0.64760888E-02 0.39497620E+03</pdfrwt>
<totfact> 0.38585116E+03</totfact>
</mgrwt>
</event>
<event>
 4    1  0.8984293E-005  0.4146990E+03  0.7818608E-02  0.1038806E+00
          2   -1    0    0  501    0  0.00000000000E+00  0.00000000000E+00  0.91567564034E+03  0.91567564034E+03  0.25500000000E-02 0.  1.
         -2   -1    0    0    0  501 -0.00000000000E+00 -0.00000000000E+00 -0.46953113797E+02  0.46953113866E+02  0.25500000000E-02 0. -1.
    5000001    1    1    2    0    0 -0.85428902186E+02 -0.83694808685E+02  0.52323605706E+03  0.56151926925E+03  0.16500000000E+03 0.  0.
   -5000001    1    1    2    0    0  0.85428902186E+02  0.83694808685E+02  0.34548646947E+03  0.40110948495E+03  0.16500000000E+03 0.  0.
<mgrwt>
<rscale>  0 0.41469904E+03</rscale>
<asrwt>0</asrwt>
<pdfrwt beam="1">  1        2 0.14087315E+00 0.41469904E+03</pdfrwt>
<pdfrwt beam="2">  1       -2 0.72235571E-02 0.41469904E+03</pdfrwt>
<totfact> 0.33072911E+03</totfact>
</mgrwt>
</event>
<event>
 4    1  0.8984293E-005  0.3623708E+03  0.7818608E-02  0.1057649E+00
          2   -1    0    0  501    0  0.00000000000E+00  0.00000000000E+00  0.52629875264E+03  0.52629875265E+03  0.25500000000E-02 0.  1.
         -2   -1    0    0    0  501 -0.00000000000E+00 -0.00000000000E+00 -0.62375503193E+02  0.62375503245E+02  0.25500000000E-02 0. -1.
    5000001    1    1    2    0    0 -0.20828088146E+02  0.69731461302E+02  0.26041897951E+03  0.31676384080E+03  0.16500000000E+03 0.  0.
   -5000001    1    1    2    0    0  0.20828088146E+02 -0.69731461302E+02  0.20350426994E+03  0.27191041509E+03  0.16500000000E+03 0.  0.
<mgrwt>
<rscale>  0 0.36237080E+03</rscale>
<asrwt>0</asrwt>
<pdfrwt beam="1">  1        2 0.80969039E-01 0.36237080E+03</pdfrwt>
<pdfrwt beam="2">  1       -2 0.95962313E-02 0.36237080E+03</pdfrwt>
<totfact> 0.41811224E+03</totfact>
</mgrwt>
</event>
<event>
 4    1  0.8984293E-005  0.5960009E+03  0.7818608E-02  0.9913738E-01
          2   -1    0    0  501    0  0.00000000000E+00  0.00000000000E+00  0.30631086735E+03  0.30631086736E+03  0.25500000000E-02 0.  1.
         -2   -1    0    0    0  501 -0.00000000000E+00 -0.00000000000E+00 -0.28991548435E+03  0.28991548436E+03  0.25500000000E-02 0. -1.
    5000001    1    1    2    0    0 -0.42037895055E+02  0.24439729488E+03 -0.86338983577E+00  0.29786400891E+03  0.16500000000E+03 0.  0.
   -5000001    1    1    2    0    0  0.42037895055E+02 -0.24439729488E+03  0.17258772836E+02  0.29836234280E+03  0.16500000000E+03 0.  0.
<mgrwt>
<rscale>  0 0.59600088E+03</rscale>
<asrwt>0</asrwt>
<pdfrwt beam="1">  1        2 0.47124749E-01 0.59600088E+03</pdfrwt>
<pdfrwt beam="2">  1       -2 0.44602382E-01 0.59600088E+03</pdfrwt>
<totfact> 0.51553887E+02</totfact>
</mgrwt>
</event>
<event>
 4    1  0.8984293E-005  0.6608643E+03  0.7818608E-02  0.9786604E-01
         -2   -1    0    0    0  501 -0.00000000000E+00  0.00000000000E+00  0.12054147154E+03  0.12054147156E+03  0.25500000000E-02 0. -1.
          2   -1    0    0  501    0  0.00000000000E+00 -0.00000000000E+00 -0.90579124036E+03  0.90579124036E+03  0.25500000000E-02 0.  1.
    5000001    1    1    2    0    0  0.80208431599E+02  0.26942538679E+03 -0.47678884836E+03  0.57756041889E+03  0.16500000000E+03 0.  0.
   -5000001    1    1    2    0    0 -0.80208431599E+02 -0.26942538679E+03 -0.30846092046E+03  0.44877229303E+03  0.16500000000E+03 0.  0.
<mgrwt>
<rscale>  0 0.66086431E+03</rscale>
<asrwt>0</asrwt>
<pdfrwt beam="1">  1        2 0.13935249E+00 0.66086431E+03</pdfrwt>
<pdfrwt beam="2">  1       -2 0.18544842E-01 0.66086431E+03</pdfrwt>
<totfact> 0.71225481E+02</totfact>
</mgrwt>
</event>
<event>
 4    1  0.8984293E-005  0.4426877E+03  0.7818608E-02  0.1029925E+00
         -2   -1    0    0    0  501 -0.00000000000E+00  0.00000000000E+00  0.34612891552E+02  0.34612891646E+02  0.25500000000E-02 0. -1.
          2   -1    0    0  501    0  0.00000000000E+00 -0.00000000000E+00 -0.14154583462E+04  0.14154583462E+04  0.25500000000E-02 0.  1.
    5000001    1    1    2    0    0  0.10182592011E+03  0.10011254333E+03 -0.81197676360E+03  0.84078671729E+03  0.16500000000E+03 0.  0.
   -5000001    1    1    2    0    0 -0.10182592011E+03 -0.10011254333E+03 -0.56886869100E+03  0.60928452052E+03  0.16500000000E+03 0.  0.
<mgrwt>
<rscale>  0 0.44268773E+03</rscale>
<asrwt>0</asrwt>
<pdfrwt beam="1">  1        2 0.21776278E+00 0.44268773E+03</pdfrwt>
<pdfrwt beam="2">  1       -2 0.53250613E-02 0.44268773E+03</pdfrwt>
<totfact> 0.26931284E+03</totfact>
</mgrwt>
</event>
<event>
 4    1  0.8984293E-005  0.3676904E+03  0.7818608E-02  0.1055580E+00
         -2   -1    0    0    0  501 -0.00000000000E+00  0.00000000000E+00  0.19225308246E+02  0.19225308415E+02  0.25500000000E-02 0. -1.
          2   -1    0    0  501    0  0.00000000000E+00 -0.00000000000E+00 -0.17580505431E+04  0.17580505431E+04  0.25500000000E-02 0.  1.
    5000001    1    1    2    0    0  0.66701371589E+02 -0.12272222189E+02 -0.65463538163E+03  0.67850730526E+03  0.16500000000E+03 0.  0.
   -5000001    1    1    2    0    0 -0.66701371589E+02  0.12272222189E+02 -0.10841898532E+04  0.10987685463E+04  0.16500000000E+03 0.  0.
<mgrwt>
<rscale>  0 0.36769043E+03</rscale>
<asrwt>0</asrwt>
<pdfrwt beam="1">  1        2 0.27046919E+00 0.36769043E+03</pdfrwt>
<pdfrwt beam="2">  1       -2 0.29577411E-02 0.36769043E+03</pdfrwt>
<totfact> 0.43075990E+03</totfact>
</mgrwt>
</event>
<event>
 4    1  0.8984293E-005  0.1038811E+04  0.7818608E-02  0.9266973E-01
          2   -1    0    0  501    0  0.00000000000E+00  0.00000000000E+00  0.20697145760E+04  0.20697145760E+04  0.25500000000E-02 0. -1.
         -2   -1    0    0    0  501 -0.00000000000E+00 -0.00000000000E+00 -0.13034751513E+03  0.13034751515E+03  0.25500000000E-02 0.  1.
    5000001    1    1    2    0    0  0.21096687848E+03 -0.43567944395E+03  0.11618563258E+04  0.12694324415E+04  0.16500000000E+03 0.  0.
   -5000001    1    1    2    0    0 -0.21096687848E+03  0.43567944395E+03  0.77751073510E+03  0.93062964970E+03  0.16500000000E+03 0.  0.
<mgrwt>
<rscale>  0 0.10388112E+04</rscale>
<asrwt>0</asrwt>
<pdfrwt beam="1">  1        2 0.31841760E+00 0.10388112E+04</pdfrwt>
<pdfrwt beam="2">  1       -2 0.20053466E-01 0.10388112E+04</pdfrwt>
<totfact> 0.12999554E+02</totfact>
</mgrwt>
</event>
<event>
 4    1  0.8984293E-005  0.3971419E+03  0.7818608E-02  0.1044774E+00
         -2   -1    0    0    0  501 -0.00000000000E+00  0.00000000000E+00  0.61172647272E+03  0.61172647272E+03  0.25500000000E-02 0. -1.
          2   -1    0    0  501    0  0.00000000000E+00 -0.00000000000E+00 -0.64457596232E+02  0.64457596282E+02  0.25500000000E-02 0.  1.
    5000001    1    1    2    0    0 -0.82077094286E+02 -0.62189553929E+02  0.34176560606E+03  0.39323392467E+03  0.16500000000E+03 0.  0.
   -5000001    1    1    2    0    0  0.82077094286E+02  0.62189553929E+02  0.20550327042E+03  0.28295014433E+03  0.16500000000E+03 0.  0.
<mgrwt>
<rscale>  0 0.39714188E+03</rscale>
<asrwt>0</asrwt>
<pdfrwt beam="1">  1        2 0.99165536E-02 0.39714188E+03</pdfrwt>
<pdfrwt beam="2">  1       -2 0.94111762E-01 0.39714188E+03</pdfrwt>
<totfact> 0.64311692E+02</totfact>
</mgrwt>
</event>
<event>
 4    1  0.8984293E-005  0.3717650E+03  0.7818608E-02  0.1054020E+00
          2   -1    0    0  501    0  0.00000000000E+00  0.00000000000E+00  0.14928227273E+04  0.14928227273E+04  0.25500000000E-02 0.  1.
         -2   -1    0    0    0  501 -0.00000000000E+00 -0.00000000000E+00 -0.23145611728E+02  0.23145611869E+02  0.25500000000E-02 0. -1.
    5000001    1    1    2    0    0 -0.55339746176E+02  0.65107749190E+02  0.71413059195E+03  0.73790853692E+03  0.16500000000E+03 0.  0.
   -5000001    1    1    2    0    0  0.55339746176E+02 -0.65107749190E+02  0.75554652364E+03  0.77805980226E+03  0.16500000000E+03 0.  0.
<mgrwt>
<rscale>  0 0.37176495E+03</rscale>
<asrwt>0</asrwt>
<pdfrwt beam="1">  1        2 0.22966510E+00 0.37176495E+03</pdfrwt>
<pdfrwt beam="2">  1       -2 0.35608624E-02 0.37176495E+03</pdfrwt>
<totfact> 0.45191421E+03</totfact>
</mgrwt>
</event>
<event>
 4    1  0.8984293E-005  0.5818742E+03  0.7818608E-02  0.9943742E-01
         -2   -1    0    0    0  501 -0.00000000000E+00  0.00000000000E+00  0.92473194420E+02  0.92473194455E+02  0.25500000000E-02 0.  1.
          2   -1    0    0  501    0  0.00000000000E+00 -0.00000000000E+00 -0.91533994988E+03  0.91533994988E+03  0.25500000000E-02 0. -1.
    5000001    1    1    2    0    0 -0.23752465742E+03  0.15084992557E+02 -0.45961598531E+03  0.54324706519E+03  0.16500000000E+03 0.  0.
   -5000001    1    1    2    0    0  0.23752465742E+03 -0.15084992557E+02 -0.36325077015E+03  0.46456607915E+03  0.16500000000E+03 0.  0.
<mgrwt>
<rscale>  0 0.58187424E+03</rscale>
<asrwt>0</asrwt>
<pdfrwt beam="1">  1        2 0.14082153E+00 0.58187424E+03</pdfrwt>
<pdfrwt beam="2">  1       -2 0.14226646E-01 0.58187424E+03</pdfrwt>
<totfact> 0.11041132E+03</totfact>
</mgrwt>
</event>
<event>
 4    1  0.8984293E-005  0.6979829E+03  0.7818608E-02  0.9720688E-01
         -2   -1    0    0    0  501 -0.00000000000E+00  0.00000000000E+00  0.24424952797E+03  0.24424952798E+03  0.25500000000E-02 0. -1.
          2   -1    0    0  501    0  0.00000000000E+00 -0.00000000000E+00 -0.49864998936E+03  0.49864998936E+03  0.25500000000E-02 0.  1.
    5000001    1    1    2    0    0 -0.18001080002E+03  0.12790655672E+03  0.10059610003E+03  0.29344258504E+03  0.16500000000E+03 0.  0.
   -5000001    1    1    2    0    0  0.18001080002E+03 -0.12790655672E+03 -0.35499656142E+03  0.44945693230E+03  0.16500000000E+03 0.  0.
<mgrwt>
<rscale>  0 0.69798288E+03</rscale>
<asrwt>0</asrwt>
<pdfrwt beam="1">  1        2 0.76715383E-01 0.69798288E+03</pdfrwt>
<pdfrwt beam="2">  1       -2 0.37576851E-01 0.69798288E+03</pdfrwt>
<totfact> 0.41580720E+02</totfact>
</mgrwt>
</event>
<event>
 4    1  0.8984293E-005  0.3714725E+03  0.7818608E-02  0.1054131E+00
          2   -1    0    0  501    0  0.00000000000E+00  0.00000000000E+00  0.34896614482E+02  0.34896614575E+02  0.25500000000E-02 0.  1.
         -2   -1    0    0    0  501 -0.00000000000E+00 -0.00000000000E+00 -0.98857585447E+03  0.98857585447E+03  0.25500000000E-02 0. -1.
    5000001    1    1    2    0    0  0.25378821575E+02  0.49339485987E+02 -0.65527815165E+03  0.67800658219E+03  0.16500000000E+03 0.  0.
   -5000001    1    1    2    0    0 -0.25378821575E+02 -0.49339485987E+02 -0.29840108834E+03  0.34546588686E+03  0.16500000000E+03 0.  0.
<mgrwt>
<rscale>  0 0.37147248E+03</rscale>
<asrwt>0</asrwt>
<pdfrwt beam="1">  1        2 0.53687107E-02 0.37147248E+03</pdfrwt>
<pdfrwt beam="2">  1       -2 0.15208857E+00 0.37147248E+03</pdfrwt>
<totfact> 0.43931069E+02</totfact>
</mgrwt>
</event>
<event>
 4    1  0.8984293E-005  0.3958166E+03  0.7818608E-02  0.1045238E+00
          2   -1    0    0  501    0  0.00000000000E+00  0.00000000000E+00  0.17337175149E+04  0.17337175149E+04  0.25500000000E-02 0.  1.
         -2   -1    0    0    0  501 -0.00000000000E+00 -0.00000000000E+00 -0.22591734912E+02  0.22591735056E+02  0.25500000000E-02 0. -1.
    5000001    1    1    2    0    0 -0.37505474359E+01  0.10307428569E+03  0.69531300713E+03  0.72202739066E+03  0.16500000000E+03 0.  0.
   -5000001    1    1    2    0    0  0.37505474359E+01 -0.10307428569E+03  0.10158127729E+04  0.10342818593E+04  0.16500000000E+03 0.  0.
<mgrwt>
<rscale>  0 0.39581656E+03</rscale>
<asrwt>0</asrwt>
<pdfrwt beam="1">  1        2 0.26672580E+00 0.39581656E+03</pdfrwt>
<pdfrwt beam="2">  1       -2 0.34756512E-02 0.39581656E+03</pdfrwt>
<totfact> 0.34787862E+03</totfact>
</mgrwt>
</event>
<event>
 4    1  0.8984293E-005  0.4782637E+03  0.7818608E-02  0.1019613E+00
          2   -1    0    0  501    0  0.00000000000E+00  0.00000000000E+00  0.17030166687E+04  0.17030166687E+04  0.25500000000E-02 0.  1.
         -2   -1    0    0    0  501 -0.00000000000E+00 -0.00000000000E+00 -0.33578084143E+02  0.33578084240E+02  0.25500000000E-02 0. -1.
    5000001    1    1    2    0    0  0.16299190972E+03 -0.32261141320E+02  0.65862718856E+03  0.69901496221E+03  0.16500000000E+03 0.  0.
   -5000001    1    1    2    0    0 -0.16299190972E+03  0.32261141320E+02  0.10108113960E+04  0.10375797908E+04  0.16500000000E+03 0.  0.
<mgrwt>
<rscale>  0 0.47826368E+03</rscale>
<asrwt>0</asrwt>
<pdfrwt beam="1">  1        2 0.26200251E+00 0.47826368E+03</pdfrwt>
<pdfrwt beam="2">  1       -2 0.51658602E-02 0.47826368E+03</pdfrwt>
<totfact> 0.19666062E+03</totfact>
</mgrwt>
</event>
<event>
 4    1  0.8984293E-005  0.5865970E+03  0.7818608E-02  0.9933610E-01
         -2   -1    0    0    0  501 -0.00000000000E+00  0.00000000000E+00  0.70275433175E+02  0.70275433221E+02  0.25500000000E-02 0. -1.
          2   -1    0    0  501    0  0.00000000000E+00 -0.00000000000E+00 -0.12240978489E+04  0.12240978489E+04  0.25500000000E-02 0.  1.
    5000001    1    1    2    0    0  0.23721944998E+02  0.22224716078E+03 -0.36941668240E+03  0.46222312402E+03  0.16500000000E+03 0.  0.
   -5000001    1    1    2    0    0 -0.23721944998E+02 -0.22224716078E+03 -0.78440573337E+03  0.83215015814E+03  0.16500000000E+03 0.  0.
<mgrwt>
<rscale>  0 0.58659699E+03</rscale>
<asrwt>0</asrwt>
<pdfrwt beam="1">  1        2 0.18832273E+00 0.58659699E+03</pdfrwt>
<pdfrwt beam="2">  1       -2 0.10811606E-01 0.58659699E+03</pdfrwt>
<totfact> 0.11209709E+03</totfact>
</mgrwt>
</event>
<event>
 4    1  0.8984293E-005  0.9057510E+03  0.7818608E-02  0.9418421E-01
          2   -1    0    0  501    0  0.00000000000E+00  0.00000000000E+00  0.68171400356E+03  0.68171400356E+03  0.25500000000E-02 0.  1.
         -2   -1    0    0    0  501 -0.00000000000E+00 -0.00000000000E+00 -0.30085376692E+03  0.30085376693E+03  0.25500000000E-02 0. -1.
    5000001    1    1    2    0    0  0.10549648477E+03 -0.20637338500E+03  0.57266480561E+03  0.63944465117E+03  0.16500000000E+03 0.  0.
   -5000001    1    1    2    0    0 -0.10549648477E+03  0.20637338500E+03 -0.19180456897E+03  0.34312311932E+03  0.16500000000E+03 0.  0.
<mgrwt>
<rscale>  0 0.90575102E+03</rscale>
<asrwt>0</asrwt>
<pdfrwt beam="1">  1        2 0.10487908E+00 0.90575102E+03</pdfrwt>
<pdfrwt beam="2">  1       -2 0.46285195E-01 0.90575102E+03</pdfrwt>
<totfact> 0.18801223E+02</totfact>
</mgrwt>
</event>
<event>
 4    1  0.8984293E-005  0.4158678E+03  0.7818608E-02  0.1038420E+00
          2   -1    0    0  501    0  0.00000000000E+00  0.00000000000E+00  0.34525990279E+02  0.34525990373E+02  0.25500000000E-02 0. -1.
         -2   -1    0    0    0  501 -0.00000000000E+00 -0.00000000000E+00 -0.12522888749E+04  0.12522888749E+04  0.25500000000E-02 0.  1.
    5000001    1    1    2    0    0  0.49610820686E+02 -0.11595370022E+03 -0.64059139794E+03  0.67341579521E+03  0.16500000000E+03 0.  0.
   -5000001    1    1    2    0    0 -0.49610820686E+02  0.11595370022E+03 -0.57717148673E+03  0.61339907011E+03  0.16500000000E+03 0.  0.
<mgrwt>
<rscale>  0 0.41586783E+03</rscale>
<asrwt>0</asrwt>
<pdfrwt beam="1">  1        2 0.53116918E-02 0.41586783E+03</pdfrwt>
<pdfrwt beam="2">  1       -2 0.19265979E+00 0.41586783E+03</pdfrwt>
<totfact> 0.23277847E+02</totfact>
</mgrwt>
</event>
<event>
 4    1  0.8984293E-005  0.5175829E+03  0.7818608E-02  0.1009289E+00
         -2   -1    0    0    0  501 -0.00000000000E+00  0.00000000000E+00  0.74061054006E+02  0.74061054050E+02  0.25500000000E-02 0. -1.
          2   -1    0    0  501    0  0.00000000000E+00 -0.00000000000E+00 -0.90429468350E+03  0.90429468351E+03  0.25500000000E-02 0.  1.
    5000001    1    1    2    0    0  0.43556500408E+02 -0.13862195480E+03 -0.67315219788E+03  0.70814694562E+03  0.16500000000E+03 0.  0.
   -5000001    1    1    2    0    0 -0.43556500408E+02  0.13862195480E+03 -0.15708143162E+03  0.27020879194E+03  0.16500000000E+03 0.  0.
<mgrwt>
<rscale>  0 0.51758291E+03</rscale>
<asrwt>0</asrwt>
<pdfrwt beam="1">  1        2 0.13912225E+00 0.51758291E+03</pdfrwt>
<pdfrwt beam="2">  1       -2 0.11394009E-01 0.51758291E+03</pdfrwt>
<totfact> 0.16227250E+03</totfact>
</mgrwt>
</event>
<event>
 4    1  0.8984293E-005  0.1015168E+04  0.7818608E-02  0.9292063E-01
          2   -1    0    0  501    0  0.00000000000E+00  0.00000000000E+00  0.15583990815E+04  0.15583990815E+04  0.25500000000E-02 0.  1.
         -2   -1    0    0    0  501 -0.00000000000E+00 -0.00000000000E+00 -0.16532460529E+03  0.16532460531E+03  0.25500000000E-02 0. -1.
    5000001    1    1    2    0    0  0.42922485884E+03 -0.21279580098E+03  0.74749554555E+03  0.90304519431E+03  0.16500000000E+03 0.  0.
   -5000001    1    1    2    0    0 -0.42922485884E+03  0.21279580098E+03  0.64557893067E+03  0.82067849252E+03  0.16500000000E+03 0.  0.
<mgrwt>
<rscale>  0 0.10151684E+04</rscale>
<asrwt>0</asrwt>
<pdfrwt beam="1">  1        2 0.23975370E+00 0.10151684E+04</pdfrwt>
<pdfrwt beam="2">  1       -2 0.25434555E-01 0.10151684E+04</pdfrwt>
<totfact> 0.16312240E+02</totfact>
</mgrwt>
</event>
<event>
 4    1  0.8984293E-005  0.8545115E+03  0.7818608E-02  0.9484302E-01
          2   -1    0    0  501    0  0.00000000000E+00  0.00000000000E+00  0.15617076173E+04  0.15617076173E+04  0.25500000000E-02 0.  1.
         -2   -1    0    0    0  501 -0.00000000000E+00 -0.00000000000E+00 -0.11688965242E+03  0.11688965245E+03  0.25500000000E-02 0. -1.
    5000001    1    1    2    0    0  0.12629839592E+03 -0.19037563090E+03  0.91571430806E+02  0.29631822859E+03  0.16500000000E+03 0.  0.
   -5000001    1    1    2    0    0 -0.12629839592E+03  0.19037563090E+03  0.13532465341E+04  0.13822790412E+04  0.16500000000E+03 0.  0.
<mgrwt>
<rscale>  0 0.85451146E+03</rscale>
<asrwt>0</asrwt>
<pdfrwt beam="1">  1        2 0.24026271E+00 0.85451146E+03</pdfrwt>
<pdfrwt beam="2">  1       -2 0.17983023E-01 0.85451146E+03</pdfrwt>
<totfact> 0.30322588E+02</totfact>
</mgrwt>
</event>
<event>
 4    1  0.8984293E-005  0.4474267E+03  0.7818608E-02  0.1028492E+00
         -2   -1    0    0    0  501 -0.00000000000E+00  0.00000000000E+00  0.27546524474E+02  0.27546524592E+02  0.25500000000E-02 0. -1.
          2   -1    0    0  501    0  0.00000000000E+00 -0.00000000000E+00 -0.18168411170E+04  0.18168411170E+04  0.25500000000E-02 0.  1.
    5000001    1    1    2    0    0 -0.89416267720E+01 -0.14300493563E+03 -0.10920101858E+04  0.11136613535E+04  0.16500000000E+03 0.  0.
   -5000001    1    1    2    0    0  0.89416267720E+01  0.14300493563E+03 -0.69728440672E+03  0.73072628813E+03  0.16500000000E+03 0.  0.
<mgrwt>
<rscale>  0 0.44742668E+03</rscale>
<asrwt>0</asrwt>
<pdfrwt beam="1">  1        2 0.27951392E+00 0.44742668E+03</pdfrwt>
<pdfrwt beam="2">  1       -2 0.42379283E-02 0.44742668E+03</pdfrwt>
<totfact> 0.23193764E+03</totfact>
</mgrwt>
</event>
<event>
 4    1  0.8984293E-005  0.5314764E+03  0.7818608E-02  0.1005875E+00
         -2   -1    0    0    0  501 -0.00000000000E+00  0.00000000000E+00  0.40138885327E+02  0.40138885408E+02  0.25500000000E-02 0. -1.
          2   -1    0    0  501    0  0.00000000000E+00 -0.00000000000E+00 -0.17593111690E+04  0.17593111690E+04  0.25500000000E-02 0.  1.
    5000001    1    1    2    0    0  0.10764959577E+03  0.16853917324E+03 -0.66222521544E+03  0.71116884377E+03  0.16500000000E+03 0.  0.
   -5000001    1    1    2    0    0 -0.10764959577E+03 -0.16853917324E+03 -0.10569470682E+04  0.10882812106E+04  0.16500000000E+03 0.  0.
<mgrwt>
<rscale>  0 0.53147639E+03</rscale>
<asrwt>0</asrwt>
<pdfrwt beam="1">  1        2 0.27066320E+00 0.53147639E+03</pdfrwt>
<pdfrwt beam="2">  1       -2 0.61752145E-02 0.53147639E+03</pdfrwt>
<totfact> 0.13861508E+03</totfact>
</mgrwt>
</event>
<event>
 4    1  0.8984293E-005  0.4073139E+03  0.7818608E-02  0.1041276E+00
          2   -1    0    0  501    0  0.00000000000E+00  0.00000000000E+00  0.50695092015E+03  0.50695092016E+03  0.25500000000E-02 0. -1.
         -2   -1    0    0    0  501 -0.00000000000E+00 -0.00000000000E+00 -0.81814919293E+02  0.81814919333E+02  0.25500000000E-02 0.  1.
    5000001    1    1    2    0    0 -0.54138728447E+02  0.76196506708E+02  0.31990666633E+03  0.37189001696E+03  0.16500000000E+03 0.  0.
   -5000001    1    1    2    0    0  0.54138728447E+02 -0.76196506708E+02  0.10522933453E+03  0.21687582253E+03  0.16500000000E+03 0.  0.
<mgrwt>
<rscale>  0 0.40731388E+03</rscale>
<asrwt>0</asrwt>
<pdfrwt beam="1">  1        2 0.77992449E-01 0.40731388E+03</pdfrwt>
<pdfrwt beam="2">  1       -2 0.12586911E-01 0.40731388E+03</pdfrwt>
<totfact> 0.28195819E+03</totfact>
</mgrwt>
</event>
<event>
 4    1  0.8984293E-005  0.4738396E+03  0.7818608E-02  0.1020842E+00
          2   -1    0    0  501    0  0.00000000000E+00  0.00000000000E+00  0.74867251367E+03  0.74867251367E+03  0.25500000000E-02 0.  1.
         -2   -1    0    0    0  501 -0.00000000000E+00 -0.00000000000E+00 -0.74974037402E+02  0.74974037445E+02  0.25500000000E-02 0. -1.
    5000001    1    1    2    0    0 -0.12787211443E+03  0.98045286810E+02  0.43112920017E+03  0.48893920190E+03  0.16500000000E+03 0.  0.
   -5000001    1    1    2    0    0  0.12787211443E+03 -0.98045286810E+02  0.24256927609E+03  0.33470734921E+03  0.16500000000E+03 0.  0.
<mgrwt>
<rscale>  0 0.47383964E+03</rscale>
<asrwt>0</asrwt>
<pdfrwt beam="1">  1        2 0.11518039E+00 0.47383964E+03</pdfrwt>
<pdfrwt beam="2">  1       -2 0.11534467E-01 0.47383964E+03</pdfrwt>
<totfact> 0.20419525E+03</totfact>
</mgrwt>
</event>
<event>
 4    1  0.8984293E-005  0.4640801E+03  0.7818608E-02  0.1023604E+00
         -2   -1    0    0    0  501 -0.00000000000E+00  0.00000000000E+00  0.66928719627E+02  0.66928719675E+02  0.25500000000E-02 0. -1.
          2   -1    0    0  501    0  0.00000000000E+00 -0.00000000000E+00 -0.80447637923E+03  0.80447637923E+03  0.25500000000E-02 0.  1.
    5000001    1    1    2    0    0  0.96659602693E+02 -0.70287564795E+02 -0.16023743144E+03  0.25919964311E+03  0.16500000000E+03 0.  0.
   -5000001    1    1    2    0    0 -0.96659602693E+02  0.70287564795E+02 -0.57731022817E+03  0.61220545579E+03  0.16500000000E+03 0.  0.
<mgrwt>
<rscale>  0 0.46408005E+03</rscale>
<asrwt>0</asrwt>
<pdfrwt beam="1">  1        2 0.12376559E+00 0.46408005E+03</pdfrwt>
<pdfrwt beam="2">  1       -2 0.10296727E-01 0.46408005E+03</pdfrwt>
<totfact> 0.22381411E+03</totfact>
</mgrwt>
</event>
<event>
 4    1  0.8984293E-005  0.6634856E+03  0.7818608E-02  0.9781798E-01
         -2   -1    0    0    0  501 -0.00000000000E+00  0.00000000000E+00  0.33718419635E+03  0.33718419636E+03  0.25500000000E-02 0.  1.
          2   -1    0    0  501    0  0.00000000000E+00 -0.00000000000E+00 -0.32638924066E+03  0.32638924067E+03  0.25500000000E-02 0. -1.
    5000001    1    1    2    0    0  0.19462595230E+02 -0.25068858172E+03  0.14543292287E+03  0.33406480311E+03  0.16500000000E+03 0.  0.
   -5000001    1    1    2    0    0 -0.19462595230E+02  0.25068858172E+03 -0.13463796718E+03  0.32950863392E+03  0.16500000000E+03 0.  0.
<mgrwt>
<rscale>  0 0.66348563E+03</rscale>
<asrwt>0</asrwt>
<pdfrwt beam="1">  1        2 0.50213730E-01 0.66348563E+03</pdfrwt>
<pdfrwt beam="2">  1       -2 0.51874491E-01 0.66348563E+03</pdfrwt>
<totfact> 0.35399377E+02</totfact>
</mgrwt>
</event>
<event>
 4    1  0.8984293E-005  0.6112549E+03  0.7818608E-02  0.9882327E-01
         -2   -1    0    0    0  501 -0.00000000000E+00  0.00000000000E+00  0.45851568746E+03  0.45851568747E+03  0.25500000000E-02 0. -1.
          2   -1    0    0  501    0  0.00000000000E+00 -0.00000000000E+00 -0.20371851885E+03  0.20371851886E+03  0.25500000000E-02 0.  1.
    5000001    1    1    2    0    0 -0.39689555873E+02 -0.23156366051E+03  0.13842093677E+02  0.28742580481E+03  0.16500000000E+03 0.  0.
   -5000001    1    1    2    0    0  0.39689555873E+02  0.23156366051E+03  0.24095507494E+03  0.37480840152E+03  0.16500000000E+03 0.  0.
<mgrwt>
<rscale>  0 0.61125490E+03</rscale>
<asrwt>0</asrwt>
<pdfrwt beam="1">  1        2 0.31341311E-01 0.61125490E+03</pdfrwt>
<pdfrwt beam="2">  1       -2 0.70540874E-01 0.61125490E+03</pdfrwt>
<totfact> 0.31284512E+02</totfact>
</mgrwt>
</event>
<event>
 4    1  0.8984293E-005  0.8264907E+03  0.7818608E-02  0.9522445E-01
          2   -1    0    0  501    0  0.00000000000E+00  0.00000000000E+00  0.15732320813E+04  0.15732320813E+04  0.25500000000E-02 0.  1.
         -2   -1    0    0    0  501 -0.00000000000E+00 -0.00000000000E+00 -0.10854834117E+03  0.10854834120E+03  0.25500000000E-02 0. -1.
    5000001    1    1    2    0    0 -0.12208315913E+03  0.29098692512E+03  0.11590243571E+04  0.12124933603E+04  0.16500000000E+03 0.  0.
   -5000001    1    1    2    0    0  0.12208315913E+03 -0.29098692512E+03  0.30565938300E+03  0.46928706220E+03  0.16500000000E+03 0.  0.
<mgrwt>
<rscale>  0 0.82649073E+03</rscale>
<asrwt>0</asrwt>
<pdfrwt beam="1">  1        2 0.24203570E+00 0.82649073E+03</pdfrwt>
<pdfrwt beam="2">  1       -2 0.16699745E-01 0.82649073E+03</pdfrwt>
<totfact> 0.33999962E+02</totfact>
</mgrwt>
</event>
<event>
 4    1  0.8984293E-005  0.3924586E+03  0.7818608E-02  0.1046423E+00
         -2   -1    0    0    0  501 -0.00000000000E+00  0.00000000000E+00  0.53935713753E+02  0.53935713813E+02  0.25500000000E-02 0. -1.
          2   -1    0    0  501    0  0.00000000000E+00 -0.00000000000E+00 -0.71392285507E+03  0.71392285507E+03  0.25500000000E-02 0.  1.
    5000001    1    1    2    0    0  0.50304142360E+02  0.87800377476E+02 -0.39313616010E+03  0.43820138453E+03  0.16500000000E+03 0.  0.
   -5000001    1    1    2    0    0 -0.50304142360E+02 -0.87800377476E+02 -0.26685098121E+03  0.32965718436E+03  0.16500000000E+03 0.  0.
<mgrwt>
<rscale>  0 0.39245860E+03</rscale>
<asrwt>0</asrwt>
<pdfrwt beam="1">  1        2 0.10983428E+00 0.39245860E+03</pdfrwt>
<pdfrwt beam="2">  1       -2 0.82978026E-02 0.39245860E+03</pdfrwt>
<totfact> 0.36738591E+03</totfact>
</mgrwt>
</event>
<event>
 4    1  0.8984293E-005  0.4124358E+03  0.7818608E-02  0.1039557E+00
          2   -1    0    0  501    0  0.00000000000E+00  0.00000000000E+00  0.25832184315E+04  0.25832184315E+04  0.25500000000E-02 0.  1.
         -2   -1    0    0    0  501 -0.00000000000E+00 -0.00000000000E+00 -0.16462337849E+02  0.16462338046E+02  0.25500000000E-02 0. -1.
    5000001    1    1    2    0    0  0.33155240400E+02  0.11853823775E+03  0.12061200324E+04  0.12235608347E+04  0.16500000000E+03 0.  0.
   -5000001    1    1    2    0    0 -0.33155240400E+02 -0.11853823775E+03  0.13606360613E+04  0.13761199348E+04  0.16500000000E+03 0.  0.
<mgrwt>
<rscale>  0 0.41243576E+03</rscale>
<asrwt>0</asrwt>
<pdfrwt beam="1">  1        2 0.39741833E+00 0.41243576E+03</pdfrwt>
<pdfrwt beam="2">  1       -2 0.25326667E-02 0.41243576E+03</pdfrwt>
<totfact> 0.19410408E+03</totfact>
</mgrwt>
</event>
<event>
 4    1  0.8984293E-005  0.7808382E+03  0.7818608E-02  0.9588175E-01
         -2   -1    0    0    0  501 -0.00000000000E+00  0.00000000000E+00  0.13319849494E+03  0.13319849496E+03  0.25500000000E-02 0. -1.
          2   -1    0    0  501    0  0.00000000000E+00 -0.00000000000E+00 -0.11443604147E+04  0.11443604147E+04  0.25500000000E-02 0.  1.
    5000001    1    1    2    0    0 -0.12986812145E+03 -0.23063180189E+03 -0.88979588306E+03  0.94287776012E+03  0.16500000000E+03 0.  0.
   -5000001    1    1    2    0    0  0.12986812145E+03  0.23063180189E+03 -0.12136603674E+03  0.33468114959E+03  0.16500000000E+03 0.  0.
<mgrwt>
<rscale>  0 0.78083823E+03</rscale>
<asrwt>0</asrwt>
<pdfrwt beam="1">  1        2 0.17605544E+00 0.78083823E+03</pdfrwt>
<pdfrwt beam="2">  1       -2 0.20492077E-01 0.78083823E+03</pdfrwt>
<totfact> 0.42099621E+02</totfact>
</mgrwt>
</event>
<event>
 4    1  0.8984293E-005  0.5543261E+03  0.7818608E-02  0.1000498E+00
         -2   -1    0    0    0  501 -0.00000000000E+00  0.00000000000E+00  0.27449157518E+03  0.27449157519E+03  0.25500000000E-02 0. -1.
          2   -1    0    0  501    0  0.00000000000E+00 -0.00000000000E+00 -0.27986054249E+03  0.27986054250E+03  0.25500000000E-02 0.  1.
    5000001    1    1    2    0    0 -0.14300240380E+03 -0.15070496638E+03  0.77523310304E+02  0.27639923666E+03  0.16500000000E+03 0.  0.
   -5000001    1    1    2    0    0  0.14300240380E+03  0.15070496638E+03 -0.82892277612E+02  0.27795288103E+03  0.16500000000E+03 0.  0.
<mgrwt>
<rscale>  0 0.55432612E+03</rscale>
<asrwt>0</asrwt>
<pdfrwt beam="1">  1        2 0.43055468E-01 0.55432612E+03</pdfrwt>
<pdfrwt beam="2">  1       -2 0.42229473E-01 0.55432612E+03</pdfrwt>
<totfact> 0.63470239E+02</totfact>
</mgrwt>
</event>
<event>
 4    1  0.8984293E-005  0.5100805E+03  0.7818608E-02  0.1011181E+00
         -2   -1    0    0    0  501 -0.00000000000E+00  0.00000000000E+00  0.18031265901E+03  0.18031265903E+03  0.25500000000E-02 0. -1.
          2   -1    0    0  501    0  0.00000000000E+00 -0.00000000000E+00 -0.36073746039E+03  0.36073746040E+03  0.25500000000E-02 0.  1.
    5000001    1    1    2    0    0  0.16633812410E+03 -0.97850148405E+02 -0.11570285826E+03  0.27902540114E+03  0.16500000000E+03 0.  0.
   -5000001    1    1    2    0    0 -0.16633812410E+03  0.97850148405E+02 -0.64721943117E+02  0.26202471829E+03  0.16500000000E+03 0.  0.
<mgrwt>
<rscale>  0 0.51008051E+03</rscale>
<asrwt>0</asrwt>
<pdfrwt beam="1">  1        2 0.55498071E-01 0.51008051E+03</pdfrwt>
<pdfrwt beam="2">  1       -2 0.27740409E-01 0.51008051E+03</pdfrwt>
<totfact> 0.10602089E+03</totfact>
</mgrwt>
</event>
<event>
 4    1  0.8984293E-005  0.9673865E+03  0.7818608E-02  0.9345056E-01
          2   -1    0    0  501    0  0.00000000000E+00  0.00000000000E+00  0.10108567524E+04  0.10108567524E+04  0.25500000000E-02 0.  1.
         -2   -1    0    0    0  501 -0.00000000000E+00 -0.00000000000E+00 -0.23144640675E+03  0.23144640677E+03  0.25500000000E-02 0. -1.
    5000001    1    1    2    0    0 -0.98163236268E+02  0.43410037777E+03  0.50917581676E+03  0.69610643677E+03  0.16500000000E+03 0.  0.
   -5000001    1    1    2    0    0  0.98163236268E+02 -0.43410037777E+03  0.27023452885E+03  0.54619672237E+03  0.16500000000E+03 0.  0.
<mgrwt>
<rscale>  0 0.96738651E+03</rscale>
<asrwt>0</asrwt>
<pdfrwt beam="1">  1        2 0.15551642E+00 0.96738651E+03</pdfrwt>
<pdfrwt beam="2">  1       -2 0.35607139E-01 0.96738651E+03</pdfrwt>
<totfact> 0.18349424E+02</totfact>
</mgrwt>
</event>
<event>
 4    1  0.8984293E-005  0.5799437E+03  0.7818608E-02  0.9947913E-01
         -2   -1    0    0    0  501 -0.00000000000E+00  0.00000000000E+00  0.25983752803E+03  0.25983752804E+03  0.25500000000E-02 0. -1.
          2   -1    0    0  501    0  0.00000000000E+00 -0.00000000000E+00 -0.32360091739E+03  0.32360091740E+03  0.25500000000E-02 0.  1.
    5000001    1    1    2    0    0 -0.76088526239E+02 -0.22005573481E+03 -0.83617970439E+02  0.29737342724E+03  0.16500000000E+03 0.  0.
   -5000001    1    1    2    0    0  0.76088526239E+02  0.22005573481E+03  0.19854581079E+02  0.28606501820E+03  0.16500000000E+03 0.  0.
<mgrwt>
<rscale>  0 0.57994366E+03</rscale>
<asrwt>0</asrwt>
<pdfrwt beam="1">  1        2 0.49784756E-01 0.57994366E+03</pdfrwt>
<pdfrwt beam="2">  1       -2 0.39975004E-01 0.57994366E+03</pdfrwt>
<totfact> 0.60161263E+02</totfact>
</mgrwt>
</event>
<event>
 4    1  0.8984293E-005  0.4934362E+03  0.7818608E-02  0.1015506E+00
         -2   -1    0    0    0  501 -0.00000000000E+00  0.00000000000E+00  0.94704481903E+02  0.94704481937E+02  0.25500000000E-02 0. -1.
          2   -1    0    0  501    0  0.00000000000E+00 -0.00000000000E+00 -0.64273434966E+03  0.64273434966E+03  0.25500000000E-02 0.  1.
    5000001    1    1    2    0    0  0.47242462389E+02  0.17585406426E+03 -0.30704031803E+03  0.39326232856E+03  0.16500000000E+03 0.  0.
   -5000001    1    1    2    0    0 -0.47242462389E+02 -0.17585406426E+03 -0.24098954973E+03  0.34417650304E+03  0.16500000000E+03 0.  0.
<mgrwt>
<rscale>  0 0.49343621E+03</rscale>
<asrwt>0</asrwt>
<pdfrwt beam="1">  1        2 0.98882205E-01 0.49343621E+03</pdfrwt>
<pdfrwt beam="2">  1       -2 0.14569921E-01 0.49343621E+03</pdfrwt>
<totfact> 0.16775375E+03</totfact>
</mgrwt>
</event>
<event>
 4    1  0.8984293E-005  0.5167712E+03  0.7818608E-02  0.1009492E+00
         -2   -1    0    0    0  501 -0.00000000000E+00  0.00000000000E+00  0.71073349353E+02  0.71073349399E+02  0.25500000000E-02 0. -1.
          2   -1    0    0  501    0  0.00000000000E+00 -0.00000000000E+00 -0.93935508209E+03  0.93935508209E+03  0.25500000000E-02 0.  1.
    5000001    1    1    2    0    0  0.17673946350E+03  0.77066004345E+02 -0.33911171040E+03  0.42355372636E+03  0.16500000000E+03 0.  0.
   -5000001    1    1    2    0    0 -0.17673946350E+03 -0.77066004345E+02 -0.52917002233E+03  0.58687470513E+03  0.16500000000E+03 0.  0.
<mgrwt>
<rscale>  0 0.51677118E+03</rscale>
<asrwt>0</asrwt>
<pdfrwt beam="1">  1        2 0.14451616E+00 0.51677118E+03</pdfrwt>
<pdfrwt beam="2">  1       -2 0.10934362E-01 0.51677118E+03</pdfrwt>
<totfact> 0.16460243E+03</totfact>
</mgrwt>
</event>
<event>
 4    1  0.8984293E-005  0.6043958E+03  0.7818608E-02  0.9896328E-01
         -2   -1    0    0    0  501 -0.00000000000E+00  0.00000000000E+00  0.88807593992E+02  0.88807594029E+02  0.25500000000E-02 0. -1.
          2   -1    0    0  501    0  0.00000000000E+00 -0.00000000000E+00 -0.10283305428E+04  0.10283305428E+04  0.25500000000E-02 0.  1.
    5000001    1    1    2    0    0  0.79455872412E+02  0.21772108859E+03 -0.28142093010E+03  0.40017302255E+03  0.16500000000E+03 0.  0.
   -5000001    1    1    2    0    0 -0.79455872412E+02 -0.21772108859E+03 -0.65810201873E+03  0.71696511430E+03  0.16500000000E+03 0.  0.
<mgrwt>
<rscale>  0 0.60439577E+03</rscale>
<asrwt>0</asrwt>
<pdfrwt beam="1">  1        2 0.15820469E+00 0.60439577E+03</pdfrwt>
<pdfrwt beam="2">  1       -2 0.13662708E-01 0.60439577E+03</pdfrwt>
<totfact> 0.99902510E+02</totfact>
</mgrwt>
</event>
<event>
 4    1  0.8984293E-005  0.5596992E+03  0.7818608E-02  0.9992735E-01
         -2   -1    0    0    0  501 -0.00000000000E+00  0.00000000000E+00  0.71800114253E+03  0.71800114253E+03  0.25500000000E-02 0. -1.
          2   -1    0    0  501    0  0.00000000000E+00 -0.00000000000E+00 -0.10907475979E+03  0.10907475982E+03  0.25500000000E-02 0.  1.
    5000001    1    1    2    0    0 -0.10513052501E+03  0.16147091463E+03  0.47909333264E+03  0.54210765069E+03  0.16500000000E+03 0.  0.
   -5000001    1    1    2    0    0  0.10513052501E+03 -0.16147091463E+03  0.12983305009E+03  0.28496825166E+03  0.16500000000E+03 0.  0.
<mgrwt>
<rscale>  0 0.55969921E+03</rscale>
<asrwt>0</asrwt>
<pdfrwt beam="1">  1        2 0.16780732E-01 0.55969921E+03</pdfrwt>
<pdfrwt beam="2">  1       -2 0.11046172E+00 0.55969921E+03</pdfrwt>
<totfact> 0.23070206E+02</totfact>
</mgrwt>
</event>
<event>
 4    1  0.8984293E-005  0.4510591E+03  0.7818608E-02  0.1027407E+00
          2   -1    0    0  501    0  0.00000000000E+00  0.00000000000E+00  0.92107056126E+03  0.92107056126E+03  0.25500000000E-02 0.  1.
         -2   -1    0    0    0  501 -0.00000000000E+00 -0.00000000000E+00 -0.55222242338E+02  0.55222242397E+02  0.25500000000E-02 0. -1.
    5000001    1    1    2    0    0 -0.80962282019E+02  0.10717952078E+03  0.27100627283E+03  0.34454570190E+03  0.16500000000E+03 0.  0.
   -5000001    1    1    2    0    0  0.80962282019E+02 -0.10717952078E+03  0.59484204609E+03  0.63174710176E+03  0.16500000000E+03 0.  0.
<mgrwt>
<rscale>  0 0.45105912E+03</rscale>
<asrwt>0</asrwt>
<pdfrwt beam="1">  1        2 0.14170317E+00 0.45105912E+03</pdfrwt>
<pdfrwt beam="2">  1       -2 0.84957295E-02 0.45105912E+03</pdfrwt>
<totfact> 0.25398058E+03</totfact>
</mgrwt>
</event>
<event>
 4    1  0.8984293E-005  0.5763690E+03  0.7818608E-02  0.9955683E-01
         -2   -1    0    0    0  501 -0.00000000000E+00  0.00000000000E+00  0.48556295258E+02  0.48556295325E+02  0.25500000000E-02 0. -1.
          2   -1    0    0  501    0  0.00000000000E+00 -0.00000000000E+00 -0.17103921332E+04  0.17103921332E+04  0.25500000000E-02 0.  1.
    5000001    1    1    2    0    0 -0.14124845636E+03 -0.86466212423E+02 -0.13451919997E+04  0.13653549166E+04  0.16500000000E+03 0.  0.
   -5000001    1    1    2    0    0  0.14124845636E+03  0.86466212423E+02 -0.31664383827E+03  0.39359351192E+03  0.16500000000E+03 0.  0.
<mgrwt>
<rscale>  0 0.57636900E+03</rscale>
<asrwt>0</asrwt>
<pdfrwt beam="1">  1        2 0.26313721E+00 0.57636900E+03</pdfrwt>
<pdfrwt beam="2">  1       -2 0.74702006E-02 0.57636900E+03</pdfrwt>
<totfact> 0.10889836E+03</totfact>
</mgrwt>
</event>
<event>
 4    1  0.8984293E-005  0.4049174E+03  0.7818608E-02  0.1042090E+00
          2   -1    0    0  501    0  0.00000000000E+00  0.00000000000E+00  0.70405054887E+03  0.70405054887E+03  0.25500000000E-02 0.  1.
         -2   -1    0    0    0  501 -0.00000000000E+00 -0.00000000000E+00 -0.58219570208E+02  0.58219570264E+02  0.25500000000E-02 0. -1.
    5000001    1    1    2    0    0 -0.11335474979E+03 -0.26407244263E+02  0.29512797480E+03  0.35759217463E+03  0.16500000000E+03 0.  0.
   -5000001    1    1    2    0    0  0.11335474979E+03  0.26407244263E+02  0.35070300386E+03  0.40467794451E+03  0.16500000000E+03 0.  0.
<mgrwt>
<rscale>  0 0.40491738E+03</rscale>
<asrwt>0</asrwt>
<pdfrwt beam="1">  1        2 0.10831547E+00 0.40491738E+03</pdfrwt>
<pdfrwt beam="2">  1       -2 0.89568570E-02 0.40491738E+03</pdfrwt>
<totfact> 0.33121586E+03</totfact>
</mgrwt>
</event>
<event>
 4    1  0.8984293E-005  0.4783585E+03  0.7818608E-02  0.1019587E+00
         -2   -1    0    0    0  501 -0.00000000000E+00  0.00000000000E+00  0.17814301738E+03  0.17814301740E+03  0.25500000000E-02 0. -1.
          2   -1    0    0  501    0  0.00000000000E+00 -0.00000000000E+00 -0.32112799260E+03  0.32112799261E+03  0.25500000000E-02 0.  1.
    5000001    1    1    2    0    0  0.51502828998E+02 -0.16391714162E+03 -0.93885972787E+02  0.25604871919E+03  0.16500000000E+03 0.  0.
   -5000001    1    1    2    0    0 -0.51502828998E+02  0.16391714162E+03 -0.49099002429E+02  0.24322229082E+03  0.16500000000E+03 0.  0.
<mgrwt>
<rscale>  0 0.47835848E+03</rscale>
<asrwt>0</asrwt>
<pdfrwt beam="1">  1        2 0.49404306E-01 0.47835848E+03</pdfrwt>
<pdfrwt beam="2">  1       -2 0.27406618E-01 0.47835848E+03</pdfrwt>
<totfact> 0.12318544E+03</totfact>
</mgrwt>
</event>
<event>
 4    1  0.8984293E-005  0.4968976E+03  0.7818608E-02  0.1014592E+00
         -2   -1    0    0    0  501 -0.00000000000E+00  0.00000000000E+00  0.58404344287E+02  0.58404344342E+02  0.25500000000E-02 0. -1.
          2   -1    0    0  501    0  0.00000000000E+00 -0.00000000000E+00 -0.10568873942E+04  0.10568873942E+04  0.25500000000E-02 0.  1.
    5000001    1    1    2    0    0 -0.14239502713E+03  0.10747855093E+03 -0.38317989580E+03  0.45373981003E+03  0.16500000000E+03 0.  0.
   -5000001    1    1    2    0    0  0.14239502713E+03 -0.10747855093E+03 -0.61530315413E+03  0.66155192853E+03  0.16500000000E+03 0.  0.
<mgrwt>
<rscale>  0 0.49689764E+03</rscale>
<asrwt>0</asrwt>
<pdfrwt beam="1">  1        2 0.16259805E+00 0.49689764E+03</pdfrwt>
<pdfrwt beam="2">  1       -2 0.89852845E-02 0.49689764E+03</pdfrwt>
<totfact> 0.19061604E+03</totfact>
</mgrwt>
</event>
<event>
 4    1  0.8984293E-005  0.3831737E+03  0.7818608E-02  0.1049767E+00
         -2   -1    0    0    0  501 -0.00000000000E+00  0.00000000000E+00  0.34851336966E+03  0.34851336967E+03  0.25500000000E-02 0. -1.
          2   -1    0    0  501    0  0.00000000000E+00 -0.00000000000E+00 -0.10532028005E+03  0.10532028008E+03  0.25500000000E-02 0.  1.
    5000001    1    1    2    0    0  0.78639785083E+02 -0.56576883870E+02  0.13316293995E+03  0.23311483900E+03  0.16500000000E+03 0.  0.
   -5000001    1    1    2    0    0 -0.78639785083E+02  0.56576883870E+02  0.11003014966E+03  0.22071881075E+03  0.16500000000E+03 0.  0.
<mgrwt>
<rscale>  0 0.38317372E+03</rscale>
<asrwt>0</asrwt>
<pdfrwt beam="1">  1        2 0.16203120E-01 0.38317372E+03</pdfrwt>
<pdfrwt beam="2">  1       -2 0.53617441E-01 0.38317372E+03</pdfrwt>
<totfact> 0.11932194E+03</totfact>
</mgrwt>
</event>
<event>
 4    1  0.8984293E-005  0.5568699E+03  0.7818608E-02  0.9999162E-01
         -2   -1    0    0    0  501 -0.00000000000E+00  0.00000000000E+00  0.57241853229E+02  0.57241853286E+02  0.25500000000E-02 0. -1.
          2   -1    0    0  501    0  0.00000000000E+00 -0.00000000000E+00 -0.13543592107E+04  0.13543592107E+04  0.25500000000E-02 0.  1.
    5000001    1    1    2    0    0 -0.93651005623E+02 -0.18975486160E+03 -0.46016348415E+03  0.53268456942E+03  0.16500000000E+03 0.  0.
   -5000001    1    1    2    0    0  0.93651005623E+02  0.18975486160E+03 -0.83695387330E+03  0.87891649454E+03  0.16500000000E+03 0.  0.
<mgrwt>
<rscale>  0 0.55686994E+03</rscale>
<asrwt>0</asrwt>
<pdfrwt beam="1">  1        2 0.20836293E+00 0.55686994E+03</pdfrwt>
<pdfrwt beam="2">  1       -2 0.88064399E-02 0.55686994E+03</pdfrwt>
<totfact> 0.13166795E+03</totfact>
</mgrwt>
</event>
<event>
 4    1  0.8984293E-005  0.7575212E+03  0.7818608E-02  0.9623624E-01
          2   -1    0    0  501    0  0.00000000000E+00  0.00000000000E+00  0.23981605360E+03  0.23981605361E+03  0.25500000000E-02 0.  1.
         -2   -1    0    0    0  501 -0.00000000000E+00 -0.00000000000E+00 -0.59820673282E+03  0.59820673283E+03  0.25500000000E-02 0. -1.
    5000001    1    1    2    0    0  0.34069552499E+03  0.74219801727E+01 -0.16780283514E+03  0.41413924955E+03  0.16500000000E+03 0.  0.
   -5000001    1    1    2    0    0 -0.34069552499E+03 -0.74219801727E+01 -0.19058784408E+03  0.42388353689E+03  0.16500000000E+03 0.  0.
<mgrwt>
<rscale>  0 0.75752116E+03</rscale>
<asrwt>0</asrwt>
<pdfrwt beam="1">  1        2 0.36894778E-01 0.75752116E+03</pdfrwt>
<pdfrwt beam="2">  1       -2 0.92031805E-01 0.75752116E+03</pdfrwt>
<totfact> 0.14271616E+02</totfact>
</mgrwt>
</event>
<event>
 4    1  0.8984293E-005  0.6783112E+03  0.7818608E-02  0.9755059E-01
          2   -1    0    0  501    0  0.00000000000E+00  0.00000000000E+00  0.51818819976E+03  0.51818819977E+03  0.25500000000E-02 0.  1.
         -2   -1    0    0    0  501 -0.00000000000E+00 -0.00000000000E+00 -0.22197828114E+03  0.22197828115E+03  0.25500000000E-02 0. -1.
    5000001    1    1    2    0    0 -0.50606601811E+02 -0.26326549596E+03  0.28583621840E+03  0.42520241446E+03  0.16500000000E+03 0.  0.
   -5000001    1    1    2    0    0  0.50606601811E+02  0.26326549596E+03  0.10373700222E+02  0.31496406647E+03  0.16500000000E+03 0.  0.
<mgrwt>
<rscale>  0 0.67831121E+03</rscale>
<asrwt>0</asrwt>
<pdfrwt beam="1">  1        2 0.79721262E-01 0.67831121E+03</pdfrwt>
<pdfrwt beam="2">  1       -2 0.34150504E-01 0.67831121E+03</pdfrwt>
<totfact> 0.47753060E+02</totfact>
</mgrwt>
</event>
<event>
 4    1  0.8984293E-005  0.4559285E+03  0.7818608E-02  0.1025969E+00
          2   -1    0    0  501    0  0.00000000000E+00  0.00000000000E+00  0.34663900278E+03  0.34663900279E+03  0.25500000000E-02 0.  1.
         -2   -1    0    0    0  501 -0.00000000000E+00 -0.00000000000E+00 -0.14991880097E+03  0.14991880099E+03  0.25500000000E-02 0. -1.
    5000001    1    1    2    0    0  0.10410764033E+03  0.11787927680E+03  0.10158707609E+03  0.24955732548E+03  0.16500000000E+03 0.  0.
   -5000001    1    1    2    0    0 -0.10410764033E+03 -0.11787927680E+03  0.95133125721E+02  0.24700047830E+03  0.16500000000E+03 0.  0.
<mgrwt>
<rscale>  0 0.45592852E+03</rscale>
<asrwt>0</asrwt>
<pdfrwt beam="1">  1        2 0.53329076E-01 0.45592852E+03</pdfrwt>
<pdfrwt beam="2">  1       -2 0.23064431E-01 0.45592852E+03</pdfrwt>
<totfact> 0.15416158E+03</totfact>
</mgrwt>
</event>
<event>
 4    1  0.8984293E-005  0.4467931E+03  0.7818608E-02  0.1028683E+00
          2   -1    0    0  501    0  0.00000000000E+00  0.00000000000E+00  0.23548715086E+04  0.23548715086E+04  0.25500000000E-02 0.  1.
         -2   -1    0    0    0  501 -0.00000000000E+00 -0.00000000000E+00 -0.21192668549E+02  0.21192668702E+02  0.25500000000E-02 0. -1.
    5000001    1    1    2    0    0 -0.77840726203E+02  0.12729761758E+03  0.12754563625E+04  0.12947114716E+04  0.16500000000E+03 0.  0.
   -5000001    1    1    2    0    0  0.77840726203E+02 -0.12729761758E+03  0.10582224775E+04  0.10813527057E+04  0.16500000000E+03 0.  0.
<mgrwt>
<rscale>  0 0.44679307E+03</rscale>
<asrwt>0</asrwt>
<pdfrwt beam="1">  1        2 0.36228762E+00 0.44679307E+03</pdfrwt>
<pdfrwt beam="2">  1       -2 0.32604133E-02 0.44679307E+03</pdfrwt>
<totfact> 0.17720028E+03</totfact>
</mgrwt>
</event>
<event>
 4    1  0.8984293E-005  0.6860839E+03  0.7818608E-02  0.9741331E-01
          2   -1    0    0  501    0  0.00000000000E+00  0.00000000000E+00  0.18149118508E+03  0.18149118510E+03  0.25500000000E-02 0. -1.
         -2   -1    0    0    0  501 -0.00000000000E+00 -0.00000000000E+00 -0.64839399163E+03  0.64839399163E+03  0.25500000000E-02 0.  1.
    5000001    1    1    2    0    0  0.18279345949E+03 -0.11673542993E+03 -0.48547811477E+03  0.55673567279E+03  0.16500000000E+03 0.  0.
   -5000001    1    1    2    0    0 -0.18279345949E+03  0.11673542993E+03  0.18575308227E+02  0.27314950395E+03  0.16500000000E+03 0.  0.
<mgrwt>
<rscale>  0 0.68608394E+03</rscale>
<asrwt>0</asrwt>
<pdfrwt beam="1">  1        2 0.27921721E-01 0.68608394E+03</pdfrwt>
<pdfrwt beam="2">  1       -2 0.99752920E-01 0.68608394E+03</pdfrwt>
<totfact> 0.16214445E+02</totfact>
</mgrwt>
</event>
<event>
 4    1  0.8984293E-005  0.9733346E+03  0.7818608E-02  0.9338284E-01
          2   -1    0    0  501    0  0.00000000000E+00  0.00000000000E+00  0.23358102130E+04  0.23358102130E+04  0.25500000000E-02 0.  1.
         -2   -1    0    0    0  501 -0.00000000000E+00 -0.00000000000E+00 -0.10139738545E+03  0.10139738548E+03  0.25500000000E-02 0. -1.
    5000001    1    1    2    0    0  0.23415998233E+03  0.25090702218E+03  0.18760181798E+04  0.19142764801E+04  0.16500000000E+03 0.  0.
   -5000001    1    1    2    0    0 -0.23415998233E+03 -0.25090702218E+03  0.35839464775E+03  0.52293111845E+03  0.16500000000E+03 0.  0.
<mgrwt>
<rscale>  0 0.97333457E+03</rscale>
<asrwt>0</asrwt>
<pdfrwt beam="1">  1        2 0.35935536E+00 0.97333457E+03</pdfrwt>
<pdfrwt beam="2">  1       -2 0.15599600E-01 0.97333457E+03</pdfrwt>
<totfact> 0.14352570E+02</totfact>
</mgrwt>
</event>
<event>
 4    1  0.8984293E-005  0.3908829E+03  0.7818608E-02  0.1046983E+00
         -2   -1    0    0    0  501 -0.00000000000E+00  0.00000000000E+00  0.22769136131E+02  0.22769136274E+02  0.25500000000E-02 0. -1.
          2   -1    0    0  501    0  0.00000000000E+00 -0.00000000000E+00 -0.16775939824E+04  0.16775939824E+04  0.25500000000E-02 0.  1.
    5000001    1    1    2    0    0  0.23394395287E+02 -0.81538016518E+02 -0.56008308785E+03  0.59001170426E+03  0.16500000000E+03 0.  0.
   -5000001    1    1    2    0    0 -0.23394395287E+02  0.81538016518E+02 -0.10947417584E+04  0.11103514144E+04  0.16500000000E+03 0.  0.
<mgrwt>
<rscale>  0 0.39088293E+03</rscale>
<asrwt>0</asrwt>
<pdfrwt beam="1">  1        2 0.25809129E+00 0.39088293E+03</pdfrwt>
<pdfrwt beam="2">  1       -2 0.35029453E-02 0.39088293E+03</pdfrwt>
<totfact> 0.36839980E+03</totfact>
</mgrwt>
</event>
<event>
 4    1  0.8984293E-005  0.4950711E+03  0.7818608E-02  0.1015073E+00
          2   -1    0    0  501    0  0.00000000000E+00  0.00000000000E+00  0.10918522961E+04  0.10918522961E+04  0.25500000000E-02 0.  1.
         -2   -1    0    0    0  501 -0.00000000000E+00 -0.00000000000E+00 -0.56119179410E+02  0.56119179468E+02  0.25500000000E-02 0. -1.
    5000001    1    1    2    0    0  0.18166904787E+03  0.21231765034E+02  0.46133229799E+03  0.52297889056E+03  0.16500000000E+03 0.  0.
   -5000001    1    1    2    0    0 -0.18166904787E+03 -0.21231765034E+02  0.57440081872E+03  0.62499258504E+03  0.16500000000E+03 0.  0.
<mgrwt>
<rscale>  0 0.49507113E+03</rscale>
<asrwt>0</asrwt>
<pdfrwt beam="1">  1        2 0.16797727E+00 0.49507113E+03</pdfrwt>
<pdfrwt beam="2">  1       -2 0.86337204E-02 0.49507113E+03</pdfrwt>
<totfact> 0.19346437E+03</totfact>
</mgrwt>
</event>
<event>
 4    1  0.8984293E-005  0.5836421E+03  0.7818608E-02  0.9939937E-01
         -2   -1    0    0    0  501 -0.00000000000E+00  0.00000000000E+00  0.26200426429E+02  0.26200426553E+02  0.25500000000E-02 0. -1.
          2   -1    0    0  501    0  0.00000000000E+00 -0.00000000000E+00 -0.32503110068E+04  0.32503110068E+04  0.25500000000E-02 0.  1.
    5000001    1    1    2    0    0 -0.71542298448E+02  0.22926847698E+03 -0.17012085555E+04  0.17259831646E+04  0.16500000000E+03 0.  0.
   -5000001    1    1    2    0    0  0.71542298448E+02 -0.22926847698E+03 -0.15229020249E+04  0.15505282688E+04  0.16500000000E+03 0.  0.
<mgrwt>
<rscale>  0 0.58364213E+03</rscale>
<asrwt>0</asrwt>
<pdfrwt beam="1">  1        2 0.50004753E+00 0.58364213E+03</pdfrwt>
<pdfrwt beam="2">  1       -2 0.40308374E-02 0.58364213E+03</pdfrwt>
<totfact> 0.37639800E+02</totfact>
</mgrwt>
</event>
<event>
 4    1  0.8984293E-005  0.5136068E+03  0.7818608E-02  0.1010287E+00
          2   -1    0    0  501    0  0.00000000000E+00  0.00000000000E+00  0.21148732597E+04  0.21148732597E+04  0.25500000000E-02 0.  1.
         -2   -1    0    0    0  501 -0.00000000000E+00 -0.00000000000E+00 -0.31182954150E+02  0.31182954254E+02  0.25500000000E-02 0. -1.
    5000001    1    1    2    0    0 -0.13610388572E+03  0.36316357929E+02  0.16159742681E+04  0.16304726249E+04  0.16500000000E+03 0.  0.
   -5000001    1    1    2    0    0  0.13610388572E+03 -0.36316357929E+02  0.46771603747E+03  0.51558358902E+03  0.16500000000E+03 0.  0.
<mgrwt>
<rscale>  0 0.51360684E+03</rscale>
<asrwt>0</asrwt>
<pdfrwt beam="1">  1        2 0.32536506E+00 0.51360684E+03</pdfrwt>
<pdfrwt beam="2">  1       -2 0.47973784E-02 0.51360684E+03</pdfrwt>
<totfact> 0.13210530E+03</totfact>
</mgrwt>
</event>
<event>
 4    1  0.8984293E-005  0.1024049E+04  0.7818608E-02  0.9282554E-01
          2   -1    0    0  501    0  0.00000000000E+00  0.00000000000E+00  0.51464452488E+03  0.51464452488E+03  0.25500000000E-02 0.  1.
         -2   -1    0    0    0  501 -0.00000000000E+00 -0.00000000000E+00 -0.50941824264E+03  0.50941824264E+03  0.25500000000E-02 0. -1.
    5000001    1    1    2    0    0 -0.20535021424E+03  0.26279800064E+03 -0.34911975763E+03  0.51023632250E+03  0.16500000000E+03 0.  0.
   -5000001    1    1    2    0    0  0.20535021424E+03 -0.26279800064E+03  0.35434603987E+03  0.51382644502E+03  0.16500000000E+03 0.  0.
<mgrwt>
<rscale>  0 0.10240494E+04</rscale>
<asrwt>0</asrwt>
<pdfrwt beam="1">  1        2 0.79176081E-01 0.10240494E+04</pdfrwt>
<pdfrwt beam="2">  1       -2 0.78372037E-01 0.10240494E+04</pdfrwt>
<totfact> 0.86003548E+01</totfact>
</mgrwt>
</event>
<event>
 4    1  0.8984293E-005  0.4471712E+03  0.7818608E-02  0.1028569E+00
          2   -1    0    0  501    0  0.00000000000E+00  0.00000000000E+00  0.19506072954E+03  0.19506072956E+03  0.25500000000E-02 0.  1.
         -2   -1    0    0    0  501 -0.00000000000E+00 -0.00000000000E+00 -0.25628180927E+03  0.25628180928E+03  0.25500000000E-02 0. -1.
    5000001    1    1    2    0    0 -0.87509550125E+02  0.11701645155E+03  0.73534285564E+01  0.22052175450E+03  0.16500000000E+03 0.  0.
   -5000001    1    1    2    0    0  0.87509550125E+02 -0.11701645155E+03 -0.68574508283E+02  0.23082078434E+03  0.16500000000E+03 0.  0.
<mgrwt>
<rscale>  0 0.44717118E+03</rscale>
<asrwt>0</asrwt>
<pdfrwt beam="1">  1        2 0.30009343E-01 0.44717118E+03</pdfrwt>
<pdfrwt beam="2">  1       -2 0.39427971E-01 0.44717118E+03</pdfrwt>
<totfact> 0.10817050E+03</totfact>
</mgrwt>
</event>
<event>
 4    1  0.8984293E-005  0.6244356E+03  0.7818608E-02  0.9855968E-01
         -2   -1    0    0    0  501 -0.00000000000E+00  0.00000000000E+00  0.78229471231E+02  0.78229471273E+02  0.25500000000E-02 0. -1.
          2   -1    0    0  501    0  0.00000000000E+00 -0.00000000000E+00 -0.12460770709E+04  0.12460770709E+04  0.25500000000E-02 0.  1.
    5000001    1    1    2    0    0  0.16830721070E+03  0.13932199763E+03 -0.90216490940E+03  0.94279608609E+03  0.16500000000E+03 0.  0.
   -5000001    1    1    2    0    0 -0.16830721070E+03 -0.13932199763E+03 -0.26568269028E+03  0.38151045610E+03  0.16500000000E+03 0.  0.
<mgrwt>
<rscale>  0 0.62443559E+03</rscale>
<asrwt>0</asrwt>
<pdfrwt beam="1">  1        2 0.19170415E+00 0.62443559E+03</pdfrwt>
<pdfrwt beam="2">  1       -2 0.12035304E-01 0.62443559E+03</pdfrwt>
<totfact> 0.91168422E+02</totfact>
</mgrwt>
</event>
<event>
 4    1  0.8984293E-005  0.3988014E+03  0.7818608E-02  0.1044196E+00
          2   -1    0    0  501    0  0.00000000000E+00  0.00000000000E+00  0.47138934883E+02  0.47138934952E+02  0.25500000000E-02 0.  1.
         -2   -1    0    0    0  501 -0.00000000000E+00 -0.00000000000E+00 -0.84347746379E+03  0.84347746380E+03  0.25500000000E-02 0. -1.
    5000001    1    1    2    0    0  0.25610503895E+02  0.10418077040E+03 -0.32663261732E+03  0.38134419824E+03  0.16500000000E+03 0.  0.
   -5000001    1    1    2    0    0 -0.25610503895E+02 -0.10418077040E+03 -0.46970591159E+03  0.50927220051E+03  0.16500000000E+03 0.  0.
<mgrwt>
<rscale>  0 0.39880135E+03</rscale>
<asrwt>0</asrwt>
<pdfrwt beam="1">  1        2 0.72521444E-02 0.39880135E+03</pdfrwt>
<pdfrwt beam="2">  1       -2 0.12976575E+00 0.39880135E+03</pdfrwt>
<totfact> 0.44399435E+02</totfact>
</mgrwt>
</event>
<event>
 4    1  0.8984293E-005  0.5636621E+03  0.7818608E-02  0.9983802E-01
          2   -1    0    0  501    0  0.00000000000E+00  0.00000000000E+00  0.31418944754E+04  0.31418944754E+04  0.25500000000E-02 0.  1.
         -2   -1    0    0    0  501 -0.00000000000E+00 -0.00000000000E+00 -0.25280520998E+02  0.25280521126E+02  0.25500000000E-02 0. -1.
    5000001    1    1    2    0    0  0.15690806564E+03  0.16125591312E+03  0.17816632422E+04  0.18033780855E+04  0.16500000000E+03 0.  0.
   -5000001    1    1    2    0    0 -0.15690806564E+03 -0.16125591312E+03  0.13349507122E+04  0.13637969111E+04  0.16500000000E+03 0.  0.
<mgrwt>
<rscale>  0 0.56366206E+03</rscale>
<asrwt>0</asrwt>
<pdfrwt beam="1">  1        2 0.48336834E+00 0.56366206E+03</pdfrwt>
<pdfrwt beam="2">  1       -2 0.38893112E-02 0.56366206E+03</pdfrwt>
<totfact> 0.46666488E+02</totfact>
</mgrwt>
</event>
<event>
 4    1  0.8984293E-005  0.6487594E+03  0.7818608E-02  0.9809110E-01
          2   -1    0    0  501    0  0.00000000000E+00  0.00000000000E+00  0.16847635864E+04  0.16847635864E+04  0.25500000000E-02 0.  1.
         -2   -1    0    0    0  501 -0.00000000000E+00 -0.00000000000E+00 -0.62455174184E+02  0.62455174236E+02  0.25500000000E-02 0. -1.
    5000001    1    1    2    0    0 -0.23414106007E+03 -0.14664345764E+03  0.70106769850E+03  0.77139306294E+03  0.16500000000E+03 0.  0.
   -5000001    1    1    2    0    0  0.23414106007E+03  0.14664345764E+03  0.92124071376E+03  0.97582569773E+03  0.16500000000E+03 0.  0.
<mgrwt>
<rscale>  0 0.64875944E+03</rscale>
<asrwt>0</asrwt>
<pdfrwt beam="1">  1        2 0.25919438E+00 0.64875944E+03</pdfrwt>
<pdfrwt beam="2">  1       -2 0.96084891E-02 0.64875944E+03</pdfrwt>
<totfact> 0.74835252E+02</totfact>
</mgrwt>
</event>
<event>
 4    1  0.8984293E-005  0.6875404E+03  0.7818608E-02  0.9738780E-01
          2   -1    0    0  501    0  0.00000000000E+00  0.00000000000E+00  0.49144234411E+03  0.49144234412E+03  0.25500000000E-02 0.  1.
         -2   -1    0    0    0  501 -0.00000000000E+00 -0.00000000000E+00 -0.24047163368E+03  0.24047163370E+03  0.25500000000E-02 0. -1.
    5000001    1    1    2    0    0 -0.25401480077E+03  0.15822451331E+03  0.16523743339E+03  0.37958783571E+03  0.16500000000E+03 0.  0.
   -5000001    1    1    2    0    0  0.25401480077E+03 -0.15822451331E+03  0.85733277040E+02  0.35232614211E+03  0.16500000000E+03 0.  0.
<mgrwt>
<rscale>  0 0.68754038E+03</rscale>
<asrwt>0</asrwt>
<pdfrwt beam="1">  1        2 0.75606515E-01 0.68754038E+03</pdfrwt>
<pdfrwt beam="2">  1       -2 0.36995636E-01 0.68754038E+03</pdfrwt>
<totfact> 0.43585394E+02</totfact>
</mgrwt>
</event>
<event>
 4    1  0.8984293E-005  0.5356002E+03  0.7818608E-02  0.1004883E+00
         -2   -1    0    0    0  501 -0.00000000000E+00  0.00000000000E+00  0.13029291470E+03  0.13029291473E+03  0.25500000000E-02 0. -1.
          2   -1    0    0  501    0  0.00000000000E+00 -0.00000000000E+00 -0.55042811149E+03  0.55042811150E+03  0.25500000000E-02 0.  1.
    5000001    1    1    2    0    0  0.13636493231E+03 -0.16090111738E+03 -0.20662929575E+03  0.33823842212E+03  0.16500000000E+03 0.  0.
   -5000001    1    1    2    0    0 -0.13636493231E+03  0.16090111738E+03 -0.21350590104E+03  0.34248260411E+03  0.16500000000E+03 0.  0.
<mgrwt>
<rscale>  0 0.53560016E+03</rscale>
<asrwt>0</asrwt>
<pdfrwt beam="1">  1        2 0.84681246E-01 0.53560016E+03</pdfrwt>
<pdfrwt beam="2">  1       -2 0.20045064E-01 0.53560016E+03</pdfrwt>
<totfact> 0.11712164E+03</totfact>
</mgrwt>
</event>
<event>
 4    1  0.8984293E-005  0.4570295E+03  0.7818608E-02  0.1025646E+00
         -2   -1    0    0    0  501 -0.00000000000E+00  0.00000000000E+00  0.16886684295E+03  0.16886684297E+03  0.25500000000E-02 0. -1.
          2   -1    0    0  501    0  0.00000000000E+00 -0.00000000000E+00 -0.30923179574E+03  0.30923179575E+03  0.25500000000E-02 0.  1.
    5000001    1    1    2    0    0 -0.12836499953E+03 -0.92071948489E+02 -0.63634500598E+02  0.23712689951E+03  0.16500000000E+03 0.  0.
   -5000001    1    1    2    0    0  0.12836499953E+03  0.92071948489E+02 -0.76730452188E+02  0.24097173921E+03  0.16500000000E+03 0.  0.
<mgrwt>
<rscale>  0 0.45702953E+03</rscale>
<asrwt>0</asrwt>
<pdfrwt beam="1">  1        2 0.47574122E-01 0.45702953E+03</pdfrwt>
<pdfrwt beam="2">  1       -2 0.25979514E-01 0.45702953E+03</pdfrwt>
<totfact> 0.14137080E+03</totfact>
</mgrwt>
</event>
<event>
 4    1  0.8984293E-005  0.4677429E+03  0.7818608E-02  0.1022559E+00
         -2   -1    0    0    0  501 -0.00000000000E+00  0.00000000000E+00  0.51790614034E+02  0.51790614096E+02  0.25500000000E-02 0. -1.
          2   -1    0    0  501    0  0.00000000000E+00 -0.00000000000E+00 -0.10560959607E+04  0.10560959607E+04  0.25500000000E-02 0.  1.
    5000001    1    1    2    0    0 -0.11440114131E+03  0.10795351187E+03 -0.37841217865E+03  0.44177184022E+03  0.16500000000E+03 0.  0.
   -5000001    1    1    2    0    0  0.11440114131E+03 -0.10795351187E+03 -0.62589316805E+03  0.66611473462E+03  0.16500000000E+03 0.  0.
<mgrwt>
<rscale>  0 0.46774291E+03</rscale>
<asrwt>0</asrwt>
<pdfrwt beam="1">  1        2 0.16247629E+00 0.46774291E+03</pdfrwt>
<pdfrwt beam="2">  1       -2 0.79677876E-02 0.46774291E+03</pdfrwt>
<totfact> 0.23114821E+03</totfact>
</mgrwt>
</event>
<event>
 4    1  0.8984293E-005  0.3950940E+03  0.7818608E-02  0.1045492E+00
         -2   -1    0    0    0  501 -0.00000000000E+00  0.00000000000E+00  0.29244112265E+02  0.29244112376E+02  0.25500000000E-02 0. -1.
          2   -1    0    0  501    0  0.00000000000E+00 -0.00000000000E+00 -0.13344507304E+04  0.13344507304E+04  0.25500000000E-02 0.  1.
    5000001    1    1    2    0    0  0.30306553833E+02  0.72721465566E+02 -0.91073203296E+03  0.92890512681E+03  0.16500000000E+03 0.  0.
   -5000001    1    1    2    0    0 -0.30306553833E+02 -0.72721465566E+02 -0.39447458517E+03  0.43478971596E+03  0.16500000000E+03 0.  0.
<mgrwt>
<rscale>  0 0.39509405E+03</rscale>
<asrwt>0</asrwt>
<pdfrwt beam="1">  1        2 0.20530007E+00 0.39509405E+03</pdfrwt>
<pdfrwt beam="2">  1       -2 0.44990952E-02 0.39509405E+03</pdfrwt>
<totfact> 0.38715355E+03</totfact>
</mgrwt>
</event>
<event>
 4    1  0.8984293E-005  0.5458248E+03  0.7818608E-02  0.1002465E+00
         -2   -1    0    0    0  501 -0.00000000000E+00  0.00000000000E+00  0.11825235279E+03  0.11825235282E+03  0.25500000000E-02 0. -1.
          2   -1    0    0  501    0  0.00000000000E+00 -0.00000000000E+00 -0.62984953102E+03  0.62984953102E+03  0.25500000000E-02 0.  1.
    5000001    1    1    2    0    0  0.15621484120E+03 -0.29663818493E+02 -0.45896589065E+03  0.51298899356E+03  0.16500000000E+03 0.  0.
   -5000001    1    1    2    0    0 -0.15621484120E+03  0.29663818493E+02 -0.52631287581E+02  0.23511289027E+03  0.16500000000E+03 0.  0.
<mgrwt>
<rscale>  0 0.54582484E+03</rscale>
<asrwt>0</asrwt>
<pdfrwt beam="1">  1        2 0.96899926E-01 0.54582484E+03</pdfrwt>
<pdfrwt beam="2">  1       -2 0.18192670E-01 0.54582484E+03</pdfrwt>
<totfact> 0.11797804E+03</totfact>
</mgrwt>
</event>
<event>
 4    1  0.8984293E-005  0.5940532E+03  0.7818608E-02  0.9917821E-01
          2   -1    0    0  501    0  0.00000000000E+00  0.00000000000E+00  0.10211146847E+03  0.10211146850E+03  0.25500000000E-02 0.  1.
         -2   -1    0    0    0  501 -0.00000000000E+00 -0.00000000000E+00 -0.86400496092E+03  0.86400496092E+03  0.25500000000E-02 0. -1.
    5000001    1    1    2    0    0  0.21430243336E+03 -0.12275759648E+03 -0.38453013729E+03  0.48588412911E+03  0.16500000000E+03 0.  0.
   -5000001    1    1    2    0    0 -0.21430243336E+03  0.12275759648E+03 -0.37736335517E+03  0.48023230031E+03  0.16500000000E+03 0.  0.
<mgrwt>
<rscale>  0 0.59405325E+03</rscale>
<asrwt>0</asrwt>
<pdfrwt beam="1">  1        2 0.15709457E-01 0.59405325E+03</pdfrwt>
<pdfrwt beam="2">  1       -2 0.13292384E+00 0.59405325E+03</pdfrwt>
<totfact> 0.15791153E+02</totfact>
</mgrwt>
</event>
<event>
 4    1  0.8984293E-005  0.4904970E+03  0.7818608E-02  0.1016290E+00
         -2   -1    0    0    0  501 -0.00000000000E+00  0.00000000000E+00  0.35357245040E+03  0.35357245041E+03  0.25500000000E-02 0. -1.
          2   -1    0    0  501    0  0.00000000000E+00 -0.00000000000E+00 -0.17011173634E+03  0.17011173636E+03  0.25500000000E-02 0.  1.
    5000001    1    1    2    0    0 -0.99318579202E+02  0.14509758573E+03  0.43931429417E+02  0.24509683811E+03  0.16500000000E+03 0.  0.
   -5000001    1    1    2    0    0  0.99318579202E+02 -0.14509758573E+03  0.13952928465E+03  0.27858734866E+03  0.16500000000E+03 0.  0.
<mgrwt>
<rscale>  0 0.49049699E+03</rscale>
<asrwt>0</asrwt>
<pdfrwt beam="1">  1        2 0.26171036E-01 0.49049699E+03</pdfrwt>
<pdfrwt beam="2">  1       -2 0.54395762E-01 0.49049699E+03</pdfrwt>
<totfact> 0.66540380E+02</totfact>
</mgrwt>
</event>
<event>
 4    1  0.8984293E-005  0.6277632E+03  0.7818608E-02  0.9849423E-01
         -2   -1    0    0    0  501 -0.00000000000E+00  0.00000000000E+00  0.11037405873E+03  0.11037405876E+03  0.25500000000E-02 0. -1.
          2   -1    0    0  501    0  0.00000000000E+00 -0.00000000000E+00 -0.89261612271E+03  0.89261612271E+03  0.25500000000E-02 0.  1.
    5000001    1    1    2    0    0 -0.19807173105E+03  0.95046165265E+02 -0.63358784975E+03  0.69059738453E+03  0.16500000000E+03 0.  0.
   -5000001    1    1    2    0    0  0.19807173105E+03 -0.95046165265E+02 -0.14865421423E+03  0.31239279694E+03  0.16500000000E+03 0.  0.
<mgrwt>
<rscale>  0 0.62776322E+03</rscale>
<asrwt>0</asrwt>
<pdfrwt beam="1">  1        2 0.13732555E+00 0.62776322E+03</pdfrwt>
<pdfrwt beam="2">  1       -2 0.16980625E-01 0.62776322E+03</pdfrwt>
<totfact> 0.84657929E+02</totfact>
</mgrwt>
</event>
<event>
 4    1  0.8984293E-005  0.7631273E+03  0.7818608E-02  0.9614978E-01
          2   -1    0    0  501    0  0.00000000000E+00  0.00000000000E+00  0.60583984628E+03  0.60583984629E+03  0.25500000000E-02 0.  1.
         -2   -1    0    0    0  501 -0.00000000000E+00 -0.00000000000E+00 -0.24031239460E+03  0.24031239461E+03  0.25500000000E-02 0. -1.
    5000001    1    1    2    0    0 -0.35511579468E+02  0.34220486519E+03  0.18191770861E+03  0.42271065132E+03  0.16500000000E+03 0.  0.
   -5000001    1    1    2    0    0  0.35511579468E+02 -0.34220486519E+03  0.18360974307E+03  0.42344158958E+03  0.16500000000E+03 0.  0.
<mgrwt>
<rscale>  0 0.76312731E+03</rscale>
<asrwt>0</asrwt>
<pdfrwt beam="1">  1        2 0.93206129E-01 0.76312731E+03</pdfrwt>
<pdfrwt beam="2">  1       -2 0.36971138E-01 0.76312731E+03</pdfrwt>
<totfact> 0.34009176E+02</totfact>
</mgrwt>
</event>
<event>
 4    1  0.8984293E-005  0.5884932E+03  0.7818608E-02  0.9929571E-01
          2   -1    0    0  501    0  0.00000000000E+00  0.00000000000E+00  0.15574212251E+04  0.15574212251E+04  0.25500000000E-02 0.  1.
         -2   -1    0    0    0  501 -0.00000000000E+00 -0.00000000000E+00 -0.55592587668E+02  0.55592587726E+02  0.25500000000E-02 0. -1.
    5000001    1    1    2    0    0  0.24219844706E+03  0.20491892845E+02  0.79645575154E+03  0.84890916451E+03  0.16500000000E+03 0.  0.
   -5000001    1    1    2    0    0 -0.24219844706E+03 -0.20491892845E+02  0.70537288593E+03  0.76410464835E+03  0.16500000000E+03 0.  0.
<mgrwt>
<rscale>  0 0.58849325E+03</rscale>
<asrwt>0</asrwt>
<pdfrwt beam="1">  1        2 0.23960328E+00 0.58849325E+03</pdfrwt>
<pdfrwt beam="2">  1       -2 0.85527054E-02 0.58849325E+03</pdfrwt>
<totfact> 0.10628569E+03</totfact>
</mgrwt>
</event>
<event>
 4    1  0.8984293E-005  0.7231835E+03  0.7818608E-02  0.9678387E-01
         -2   -1    0    0    0  501 -0.00000000000E+00  0.00000000000E+00  0.10922061391E+03  0.10922061394E+03  0.25500000000E-02 0. -1.
          2   -1    0    0  501    0  0.00000000000E+00 -0.00000000000E+00 -0.11971055293E+04  0.11971055293E+04  0.25500000000E-02 0.  1.
    5000001    1    1    2    0    0  0.99471866443E+02  0.78479426448E+01  0.85995253678E+01  0.19301604662E+03  0.16500000000E+03 0.  0.
   -5000001    1    1    2    0    0 -0.99471866443E+02 -0.78479426448E+01 -0.10964844408E+04  0.11133100966E+04  0.16500000000E+03 0.  0.
<mgrwt>
<rscale>  0 0.72318352E+03</rscale>
<asrwt>0</asrwt>
<pdfrwt beam="1">  1        2 0.18417007E+00 0.72318352E+03</pdfrwt>
<pdfrwt beam="2">  1       -2 0.16803172E-01 0.72318352E+03</pdfrwt>
<totfact> 0.55380084E+02</totfact>
</mgrwt>
</event>
<event>
 4    1  0.8984293E-005  0.5738060E+03  0.7818608E-02  0.9961292E-01
          2   -1    0    0  501    0  0.00000000000E+00  0.00000000000E+00  0.17592365911E+04  0.17592365911E+04  0.25500000000E-02 0.  1.
         -2   -1    0    0    0  501 -0.00000000000E+00 -0.00000000000E+00 -0.46789228813E+02  0.46789228882E+02  0.25500000000E-02 0. -1.
    5000001    1    1    2    0    0 -0.13236946029E+03  0.17213989161E+03  0.57586186216E+03  0.63717791910E+03  0.16500000000E+03 0.  0.
   -5000001    1    1    2    0    0  0.13236946029E+03 -0.17213989161E+03  0.11365855001E+04  0.11688479009E+04  0.16500000000E+03 0.  0.
<mgrwt>
<rscale>  0 0.57380597E+03</rscale>
<asrwt>0</asrwt>
<pdfrwt beam="1">  1        2 0.27065175E+00 0.57380597E+03</pdfrwt>
<pdfrwt beam="2">  1       -2 0.71983437E-02 0.57380597E+03</pdfrwt>
<totfact> 0.10867613E+03</totfact>
</mgrwt>
</event>
<event>
 4    1  0.8984293E-005  0.4541408E+03  0.7818608E-02  0.1026494E+00
         -2   -1    0    0    0  501 -0.00000000000E+00  0.00000000000E+00  0.29096533220E+02  0.29096533332E+02  0.25500000000E-02 0. -1.
          2   -1    0    0  501    0  0.00000000000E+00 -0.00000000000E+00 -0.17720657513E+04  0.17720657513E+04  0.25500000000E-02 0.  1.
    5000001    1    1    2    0    0 -0.82567097030E+02 -0.11464872726E+03 -0.60917313818E+03  0.64674459291E+03  0.16500000000E+03 0.  0.
   -5000001    1    1    2    0    0  0.82567097030E+02  0.11464872726E+03 -0.11337960799E+04  0.11544176917E+04  0.16500000000E+03 0.  0.
<mgrwt>
<rscale>  0 0.45414082E+03</rscale>
<asrwt>0</asrwt>
<pdfrwt beam="1">  1        2 0.27262542E+00 0.45414082E+03</pdfrwt>
<pdfrwt beam="2">  1       -2 0.44763911E-02 0.45414082E+03</pdfrwt>
<totfact> 0.22533435E+03</totfact>
</mgrwt>
</event>
<event>
 4    1  0.8984293E-005  0.5509662E+03  0.7818608E-02  0.1001271E+00
         -2   -1    0    0    0  501 -0.00000000000E+00  0.00000000000E+00  0.91833936683E+02  0.91833936718E+02  0.25500000000E-02 0. -1.
          2   -1    0    0  501    0  0.00000000000E+00 -0.00000000000E+00 -0.82639317664E+03  0.82639317665E+03  0.25500000000E-02 0.  1.
    5000001    1    1    2    0    0 -0.21455588896E+03  0.58285879788E+01 -0.45222166719E+03  0.52706511761E+03  0.16500000000E+03 0.  0.
   -5000001    1    1    2    0    0  0.21455588896E+03 -0.58285879788E+01 -0.28233757277E+03  0.39116199576E+03  0.16500000000E+03 0.  0.
<mgrwt>
<rscale>  0 0.55096620E+03</rscale>
<asrwt>0</asrwt>
<pdfrwt beam="1">  1        2 0.12713741E+00 0.55096620E+03</pdfrwt>
<pdfrwt beam="2">  1       -2 0.14128298E-01 0.55096620E+03</pdfrwt>
<totfact> 0.12842857E+03</totfact>
</mgrwt>
</event>
<event>
 4    1  0.8984293E-005  0.3830951E+03  0.7818608E-02  0.1049796E+00
         -2   -1    0    0    0  501 -0.00000000000E+00  0.00000000000E+00  0.61114468604E+02  0.61114468657E+02  0.25500000000E-02 0. -1.
          2   -1    0    0  501    0  0.00000000000E+00 -0.00000000000E+00 -0.60035652803E+03  0.60035652803E+03  0.25500000000E-02 0.  1.
    5000001    1    1    2    0    0 -0.14643418450E+02  0.53344511557E+02 -0.13143077368E+03  0.21808052386E+03  0.16500000000E+03 0.  0.
   -5000001    1    1    2    0    0  0.14643418450E+02 -0.53344511557E+02 -0.40781128574E+03  0.44339047283E+03  0.16500000000E+03 0.  0.
<mgrwt>
<rscale>  0 0.38309513E+03</rscale>
<asrwt>0</asrwt>
<pdfrwt beam="1">  1        2 0.92362538E-01 0.38309513E+03</pdfrwt>
<pdfrwt beam="2">  1       -2 0.94022264E-02 0.38309513E+03</pdfrwt>
<totfact> 0.37119748E+03</totfact>
</mgrwt>
</event>
<event>
 4    1  0.8984293E-005  0.5815793E+03  0.7818608E-02  0.9944378E-01
         -2   -1    0    0    0  501 -0.00000000000E+00  0.00000000000E+00  0.15756546851E+03  0.15756546853E+03  0.25500000000E-02 0. -1.
          2   -1    0    0  501    0  0.00000000000E+00 -0.00000000000E+00 -0.53665702197E+03  0.53665702198E+03  0.25500000000E-02 0.  1.
    5000001    1    1    2    0    0  0.18921118673E+02  0.23760939696E+03 -0.21669734549E+03  0.36193780377E+03  0.16500000000E+03 0.  0.
   -5000001    1    1    2    0    0 -0.18921118673E+02 -0.23760939696E+03 -0.16239420797E+03  0.33228468674E+03  0.16500000000E+03 0.  0.
<mgrwt>
<rscale>  0 0.58157928E+03</rscale>
<asrwt>0</asrwt>
<pdfrwt beam="1">  1        2 0.82562618E-01 0.58157928E+03</pdfrwt>
<pdfrwt beam="2">  1       -2 0.24240842E-01 0.58157928E+03</pdfrwt>
<totfact> 0.86255589E+02</totfact>
</mgrwt>
</event>
<event>
 4    1  0.8984293E-005  0.9138438E+03  0.7818608E-02  0.9408440E-01
         -2   -1    0    0    0  501 -0.00000000000E+00  0.00000000000E+00  0.10032985428E+04  0.10032985428E+04  0.25500000000E-02 0. -1.
          2   -1    0    0  501    0  0.00000000000E+00 -0.00000000000E+00 -0.20809122827E+03  0.20809122829E+03  0.25500000000E-02 0.  1.
    5000001    1    1    2    0    0 -0.15343962403E+03 -0.35167861146E+03  0.15198828249E+03  0.44446259910E+03  0.16500000000E+03 0.  0.
   -5000001    1    1    2    0    0  0.15343962403E+03  0.35167861146E+03  0.64321903207E+03  0.76692717203E+03  0.16500000000E+03 0.  0.
<mgrwt>
<rscale>  0 0.91384381E+03</rscale>
<asrwt>0</asrwt>
<pdfrwt beam="1">  1        2 0.32014035E-01 0.91384381E+03</pdfrwt>
<pdfrwt beam="2">  1       -2 0.15435362E+00 0.91384381E+03</pdfrwt>
<totfact> 0.46024191E+01</totfact>
</mgrwt>
</event>
<event>
 4    1  0.8984293E-005  0.6409049E+03  0.7818608E-02  0.9823997E-01
          2   -1    0    0  501    0  0.00000000000E+00  0.00000000000E+00  0.16626106430E+04  0.16626106430E+04  0.25500000000E-02 0.  1.
         -2   -1    0    0    0  501 -0.00000000000E+00 -0.00000000000E+00 -0.61764173917E+02  0.61764173970E+02  0.25500000000E-02 0. -1.
    5000001    1    1    2    0    0 -0.78203395653E+02 -0.26061959080E+03  0.69880692300E+03  0.76785054394E+03  0.16500000000E+03 0.  0.
   -5000001    1    1    2    0    0  0.78203395653E+02  0.26061959080E+03  0.90203954609E+03  0.95652427304E+03  0.16500000000E+03 0.  0.
<mgrwt>
<rscale>  0 0.64090490E+03</rscale>
<asrwt>0</asrwt>
<pdfrwt beam="1">  1        2 0.25578620E+00 0.64090490E+03</pdfrwt>
<pdfrwt beam="2">  1       -2 0.95021826E-02 0.64090490E+03</pdfrwt>
<totfact> 0.78378566E+02</totfact>
</mgrwt>
</event>
<event>
 4    1  0.8984293E-005  0.6400978E+03  0.7818608E-02  0.9825539E-01
         -2   -1    0    0    0  501 -0.00000000000E+00  0.00000000000E+00  0.85538582776E+02  0.85538582814E+02  0.25500000000E-02 0. -1.
          2   -1    0    0  501    0  0.00000000000E+00 -0.00000000000E+00 -0.11974863794E+04  0.11974863794E+04  0.25500000000E-02 0.  1.
    5000001    1    1    2    0    0  0.12316144158E+03 -0.15448303065E+03 -0.17475159691E+03  0.31112195048E+03  0.16500000000E+03 0.  0.
   -5000001    1    1    2    0    0 -0.12316144158E+03  0.15448303065E+03 -0.93719619967E+03  0.97190301168E+03  0.16500000000E+03 0.  0.
<mgrwt>
<rscale>  0 0.64009777E+03</rscale>
<asrwt>0</asrwt>
<pdfrwt beam="1">  1        2 0.18422866E+00 0.64009777E+03</pdfrwt>
<pdfrwt beam="2">  1       -2 0.13159783E-01 0.64009777E+03</pdfrwt>
<totfact> 0.83896206E+02</totfact>
</mgrwt>
</event>
<event>
 4    1  0.8984293E-005  0.3677474E+03  0.7818608E-02  0.1055558E+00
         -2   -1    0    0    0  501 -0.00000000000E+00  0.00000000000E+00  0.19277781176E+03  0.19277781177E+03  0.25500000000E-02 0. -1.
          2   -1    0    0  501    0  0.00000000000E+00 -0.00000000000E+00 -0.17538082153E+03  0.17538082155E+03  0.25500000000E-02 0.  1.
    5000001    1    1    2    0    0 -0.28544779987E+02 -0.75590802979E+02  0.16173909964E+02  0.18443256037E+03  0.16500000000E+03 0.  0.
   -5000001    1    1    2    0    0  0.28544779987E+02  0.75590802979E+02  0.12230802570E+01  0.18372607296E+03  0.16500000000E+03 0.  0.
<mgrwt>
<rscale>  0 0.36774736E+03</rscale>
<asrwt>0</asrwt>
<pdfrwt beam="1">  1        2 0.26981665E-01 0.36774736E+03</pdfrwt>
<pdfrwt beam="2">  1       -2 0.29658125E-01 0.36774736E+03</pdfrwt>
<totfact> 0.20730305E+03</totfact>
</mgrwt>
</event>
<event>
 4    1  0.8984293E-005  0.5573278E+03  0.7818608E-02  0.9998119E-01
         -2   -1    0    0    0  501 -0.00000000000E+00  0.00000000000E+00  0.46914940808E+02  0.46914940877E+02  0.25500000000E-02 0.  1.
          2   -1    0    0  501    0  0.00000000000E+00 -0.00000000000E+00 -0.16551989111E+04  0.16551989111E+04  0.25500000000E-02 0. -1.
    5000001    1    1    2    0    0 -0.12454341051E+03 -0.24785891018E+02 -0.23849565137E+03  0.31659213069E+03  0.16500000000E+03 0.  0.
   -5000001    1    1    2    0    0  0.12454341051E+03  0.24785891018E+02 -0.13697883189E+04  0.13855217213E+04  0.16500000000E+03 0.  0.
<mgrwt>
<rscale>  0 0.55732776E+03</rscale>
<asrwt>0</asrwt>
<pdfrwt beam="1">  1        2 0.25464594E+00 0.55732776E+03</pdfrwt>
<pdfrwt beam="2">  1       -2 0.72176845E-02 0.55732776E+03</pdfrwt>
<totfact> 0.12332019E+03</totfact>
</mgrwt>
</event>
<event>
 4    1  0.8984293E-005  0.7513453E+03  0.7818608E-02  0.9633242E-01
         -2   -1    0    0    0  501 -0.00000000000E+00  0.00000000000E+00  0.16989541086E+03  0.16989541088E+03  0.25500000000E-02 0. -1.
          2   -1    0    0  501    0  0.00000000000E+00 -0.00000000000E+00 -0.83068707693E+03  0.83068707693E+03  0.25500000000E-02 0.  1.
    5000001    1    1    2    0    0 -0.18094891696E+03 -0.41736666691E+02  0.44905024121E+02  0.25243993560E+03  0.16500000000E+03 0.  0.
   -5000001    1    1    2    0    0  0.18094891696E+03  0.41736666691E+02 -0.70569669018E+03  0.74814255221E+03  0.16500000000E+03 0.  0.
<mgrwt>
<rscale>  0 0.75134525E+03</rscale>
<asrwt>0</asrwt>
<pdfrwt beam="1">  1        2 0.12779801E+00 0.75134525E+03</pdfrwt>
<pdfrwt beam="2">  1       -2 0.26137756E-01 0.75134525E+03</pdfrwt>
<totfact> 0.43524864E+02</totfact>
</mgrwt>
</event>
<event>
 4    1  0.8984293E-005  0.5462705E+03  0.7818608E-02  0.1002361E+00
          2   -1    0    0  501    0  0.00000000000E+00  0.00000000000E+00  0.72469553467E+03  0.72469553468E+03  0.25500000000E-02 0.  1.
         -2   -1    0    0    0  501 -0.00000000000E+00 -0.00000000000E+00 -0.10294373403E+03  0.10294373406E+03  0.25500000000E-02 0. -1.
    5000001    1    1    2    0    0 -0.16857341585E+03 -0.62376369691E+00  0.10225491552E+03  0.25709619476E+03  0.16500000000E+03 0.  0.
   -5000001    1    1    2    0    0  0.16857341585E+03  0.62376369691E+00  0.51949688512E+03  0.57054307398E+03  0.16500000000E+03 0.  0.
<mgrwt>
<rscale>  0 0.54627050E+03</rscale>
<asrwt>0</asrwt>
<pdfrwt beam="1">  1        2 0.11149162E+00 0.54627050E+03</pdfrwt>
<pdfrwt beam="2">  1       -2 0.15837498E-01 0.54627050E+03</pdfrwt>
<totfact> 0.12564646E+03</totfact>
</mgrwt>
</event>
<event>
 4    1  0.8984293E-005  0.4377189E+03  0.7818608E-02  0.1031449E+00
          2   -1    0    0  501    0  0.00000000000E+00  0.00000000000E+00  0.34870316788E+03  0.34870316789E+03  0.25500000000E-02 0.  1.
         -2   -1    0    0    0  501 -0.00000000000E+00 -0.00000000000E+00 -0.13736457280E+03  0.13736457282E+03  0.25500000000E-02 0. -1.
    5000001    1    1    2    0    0 -0.13673700194E+03  0.34418550515E+02  0.13693643099E+03  0.25662858463E+03  0.16500000000E+03 0.  0.
   -5000001    1    1    2    0    0  0.13673700194E+03 -0.34418550515E+02  0.74402164093E+02  0.22943915608E+03  0.16500000000E+03 0.  0.
<mgrwt>
<rscale>  0 0.43771891E+03</rscale>
<asrwt>0</asrwt>
<pdfrwt beam="1">  1        2 0.53646640E-01 0.43771891E+03</pdfrwt>
<pdfrwt beam="2">  1       -2 0.21133012E-01 0.43771891E+03</pdfrwt>
<totfact> 0.17850100E+03</totfact>
</mgrwt>
</event>
<event>
 4    1  0.8984293E-005  0.3807492E+03  0.7818608E-02  0.1050657E+00
          2   -1    0    0  501    0  0.00000000000E+00  0.00000000000E+00  0.27198782047E+03  0.27198782048E+03  0.25500000000E-02 0.  1.
         -2   -1    0    0    0  501 -0.00000000000E+00 -0.00000000000E+00 -0.13325038190E+03  0.13325038193E+03  0.25500000000E-02 0. -1.
    5000001    1    1    2    0    0  0.82108087509E+02 -0.31833083595E+02  0.31553247392E+02  0.18967258807E+03  0.16500000000E+03 0.  0.
   -5000001    1    1    2    0    0 -0.82108087509E+02  0.31833083595E+02  0.10718419117E+03  0.21556561433E+03  0.16500000000E+03 0.  0.
<mgrwt>
<rscale>  0 0.38074916E+03</rscale>
<asrwt>0</asrwt>
<pdfrwt beam="1">  1        2 0.41844280E-01 0.38074916E+03</pdfrwt>
<pdfrwt beam="2">  1       -2 0.20500059E-01 0.38074916E+03</pdfrwt>
<totfact> 0.24642105E+03</totfact>
</mgrwt>
</event>
<event>
 4    1  0.8984293E-005  0.5961968E+03  0.7818608E-02  0.9913328E-01
          2   -1    0    0  501    0  0.00000000000E+00  0.00000000000E+00  0.30608681174E+04  0.30608681174E+04  0.25500000000E-02 0.  1.
         -2   -1    0    0    0  501 -0.00000000000E+00 -0.00000000000E+00 -0.29031845861E+02  0.29031845973E+02  0.25500000000E-02 0. -1.
    5000001    1    1    2    0    0 -0.24105334752E+03  0.30092415906E+02  0.17814710167E+04  0.18055127397E+04  0.16500000000E+03 0.  0.
   -5000001    1    1    2    0    0  0.24105334752E+03 -0.30092415906E+02  0.12503652548E+04  0.12843872237E+04  0.16500000000E+03 0.  0.
<mgrwt>
<rscale>  0 0.59619678E+03</rscale>
<asrwt>0</asrwt>
<pdfrwt beam="1">  1        2 0.47090266E+00 0.59619678E+03</pdfrwt>
<pdfrwt beam="2">  1       -2 0.44664390E-02 0.59619678E+03</pdfrwt>
<totfact> 0.42175148E+02</totfact>
</mgrwt>
</event>
<event>
 4    1  0.8984293E-005  0.6273609E+03  0.7818608E-02  0.9850212E-01
         -2   -1    0    0    0  501 -0.00000000000E+00  0.00000000000E+00  0.11255825950E+04  0.11255825950E+04  0.25500000000E-02 0. -1.
          2   -1    0    0  501    0  0.00000000000E+00 -0.00000000000E+00 -0.87417326623E+02  0.87417326660E+02  0.25500000000E-02 0.  1.
    5000001    1    1    2    0    0  0.66716122722E+02  0.18105983634E+03  0.16289549100E+03  0.30165153134E+03  0.16500000000E+03 0.  0.
   -5000001    1    1    2    0    0 -0.66716122722E+02 -0.18105983634E+03  0.87526977735E+03  0.91134839030E+03  0.16500000000E+03 0.  0.
<mgrwt>
<rscale>  0 0.62736089E+03</rscale>
<asrwt>0</asrwt>
<pdfrwt beam="1">  1        2 0.13448819E-01 0.62736089E+03</pdfrwt>
<pdfrwt beam="2">  1       -2 0.17316656E+00 0.62736089E+03</pdfrwt>
<totfact> 0.94562988E+01</totfact>
</mgrwt>
</event>
<event>
 4    1  0.8984293E-005  0.7824611E+03  0.7818608E-02  0.9585757E-01
         -2   -1    0    0    0  501 -0.00000000000E+00  0.00000000000E+00  0.53743092102E+02  0.53743092163E+02  0.25500000000E-02 0.  1.
          2   -1    0    0  501    0  0.00000000000E+00 -0.00000000000E+00 -0.28480186192E+04  0.28480186192E+04  0.25500000000E-02 0. -1.
    5000001    1    1    2    0    0 -0.24866099121E+03  0.13703256234E+03 -0.21858047400E+04  0.22103342673E+04  0.16500000000E+03 0.  0.
   -5000001    1    1    2    0    0  0.24866099121E+03 -0.13703256234E+03 -0.60847078712E+03  0.69142744411E+03  0.16500000000E+03 0.  0.
<mgrwt>
<rscale>  0 0.78246106E+03</rscale>
<asrwt>0</asrwt>
<pdfrwt beam="1">  1        2 0.43815659E+00 0.78246106E+03</pdfrwt>
<pdfrwt beam="2">  1       -2 0.82681702E-02 0.78246106E+03</pdfrwt>
<totfact> 0.21109063E+02</totfact>
</mgrwt>
</event>
<event>
 4    1  0.8984293E-005  0.6051645E+03  0.7818608E-02  0.9894749E-01
          2   -1    0    0  501    0  0.00000000000E+00  0.00000000000E+00  0.33371204740E+03  0.33371204741E+03  0.25500000000E-02 0.  1.
         -2   -1    0    0    0  501 -0.00000000000E+00 -0.00000000000E+00 -0.27435631363E+03  0.27435631365E+03  0.25500000000E-02 0. -1.
    5000001    1    1    2    0    0 -0.97061113596E+02 -0.97833680428E+02 -0.18427278229E+03  0.28314969025E+03  0.16500000000E+03 0.  0.
   -5000001    1    1    2    0    0  0.97061113596E+02  0.97833680428E+02  0.24362851605E+03  0.32491867080E+03  0.16500000000E+03 0.  0.
<mgrwt>
<rscale>  0 0.60516446E+03</rscale>
<asrwt>0</asrwt>
<pdfrwt beam="1">  1        2 0.51340315E-01 0.60516446E+03</pdfrwt>
<pdfrwt beam="2">  1       -2 0.42208664E-01 0.60516446E+03</pdfrwt>
<totfact> 0.52272671E+02</totfact>
</mgrwt>
</event>
<event>
 4    1  0.8984293E-005  0.5028475E+03  0.7818608E-02  0.1013038E+00
          2   -1    0    0  501    0  0.00000000000E+00  0.00000000000E+00  0.13993199082E+04  0.13993199082E+04  0.25500000000E-02 0.  1.
         -2   -1    0    0    0  501 -0.00000000000E+00 -0.00000000000E+00 -0.45174725232E+02  0.45174725304E+02  0.25500000000E-02 0. -1.
    5000001    1    1    2    0    0 -0.16340040712E+03 -0.27220518026E+02  0.94266649041E+03  0.97122899555E+03  0.16500000000E+03 0.  0.
   -5000001    1    1    2    0    0  0.16340040712E+03  0.27220518026E+02  0.41147869258E+03  0.47326563799E+03  0.16500000000E+03 0.  0.
<mgrwt>
<rscale>  0 0.50284746E+03</rscale>
<asrwt>0</asrwt>
<pdfrwt beam="1">  1        2 0.21528000E+00 0.50284746E+03</pdfrwt>
<pdfrwt beam="2">  1       -2 0.69499571E-02 0.50284746E+03</pdfrwt>
<totfact> 0.18125714E+03</totfact>
</mgrwt>
</event>
<event>
 4    1  0.8984293E-005  0.1501328E+04  0.7818608E-02  0.8883571E-01
         -2   -1    0    0    0  501 -0.00000000000E+00  0.00000000000E+00  0.76167460056E+03  0.76167460056E+03  0.25500000000E-02 0. -1.
          2   -1    0    0  501    0  0.00000000000E+00 -0.00000000000E+00 -0.73981213193E+03  0.73981213193E+03  0.25500000000E-02 0.  1.
    5000001    1    1    2    0    0 -0.59544658941E+03  0.41460180131E+03 -0.88174254551E+02  0.74930033609E+03  0.16500000000E+03 0.  0.
   -5000001    1    1    2    0    0  0.59544658941E+03 -0.41460180131E+03  0.11003672318E+03  0.75218639641E+03  0.16500000000E+03 0.  0.
<mgrwt>
<rscale>  0 0.15013276E+04</rscale>
<asrwt>0</asrwt>
<pdfrwt beam="1">  1        2 0.11381725E+00 0.15013276E+04</pdfrwt>
<pdfrwt beam="2">  1       -2 0.11718071E+00 0.15013276E+04</pdfrwt>
<totfact> 0.20765745E+01</totfact>
</mgrwt>
</event>
<event>
 4    1  0.8984293E-005  0.8132621E+03  0.7818608E-02  0.9541017E-01
         -2   -1    0    0    0  501 -0.00000000000E+00  0.00000000000E+00  0.25562212905E+03  0.25562212907E+03  0.25500000000E-02 0. -1.
          2   -1    0    0  501    0  0.00000000000E+00 -0.00000000000E+00 -0.64684856657E+03  0.64684856657E+03  0.25500000000E-02 0.  1.
    5000001    1    1    2    0    0 -0.16398420329E+03  0.32470344053E+03 -0.11109672830E+03  0.41459694434E+03  0.16500000000E+03 0.  0.
   -5000001    1    1    2    0    0  0.16398420329E+03 -0.32470344053E+03 -0.28012970921E+03  0.48787375129E+03  0.16500000000E+03 0.  0.
<mgrwt>
<rscale>  0 0.81326209E+03</rscale>
<asrwt>0</asrwt>
<pdfrwt beam="1">  1        2 0.99515163E-01 0.81326209E+03</pdfrwt>
<pdfrwt beam="2">  1       -2 0.39326482E-01 0.81326209E+03</pdfrwt>
<totfact> 0.27806778E+02</totfact>
</mgrwt>
</event>
<event>
 4    1  0.8984293E-005  0.3890427E+03  0.7818608E-02  0.1047641E+00
          2   -1    0    0  501    0  0.00000000000E+00  0.00000000000E+00  0.11416619741E+03  0.11416619744E+03  0.25500000000E-02 0.  1.
         -2   -1    0    0    0  501 -0.00000000000E+00 -0.00000000000E+00 -0.33143403701E+03  0.33143403702E+03  0.25500000000E-02 0. -1.
    5000001    1    1    2    0    0 -0.18673035018E+02  0.10093074752E+03 -0.11874089302E+03  0.22772812234E+03  0.16500000000E+03 0.  0.
   -5000001    1    1    2    0    0  0.18673035018E+02 -0.10093074752E+03 -0.98526946582E+02  0.21787211211E+03  0.16500000000E+03 0.  0.
<mgrwt>
<rscale>  0 0.38904274E+03</rscale>
<asrwt>0</asrwt>
<pdfrwt beam="1">  1        2 0.17564031E-01 0.38904274E+03</pdfrwt>
<pdfrwt beam="2">  1       -2 0.50989851E-01 0.38904274E+03</pdfrwt>
<totfact> 0.12013243E+03</totfact>
</mgrwt>
</event>
<event>
 4    1  0.8984293E-005  0.4072896E+03  0.7818608E-02  0.1041284E+00
         -2   -1    0    0    0  501 -0.00000000000E+00  0.00000000000E+00  0.33417937970E+02  0.33417938068E+02  0.25500000000E-02 0. -1.
          2   -1    0    0  501    0  0.00000000000E+00 -0.00000000000E+00 -0.12409864762E+04  0.12409864762E+04  0.25500000000E-02 0.  1.
    5000001    1    1    2    0    0 -0.68467916279E+02  0.53708347882E+02 -0.34816744124E+03  0.39499115095E+03  0.16500000000E+03 0.  0.
   -5000001    1    1    2    0    0  0.68467916279E+02 -0.53708347882E+02 -0.85940109704E+03  0.87941326337E+03  0.16500000000E+03 0.  0.
<mgrwt>
<rscale>  0 0.40728962E+03</rscale>
<asrwt>0</asrwt>
<pdfrwt beam="1">  1        2 0.19092096E+00 0.40728962E+03</pdfrwt>
<pdfrwt beam="2">  1       -2 0.51412222E-02 0.40728962E+03</pdfrwt>
<totfact> 0.35631328E+03</totfact>
</mgrwt>
</event>
<event>
 4    1  0.8984293E-005  0.4458785E+03  0.7818608E-02  0.1028958E+00
          2   -1    0    0  501    0  0.00000000000E+00  0.00000000000E+00  0.10671462437E+04  0.10671462437E+04  0.25500000000E-02 0.  1.
         -2   -1    0    0    0  501 -0.00000000000E+00 -0.00000000000E+00 -0.46574596069E+02  0.46574596139E+02  0.25500000000E-02 0. -1.
    5000001    1    1    2    0    0 -0.10627077516E+03 -0.45284629637E+02  0.27158158017E+03  0.33812088079E+03  0.16500000000E+03 0.  0.
   -5000001    1    1    2    0    0  0.10627077516E+03  0.45284629637E+02  0.74899006747E+03  0.77559995906E+03  0.16500000000E+03 0.  0.
<mgrwt>
<rscale>  0 0.44587848E+03</rscale>
<asrwt>0</asrwt>
<pdfrwt beam="1">  1        2 0.16417635E+00 0.44587848E+03</pdfrwt>
<pdfrwt beam="2">  1       -2 0.71653222E-02 0.44587848E+03</pdfrwt>
<totfact> 0.26912135E+03</totfact>
</mgrwt>
</event>
<event>
 4    1  0.8984293E-005  0.4798029E+03  0.7818608E-02  0.1019189E+00
         -2   -1    0    0    0  501 -0.00000000000E+00  0.00000000000E+00  0.19239972980E+03  0.19239972982E+03  0.25500000000E-02 0. -1.
          2   -1    0    0  501    0  0.00000000000E+00 -0.00000000000E+00 -0.29913094476E+03  0.29913094478E+03  0.25500000000E-02 0.  1.
    5000001    1    1    2    0    0  0.16602845998E+03  0.28768537217E+02 -0.83060195019E+01  0.23598107597E+03  0.16500000000E+03 0.  0.
   -5000001    1    1    2    0    0 -0.16602845998E+03 -0.28768537217E+02 -0.98425195461E+02  0.25554959862E+03  0.16500000000E+03 0.  0.
<mgrwt>
<rscale>  0 0.47980293E+03</rscale>
<asrwt>0</asrwt>
<pdfrwt beam="1">  1        2 0.46020145E-01 0.47980293E+03</pdfrwt>
<pdfrwt beam="2">  1       -2 0.29599958E-01 0.47980293E+03</pdfrwt>
<totfact> 0.11571169E+03</totfact>
</mgrwt>
</event>
<event>
 4    1  0.8984293E-005  0.9686822E+03  0.7818608E-02  0.9343577E-01
          2   -1    0    0  501    0  0.00000000000E+00  0.00000000000E+00  0.49727759829E+03  0.49727759830E+03  0.25500000000E-02 0.  1.
         -2   -1    0    0    0  501 -0.00000000000E+00 -0.00000000000E+00 -0.47174112519E+03  0.47174112520E+03  0.25500000000E-02 0. -1.
    5000001    1    1    2    0    0  0.36266046484E+03 -0.27105938191E+03 -0.35884989437E+02  0.48322720717E+03  0.16500000000E+03 0.  0.
   -5000001    1    1    2    0    0 -0.36266046484E+03  0.27105938191E+03  0.61421462532E+02  0.48579151633E+03  0.16500000000E+03 0.  0.
<mgrwt>
<rscale>  0 0.96868218E+03</rscale>
<asrwt>0</asrwt>
<pdfrwt beam="1">  1        2 0.76504246E-01 0.96868218E+03</pdfrwt>
<pdfrwt beam="2">  1       -2 0.72575558E-01 0.96868218E+03</pdfrwt>
<totfact> 0.10650270E+02</totfact>
</mgrwt>
</event>
<event>
 4    1  0.8984293E-005  0.6305812E+03  0.7818608E-02  0.9843915E-01
         -2   -1    0    0    0  501 -0.00000000000E+00  0.00000000000E+00  0.51771949857E+02  0.51771949920E+02  0.25500000000E-02 0. -1.
          2   -1    0    0  501    0  0.00000000000E+00 -0.00000000000E+00 -0.19201164544E+04  0.19201164544E+04  0.25500000000E-02 0.  1.
    5000001    1    1    2    0    0  0.25177031620E+03 -0.89628943405E+02 -0.10204672708E+04  0.10677078675E+04  0.16500000000E+03 0.  0.
   -5000001    1    1    2    0    0 -0.25177031620E+03  0.89628943405E+02 -0.84787723376E+03  0.90418053681E+03  0.16500000000E+03 0.  0.
<mgrwt>
<rscale>  0 0.63058123E+03</rscale>
<asrwt>0</asrwt>
<pdfrwt beam="1">  1        2 0.29540248E+00 0.63058123E+03</pdfrwt>
<pdfrwt beam="2">  1       -2 0.79649169E-02 0.63058123E+03</pdfrwt>
<totfact> 0.75470657E+02</totfact>
</mgrwt>
</event>
<event>
 4    1  0.8984293E-005  0.5570323E+03  0.7818608E-02  0.9998792E-01
         -2   -1    0    0    0  501 -0.00000000000E+00  0.00000000000E+00  0.48997499895E+03  0.48997499896E+03  0.25500000000E-02 0. -1.
          2   -1    0    0  501    0  0.00000000000E+00 -0.00000000000E+00 -0.15831674322E+03  0.15831674324E+03  0.25500000000E-02 0.  1.
    5000001    1    1    2    0    0  0.17873418100E+03 -0.11303603955E+03  0.78555790871E+02  0.27949788188E+03  0.16500000000E+03 0.  0.
   -5000001    1    1    2    0    0 -0.17873418100E+03  0.11303603955E+03  0.25310246486E+03  0.36879386032E+03  0.16500000000E+03 0.  0.
<mgrwt>
<rscale>  0 0.55703230E+03</rscale>
<asrwt>0</asrwt>
<pdfrwt beam="1">  1        2 0.24356423E-01 0.55703230E+03</pdfrwt>
<pdfrwt beam="2">  1       -2 0.75380766E-01 0.55703230E+03</pdfrwt>
<totfact> 0.36030001E+02</totfact>
</mgrwt>
</event>
<event>
 4    1  0.8984293E-005  0.6002983E+03  0.7818608E-02  0.9904787E-01
          2   -1    0    0  501    0  0.00000000000E+00  0.00000000000E+00  0.10648684652E+04  0.10648684652E+04  0.25500000000E-02 0.  1.
         -2   -1    0    0    0  501 -0.00000000000E+00 -0.00000000000E+00 -0.84601546183E+02  0.84601546221E+02  0.25500000000E-02 0. -1.
    5000001    1    1    2    0    0 -0.62146017540E+02  0.20223713096E+03  0.23250122354E+03  0.35502648293E+03  0.16500000000E+03 0.  0.
   -5000001    1    1    2    0    0  0.62146017540E+02 -0.20223713096E+03  0.74776569547E+03  0.79444352849E+03  0.16500000000E+03 0.  0.
<mgrwt>
<rscale>  0 0.60029832E+03</rscale>
<asrwt>0</asrwt>
<pdfrwt beam="1">  1        2 0.16382591E+00 0.60029832E+03</pdfrwt>
<pdfrwt beam="2">  1       -2 0.13015623E-01 0.60029832E+03</pdfrwt>
<totfact> 0.10281202E+03</totfact>
</mgrwt>
</event>
<event>
 4    1  0.8984293E-005  0.5839519E+03  0.7818608E-02  0.9939272E-01
         -2   -1    0    0    0  501 -0.00000000000E+00  0.00000000000E+00  0.10534016511E+03  0.10534016514E+03  0.25500000000E-02 0. -1.
          2   -1    0    0  501    0  0.00000000000E+00 -0.00000000000E+00 -0.80928251038E+03  0.80928251038E+03  0.25500000000E-02 0.  1.
    5000001    1    1    2    0    0  0.12438621257E+03 -0.16490703200E+03 -0.15786379584E+03  0.30791595788E+03  0.16500000000E+03 0.  0.
   -5000001    1    1    2    0    0 -0.12438621257E+03  0.16490703200E+03 -0.54607854943E+03  0.60670671764E+03  0.16500000000E+03 0.  0.
<mgrwt>
<rscale>  0 0.58395189E+03</rscale>
<asrwt>0</asrwt>
<pdfrwt beam="1">  1        2 0.12450500E+00 0.58395189E+03</pdfrwt>
<pdfrwt beam="2">  1       -2 0.16206180E-01 0.58395189E+03</pdfrwt>
<totfact> 0.10473456E+03</totfact>
</mgrwt>
</event>
<event>
 4    1  0.8984293E-005  0.5633836E+03  0.7818608E-02  0.9984428E-01
          2   -1    0    0  501    0  0.00000000000E+00  0.00000000000E+00  0.10531934891E+04  0.10531934891E+04  0.25500000000E-02 0.  1.
         -2   -1    0    0    0  501 -0.00000000000E+00 -0.00000000000E+00 -0.75342529897E+02  0.75342529940E+02  0.25500000000E-02 0. -1.
    5000001    1    1    2    0    0  0.19604399098E+03  0.11400846739E+03  0.54169918071E+03  0.60999522901E+03  0.16500000000E+03 0.  0.
   -5000001    1    1    2    0    0 -0.19604399098E+03 -0.11400846739E+03  0.43615177846E+03  0.51854079000E+03  0.16500000000E+03 0.  0.
<mgrwt>
<rscale>  0 0.56338357E+03</rscale>
<asrwt>0</asrwt>
<pdfrwt beam="1">  1        2 0.16202975E+00 0.56338357E+03</pdfrwt>
<pdfrwt beam="2">  1       -2 0.11591159E-01 0.56338357E+03</pdfrwt>
<totfact> 0.12667944E+03</totfact>
</mgrwt>
</event>
<event>
 4    1  0.8984293E-005  0.3986031E+03  0.7818608E-02  0.1044264E+00
          2   -1    0    0  501    0  0.00000000000E+00  0.00000000000E+00  0.98101937303E+02  0.98101937336E+02  0.25500000000E-02 0.  1.
         -2   -1    0    0    0  501 -0.00000000000E+00 -0.00000000000E+00 -0.40489630417E+03  0.40489630417E+03  0.25500000000E-02 0. -1.
    5000001    1    1    2    0    0  0.10895495879E+03  0.24448729042E+02 -0.15997706491E+03  0.25551239636E+03  0.16500000000E+03 0.  0.
   -5000001    1    1    2    0    0 -0.10895495879E+03 -0.24448729042E+02 -0.14681730195E+03  0.24748584515E+03  0.16500000000E+03 0.  0.
<mgrwt>
<rscale>  0 0.39860312E+03</rscale>
<asrwt>0</asrwt>
<pdfrwt beam="1">  1        2 0.15092606E-01 0.39860312E+03</pdfrwt>
<pdfrwt beam="2">  1       -2 0.62291738E-01 0.39860312E+03</pdfrwt>
<totfact> 0.95236521E+02</totfact>
</mgrwt>
</event>
<event>
 4    1  0.8984293E-005  0.5592650E+03  0.7818608E-02  0.9993719E-01
          2   -1    0    0  501    0  0.00000000000E+00  0.00000000000E+00  0.96131672196E+03  0.96131672196E+03  0.25500000000E-02 0. -1.
         -2   -1    0    0    0  501 -0.00000000000E+00 -0.00000000000E+00 -0.81340864579E+02  0.81340864619E+02  0.25500000000E-02 0.  1.
    5000001    1    1    2    0    0  0.21826577563E+03  0.14117653531E+02  0.33568379070E+03  0.43329881639E+03  0.16500000000E+03 0.  0.
   -5000001    1    1    2    0    0 -0.21826577563E+03 -0.14117653531E+02  0.54429206668E+03  0.60935877018E+03  0.16500000000E+03 0.  0.
<mgrwt>
<rscale>  0 0.55926499E+03</rscale>
<asrwt>0</asrwt>
<pdfrwt beam="1">  1        2 0.14789488E+00 0.55926499E+03</pdfrwt>
<pdfrwt beam="2">  1       -2 0.12513979E-01 0.55926499E+03</pdfrwt>
<totfact> 0.12760249E+03</totfact>
</mgrwt>
</event>
<event>
 4    1  0.8984293E-005  0.3476758E+03  0.7818608E-02  0.1063573E+00
          2   -1    0    0  501    0  0.00000000000E+00  0.00000000000E+00  0.79505484491E+03  0.79505484491E+03  0.25500000000E-02 0.  1.
         -2   -1    0    0    0  501 -0.00000000000E+00 -0.00000000000E+00 -0.38009482966E+02  0.38009483052E+02  0.25500000000E-02 0. -1.
    5000001    1    1    2    0    0 -0.45310941802E+02 -0.69182820810E+01  0.45015267693E+03  0.48162576408E+03  0.16500000000E+03 0.  0.
   -5000001    1    1    2    0    0  0.45310941802E+02  0.69182820810E+01  0.30689268500E+03  0.35143856388E+03  0.16500000000E+03 0.  0.
<mgrwt>
<rscale>  0 0.34767585E+03</rscale>
<asrwt>0</asrwt>
<pdfrwt beam="1">  1        2 0.12231612E+00 0.34767585E+03</pdfrwt>
<pdfrwt beam="2">  1       -2 0.58476132E-02 0.34767585E+03</pdfrwt>
<totfact> 0.55291177E+03</totfact>
</mgrwt>
</event>
<event>
 4    1  0.8984293E-005  0.6835550E+03  0.7818608E-02  0.9745776E-01
         -2   -1    0    0    0  501 -0.00000000000E+00  0.00000000000E+00  0.50231154844E+03  0.50231154845E+03  0.25500000000E-02 0. -1.
          2   -1    0    0  501    0  0.00000000000E+00 -0.00000000000E+00 -0.23254862066E+03  0.23254862067E+03  0.25500000000E-02 0.  1.
    5000001    1    1    2    0    0 -0.17313805108E+03  0.23865965163E+03  0.79522388165E+02  0.34710808730E+03  0.16500000000E+03 0.  0.
   -5000001    1    1    2    0    0  0.17313805108E+03 -0.23865965163E+03  0.19024053961E+03  0.38775208183E+03  0.16500000000E+03 0.  0.
<mgrwt>
<rscale>  0 0.68355499E+03</rscale>
<asrwt>0</asrwt>
<pdfrwt beam="1">  1        2 0.35776711E-01 0.68355499E+03</pdfrwt>
<pdfrwt beam="2">  1       -2 0.77278700E-01 0.68355499E+03</pdfrwt>
<totfact> 0.22023208E+02</totfact>
</mgrwt>
</event>
<event>
 4    1  0.8984293E-005  0.4905279E+03  0.7818608E-02  0.1016281E+00
          2   -1    0    0  501    0  0.00000000000E+00  0.00000000000E+00  0.15123386766E+04  0.15123386766E+04  0.25500000000E-02 0.  1.
         -2   -1    0    0    0  501 -0.00000000000E+00 -0.00000000000E+00 -0.39775750899E+02  0.39775750981E+02  0.25500000000E-02 0. -1.
    5000001    1    1    2    0    0  0.11680184650E+02  0.11053761713E+03  0.28241952298E+03  0.34545734682E+03  0.16500000000E+03 0.  0.
   -5000001    1    1    2    0    0 -0.11680184650E+02 -0.11053761713E+03  0.11901434027E+04  0.12066570808E+04  0.16500000000E+03 0.  0.
<mgrwt>
<rscale>  0 0.49052791E+03</rscale>
<asrwt>0</asrwt>
<pdfrwt beam="1">  1        2 0.23266745E+00 0.49052791E+03</pdfrwt>
<pdfrwt beam="2">  1       -2 0.61193472E-02 0.49052791E+03</pdfrwt>
<totfact> 0.19173524E+03</totfact>
</mgrwt>
</event>
