<event>
 8    1  0.1649749E-011  0.2093306E+04  0.7818608E-02  0.8564198E-01
          3   -1    0    0  501    0  0.00000000000E+00  0.00000000000E+00  0.30093852960E+04  0.30093852977E+04  0.10100000000E+00 0.  1.
         -3   -1    0    0    0  501 -0.00000000000E+00 -0.00000000000E+00 -0.36402203325E+03  0.36402204726E+03  0.10100000000E+00 0. -1.
     200001    2    1    2    0    0  0.37217251503E+03 -0.68187354313E+03  0.12545366046E+04  0.16333318573E+04  0.70031918010E+03 0.  0.
    5000001    2    3    3    0    0  0.59600230028E+02 -0.20147218688E+03  0.43507911750E+03  0.51529900017E+03  0.17915354194E+03 0.  0.
        -11    1    4    4    0    0  0.65187374329E+02 -0.14499126856E+02  0.41839999733E+02  0.78804847753E+02  0.51100000000E-03 0. -1.
     200002    1    4    4    0    0 -0.55871443011E+01 -0.18697306003E+03  0.39323911776E+03  0.43649415242E+03  0.30000000000E+02 0. -1.
     200000    1    3    3    0    0  0.31257228500E+03 -0.48040135625E+03  0.81945748712E+03  0.11180328571E+04  0.50000000000E+03 0. -1.
    -200001    1    1    2    0    0 -0.37217251503E+03  0.68187354313E+03  0.13908266582E+04  0.17400754877E+04  0.70000000000E+03 0.  1.
<mgrwt>
<rscale>  0 0.20933061E+04</rscale>
<asrwt>0</asrwt>
<pdfrwt beam="1">  1        3 0.42991220E+00 0.20933061E+04</pdfrwt>
<pdfrwt beam="2">  1       -3 0.52003146E-01 0.20933061E+04</pdfrwt>
<totfact> 0.68951529E-02</totfact>
</mgrwt>
</event>
<event>
 8    1  0.1649749E-011  0.1505349E+04  0.7818608E-02  0.8880904E-01
         -3   -1    0    0    0  501 -0.00000000000E+00  0.00000000000E+00  0.28908593201E+03  0.28908594966E+03  0.10100000000E+00 0. -1.
          3   -1    0    0  501    0  0.00000000000E+00 -0.00000000000E+00 -0.19596897584E+04  0.19596897610E+04  0.10100000000E+00 0.  1.
     200001    2    1    2    0    0  0.35216219905E+02  0.28046520243E+03 -0.84059809195E+03  0.11268084959E+04  0.69511964598E+03 0.  0.
    5000001    2    3    3    0    0  0.57611033594E+02  0.41757991057E+02 -0.37159631808E+03  0.40055418480E+03  0.13151832700E+03 0.  0.
        -11    1    4    4    0    0  0.71378037737E+02  0.98832863473E+01 -0.33265907917E+03  0.34037415673E+03  0.51100000000E-03 0. -1.
     200002    1    4    4    0    0 -0.13767004143E+02  0.31874704709E+02 -0.38937238915E+02  0.60180028063E+02  0.30000000000E+02 0. -1.
     200000    1    3    3    0    0 -0.22394813688E+02  0.23870721137E+03 -0.46900177387E+03  0.72625431106E+03  0.50000000000E+03 0. -1.
    -200001    1    1    2    0    0 -0.35216219905E+02 -0.28046520243E+03 -0.83000573447E+03  0.11219672148E+04  0.70000000000E+03 0.  1.
<mgrwt>
<rscale>  0 0.15053488E+04</rscale>
<asrwt>0</asrwt>
<pdfrwt beam="1">  1        3 0.27995567E+00 0.15053488E+04</pdfrwt>
<pdfrwt beam="2">  1       -3 0.41297993E-01 0.15053488E+04</pdfrwt>
<totfact> 0.74414103E-01</totfact>
</mgrwt>
</event>
<event>
 8    1  0.1649749E-011  0.1619432E+04  0.7818608E-02  0.8808698E-01
         -3   -1    0    0    0  501 -0.00000000000E+00  0.00000000000E+00  0.54256975126E+03  0.54256976066E+03  0.10100000000E+00 0. -1.
          3   -1    0    0  501    0  0.00000000000E+00 -0.00000000000E+00 -0.12083972906E+04  0.12083972948E+04  0.10100000000E+00 0.  1.
     200001    2    1    2    0    0 -0.16685428949E+03  0.18505460521E+03  0.14167438203E+02  0.74375370653E+03  0.70063064366E+03 0.  0.
    5000001    2    3    3    0    0 -0.33246889718E+01 -0.15385589563E+02  0.11156702482E+02  0.18079077129E+03  0.17975834069E+03 0.  0.
        -11    1    4    4    0    0  0.46862260994E+02 -0.34848708641E+02  0.73000409218E+02  0.93485633900E+02  0.51100000000E-03 0. -1.
     200002    1    4    4    0    0 -0.50186949966E+02  0.19463119078E+02 -0.61843706736E+02  0.87305137386E+02  0.30000000000E+02 0. -1.
     200000    1    3    3    0    0 -0.16352960052E+03  0.20044019478E+03  0.30107357211E+01  0.56296293524E+03  0.50000000000E+03 0. -1.
    -200001    1    1    2    0    0  0.16685428949E+03 -0.18505460521E+03 -0.67999497755E+03  0.10072133490E+04  0.70000000000E+03 0.  1.
<mgrwt>
<rscale>  0 0.16194318E+04</rscale>
<asrwt>0</asrwt>
<pdfrwt beam="1">  1        3 0.17262818E+00 0.16194318E+04</pdfrwt>
<pdfrwt beam="2">  1       -3 0.77509966E-01 0.16194318E+04</pdfrwt>
<totfact> 0.87659641E-01</totfact>
</mgrwt>
</event>
<event>
 8    1  0.1649749E-011  0.2153596E+04  0.7818608E-02  0.8537995E-01
          3   -1    0    0  501    0  0.00000000000E+00  0.00000000000E+00  0.66096003983E+03  0.66096004755E+03  0.10100000000E+00 0.  1.
         -3   -1    0    0    0  501 -0.00000000000E+00 -0.00000000000E+00 -0.17542573381E+04  0.17542573410E+04  0.10100000000E+00 0. -1.
     200001    2    1    2    0    0 -0.65618070203E+03 -0.46601995166E+03 -0.72368906923E+03  0.12863427489E+04  0.69512882962E+03 0.  0.
    5000001    2    3    3    0    0 -0.27603928280E+03 -0.16786863060E+03 -0.23547435865E+03  0.43678091335E+03  0.17593132154E+03 0.  0.
        -11    1    4    4    0    0 -0.26715909143E+03 -0.11236030843E+03 -0.13967527202E+03  0.32172659302E+03  0.51100000000E-03 0. -1.
     200002    1    4    4    0    0 -0.88801913784E+01 -0.55508322170E+02 -0.95799086626E+02  0.11505432033E+03  0.30000000000E+02 0. -1.
     200000    1    3    3    0    0 -0.38014141922E+03 -0.29815132106E+03 -0.48821471058E+03  0.84956183559E+03  0.50000000000E+03 0. -1.
    -200001    1    1    2    0    0  0.65618070203E+03  0.46601995166E+03 -0.36960822907E+03  0.11288746397E+04  0.70000000000E+03 0. -1.
<mgrwt>
<rscale>  0 0.21535961E+04</rscale>
<asrwt>0</asrwt>
<pdfrwt beam="1">  1        3 0.94422864E-01 0.21535961E+04</pdfrwt>
<pdfrwt beam="2">  1       -3 0.25060819E+00 0.21535961E+04</pdfrwt>
<totfact> 0.17501795E-01</totfact>
</mgrwt>
</event>
<event>
 8    1  0.1649749E-011  0.2009205E+04  0.7818608E-02  0.8602329E-01
         -3   -1    0    0    0  501 -0.00000000000E+00  0.00000000000E+00  0.16912958740E+04  0.16912958770E+04  0.10100000000E+00 0. -1.
          3   -1    0    0  501    0  0.00000000000E+00 -0.00000000000E+00 -0.59671797886E+03  0.59671798741E+03  0.10100000000E+00 0.  1.
     200001    2    1    2    0    0 -0.52306808417E+03  0.39700155286E+03  0.88299215106E+03  0.13051715674E+04  0.70184558695E+03 0.  0.
    5000001    2    3    3    0    0 -0.24379069059E+03  0.81072403753E+02  0.29094585256E+03  0.42294375705E+03  0.16800386020E+03 0.  0.
        -11    1    4    4    0    0 -0.81313341899E+02  0.10913387964E+03  0.10000841289E+03  0.16888974482E+03  0.51100000000E-03 0. -1.
     200002    1    4    4    0    0 -0.16247734869E+03 -0.28061475884E+02  0.19093743967E+03  0.25405401224E+03  0.30000000000E+02 0. -1.
     200000    1    3    3    0    0 -0.27927739358E+03  0.31592914911E+03  0.59204629850E+03  0.88222781037E+03  0.50000000000E+03 0.  1.
    -200001    1    1    2    0    0  0.52306808417E+03 -0.39700155286E+03  0.21158574407E+03  0.98284229699E+03  0.70000000000E+03 0.  1.
<mgrwt>
<rscale>  0 0.20092055E+04</rscale>
<asrwt>0</asrwt>
<pdfrwt beam="1">  1        3 0.85245428E-01 0.20092055E+04</pdfrwt>
<pdfrwt beam="2">  1       -3 0.24161369E+00 0.20092055E+04</pdfrwt>
<totfact> 0.25236948E-01</totfact>
</mgrwt>
</event>
<event>
 8    1  0.1649749E-011  0.1711490E+04  0.7818608E-02  0.8754838E-01
          3   -1    0    0  501    0  0.00000000000E+00  0.00000000000E+00  0.11768186685E+04  0.11768186728E+04  0.10100000000E+00 0.  1.
         -3   -1    0    0    0  501 -0.00000000000E+00 -0.00000000000E+00 -0.62227052822E+03  0.62227053642E+03  0.10100000000E+00 0. -1.
     200001    2    1    2    0    0  0.20074653844E+03  0.43481899183E+03  0.15962601802E+03  0.86349837400E+03  0.70055852569E+03 0.  0.
    5000001    2    3    3    0    0  0.54188058368E+02  0.23310474385E+03  0.53498183682E+02  0.29478830451E+03  0.16359682620E+03 0.  0.
        -11    1    4    4    0    0  0.30284407082E+02  0.25545781244E+02 -0.46613626055E+02  0.61176485564E+02  0.51100000000E-03 0. -1.
     200002    1    4    4    0    0  0.23903651286E+02  0.20755896260E+03  0.10011180974E+03  0.23361181894E+03  0.30000000000E+02 0. -1.
     200000    1    3    3    0    0  0.14655848008E+03  0.20171424798E+03  0.10612783434E+03  0.56871006949E+03  0.50000000000E+03 0. -1.
    -200001    1    1    2    0    0 -0.20074653844E+03 -0.43481899183E+03  0.39492212224E+03  0.93559083524E+03  0.70000000000E+03 0.  1.
<mgrwt>
<rscale>  0 0.17114901E+04</rscale>
<asrwt>0</asrwt>
<pdfrwt beam="1">  1        3 0.16811695E+00 0.17114901E+04</pdfrwt>
<pdfrwt beam="2">  1       -3 0.88895792E-01 0.17114901E+04</pdfrwt>
<totfact> 0.68719567E-01</totfact>
</mgrwt>
</event>
<event>
 8    1  0.1649749E-011  0.1893093E+04  0.7818608E-02  0.8658302E-01
          3   -1    0    0  501    0  0.00000000000E+00  0.00000000000E+00  0.39609001767E+03  0.39609003055E+03  0.10100000000E+00 0.  1.
         -3   -1    0    0    0  501 -0.00000000000E+00 -0.00000000000E+00 -0.22619868403E+04  0.22619868425E+04  0.10100000000E+00 0. -1.
     200001    2    1    2    0    0 -0.62952039585E+03 -0.72469456819E+02 -0.84353526172E+03  0.12663977031E+04  0.70047387796E+03 0.  0.
    5000001    2    3    3    0    0 -0.30694480440E+03 -0.63326819741E+02 -0.25772193698E+03  0.43134330281E+03  0.14632514832E+03 0.  0.
        -11    1    4    4    0    0 -0.12365035075E+03  0.38085994182E+02 -0.13374378326E+03  0.18608425983E+03  0.51100000000E-03 0. -1.
     200002    1    4    4    0    0 -0.18329445365E+03 -0.10141281392E+03 -0.12397815372E+03  0.24525904298E+03  0.30000000000E+02 0. -1.
     200000    1    3    3    0    0 -0.32257559145E+03 -0.91426370775E+01 -0.58581332474E+03  0.83505440030E+03  0.50000000000E+03 0. -1.
    -200001    1    1    2    0    0  0.62952039585E+03  0.72469456819E+02 -0.10223615609E+04  0.13916791700E+04  0.70000000000E+03 0. -1.
<mgrwt>
<rscale>  0 0.18930932E+04</rscale>
<asrwt>0</asrwt>
<pdfrwt beam="1">  1        3 0.56584291E-01 0.18930932E+04</pdfrwt>
<pdfrwt beam="2">  1       -3 0.32314097E+00 0.18930932E+04</pdfrwt>
<totfact> 0.21422142E-01</totfact>
</mgrwt>
</event>
<event>
 8    1  0.1649749E-011  0.1619738E+04  0.7818608E-02  0.8808513E-01
          3   -1    0    0  501    0  0.00000000000E+00  0.00000000000E+00  0.28418346511E+03  0.28418348305E+03  0.10100000000E+00 0.  1.
         -3   -1    0    0    0  501 -0.00000000000E+00 -0.00000000000E+00 -0.23079743191E+04  0.23079743213E+04  0.10100000000E+00 0. -1.
     200001    2    1    2    0    0  0.32200473789E+03 -0.17039503602E+03 -0.72072951627E+03  0.10687765752E+04  0.70007914735E+03 0.  0.
    5000001    2    3    3    0    0  0.15232244869E+03 -0.23450210948E+02 -0.18197543287E+03  0.30024497320E+03  0.18242791726E+03 0.  0.
        -11    1    4    4    0    0  0.50502912761E+02  0.18144659782E+02 -0.17827753890E+03  0.18617909054E+03  0.51100000000E-03 0. -1.
     200002    1    4    4    0    0  0.10181953593E+03 -0.41594870730E+02 -0.36978939648E+01  0.11406588267E+03  0.30000000000E+02 0. -1.
     200000    1    3    3    0    0  0.16968228919E+03 -0.14694482507E+03 -0.53875408341E+03  0.76853160200E+03  0.50000000000E+03 0.  1.
    -200001    1    1    2    0    0 -0.32200473789E+03  0.17039503602E+03 -0.13030613378E+04  0.15233812292E+04  0.70000000000E+03 0. -1.
<mgrwt>
<rscale>  0 0.16197385E+04</rscale>
<asrwt>0</asrwt>
<pdfrwt beam="1">  1        3 0.40597641E-01 0.16197385E+04</pdfrwt>
<pdfrwt beam="2">  1       -3 0.32971061E+00 0.16197385E+04</pdfrwt>
<totfact> 0.39652115E-01</totfact>
</mgrwt>
</event>
<event>
 8    1  0.1649749E-011  0.1670737E+04  0.7818608E-02  0.8778233E-01
         -3   -1    0    0    0  501 -0.00000000000E+00  0.00000000000E+00  0.12024653704E+04  0.12024653747E+04  0.10100000000E+00 0. -1.
          3   -1    0    0  501    0  0.00000000000E+00 -0.00000000000E+00 -0.58034121330E+03  0.58034122209E+03  0.10100000000E+00 0.  1.
     200001    2    1    2    0    0 -0.30371243770E+02  0.26707541947E+03 -0.81959667687E+02  0.75422226648E+03  0.69991581494E+03 0.  0.
    5000001    2    3    3    0    0 -0.18193054556E+02  0.12536830522E+03  0.30642557875E+02  0.22233085301E+03  0.18012174400E+03 0.  0.
        -11    1    4    4    0    0  0.58073908008E+02  0.99165804266E+02  0.62214492969E+02  0.13067929699E+03  0.51100000000E-03 0. -1.
     200002    1    4    4    0    0 -0.76266962565E+02  0.26202500954E+02 -0.31571935094E+02  0.91651556019E+02  0.30000000000E+02 0. -1.
     200000    1    3    3    0    0 -0.12178189213E+02  0.14170711425E+03 -0.11260222556E+03  0.53189141347E+03  0.50000000000E+03 0.  1.
    -200001    1    1    2    0    0  0.30371243770E+02 -0.26707541947E+03  0.70408382481E+03  0.10285843303E+04  0.70000000000E+03 0. -1.
<mgrwt>
<rscale>  0 0.16707366E+04</rscale>
<asrwt>0</asrwt>
<pdfrwt beam="1">  1        3 0.82905888E-01 0.16707366E+04</pdfrwt>
<pdfrwt beam="2">  1       -3 0.17178077E+00 0.16707366E+04</pdfrwt>
<totfact> 0.75865410E-01</totfact>
</mgrwt>
</event>
<event>
 8    1  0.1649749E-011  0.1524432E+04  0.7818608E-02  0.8868367E-01
          3   -1    0    0  501    0  0.00000000000E+00  0.00000000000E+00  0.20601048918E+04  0.20601048943E+04  0.10100000000E+00 0.  1.
         -3   -1    0    0    0  501 -0.00000000000E+00 -0.00000000000E+00 -0.28201146135E+03  0.28201147944E+03  0.10100000000E+00 0. -1.
     200001    2    1    2    0    0 -0.92519449829E+02  0.25335412032E+02  0.13247403175E+04  0.15026339280E+04  0.70268775500E+03 0.  0.
    5000001    2    3    3    0    0 -0.80405308675E+02 -0.58019087025E+02  0.40246883546E+03  0.45017043147E+03  0.17561613174E+03 0.  0.
        -11    1    4    4    0    0 -0.86113022477E+02  0.22810269679E+02  0.31446343273E+03  0.32683789799E+03  0.51100000000E-03 0. -1.
     200002    1    4    4    0    0  0.57077138021E+01 -0.80829356704E+02  0.88005402739E+02  0.12333253347E+03  0.30000000000E+02 0. -1.
     200000    1    3    3    0    0 -0.12114141154E+02  0.83354499057E+02  0.92227148203E+03  0.10524634965E+04  0.50000000000E+03 0. -1.
    -200001    1    1    2    0    0  0.92519449829E+02 -0.25335412032E+02  0.45335311301E+03  0.83948244578E+03  0.70000000000E+03 0. -1.
<mgrwt>
<rscale>  0 0.15244320E+04</rscale>
<asrwt>0</asrwt>
<pdfrwt beam="1">  1        3 0.29430069E+00 0.15244320E+04</pdfrwt>
<pdfrwt beam="2">  1       -3 0.40287354E-01 0.15244320E+04</pdfrwt>
<totfact> 0.64985663E-01</totfact>
</mgrwt>
</event>
<event>
 8    1  0.1649749E-011  0.1603652E+04  0.7818608E-02  0.8818308E-01
          3   -1    0    0  501    0  0.00000000000E+00  0.00000000000E+00  0.49414629894E+03  0.49414630927E+03  0.10100000000E+00 0. -1.
         -3   -1    0    0    0  501 -0.00000000000E+00 -0.00000000000E+00 -0.13010813763E+04  0.13010813802E+04  0.10100000000E+00 0.  1.
     200001    2    1    2    0    0  0.18302723047E+03 -0.34329560729E+03 -0.44521157688E+03  0.91648157603E+03  0.70026729892E+03 0.  0.
    5000001    2    3    3    0    0  0.28924451621E+02 -0.16576663932E+03 -0.85793038339E+02  0.25735648414E+03  0.17480478222E+03 0.  0.
        -11    1    4    4    0    0 -0.62145579900E+01 -0.11807801535E+03  0.31683887434E+02  0.12241285538E+03  0.51100000000E-03 0. -1.
     200002    1    4    4    0    0  0.35139009611E+02 -0.47688623977E+02 -0.11747692577E+03  0.13494362876E+03  0.30000000000E+02 0. -1.
     200000    1    3    3    0    0  0.15410277885E+03 -0.17752896797E+03 -0.35941853854E+03  0.65912509190E+03  0.50000000000E+03 0.  1.
    -200001    1    1    2    0    0 -0.18302723047E+03  0.34329560729E+03 -0.36172350044E+03  0.87874611342E+03  0.70000000000E+03 0. -1.
<mgrwt>
<rscale>  0 0.16036515E+04</rscale>
<asrwt>0</asrwt>
<pdfrwt beam="1">  1        3 0.70592330E-01 0.16036515E+04</pdfrwt>
<pdfrwt beam="2">  1       -3 0.18586877E+00 0.16036515E+04</pdfrwt>
<totfact> 0.87413389E-01</totfact>
</mgrwt>
</event>
<event>
 8    1  0.1649749E-011  0.1446899E+04  0.7818608E-02  0.8920553E-01
          3   -1    0    0  501    0  0.00000000000E+00  0.00000000000E+00  0.17748960294E+04  0.17748960322E+04  0.10100000000E+00 0.  1.
         -3   -1    0    0    0  501 -0.00000000000E+00 -0.00000000000E+00 -0.29487886833E+03  0.29487888562E+03  0.10100000000E+00 0. -1.
     200001    2    1    2    0    0 -0.46873737107E+02 -0.14821586873E+03  0.60463987934E+03  0.93820500120E+03  0.70033859641E+03 0.  0.
    5000001    2    3    3    0    0  0.65092822501E+02  0.67768324384E+02  0.17457075603E+02  0.12952130089E+03  0.87415082024E+02 0.  0.
        -11    1    4    4    0    0  0.70128168928E+02  0.68091643421E+02  0.16149219029E+02  0.99071838867E+02  0.51100000000E-03 0. -1.
     200002    1    4    4    0    0 -0.50353464272E+01 -0.32331903670E+00  0.13078565738E+01  0.30449462026E+02  0.30000000000E+02 0. -1.
     200000    1    3    3    0    0 -0.11196655961E+03 -0.21598419311E+03  0.58718280373E+03  0.80868370031E+03  0.50000000000E+03 0.  1.
    -200001    1    1    2    0    0  0.46873737107E+02  0.14821586873E+03  0.87537728170E+03  0.11315699167E+04  0.70000000000E+03 0. -1.
<mgrwt>
<rscale>  0 0.14468992E+04</rscale>
<asrwt>0</asrwt>
<pdfrwt beam="1">  1        3 0.25355658E+00 0.14468992E+04</pdfrwt>
<pdfrwt beam="2">  1       -3 0.42125553E-01 0.14468992E+04</pdfrwt>
<totfact> 0.10122455E+00</totfact>
</mgrwt>
</event>
<event>
 8    1  0.1649749E-011  0.1823345E+04  0.7818608E-02  0.8693982E-01
         -3   -1    0    0    0  501 -0.00000000000E+00  0.00000000000E+00  0.12227829366E+04  0.12227829408E+04  0.10100000000E+00 0. -1.
          3   -1    0    0  501    0  0.00000000000E+00 -0.00000000000E+00 -0.67971731917E+03  0.67971732668E+03  0.10100000000E+00 0.  1.
     200001    2    1    2    0    0  0.18732262132E+03  0.47988313255E+03  0.55933196367E+03  0.10332234534E+04  0.69951474166E+03 0.  0.
    5000001    2    3    3    0    0  0.53174658998E+02  0.15148538210E+03  0.18403990918E+03  0.31441549267E+03  0.19801779848E+03 0.  0.
        -11    1    4    4    0    0  0.12479120449E+03  0.11180386492E+03  0.12654952214E+03  0.20997078483E+03  0.51100000000E-03 0. -1.
     200002    1    4    4    0    0 -0.71616545495E+02  0.39681517184E+02  0.57490387035E+02  0.10444470784E+03  0.30000000000E+02 0. -1.
     200000    1    3    3    0    0  0.13414796232E+03  0.32839775045E+03  0.37529205449E+03  0.71880796077E+03  0.50000000000E+03 0.  1.
    -200001    1    1    2    0    0 -0.18732262132E+03 -0.47988313255E+03 -0.16266346240E+02  0.86927681401E+03  0.70000000000E+03 0. -1.
<mgrwt>
<rscale>  0 0.18233450E+04</rscale>
<asrwt>0</asrwt>
<pdfrwt beam="1">  1        3 0.97102475E-01 0.18233450E+04</pdfrwt>
<pdfrwt beam="2">  1       -3 0.17468328E+00 0.18233450E+04</pdfrwt>
<totfact> 0.49930221E-01</totfact>
</mgrwt>
</event>
<event>
 8    1  0.1649749E-011  0.1938751E+04  0.7818608E-02  0.8635804E-01
          3   -1    0    0  501    0  0.00000000000E+00  0.00000000000E+00  0.59280028602E+03  0.59280029463E+03  0.10100000000E+00 0. -1.
         -3   -1    0    0    0  501 -0.00000000000E+00 -0.00000000000E+00 -0.15851696571E+04  0.15851696604E+04  0.10100000000E+00 0.  1.
     200001    2    1    2    0    0 -0.35871789887E+03  0.50767785469E+03 -0.77908343692E+03  0.12178104761E+04  0.69976854672E+03 0.  0.
    5000001    2    3    3    0    0 -0.78066881060E+02  0.37375565674E+02 -0.22138862842E+03  0.28992431054E+03  0.16598737971E+03 0.  0.
        -11    1    4    4    0    0 -0.11356686323E+03  0.39596971914E+02 -0.21002628266E+03  0.24202560199E+03  0.51100000000E-03 0. -1.
     200002    1    4    4    0    0  0.35499982174E+02 -0.22214062400E+01 -0.11362345753E+02  0.47898708553E+02  0.30000000000E+02 0. -1.
     200000    1    3    3    0    0 -0.28065101781E+03  0.47030228901E+03 -0.55769480850E+03  0.92788616558E+03  0.50000000000E+03 0. -1.
    -200001    1    1    2    0    0  0.35871789887E+03 -0.50767785469E+03 -0.21328593419E+03  0.96015947885E+03  0.70000000000E+03 0.  1.
<mgrwt>
<rscale>  0 0.19387512E+04</rscale>
<asrwt>0</asrwt>
<pdfrwt beam="1">  1        3 0.84685757E-01 0.19387512E+04</pdfrwt>
<pdfrwt beam="2">  1       -3 0.22645281E+00 0.19387512E+04</pdfrwt>
<totfact> 0.31686989E-01</totfact>
</mgrwt>
</event>
<event>
 8    1  0.1649749E-011  0.1683497E+04  0.7818608E-02  0.8770833E-01
          3   -1    0    0  501    0  0.00000000000E+00  0.00000000000E+00  0.11359972256E+04  0.11359972301E+04  0.10100000000E+00 0.  1.
         -3   -1    0    0    0  501 -0.00000000000E+00 -0.00000000000E+00 -0.62371663529E+03  0.62371664347E+03  0.10100000000E+00 0. -1.
     200001    2    1    2    0    0 -0.30755099574E+03 -0.28592507235E+03  0.40321609121E+02  0.81680028160E+03  0.69942555421E+03 0.  0.
    5000001    2    3    3    0    0  0.13937396413E+01 -0.75187080177E+02  0.57305083456E+02  0.19218376784E+03  0.16731912173E+03 0.  0.
        -11    1    4    4    0    0 -0.56524463786E+02 -0.78039078484E+02 -0.11841707095E+02  0.97084184109E+02  0.51100000000E-03 0. -1.
     200002    1    4    4    0    0  0.57918203427E+02  0.28519983073E+01  0.69146790551E+02  0.95099583732E+02  0.30000000000E+02 0. -1.
     200000    1    3    3    0    0 -0.30894473538E+03 -0.21073799217E+03 -0.16983474335E+02  0.62461651376E+03  0.50000000000E+03 0. -1.
    -200001    1    1    2    0    0  0.30755099574E+03  0.28592507235E+03  0.47195898120E+03  0.94291359197E+03  0.70000000000E+03 0.  1.
<mgrwt>
<rscale>  0 0.16834968E+04</rscale>
<asrwt>0</asrwt>
<pdfrwt beam="1">  1        3 0.16228532E+00 0.16834968E+04</pdfrwt>
<pdfrwt beam="2">  1       -3 0.89102378E-01 0.16834968E+04</pdfrwt>
<totfact> 0.75307587E-01</totfact>
</mgrwt>
</event>
<event>
 8    1  0.1649749E-011  0.1655755E+04  0.7818608E-02  0.8787009E-01
          3   -1    0    0  501    0  0.00000000000E+00  0.00000000000E+00  0.41306131768E+03  0.41306133002E+03  0.10100000000E+00 0.  1.
         -3   -1    0    0    0  501 -0.00000000000E+00 -0.00000000000E+00 -0.16592728837E+04  0.16592728867E+04  0.10100000000E+00 0. -1.
     200001    2    1    2    0    0  0.27158238504E+03 -0.19677802617E+03 -0.26557514548E+03  0.82168383689E+03  0.70153801498E+03 0.  0.
    5000001    2    3    3    0    0  0.20696751547E+03 -0.75567477762E+02 -0.74011721811E+02  0.26890574063E+03  0.13522783080E+03 0.  0.
        -11    1    4    4    0    0  0.18173444657E+03 -0.10365548300E+02 -0.59062851249E+02  0.19137208276E+03  0.51100000000E-03 0. -1.
     200002    1    4    4    0    0  0.25233068898E+02 -0.65201929462E+02 -0.14948870562E+02  0.77533657870E+02  0.30000000000E+02 0. -1.
     200000    1    3    3    0    0  0.64614869567E+02 -0.12121054840E+03 -0.19156342367E+03  0.55277809626E+03  0.50000000000E+03 0.  1.
    -200001    1    1    2    0    0 -0.27158238504E+03  0.19677802617E+03 -0.98063642050E+03  0.12506503799E+04  0.70000000000E+03 0. -1.
<mgrwt>
<rscale>  0 0.16557554E+04</rscale>
<asrwt>0</asrwt>
<pdfrwt beam="1">  1        3 0.59008762E-01 0.16557554E+04</pdfrwt>
<pdfrwt beam="2">  1       -3 0.23703898E+00 0.16557554E+04</pdfrwt>
<totfact> 0.61606609E-01</totfact>
</mgrwt>
</event>
<event>
 8    1  0.1649749E-011  0.1416723E+04  0.7818608E-02  0.8941802E-01
         -3   -1    0    0    0  501 -0.00000000000E+00  0.00000000000E+00  0.14214309858E+04  0.14214309894E+04  0.10100000000E+00 0. -1.
          3   -1    0    0  501    0  0.00000000000E+00 -0.00000000000E+00 -0.35300772480E+03  0.35300773925E+03  0.10100000000E+00 0.  1.
     200001    2    1    2    0    0  0.62532689411E+02  0.67571918258E+01  0.42831632576E+03  0.82381110153E+03  0.70089504150E+03 0.  0.
    5000001    2    3    3    0    0  0.85215749117E+02 -0.44517760553E+02  0.95738726238E+02  0.22069295254E+03  0.17405723397E+03 0.  0.
        -11    1    4    4    0    0  0.13038780089E+03 -0.43856356767E+02  0.93659555870E+02  0.16642256775E+03  0.51100000000E-03 0. -1.
     200002    1    4    4    0    0 -0.45172051770E+02 -0.66140378580E+00  0.20791703686E+01  0.54270384792E+02  0.30000000000E+02 0. -1.
     200000    1    3    3    0    0 -0.22683059706E+02  0.51274952378E+02  0.33257759953E+03  0.60311814899E+03  0.50000000000E+03 0. -1.
    -200001    1    1    2    0    0 -0.62532689411E+02 -0.67571918258E+01  0.64010693522E+03  0.95062762710E+03  0.70000000000E+03 0. -1.
<mgrwt>
<rscale>  0 0.14167232E+04</rscale>
<asrwt>0</asrwt>
<pdfrwt beam="1">  1        3 0.50429675E-01 0.14167232E+04</pdfrwt>
<pdfrwt beam="2">  1       -3 0.20306157E+00 0.14167232E+04</pdfrwt>
<totfact> 0.13980292E+00</totfact>
</mgrwt>
</event>
<event>
 8    1  0.1649749E-011  0.1633939E+04  0.7818608E-02  0.8799965E-01
         -3   -1    0    0    0  501 -0.00000000000E+00  0.00000000000E+00  0.12251766916E+04  0.12251766958E+04  0.10100000000E+00 0. -1.
          3   -1    0    0  501    0  0.00000000000E+00 -0.00000000000E+00 -0.54476945025E+03  0.54476945962E+03  0.10100000000E+00 0.  1.
     200001    2    1    2    0    0 -0.60921829251E+02 -0.26763197975E+03 -0.65460370875E+01  0.75149480523E+03  0.69954502773E+03 0.  0.
    5000001    2    3    3    0    0  0.27549675731E+02 -0.99871958184E+02 -0.36544956706E+02  0.21589181121E+03  0.18585033662E+03 0.  0.
        -11    1    4    4    0    0  0.77974286305E+02 -0.43609182860E+02  0.45616168674E+02  0.10031243691E+03  0.51100000000E-03 0. -1.
     200002    1    4    4    0    0 -0.50424610575E+02 -0.56262775324E+02 -0.82161125381E+02  0.11557937430E+03  0.30000000000E+02 0. -1.
     200000    1    3    3    0    0 -0.88471504982E+02 -0.16776002156E+03  0.29998919619E+02  0.53560299402E+03  0.50000000000E+03 0. -1.
    -200001    1    1    2    0    0  0.60921829251E+02  0.26763197975E+03  0.68695327843E+03  0.10184513501E+04  0.70000000000E+03 0. -1.
<mgrwt>
<rscale>  0 0.16339386E+04</rscale>
<asrwt>0</asrwt>
<pdfrwt beam="1">  1        3 0.77824209E-01 0.16339386E+04</pdfrwt>
<pdfrwt beam="2">  1       -3 0.17502524E+00 0.16339386E+04</pdfrwt>
<totfact> 0.83230976E-01</totfact>
</mgrwt>
</event>
<event>
 8    1  0.1649749E-011  0.1832369E+04  0.7818608E-02  0.8689273E-01
         -3   -1    0    0    0  501 -0.00000000000E+00  0.00000000000E+00  0.11210542012E+04  0.11210542058E+04  0.10100000000E+00 0.  1.
          3   -1    0    0  501    0  0.00000000000E+00 -0.00000000000E+00 -0.74875431709E+03  0.74875432390E+03  0.10100000000E+00 0. -1.
     200001    2    1    2    0    0 -0.31658246794E+02 -0.52932751130E+03  0.45346107358E+03  0.98789186837E+03  0.69936652732E+03 0.  0.
    5000001    2    3    3    0    0  0.49695453172E+02 -0.21048492628E+03  0.10819123414E+03  0.29688515310E+03  0.17222632996E+03 0.  0.
        -11    1    4    4    0    0  0.10097998105E+03 -0.70636764737E+02  0.62749357930E+02  0.13828951886E+03  0.51100000000E-03 0. -1.
     200002    1    4    4    0    0 -0.51284527881E+02 -0.13984816154E+03  0.45441876209E+02  0.15859563424E+03  0.30000000000E+02 0. -1.
     200000    1    3    3    0    0 -0.81353699966E+02 -0.31884258502E+03  0.34526983944E+03  0.69100671527E+03  0.50000000000E+03 0.  1.
    -200001    1    1    2    0    0  0.31658246794E+02  0.52932751130E+03 -0.81161189447E+02  0.88191666130E+03  0.70000000000E+03 0.  1.
<mgrwt>
<rscale>  0 0.18323692E+04</rscale>
<asrwt>0</asrwt>
<pdfrwt beam="1">  1        3 0.10696490E+00 0.18323692E+04</pdfrwt>
<pdfrwt beam="2">  1       -3 0.16015060E+00 0.18323692E+04</pdfrwt>
<totfact> 0.50268186E-01</totfact>
</mgrwt>
</event>
<event>
 8    1  0.1649749E-011  0.2086542E+04  0.7818608E-02  0.8567195E-01
         -3   -1    0    0    0  501 -0.00000000000E+00  0.00000000000E+00  0.22639299872E+04  0.22639299895E+04  0.10100000000E+00 0.  1.
          3   -1    0    0  501    0  0.00000000000E+00 -0.00000000000E+00 -0.48076328088E+03  0.48076329148E+03  0.10100000000E+00 0. -1.
     200001    2    1    2    0    0  0.36219352492E+02 -0.64478542491E+03  0.33076848575E+03  0.10078799125E+04  0.69953844869E+03 0.  0.
    5000001    2    3    3    0    0 -0.49455808589E+02 -0.50416825185E+02  0.92029314504E+02  0.19080546213E+03  0.15149124194E+03 0.  0.
        -11    1    4    4    0    0 -0.74200045512E+01 -0.28981554823E+02 -0.38527619762E+02  0.48778729711E+02  0.51100000000E-03 0. -1.
     200002    1    4    4    0    0 -0.42035804038E+02 -0.21435270363E+02  0.13055693427E+03  0.14202673242E+03  0.30000000000E+02 0. -1.
     200000    1    3    3    0    0  0.85675161082E+02 -0.59436859972E+03  0.23873917125E+03  0.81707445037E+03  0.50000000000E+03 0. -1.
    -200001    1    1    2    0    0 -0.36219352492E+02  0.64478542491E+03  0.14523982206E+04  0.17368133685E+04  0.70000000000E+03 0.  1.
<mgrwt>
<rscale>  0 0.20865420E+04</rscale>
<asrwt>0</asrwt>
<pdfrwt beam="1">  1        3 0.68680470E-01 0.20865420E+04</pdfrwt>
<pdfrwt beam="2">  1       -3 0.32341857E+00 0.20865420E+04</pdfrwt>
<totfact> 0.13898705E-01</totfact>
</mgrwt>
</event>
<event>
 8    1  0.1649749E-011  0.1587179E+04  0.7818608E-02  0.8828463E-01
          3   -1    0    0  501    0  0.00000000000E+00  0.00000000000E+00  0.48083835752E+03  0.48083836813E+03  0.10100000000E+00 0.  1.
         -3   -1    0    0    0  501 -0.00000000000E+00 -0.00000000000E+00 -0.13097633625E+04  0.13097633664E+04  0.10100000000E+00 0. -1.
     200001    2    1    2    0    0  0.10187870794E+03  0.34741400521E+03 -0.51969910154E+03  0.94402248751E+03  0.70001109893E+03 0.  0.
    5000001    2    3    3    0    0  0.69706652146E+02  0.63322289168E+02 -0.17482226032E+03  0.27269307514E+03  0.18689558814E+03 0.  0.
        -11    1    4    4    0    0 -0.32573991211E+02  0.88995510117E+02 -0.52164967498E+02  0.10817786076E+03  0.51100000000E-03 0. -1.
     200002    1    4    4    0    0  0.10228064336E+03 -0.25673220950E+02 -0.12265729282E+03  0.16451521438E+03  0.30000000000E+02 0. -1.
     200000    1    3    3    0    0  0.32172055796E+02  0.28409171604E+03 -0.34487684122E+03  0.67132941237E+03  0.50000000000E+03 0. -1.
    -200001    1    1    2    0    0 -0.10187870794E+03 -0.34741400521E+03 -0.30922590346E+03  0.84657924704E+03  0.70000000000E+03 0.  1.
<mgrwt>
<rscale>  0 0.15871792E+04</rscale>
<asrwt>0</asrwt>
<pdfrwt beam="1">  1        3 0.68691195E-01 0.15871792E+04</pdfrwt>
<pdfrwt beam="2">  1       -3 0.18710905E+00 0.15871792E+04</pdfrwt>
<totfact> 0.91139193E-01</totfact>
</mgrwt>
</event>
<event>
 8    1  0.1649749E-011  0.1564298E+04  0.7818608E-02  0.8842786E-01
          3   -1    0    0  501    0  0.00000000000E+00  0.00000000000E+00  0.30410061975E+03  0.30410063652E+03  0.10100000000E+00 0.  1.
         -3   -1    0    0    0  501 -0.00000000000E+00 -0.00000000000E+00 -0.20116923245E+04  0.20116923270E+04  0.10100000000E+00 0. -1.
     200001    2    1    2    0    0  0.33397631425E+03  0.73022870499E+01 -0.10038788769E+04  0.12685082621E+04  0.69981919777E+03 0.  0.
    5000001    2    3    3    0    0  0.13263867772E+03  0.13144589630E+03 -0.25607494698E+03  0.33836891917E+03  0.11852469999E+03 0.  0.
        -11    1    4    4    0    0 -0.18446961499E+02  0.34593460000E+02 -0.43752200155E+02  0.58747364894E+02  0.51100000000E-03 0. -1.
     200002    1    4    4    0    0  0.15108563922E+03  0.96852436295E+02 -0.21232274683E+03  0.27962155427E+03  0.30000000000E+02 0. -1.
     200000    1    3    3    0    0  0.20133763653E+03 -0.12414360925E+03 -0.74780392995E+03  0.93013934292E+03  0.50000000000E+03 0.  1.
    -200001    1    1    2    0    0 -0.33397631425E+03 -0.73022870499E+01 -0.70371282779E+03  0.10472847014E+04  0.70000000000E+03 0.  1.
<mgrwt>
<rscale>  0 0.15642978E+04</rscale>
<asrwt>0</asrwt>
<pdfrwt beam="1">  1        3 0.43442948E-01 0.15642978E+04</pdfrwt>
<pdfrwt beam="2">  1       -3 0.28738461E+00 0.15642978E+04</pdfrwt>
<totfact> 0.59909321E-01</totfact>
</mgrwt>
</event>
<event>
 8    1  0.1649749E-011  0.1884375E+04  0.7818608E-02  0.8662673E-01
          3   -1    0    0  501    0  0.00000000000E+00  0.00000000000E+00  0.67977888916E+03  0.67977889667E+03  0.10100000000E+00 0.  1.
         -3   -1    0    0    0  501 -0.00000000000E+00 -0.00000000000E+00 -0.13058918180E+04  0.13058918219E+04  0.10100000000E+00 0. -1.
     200001    2    1    2    0    0 -0.45359765230E+03 -0.21059562324E+03 -0.71934837031E+03  0.11203417671E+04  0.69828522148E+03 0.  0.
    5000001    2    3    3    0    0 -0.62323160033E+02 -0.13068383654E+03 -0.15411903342E+03  0.26654681207E+03  0.16227164001E+03 0.  0.
        -11    1    4    4    0    0  0.40108618907E+01  0.25259167949E+02 -0.70920794481E+02  0.75391456205E+02  0.51100000000E-03 0. -1.
     200002    1    4    4    0    0 -0.66334021924E+02 -0.15594300449E+03 -0.83198238944E+02  0.19115535587E+03  0.30000000000E+02 0. -1.
     200000    1    3    3    0    0 -0.39127449227E+03 -0.79911786701E+02 -0.56522933689E+03  0.85379495503E+03  0.50000000000E+03 0. -1.
    -200001    1    1    2    0    0  0.45359765230E+03  0.21059562324E+03  0.93235441478E+02  0.86532895147E+03  0.70000000000E+03 0.  1.
<mgrwt>
<rscale>  0 0.18843754E+04</rscale>
<asrwt>0</asrwt>
<pdfrwt beam="1">  1        3 0.97111271E-01 0.18843754E+04</pdfrwt>
<pdfrwt beam="2">  1       -3 0.18655597E+00 0.18843754E+04</pdfrwt>
<totfact> 0.41354039E-01</totfact>
</mgrwt>
</event>
<event>
 8    1  0.1649749E-011  0.2278452E+04  0.7818608E-02  0.8486466E-01
          3   -1    0    0  501    0  0.00000000000E+00  0.00000000000E+00  0.14076725487E+04  0.14076725523E+04  0.10100000000E+00 0.  1.
         -3   -1    0    0    0  501 -0.00000000000E+00 -0.00000000000E+00 -0.92197244562E+03  0.92197245115E+03  0.10100000000E+00 0. -1.
     200001    2    1    2    0    0  0.61860818757E+03  0.62573342673E+03  0.42970737511E+03  0.12038770004E+04  0.70032349163E+03 0.  0.
    5000001    2    3    3    0    0  0.24397216737E+02  0.17583540994E+03  0.34538728338E+02  0.22323784012E+03  0.13087740039E+03 0.  0.
        -11    1    4    4    0    0  0.32970621427E+02  0.11259980505E+03  0.77550498864E+02  0.14064088257E+03  0.51100000000E-03 0. -1.
     200002    1    4    4    0    0 -0.85734046896E+01  0.63235604888E+02 -0.43011770526E+02  0.82596957555E+02  0.30000000000E+02 0. -1.
     200000    1    3    3    0    0  0.59421097083E+03  0.44989801679E+03  0.39516864678E+03  0.98063916033E+03  0.50000000000E+03 0.  1.
    -200001    1    1    2    0    0 -0.61860818757E+03 -0.62573342673E+03  0.55992727962E+02  0.11257680030E+04  0.70000000000E+03 0. -1.
<mgrwt>
<rscale>  0 0.22784515E+04</rscale>
<asrwt>0</asrwt>
<pdfrwt beam="1">  1        3 0.20109608E+00 0.22784515E+04</pdfrwt>
<pdfrwt beam="2">  1       -3 0.13171035E+00 0.22784515E+04</pdfrwt>
<totfact> 0.15562382E-01</totfact>
</mgrwt>
</event>
<event>
 8    1  0.1649749E-011  0.2022004E+04  0.7818608E-02  0.8596401E-01
         -3   -1    0    0    0  501 -0.00000000000E+00  0.00000000000E+00  0.26921162226E+04  0.26921162245E+04  0.10100000000E+00 0. -1.
          3   -1    0    0  501    0  0.00000000000E+00 -0.00000000000E+00 -0.37967359588E+03  0.37967360931E+03  0.10100000000E+00 0.  1.
     200001    2    1    2    0    0  0.11251520579E+02  0.69746704648E+03  0.82805084408E+03  0.12885327458E+04  0.69861402715E+03 0.  0.
    5000001    2    3    3    0    0 -0.21511128132E+02  0.74091593986E+02  0.13043620269E+03  0.22724271294E+03  0.16933208402E+03 0.  0.
        -11    1    4    4    0    0 -0.45652437196E+02 -0.35215206562E+02  0.85115111391E+02  0.10280485389E+03  0.51100000000E-03 0. -1.
     200002    1    4    4    0    0  0.24141309064E+02  0.10930680055E+03  0.45321091298E+02  0.12443785905E+03  0.30000000000E+02 0. -1.
     200000    1    3    3    0    0  0.32762648712E+02  0.62337545250E+03  0.69761464139E+03  0.10612900328E+04  0.50000000000E+03 0.  1.
    -200001    1    1    2    0    0 -0.11251520579E+02 -0.69746704648E+03  0.14843917827E+04  0.17832570881E+04  0.70000000000E+03 0. -1.
<mgrwt>
<rscale>  0 0.20220044E+04</rscale>
<asrwt>0</asrwt>
<pdfrwt beam="1">  1        3 0.54239088E-01 0.20220044E+04</pdfrwt>
<pdfrwt beam="2">  1       -3 0.38458802E+00 0.20220044E+04</pdfrwt>
<totfact> 0.10561210E-01</totfact>
</mgrwt>
</event>
<event>
 8    1  0.1649749E-011  0.1416070E+04  0.7818608E-02  0.8942267E-01
          3   -1    0    0  501    0  0.00000000000E+00  0.00000000000E+00  0.50463037976E+03  0.50463038987E+03  0.10100000000E+00 0.  1.
         -3   -1    0    0    0  501 -0.00000000000E+00 -0.00000000000E+00 -0.99342782386E+03  0.99342782899E+03  0.10100000000E+00 0. -1.
     200001    2    1    2    0    0 -0.64161460006E+02 -0.69484717427E+02 -0.30127887289E+03  0.76723126708E+03  0.69923532450E+03 0.  0.
    5000001    2    3    3    0    0  0.58685197841E+02 -0.64910785977E+02 -0.11424195820E+03  0.21942196664E+03  0.16564242164E+03 0.  0.
        -11    1    4    4    0    0 -0.37627461082E+02  0.30096418964E+02 -0.22091250943E+02  0.53006071638E+02  0.51100000000E-03 0. -1.
     200002    1    4    4    0    0  0.96312658924E+02 -0.95007204940E+02 -0.92150707261E+02  0.16641589500E+03  0.30000000000E+02 0. -1.
     200000    1    3    3    0    0 -0.12284665785E+03 -0.45739314503E+01 -0.18703691468E+03  0.54780930044E+03  0.50000000000E+03 0. -1.
    -200001    1    1    2    0    0  0.64161460006E+02  0.69484717427E+02 -0.18751857121E+03  0.73082695178E+03  0.70000000000E+03 0.  1.
<mgrwt>
<rscale>  0 0.14160704E+04</rscale>
<asrwt>0</asrwt>
<pdfrwt beam="1">  1        3 0.72090056E-01 0.14160704E+04</pdfrwt>
<pdfrwt beam="2">  1       -3 0.14191826E+00 0.14160704E+04</pdfrwt>
<totfact> 0.17435780E+00</totfact>
</mgrwt>
</event>
<event>
 8    1  0.1649749E-011  0.1925760E+04  0.7818608E-02  0.8642139E-01
         -3   -1    0    0    0  501 -0.00000000000E+00  0.00000000000E+00  0.12096709014E+04  0.12096709056E+04  0.10100000000E+00 0. -1.
          3   -1    0    0  501    0  0.00000000000E+00 -0.00000000000E+00 -0.76643799315E+03  0.76643799981E+03  0.10100000000E+00 0.  1.
     200001    2    1    2    0    0 -0.59089380794E+03  0.17773155209E+03  0.46305528855E+03  0.10427617441E+04  0.70156101503E+03 0.  0.
    5000001    2    3    3    0    0 -0.19120519607E+03 -0.19248656503E+02  0.15480206699E+03  0.30548822793E+03  0.18008175831E+03 0.  0.
        -11    1    4    4    0    0 -0.73706947262E+02 -0.54376952502E+02  0.15406134746E+03  0.17923299311E+03  0.51100000000E-03 0. -1.
     200002    1    4    4    0    0 -0.11749824881E+03  0.35128295999E+02  0.74071953405E+00  0.12625523482E+03  0.30000000000E+02 0. -1.
     200000    1    3    3    0    0 -0.39968861187E+03  0.19698020860E+03  0.30825322155E+03  0.73727351616E+03  0.50000000000E+03 0. -1.
    -200001    1    1    2    0    0  0.59089380794E+03 -0.17773155209E+03 -0.19822380271E+02  0.93334716137E+03  0.70000000000E+03 0.  1.
<mgrwt>
<rscale>  0 0.19257598E+04</rscale>
<asrwt>0</asrwt>
<pdfrwt beam="1">  1        3 0.10949114E+00 0.19257598E+04</pdfrwt>
<pdfrwt beam="2">  1       -3 0.17281013E+00 0.19257598E+04</pdfrwt>
<totfact> 0.38442379E-01</totfact>
</mgrwt>
</event>
<event>
 8    1  0.1649749E-011  0.1532296E+04  0.7818608E-02  0.8863256E-01
          3   -1    0    0  501    0  0.00000000000E+00  0.00000000000E+00  0.37033141291E+03  0.37033142668E+03  0.10100000000E+00 0. -1.
         -3   -1    0    0    0  501 -0.00000000000E+00 -0.00000000000E+00 -0.15850207902E+04  0.15850207934E+04  0.10100000000E+00 0.  1.
     200001    2    1    2    0    0 -0.94226178716E+02  0.29416914875E+03 -0.55122254501E+03  0.94263197325E+03  0.69949602003E+03 0.  0.
    5000001    2    3    3    0    0  0.75000815603E+02 -0.10087219904E+02 -0.55914971285E+02  0.15743180383E+03  0.12621970724E+03 0.  0.
        -11    1    4    4    0    0  0.36185623988E+02 -0.66428190801E+00 -0.89968268951E+02  0.96974894030E+02  0.51100000000E-03 0. -1.
     200002    1    4    4    0    0  0.38815191615E+02 -0.94229379957E+01  0.34053297665E+02  0.60456909799E+02  0.30000000000E+02 0. -1.
     200000    1    3    3    0    0 -0.16922699432E+03  0.30425636865E+03 -0.49530757372E+03  0.78520016942E+03  0.50000000000E+03 0.  1.
    -200001    1    1    2    0    0  0.94226178716E+02 -0.29416914875E+03 -0.66346683229E+03  0.10127202468E+04  0.70000000000E+03 0. -1.
<mgrwt>
<rscale>  0 0.15322963E+04</rscale>
<asrwt>0</asrwt>
<pdfrwt beam="1">  1        3 0.52904490E-01 0.15322963E+04</pdfrwt>
<pdfrwt beam="2">  1       -3 0.22643154E+00 0.15322963E+04</pdfrwt>
<totfact> 0.90324875E-01</totfact>
</mgrwt>
</event>
<event>
 8    1  0.1649749E-011  0.1435154E+04  0.7818608E-02  0.8928758E-01
         -3   -1    0    0    0  501 -0.00000000000E+00  0.00000000000E+00  0.74753715882E+03  0.74753716564E+03  0.10100000000E+00 0.  1.
          3   -1    0    0  501    0  0.00000000000E+00 -0.00000000000E+00 -0.68881785183E+03  0.68881785923E+03  0.10100000000E+00 0. -1.
     200001    2    1    2    0    0  0.44975228134E+02 -0.86058555773E+02  0.15539663843E+03  0.72307012206E+03  0.69946653960E+03 0.  0.
    5000001    2    3    3    0    0  0.24478514797E+01  0.26129802124E+01  0.50547241345E+02  0.20281574666E+03  0.19638325754E+03 0.  0.
        -11    1    4    4    0    0  0.23870366400E+02  0.20325687396E+02 -0.69364805009E+02  0.76120983535E+02  0.51100000000E-03 0. -1.
     200002    1    4    4    0    0 -0.21422514921E+02 -0.17712707184E+02  0.11991204635E+03  0.12669476312E+03  0.30000000000E+02 0. -1.
     200000    1    3    3    0    0  0.42527376654E+02 -0.88671535985E+02  0.10484939708E+03  0.52025437540E+03  0.50000000000E+03 0.  1.
    -200001    1    1    2    0    0 -0.44975228134E+02  0.86058555773E+02 -0.96677331434E+02  0.71328490281E+03  0.70000000000E+03 0. -1.
<mgrwt>
<rscale>  0 0.14351543E+04</rscale>
<asrwt>0</asrwt>
<pdfrwt beam="1">  1        3 0.98402551E-01 0.14351543E+04</pdfrwt>
<pdfrwt beam="2">  1       -3 0.10679102E+00 0.14351543E+04</pdfrwt>
<totfact> 0.17383851E+00</totfact>
</mgrwt>
</event>
<event>
 8    1  0.1649749E-011  0.2296408E+04  0.7818608E-02  0.8479339E-01
         -3   -1    0    0    0  501 -0.00000000000E+00  0.00000000000E+00  0.17102234806E+04  0.17102234836E+04  0.10100000000E+00 0. -1.
          3   -1    0    0  501    0  0.00000000000E+00 -0.00000000000E+00 -0.77087721262E+03  0.77087721924E+03  0.10100000000E+00 0.  1.
     200001    2    1    2    0    0 -0.46314091541E+03 -0.39499866137E+03  0.12007920454E+04  0.15173178722E+04  0.69987751722E+03 0.  0.
    5000001    2    3    3    0    0 -0.20862837607E+03 -0.10298458363E+03  0.51319539657E+03  0.58305987481E+03  0.14985886289E+03 0.  0.
        -11    1    4    4    0    0 -0.10553106880E+03  0.13852654084E+02  0.12807303776E+03  0.16652749175E+03  0.51100000000E-03 0. -1.
     200002    1    4    4    0    0 -0.10309730727E+03 -0.11683723771E+03  0.38512235881E+03  0.41653238306E+03  0.30000000000E+02 0. -1.
     200000    1    3    3    0    0 -0.25451253935E+03 -0.29201407774E+03  0.68759664883E+03  0.93425799743E+03  0.50000000000E+03 0. -1.
    -200001    1    1    2    0    0  0.46314091541E+03  0.39499866137E+03 -0.26144577741E+03  0.96378283059E+03  0.70000000000E+03 0.  1.
<mgrwt>
<rscale>  0 0.22964079E+04</rscale>
<asrwt>0</asrwt>
<pdfrwt beam="1">  1        3 0.11012532E+00 0.22964079E+04</pdfrwt>
<pdfrwt beam="2">  1       -3 0.24431764E+00 0.22964079E+04</pdfrwt>
<totfact> 0.13109203E-01</totfact>
</mgrwt>
</event>
<event>
 8    1  0.1649749E-011  0.1410969E+04  0.7818608E-02  0.8945917E-01
          3   -1    0    0  501    0  0.00000000000E+00  0.00000000000E+00  0.42507505614E+03  0.42507506814E+03  0.10100000000E+00 0.  1.
         -3   -1    0    0    0  501 -0.00000000000E+00 -0.00000000000E+00 -0.11708719159E+04  0.11708719203E+04  0.10100000000E+00 0. -1.
     200001    2    1    2    0    0  0.92374291058E+01 -0.31373865379E+02 -0.46067384784E+03  0.83939905110E+03  0.70092847236E+03 0.  0.
    5000001    2    3    3    0    0  0.45547654591E+02 -0.94999740522E+01 -0.13630145256E+03  0.24189227254E+03  0.19434234536E+03 0.  0.
        -11    1    4    4    0    0 -0.39974534950E+02  0.22635298971E+02 -0.13828114218E+03  0.14571202588E+03  0.51100000000E-03 0. -1.
     200002    1    4    4    0    0  0.85522189541E+02 -0.32135273023E+02  0.19796896246E+01  0.96180246657E+02  0.30000000000E+02 0. -1.
     200000    1    3    3    0    0 -0.36310225485E+02 -0.21873891327E+02 -0.32437239529E+03  0.59750677856E+03  0.50000000000E+03 0. -1.
    -200001    1    1    2    0    0 -0.92374291058E+01  0.31373865379E+02 -0.28512301193E+03  0.75654793731E+03  0.70000000000E+03 0.  1.
<mgrwt>
<rscale>  0 0.14109691E+04</rscale>
<asrwt>0</asrwt>
<pdfrwt beam="1">  1        3 0.60725010E-01 0.14109691E+04</pdfrwt>
<pdfrwt beam="2">  1       -3 0.16726742E+00 0.14109691E+04</pdfrwt>
<totfact> 0.16383530E+00</totfact>
</mgrwt>
</event>
<event>
 8    1  0.1649749E-011  0.1829659E+04  0.7818608E-02  0.8690684E-01
          3   -1    0    0  501    0  0.00000000000E+00  0.00000000000E+00  0.97976478677E+03  0.97976479198E+03  0.10100000000E+00 0. -1.
         -3   -1    0    0    0  501 -0.00000000000E+00 -0.00000000000E+00 -0.85419790927E+03  0.85419791524E+03  0.10100000000E+00 0.  1.
     200001    2    1    2    0    0  0.18503210535E+03  0.45902312090E+03 -0.25541441962E+03  0.89583379588E+03  0.70167126103E+03 0.  0.
    5000001    2    3    3    0    0  0.98247245066E+02  0.82360744066E+02 -0.11177331843E+01  0.21460478678E+03  0.17209925002E+03 0.  0.
        -11    1    4    4    0    0  0.11255037989E+03  0.11312822030E+03  0.26196681457E+02  0.16171533125E+03  0.51100000000E-03 0. -1.
     200002    1    4    4    0    0 -0.14303134819E+02 -0.30767476235E+02 -0.27314414641E+02  0.52889455534E+02  0.30000000000E+02 0. -1.
     200000    1    3    3    0    0  0.86784860289E+02  0.37666237684E+03 -0.25429668643E+03  0.68122900909E+03  0.50000000000E+03 0.  1.
    -200001    1    1    2    0    0 -0.18503210535E+03 -0.45902312090E+03  0.38098129712E+03  0.93812891134E+03  0.70000000000E+03 0. -1.
<mgrwt>
<rscale>  0 0.18296590E+04</rscale>
<asrwt>0</asrwt>
<pdfrwt beam="1">  1        3 0.13996640E+00 0.18296590E+04</pdfrwt>
<pdfrwt beam="2">  1       -3 0.12202827E+00 0.18296590E+04</pdfrwt>
<totfact> 0.52030943E-01</totfact>
</mgrwt>
</event>
<event>
 8    1  0.1649749E-011  0.1706287E+04  0.7818608E-02  0.8757787E-01
         -3   -1    0    0    0  501 -0.00000000000E+00  0.00000000000E+00  0.10011412910E+04  0.10011412960E+04  0.10100000000E+00 0. -1.
          3   -1    0    0  501    0  0.00000000000E+00 -0.00000000000E+00 -0.72702422007E+03  0.72702422709E+03  0.10100000000E+00 0.  1.
     200001    2    1    2    0    0 -0.42770152269E+03  0.22971598152E+03  0.91101006427E+02  0.85684875839E+03  0.70013739845E+03 0.  0.
    5000001    2    3    3    0    0 -0.15010555215E+03  0.10602491414E+03  0.84865162167E+02  0.27170100887E+03  0.18123571190E+03 0.  0.
        -11    1    4    4    0    0  0.37489136335E+02  0.21751875663E+02 -0.79854055354E+01  0.44072056225E+02  0.51100000000E-03 0. -1.
     200002    1    4    4    0    0 -0.18759468848E+03  0.84273038473E+02  0.92850567702E+02  0.22762895264E+03  0.30000000000E+02 0. -1.
     200000    1    3    3    0    0 -0.27759597055E+03  0.12369106739E+03  0.62358442597E+01  0.58514774952E+03  0.50000000000E+03 0.  1.
    -200001    1    1    2    0    0  0.42770152269E+03 -0.22971598152E+03  0.18301606445E+03  0.87131676475E+03  0.70000000000E+03 0.  1.
<mgrwt>
<rscale>  0 0.17062872E+04</rscale>
<asrwt>0</asrwt>
<pdfrwt beam="1">  1        3 0.10386060E+00 0.17062872E+04</pdfrwt>
<pdfrwt beam="2">  1       -3 0.14302019E+00 0.17062872E+04</pdfrwt>
<totfact> 0.73127143E-01</totfact>
</mgrwt>
</event>
<event>
 8    1  0.1649749E-011  0.1534646E+04  0.7818608E-02  0.8861735E-01
         -3   -1    0    0    0  501 -0.00000000000E+00  0.00000000000E+00  0.11529367477E+04  0.11529367521E+04  0.10100000000E+00 0. -1.
          3   -1    0    0  501    0  0.00000000000E+00 -0.00000000000E+00 -0.51068273384E+03  0.51068274383E+03  0.10100000000E+00 0.  1.
     200001    2    1    2    0    0 -0.82871361946E+02  0.29906760703E+03  0.26210358197E+03  0.80873737128E+03  0.69932020693E+03 0.  0.
    5000001    2    3    3    0    0  0.56130310258E+02  0.16341643080E+02  0.14414882546E+03  0.20610252318E+03  0.13520985597E+03 0.  0.
        -11    1    4    4    0    0 -0.16675461308E+02  0.48447917226E+02  0.18690989609E+02  0.54540120885E+02  0.51100000000E-03 0. -1.
     200002    1    4    4    0    0  0.72805771565E+02 -0.32106274145E+02  0.12545783585E+03  0.15156240229E+03  0.30000000000E+02 0. -1.
     200000    1    3    3    0    0 -0.13900167220E+03  0.28272596395E+03  0.11795475651E+03  0.60263484810E+03  0.50000000000E+03 0.  1.
    -200001    1    1    2    0    0  0.82871361946E+02 -0.29906760703E+03  0.38015043189E+03  0.85488212466E+03  0.70000000000E+03 0. -1.
<mgrwt>
<rscale>  0 0.15346464E+04</rscale>
<asrwt>0</asrwt>
<pdfrwt beam="1">  1        3 0.72954677E-01 0.15346464E+04</pdfrwt>
<pdfrwt beam="2">  1       -3 0.16470525E+00 0.15346464E+04</pdfrwt>
<totfact> 0.11403957E+00</totfact>
</mgrwt>
</event>
<event>
 8    1  0.1649749E-011  0.1522680E+04  0.7818608E-02  0.8869509E-01
          3   -1    0    0  501    0  0.00000000000E+00  0.00000000000E+00  0.38875735179E+03  0.38875736491E+03  0.10100000000E+00 0. -1.
         -3   -1    0    0    0  501 -0.00000000000E+00 -0.00000000000E+00 -0.14910041335E+04  0.14910041370E+04  0.10100000000E+00 0.  1.
     200001    2    1    2    0    0 -0.72879537718E+02 -0.28444235432E+03 -0.47854691157E+03  0.89730518832E+03  0.69995040858E+03 0.  0.
    5000001    2    3    3    0    0  0.59415590707E+02 -0.92766809731E+02 -0.88173761925E+02  0.22155914774E+03  0.17081554452E+03 0.  0.
        -11    1    4    4    0    0 -0.49444967670E+02  0.40622562623E+01 -0.44201667947E+02  0.66446175235E+02  0.51100000000E-03 0. -1.
     200002    1    4    4    0    0  0.10886055838E+03 -0.96829065993E+02 -0.43972093978E+02  0.15511297251E+03  0.30000000000E+02 0. -1.
     200000    1    3    3    0    0 -0.13229512842E+03 -0.19167554459E+03 -0.39037314965E+03  0.67574604058E+03  0.50000000000E+03 0. -1.
    -200001    1    1    2    0    0  0.72879537718E+02  0.28444235432E+03 -0.62369987018E+03  0.98245631354E+03  0.70000000000E+03 0.  1.
<mgrwt>
<rscale>  0 0.15226803E+04</rscale>
<asrwt>0</asrwt>
<pdfrwt beam="1">  1        3 0.55536767E-01 0.15226803E+04</pdfrwt>
<pdfrwt beam="2">  1       -3 0.21300059E+00 0.15226803E+04</pdfrwt>
<totfact> 0.98577005E-01</totfact>
</mgrwt>
</event>
<event>
 8    1  0.1649749E-011  0.1549373E+04  0.7818608E-02  0.8852268E-01
         -3   -1    0    0    0  501 -0.00000000000E+00  0.00000000000E+00  0.50144626320E+03  0.50144627337E+03  0.10100000000E+00 0. -1.
          3   -1    0    0  501    0  0.00000000000E+00 -0.00000000000E+00 -0.11968161557E+04  0.11968161599E+04  0.10100000000E+00 0.  1.
     200001    2    1    2    0    0 -0.30035786226E+03 -0.11407670003E+02 -0.19394892122E+03  0.78624929153E+03  0.70016196985E+03 0.  0.
    5000001    2    3    3    0    0 -0.12158159880E+03 -0.13246028922E+03 -0.53594232288E+02  0.22383118398E+03  0.12206655479E+03 0.  0.
        -11    1    4    4    0    0 -0.12376887040E+03 -0.76938261263E+02 -0.80154445028E+01  0.14595367990E+03  0.51100000000E-03 0. -1.
     200002    1    4    4    0    0  0.21872715918E+01 -0.55522027957E+02 -0.45578787785E+02  0.77877504078E+02  0.30000000000E+02 0. -1.
     200000    1    3    3    0    0 -0.17877626346E+03  0.12105261922E+03 -0.14035468894E+03  0.56241810755E+03  0.50000000000E+03 0. -1.
    -200001    1    1    2    0    0  0.30035786226E+03  0.11407670003E+02 -0.50142097125E+03  0.91201314177E+03  0.70000000000E+03 0.  1.
<mgrwt>
<rscale>  0 0.15493728E+04</rscale>
<asrwt>0</asrwt>
<pdfrwt beam="1">  1        3 0.17097374E+00 0.15493728E+04</pdfrwt>
<pdfrwt beam="2">  1       -3 0.71635182E-01 0.15493728E+04</pdfrwt>
<totfact> 0.10759497E+00</totfact>
</mgrwt>
</event>
<event>
 8    1  0.1649749E-011  0.2103507E+04  0.7818608E-02  0.8559700E-01
         -3   -1    0    0    0  501 -0.00000000000E+00  0.00000000000E+00  0.21485559691E+04  0.21485559714E+04  0.10100000000E+00 0. -1.
          3   -1    0    0  501    0  0.00000000000E+00 -0.00000000000E+00 -0.51485067468E+03  0.51485068459E+03  0.10100000000E+00 0.  1.
     200001    2    1    2    0    0  0.64037661522E+03 -0.28947491446E+03  0.37293405607E+03  0.10592177486E+04  0.69927426187E+03 0.  0.
    5000001    2    3    3    0    0  0.18230711633E+03 -0.60095512865E+02  0.29765841568E+02  0.26536196877E+03  0.18078609962E+03 0.  0.
        -11    1    4    4    0    0  0.22503733868E+02 -0.35295684207E+02 -0.63671499602E+02  0.76198840040E+02  0.51100000000E-03 0. -1.
     200002    1    4    4    0    0  0.15980338246E+03 -0.24799828658E+02  0.93437341171E+02  0.18916312873E+03  0.30000000000E+02 0. -1.
     200000    1    3    3    0    0  0.45806949889E+03 -0.22937940160E+03  0.34316821450E+03  0.79385577981E+03  0.50000000000E+03 0.  1.
    -200001    1    1    2    0    0 -0.64037661522E+03  0.28947491446E+03  0.12607712383E+04  0.16041889074E+04  0.70000000000E+03 0.  1.
<mgrwt>
<rscale>  0 0.21035071E+04</rscale>
<asrwt>0</asrwt>
<pdfrwt beam="1">  1        3 0.73550098E-01 0.21035071E+04</pdfrwt>
<pdfrwt beam="2">  1       -3 0.30693657E+00 0.21035071E+04</pdfrwt>
<totfact> 0.14769394E-01</totfact>
</mgrwt>
</event>
<event>
 8    1  0.1649749E-011  0.1777329E+04  0.7818608E-02  0.8718449E-01
         -3   -1    0    0    0  501 -0.00000000000E+00  0.00000000000E+00  0.10913998284E+04  0.10913998331E+04  0.10100000000E+00 0. -1.
          3   -1    0    0  501    0  0.00000000000E+00 -0.00000000000E+00 -0.72358884487E+03  0.72358885192E+03  0.10100000000E+00 0.  1.
     200001    2    1    2    0    0 -0.45030869308E+02 -0.69755684109E+02  0.73644044983E+03  0.10195131555E+04  0.70012063491E+03 0.  0.
    5000001    2    3    3    0    0  0.37506267704E+02 -0.10506782800E+03  0.13132907657E+03  0.22943777901E+03  0.15148729150E+03 0.  0.
        -11    1    4    4    0    0  0.30824409072E+02  0.95069709934E+01  0.10236530292E+03  0.10732745192E+03  0.51100000000E-03 0. -1.
     200002    1    4    4    0    0  0.66818586325E+01 -0.11457479899E+03  0.28963773648E+02  0.12211032709E+03  0.30000000000E+02 0. -1.
     200000    1    3    3    0    0 -0.82537137012E+02  0.35312143887E+02  0.60511137326E+03  0.79007537649E+03  0.50000000000E+03 0. -1.
    -200001    1    1    2    0    0  0.45030869308E+02  0.69755684109E+02 -0.36862946627E+03  0.79547552952E+03  0.70000000000E+03 0.  1.
<mgrwt>
<rscale>  0 0.17773292E+04</rscale>
<asrwt>0</asrwt>
<pdfrwt beam="1">  1        3 0.10336984E+00 0.17773292E+04</pdfrwt>
<pdfrwt beam="2">  1       -3 0.15591426E+00 0.17773292E+04</pdfrwt>
<totfact> 0.58776468E-01</totfact>
</mgrwt>
</event>
<event>
 8    1  0.1649749E-011  0.1523689E+04  0.7818608E-02  0.8868851E-01
         -3   -1    0    0    0  501 -0.00000000000E+00  0.00000000000E+00  0.60169237716E+03  0.60169238564E+03  0.10100000000E+00 0. -1.
          3   -1    0    0  501    0  0.00000000000E+00 -0.00000000000E+00 -0.96462413278E+03  0.96462413807E+03  0.10100000000E+00 0.  1.
     200001    2    1    2    0    0 -0.45973603691E+02  0.29542714598E+03 -0.22759509019E+03  0.79320153625E+03  0.69855449410E+03 0.  0.
    5000001    2    3    3    0    0  0.73352571878E+02  0.16652827837E+03 -0.10042650291E+03  0.24820107402E+03  0.13566880024E+03 0.  0.
        -11    1    4    4    0    0  0.77482124986E+02  0.16016430503E+03 -0.43117786899E+02  0.18307164675E+03  0.51100000000E-03 0. -1.
     200002    1    4    4    0    0 -0.41295531084E+01  0.63639733448E+01 -0.57308716008E+02  0.65129427267E+02  0.30000000000E+02 0. -1.
     200000    1    3    3    0    0 -0.11932617557E+03  0.12889886761E+03 -0.12716858728E+03  0.54500046224E+03  0.50000000000E+03 0.  1.
    -200001    1    1    2    0    0  0.45973603691E+02 -0.29542714598E+03 -0.13533666543E+03  0.77311498745E+03  0.70000000000E+03 0. -1.
<mgrwt>
<rscale>  0 0.15236889E+04</rscale>
<asrwt>0</asrwt>
<pdfrwt beam="1">  1        3 0.13780345E+00 0.15236889E+04</pdfrwt>
<pdfrwt beam="2">  1       -3 0.85956055E-01 0.15236889E+04</pdfrwt>
<totfact> 0.12641449E+00</totfact>
</mgrwt>
</event>
<event>
 8    1  0.1649749E-011  0.1665156E+04  0.7818608E-02  0.8781491E-01
          3   -1    0    0  501    0  0.00000000000E+00  0.00000000000E+00  0.72785343028E+03  0.72785343729E+03  0.10100000000E+00 0.  1.
         -3   -1    0    0    0  501 -0.00000000000E+00 -0.00000000000E+00 -0.95237025146E+03  0.95237025682E+03  0.10100000000E+00 0. -1.
     200001    2    1    2    0    0  0.18826189807E+03  0.80496805641E+02 -0.51670048866E+03  0.89454336883E+03  0.70093235462E+03 0.  0.
    5000001    2    3    3    0    0  0.63379092133E+02  0.72379217652E+02 -0.25057425511E+02  0.18224110715E+03  0.15273600130E+03 0.  0.
        -11    1    4    4    0    0  0.93557024175E+02  0.43550699968E+02  0.29455396805E+02  0.10731822139E+03  0.51100000000E-03 0. -1.
     200002    1    4    4    0    0 -0.30177932042E+02  0.28828517684E+02 -0.54512822317E+02  0.74922885763E+02  0.30000000000E+02 0. -1.
     200000    1    3    3    0    0  0.12488280593E+03  0.81175879889E+01 -0.49164306315E+03  0.71230226168E+03  0.50000000000E+03 0.  1.
    -200001    1    1    2    0    0 -0.18826189807E+03 -0.80496805641E+02  0.29218366749E+03  0.78568032528E+03  0.70000000000E+03 0.  1.
<mgrwt>
<rscale>  0 0.16651558E+04</rscale>
<asrwt>0</asrwt>
<pdfrwt beam="1">  1        3 0.10397906E+00 0.16651558E+04</pdfrwt>
<pdfrwt beam="2">  1       -3 0.13605289E+00 0.16651558E+04</pdfrwt>
<totfact> 0.83086372E-01</totfact>
</mgrwt>
</event>
<event>
 8    1  0.1649749E-011  0.1470962E+04  0.7818608E-02  0.8903996E-01
         -3   -1    0    0    0  501 -0.00000000000E+00  0.00000000000E+00  0.10903577538E+04  0.10903577585E+04  0.10100000000E+00 0. -1.
          3   -1    0    0  501    0  0.00000000000E+00 -0.00000000000E+00 -0.49610553990E+03  0.49610555018E+03  0.10100000000E+00 0.  1.
     200001    2    1    2    0    0  0.39996039116E+01  0.22646958508E+03  0.30673966100E+03  0.79654689670E+03  0.69935203526E+03 0.  0.
    5000001    2    3    3    0    0  0.18641280225E+02  0.29972844627E+01  0.14499317388E+03  0.22530598962E+03  0.17141554026E+03 0.  0.
        -11    1    4    4    0    0  0.57861606469E+02  0.60340287709E+02  0.32427378973E+02  0.89668560439E+02  0.51100000000E-03 0. -1.
     200002    1    4    4    0    0 -0.39220326244E+02 -0.57343003246E+02  0.11256579490E+03  0.13563742918E+03  0.30000000000E+02 0. -1.
     200000    1    3    3    0    0 -0.14641676314E+02  0.22347230062E+03  0.16174648712E+03  0.57124090708E+03  0.50000000000E+03 0.  1.
    -200001    1    1    2    0    0 -0.39996039116E+01 -0.22646958508E+03  0.28751255291E+03  0.78991641196E+03  0.70000000000E+03 0.  1.
<mgrwt>
<rscale>  0 0.14709623E+04</rscale>
<asrwt>0</asrwt>
<pdfrwt beam="1">  1        3 0.70872222E-01 0.14709623E+04</pdfrwt>
<pdfrwt beam="2">  1       -3 0.15576539E+00 0.14709623E+04</pdfrwt>
<totfact> 0.14160199E+00</totfact>
</mgrwt>
</event>
<event>
 8    1  0.1649749E-011  0.2363740E+04  0.7818608E-02  0.8453205E-01
          3   -1    0    0  501    0  0.00000000000E+00  0.00000000000E+00  0.90545902809E+03  0.90545903372E+03  0.10100000000E+00 0. -1.
         -3   -1    0    0    0  501 -0.00000000000E+00 -0.00000000000E+00 -0.15426618126E+04  0.15426618159E+04  0.10100000000E+00 0.  1.
     200001    2    1    2    0    0 -0.75440955727E+03 -0.41728048097E+03  0.10419553675E+03  0.11128574859E+04  0.69594417451E+03 0.  0.
    5000001    2    3    3    0    0 -0.25518227604E+03 -0.64105329677E+02  0.72315430538E+02  0.32230267625E+03  0.17152844174E+03 0.  0.
        -11    1    4    4    0    0  0.22309206028E+02 -0.13307321159E+00  0.22445072203E+02  0.31646479244E+02  0.51100000000E-03 0. -1.
     200002    1    4    4    0    0 -0.27749148206E+03 -0.63972256466E+02  0.49870358335E+02  0.29065619700E+03  0.30000000000E+02 0. -1.
     200000    1    3    3    0    0 -0.49922728124E+03 -0.35317515129E+03  0.31880106212E+02  0.79055480961E+03  0.50000000000E+03 0. -1.
    -200001    1    1    2    0    0  0.75440955727E+03  0.41728048097E+03 -0.74139832130E+03  0.13352633638E+04  0.70000000000E+03 0.  1.
<mgrwt>
<rscale>  0 0.23637403E+04</rscale>
<asrwt>0</asrwt>
<pdfrwt beam="1">  1        3 0.12935129E+00 0.23637403E+04</pdfrwt>
<pdfrwt beam="2">  1       -3 0.22038026E+00 0.23637403E+04</pdfrwt>
<totfact> 0.12232504E-01</totfact>
</mgrwt>
</event>
<event>
 8    1  0.1649749E-011  0.1752941E+04  0.7818608E-02  0.8731733E-01
          3   -1    0    0  501    0  0.00000000000E+00  0.00000000000E+00  0.29432158372E+04  0.29432158390E+04  0.10100000000E+00 0.  1.
         -3   -1    0    0    0  501 -0.00000000000E+00 -0.00000000000E+00 -0.26100720740E+03  0.26100722695E+03  0.10100000000E+00 0. -1.
     200001    2    1    2    0    0  0.28683601884E+03  0.37032579616E+03  0.89632953870E+03  0.12296901528E+04  0.69951063811E+03 0.  0.
    5000001    2    3    3    0    0  0.78197648422E+02  0.12801886022E+03  0.18263478501E+03  0.30146452164E+03  0.18714083552E+03 0.  0.
        -11    1    4    4    0    0 -0.16739285880E+02  0.13665026791E+03  0.85275299774E+02  0.16194250883E+03  0.51100000000E-03 0. -1.
     200002    1    4    4    0    0  0.94936934302E+02 -0.86314076942E+01  0.97359485239E+02  0.13952201281E+03  0.30000000000E+02 0. -1.
     200000    1    3    3    0    0  0.20863837042E+03  0.24230693594E+03  0.71369475369E+03  0.92822563111E+03  0.50000000000E+03 0. -1.
    -200001    1    1    2    0    0 -0.28683601884E+03 -0.37032579616E+03  0.17858790911E+04  0.19745329131E+04  0.70000000000E+03 0.  1.
<mgrwt>
<rscale>  0 0.17529410E+04</rscale>
<asrwt>0</asrwt>
<pdfrwt beam="1">  1        3 0.42045942E+00 0.17529410E+04</pdfrwt>
<pdfrwt beam="2">  1       -3 0.37286745E-01 0.17529410E+04</pdfrwt>
<totfact> 0.15545655E-01</totfact>
</mgrwt>
</event>
<event>
 8    1  0.1649749E-011  0.1846896E+04  0.7818608E-02  0.8681751E-01
         -3   -1    0    0    0  501 -0.00000000000E+00  0.00000000000E+00  0.46074878416E+03  0.46074879523E+03  0.10100000000E+00 0. -1.
          3   -1    0    0  501    0  0.00000000000E+00 -0.00000000000E+00 -0.18508056832E+04  0.18508056859E+04  0.10100000000E+00 0.  1.
     200001    2    1    2    0    0 -0.45701598046E+03 -0.29383439528E+03 -0.10202760164E+04  0.13513773312E+04  0.70003948692E+03 0.  0.
    5000001    2    3    3    0    0 -0.76586838396E+02 -0.19166523886E+03 -0.27074991949E+03  0.36803901775E+03  0.13980733914E+03 0.  0.
        -11    1    4    4    0    0 -0.74568584857E+02 -0.60401264374E+02 -0.46911643077E+02  0.10681520885E+03  0.51100000000E-03 0. -1.
     200002    1    4    4    0    0 -0.20182535390E+01 -0.13126397449E+03 -0.22383827642E+03  0.26122380890E+03  0.30000000000E+02 0. -1.
     200000    1    3    3    0    0 -0.38042914206E+03 -0.10216915642E+03 -0.74952609692E+03  0.98333831341E+03  0.50000000000E+03 0.  1.
    -200001    1    1    2    0    0  0.45701598046E+03  0.29383439528E+03 -0.36978088261E+03  0.96017715000E+03  0.70000000000E+03 0.  1.
<mgrwt>
<rscale>  0 0.18468963E+04</rscale>
<asrwt>0</asrwt>
<pdfrwt beam="1">  1        3 0.26440081E+00 0.18468963E+04</pdfrwt>
<pdfrwt beam="2">  1       -3 0.65821257E-01 0.18468963E+04</pdfrwt>
<totfact> 0.33773509E-01</totfact>
</mgrwt>
</event>
<event>
 8    1  0.1649749E-011  0.1546445E+04  0.7818608E-02  0.8854141E-01
         -3   -1    0    0    0  501 -0.00000000000E+00  0.00000000000E+00  0.22896738251E+03  0.22896740479E+03  0.10100000000E+00 0. -1.
          3   -1    0    0  501    0  0.00000000000E+00 -0.00000000000E+00 -0.26111724708E+04  0.26111724727E+04  0.10100000000E+00 0.  1.
     200001    2    1    2    0    0 -0.17852454588E+03  0.27539990977E+03 -0.12119940565E+04  0.14376028967E+04  0.70004026436E+03 0.  0.
    5000001    2    3    3    0    0 -0.28759925862E+02 -0.10948657887E+02 -0.47536280912E+03  0.49047537715E+03  0.11683017098E+03 0.  0.
        -11    1    4    4    0    0 -0.24784081382E+02 -0.23896461019E+02 -0.35750643290E+02  0.49632650897E+02  0.51100000000E-03 0. -1.
     200002    1    4    4    0    0 -0.39758444793E+01  0.12947803132E+02 -0.43961216583E+03  0.44084272625E+03  0.30000000000E+02 0. -1.
     200000    1    3    3    0    0 -0.14976462002E+03  0.28634856765E+03 -0.73663124738E+03  0.94712751952E+03  0.50000000000E+03 0. -1.
    -200001    1    1    2    0    0  0.17852454588E+03 -0.27539990977E+03 -0.11702110318E+04  0.14025369808E+04  0.70000000000E+03 0.  1.
<mgrwt>
<rscale>  0 0.15464454E+04</rscale>
<asrwt>0</asrwt>
<pdfrwt beam="1">  1        3 0.37302462E+00 0.15464454E+04</pdfrwt>
<pdfrwt beam="2">  1       -3 0.32709629E-01 0.15464454E+04</pdfrwt>
<totfact> 0.36423428E-01</totfact>
</mgrwt>
</event>
<event>
 8    1  0.1649749E-011  0.1541684E+04  0.7818608E-02  0.8857197E-01
         -3   -1    0    0    0  501 -0.00000000000E+00  0.00000000000E+00  0.39130873492E+03  0.39130874795E+03  0.10100000000E+00 0. -1.
          3   -1    0    0  501    0  0.00000000000E+00 -0.00000000000E+00 -0.15184867466E+04  0.15184867499E+04  0.10100000000E+00 0.  1.
     200001    2    1    2    0    0 -0.16573516550E+03  0.62335438150E+02 -0.22950943542E+03  0.75777001002E+03  0.70013352670E+03 0.  0.
    5000001    2    3    3    0    0 -0.90528767208E+02  0.10373337203E+02  0.52903772390E+02  0.17629491836E+03  0.14134364255E+03 0.  0.
        -11    1    4    4    0    0 -0.23931536990E+02  0.28093681431E+02 -0.41558192491E+02  0.55579283573E+02  0.51100000000E-03 0. -1.
     200002    1    4    4    0    0 -0.66597230217E+02 -0.17720344229E+02  0.94461964882E+02  0.12071563478E+03  0.30000000000E+02 0. -1.
     200000    1    3    3    0    0 -0.75206398288E+02  0.51962100948E+02 -0.28241320781E+03  0.58147509166E+03  0.50000000000E+03 0. -1.
    -200001    1    1    2    0    0  0.16573516550E+03 -0.62335438150E+02 -0.89766857624E+03  0.11520254879E+04  0.70000000000E+03 0.  1.
<mgrwt>
<rscale>  0 0.15416837E+04</rscale>
<asrwt>0</asrwt>
<pdfrwt beam="1">  1        3 0.21692668E+00 0.15416837E+04</pdfrwt>
<pdfrwt beam="2">  1       -3 0.55901250E-01 0.15416837E+04</pdfrwt>
<totfact> 0.92555919E-01</totfact>
</mgrwt>
</event>
<event>
 8    1  0.1649749E-011  0.1696551E+04  0.7818608E-02  0.8763334E-01
         -3   -1    0    0    0  501 -0.00000000000E+00  0.00000000000E+00  0.32782411527E+04  0.32782411542E+04  0.10100000000E+00 0. -1.
          3   -1    0    0  501    0  0.00000000000E+00 -0.00000000000E+00 -0.21949914369E+03  0.21949916693E+03  0.10100000000E+00 0.  1.
     200001    2    1    2    0    0 -0.92988404056E+01 -0.82339656400E+02  0.25019255240E+04  0.25994581353E+04  0.70048910217E+03 0.  0.
    5000001    2    3    3    0    0 -0.36524132929E+02  0.39639292889E+02  0.23916416593E+03  0.27874508884E+03  0.13264252884E+03 0.  0.
        -11    1    4    4    0    0  0.43322744768E+02  0.89534142056E+01  0.38853237340E+02  0.58877821735E+02  0.51100000000E-03 0. -1.
     200002    1    4    4    0    0 -0.79846877698E+02  0.30685878683E+02  0.20031092859E+03  0.21986726710E+03  0.30000000000E+02 0. -1.
     200000    1    3    3    0    0  0.27225292524E+02 -0.12197894929E+03  0.22627613580E+04  0.23207130465E+04  0.50000000000E+03 0. -1.
    -200001    1    1    2    0    0  0.92988404056E+01  0.82339656400E+02  0.55681648502E+03  0.89828218587E+03  0.70000000000E+03 0.  1.
<mgrwt>
<rscale>  0 0.16965508E+04</rscale>
<asrwt>0</asrwt>
<pdfrwt beam="1">  1        3 0.31357020E-01 0.16965508E+04</pdfrwt>
<pdfrwt beam="2">  1       -3 0.46832019E+00 0.16965508E+04</pdfrwt>
<totfact> 0.11296404E-01</totfact>
</mgrwt>
</event>
<event>
 8    1  0.1649749E-011  0.2839804E+04  0.7818608E-02  0.8291016E-01
          3   -1    0    0  501    0  0.00000000000E+00  0.00000000000E+00  0.19215331876E+04  0.19215331902E+04  0.10100000000E+00 0.  1.
         -3   -1    0    0    0  501 -0.00000000000E+00 -0.00000000000E+00 -0.10492252822E+04  0.10492252871E+04  0.10100000000E+00 0. -1.
     200001    2    1    2    0    0 -0.37741408567E+02  0.36231775328E+03 -0.79886547133E+03  0.11226461909E+04  0.69960693283E+03 0.  0.
    5000001    2    3    3    0    0 -0.33186607942E+01  0.21511908768E+03 -0.26220090032E+03  0.37373949815E+03  0.15698619352E+03 0.  0.
        -11    1    4    4    0    0 -0.49596167651E+01  0.28942666040E+02 -0.15305600283E+03  0.15584741165E+03  0.51100000000E-03 0. -1.
     200002    1    4    4    0    0  0.16409559709E+01  0.18617642164E+03 -0.10914489749E+03  0.21789208649E+03  0.30000000000E+02 0. -1.
     200000    1    3    3    0    0 -0.34422747772E+02  0.14719866560E+03 -0.53666457101E+03  0.74890669278E+03  0.50000000000E+03 0. -1.
    -200001    1    1    2    0    0  0.37741408567E+02 -0.36231775328E+03  0.16711733767E+04  0.18481122864E+04  0.70000000000E+03 0.  1.
<mgrwt>
<rscale>  0 0.28398037E+04</rscale>
<asrwt>0</asrwt>
<pdfrwt beam="1">  1        3 0.27450474E+00 0.28398037E+04</pdfrwt>
<pdfrwt beam="2">  1       -3 0.14988933E+00 0.28398037E+04</pdfrwt>
<totfact> 0.39452305E-02</totfact>
</mgrwt>
</event>
<event>
 8    1  0.1649749E-011  0.1934379E+04  0.7818608E-02  0.8637930E-01
          3   -1    0    0  501    0  0.00000000000E+00  0.00000000000E+00  0.22690577721E+04  0.22690577744E+04  0.10100000000E+00 0.  1.
         -3   -1    0    0    0  501 -0.00000000000E+00 -0.00000000000E+00 -0.41226620161E+03  0.41226621399E+03  0.10100000000E+00 0. -1.
     200001    2    1    2    0    0 -0.55495997166E+01  0.13482617813E+03  0.22012610814E+02  0.71291784954E+03  0.69968450662E+03 0.  0.
    5000001    2    3    3    0    0  0.61876148126E+02 -0.75444769178E+02  0.83954575369E+02  0.16282975685E+03  0.99722555555E+02 0.  0.
        -11    1    4    4    0    0  0.27047886884E+02  0.13512495434E+02 -0.27708223046E+01  0.30362035081E+02  0.51100000000E-03 0. -1.
     200002    1    4    4    0    0  0.34828261241E+02 -0.88957264612E+02  0.86725397674E+02  0.13246772177E+03  0.30000000000E+02 0. -1.
     200000    1    3    3    0    0 -0.67425747842E+02  0.21027094731E+03 -0.61941964555E+02  0.55008809270E+03  0.50000000000E+03 0. -1.
    -200001    1    1    2    0    0  0.55495997166E+01 -0.13482617813E+03  0.18347789597E+04  0.19684061388E+04  0.70000000000E+03 0.  1.
<mgrwt>
<rscale>  0 0.19343793E+04</rscale>
<asrwt>0</asrwt>
<pdfrwt beam="1">  1        3 0.32415111E+00 0.19343793E+04</pdfrwt>
<pdfrwt beam="2">  1       -3 0.58895173E-01 0.19343793E+04</pdfrwt>
<totfact> 0.19825253E-01</totfact>
</mgrwt>
</event>
<event>
 8    1  0.1649749E-011  0.2740881E+04  0.7818608E-02  0.8321861E-01
         -3   -1    0    0    0  501 -0.00000000000E+00  0.00000000000E+00  0.24237217387E+04  0.24237217408E+04  0.10100000000E+00 0.  1.
          3   -1    0    0  501    0  0.00000000000E+00 -0.00000000000E+00 -0.77488586965E+03  0.77488587623E+03  0.10100000000E+00 0. -1.
     200001    2    1    2    0    0  0.49246919469E+03  0.75620964382E+03  0.17081951711E+04  0.20549719846E+04  0.70042856988E+03 0.  0.
    5000001    2    3    3    0    0  0.95488130606E+02  0.33048139424E+03  0.59661849471E+03  0.70425320727E+03  0.14725154227E+03 0.  0.
        -11    1    4    4    0    0  0.54108776336E+02  0.28684574455E+02  0.15742156696E+03  0.16891451753E+03  0.51100000000E-03 0. -1.
     200002    1    4    4    0    0  0.41379354270E+02  0.30179681979E+03  0.43919692775E+03  0.53533868975E+03  0.30000000000E+02 0. -1.
     200000    1    3    3    0    0  0.39698106409E+03  0.42572824958E+03  0.11115766764E+04  0.13507187773E+04  0.50000000000E+03 0.  1.
    -200001    1    1    2    0    0 -0.49246919469E+03 -0.75620964382E+03 -0.59359302083E+02  0.11436356325E+04  0.70000000000E+03 0. -1.
<mgrwt>
<rscale>  0 0.27408814E+04</rscale>
<asrwt>0</asrwt>
<pdfrwt beam="1">  1        3 0.11069798E+00 0.27408814E+04</pdfrwt>
<pdfrwt beam="2">  1       -3 0.34624597E+00 0.27408814E+04</pdfrwt>
<totfact> 0.33145381E-02</totfact>
</mgrwt>
</event>
<event>
 8    1  0.1649749E-011  0.1623818E+04  0.7818608E-02  0.8806048E-01
          3   -1    0    0  501    0  0.00000000000E+00  0.00000000000E+00  0.94334907879E+03  0.94334908419E+03  0.10100000000E+00 0. -1.
         -3   -1    0    0    0  501 -0.00000000000E+00 -0.00000000000E+00 -0.69878320895E+03  0.69878321625E+03  0.10100000000E+00 0.  1.
     200001    2    1    2    0    0 -0.22105407500E+03 -0.43569255450E+02 -0.22485741806E+03  0.76970957761E+03  0.70080581569E+03 0.  0.
    5000001    2    3    3    0    0 -0.51111278081E+02 -0.80078752024E+02 -0.76485021097E+02  0.21995702805E+03  0.18304689690E+03 0.  0.
        -11    1    4    4    0    0 -0.10703461840E+03 -0.11386694083E+02 -0.64980314013E+02  0.12573188755E+03  0.51100000000E-03 0. -1.
     200002    1    4    4    0    0  0.55923340319E+02 -0.68692057941E+02 -0.11504707084E+02  0.94225140497E+02  0.30000000000E+02 0. -1.
     200000    1    3    3    0    0 -0.16994279692E+03  0.36509496575E+02 -0.14837239697E+03  0.54975254956E+03  0.50000000000E+03 0.  1.
    -200001    1    1    2    0    0  0.22105407500E+03  0.43569255450E+02  0.46942328790E+03  0.87242272283E+03  0.70000000000E+03 0. -1.
<mgrwt>
<rscale>  0 0.16238183E+04</rscale>
<asrwt>0</asrwt>
<pdfrwt beam="1">  1        3 0.13476415E+00 0.16238183E+04</pdfrwt>
<pdfrwt beam="2">  1       -3 0.99826174E-01 0.16238183E+04</pdfrwt>
<totfact> 0.94087469E-01</totfact>
</mgrwt>
</event>
<event>
 8    1  0.1649749E-011  0.1598848E+04  0.7818608E-02  0.8821256E-01
          3   -1    0    0  501    0  0.00000000000E+00  0.00000000000E+00  0.11234396203E+04  0.11234396248E+04  0.10100000000E+00 0. -1.
         -3   -1    0    0    0  501 -0.00000000000E+00 -0.00000000000E+00 -0.56885884087E+03  0.56885884984E+03  0.10100000000E+00 0.  1.
     200001    2    1    2    0    0 -0.15236437168E+03 -0.29527830729E+03  0.48658544275E+03  0.91446330808E+03  0.69933794994E+03 0.  0.
    5000001    2    3    3    0    0 -0.13665266428E+03 -0.44869433224E+01  0.15410713201E+03  0.24711909239E+03  0.13647254072E+03 0.  0.
        -11    1    4    4    0    0  0.15184234048E+02 -0.23502523083E+02  0.14166936649E+00  0.27981237023E+02  0.51100000000E-03 0. -1.
     200002    1    4    4    0    0 -0.15183689833E+03  0.19015579760E+02  0.15396546265E+03  0.21913785537E+03  0.30000000000E+02 0. -1.
     200000    1    3    3    0    0 -0.15711707398E+02 -0.29079136397E+03  0.33247831074E+03  0.66734421569E+03  0.50000000000E+03 0. -1.
    -200001    1    1    2    0    0  0.15236437168E+03  0.29527830729E+03  0.67995336631E+02  0.77783516655E+03  0.70000000000E+03 0.  1.
<mgrwt>
<rscale>  0 0.15988478E+04</rscale>
<asrwt>0</asrwt>
<pdfrwt beam="1">  1        3 0.16049138E+00 0.15988478E+04</pdfrwt>
<pdfrwt beam="2">  1       -3 0.81265550E-01 0.15988478E+04</pdfrwt>
<totfact> 0.96119065E-01</totfact>
</mgrwt>
</event>
<event>
 8    1  0.1649749E-011  0.1655471E+04  0.7818608E-02  0.8787176E-01
         -3   -1    0    0    0  501 -0.00000000000E+00  0.00000000000E+00  0.94611364791E+03  0.94611365330E+03  0.10100000000E+00 0. -1.
          3   -1    0    0  501    0  0.00000000000E+00 -0.00000000000E+00 -0.72416921043E+03  0.72416921747E+03  0.10100000000E+00 0.  1.
     200001    2    1    2    0    0 -0.13556408217E+02 -0.17544736170E+03 -0.29340469074E+03  0.78340617310E+03  0.70475057046E+03 0.  0.
    5000001    2    3    3    0    0 -0.62769369631E+02 -0.10455273256E+03 -0.84020762668E+02  0.23450764573E+03  0.18183255951E+03 0.  0.
        -11    1    4    4    0    0 -0.89480394438E+02 -0.14910517377E+02  0.18436349482E+02  0.92568696111E+02  0.51100000000E-03 0. -1.
     200002    1    4    4    0    0  0.26711024807E+02 -0.89642215183E+02 -0.10245711215E+03  0.14193894962E+03  0.30000000000E+02 0. -1.
     200000    1    3    3    0    0  0.49212961414E+02 -0.70894629141E+02 -0.20938392807E+03  0.54889852737E+03  0.50000000000E+03 0.  1.
    -200001    1    1    2    0    0  0.13556408217E+02  0.17544736170E+03  0.51534912822E+03  0.88687669768E+03  0.70000000000E+03 0. -1.
<mgrwt>
<rscale>  0 0.16554714E+04</rscale>
<asrwt>0</asrwt>
<pdfrwt beam="1">  1        3 0.10345275E+00 0.16554714E+04</pdfrwt>
<pdfrwt beam="2">  1       -3 0.13515909E+00 0.16554714E+04</pdfrwt>
<totfact> 0.85556122E-01</totfact>
</mgrwt>
</event>
<event>
 8    1  0.1649749E-011  0.1686048E+04  0.7818608E-02  0.8769362E-01
         -3   -1    0    0    0  501 -0.00000000000E+00  0.00000000000E+00  0.17519362009E+04  0.17519362038E+04  0.10100000000E+00 0.  1.
          3   -1    0    0  501    0  0.00000000000E+00 -0.00000000000E+00 -0.40565923898E+03  0.40565925155E+03  0.10100000000E+00 0. -1.
     200001    2    1    2    0    0  0.22194262330E+03  0.28554284017E+03  0.28909827181E+03  0.83910388374E+03  0.69980302609E+03 0.  0.
    5000001    2    3    3    0    0  0.43016188167E+02  0.10999250768E+03  0.11408963789E+03  0.25304875803E+03  0.19253177471E+03 0.  0.
        -11    1    4    4    0    0  0.46562690805E+02  0.15996220685E+03  0.94046727846E+02  0.19131330015E+03  0.51100000000E-03 0. -1.
     200002    1    4    4    0    0 -0.35465026385E+01 -0.49969699170E+02  0.20042910047E+02  0.61735457877E+02  0.30000000000E+02 0. -1.
     200000    1    3    3    0    0  0.17892643514E+03  0.17555033250E+03  0.17500863392E+03  0.58605512571E+03  0.50000000000E+03 0. -1.
    -200001    1    1    2    0    0 -0.22194262330E+03 -0.28554284017E+03  0.10571786901E+04  0.13184915716E+04  0.70000000000E+03 0.  1.
<mgrwt>
<rscale>  0 0.16860476E+04</rscale>
<asrwt>0</asrwt>
<pdfrwt beam="1">  1        3 0.57951321E-01 0.16860476E+04</pdfrwt>
<pdfrwt beam="2">  1       -3 0.25027660E+00 0.16860476E+04</pdfrwt>
<totfact> 0.53431454E-01</totfact>
</mgrwt>
</event>
<event>
 8    1  0.1649749E-011  0.1646669E+04  0.7818608E-02  0.8792380E-01
          3   -1    0    0  501    0  0.00000000000E+00  0.00000000000E+00  0.34237615034E+03  0.34237616523E+03  0.10100000000E+00 0.  1.
         -3   -1    0    0    0  501 -0.00000000000E+00 -0.00000000000E+00 -0.19799257294E+04  0.19799257320E+04  0.10100000000E+00 0. -1.
     200001    2    1    2    0    0 -0.15189888914E+03  0.14852383516E+02 -0.24646240821E+03  0.75755994318E+03  0.69989962354E+03 0.  0.
    5000001    2    3    3    0    0 -0.91364418131E+02 -0.69549515295E+01 -0.19715120426E+03  0.25103099349E+03  0.12550750614E+03 0.  0.
        -11    1    4    4    0    0  0.22384249816E+02  0.94151196418E+01 -0.82313130604E+02  0.85820455532E+02  0.51100000000E-03 0. -1.
     200002    1    4    4    0    0 -0.11374866795E+03 -0.16370071171E+02 -0.11483807366E+03  0.16521053795E+03  0.30000000000E+02 0. -1.
     200000    1    3    3    0    0 -0.60534471007E+02  0.21807335046E+02 -0.49311203955E+02  0.50652894969E+03  0.50000000000E+03 0.  1.
    -200001    1    1    2    0    0  0.15189888914E+03 -0.14852383516E+02 -0.13910871709E+04  0.15647419541E+04  0.70000000000E+03 0. -1.
<mgrwt>
<rscale>  0 0.16466686E+04</rscale>
<asrwt>0</asrwt>
<pdfrwt beam="1">  1        3 0.48910881E-01 0.16466686E+04</pdfrwt>
<pdfrwt beam="2">  1       -3 0.28284653E+00 0.16466686E+04</pdfrwt>
<totfact> 0.49651291E-01</totfact>
</mgrwt>
</event>
<event>
 8    1  0.1649749E-011  0.2107784E+04  0.7818608E-02  0.8557822E-01
          3   -1    0    0  501    0  0.00000000000E+00  0.00000000000E+00  0.27606247484E+04  0.27606247503E+04  0.10100000000E+00 0.  1.
         -3   -1    0    0    0  501 -0.00000000000E+00 -0.00000000000E+00 -0.40233236951E+03  0.40233238219E+03  0.10100000000E+00 0. -1.
     200001    2    1    2    0    0 -0.31997587342E+02 -0.65557711814E+03  0.52596405190E+03  0.10945683147E+04  0.70045442981E+03 0.  0.
    5000001    2    3    3    0    0  0.23034305669E+02 -0.17886318666E+03  0.18263795425E+03  0.32116189436E+03  0.19304331450E+03 0.  0.
        -11    1    4    4    0    0 -0.53657858267E+02  0.25274605188E+01  0.44724508591E+01  0.53903215372E+02  0.51100000000E-03 0. -1.
     200002    1    4    4    0    0  0.76692163937E+02 -0.18139064718E+03  0.17816550339E+03  0.26725867898E+03  0.30000000000E+02 0. -1.
     200000    1    3    3    0    0 -0.55031893012E+02 -0.47671393147E+03  0.34332609765E+03  0.77340642035E+03  0.50000000000E+03 0. -1.
    -200001    1    1    2    0    0  0.31997587342E+02  0.65557711814E+03  0.18323283270E+04  0.20683888178E+04  0.70000000000E+03 0.  1.
<mgrwt>
<rscale>  0 0.21077844E+04</rscale>
<asrwt>0</asrwt>
<pdfrwt beam="1">  1        3 0.39437497E+00 0.21077844E+04</pdfrwt>
<pdfrwt beam="2">  1       -3 0.57476053E-01 0.21077844E+04</pdfrwt>
<totfact> 0.86003176E-02</totfact>
</mgrwt>
</event>
<event>
 8    1  0.1649749E-011  0.1532725E+04  0.7818608E-02  0.8862978E-01
          3   -1    0    0  501    0  0.00000000000E+00  0.00000000000E+00  0.50218226344E+03  0.50218227359E+03  0.10100000000E+00 0.  1.
         -3   -1    0    0    0  501 -0.00000000000E+00 -0.00000000000E+00 -0.11695183955E+04  0.11695183999E+04  0.10100000000E+00 0. -1.
     200001    2    1    2    0    0 -0.20942672081E+03 -0.20163107543E+03 -0.20966130830E+03  0.78627372207E+03  0.69982416352E+03 0.  0.
    5000001    2    3    3    0    0 -0.95488670364E+02 -0.83397895378E+02 -0.10485194689E+03  0.24966775263E+03  0.18779446427E+03 0.  0.
        -11    1    4    4    0    0  0.46030174415E+02 -0.45717666769E+02  0.36081939997E+01  0.64976157748E+02  0.51100000000E-03 0. -1.
     200002    1    4    4    0    0 -0.14151884478E+03 -0.37680228610E+02 -0.10846014089E+03  0.18469159488E+03  0.30000000000E+02 0. -1.
     200000    1    3    3    0    0 -0.11393805045E+03 -0.11823318005E+03 -0.10480936141E+03  0.53660596944E+03  0.50000000000E+03 0.  1.
    -200001    1    1    2    0    0  0.20942672081E+03  0.20163107543E+03 -0.45767482380E+03  0.88542695142E+03  0.70000000000E+03 0.  1.
<mgrwt>
<rscale>  0 0.15327249E+04</rscale>
<asrwt>0</asrwt>
<pdfrwt beam="1">  1        3 0.71740325E-01 0.15327249E+04</pdfrwt>
<pdfrwt beam="2">  1       -3 0.16707406E+00 0.15327249E+04</pdfrwt>
<totfact> 0.11385476E+00</totfact>
</mgrwt>
</event>
<event>
 8    1  0.1649749E-011  0.1495507E+04  0.7818608E-02  0.8887446E-01
         -3   -1    0    0    0  501 -0.00000000000E+00  0.00000000000E+00  0.11021524479E+04  0.11021524525E+04  0.10100000000E+00 0. -1.
          3   -1    0    0  501    0  0.00000000000E+00 -0.00000000000E+00 -0.50731194056E+03  0.50731195061E+03  0.10100000000E+00 0.  1.
     200001    2    1    2    0    0  0.79650235196E+02 -0.10556000654E+03  0.53239044559E+02  0.71457937174E+03  0.70021582937E+03 0.  0.
    5000001    2    3    3    0    0  0.94838754789E+02 -0.29051275182E+02 -0.65725428574E+02  0.19473629641E+03  0.15415585353E+03 0.  0.
        -11    1    4    4    0    0 -0.29451021121E+02 -0.42116316026E+02 -0.36205691328E+02  0.62864925082E+02  0.51100000000E-03 0. -1.
     200002    1    4    4    0    0  0.12428977591E+03  0.13065040845E+02 -0.29519737246E+02  0.13187137132E+03  0.30000000000E+02 0. -1.
     200000    1    3    3    0    0 -0.15188519593E+02 -0.76508731361E+02  0.11896447313E+03  0.51984307533E+03  0.50000000000E+03 0. -1.
    -200001    1    1    2    0    0 -0.79650235196E+02  0.10556000654E+03  0.54160146280E+03  0.89488503142E+03  0.70000000000E+03 0. -1.
<mgrwt>
<rscale>  0 0.14955067E+04</rscale>
<asrwt>0</asrwt>
<pdfrwt beam="1">  1        3 0.72473136E-01 0.14955067E+04</pdfrwt>
<pdfrwt beam="2">  1       -3 0.15745035E+00 0.14955067E+04</pdfrwt>
<totfact> 0.13085192E+00</totfact>
</mgrwt>
</event>
<event>
 8    1  0.1649749E-011  0.2056509E+04  0.7818608E-02  0.8580647E-01
         -3   -1    0    0    0  501 -0.00000000000E+00  0.00000000000E+00  0.11730357372E+04  0.11730357415E+04  0.10100000000E+00 0. -1.
          3   -1    0    0  501    0  0.00000000000E+00 -0.00000000000E+00 -0.90134246871E+03  0.90134247437E+03  0.10100000000E+00 0.  1.
     200001    2    1    2    0    0  0.49658523243E+02 -0.13435737993E+02  0.89375002147E+03  0.11365077067E+04  0.70015296802E+03 0.  0.
    5000001    2    3    3    0    0 -0.92219061646E+02 -0.53603593061E+01  0.37784839063E+02  0.13507330833E+03  0.91016568698E+02 0.  0.
        -11    1    4    4    0    0  0.20089849131E+01 -0.25490482112E+02 -0.39397365685E+01  0.25871262497E+02  0.51100000000E-03 0. -1.
     200002    1    4    4    0    0 -0.94228046559E+02  0.20130122806E+02  0.41724575631E+02  0.10920204583E+03  0.30000000000E+02 0. -1.
     200000    1    3    3    0    0  0.14187758489E+03 -0.80753786866E+01  0.85596518241E+03  0.10014343984E+04  0.50000000000E+03 0. -1.
    -200001    1    1    2    0    0 -0.49658523243E+02  0.13435737993E+02 -0.62205675300E+03  0.93787050915E+03  0.70000000000E+03 0.  1.
<mgrwt>
<rscale>  0 0.20565086E+04</rscale>
<asrwt>0</asrwt>
<pdfrwt beam="1">  1        3 0.12876321E+00 0.20565086E+04</pdfrwt>
<pdfrwt beam="2">  1       -3 0.16757654E+00 0.20565086E+04</pdfrwt>
<totfact> 0.27888706E-01</totfact>
</mgrwt>
</event>
<event>
 8    1  0.1649749E-011  0.1801367E+04  0.7818608E-02  0.8705573E-01
         -3   -1    0    0    0  501 -0.00000000000E+00  0.00000000000E+00  0.13406206438E+04  0.13406206476E+04  0.10100000000E+00 0. -1.
          3   -1    0    0  501    0  0.00000000000E+00 -0.00000000000E+00 -0.60511563894E+03  0.60511564737E+03  0.10100000000E+00 0.  1.
     200001    2    1    2    0    0  0.23494150338E+03 -0.21539936426E+03 -0.13811306000E+03  0.78177627875E+03  0.70036029052E+03 0.  0.
    5000001    2    3    3    0    0  0.83561337053E+02  0.89750072327E+01 -0.13291682905E+03  0.21319311495E+03  0.14394920289E+03 0.  0.
        -11    1    4    4    0    0  0.94125819775E+02  0.56164268700E+02 -0.82876038891E+02  0.13741372875E+03  0.51100000000E-03 0. -1.
     200002    1    4    4    0    0 -0.10564482722E+02 -0.47189261467E+02 -0.50040790159E+02  0.75779386199E+02  0.30000000000E+02 0. -1.
     200000    1    3    3    0    0  0.15138016632E+03 -0.22437437149E+03 -0.51962309506E+01  0.56858316380E+03  0.50000000000E+03 0. -1.
    -200001    1    1    2    0    0 -0.23494150338E+03  0.21539936426E+03  0.87361806487E+03  0.11639600162E+04  0.70000000000E+03 0.  1.
<mgrwt>
<rscale>  0 0.18013667E+04</rscale>
<asrwt>0</asrwt>
<pdfrwt beam="1">  1        3 0.86445093E-01 0.18013667E+04</pdfrwt>
<pdfrwt beam="2">  1       -3 0.19151723E+00 0.18013667E+04</pdfrwt>
<totfact> 0.50440414E-01</totfact>
</mgrwt>
</event>
<event>
 8    1  0.1649749E-011  0.2118939E+04  0.7818608E-02  0.8552946E-01
         -3   -1    0    0    0  501 -0.00000000000E+00  0.00000000000E+00  0.11943674060E+04  0.11943674103E+04  0.10100000000E+00 0. -1.
          3   -1    0    0  501    0  0.00000000000E+00 -0.00000000000E+00 -0.93980806937E+03  0.93980807480E+03  0.10100000000E+00 0.  1.
     200001    2    1    2    0    0  0.25697244929E+03  0.69482536402E+03 -0.16522905442E+03  0.10318872199E+04  0.69905183504E+03 0.  0.
    5000001    2    3    3    0    0  0.29884600321E+02  0.16649433732E+03 -0.98445281066E+02  0.26692798096E+03  0.18150928339E+03 0.  0.
        -11    1    4    4    0    0  0.79178066254E+02  0.10936039541E+03  0.53760534857E+01  0.13512129444E+03  0.51100000000E-03 0. -1.
     200002    1    4    4    0    0 -0.49293465932E+02  0.57133941906E+02 -0.10382133455E+03  0.13180668651E+03  0.30000000000E+02 0. -1.
     200000    1    3    3    0    0  0.22708784897E+03  0.52833102670E+03 -0.66783773351E+02  0.76495923898E+03  0.50000000000E+03 0.  1.
    -200001    1    1    2    0    0 -0.25697244929E+03 -0.69482536402E+03  0.41978839103E+03  0.11022882651E+04  0.70000000000E+03 0. -1.
<mgrwt>
<rscale>  0 0.21189395E+04</rscale>
<asrwt>0</asrwt>
<pdfrwt beam="1">  1        3 0.13425830E+00 0.21189395E+04</pdfrwt>
<pdfrwt beam="2">  1       -3 0.17062392E+00 0.21189395E+04</pdfrwt>
<totfact> 0.23811272E-01</totfact>
</mgrwt>
</event>
<event>
 8    1  0.1649749E-011  0.1448920E+04  0.7818608E-02  0.8919149E-01
          3   -1    0    0  501    0  0.00000000000E+00  0.00000000000E+00  0.11780132114E+04  0.11780132157E+04  0.10100000000E+00 0.  1.
         -3   -1    0    0    0  501 -0.00000000000E+00 -0.00000000000E+00 -0.44553203525E+03  0.44553204669E+03  0.10100000000E+00 0. -1.
     200001    2    1    2    0    0  0.11339974322E+03  0.13140685400E+03  0.44214784417E+03  0.84610027614E+03  0.70018833048E+03 0.  0.
    5000001    2    3    3    0    0  0.40735491724E+02  0.62276886429E+02 -0.11927742019E+02  0.16327988699E+03  0.14484564059E+03 0.  0.
        -11    1    4    4    0    0 -0.10537876353E+02 -0.87331483716E+01  0.50037104124E+02  0.51875104895E+02  0.51100000000E-03 0. -1.
     200002    1    4    4    0    0  0.51273368077E+02  0.71010034801E+02 -0.61964846144E+02  0.11140478210E+03  0.30000000000E+02 0. -1.
     200000    1    3    3    0    0  0.72664251493E+02  0.69129967576E+02  0.45407558619E+03  0.68282038915E+03  0.50000000000E+03 0.  1.
    -200001    1    1    2    0    0 -0.11339974322E+03 -0.13140685400E+03  0.29033333198E+03  0.77744498629E+03  0.70000000000E+03 0. -1.
<mgrwt>
<rscale>  0 0.14489205E+04</rscale>
<asrwt>0</asrwt>
<pdfrwt beam="1">  1        3 0.16828760E+00 0.14489205E+04</pdfrwt>
<pdfrwt beam="2">  1       -3 0.63647435E-01 0.14489205E+04</pdfrwt>
<totfact> 0.14604511E+00</totfact>
</mgrwt>
</event>
<event>
 8    1  0.1649749E-011  0.1834391E+04  0.7818608E-02  0.8688221E-01
          3   -1    0    0  501    0  0.00000000000E+00  0.00000000000E+00  0.12947120803E+04  0.12947120842E+04  0.10100000000E+00 0. -1.
         -3   -1    0    0    0  501 -0.00000000000E+00 -0.00000000000E+00 -0.64975659230E+03  0.64975660015E+03  0.10100000000E+00 0.  1.
     200001    2    1    2    0    0 -0.38134586802E+03 -0.32630472374E+03  0.65830285933E+03  0.10830294258E+04  0.69834850815E+03 0.  0.
    5000001    2    3    3    0    0  0.39401816669E+02 -0.50831313170E+02  0.19294297581E+03  0.23481127271E+03  0.11735849489E+03 0.  0.
        -11    1    4    4    0    0 -0.21071395054E+02 -0.61927057863E+02  0.94649832172E+02  0.11505457364E+03  0.51100000000E-03 0. -1.
     200002    1    4    4    0    0  0.60473211723E+02  0.11095744693E+02  0.98293143636E+02  0.11975669907E+03  0.30000000000E+02 0. -1.
     200000    1    3    3    0    0 -0.42074768469E+03 -0.27547341057E+03  0.46535988353E+03  0.84821815313E+03  0.50000000000E+03 0. -1.
    -200001    1    1    2    0    0  0.38134586802E+03  0.32630472374E+03 -0.13347371364E+02  0.86143925852E+03  0.70000000000E+03 0.  1.
<mgrwt>
<rscale>  0 0.18343911E+04</rscale>
<asrwt>0</asrwt>
<pdfrwt beam="1">  1        3 0.18495887E+00 0.18343911E+04</pdfrwt>
<pdfrwt beam="2">  1       -3 0.92822373E-01 0.18343911E+04</pdfrwt>
<totfact> 0.47409004E-01</totfact>
</mgrwt>
</event>
<event>
 8    1  0.1649749E-011  0.1478087E+04  0.7818608E-02  0.8899157E-01
         -3   -1    0    0    0  501 -0.00000000000E+00  0.00000000000E+00  0.20679338190E+04  0.20679338214E+04  0.10100000000E+00 0. -1.
          3   -1    0    0  501    0  0.00000000000E+00 -0.00000000000E+00 -0.26412116424E+03  0.26412118355E+03  0.10100000000E+00 0.  1.
     200001    2    1    2    0    0  0.19245370578E+03  0.13608857800E+03  0.94403425389E+03  0.11985747765E+04  0.69987305442E+03 0.  0.
    5000001    2    3    3    0    0  0.11016755031E+01 -0.53092289881E+02  0.29240724657E+03  0.33426999403E+03  0.15301773140E+03 0.  0.
        -11    1    4    4    0    0 -0.70729646409E+01 -0.89218001406E+02  0.26405682164E+03  0.27881155582E+03  0.51100000000E-03 0. -1.
     200002    1    4    4    0    0  0.81746401440E+01  0.36125711524E+02  0.28350424937E+02  0.55458438210E+02  0.30000000000E+02 0. -1.
     200000    1    3    3    0    0  0.19135203028E+03  0.18918086788E+03  0.65162700732E+03  0.86430478243E+03  0.50000000000E+03 0.  1.
    -200001    1    1    2    0    0 -0.19245370578E+03 -0.13608857800E+03  0.85977840085E+03  0.11334802285E+04  0.70000000000E+03 0. -1.
<mgrwt>
<rscale>  0 0.14780868E+04</rscale>
<asrwt>0</asrwt>
<pdfrwt beam="1">  1        3 0.37731598E-01 0.14780868E+04</pdfrwt>
<pdfrwt beam="2">  1       -3 0.29541911E+00 0.14780868E+04</pdfrwt>
<totfact> 0.71932606E-01</totfact>
</mgrwt>
</event>
<event>
 8    1  0.1649749E-011  0.1507120E+04  0.7818608E-02  0.8879732E-01
          3   -1    0    0  501    0  0.00000000000E+00  0.00000000000E+00  0.32604553503E+03  0.32604555067E+03  0.10100000000E+00 0.  1.
         -3   -1    0    0    0  501 -0.00000000000E+00 -0.00000000000E+00 -0.17416350462E+04  0.17416350491E+04  0.10100000000E+00 0. -1.
     200001    2    1    2    0    0 -0.10260735176E+03  0.25538040658E+03 -0.76470341416E+03  0.10729946534E+04  0.70057033470E+03 0.  0.
    5000001    2    3    3    0    0 -0.25984789643E+02  0.39783975641E+02 -0.25688220165E+03  0.32450602826E+03  0.19250382553E+03 0.  0.
        -11    1    4    4    0    0  0.33797872208E+02  0.20110174113E+02  0.16296138487E+02  0.42570875002E+02  0.51100000000E-03 0. -1.
     200002    1    4    4    0    0 -0.59782661851E+02  0.19673801529E+02 -0.27317834014E+03  0.28193515326E+03  0.30000000000E+02 0. -1.
     200000    1    3    3    0    0 -0.76622562113E+02  0.21559643094E+03 -0.50782121251E+03  0.74848862512E+03  0.50000000000E+03 0. -1.
    -200001    1    1    2    0    0  0.10260735176E+03 -0.25538040658E+03 -0.65088609701E+03  0.99468594640E+03  0.70000000000E+03 0. -1.
<mgrwt>
<rscale>  0 0.15071196E+04</rscale>
<asrwt>0</asrwt>
<pdfrwt beam="1">  1        3 0.46577936E-01 0.15071196E+04</pdfrwt>
<pdfrwt beam="2">  1       -3 0.24880500E+00 0.15071196E+04</pdfrwt>
<totfact> 0.86729979E-01</totfact>
</mgrwt>
</event>
<event>
 8    1  0.1649749E-011  0.1958774E+04  0.7818608E-02  0.8626141E-01
          3   -1    0    0  501    0  0.00000000000E+00  0.00000000000E+00  0.18033041461E+04  0.18033041489E+04  0.10100000000E+00 0.  1.
         -3   -1    0    0    0  501 -0.00000000000E+00 -0.00000000000E+00 -0.53191194044E+03  0.53191195003E+03  0.10100000000E+00 0. -1.
     200001    2    1    2    0    0  0.11443432794E+03 -0.37693182684E+03 -0.32109156951E+02  0.80410910733E+03  0.70027683171E+03 0.  0.
    5000001    2    3    3    0    0  0.39143916315E+02 -0.13246547088E+03  0.61021612756E+02  0.23480621295E+03  0.17980815682E+03 0.  0.
        -11    1    4    4    0    0  0.15630636965E+01  0.48954134924E+01  0.86846181869E+02  0.86998089329E+02  0.51100000000E-03 0. -1.
     200002    1    4    4    0    0  0.37580852618E+02 -0.13736088437E+03 -0.25824569113E+02  0.14780812362E+03  0.30000000000E+02 0. -1.
     200000    1    3    3    0    0  0.75290411629E+02 -0.24446635596E+03 -0.93130769707E+02  0.56930289438E+03  0.50000000000E+03 0. -1.
    -200001    1    1    2    0    0 -0.11443432794E+03  0.37693182684E+03  0.13035013626E+04  0.15311069916E+04  0.70000000000E+03 0.  1.
<mgrwt>
<rscale>  0 0.19587741E+04</rscale>
<asrwt>0</asrwt>
<pdfrwt beam="1">  1        3 0.25761488E+00 0.19587741E+04</pdfrwt>
<pdfrwt beam="2">  1       -3 0.75987420E-01 0.19587741E+04</pdfrwt>
<totfact> 0.26738040E-01</totfact>
</mgrwt>
</event>
<event>
 8    1  0.1649749E-011  0.1579492E+04  0.7818608E-02  0.8833247E-01
         -3   -1    0    0    0  501 -0.00000000000E+00  0.00000000000E+00  0.12684120024E+04  0.12684120064E+04  0.10100000000E+00 0. -1.
          3   -1    0    0  501    0  0.00000000000E+00 -0.00000000000E+00 -0.49171635735E+03  0.49171636772E+03  0.10100000000E+00 0.  1.
     200001    2    1    2    0    0  0.18842950190E+03 -0.27777142839E+03  0.53726488751E+03  0.94773085366E+03  0.70489543056E+03 0.  0.
    5000001    2    3    3    0    0 -0.23411935630E+02 -0.61069459685E+02 -0.31831352595E+02  0.13182211588E+03  0.10993742579E+03 0.  0.
        -11    1    4    4    0    0  0.57902805980E+01  0.28463719855E+02 -0.59161262339E+01  0.29643064067E+02  0.51100000000E-03 0. -1.
     200002    1    4    4    0    0 -0.29202216228E+02 -0.89533179541E+02 -0.25915226361E+02  0.10217905181E+03  0.30000000000E+02 0. -1.
     200000    1    3    3    0    0  0.21184143753E+03 -0.21670196870E+03  0.56909624010E+03  0.81590873778E+03  0.50000000000E+03 0. -1.
    -200001    1    1    2    0    0 -0.18842950190E+03  0.27777142839E+03  0.23943075754E+03  0.81239752047E+03  0.70000000000E+03 0.  1.
<mgrwt>
<rscale>  0 0.15794923E+04</rscale>
<asrwt>0</asrwt>
<pdfrwt beam="1">  1        3 0.70245196E-01 0.15794923E+04</pdfrwt>
<pdfrwt beam="2">  1       -3 0.18120171E+00 0.15794923E+04</pdfrwt>
<totfact> 0.95062542E-01</totfact>
</mgrwt>
</event>
<event>
 8    1  0.1649749E-011  0.1641603E+04  0.7818608E-02  0.8795389E-01
         -3   -1    0    0    0  501 -0.00000000000E+00  0.00000000000E+00  0.92580247570E+03  0.92580248121E+03  0.10100000000E+00 0.  1.
          3   -1    0    0  501    0  0.00000000000E+00 -0.00000000000E+00 -0.72770974326E+03  0.72770975027E+03  0.10100000000E+00 0. -1.
     200001    2    1    2    0    0  0.11716012780E+03 -0.73058091930E+02 -0.30946134705E+03  0.77791236627E+03  0.70022663755E+03 0.  0.
    5000001    2    3    3    0    0 -0.42762462675E+02 -0.38126368747E+02 -0.45086186152E+02  0.18910876070E+03  0.17449100545E+03 0.  0.
        -11    1    4    4    0    0  0.48911869971E+02 -0.64925453528E+02 -0.34958234780E+02  0.88485952101E+02  0.51100000000E-03 0. -1.
     200002    1    4    4    0    0 -0.91674332647E+02  0.26799084781E+02 -0.10127951372E+02  0.10062280860E+03  0.30000000000E+02 0. -1.
     200000    1    3    3    0    0  0.15992259047E+03 -0.34931723183E+02 -0.26437516090E+03  0.58880360557E+03  0.50000000000E+03 0. -1.
    -200001    1    1    2    0    0 -0.11716012780E+03  0.73058091930E+02  0.50755407950E+03  0.87559986521E+03  0.70000000000E+03 0.  1.
<mgrwt>
<rscale>  0 0.16416035E+04</rscale>
<asrwt>0</asrwt>
<pdfrwt beam="1">  1        3 0.10395854E+00 0.16416035E+04</pdfrwt>
<pdfrwt beam="2">  1       -3 0.13225750E+00 0.16416035E+04</pdfrwt>
<totfact> 0.89396662E-01</totfact>
</mgrwt>
</event>
<event>
 8    1  0.1649749E-011  0.1824971E+04  0.7818608E-02  0.8693132E-01
          3   -1    0    0  501    0  0.00000000000E+00  0.00000000000E+00  0.31276184916E+03  0.31276186547E+03  0.10100000000E+00 0.  1.
         -3   -1    0    0    0  501 -0.00000000000E+00 -0.00000000000E+00 -0.26621851538E+04  0.26621851558E+04  0.10100000000E+00 0. -1.
     200001    2    1    2    0    0 -0.28380162190E+03 -0.96305565442E+02 -0.35512388827E+03  0.84022261634E+03  0.70003067537E+03 0.  0.
    5000001    2    3    3    0    0 -0.59411903778E+02  0.64298248006E+02 -0.15935774922E+03  0.23651017512E+03  0.15125518732E+03 0.  0.
        -11    1    4    4    0    0  0.75241609379E+00 -0.45170365101E+02 -0.30187793987E+02  0.54334435853E+02  0.51100000000E-03 0. -1.
     200002    1    4    4    0    0 -0.60164319871E+02  0.10946861311E+03 -0.12916995523E+03  0.18217573926E+03  0.30000000000E+02 0. -1.
     200000    1    3    3    0    0 -0.22438971813E+03 -0.16060381345E+03 -0.19576613905E+03  0.60371244123E+03  0.50000000000E+03 0.  1.
    -200001    1    1    2    0    0  0.28380162190E+03  0.96305565442E+02 -0.19942994164E+04  0.21347244049E+04  0.70000000000E+03 0. -1.
<mgrwt>
<rscale>  0 0.18249712E+04</rscale>
<asrwt>0</asrwt>
<pdfrwt beam="1">  1        3 0.44680267E-01 0.18249712E+04</pdfrwt>
<pdfrwt beam="2">  1       -3 0.38031215E+00 0.18249712E+04</pdfrwt>
<totfact> 0.16871304E-01</totfact>
</mgrwt>
</event>
<event>
 8    1  0.1649749E-011  0.2412642E+04  0.7818608E-02  0.8434786E-01
          3   -1    0    0  501    0  0.00000000000E+00  0.00000000000E+00  0.29451803186E+04  0.29451803203E+04  0.10100000000E+00 0. -1.
         -3   -1    0    0    0  501 -0.00000000000E+00 -0.00000000000E+00 -0.49409877311E+03  0.49409878344E+03  0.10100000000E+00 0.  1.
     200001    2    1    2    0    0 -0.62066166808E+03 -0.71278407460E+03  0.16079694665E+04  0.19921716368E+04  0.69992855497E+03 0.  0.
    5000001    2    3    3    0    0 -0.17488980928E+03 -0.27306820949E+03  0.55380993085E+03  0.66804365254E+03  0.18553756967E+03 0.  0.
        -11    1    4    4    0    0 -0.20786230629E+03 -0.21532772362E+03  0.42134185878E+03  0.51681885501E+03  0.51100000000E-03 0. -1.
     200002    1    4    4    0    0  0.32972497008E+02 -0.57740485878E+02  0.13246807207E+03  0.15122479753E+03  0.30000000000E+02 0. -1.
     200000    1    3    3    0    0 -0.44577185880E+03 -0.43971586510E+03  0.10541595356E+04  0.13241279843E+04  0.50000000000E+03 0.  1.
    -200001    1    1    2    0    0  0.62066166808E+03  0.71278407460E+03  0.84311207900E+03  0.14471074670E+04  0.70000000000E+03 0. -1.
<mgrwt>
<rscale>  0 0.24126417E+04</rscale>
<asrwt>0</asrwt>
<pdfrwt beam="1">  1        3 0.42074006E+00 0.24126417E+04</pdfrwt>
<pdfrwt beam="2">  1       -3 0.70585538E-01 0.24126417E+04</pdfrwt>
<totfact> 0.39165235E-02</totfact>
</mgrwt>
</event>
<event>
 8    1  0.1649749E-011  0.2104902E+04  0.7818608E-02  0.8559087E-01
         -3   -1    0    0    0  501 -0.00000000000E+00  0.00000000000E+00  0.12356063470E+04  0.12356063511E+04  0.10100000000E+00 0. -1.
          3   -1    0    0  501    0  0.00000000000E+00 -0.00000000000E+00 -0.89644509074E+03  0.89644509643E+03  0.10100000000E+00 0.  1.
     200001    2    1    2    0    0  0.47643867516E+03 -0.61276855893E+03  0.51338602644E+02  0.10479292229E+04  0.70216870200E+03 0.  0.
    5000001    2    3    3    0    0  0.18833527480E+03 -0.22926337728E+03  0.97565469627E+01  0.35380469444E+03  0.19248558310E+03 0.  0.
        -11    1    4    4    0    0 -0.39172806285E+02 -0.30693682376E+02  0.75399356393E+01  0.50333502955E+02  0.51100000000E-03 0. -1.
     200002    1    4    4    0    0  0.22750808109E+03 -0.19856969491E+03  0.22166113234E+01  0.30347119148E+03  0.30000000000E+02 0. -1.
     200000    1    3    3    0    0  0.28810340035E+03 -0.38350518165E+03  0.41582055681E+02  0.69412452845E+03  0.50000000000E+03 0. -1.
    -200001    1    1    2    0    0 -0.47643867516E+03  0.61276855893E+03  0.28782265357E+03  0.10841222246E+04  0.70000000000E+03 0. -1.
<mgrwt>
<rscale>  0 0.21049021E+04</rscale>
<asrwt>0</asrwt>
<pdfrwt beam="1">  1        3 0.12806359E+00 0.21049021E+04</pdfrwt>
<pdfrwt beam="2">  1       -3 0.17651519E+00 0.21049021E+04</pdfrwt>
<totfact> 0.24429862E-01</totfact>
</mgrwt>
</event>
<event>
 8    1  0.1649749E-011  0.1403276E+04  0.7818608E-02  0.8951451E-01
          3   -1    0    0  501    0  0.00000000000E+00  0.00000000000E+00  0.10529188988E+04  0.10529189036E+04  0.10100000000E+00 0.  1.
         -3   -1    0    0    0  501 -0.00000000000E+00 -0.00000000000E+00 -0.46755342595E+03  0.46755343686E+03  0.10100000000E+00 0. -1.
     200001    2    1    2    0    0  0.37665037781E+02  0.18599105090E+02  0.23123459081E+03  0.73486858323E+03  0.69627423969E+03 0.  0.
    5000001    2    3    3    0    0 -0.30133569780E+02  0.97427060609E+02  0.58843500640E+02  0.19586098984E+03  0.15652126248E+03 0.  0.
        -11    1    4    4    0    0 -0.17807610595E+02 -0.40965925374E+02  0.14340177510E+02  0.46914376561E+02  0.51100000000E-03 0. -1.
     200002    1    4    4    0    0 -0.12325959185E+02  0.13839298598E+03  0.44503323130E+02  0.14894661328E+03  0.30000000000E+02 0. -1.
     200000    1    3    3    0    0  0.67798607561E+02 -0.78827955520E+02  0.17239109017E+03  0.53900759339E+03  0.50000000000E+03 0. -1.
    -200001    1    1    2    0    0 -0.37665037781E+02 -0.18599105090E+02  0.35413088199E+03  0.78560375722E+03  0.70000000000E+03 0.  1.
<mgrwt>
<rscale>  0 0.14032760E+04</rscale>
<asrwt>0</asrwt>
<pdfrwt beam="1">  1        3 0.15041699E+00 0.14032760E+04</pdfrwt>
<pdfrwt beam="2">  1       -3 0.66793348E-01 0.14032760E+04</pdfrwt>
<totfact> 0.17779589E+00</totfact>
</mgrwt>
</event>
<event>
 8    1  0.1649749E-011  0.1454274E+04  0.7818608E-02  0.8915443E-01
          3   -1    0    0  501    0  0.00000000000E+00  0.00000000000E+00  0.31754095112E+03  0.31754096718E+03  0.10100000000E+00 0.  1.
         -3   -1    0    0    0  501 -0.00000000000E+00 -0.00000000000E+00 -0.16650712771E+04  0.16650712801E+04  0.10100000000E+00 0. -1.
     200001    2    1    2    0    0 -0.25012061393E+02  0.15978568664E+03 -0.52189698654E+03  0.88815919670E+03  0.70020941528E+03 0.  0.
    5000001    2    3    3    0    0  0.77066753085E+02  0.45228923171E+02 -0.20323160315E+03  0.27571249453E+03  0.16349114716E+03 0.  0.
        -11    1    4    4    0    0  0.91669203831E+02 -0.19944529922E+02 -0.50980276220E+02  0.10677085636E+03  0.51100000000E-03 0. -1.
     200002    1    4    4    0    0 -0.14602450746E+02  0.65173453093E+02 -0.15225132693E+03  0.16894163817E+03  0.30000000000E+02 0. -1.
     200000    1    3    3    0    0 -0.10207881448E+03  0.11455676346E+03 -0.31866538340E+03  0.61244670217E+03  0.50000000000E+03 0.  1.
    -200001    1    1    2    0    0  0.25012061393E+02 -0.15978568664E+03 -0.82563333942E+03  0.10944530506E+04  0.70000000000E+03 0. -1.
<mgrwt>
<rscale>  0 0.14542742E+04</rscale>
<asrwt>0</asrwt>
<pdfrwt beam="1">  1        3 0.45362995E-01 0.14542742E+04</pdfrwt>
<pdfrwt beam="2">  1       -3 0.23786732E+00 0.14542742E+04</pdfrwt>
<totfact> 0.10640110E+00</totfact>
</mgrwt>
</event>
<event>
 8    1  0.1649749E-011  0.1420609E+04  0.7818608E-02  0.8939034E-01
         -3   -1    0    0    0  501 -0.00000000000E+00  0.00000000000E+00  0.42598869234E+03  0.42598870431E+03  0.10100000000E+00 0. -1.
          3   -1    0    0  501    0  0.00000000000E+00 -0.00000000000E+00 -0.11843804878E+04  0.11843804921E+04  0.10100000000E+00 0.  1.
     200001    2    1    2    0    0  0.11122017610E+02  0.11011201781E+03 -0.43128710633E+03  0.82982718384E+03  0.70025440464E+03 0.  0.
    5000001    2    3    3    0    0  0.42197295514E+02 -0.23398753976E+02 -0.14398286060E+02  0.16455499327E+03  0.15666180687E+03 0.  0.
        -11    1    4    4    0    0 -0.11332845368E+02 -0.19953189341E+02 -0.74885520923E+02  0.78322438631E+02  0.51100000000E-03 0. -1.
     200002    1    4    4    0    0  0.53530140882E+02 -0.34455646349E+01  0.60487234863E+02  0.86232554640E+02  0.30000000000E+02 0. -1.
     200000    1    3    3    0    0 -0.31075277904E+02  0.13351077178E+03 -0.41688882027E+03  0.66527219057E+03  0.50000000000E+03 0.  1.
    -200001    1    1    2    0    0 -0.11122017610E+02 -0.11011201781E+03 -0.32710468912E+03  0.78054201257E+03  0.70000000000E+03 0. -1.
<mgrwt>
<rscale>  0 0.14206093E+04</rscale>
<asrwt>0</asrwt>
<pdfrwt beam="1">  1        3 0.16919721E+00 0.14206093E+04</pdfrwt>
<pdfrwt beam="2">  1       -3 0.60855529E-01 0.14206093E+04</pdfrwt>
<totfact> 0.15867176E+00</totfact>
</mgrwt>
</event>
<event>
 8    1  0.1649749E-011  0.1630443E+04  0.7818608E-02  0.8802061E-01
         -3   -1    0    0    0  501 -0.00000000000E+00  0.00000000000E+00  0.91089708646E+03  0.91089709206E+03  0.10100000000E+00 0. -1.
          3   -1    0    0  501    0  0.00000000000E+00 -0.00000000000E+00 -0.72959499974E+03  0.72959500673E+03  0.10100000000E+00 0.  1.
     200001    2    1    2    0    0  0.22469492167E+03  0.46974785703E+02  0.44240299892E+03  0.85891156892E+03  0.69950999382E+03 0.  0.
    5000001    2    3    3    0    0  0.51432876493E+01  0.14019223012E+03  0.11532161695E+03  0.21558067243E+03  0.11617072005E+03 0.  0.
        -11    1    4    4    0    0  0.47958922820E+02  0.34475783167E+02  0.63613397004E+02  0.86806118343E+02  0.51100000000E-03 0. -1.
     200002    1    4    4    0    0 -0.42815635171E+02  0.10571644695E+03  0.51708219945E+02  0.12877455409E+03  0.30000000000E+02 0. -1.
     200000    1    3    3    0    0  0.21955163402E+03 -0.93217444412E+02  0.32708138198E+03  0.64333089649E+03  0.50000000000E+03 0.  1.
    -200001    1    1    2    0    0 -0.22469492167E+03 -0.46974785703E+02 -0.26110091220E+03  0.78158052987E+03  0.70000000000E+03 0.  1.
<mgrwt>
<rscale>  0 0.16304428E+04</rscale>
<asrwt>0</asrwt>
<pdfrwt beam="1">  1        3 0.10422786E+00 0.16304428E+04</pdfrwt>
<pdfrwt beam="2">  1       -3 0.13012816E+00 0.16304428E+04</pdfrwt>
<totfact> 0.92602418E-01</totfact>
</mgrwt>
</event>
<event>
 8    1  0.1649749E-011  0.1598438E+04  0.7818608E-02  0.8821508E-01
          3   -1    0    0  501    0  0.00000000000E+00  0.00000000000E+00  0.72404114851E+03  0.72404115556E+03  0.10100000000E+00 0.  1.
         -3   -1    0    0    0  501 -0.00000000000E+00 -0.00000000000E+00 -0.88220308190E+03  0.88220308768E+03  0.10100000000E+00 0. -1.
     200001    2    1    2    0    0  0.15755389564E+03  0.26054644283E+03  0.15875972788E+03  0.77971716063E+03  0.70003322813E+03 0.  0.
    5000001    2    3    3    0    0  0.16772518356E+02  0.10616404171E+03 -0.41449969222E+02  0.20201719977E+03  0.16595399341E+03 0.  0.
        -11    1    4    4    0    0  0.86549035105E+02  0.75685458795E+02 -0.33702100380E+02  0.11981175118E+03  0.51100000000E-03 0. -1.
     200002    1    4    4    0    0 -0.69776516749E+02  0.30478582914E+02 -0.77478688420E+01  0.82205448589E+02  0.30000000000E+02 0. -1.
     200000    1    3    3    0    0  0.14078137729E+03  0.15438240113E+03  0.20020969710E+03  0.57769996086E+03  0.50000000000E+03 0. -1.
    -200001    1    1    2    0    0 -0.15755389564E+03 -0.26054644283E+03 -0.31692166127E+03  0.82652708261E+03  0.70000000000E+03 0.  1.
<mgrwt>
<rscale>  0 0.15984384E+04</rscale>
<asrwt>0</asrwt>
<pdfrwt beam="1">  1        3 0.10343445E+00 0.15984384E+04</pdfrwt>
<pdfrwt beam="2">  1       -3 0.12602901E+00 0.15984384E+04</pdfrwt>
<totfact> 0.10233490E+00</totfact>
</mgrwt>
</event>
<event>
 8    1  0.1649749E-011  0.1536849E+04  0.7818608E-02  0.8860312E-01
          3   -1    0    0  501    0  0.00000000000E+00  0.00000000000E+00  0.37151123564E+03  0.37151124937E+03  0.10100000000E+00 0.  1.
         -3   -1    0    0    0  501 -0.00000000000E+00 -0.00000000000E+00 -0.15893899976E+04  0.15893900008E+04  0.10100000000E+00 0. -1.
     200001    2    1    2    0    0  0.24000519505E+03  0.15628582544E+03 -0.78323686800E+03  0.10885817394E+04  0.69965881621E+03 0.  0.
    5000001    2    3    3    0    0  0.16977839985E+03  0.16555150052E+02 -0.21255154286E+03  0.31389586453E+03  0.15573592183E+03 0.  0.
        -11    1    4    4    0    0 -0.12295239081E+02 -0.21527954820E+02 -0.79395064612E+02  0.83175729800E+02  0.51100000000E-03 0. -1.
     200002    1    4    4    0    0  0.18207363893E+03  0.38083104872E+02 -0.13315647825E+03  0.23072013473E+03  0.30000000000E+02 0. -1.
     200000    1    3    3    0    0  0.70226795200E+02  0.13973067538E+03 -0.57068532515E+03  0.77468587489E+03  0.50000000000E+03 0. -1.
    -200001    1    1    2    0    0 -0.24000519505E+03 -0.15628582544E+03 -0.43464189396E+03  0.87231951077E+03  0.70000000000E+03 0.  1.
<mgrwt>
<rscale>  0 0.15368491E+04</rscale>
<asrwt>0</asrwt>
<pdfrwt beam="1">  1        3 0.53073036E-01 0.15368491E+04</pdfrwt>
<pdfrwt beam="2">  1       -3 0.22705571E+00 0.15368491E+04</pdfrwt>
<totfact> 0.88933602E-01</totfact>
</mgrwt>
</event>
<event>
 8    1  0.1649749E-011  0.1616471E+04  0.7818608E-02  0.8810493E-01
          3   -1    0    0  501    0  0.00000000000E+00  0.00000000000E+00  0.21768172939E+03  0.21768175282E+03  0.10100000000E+00 0.  1.
         -3   -1    0    0    0  501 -0.00000000000E+00 -0.00000000000E+00 -0.30009155601E+04  0.30009155618E+04  0.10100000000E+00 0. -1.
     200001    2    1    2    0    0 -0.20488198931E+03  0.14838302204E+03 -0.20197532216E+04  0.21523436903E+04  0.69941842591E+03 0.  0.
    5000001    2    3    3    0    0 -0.10842175918E+03  0.64416263777E+02 -0.53895087511E+03  0.58418216110E+03  0.18680476081E+03 0.  0.
        -11    1    4    4    0    0  0.18120360645E+02  0.10630226010E+00 -0.32601891930E+03  0.32652211949E+03  0.51100000000E-03 0. -1.
     200002    1    4    4    0    0 -0.12654211983E+03  0.64309961517E+02 -0.21293195581E+03  0.25766004161E+03  0.30000000000E+02 0. -1.
     200000    1    3    3    0    0 -0.96460230130E+02  0.83966758263E+02 -0.14808023464E+04  0.15681615292E+04  0.50000000000E+03 0. -1.
    -200001    1    1    2    0    0  0.20488198931E+03 -0.14838302204E+03 -0.76348060913E+03  0.10662536243E+04  0.70000000000E+03 0.  1.
<mgrwt>
<rscale>  0 0.16164709E+04</rscale>
<asrwt>0</asrwt>
<pdfrwt beam="1">  1        3 0.31097393E-01 0.16164709E+04</pdfrwt>
<pdfrwt beam="2">  1       -3 0.42870220E+00 0.16164709E+04</pdfrwt>
<totfact> 0.18962017E-01</totfact>
</mgrwt>
</event>
<event>
 8    1  0.1649749E-011  0.1732107E+04  0.7818608E-02  0.8743261E-01
          3   -1    0    0  501    0  0.00000000000E+00  0.00000000000E+00  0.49623173977E+03  0.49623175005E+03  0.10100000000E+00 0.  1.
         -3   -1    0    0    0  501 -0.00000000000E+00 -0.00000000000E+00 -0.15114893907E+04  0.15114893941E+04  0.10100000000E+00 0. -1.
     200001    2    1    2    0    0 -0.61533751485E+00 -0.62853560906E+02  0.79234012721E+02  0.70700482203E+03  0.69973340697E+03 0.  0.
    5000001    2    3    3    0    0  0.52804720727E+02 -0.75109597439E+02  0.33781281714E+02  0.20196040436E+03  0.17668344512E+03 0.  0.
        -11    1    4    4    0    0  0.82260541739E+01 -0.59031914387E+02  0.99238004196E+02  0.11576103127E+03  0.51100000000E-03 0. -1.
     200002    1    4    4    0    0  0.44578666553E+02 -0.16077683052E+02 -0.65456722482E+02  0.86199373095E+02  0.30000000000E+02 0. -1.
     200000    1    3    3    0    0 -0.53420058242E+02  0.12256036533E+02  0.45452731007E+02  0.50504441766E+03  0.50000000000E+03 0.  1.
    -200001    1    1    2    0    0  0.61533751485E+00  0.62853560906E+02 -0.10944916637E+04  0.13007163221E+04  0.70000000000E+03 0. -1.
<mgrwt>
<rscale>  0 0.17321074E+04</rscale>
<asrwt>0</asrwt>
<pdfrwt beam="1">  1        3 0.70890250E-01 0.17321074E+04</pdfrwt>
<pdfrwt beam="2">  1       -3 0.21592705E+00 0.17321074E+04</pdfrwt>
<totfact> 0.55324736E-01</totfact>
</mgrwt>
</event>
<event>
 8    1  0.1649749E-011  0.2392219E+04  0.7818608E-02  0.8442422E-01
         -3   -1    0    0    0  501 -0.00000000000E+00  0.00000000000E+00  0.15327018730E+04  0.15327018764E+04  0.10100000000E+00 0. -1.
          3   -1    0    0  501    0  0.00000000000E+00 -0.00000000000E+00 -0.93343523115E+03  0.93343523661E+03  0.10100000000E+00 0.  1.
     200001    2    1    2    0    0 -0.71867860227E+03 -0.49993672929E+03 -0.13143306730E+03  0.11280946130E+04  0.69920464680E+03 0.  0.
    5000001    2    3    3    0    0 -0.24018723828E+03 -0.13211030885E+03  0.17883238162E+02  0.33025652164E+03  0.18332080281E+03 0.  0.
        -11    1    4    4    0    0 -0.94858405953E+02  0.27620036318E+02  0.48557975762E+02  0.11008569660E+03  0.51100000000E-03 0. -1.
     200002    1    4    4    0    0 -0.14532883233E+03 -0.15973034516E+03 -0.30674737601E+02  0.22017082504E+03  0.30000000000E+02 0. -1.
     200000    1    3    3    0    0 -0.47849136399E+03 -0.36782642045E+03 -0.14931630546E+03  0.79783809139E+03  0.50000000000E+03 0.  1.
    -200001    1    1    2    0    0  0.71867860227E+03  0.49993672929E+03  0.73069970919E+03  0.13380424999E+04  0.70000000000E+03 0. -1.
<mgrwt>
<rscale>  0 0.23922190E+04</rscale>
<asrwt>0</asrwt>
<pdfrwt beam="1">  1        3 0.13334789E+00 0.23922190E+04</pdfrwt>
<pdfrwt beam="2">  1       -3 0.21895741E+00 0.23922190E+04</pdfrwt>
<totfact> 0.11540375E-01</totfact>
</mgrwt>
</event>
<event>
 8    1  0.1649749E-011  0.1491249E+04  0.7818608E-02  0.8890293E-01
          3   -1    0    0  501    0  0.00000000000E+00  0.00000000000E+00  0.17872272834E+04  0.17872272862E+04  0.10100000000E+00 0.  1.
         -3   -1    0    0    0  501 -0.00000000000E+00 -0.00000000000E+00 -0.31107179158E+03  0.31107180798E+03  0.10100000000E+00 0. -1.
     200001    2    1    2    0    0  0.90173976984E+02 -0.32653640095E+02  0.10738010575E+04  0.12852267130E+04  0.69968663436E+03 0.  0.
    5000001    2    3    3    0    0  0.61979584735E+02  0.23263797754E+02  0.37069452472E+03  0.42019464417E+03  0.18645759604E+03 0.  0.
        -11    1    4    4    0    0 -0.44750002195E+02  0.26274393346E+02  0.25383320641E+03  0.25908339028E+03  0.51100000000E-03 0. -1.
     200002    1    4    4    0    0  0.10672958693E+03 -0.30105955918E+01  0.11686131831E+03  0.16111125389E+03  0.30000000000E+02 0. -1.
     200000    1    3    3    0    0  0.28194392249E+02 -0.55917437849E+02  0.70310653277E+03  0.86503206879E+03  0.50000000000E+03 0.  1.
    -200001    1    1    2    0    0 -0.90173976984E+02  0.32653640095E+02  0.40235443428E+03  0.81307238123E+03  0.70000000000E+03 0. -1.
<mgrwt>
<rscale>  0 0.14912492E+04</rscale>
<asrwt>0</asrwt>
<pdfrwt beam="1">  1        3 0.25531818E+00 0.14912492E+04</pdfrwt>
<pdfrwt beam="2">  1       -3 0.44438830E-01 0.14912492E+04</pdfrwt>
<totfact> 0.88556746E-01</totfact>
</mgrwt>
</event>
<event>
 8    1  0.1649749E-011  0.1444576E+04  0.7818608E-02  0.8922170E-01
         -3   -1    0    0    0  501 -0.00000000000E+00  0.00000000000E+00  0.19372208373E+03  0.19372211006E+03  0.10100000000E+00 0. -1.
          3   -1    0    0  501    0  0.00000000000E+00 -0.00000000000E+00 -0.26930317371E+04  0.26930317389E+04  0.10100000000E+00 0.  1.
     200001    2    1    2    0    0  0.66862364342E+02 -0.36533749816E+01 -0.92073610330E+03  0.11586397394E+04  0.70014794930E+03 0.  0.
    5000001    2    3    3    0    0 -0.19716961566E+02  0.64847377388E+02 -0.25576636568E+03  0.31937036389E+03  0.17884925101E+03 0.  0.
        -11    1    4    4    0    0 -0.74459589320E+02  0.95037489705E+02 -0.14491579747E+03  0.18861851247E+03  0.51100000000E-03 0. -1.
     200002    1    4    4    0    0  0.54742627754E+02 -0.30190112317E+02 -0.11085056821E+03  0.13075185141E+03  0.30000000000E+02 0. -1.
     200000    1    3    3    0    0  0.86579325909E+02 -0.68500752370E+02 -0.66496973761E+03  0.83926937552E+03  0.50000000000E+03 0.  1.
    -200001    1    1    2    0    0 -0.66862364342E+02  0.36533749816E+01 -0.15785735500E+04  0.17281141096E+04  0.70000000000E+03 0.  1.
<mgrwt>
<rscale>  0 0.14445757E+04</rscale>
<asrwt>0</asrwt>
<pdfrwt beam="1">  1        3 0.38471880E+00 0.14445757E+04</pdfrwt>
<pdfrwt beam="2">  1       -3 0.27674587E-01 0.14445757E+04</pdfrwt>
<totfact> 0.43755101E-01</totfact>
</mgrwt>
</event>
<event>
 8    1  0.1649749E-011  0.2229415E+04  0.7818608E-02  0.8506284E-01
          3   -1    0    0  501    0  0.00000000000E+00  0.00000000000E+00  0.33081785790E+03  0.33081787332E+03  0.10100000000E+00 0.  1.
         -3   -1    0    0    0  501 -0.00000000000E+00 -0.00000000000E+00 -0.37560620955E+04  0.37560620969E+04  0.10100000000E+00 0. -1.
     200001    2    1    2    0    0 -0.26190971515E+03 -0.66101300671E+03 -0.79922688377E+03  0.12776982323E+04  0.69872331227E+03 0.  0.
    5000001    2    3    3    0    0  0.23925147471E+02 -0.21634754428E+03 -0.13948183758E+03  0.29551063913E+03  0.14315265358E+03 0.  0.
        -11    1    4    4    0    0  0.12080443908E+02 -0.79610257899E+02  0.20005762775E+02  0.82969638015E+02  0.51100000000E-03 0. -1.
     200002    1    4    4    0    0  0.11844703563E+02 -0.13673728638E+03 -0.15948760035E+03  0.21254100112E+03  0.30000000000E+02 0. -1.
     200000    1    3    3    0    0 -0.28583486262E+03 -0.44466546244E+03 -0.65974504620E+03  0.98218759316E+03  0.50000000000E+03 0.  1.
    -200001    1    1    2    0    0  0.26190971515E+03  0.66101300671E+03 -0.26260173538E+04  0.28091817379E+04  0.70000000000E+03 0. -1.
<mgrwt>
<rscale>  0 0.22294147E+04</rscale>
<asrwt>0</asrwt>
<pdfrwt beam="1">  1        3 0.47259697E-01 0.22294147E+04</pdfrwt>
<pdfrwt beam="2">  1       -3 0.53658028E+00 0.22294147E+04</pdfrwt>
<totfact> 0.20861922E-02</totfact>
</mgrwt>
</event>
<event>
 8    1  0.1649749E-011  0.1980963E+04  0.7818608E-02  0.8615573E-01
         -3   -1    0    0    0  501 -0.00000000000E+00  0.00000000000E+00  0.19324780355E+04  0.19324780382E+04  0.10100000000E+00 0.  1.
          3   -1    0    0  501    0  0.00000000000E+00 -0.00000000000E+00 -0.50766604452E+03  0.50766605457E+03  0.10100000000E+00 0. -1.
     200001    2    1    2    0    0 -0.38211481335E+03  0.53230389043E+03  0.10184752504E+04  0.13987658190E+04  0.69992486611E+03 0.  0.
    5000001    2    3    3    0    0 -0.17564362687E+03  0.11235497747E+03  0.29451131156E+03  0.40221615882E+03  0.17766992192E+03 0.  0.
        -11    1    4    4    0    0 -0.22888652117E+01  0.92616180231E+02  0.13619170493E+03  0.16471544019E+03  0.51100000000E-03 0. -1.
     200002    1    4    4    0    0 -0.17335476166E+03  0.19738797236E+02  0.15831960663E+03  0.23750071863E+03  0.30000000000E+02 0. -1.
     200000    1    3    3    0    0 -0.20647118648E+03  0.41994891297E+03  0.72396393886E+03  0.99654966014E+03  0.50000000000E+03 0.  1.
    -200001    1    1    2    0    0  0.38211481335E+03 -0.53230389043E+03  0.40633674057E+03  0.10413782738E+04  0.70000000000E+03 0. -1.
<mgrwt>
<rscale>  0 0.19809629E+04</rscale>
<asrwt>0</asrwt>
<pdfrwt beam="1">  1        3 0.72523721E-01 0.19809629E+04</pdfrwt>
<pdfrwt beam="2">  1       -3 0.27606829E+00 0.19809629E+04</pdfrwt>
<totfact> 0.22949508E-01</totfact>
</mgrwt>
</event>
<event>
 8    1  0.1649749E-011  0.3547635E+04  0.7818608E-02  0.8102593E-01
         -3   -1    0    0    0  501 -0.00000000000E+00  0.00000000000E+00  0.14200874234E+04  0.14200874270E+04  0.10100000000E+00 0. -1.
          3   -1    0    0  501    0  0.00000000000E+00 -0.00000000000E+00 -0.22156586254E+04  0.22156586277E+04  0.10100000000E+00 0.  1.
     200001    2    1    2    0    0  0.13865596726E+04  0.72211432290E+03 -0.86946223783E+03  0.19212616697E+04  0.70091725589E+03 0.  0.
    5000001    2    3    3    0    0  0.33031528988E+03  0.23148613806E+03 -0.14848297328E+03  0.46311925157E+03  0.17244774564E+03 0.  0.
        -11    1    4    4    0    0  0.13059093837E+03  0.18486748831E+03 -0.42411436844E+02  0.23027963738E+03  0.51100000000E-03 0. -1.
     200002    1    4    4    0    0  0.19972435151E+03  0.46618649750E+02 -0.10607153644E+03  0.23283961418E+03  0.30000000000E+02 0. -1.
     200000    1    3    3    0    0  0.10562443827E+04  0.49062818484E+03 -0.72097926455E+03  0.14581424182E+04  0.50000000000E+03 0.  1.
    -200001    1    1    2    0    0 -0.13865596726E+04 -0.72211432290E+03  0.73891035818E+02  0.17144843849E+04  0.70000000000E+03 0. -1.
<mgrwt>
<rscale>  0 0.35476352E+04</rscale>
<asrwt>0</asrwt>
<pdfrwt beam="1">  1        3 0.31652266E+00 0.35476352E+04</pdfrwt>
<pdfrwt beam="2">  1       -3 0.20286963E+00 0.35476352E+04</pdfrwt>
<totfact> 0.94386170E-03</totfact>
</mgrwt>
</event>
<event>
 8    1  0.1649749E-011  0.2252325E+04  0.7818608E-02  0.8496960E-01
          3   -1    0    0  501    0  0.00000000000E+00  0.00000000000E+00  0.96336418886E+03  0.96336419415E+03  0.10100000000E+00 0.  1.
         -3   -1    0    0    0  501 -0.00000000000E+00 -0.00000000000E+00 -0.13164716572E+04  0.13164716611E+04  0.10100000000E+00 0. -1.
     200001    2    1    2    0    0  0.56619932637E+03 -0.25466963307E+03 -0.81078678745E+03  0.12382463687E+04  0.70031461201E+03 0.  0.
    5000001    2    3    3    0    0  0.81573109134E+02 -0.55216276435E+02  0.27759263846E+01  0.14896747825E+03  0.11171658110E+03 0.  0.
        -11    1    4    4    0    0  0.93373374821E+02 -0.59388844414E+02 -0.15397408104E+02  0.11172601372E+03  0.51100000000E-03 0. -1.
     200002    1    4    4    0    0 -0.11800265687E+02  0.41725679782E+01  0.18173334489E+02  0.37241464529E+02  0.30000000000E+02 0. -1.
     200000    1    3    3    0    0  0.48462621724E+03 -0.19945335664E+03 -0.81356271383E+03  0.10892788905E+04  0.50000000000E+03 0. -1.
    -200001    1    1    2    0    0 -0.56619932637E+03  0.25466963307E+03  0.45767931912E+03  0.10415894865E+04  0.70000000000E+03 0.  1.
<mgrwt>
<rscale>  0 0.22523247E+04</rscale>
<asrwt>0</asrwt>
<pdfrwt beam="1">  1        3 0.13762346E+00 0.22523247E+04</pdfrwt>
<pdfrwt beam="2">  1       -3 0.18806738E+00 0.22523247E+04</pdfrwt>
<totfact> 0.16884119E-01</totfact>
</mgrwt>
</event>
<event>
 8    1  0.1649749E-011  0.2350054E+04  0.7818608E-02  0.8458443E-01
         -3   -1    0    0    0  501 -0.00000000000E+00  0.00000000000E+00  0.31433459571E+04  0.31433459587E+04  0.10100000000E+00 0.  1.
          3   -1    0    0  501    0  0.00000000000E+00 -0.00000000000E+00 -0.43924179883E+03  0.43924181044E+03  0.10100000000E+00 0. -1.
     200001    2    1    2    0    0 -0.50477203974E+03 -0.78373488055E+03  0.15810829747E+04  0.19638809539E+04  0.69854838987E+03 0.  0.
    5000001    2    3    3    0    0 -0.18100347240E+03 -0.21675049719E+03  0.45527929090E+03  0.56970330714E+03  0.19375136231E+03 0.  0.
        -11    1    4    4    0    0  0.33938904894E+02 -0.67275052363E+02  0.13826321904E+03  0.15746269296E+03  0.51100000000E-03 0. -1.
     200002    1    4    4    0    0 -0.21494237729E+03 -0.14947544482E+03  0.31701607186E+03  0.41224061418E+03  0.30000000000E+02 0. -1.
     200000    1    3    3    0    0 -0.32376856734E+03 -0.56698438336E+03  0.11258036838E+04  0.13941776467E+04  0.50000000000E+03 0.  1.
    -200001    1    1    2    0    0  0.50477203974E+03  0.78373488055E+03  0.11230211835E+04  0.16187068152E+04  0.70000000000E+03 0. -1.
<mgrwt>
<rscale>  0 0.23500544E+04</rscale>
<asrwt>0</asrwt>
<pdfrwt beam="1">  1        3 0.62748831E-01 0.23500544E+04</pdfrwt>
<pdfrwt beam="2">  1       -3 0.44904941E+00 0.23500544E+04</pdfrwt>
<totfact> 0.33420601E-02</totfact>
</mgrwt>
</event>
<event>
 8    1  0.1649749E-011  0.1711927E+04  0.7818608E-02  0.8754591E-01
          3   -1    0    0  501    0  0.00000000000E+00  0.00000000000E+00  0.20181512972E+04  0.20181512998E+04  0.10100000000E+00 0.  1.
         -3   -1    0    0    0  501 -0.00000000000E+00 -0.00000000000E+00 -0.36304190336E+03  0.36304191741E+03  0.10100000000E+00 0. -1.
     200001    2    1    2    0    0  0.37525462317E+02  0.16820579381E+03  0.14698798120E+04  0.16368738318E+04  0.69936251698E+03 0.  0.
    5000001    2    3    3    0    0  0.24730236256E+02  0.83444703835E+02  0.42548354969E+03  0.47579170169E+03  0.19433705038E+03 0.  0.
        -11    1    4    4    0    0 -0.19852388546E+02 -0.55558671303E+02  0.78848264921E+02  0.98478079638E+02  0.51100000000E-03 0. -1.
     200002    1    4    4    0    0  0.44582624802E+02  0.13900337514E+03  0.34663528477E+03  0.37731362205E+03  0.30000000000E+02 0. -1.
     200000    1    3    3    0    0  0.12795226061E+02  0.84761089977E+02  0.10443962623E+04  0.11610821302E+04  0.50000000000E+03 0.  1.
    -200001    1    1    2    0    0 -0.37525462317E+02 -0.16820579381E+03  0.18522958185E+03  0.74431938534E+03  0.70000000000E+03 0. -1.
<mgrwt>
<rscale>  0 0.17119270E+04</rscale>
<asrwt>0</asrwt>
<pdfrwt beam="1">  1        3 0.28830734E+00 0.17119270E+04</pdfrwt>
<pdfrwt beam="2">  1       -3 0.51863129E-01 0.17119270E+04</pdfrwt>
<totfact> 0.41449772E-01</totfact>
</mgrwt>
</event>
<event>
 8    1  0.1649749E-011  0.1517692E+04  0.7818608E-02  0.8872772E-01
          3   -1    0    0  501    0  0.00000000000E+00  0.00000000000E+00  0.37333853398E+03  0.37333854764E+03  0.10100000000E+00 0.  1.
         -3   -1    0    0    0  501 -0.00000000000E+00 -0.00000000000E+00 -0.15424270438E+04  0.15424270471E+04  0.10100000000E+00 0. -1.
     200001    2    1    2    0    0  0.21877510123E+03  0.50004577635E+02 -0.34700170708E+03  0.81295567732E+03  0.70008838433E+03 0.  0.
    5000001    2    3    3    0    0  0.61696907491E+02  0.32252573121E+02 -0.20901281562E+03  0.27071068954E+03  0.15732508849E+03 0.  0.
        -11    1    4    4    0    0  0.17243650415E+02  0.78298887847E+02 -0.44595840700E+02  0.91743383008E+02  0.51100000000E-03 0. -1.
     200002    1    4    4    0    0  0.44453257076E+02 -0.46046314726E+02 -0.16441697492E+03  0.17896730653E+03  0.30000000000E+02 0. -1.
     200000    1    3    3    0    0  0.15707819374E+03  0.17752004515E+02 -0.13798889146E+03  0.54224498778E+03  0.50000000000E+03 0.  1.
    -200001    1    1    2    0    0 -0.21877510123E+03 -0.50004577635E+02 -0.82208680270E+03  0.11028099174E+04  0.70000000000E+03 0. -1.
<mgrwt>
<rscale>  0 0.15176923E+04</rscale>
<asrwt>0</asrwt>
<pdfrwt beam="1">  1        3 0.53334078E-01 0.15176923E+04</pdfrwt>
<pdfrwt beam="2">  1       -3 0.22034672E+00 0.15176923E+04</pdfrwt>
<totfact> 0.96747049E-01</totfact>
</mgrwt>
</event>
<event>
 8    1  0.1649749E-011  0.1417631E+04  0.7818608E-02  0.8941155E-01
         -3   -1    0    0    0  501 -0.00000000000E+00  0.00000000000E+00  0.11916276326E+04  0.11916276369E+04  0.10100000000E+00 0.  1.
          3   -1    0    0  501    0  0.00000000000E+00 -0.00000000000E+00 -0.42162430387E+03  0.42162431597E+03  0.10100000000E+00 0. -1.
     200001    2    1    2    0    0  0.34089801847E+02  0.11583480777E+02  0.50668132279E+03  0.86449647179E+03  0.69952261955E+03 0.  0.
    5000001    2    3    3    0    0  0.18580246597E+02 -0.20550571577E+02  0.16478190817E+03  0.25772769100E+03  0.19622164481E+03 0.  0.
        -11    1    4    4    0    0 -0.42609650987E+02  0.36780886408E+02 -0.13990412484E+02  0.58001272434E+02  0.51100000000E-03 0. -1.
     200002    1    4    4    0    0  0.61189897583E+02 -0.57331457986E+02  0.17877232066E+03  0.19972641857E+03  0.30000000000E+02 0. -1.
     200000    1    3    3    0    0  0.15509555250E+02  0.32134052354E+02  0.34189941462E+03  0.60676878079E+03  0.50000000000E+03 0.  1.
    -200001    1    1    2    0    0 -0.34089801847E+02 -0.11583480777E+02  0.26332200594E+03  0.74875548107E+03  0.70000000000E+03 0.  1.
<mgrwt>
<rscale>  0 0.14176307E+04</rscale>
<asrwt>0</asrwt>
<pdfrwt beam="1">  1        3 0.60232043E-01 0.14176307E+04</pdfrwt>
<pdfrwt beam="2">  1       -3 0.17023252E+00 0.14176307E+04</pdfrwt>
<totfact> 0.15886570E+00</totfact>
</mgrwt>
</event>
<event>
 8    1  0.1649749E-011  0.1514998E+04  0.7818608E-02  0.8874540E-01
         -3   -1    0    0    0  501 -0.00000000000E+00  0.00000000000E+00  0.68053263714E+03  0.68053264463E+03  0.10100000000E+00 0. -1.
          3   -1    0    0  501    0  0.00000000000E+00 -0.00000000000E+00 -0.84317034964E+03  0.84317035569E+03  0.10100000000E+00 0.  1.
     200001    2    1    2    0    0 -0.18953322672E+03 -0.17751856755E+03  0.47719982789E+02  0.74801875669E+03  0.69987082933E+03 0.  0.
    5000001    2    3    3    0    0 -0.87124114126E+02 -0.85245157708E+01 -0.29015467239E+02  0.20493962326E+03  0.18301659272E+03 0.  0.
        -11    1    4    4    0    0  0.15373043398E+02 -0.74802462694E+02 -0.20802729491E+01  0.76394151767E+02  0.51100000000E-03 0. -1.
     200002    1    4    4    0    0 -0.10249715752E+03  0.66277946924E+02 -0.26935194290E+02  0.12854547149E+03  0.30000000000E+02 0. -1.
     200000    1    3    3    0    0 -0.10240911259E+03 -0.16899405178E+03  0.76735450028E+02  0.54307913343E+03  0.50000000000E+03 0. -1.
    -200001    1    1    2    0    0  0.18953322672E+03  0.17751856755E+03 -0.21035769529E+03  0.77568424363E+03  0.70000000000E+03 0. -1.
<mgrwt>
<rscale>  0 0.15149983E+04</rscale>
<asrwt>0</asrwt>
<pdfrwt beam="1">  1        3 0.12045291E+00 0.15149983E+04</pdfrwt>
<pdfrwt beam="2">  1       -3 0.97218949E-01 0.15149983E+04</pdfrwt>
<totfact> 0.13320184E+00</totfact>
</mgrwt>
</event>
<event>
 8    1  0.1649749E-011  0.1789162E+04  0.7818608E-02  0.8712084E-01
         -3   -1    0    0    0  501 -0.00000000000E+00  0.00000000000E+00  0.10035082183E+04  0.10035082234E+04  0.10100000000E+00 0. -1.
          3   -1    0    0  501    0  0.00000000000E+00 -0.00000000000E+00 -0.79747718318E+03  0.79747718957E+03  0.10100000000E+00 0.  1.
     200001    2    1    2    0    0  0.23255843816E+03  0.50604927381E+03  0.10894675348E+03  0.90121063422E+03  0.70010136227E+03 0.  0.
    5000001    2    3    3    0    0  0.79980384259E+02  0.29466749014E+03  0.55088448743E+02  0.33476289789E+03  0.12572059898E+03 0.  0.
        -11    1    4    4    0    0  0.10015543034E+03  0.15119715955E+03  0.18152221228E+02  0.18226682205E+03  0.51100000000E-03 0. -1.
     200002    1    4    4    0    0 -0.20175046086E+02  0.14347033059E+03  0.36936227514E+02  0.15249607584E+03  0.30000000000E+02 0. -1.
     200000    1    3    3    0    0  0.15257805391E+03  0.21138178367E+03  0.53858304742E+02  0.56644773633E+03  0.50000000000E+03 0. -1.
    -200001    1    1    2    0    0 -0.23255843816E+03 -0.50604927381E+03  0.97084281624E+02  0.89977477872E+03  0.70000000000E+03 0. -1.
<mgrwt>
<rscale>  0 0.17891617E+04</rscale>
<asrwt>0</asrwt>
<pdfrwt beam="1">  1        3 0.11392531E+00 0.17891617E+04</pdfrwt>
<pdfrwt beam="2">  1       -3 0.14335832E+00 0.17891617E+04</pdfrwt>
<totfact> 0.57945034E-01</totfact>
</mgrwt>
</event>
<event>
 8    1  0.1649749E-011  0.1731939E+04  0.7818608E-02  0.8743355E-01
          3   -1    0    0  501    0  0.00000000000E+00  0.00000000000E+00  0.59185574676E+03  0.59185575538E+03  0.10100000000E+00 0.  1.
         -3   -1    0    0    0  501 -0.00000000000E+00 -0.00000000000E+00 -0.12670373644E+04  0.12670373685E+04  0.10100000000E+00 0. -1.
     200001    2    1    2    0    0 -0.30492600615E+03 -0.30914801060E+03 -0.50995933800E+02  0.82537479811E+03  0.70006471872E+03 0.  0.
    5000001    2    3    3    0    0 -0.49287323719E+02 -0.19366585932E+03 -0.48269745968E+02  0.25205578105E+03  0.14583018562E+03 0.  0.
        -11    1    4    4    0    0 -0.18029114336E+02 -0.16158942433E+03  0.21368982040E+02  0.16399031804E+03  0.51100000000E-03 0. -1.
     200002    1    4    4    0    0 -0.31258209384E+02 -0.32076434993E+02 -0.69638728007E+02  0.88065463005E+02  0.30000000000E+02 0. -1.
     200000    1    3    3    0    0 -0.25563868243E+03 -0.11548215128E+03 -0.27261878326E+01  0.57331901706E+03  0.50000000000E+03 0.  1.
    -200001    1    1    2    0    0  0.30492600615E+03  0.30914801060E+03 -0.62418568388E+03  0.10335183257E+04  0.70000000000E+03 0. -1.
<mgrwt>
<rscale>  0 0.17319392E+04</rscale>
<asrwt>0</asrwt>
<pdfrwt beam="1">  1        3 0.84550823E-01 0.17319392E+04</pdfrwt>
<pdfrwt beam="2">  1       -3 0.18100534E+00 0.17319392E+04</pdfrwt>
<totfact> 0.62528128E-01</totfact>
</mgrwt>
</event>
<event>
 8    1  0.1649749E-011  0.1410426E+04  0.7818608E-02  0.8946306E-01
         -3   -1    0    0    0  501 -0.00000000000E+00  0.00000000000E+00  0.14645522520E+03  0.14645526003E+03  0.10100000000E+00 0. -1.
          3   -1    0    0  501    0  0.00000000000E+00 -0.00000000000E+00 -0.33957486892E+04  0.33957486907E+04  0.10100000000E+00 0.  1.
     200001    2    1    2    0    0  0.78005978611E+02  0.15480093118E+02 -0.16820420919E+04  0.18238904085E+04  0.70070397274E+03 0.  0.
    5000001    2    3    3    0    0 -0.55134919002E+02  0.12099417214E+02 -0.32290768136E+03  0.36959185819E+03  0.17071179154E+03 0.  0.
        -11    1    4    4    0    0 -0.58551627512E+02 -0.52693647515E+02 -0.26833673007E+03  0.27965964005E+03  0.51100000000E-03 0. -1.
     200002    1    4    4    0    0  0.34167085098E+01  0.64793064730E+02 -0.54570951291E+02  0.89932218136E+02  0.30000000000E+02 0. -1.
     200000    1    3    3    0    0  0.13314089761E+03  0.33806759041E+01 -0.13591344105E+04  0.14542985503E+04  0.50000000000E+03 0.  1.
    -200001    1    1    2    0    0 -0.78005978611E+02 -0.15480093118E+02 -0.15672513721E+04  0.17183135422E+04  0.70000000000E+03 0. -1.
<mgrwt>
<rscale>  0 0.14104258E+04</rscale>
<asrwt>0</asrwt>
<pdfrwt beam="1">  1        3 0.48510691E+00 0.14104258E+04</pdfrwt>
<pdfrwt beam="2">  1       -3 0.20922180E-01 0.14104258E+04</pdfrwt>
<totfact> 0.22347451E-01</totfact>
</mgrwt>
</event>
<event>
 8    1  0.1649749E-011  0.1641160E+04  0.7818608E-02  0.8795653E-01
          3   -1    0    0  501    0  0.00000000000E+00  0.00000000000E+00  0.35847575590E+03  0.35847577012E+03  0.10100000000E+00 0.  1.
         -3   -1    0    0    0  501 -0.00000000000E+00 -0.00000000000E+00 -0.18783747377E+04  0.18783747404E+04  0.10100000000E+00 0. -1.
     200001    2    1    2    0    0 -0.34450006376E+03  0.69441873029E+02 -0.42602710100E+03  0.89146649127E+03  0.69979350284E+03 0.  0.
    5000001    2    3    3    0    0 -0.15832544922E+02  0.95057036743E+00 -0.95077204283E+01  0.15920848287E+03  0.15813086735E+03 0.  0.
        -11    1    4    4    0    0 -0.59477461517E+02  0.53793209334E+00 -0.61100022163E+02  0.85270572344E+02  0.51100000000E-03 0. -1.
     200002    1    4    4    0    0  0.43644916594E+02  0.41263827409E+00  0.51592301734E+02  0.73937910527E+02  0.30000000000E+02 0. -1.
     200000    1    3    3    0    0 -0.32866751884E+03  0.68491302662E+02 -0.41651938057E+03  0.73225800840E+03  0.50000000000E+03 0. -1.
    -200001    1    1    2    0    0  0.34450006376E+03 -0.69441873029E+02 -0.10938718808E+04  0.13453840192E+04  0.70000000000E+03 0. -1.
<mgrwt>
<rscale>  0 0.16411603E+04</rscale>
<asrwt>0</asrwt>
<pdfrwt beam="1">  1        3 0.51210825E-01 0.16411603E+04</pdfrwt>
<pdfrwt beam="2">  1       -3 0.26833924E+00 0.16411603E+04</pdfrwt>
<totfact> 0.54617979E-01</totfact>
</mgrwt>
</event>
<event>
 8    1  0.1649749E-011  0.1455467E+04  0.7818608E-02  0.8914619E-01
          3   -1    0    0  501    0  0.00000000000E+00  0.00000000000E+00  0.18503938208E+04  0.18503938236E+04  0.10100000000E+00 0.  1.
         -3   -1    0    0    0  501 -0.00000000000E+00 -0.00000000000E+00 -0.28620727649E+03  0.28620729431E+03  0.10100000000E+00 0. -1.
     200001    2    1    2    0    0  0.18820882487E+03  0.36137819540E+02  0.85600993390E+03  0.11225781323E+04  0.70049993036E+03 0.  0.
    5000001    2    3    3    0    0  0.69092886726E+01 -0.13151280283E+03  0.24709163195E+03  0.29689190167E+03  0.98727762680E+02 0.  0.
        -11    1    4    4    0    0  0.26080719871E+00 -0.12711222810E+03  0.22621983018E+03  0.25948602683E+03  0.51100000000E-03 0. -1.
     200002    1    4    4    0    0  0.66484814739E+01 -0.44005747282E+01  0.20871801765E+02  0.37405874843E+02  0.30000000000E+02 0.  1.
     200000    1    3    3    0    0  0.18129953619E+03  0.16765062236E+03  0.60891830195E+03  0.82568623063E+03  0.50000000000E+03 0.  1.
    -200001    1    1    2    0    0 -0.18820882487E+03 -0.36137819540E+02  0.70817661046E+03  0.10140229856E+04  0.70000000000E+03 0. -1.
<mgrwt>
<rscale>  0 0.14554672E+04</rscale>
<asrwt>0</asrwt>
<pdfrwt beam="1">  1        3 0.26434198E+00 0.14554672E+04</pdfrwt>
<pdfrwt beam="2">  1       -3 0.40886755E-01 0.14554672E+04</pdfrwt>
<totfact> 0.93232938E-01</totfact>
</mgrwt>
</event>
<event>
 8    1  0.1649749E-011  0.1646442E+04  0.7818608E-02  0.8792514E-01
          3   -1    0    0  501    0  0.00000000000E+00  0.00000000000E+00  0.69677403543E+03  0.69677404275E+03  0.10100000000E+00 0.  1.
         -3   -1    0    0    0  501 -0.00000000000E+00 -0.00000000000E+00 -0.97261503595E+03  0.97261504119E+03  0.10100000000E+00 0. -1.
     200001    2    1    2    0    0 -0.25888536014E+03 -0.24950053450E+03  0.10699805983E+03  0.79426743952E+03  0.70010001733E+03 0.  0.
    5000001    2    3    3    0    0 -0.11476013847E+03 -0.14292291944E+03  0.10741167750E+03  0.26310735195E+03  0.15521391658E+03 0.  0.
        -11    1    4    4    0    0 -0.46696091588E+02 -0.72591293796E+02 -0.30333630875E+02  0.91488524236E+02  0.51100000000E-03 0. -1.
     200002    1    4    4    0    0 -0.68064046886E+02 -0.70331625646E+02  0.13774530838E+03  0.17161882771E+03  0.30000000000E+02 0. -1.
     200000    1    3    3    0    0 -0.14412522166E+03 -0.10657761505E+03 -0.41361767415E+00  0.53116008757E+03  0.50000000000E+03 0.  1.
    -200001    1    1    2    0    0  0.25888536014E+03  0.24950053450E+03 -0.38283906035E+03  0.87512164442E+03  0.70000000000E+03 0. -1.
<mgrwt>
<rscale>  0 0.16464421E+04</rscale>
<asrwt>0</asrwt>
<pdfrwt beam="1">  1        3 0.99539149E-01 0.16464421E+04</pdfrwt>
<pdfrwt beam="2">  1       -3 0.13894501E+00 0.16464421E+04</pdfrwt>
<totfact> 0.87410309E-01</totfact>
</mgrwt>
</event>
<event>
 8    1  0.1649749E-011  0.1455476E+04  0.7818608E-02  0.8914613E-01
         -3   -1    0    0    0  501 -0.00000000000E+00  0.00000000000E+00  0.51727246417E+03  0.51727247403E+03  0.10100000000E+00 0. -1.
          3   -1    0    0  501    0  0.00000000000E+00 -0.00000000000E+00 -0.10238361089E+04  0.10238361139E+04  0.10100000000E+00 0.  1.
     200001    2    1    2    0    0  0.32381543479E+02  0.14965281059E+03 -0.11596060471E+03  0.72501100616E+03  0.69910626456E+03 0.  0.
    5000001    2    3    3    0    0 -0.28588026385E+02  0.30773233225E+02  0.82254910707E+02  0.17080974948E+03  0.14368657921E+03 0.  0.
        -11    1    4    4    0    0 -0.51632576622E+02 -0.32136190447E+02  0.75709364524E+02  0.97111099170E+02  0.51100000000E-03 0. -1.
     200002    1    4    4    0    0  0.23044550236E+02  0.62909423672E+02  0.65455461833E+01  0.73698650307E+02  0.30000000000E+02 0. -1.
     200000    1    3    3    0    0  0.60969569864E+02  0.11887957736E+03 -0.19821551542E+03  0.55420125669E+03  0.50000000000E+03 0.  1.
    -200001    1    1    2    0    0 -0.32381543479E+02 -0.14965281059E+03 -0.39060304004E+03  0.81609758177E+03  0.70000000000E+03 0.  1.
<mgrwt>
<rscale>  0 0.14554755E+04</rscale>
<asrwt>0</asrwt>
<pdfrwt beam="1">  1        3 0.14626230E+00 0.14554755E+04</pdfrwt>
<pdfrwt beam="2">  1       -3 0.73896068E-01 0.14554755E+04</pdfrwt>
<totfact> 0.15284152E+00</totfact>
</mgrwt>
</event>
<event>
 8    1  0.1649749E-011  0.1687990E+04  0.7818608E-02  0.8768244E-01
          3   -1    0    0  501    0  0.00000000000E+00  0.00000000000E+00  0.59508641391E+03  0.59508642248E+03  0.10100000000E+00 0.  1.
         -3   -1    0    0    0  501 -0.00000000000E+00 -0.00000000000E+00 -0.11970157892E+04  0.11970157934E+04  0.10100000000E+00 0. -1.
     200001    2    1    2    0    0 -0.13121924233E+03  0.19182671831E+02  0.17982249705E+03  0.73440544730E+03  0.69959185682E+03 0.  0.
    5000001    2    3    3    0    0  0.60398659451E+01  0.36668340437E+02 -0.89348010811E+01  0.18234102261E+03  0.17829013065E+03 0.  0.
        -11    1    4    4    0    0  0.29211381574E+02  0.73392907686E+02  0.57346010442E+02  0.97613465392E+02  0.51100000000E-03 0. -1.
     200002    1    4    4    0    0 -0.23171515629E+02 -0.36724567249E+02 -0.66280811523E+02  0.84727557219E+02  0.30000000000E+02 0. -1.
     200000    1    3    3    0    0 -0.13725910827E+03 -0.17485668605E+02  0.18875729813E+03  0.55206442469E+03  0.50000000000E+03 0.  1.
    -200001    1    1    2    0    0  0.13121924233E+03 -0.19182671831E+02 -0.78175187232E+03  0.10576967686E+04  0.70000000000E+03 0. -1.
<mgrwt>
<rscale>  0 0.16879903E+04</rscale>
<asrwt>0</asrwt>
<pdfrwt beam="1">  1        3 0.85012346E-01 0.16879903E+04</pdfrwt>
<pdfrwt beam="2">  1       -3 0.17100226E+00 0.16879903E+04</pdfrwt>
<totfact> 0.72497755E-01</totfact>
</mgrwt>
</event>
<event>
 8    1  0.1649749E-011  0.1842117E+04  0.7818608E-02  0.8684217E-01
          3   -1    0    0  501    0  0.00000000000E+00  0.00000000000E+00  0.55194807609E+03  0.55194808533E+03  0.10100000000E+00 0.  1.
         -3   -1    0    0    0  501 -0.00000000000E+00 -0.00000000000E+00 -0.15370082837E+04  0.15370082870E+04  0.10100000000E+00 0. -1.
     200001    2    1    2    0    0  0.43603339480E+03  0.72509125460E+02 -0.35832530518E+02  0.82942634983E+03  0.70091469159E+03 0.  0.
    5000001    2    3    3    0    0  0.10363941495E+03  0.43795086983E+02 -0.18917865586E+02  0.22809752153E+03  0.19751317859E+03 0.  0.
        -11    1    4    4    0    0 -0.39567203428E+02  0.48956890781E+02  0.35066538414E+02  0.72055553975E+02  0.51100000000E-03 0. -1.
     200002    1    4    4    0    0  0.14320661837E+03 -0.51618037977E+01 -0.53984403999E+02  0.15604196756E+03  0.30000000000E+02 0. -1.
     200000    1    3    3    0    0  0.33239397985E+03  0.28714038477E+02 -0.16914664932E+02  0.60132882829E+03  0.50000000000E+03 0.  1.
    -200001    1    1    2    0    0 -0.43603339480E+03 -0.72509125460E+02 -0.94922767704E+03  0.12595300225E+04  0.70000000000E+03 0. -1.
<mgrwt>
<rscale>  0 0.18421170E+04</rscale>
<asrwt>0</asrwt>
<pdfrwt beam="1">  1        3 0.78849726E-01 0.18421170E+04</pdfrwt>
<pdfrwt beam="2">  1       -3 0.21957261E+00 0.18421170E+04</pdfrwt>
<totfact> 0.41229039E-01</totfact>
</mgrwt>
</event>
<event>
 8    1  0.1649749E-011  0.1471771E+04  0.7818608E-02  0.8903445E-01
          3   -1    0    0  501    0  0.00000000000E+00  0.00000000000E+00  0.62408283356E+03  0.62408284174E+03  0.10100000000E+00 0.  1.
         -3   -1    0    0    0  501 -0.00000000000E+00 -0.00000000000E+00 -0.86771741388E+03  0.86771741976E+03  0.10100000000E+00 0. -1.
     200001    2    1    2    0    0  0.74305690184E+02  0.18994691619E+03 -0.21068649087E+02  0.72947699653E+03  0.70006544975E+03 0.  0.
    5000001    2    3    3    0    0 -0.30821732562E+02  0.41292472865E+01  0.47075171278E+02  0.18155039438E+03  0.17256142114E+03 0.  0.
        -11    1    4    4    0    0  0.56077905032E+02  0.27718209514E+02 -0.19609076482E+02  0.65555674447E+02  0.51100000000E-03 0. -1.
     200002    1    4    4    0    0 -0.86899637594E+02 -0.23588962227E+02  0.66684247761E+02  0.11599471993E+03  0.30000000000E+02 0. -1.
     200000    1    3    3    0    0  0.10512742275E+03  0.18581766890E+03 -0.68143820365E+02  0.54792660215E+03  0.50000000000E+03 0.  1.
    -200001    1    1    2    0    0 -0.74305690184E+02 -0.18994691619E+03 -0.22256593123E+03  0.76232326497E+03  0.70000000000E+03 0. -1.
<mgrwt>
<rscale>  0 0.14717711E+04</rscale>
<asrwt>0</asrwt>
<pdfrwt beam="1">  1        3 0.89154692E-01 0.14717711E+04</pdfrwt>
<pdfrwt beam="2">  1       -3 0.12395963E+00 0.14717711E+04</pdfrwt>
<totfact> 0.15180164E+00</totfact>
</mgrwt>
</event>
<event>
 8    1  0.1649749E-011  0.2907795E+04  0.7818608E-02  0.8270562E-01
         -3   -1    0    0    0  501 -0.00000000000E+00  0.00000000000E+00  0.20470416281E+04  0.20470416306E+04  0.10100000000E+00 0. -1.
          3   -1    0    0  501    0  0.00000000000E+00 -0.00000000000E+00 -0.10326210225E+04  0.10326210274E+04  0.10100000000E+00 0.  1.
     200001    2    1    2    0    0  0.81860501957E+03 -0.97038737501E+03  0.39267357559E+03  0.15022168729E+04  0.70049779487E+03 0.  0.
    5000001    2    3    3    0    0  0.18747482162E+03 -0.20982784090E+03 -0.29047959447E+02  0.31704803058E+03  0.14318218531E+03 0.  0.
        -11    1    4    4    0    0 -0.74363397199E+01 -0.77881161767E+02 -0.23101646440E+01  0.78269479158E+02  0.51100000000E-03 0. -1.
     200002    1    4    4    0    0  0.19491116134E+03 -0.13194667913E+03 -0.26737794803E+02  0.23877855142E+03  0.30000000000E+02 0. -1.
     200000    1    3    3    0    0  0.63113019796E+03 -0.76055953412E+03  0.42172153504E+03  0.11851688423E+04  0.50000000000E+03 0. -1.
    -200001    1    1    2    0    0 -0.81860501957E+03  0.97038737501E+03  0.62174703006E+03  0.15774457851E+04  0.70000000000E+03 0.  1.
<mgrwt>
<rscale>  0 0.29077952E+04</rscale>
<asrwt>0</asrwt>
<pdfrwt beam="1">  1        3 0.14751729E+00 0.29077952E+04</pdfrwt>
<pdfrwt beam="2">  1       -3 0.29243452E+00 0.29077952E+04</pdfrwt>
<totfact> 0.32029604E-02</totfact>
</mgrwt>
</event>
<event>
 8    1  0.1649749E-011  0.2110135E+04  0.7818608E-02  0.8556792E-01
         -3   -1    0    0    0  501 -0.00000000000E+00  0.00000000000E+00  0.15503168762E+04  0.15503168795E+04  0.10100000000E+00 0. -1.
          3   -1    0    0  501    0  0.00000000000E+00 -0.00000000000E+00 -0.71802600517E+03  0.71802601227E+03  0.10100000000E+00 0.  1.
     200001    2    1    2    0    0  0.36063575047E+03  0.61960860765E+03  0.76886452765E+03  0.12643529156E+04  0.70246897592E+03 0.  0.
    5000001    2    3    3    0    0  0.89561834248E+02  0.20712107937E+03  0.20885905810E+03  0.36589136664E+03  0.19832781539E+03 0.  0.
        -11    1    4    4    0    0 -0.32131680884E+02  0.16514800591E+03  0.11738247897E+03  0.20514617993E+03  0.51100000000E-03 0. -1.
     200002    1    4    4    0    0  0.12169351513E+03  0.41973073468E+02  0.91476579122E+02  0.16074518671E+03  0.30000000000E+02 0. -1.
     200000    1    3    3    0    0  0.27107391623E+03  0.41248752827E+03  0.56000546955E+03  0.89846154897E+03  0.50000000000E+03 0.  1.
    -200001    1    1    2    0    0 -0.36063575047E+03 -0.61960860765E+03  0.63426343392E+02  0.10039899762E+04  0.70000000000E+03 0. -1.
<mgrwt>
<rscale>  0 0.21101354E+04</rscale>
<asrwt>0</asrwt>
<pdfrwt beam="1">  1        3 0.10257515E+00 0.21101354E+04</pdfrwt>
<pdfrwt beam="2">  1       -3 0.22147384E+00 0.21101354E+04</pdfrwt>
<totfact> 0.21538762E-01</totfact>
</mgrwt>
</event>
<event>
 8    1  0.1649749E-011  0.1682795E+04  0.7818608E-02  0.8771238E-01
         -3   -1    0    0    0  501 -0.00000000000E+00  0.00000000000E+00  0.52533877871E+03  0.52533878842E+03  0.10100000000E+00 0. -1.
          3   -1    0    0  501    0  0.00000000000E+00 -0.00000000000E+00 -0.13476062945E+04  0.13476062983E+04  0.10100000000E+00 0.  1.
     200001    2    1    2    0    0  0.39970803480E+02  0.10421119676E+03 -0.91539208668E+03  0.11580116462E+04  0.70042177419E+03 0.  0.
    5000001    2    3    3    0    0  0.68769856206E+02  0.73001807878E+02 -0.24572936870E+03  0.32120129300E+03  0.18091100273E+03 0.  0.
        -11    1    4    4    0    0 -0.52233269955E+02  0.30301722913E+02 -0.13925789500E+03  0.15178692375E+03  0.51100000000E-03 0. -1.
     200002    1    4    4    0    0  0.12100312616E+03  0.42700084965E+02 -0.10647147370E+03  0.16941436925E+03  0.30000000000E+02 0. -1.
     200000    1    3    3    0    0 -0.28799052726E+02  0.31209388883E+02 -0.66966271798E+03  0.83681035322E+03  0.50000000000E+03 0.  1.
    -200001    1    1    2    0    0 -0.39970803480E+02 -0.10421119676E+03  0.93124570869E+02  0.71493344051E+03  0.70000000000E+03 0. -1.
<mgrwt>
<rscale>  0 0.16827951E+04</rscale>
<asrwt>0</asrwt>
<pdfrwt beam="1">  1        3 0.19251519E+00 0.16827951E+04</pdfrwt>
<pdfrwt beam="2">  1       -3 0.75048398E-01 0.16827951E+04</pdfrwt>
<totfact> 0.69126946E-01</totfact>
</mgrwt>
</event>
<event>
 8    1  0.1649749E-011  0.1555500E+04  0.7818608E-02  0.8848362E-01
          3   -1    0    0  501    0  0.00000000000E+00  0.00000000000E+00  0.45064815413E+03  0.45064816545E+03  0.10100000000E+00 0.  1.
         -3   -1    0    0    0  501 -0.00000000000E+00 -0.00000000000E+00 -0.13422781698E+04  0.13422781736E+04  0.10100000000E+00 0. -1.
     200001    2    1    2    0    0 -0.21228895020E+03  0.20376152555E+03 -0.25118528603E+03  0.79957101018E+03  0.69973880465E+03 0.  0.
    5000001    2    3    3    0    0 -0.76565737097E+02  0.74456863058E+02 -0.83373088632E+02  0.23983766303E+03  0.19790122826E+03 0.  0.
        -11    1    4    4    0    0 -0.13883297503E+03  0.49228568390E+02 -0.76382330565E+02  0.16592862117E+03  0.51100000000E-03 0. -1.
     200002    1    4    4    0    0  0.62267237928E+02  0.25228294668E+02 -0.69907580674E+01  0.73909041865E+02  0.30000000000E+02 0. -1.
     200000    1    3    3    0    0 -0.13572321310E+03  0.12930466249E+03 -0.16781219740E+03  0.55973334715E+03  0.50000000000E+03 0.  1.
    -200001    1    1    2    0    0  0.21228895020E+03 -0.20376152555E+03 -0.64044472965E+03  0.99335532887E+03  0.70000000000E+03 0.  1.
<mgrwt>
<rscale>  0 0.15555002E+04</rscale>
<asrwt>0</asrwt>
<pdfrwt beam="1">  1        3 0.64378309E-01 0.15555002E+04</pdfrwt>
<pdfrwt beam="2">  1       -3 0.19175402E+00 0.15555002E+04</pdfrwt>
<totfact> 0.97973077E-01</totfact>
</mgrwt>
</event>
<event>
 8    1  0.1649749E-011  0.1775888E+04  0.7818608E-02  0.8719228E-01
         -3   -1    0    0    0  501 -0.00000000000E+00  0.00000000000E+00  0.16857906066E+04  0.16857906096E+04  0.10100000000E+00 0. -1.
          3   -1    0    0  501    0  0.00000000000E+00 -0.00000000000E+00 -0.46770023835E+03  0.46770024926E+03  0.10100000000E+00 0.  1.
     200001    2    1    2    0    0  0.61480175752E+02  0.12259375292E+03 -0.32441624689E+02  0.71382447196E+03  0.69977416178E+03 0.  0.
    5000001    2    3    3    0    0  0.78886023584E+02  0.33931712265E+01  0.16424795531E+02  0.19720113795E+03  0.17995554055E+03 0.  0.
        -11    1    4    4    0    0  0.29776002508E+02  0.84305149557E+02  0.35313612622E+02  0.96130223155E+02  0.51100000000E-03 0. -1.
     200002    1    4    4    0    0  0.49110021076E+02 -0.80911978330E+02 -0.18888817091E+02  0.10107091480E+03  0.30000000000E+02 0. -1.
     200000    1    3    3    0    0 -0.17405847832E+02  0.11920058170E+03 -0.48866420220E+02  0.51662333401E+03  0.50000000000E+03 0.  1.
    -200001    1    1    2    0    0 -0.61480175752E+02 -0.12259375292E+03  0.12505319929E+04  0.14396663869E+04  0.70000000000E+03 0. -1.
<mgrwt>
<rscale>  0 0.17758882E+04</rscale>
<asrwt>0</asrwt>
<pdfrwt beam="1">  1        3 0.66814320E-01 0.17758882E+04</pdfrwt>
<pdfrwt beam="2">  1       -3 0.24082723E+00 0.17758882E+04</pdfrwt>
<totfact> 0.44485974E-01</totfact>
</mgrwt>
</event>
<event>
 8    1  0.1649749E-011  0.2038142E+04  0.7818608E-02  0.8588993E-01
          3   -1    0    0  501    0  0.00000000000E+00  0.00000000000E+00  0.44207209419E+03  0.44207210573E+03  0.10100000000E+00 0.  1.
         -3   -1    0    0    0  501 -0.00000000000E+00 -0.00000000000E+00 -0.23491764187E+04  0.23491764209E+04  0.10100000000E+00 0. -1.
     200001    2    1    2    0    0 -0.12399218500E+03  0.62958238266E+03 -0.45091130032E+03  0.10527876665E+04  0.70234808423E+03 0.  0.
    5000001    2    3    3    0    0  0.11505869728E+02  0.23253592793E+03 -0.81001517957E+02  0.30256179573E+03  0.17543389497E+03 0.  0.
        -11    1    4    4    0    0 -0.16240633210E+02  0.82320398762E+02 -0.11584051771E+03  0.14303647005E+03  0.51100000000E-03 0. -1.
     200002    1    4    4    0    0  0.27746502938E+02  0.15021552917E+03  0.34838999756E+02  0.15952532568E+03  0.30000000000E+02 0. -1.
     200000    1    3    3    0    0 -0.13549805473E+03  0.39704645472E+03 -0.36990978236E+03  0.75022587074E+03  0.50000000000E+03 0. -1.
    -200001    1    1    2    0    0  0.12399218500E+03 -0.62958238266E+03 -0.14561930242E+04  0.17384608601E+04  0.70000000000E+03 0. -1.
<mgrwt>
<rscale>  0 0.20381417E+04</rscale>
<asrwt>0</asrwt>
<pdfrwt beam="1">  1        3 0.63153158E-01 0.20381417E+04</pdfrwt>
<pdfrwt beam="2">  1       -3 0.33559663E+00 0.20381417E+04</pdfrwt>
<totfact> 0.14303164E-01</totfact>
</mgrwt>
</event>
<event>
 8    1  0.1649749E-011  0.1487765E+04  0.7818608E-02  0.8892630E-01
         -3   -1    0    0    0  501 -0.00000000000E+00  0.00000000000E+00  0.25926953319E+03  0.25926955287E+03  0.10100000000E+00 0. -1.
          3   -1    0    0  501    0  0.00000000000E+00 -0.00000000000E+00 -0.21343086472E+04  0.21343086496E+04  0.10100000000E+00 0.  1.
     200001    2    1    2    0    0 -0.23093514941E+03  0.10950080275E+00 -0.10989408747E+04  0.13232233397E+04  0.69994135850E+03 0.  0.
    5000001    2    3    3    0    0 -0.14088972161E+03 -0.83267251995E+02 -0.35763546766E+03  0.42067496508E+03  0.14926804616E+03 0.  0.
        -11    1    4    4    0    0  0.27130756254E+02 -0.20798956016E+02 -0.27733702867E+02  0.44020822133E+02  0.51100000000E-03 0. -1.
     200002    1    4    4    0    0 -0.16802047787E+03 -0.62468295979E+02 -0.32990176479E+03  0.37665414294E+03  0.30000000000E+02 0. -1.
     200000    1    3    3    0    0 -0.90045427797E+02  0.83376752798E+02 -0.74130540709E+03  0.90254837463E+03  0.50000000000E+03 0.  1.
    -200001    1    1    2    0    0  0.23093514941E+03 -0.10950080275E+00 -0.77609823927E+03  0.10703548628E+04  0.70000000000E+03 0. -1.
<mgrwt>
<rscale>  0 0.14877651E+04</rscale>
<asrwt>0</asrwt>
<pdfrwt beam="1">  1        3 0.30490123E+00 0.14877651E+04</pdfrwt>
<pdfrwt beam="2">  1       -3 0.37038507E-01 0.14877651E+04</pdfrwt>
<totfact> 0.67255691E-01</totfact>
</mgrwt>
</event>
<event>
 8    1  0.1649749E-011  0.1586429E+04  0.7818608E-02  0.8828929E-01
         -3   -1    0    0    0  501 -0.00000000000E+00  0.00000000000E+00  0.12945783281E+04  0.12945783321E+04  0.10100000000E+00 0. -1.
          3   -1    0    0  501    0  0.00000000000E+00 -0.00000000000E+00 -0.48601880753E+03  0.48601881803E+03  0.10100000000E+00 0.  1.
     200001    2    1    2    0    0 -0.56901492101E+02 -0.32718495813E+03  0.21305822270E+03  0.80340240368E+03  0.69983843804E+03 0.  0.
    5000001    2    3    3    0    0 -0.58933794677E+01 -0.27766261789E+02  0.12051129388E+03  0.21110322480E+03  0.17098509395E+03 0.  0.
        -11    1    4    4    0    0  0.36182583641E+02  0.18443170139E+02  0.13440051940E+03  0.14040238424E+03  0.51100000000E-03 0. -1.
     200002    1    4    4    0    0 -0.42075963109E+02 -0.46209431928E+02 -0.13889225520E+02  0.70700840562E+02  0.30000000000E+02 0. -1.
     200000    1    3    3    0    0 -0.51008112634E+02 -0.29941869634E+03  0.92546928820E+02  0.59229917888E+03  0.50000000000E+03 0.  1.
    -200001    1    1    2    0    0  0.56901492101E+02  0.32718495813E+03  0.59550129790E+03  0.97719474642E+03  0.70000000000E+03 0. -1.
<mgrwt>
<rscale>  0 0.15864292E+04</rscale>
<asrwt>0</asrwt>
<pdfrwt beam="1">  1        3 0.69431259E-01 0.15864292E+04</pdfrwt>
<pdfrwt beam="2">  1       -3 0.18493976E+00 0.15864292E+04</pdfrwt>
<totfact> 0.92029007E-01</totfact>
</mgrwt>
</event>
<event>
 8    1  0.1649749E-011  0.1676382E+04  0.7818608E-02  0.8774950E-01
         -3   -1    0    0    0  501 -0.00000000000E+00  0.00000000000E+00  0.14146346655E+04  0.14146346691E+04  0.10100000000E+00 0. -1.
          3   -1    0    0  501    0  0.00000000000E+00 -0.00000000000E+00 -0.49664017713E+03  0.49664018740E+03  0.10100000000E+00 0.  1.
     200001    2    1    2    0    0  0.12219200695E+03 -0.11282216609E+03 -0.31203428371E+02  0.72020961359E+03  0.70004893104E+03 0.  0.
    5000001    2    3    3    0    0  0.63758986320E+02 -0.23466926456E+02 -0.47614102256E+02  0.20867458354E+03  0.19147342925E+03 0.  0.
        -11    1    4    4    0    0  0.45847863319E+02 -0.10365364756E+03 -0.42533803055E+02  0.12105878583E+03  0.51100000000E-03 0. -1.
     200002    1    4    4    0    0  0.17911123001E+02  0.80186721107E+02 -0.50802992012E+01  0.87615797713E+02  0.30000000000E+02 0. -1.
     200000    1    3    3    0    0  0.58433020628E+02 -0.89355239633E+02  0.16410673886E+02  0.51153503005E+03  0.50000000000E+03 0.  1.
    -200001    1    1    2    0    0 -0.12219200695E+03  0.11282216609E+03  0.94919791675E+03  0.11910652429E+04  0.70000000000E+03 0. -1.
<mgrwt>
<rscale>  0 0.16763823E+04</rscale>
<asrwt>0</asrwt>
<pdfrwt beam="1">  1        3 0.70948596E-01 0.16763823E+04</pdfrwt>
<pdfrwt beam="2">  1       -3 0.20209067E+00 0.16763823E+04</pdfrwt>
<totfact> 0.67590871E-01</totfact>
</mgrwt>
</event>
<event>
 8    1  0.1649749E-011  0.1553644E+04  0.7818608E-02  0.8849543E-01
         -3   -1    0    0    0  501 -0.00000000000E+00  0.00000000000E+00  0.95313263425E+03  0.95313263960E+03  0.10100000000E+00 0. -1.
          3   -1    0    0  501    0  0.00000000000E+00 -0.00000000000E+00 -0.63312534745E+03  0.63312535550E+03  0.10100000000E+00 0.  1.
     200001    2    1    2    0    0 -0.14197120063E+03 -0.51557909926E+02  0.46545865006E+03  0.85552539082E+03  0.70175344640E+03 0.  0.
    5000001    2    3    3    0    0 -0.12237342708E+03 -0.37888689238E+02 -0.26808702775E+02  0.15345839474E+03  0.80124677494E+02 0.  0.
        -11    1    4    4    0    0 -0.87954425757E+02 -0.50918975654E+02 -0.65657741101E+01  0.10184219401E+03  0.51100000000E-03 0. -1.
     200002    1    4    4    0    0 -0.34419001325E+02  0.13030286415E+02 -0.20242928665E+02  0.51616200724E+02  0.30000000000E+02 0. -1.
     200000    1    3    3    0    0 -0.19597773548E+02 -0.13669220688E+02  0.49226735283E+03  0.70206699608E+03  0.50000000000E+03 0. -1.
    -200001    1    1    2    0    0  0.14197120063E+03  0.51557909926E+02 -0.14545136326E+03  0.73073260428E+03  0.70000000000E+03 0.  1.
<mgrwt>
<rscale>  0 0.15536440E+04</rscale>
<asrwt>0</asrwt>
<pdfrwt beam="1">  1        3 0.90446479E-01 0.15536440E+04</pdfrwt>
<pdfrwt beam="2">  1       -3 0.13616181E+00 0.15536440E+04</pdfrwt>
<totfact> 0.11558310E+00</totfact>
</mgrwt>
</event>
<event>
 8    1  0.1649749E-011  0.1918053E+04  0.7818608E-02  0.8645922E-01
          3   -1    0    0  501    0  0.00000000000E+00  0.00000000000E+00  0.80118196805E+03  0.80118197442E+03  0.10100000000E+00 0.  1.
         -3   -1    0    0    0  501 -0.00000000000E+00 -0.00000000000E+00 -0.11479686232E+04  0.11479686276E+04  0.10100000000E+00 0. -1.
     200001    2    1    2    0    0  0.45424981387E+03  0.65828850394E+02  0.30225724416E+03  0.88993659434E+03  0.69996526296E+03 0.  0.
    5000001    2    3    3    0    0  0.93048538287E+02 -0.42544200227E+01  0.16884667001E+03  0.25497485725E+03  0.16681381624E+03 0.  0.
        -11    1    4    4    0    0  0.83432438453E+02 -0.74699906627E+02  0.82012479375E+02  0.13880596028E+03  0.51100000000E-03 0. -1.
     200002    1    4    4    0    0  0.96160998344E+01  0.70445486604E+02  0.86834190633E+02  0.11616889696E+03  0.30000000000E+02 0. -1.
     200000    1    3    3    0    0  0.36120127558E+03  0.70083270417E+02  0.13341057415E+03  0.63496173709E+03  0.50000000000E+03 0.  1.
    -200001    1    1    2    0    0 -0.45424981387E+03 -0.65828850394E+02 -0.64904389930E+03  0.10592140077E+04  0.70000000000E+03 0. -1.
<mgrwt>
<rscale>  0 0.19180529E+04</rscale>
<asrwt>0</asrwt>
<pdfrwt beam="1">  1        3 0.11445457E+00 0.19180529E+04</pdfrwt>
<pdfrwt beam="2">  1       -3 0.16399552E+00 0.19180529E+04</pdfrwt>
<totfact> 0.39865827E-01</totfact>
</mgrwt>
</event>
<event>
 8    1  0.1649749E-011  0.1687069E+04  0.7818608E-02  0.8768774E-01
          3   -1    0    0  501    0  0.00000000000E+00  0.00000000000E+00  0.10810408478E+04  0.10810408525E+04  0.10100000000E+00 0.  1.
         -3   -1    0    0    0  501 -0.00000000000E+00 -0.00000000000E+00 -0.65820833928E+03  0.65820834703E+03  0.10100000000E+00 0. -1.
     200001    2    1    2    0    0 -0.25789868071E+03  0.20357760944E+03 -0.13592992041E+03  0.78522036109E+03  0.70009892132E+03 0.  0.
    5000001    2    3    3    0    0 -0.89264832144E+02  0.55545713052E+02  0.53750378983E+02  0.20528119773E+03  0.16792179848E+03 0.  0.
        -11    1    4    4    0    0 -0.14497062150E+02 -0.16283437997E+02  0.89082711174E+02  0.91711747308E+02  0.51100000000E-03 0. -1.
     200002    1    4    4    0    0 -0.74767769994E+02  0.71829151048E+02 -0.35332332192E+02  0.11356945042E+03  0.30000000000E+02 0. -1.
     200000    1    3    3    0    0 -0.16863384856E+03  0.14803189639E+03 -0.18968029939E+03  0.57993916337E+03  0.50000000000E+03 0. -1.
    -200001    1    1    2    0    0  0.25789868071E+03 -0.20357760944E+03  0.55876242890E+03  0.95402883841E+03  0.70000000000E+03 0.  1.
<mgrwt>
<rscale>  0 0.16870686E+04</rscale>
<asrwt>0</asrwt>
<pdfrwt beam="1">  1        3 0.15443441E+00 0.16870686E+04</pdfrwt>
<pdfrwt beam="2">  1       -3 0.94029765E-01 0.16870686E+04</pdfrwt>
<totfact> 0.75869331E-01</totfact>
</mgrwt>
</event>
<event>
 8    1  0.1649749E-011  0.1512089E+04  0.7818608E-02  0.8876454E-01
          3   -1    0    0  501    0  0.00000000000E+00  0.00000000000E+00  0.15571705900E+04  0.15571705933E+04  0.10100000000E+00 0.  1.
         -3   -1    0    0    0  501 -0.00000000000E+00 -0.00000000000E+00 -0.36707791611E+03  0.36707793000E+03  0.10100000000E+00 0. -1.
     200001    2    1    2    0    0  0.24444447577E+03  0.14833819621E+03  0.58749917942E+03  0.95735853897E+03  0.69973049393E+03 0.  0.
    5000001    2    3    3    0    0  0.58918985755E+02  0.70793022080E+02  0.13277756422E+03  0.25223109744E+03  0.19366865026E+03 0.  0.
        -11    1    4    4    0    0  0.68890682522E+02  0.12907063054E+03  0.10627501350E+03  0.18083012000E+03  0.51100000000E-03 0. -1.
     200002    1    4    4    0    0 -0.99716967671E+01 -0.58277608455E+02  0.26502550719E+02  0.71400977432E+02  0.30000000000E+02 0. -1.
     200000    1    3    3    0    0  0.18552549001E+03  0.77545174127E+02  0.45472161519E+03  0.70512744153E+03  0.50000000000E+03 0. -1.
    -200001    1    1    2    0    0 -0.24444447577E+03 -0.14833819621E+03  0.60259349450E+03  0.96688998433E+03  0.70000000000E+03 0. -1.
<mgrwt>
<rscale>  0 0.15120886E+04</rscale>
<asrwt>0</asrwt>
<pdfrwt beam="1">  1        3 0.22245294E+00 0.15120886E+04</pdfrwt>
<pdfrwt beam="2">  1       -3 0.52439705E-01 0.15120886E+04</pdfrwt>
<totfact> 0.98115316E-01</totfact>
</mgrwt>
</event>
<event>
 8    1  0.1649749E-011  0.1565530E+04  0.7818608E-02  0.8842009E-01
          3   -1    0    0  501    0  0.00000000000E+00  0.00000000000E+00  0.67815179498E+03  0.67815180250E+03  0.10100000000E+00 0.  1.
         -3   -1    0    0    0  501 -0.00000000000E+00 -0.00000000000E+00 -0.90351555844E+03  0.90351556409E+03  0.10100000000E+00 0. -1.
     200001    2    1    2    0    0  0.33926893329E+02  0.23404123306E+03  0.14420679488E+03  0.75552650060E+03  0.70292130467E+03 0.  0.
    5000001    2    3    3    0    0 -0.33873553257E+02  0.23036882785E+02  0.18179228689E+02  0.19427550164E+03  0.18903536866E+03 0.  0.
        -11    1    4    4    0    0 -0.10653326507E+03  0.38495770856E+02  0.12413594139E+02  0.11395331615E+03  0.51100000000E-03 0. -1.
     200002    1    4    4    0    0  0.72659711816E+02 -0.15458888071E+02  0.57656345505E+01  0.80322185499E+02  0.30000000000E+02 0. -1.
     200000    1    3    3    0    0  0.67800446586E+02  0.21100435027E+03  0.12602756619E+03  0.56125099896E+03  0.50000000000E+03 0.  1.
    -200001    1    1    2    0    0 -0.33926893329E+02 -0.23404123306E+03 -0.36957055834E+03  0.82614086599E+03  0.70000000000E+03 0. -1.
<mgrwt>
<rscale>  0 0.15655296E+04</rscale>
<asrwt>0</asrwt>
<pdfrwt beam="1">  1        3 0.96878829E-01 0.15655296E+04</pdfrwt>
<pdfrwt beam="2">  1       -3 0.12907365E+00 0.15655296E+04</pdfrwt>
<totfact> 0.11269837E+00</totfact>
</mgrwt>
</event>
<event>
 8    1  0.1649749E-011  0.1411238E+04  0.7818608E-02  0.8945724E-01
          3   -1    0    0  501    0  0.00000000000E+00  0.00000000000E+00  0.19816392524E+04  0.19816392549E+04  0.10100000000E+00 0.  1.
         -3   -1    0    0    0  501 -0.00000000000E+00 -0.00000000000E+00 -0.25125579200E+03  0.25125581230E+03  0.10100000000E+00 0. -1.
     200001    2    1    2    0    0 -0.48899408682E+02  0.67446130206E+02  0.80774844270E+03  0.10717768526E+04  0.69950549845E+03 0.  0.
    5000001    2    3    3    0    0 -0.57246708714E+01  0.94938587655E+02  0.24679271066E+03  0.31858947448E+03  0.17761335515E+03 0.  0.
        -11    1    4    4    0    0  0.36335017566E+02  0.10202740526E+03  0.58263864301E+02  0.12298171738E+03  0.51100000000E-03 0. -1.
     200002    1    4    4    0    0 -0.42059688437E+02 -0.70888176059E+01  0.18852884636E+03  0.19560775710E+03  0.30000000000E+02 0. -1.
     200000    1    3    3    0    0 -0.43174737810E+02 -0.27492457450E+02  0.56095573204E+03  0.75318737808E+03  0.50000000000E+03 0.  1.
    -200001    1    1    2    0    0  0.48899408682E+02 -0.67446130206E+02  0.92263501767E+03  0.11611182147E+04  0.70000000000E+03 0. -1.
<mgrwt>
<rscale>  0 0.14112383E+04</rscale>
<asrwt>0</asrwt>
<pdfrwt beam="1">  1        3 0.28309131E+00 0.14112383E+04</pdfrwt>
<pdfrwt beam="2">  1       -3 0.35893688E-01 0.14112383E+04</pdfrwt>
<totfact> 0.94925663E-01</totfact>
</mgrwt>
</event>
<event>
 8    1  0.1649749E-011  0.2070281E+04  0.7818608E-02  0.8574449E-01
         -3   -1    0    0    0  501 -0.00000000000E+00  0.00000000000E+00  0.81333597699E+03  0.81333598326E+03  0.10100000000E+00 0. -1.
          3   -1    0    0  501    0  0.00000000000E+00 -0.00000000000E+00 -0.13174333408E+04  0.13174333446E+04  0.10100000000E+00 0.  1.
     200001    2    1    2    0    0 -0.10999785900E+02  0.69943195605E+03 -0.56563731335E+03  0.11392486666E+04  0.69901065628E+03 0.  0.
    5000001    2    3    3    0    0  0.45673895728E+02  0.21410578019E+03 -0.22034597512E+03  0.35951825712E+03  0.18103490987E+03 0.  0.
        -11    1    4    4    0    0 -0.48380550275E+02  0.28748458614E+01 -0.21258806500E+02  0.52923333584E+02  0.51100000000E-03 0. -1.
     200002    1    4    4    0    0  0.94054446003E+02  0.21123093433E+03 -0.19908716862E+03  0.30659492354E+03  0.30000000000E+02 0. -1.
     200000    1    3    3    0    0 -0.56673681627E+02  0.48532617586E+03 -0.34529133823E+03  0.77973040945E+03  0.50000000000E+03 0.  1.
    -200001    1    1    2    0    0  0.10999785900E+02 -0.69943195605E+03  0.61539949580E+02  0.99152066132E+03  0.70000000000E+03 0. -1.
<mgrwt>
<rscale>  0 0.20702811E+04</rscale>
<asrwt>0</asrwt>
<pdfrwt beam="1">  1        3 0.18820476E+00 0.20702811E+04</pdfrwt>
<pdfrwt beam="2">  1       -3 0.11619085E+00 0.20702811E+04</pdfrwt>
<totfact> 0.26070471E-01</totfact>
</mgrwt>
</event>
<event>
 8    1  0.1649749E-011  0.1530549E+04  0.7818608E-02  0.8864388E-01
         -3   -1    0    0    0  501 -0.00000000000E+00  0.00000000000E+00  0.14917819344E+03  0.14917822763E+03  0.10100000000E+00 0. -1.
          3   -1    0    0  501    0  0.00000000000E+00 -0.00000000000E+00 -0.39258103163E+04  0.39258103176E+04  0.10100000000E+00 0.  1.
     200001    2    1    2    0    0  0.10345508867E+03  0.28521837773E+03 -0.20406918578E+04  0.21787973412E+04  0.70048705713E+03 0.  0.
    5000001    2    3    3    0    0 -0.92564622159E+02  0.79861966783E+00 -0.40462481280E+03  0.43350833891E+03  0.12505756156E+03 0.  0.
        -11    1    4    4    0    0 -0.11524458983E+03 -0.51229073211E+01 -0.27017515399E+03  0.29377231575E+03  0.51100000000E-03 0. -1.
     200002    1    4    4    0    0  0.22679967676E+02  0.59215269889E+01 -0.13444965881E+03  0.13973602317E+03  0.30000000000E+02 0. -1.
     200000    1    3    3    0    0  0.19601971083E+03  0.28441975806E+03 -0.16360670450E+04  0.17452890023E+04  0.50000000000E+03 0. -1.
    -200001    1    1    2    0    0 -0.10345508867E+03 -0.28521837773E+03 -0.17359402651E+04  0.18961912040E+04  0.70000000000E+03 0.  1.
<mgrwt>
<rscale>  0 0.15305494E+04</rscale>
<asrwt>0</asrwt>
<pdfrwt beam="1">  1        3 0.56082999E+00 0.15305494E+04</pdfrwt>
<pdfrwt beam="2">  1       -3 0.21311175E-01 0.15305494E+04</pdfrwt>
<totfact> 0.92061112E-02</totfact>
</mgrwt>
</event>
<event>
 8    1  0.1649749E-011  0.1994437E+04  0.7818608E-02  0.8609226E-01
         -3   -1    0    0    0  501 -0.00000000000E+00  0.00000000000E+00  0.10030275393E+04  0.10030275444E+04  0.10100000000E+00 0. -1.
          3   -1    0    0  501    0  0.00000000000E+00 -0.00000000000E+00 -0.99144303163E+03  0.99144303678E+03  0.10100000000E+00 0.  1.
     200001    2    1    2    0    0 -0.21347834377E+03 -0.53047700390E+02 -0.66961297876E+03  0.99326277192E+03  0.69985879360E+03 0.  0.
    5000001    2    3    3    0    0 -0.13393296889E+02  0.64982152240E+02 -0.15967789381E+03  0.24226419472E+03  0.16968455958E+03 0.  0.
        -11    1    4    4    0    0 -0.20629887563E+02  0.95320755851E+02 -0.24824998437E+02  0.10063756408E+03  0.51100000000E-03 0. -1.
     200002    1    4    4    0    0  0.72365906737E+01 -0.30338603611E+02 -0.13485289538E+03  0.14162663064E+03  0.30000000000E+02 0. -1.
     200000    1    3    3    0    0 -0.20008504688E+03 -0.11802985263E+03 -0.50993508494E+03  0.75099857720E+03  0.50000000000E+03 0.  1.
    -200001    1    1    2    0    0  0.21347834377E+03  0.53047700390E+02  0.68119748642E+03  0.10012078092E+04  0.70000000000E+03 0. -1.
<mgrwt>
<rscale>  0 0.19944369E+04</rscale>
<asrwt>0</asrwt>
<pdfrwt beam="1">  1        3 0.14163472E+00 0.19944369E+04</pdfrwt>
<pdfrwt beam="2">  1       -3 0.14328965E+00 0.19944369E+04</pdfrwt>
<totfact> 0.33312239E-01</totfact>
</mgrwt>
</event>
<event>
 8    1  0.1649749E-011  0.1519749E+04  0.7818608E-02  0.8871425E-01
          3   -1    0    0  501    0  0.00000000000E+00  0.00000000000E+00  0.60692383936E+03  0.60692384777E+03  0.10100000000E+00 0.  1.
         -3   -1    0    0    0  501 -0.00000000000E+00 -0.00000000000E+00 -0.95137023871E+03  0.95137024408E+03  0.10100000000E+00 0. -1.
     200001    2    1    2    0    0 -0.25258631574E+03 -0.14270997828E+03 -0.11602935495E+03  0.76687743105E+03  0.70033720325E+03 0.  0.
    5000001    2    3    3    0    0 -0.14047944596E+03 -0.12352055070E+02  0.26415892707E+01  0.22498820677E+03  0.17528738457E+03 0.  0.
        -11    1    4    4    0    0 -0.11228330257E+03  0.57830903120E+02 -0.40829191508E+02  0.13273649186E+03  0.51100000000E-03 0. -1.
     200002    1    4    4    0    0 -0.28196143389E+02 -0.70182958190E+02  0.43470780779E+02  0.92251714910E+02  0.30000000000E+02 0. -1.
     200000    1    3    3    0    0 -0.11210686978E+03 -0.13035792321E+03 -0.11867094422E+03  0.54188922429E+03  0.50000000000E+03 0. -1.
    -200001    1    1    2    0    0  0.25258631574E+03  0.14270997828E+03 -0.22841704441E+03  0.79141666079E+03  0.70000000000E+03 0.  1.
<mgrwt>
<rscale>  0 0.15197490E+04</rscale>
<asrwt>0</asrwt>
<pdfrwt beam="1">  1        3 0.86703407E-01 0.15197490E+04</pdfrwt>
<pdfrwt beam="2">  1       -3 0.13591003E+00 0.15197490E+04</pdfrwt>
<totfact> 0.12815896E+00</totfact>
</mgrwt>
</event>
<event>
 8    1  0.1649749E-011  0.1899385E+04  0.7818608E-02  0.8655162E-01
         -3   -1    0    0    0  501 -0.00000000000E+00  0.00000000000E+00  0.56333044826E+03  0.56333045731E+03  0.10100000000E+00 0. -1.
          3   -1    0    0  501    0  0.00000000000E+00 -0.00000000000E+00 -0.16010428697E+04  0.16010428729E+04  0.10100000000E+00 0.  1.
     200001    2    1    2    0    0 -0.12182172231E+03 -0.87441220784E+02 -0.12300727614E+04  0.14230980780E+04  0.69974469788E+03 0.  0.
    5000001    2    3    3    0    0  0.24037176804E+02 -0.10244369943E+03 -0.44131286750E+03  0.47777164602E+03  0.14978718669E+03 0.  0.
        -11    1    4    4    0    0  0.29873722795E+02 -0.45143773350E+02 -0.39330307822E+03  0.39701097079E+03  0.51100000000E-03 0. -1.
     200002    1    4    4    0    0 -0.58365459911E+01 -0.57299926076E+02 -0.48009789279E+02  0.80760675233E+02  0.30000000000E+02 0. -1.
     200000    1    3    3    0    0 -0.14585889912E+03  0.15002478642E+02 -0.78875989385E+03  0.94532643196E+03  0.50000000000E+03 0.  1.
    -200001    1    1    2    0    0  0.12182172231E+03  0.87441220784E+02  0.19236033994E+03  0.74127525219E+03  0.70000000000E+03 0. -1.
<mgrwt>
<rscale>  0 0.18993854E+04</rscale>
<asrwt>0</asrwt>
<pdfrwt beam="1">  1        3 0.22872041E+00 0.18993854E+04</pdfrwt>
<pdfrwt beam="2">  1       -3 0.80475780E-01 0.18993854E+04</pdfrwt>
<totfact> 0.34813780E-01</totfact>
</mgrwt>
</event>
<event>
 8    1  0.1649749E-011  0.1691553E+04  0.7818608E-02  0.8766196E-01
          3   -1    0    0  501    0  0.00000000000E+00  0.00000000000E+00  0.26531925678E+03  0.26531927601E+03  0.10100000000E+00 0.  1.
         -3   -1    0    0    0  501 -0.00000000000E+00 -0.00000000000E+00 -0.26961414894E+04  0.26961414913E+04  0.10100000000E+00 0. -1.
     200001    2    1    2    0    0  0.68835673912E+02 -0.10280920780E+03 -0.41356376574E+03  0.82262000525E+03  0.70025752513E+03 0.  0.
    5000001    2    3    3    0    0 -0.57111520866E+02  0.17182444571E+02 -0.11306446234E+03  0.21388317882E+03  0.17148025927E+03 0.  0.
        -11    1    4    4    0    0 -0.38823330889E+02 -0.42684751355E+02 -0.13017522192E+03  0.14238970265E+03  0.51100000000E-03 0. -1.
     200002    1    4    4    0    0 -0.18288189977E+02  0.59867195925E+02  0.17110759582E+02  0.71493476165E+02  0.30000000000E+02 0. -1.
     200000    1    3    3    0    0  0.12594719478E+03 -0.11999165237E+03 -0.30049930340E+03  0.60873682643E+03  0.50000000000E+03 0.  1.
    -200001    1    1    2    0    0 -0.68835673912E+02  0.10280920780E+03 -0.20172584669E+04  0.21388407621E+04  0.70000000000E+03 0. -1.
<mgrwt>
<rscale>  0 0.16915535E+04</rscale>
<asrwt>0</asrwt>
<pdfrwt beam="1">  1        3 0.37902754E-01 0.16915535E+04</pdfrwt>
<pdfrwt beam="2">  1       -3 0.38516306E+00 0.16915535E+04</pdfrwt>
<totfact> 0.22266324E-01</totfact>
</mgrwt>
</event>
<event>
 8    1  0.1649749E-011  0.1574087E+04  0.7818608E-02  0.8836627E-01
          3   -1    0    0  501    0  0.00000000000E+00  0.00000000000E+00  0.35198826391E+03  0.35198827841E+03  0.10100000000E+00 0.  1.
         -3   -1    0    0    0  501 -0.00000000000E+00 -0.00000000000E+00 -0.17598246414E+04  0.17598246443E+04  0.10100000000E+00 0. -1.
     200001    2    1    2    0    0  0.29559625569E+03  0.18566566646E+03 -0.61581447249E+03  0.99864286199E+03  0.70442261123E+03 0.  0.
    5000001    2    3    3    0    0  0.26650750702E+02 -0.59392261002E+02 -0.21351948303E+03  0.26092588984E+03  0.13510753929E+03 0.  0.
        -11    1    4    4    0    0  0.37214733768E+02 -0.92766572903E+02 -0.17173976207E+03  0.19870862924E+03  0.51100000000E-03 0. -1.
     200002    1    4    4    0    0 -0.10563983066E+02  0.33374311901E+02 -0.41779720963E+02  0.62217260602E+02  0.30000000000E+02 0. -1.
     200000    1    3    3    0    0  0.26894550499E+03  0.24505792746E+03 -0.40229498946E+03  0.73771697215E+03  0.50000000000E+03 0.  1.
    -200001    1    1    2    0    0 -0.29559625569E+03 -0.18566566646E+03 -0.79202190501E+03  0.11131700607E+04  0.70000000000E+03 0. -1.
<mgrwt>
<rscale>  0 0.15740872E+04</rscale>
<asrwt>0</asrwt>
<pdfrwt beam="1">  1        3 0.50284040E-01 0.15740872E+04</pdfrwt>
<pdfrwt beam="2">  1       -3 0.25140352E+00 0.15740872E+04</pdfrwt>
<totfact> 0.71295518E-01</totfact>
</mgrwt>
</event>
<event>
 8    1  0.1649749E-011  0.2380028E+04  0.7818608E-02  0.8447019E-01
          3   -1    0    0  501    0  0.00000000000E+00  0.00000000000E+00  0.20964305851E+04  0.20964305875E+04  0.10100000000E+00 0.  1.
         -3   -1    0    0    0  501 -0.00000000000E+00 -0.00000000000E+00 -0.67549753317E+03  0.67549754072E+03  0.10100000000E+00 0. -1.
     200001    2    1    2    0    0 -0.58207099816E+03  0.37758140079E+03 -0.65417976015E+02  0.98850060256E+03  0.70105603809E+03 0.  0.
    5000001    2    3    3    0    0 -0.20734410406E+03  0.15281339229E+03 -0.42692198224E+02  0.32407802333E+03  0.19199070568E+03 0.  0.
        -11    1    4    4    0    0 -0.20793569538E+03  0.63934286397E+02  0.75291494735E+01  0.21767299897E+03  0.51100000000E-03 0. -1.
     200002    1    4    4    0    0  0.59159131990E+00  0.88879105891E+02 -0.50221347698E+02  0.10640502436E+03  0.30000000000E+02 0. -1.
     200000    1    3    3    0    0 -0.37472689410E+03  0.22476800851E+03 -0.22725777790E+02  0.66442257923E+03  0.50000000000E+03 0. -1.
    -200001    1    1    2    0    0  0.58207099816E+03 -0.37758140079E+03  0.14863510279E+04  0.17834275257E+04  0.70000000000E+03 0.  1.
<mgrwt>
<rscale>  0 0.23800283E+04</rscale>
<asrwt>0</asrwt>
<pdfrwt beam="1">  1        3 0.29949009E+00 0.23800283E+04</pdfrwt>
<pdfrwt beam="2">  1       -3 0.96499647E-01 0.23800283E+04</pdfrwt>
<totfact> 0.87559607E-02</totfact>
</mgrwt>
</event>
<event>
 8    1  0.1649749E-011  0.2030597E+04  0.7818608E-02  0.8592448E-01
          3   -1    0    0  501    0  0.00000000000E+00  0.00000000000E+00  0.80131833988E+03  0.80131834625E+03  0.10100000000E+00 0.  1.
         -3   -1    0    0    0  501 -0.00000000000E+00 -0.00000000000E+00 -0.12864182885E+04  0.12864182925E+04  0.10100000000E+00 0. -1.
     200001    2    1    2    0    0 -0.13839306375E+03  0.29465076537E+01  0.50009847359E+03  0.87127568450E+03  0.69990107380E+03 0.  0.
    5000001    2    3    3    0    0 -0.57147395524E+01  0.22624026655E+02  0.20521794030E+03  0.27550284912E+03  0.18232638871E+03 0.  0.
        -11    1    4    4    0    0 -0.66426130776E+02 -0.34721864211E+02  0.15824651330E+03  0.17509996481E+03  0.51100000000E-03 0. -1.
     200002    1    4    4    0    0  0.60711391223E+02  0.57345890865E+02  0.46971427004E+02  0.10040288431E+03  0.30000000000E+02 0. -1.
     200000    1    3    3    0    0 -0.13267832419E+03 -0.19677519001E+02  0.29488053329E+03  0.59577283538E+03  0.50000000000E+03 0.  1.
    -200001    1    1    2    0    0  0.13839306375E+03 -0.29465076537E+01 -0.98519842220E+03  0.12164609542E+04  0.70000000000E+03 0. -1.
<mgrwt>
<rscale>  0 0.20305965E+04</rscale>
<asrwt>0</asrwt>
<pdfrwt beam="1">  1        3 0.11447405E+00 0.20305965E+04</pdfrwt>
<pdfrwt beam="2">  1       -3 0.18377404E+00 0.20305965E+04</pdfrwt>
<totfact> 0.28891787E-01</totfact>
</mgrwt>
</event>
<event>
 8    1  0.1649749E-011  0.1580725E+04  0.7818608E-02  0.8832477E-01
          3   -1    0    0  501    0  0.00000000000E+00  0.00000000000E+00  0.67294116350E+03  0.67294117108E+03  0.10100000000E+00 0.  1.
         -3   -1    0    0    0  501 -0.00000000000E+00 -0.00000000000E+00 -0.92827301037E+03  0.92827301587E+03  0.10100000000E+00 0. -1.
     200001    2    1    2    0    0  0.24359734478E+03 -0.78525989599E+02 -0.39238388789E+03  0.84339543594E+03  0.70131643961E+03 0.  0.
    5000001    2    3    3    0    0  0.20034316254E+02  0.64843012844E+01 -0.14482810433E+03  0.23636080493E+03  0.18560126699E+03 0.  0.
        -11    1    4    4    0    0  0.86437267493E+02  0.13803168992E+02 -0.17186956249E+02  0.89203812425E+02  0.51100000000E-03 0. -1.
     200002    1    4    4    0    0 -0.66402951239E+02 -0.73188677076E+01 -0.12764114808E+03  0.14715699250E+03  0.30000000000E+02 0. -1.
     200000    1    3    3    0    0  0.22356302853E+03 -0.85010290883E+02 -0.24755578356E+03  0.60703463102E+03  0.50000000000E+03 0.  1.
    -200001    1    1    2    0    0 -0.24359734478E+03  0.78525989599E+02  0.13705204103E+03  0.75781875101E+03  0.70000000000E+03 0.  1.
<mgrwt>
<rscale>  0 0.15807253E+04</rscale>
<asrwt>0</asrwt>
<pdfrwt beam="1">  1        3 0.96134454E-01 0.15807253E+04</pdfrwt>
<pdfrwt beam="2">  1       -3 0.13261043E+00 0.15807253E+04</pdfrwt>
<totfact> 0.10712883E+00</totfact>
</mgrwt>
</event>
<event>
 8    1  0.1649749E-011  0.1532847E+04  0.7818608E-02  0.8862899E-01
         -3   -1    0    0    0  501 -0.00000000000E+00  0.00000000000E+00  0.73114422357E+03  0.73114423054E+03  0.10100000000E+00 0. -1.
          3   -1    0    0  501    0  0.00000000000E+00 -0.00000000000E+00 -0.80340482886E+03  0.80340483521E+03  0.10100000000E+00 0.  1.
     200001    2    1    2    0    0 -0.30116393508E+03  0.16936974446E+02 -0.10824539667E+03  0.77147535889E+03  0.70176248587E+03 0.  0.
    5000001    2    3    3    0    0 -0.16597079245E+03  0.73965890523E+02 -0.13124061842E+03  0.24988331207E+03  0.11045502622E+03 0.  0.
        -11    1    4    4    0    0  0.14322941808E+02  0.70155608327E+01 -0.16328559289E+01  0.16032185583E+02  0.51100000000E-03 0. -1.
     200002    1    4    4    0    0 -0.18029373426E+03  0.66950329691E+02 -0.12960776249E+03  0.23385112648E+03  0.30000000000E+02 0. -1.
     200000    1    3    3    0    0 -0.13519314263E+03 -0.57028916077E+02  0.22995221750E+02  0.52159204682E+03  0.50000000000E+03 0. -1.
    -200001    1    1    2    0    0  0.30116393508E+03 -0.16936974446E+02  0.35984791375E+02  0.76307370686E+03  0.70000000000E+03 0. -1.
<mgrwt>
<rscale>  0 0.15328468E+04</rscale>
<asrwt>0</asrwt>
<pdfrwt beam="1">  1        3 0.11477212E+00 0.15328468E+04</pdfrwt>
<pdfrwt beam="2">  1       -3 0.10444918E+00 0.15328468E+04</pdfrwt>
<totfact> 0.12635163E+00</totfact>
</mgrwt>
</event>
<event>
 8    1  0.1649749E-011  0.1422918E+04  0.7818608E-02  0.8937395E-01
         -3   -1    0    0    0  501 -0.00000000000E+00  0.00000000000E+00  0.73671445786E+03  0.73671446479E+03  0.10100000000E+00 0. -1.
          3   -1    0    0  501    0  0.00000000000E+00 -0.00000000000E+00 -0.68706903053E+03  0.68706903796E+03  0.10100000000E+00 0.  1.
     200001    2    1    2    0    0 -0.10455422419E+03  0.33129356015E+02 -0.44610496316E+02  0.70900149460E+03  0.69904497919E+03 0.  0.
    5000001    2    3    3    0    0 -0.16485863055E+03  0.61375815500E+02 -0.69295912812E+01  0.20318103781E+03  0.10143547750E+03 0.  0.
        -11    1    4    4    0    0 -0.37782642006E+02  0.23422836882E+02 -0.43686594206E+02  0.62327167737E+02  0.51100000000E-03 0. -1.
     200002    1    4    4    0    0 -0.12707598855E+03  0.37952978618E+02  0.36757002924E+02  0.14085387008E+03  0.30000000000E+02 0. -1.
     200000    1    3    3    0    0  0.60304406358E+02 -0.28246459484E+02 -0.37680905035E+02  0.50582045679E+03  0.50000000000E+03 0. -1.
    -200001    1    1    2    0    0  0.10455422419E+03 -0.33129356015E+02  0.94255923645E+02  0.71478200815E+03  0.70000000000E+03 0. -1.
<mgrwt>
<rscale>  0 0.14229177E+04</rscale>
<asrwt>0</asrwt>
<pdfrwt beam="1">  1        3 0.98152719E-01 0.14229177E+04</pdfrwt>
<pdfrwt beam="2">  1       -3 0.10524492E+00 0.14229177E+04</pdfrwt>
<totfact> 0.18118724E+00</totfact>
</mgrwt>
</event>
<event>
 8    1  0.1649749E-011  0.2433483E+04  0.7818608E-02  0.8427074E-01
         -3   -1    0    0    0  501 -0.00000000000E+00  0.00000000000E+00  0.25508436306E+04  0.25508436326E+04  0.10100000000E+00 0. -1.
          3   -1    0    0  501    0  0.00000000000E+00 -0.00000000000E+00 -0.58038029977E+03  0.58038030855E+03  0.10100000000E+00 0.  1.
     200001    2    1    2    0    0  0.15980597127E+03 -0.29923684866E+03  0.21909358940E+04  0.23227137117E+04  0.69261696134E+03 0.  0.
    5000001    2    3    3    0    0  0.73588174608E+02 -0.16082345177E+03  0.77058258200E+03  0.80811960514E+03  0.16727336444E+03 0.  0.
        -11    1    4    4    0    0 -0.10530058935E+02 -0.77629061137E+02  0.10265869995E+03  0.12913544033E+03  0.51100000000E-03 0. -1.
     200002    1    4    4    0    0  0.84118233543E+02 -0.83194390631E+02  0.66792388205E+03  0.67898416481E+03  0.30000000000E+02 0. -1.
     200000    1    3    3    0    0  0.86217796658E+02 -0.13841339689E+03  0.14203533120E+04  0.15145941066E+04  0.50000000000E+03 0. -1.
    -200001    1    1    2    0    0 -0.15980597127E+03  0.29923684866E+03 -0.22047256310E+03  0.80851022945E+03  0.70000000000E+03 0.  1.
<mgrwt>
<rscale>  0 0.24334826E+04</rscale>
<asrwt>0</asrwt>
<pdfrwt beam="1">  1        3 0.82911472E-01 0.24334826E+04</pdfrwt>
<pdfrwt beam="2">  1       -3 0.36440623E+00 0.24334826E+04</pdfrwt>
<totfact> 0.52717459E-02</totfact>
</mgrwt>
</event>
<event>
 8    1  0.1649749E-011  0.1895577E+04  0.7818608E-02  0.8657061E-01
         -3   -1    0    0    0  501 -0.00000000000E+00  0.00000000000E+00  0.18890371821E+04  0.18890371848E+04  0.10100000000E+00 0.  1.
          3   -1    0    0  501    0  0.00000000000E+00 -0.00000000000E+00 -0.47553484487E+03  0.47553485560E+03  0.10100000000E+00 0. -1.
     200001    2    1    2    0    0  0.58914813376E+03 -0.23835512770E+03  0.78287886522E+03  0.12280885808E+04  0.70099468921E+03 0.  0.
    5000001    2    3    3    0    0  0.20768063213E+03 -0.13765037818E+03  0.26552729015E+03  0.40753294370E+03  0.18302865024E+03 0.  0.
        -11    1    4    4    0    0  0.15073813412E+03 -0.15925848076E+03  0.12735894713E+03  0.25358539032E+03  0.51100000000E-03 0. -1.
     200002    1    4    4    0    0  0.56942498014E+02  0.21608102580E+02  0.13816834302E+03  0.15394755338E+03  0.30000000000E+02 0. -1.
     200000    1    3    3    0    0  0.38146750163E+03 -0.10070474953E+03  0.51735157507E+03  0.82055563712E+03  0.50000000000E+03 0.  1.
    -200001    1    1    2    0    0 -0.58914813376E+03  0.23835512770E+03  0.63062347196E+03  0.11364834595E+04  0.70000000000E+03 0. -1.
<mgrwt>
<rscale>  0 0.18955770E+04</rscale>
<asrwt>0</asrwt>
<pdfrwt beam="1">  1        3 0.67933551E-01 0.18955770E+04</pdfrwt>
<pdfrwt beam="2">  1       -3 0.26986245E+00 0.18955770E+04</pdfrwt>
<totfact> 0.28898190E-01</totfact>
</mgrwt>
</event>
<event>
 8    1  0.1649749E-011  0.1738678E+04  0.7818608E-02  0.8739607E-01
          3   -1    0    0  501    0  0.00000000000E+00  0.00000000000E+00  0.35593612414E+03  0.35593613847E+03  0.10100000000E+00 0. -1.
         -3   -1    0    0    0  501 -0.00000000000E+00 -0.00000000000E+00 -0.21232758909E+04  0.21232758933E+04  0.10100000000E+00 0.  1.
     200001    2    1    2    0    0  0.39778985776E+03 -0.32870411464E+03 -0.88700709249E+03  0.12417675751E+04  0.69922954929E+03 0.  0.
    5000001    2    3    3    0    0  0.22211072571E+03 -0.12819875901E+03 -0.26906471169E+03  0.40336532020E+03  0.15665141614E+03 0.  0.
        -11    1    4    4    0    0  0.15747727249E+03 -0.12292493260E+02 -0.10251971217E+03  0.18830955399E+03  0.51100000000E-03 0. -1.
     200002    1    4    4    0    0  0.64633453221E+02 -0.11590626575E+03 -0.16654499952E+03  0.21505576621E+03  0.30000000000E+02 0. -1.
     200000    1    3    3    0    0  0.17567913205E+03 -0.20050535563E+03 -0.61794238080E+03  0.83840225493E+03  0.50000000000E+03 0.  1.
    -200001    1    1    2    0    0 -0.39778985776E+03  0.32870411464E+03 -0.88033267430E+03  0.12374444567E+04  0.70000000000E+03 0. -1.
<mgrwt>
<rscale>  0 0.17386784E+04</rscale>
<asrwt>0</asrwt>
<pdfrwt beam="1">  1        3 0.50848020E-01 0.17386784E+04</pdfrwt>
<pdfrwt beam="2">  1       -3 0.30332512E+00 0.17386784E+04</pdfrwt>
<totfact> 0.34932492E-01</totfact>
</mgrwt>
</event>
<event>
 8    1  0.1649749E-011  0.1431288E+04  0.7818608E-02  0.8931477E-01
          3   -1    0    0  501    0  0.00000000000E+00  0.00000000000E+00  0.56647593244E+03  0.56647594144E+03  0.10100000000E+00 0.  1.
         -3   -1    0    0    0  501 -0.00000000000E+00 -0.00000000000E+00 -0.90409147037E+03  0.90409147601E+03  0.10100000000E+00 0. -1.
     200001    2    1    2    0    0  0.10753095943E+03 -0.70707179647E+00 -0.27476571019E+03  0.75957268609E+03  0.69992218337E+03 0.  0.
    5000001    2    3    3    0    0 -0.94721106491E+02 -0.97970185536E+02 -0.10347220388E+03  0.18537108668E+03  0.71314076671E+02 0.  0.
        -11    1    4    4    0    0 -0.48804180490E+01  0.77550986501E+01  0.86296400513E+00  0.92035179438E+01  0.51100000000E-03 0. -1.
     200002    1    4    4    0    0 -0.89840688442E+02 -0.10572528419E+03 -0.10433516788E+03  0.17616756873E+03  0.30000000000E+02 0. -1.
     200000    1    3    3    0    0  0.20225206592E+03  0.97263113739E+02 -0.17129350631E+03  0.57420159941E+03  0.50000000000E+03 0. -1.
    -200001    1    1    2    0    0 -0.10753095943E+03  0.70707179647E+00 -0.62849827738E+02  0.71099473137E+03  0.70000000000E+03 0.  1.
<mgrwt>
<rscale>  0 0.14312876E+04</rscale>
<asrwt>0</asrwt>
<pdfrwt beam="1">  1        3 0.80925135E-01 0.14312876E+04</pdfrwt>
<pdfrwt beam="2">  1       -3 0.12915592E+00 0.14312876E+04</pdfrwt>
<totfact> 0.17108374E+00</totfact>
</mgrwt>
</event>
<event>
 8    1  0.1649749E-011  0.1540799E+04  0.7818608E-02  0.8857766E-01
          3   -1    0    0  501    0  0.00000000000E+00  0.00000000000E+00  0.11776389960E+04  0.11776390003E+04  0.10100000000E+00 0. -1.
         -3   -1    0    0    0  501 -0.00000000000E+00 -0.00000000000E+00 -0.50398741467E+03  0.50398742479E+03  0.10100000000E+00 0.  1.
     200001    2    1    2    0    0 -0.23402843406E+03  0.16370696107E+03  0.17541100823E+03  0.77619120064E+03  0.70009605133E+03 0.  0.
    5000001    2    3    3    0    0  0.31023063991E+02  0.87449426582E+02  0.18199953766E+02  0.18392198497E+03  0.15775368626E+03 0.  0.
        -11    1    4    4    0    0 -0.32602516369E+02  0.10181768438E+03 -0.86736669134E+01  0.10726135103E+03  0.51100000000E-03 0. -1.
     200002    1    4    4    0    0  0.63625580360E+02 -0.14368257797E+02  0.26873620679E+02  0.76660633944E+02  0.30000000000E+02 0. -1.
     200000    1    3    3    0    0 -0.26505149805E+03  0.76257534492E+02  0.15721105447E+03  0.59226921567E+03  0.50000000000E+03 0. -1.
    -200001    1    1    2    0    0  0.23402843406E+03 -0.16370696107E+03  0.49824057311E+03  0.90543522449E+03  0.70000000000E+03 0. -1.
<mgrwt>
<rscale>  0 0.15407988E+04</rscale>
<asrwt>0</asrwt>
<pdfrwt beam="1">  1        3 0.16823414E+00 0.15407988E+04</pdfrwt>
<pdfrwt beam="2">  1       -3 0.71998205E-01 0.15407988E+04</pdfrwt>
<totfact> 0.11123574E+00</totfact>
</mgrwt>
</event>
<event>
 8    1  0.1649749E-011  0.3477819E+04  0.7818608E-02  0.8119067E-01
          3   -1    0    0  501    0  0.00000000000E+00  0.00000000000E+00  0.11041703062E+04  0.11041703108E+04  0.10100000000E+00 0. -1.
         -3   -1    0    0    0  501 -0.00000000000E+00 -0.00000000000E+00 -0.27385321639E+04  0.27385321657E+04  0.10100000000E+00 0.  1.
     200001    2    1    2    0    0 -0.15380612074E+04 -0.38162021586E+03 -0.65027558049E+03  0.18502938669E+04  0.69961617788E+03 0.  0.
    5000001    2    3    3    0    0 -0.43096919707E+03 -0.18408424243E+03 -0.10349876338E+03  0.50358006363E+03  0.15251042366E+03 0.  0.
        -11    1    4    4    0    0 -0.72090233675E+01  0.17141794458E+02 -0.17841489276E+02  0.25770717394E+02  0.51100000000E-03 0. -1.
     200002    1    4    4    0    0 -0.42376017370E+03 -0.20122603689E+03 -0.85657274107E+02  0.47780934623E+03  0.30000000000E+02 0. -1.
     200000    1    3    3    0    0 -0.11070920104E+04 -0.19753597343E+03 -0.54677681711E+03  0.13467138033E+04  0.50000000000E+03 0.  1.
    -200001    1    1    2    0    0  0.15380612074E+04  0.38162021586E+03 -0.98408627716E+03  0.19924086097E+04  0.70000000000E+03 0. -1.
<mgrwt>
<rscale>  0 0.34778188E+04</rscale>
<asrwt>0</asrwt>
<pdfrwt beam="1">  1        3 0.15773862E+00 0.34778188E+04</pdfrwt>
<pdfrwt beam="2">  1       -3 0.39121888E+00 0.34778188E+04</pdfrwt>
<totfact> 0.72259930E-03</totfact>
</mgrwt>
</event>
<event>
 8    1  0.1649749E-011  0.2164832E+04  0.7818608E-02  0.8533210E-01
          3   -1    0    0  501    0  0.00000000000E+00  0.00000000000E+00  0.99763908830E+03  0.99763909342E+03  0.10100000000E+00 0.  1.
         -3   -1    0    0    0  501 -0.00000000000E+00 -0.00000000000E+00 -0.11743966249E+04  0.11743966292E+04  0.10100000000E+00 0. -1.
     200001    2    1    2    0    0  0.62968056362E+01 -0.82248937653E+03 -0.17804278173E+02  0.10803422846E+04  0.70020999376E+03 0.  0.
    5000001    2    3    3    0    0 -0.75423370959E+01 -0.38785631435E+03 -0.43688177989E+02  0.41719268093E+03  0.14714506004E+03 0.  0.
        -11    1    4    4    0    0 -0.44616119696E+02 -0.35874233677E+02  0.95043275447E+01  0.58033533590E+02  0.51100000000E-03 0. -1.
     200002    1    4    4    0    0  0.37073782600E+02 -0.35198208068E+03 -0.53192505534E+02  0.35915914734E+03  0.30000000000E+02 0. -1.
     200000    1    3    3    0    0  0.13839142732E+02 -0.43463306218E+03  0.25883899816E+02  0.66314960370E+03  0.50000000000E+03 0.  1.
    -200001    1    1    2    0    0 -0.62968056362E+01  0.82248937653E+03 -0.15895325842E+03  0.10916934380E+04  0.70000000000E+03 0.  1.
<mgrwt>
<rscale>  0 0.21648316E+04</rscale>
<asrwt>0</asrwt>
<pdfrwt beam="1">  1        3 0.14251987E+00 0.21648316E+04</pdfrwt>
<pdfrwt beam="2">  1       -3 0.16777095E+00 0.21648316E+04</pdfrwt>
<totfact> 0.21347150E-01</totfact>
</mgrwt>
</event>
<event>
 8    1  0.1649749E-011  0.1868015E+04  0.7818608E-02  0.8670943E-01
          3   -1    0    0  501    0  0.00000000000E+00  0.00000000000E+00  0.47380085478E+03  0.47380086554E+03  0.10100000000E+00 0. -1.
         -3   -1    0    0    0  501 -0.00000000000E+00 -0.00000000000E+00 -0.18412169487E+04  0.18412169515E+04  0.10100000000E+00 0.  1.
     200001    2    1    2    0    0  0.32119405091E+03 -0.10132950635E+03 -0.13264400490E+04  0.15371281569E+04  0.69991890937E+03 0.  0.
    5000001    2    3    3    0    0  0.64645108110E+02  0.60958387890E+02 -0.67309918813E+02  0.14876098441E+03  0.98510356086E+02 0.  0.
        -11    1    4    4    0    0  0.81455242058E+02  0.33892629085E+02 -0.51935798086E+02  0.10237672532E+03  0.51100000000E-03 0. -1.
     200002    1    4    4    0    0 -0.16810133948E+02  0.27065758806E+02 -0.15374120727E+02  0.46384259089E+02  0.30000000000E+02 0. -1.
     200000    1    3    3    0    0  0.25654894280E+03 -0.16228789424E+03 -0.12591301302E+04  0.13883671724E+04  0.50000000000E+03 0.  1.
    -200001    1    1    2    0    0 -0.32119405091E+03  0.10132950635E+03 -0.40976044928E+02  0.77788966020E+03  0.70000000000E+03 0. -1.
<mgrwt>
<rscale>  0 0.18680152E+04</rscale>
<asrwt>0</asrwt>
<pdfrwt beam="1">  1        3 0.67685838E-01 0.18680152E+04</pdfrwt>
<pdfrwt beam="2">  1       -3 0.26303099E+00 0.18680152E+04</pdfrwt>
<totfact> 0.31936151E-01</totfact>
</mgrwt>
</event>
<event>
 8    1  0.1649749E-011  0.2204037E+04  0.7818608E-02  0.8516750E-01
         -3   -1    0    0    0  501 -0.00000000000E+00  0.00000000000E+00  0.45956105415E+03  0.45956106525E+03  0.10100000000E+00 0. -1.
          3   -1    0    0  501    0  0.00000000000E+00 -0.00000000000E+00 -0.26426198770E+04  0.26426198789E+04  0.10100000000E+00 0.  1.
     200001    2    1    2    0    0  0.34514465386E+03 -0.37995742870E+03 -0.20479228245E+04  0.22236855158E+04  0.69806654275E+03 0.  0.
    5000001    2    3    3    0    0  0.94898452627E+02 -0.13729504721E+03 -0.73888677420E+03  0.77970366905E+03  0.18473900543E+03 0.  0.
        -11    1    4    4    0    0  0.94945200336E+02  0.12576754516E+02 -0.26485442789E+03  0.28163919080E+03  0.51100000000E-03 0. -1.
     200002    1    4    4    0    0 -0.46747708365E-01 -0.14987180173E+03 -0.47403234631E+03  0.49806447824E+03  0.30000000000E+02 0. -1.
     200000    1    3    3    0    0  0.25024620123E+03 -0.24266238149E+03 -0.13090360503E+04  0.14439818467E+04  0.50000000000E+03 0.  1.
    -200001    1    1    2    0    0 -0.34514465386E+03  0.37995742870E+03 -0.13513599832E+03  0.87849542842E+03  0.70000000000E+03 0. -1.
<mgrwt>
<rscale>  0 0.22040374E+04</rscale>
<asrwt>0</asrwt>
<pdfrwt beam="1">  1        3 0.37751712E+00 0.22040374E+04</pdfrwt>
<pdfrwt beam="2">  1       -3 0.65651581E-01 0.22040374E+04</pdfrwt>
<totfact> 0.79082909E-02</totfact>
</mgrwt>
</event>
<event>
 8    1  0.1649749E-011  0.1643342E+04  0.7818608E-02  0.8794355E-01
         -3   -1    0    0    0  501 -0.00000000000E+00  0.00000000000E+00  0.12342617794E+04  0.12342617836E+04  0.10100000000E+00 0. -1.
          3   -1    0    0  501    0  0.00000000000E+00 -0.00000000000E+00 -0.54700134315E+03  0.54700135248E+03  0.10100000000E+00 0.  1.
     200001    2    1    2    0    0  0.30203478783E+03 -0.17457112565E+03  0.61332262473E+03  0.99566343458E+03  0.70248198695E+03 0.  0.
    5000001    2    3    3    0    0  0.40474070251E+02 -0.12194168229E+03  0.18094697708E+03  0.28282925473E+03  0.17533583368E+03 0.  0.
        -11    1    4    4    0    0 -0.37472985409E+02 -0.10676398936E+03  0.43381916993E+02  0.12118071126E+03  0.51100000000E-03 0. -1.
     200002    1    4    4    0    0  0.77947055660E+02 -0.15177692935E+02  0.13756506009E+03  0.16164854347E+03  0.30000000000E+02 0. -1.
     200000    1    3    3    0    0  0.26156071758E+03 -0.52629443359E+02  0.43237564765E+03  0.71283417986E+03  0.50000000000E+03 0. -1.
    -200001    1    1    2    0    0 -0.30203478783E+03  0.17457112565E+03  0.73937811558E+02  0.78559970147E+03  0.70000000000E+03 0.  1.
<mgrwt>
<rscale>  0 0.16433416E+04</rscale>
<asrwt>0</asrwt>
<pdfrwt beam="1">  1        3 0.78143049E-01 0.16433416E+04</pdfrwt>
<pdfrwt beam="2">  1       -3 0.17632311E+00 0.16433416E+04</pdfrwt>
<totfact> 0.80757648E-01</totfact>
</mgrwt>
</event>
<event>
 8    1  0.1649749E-011  0.1610912E+04  0.7818608E-02  0.8813872E-01
          3   -1    0    0  501    0  0.00000000000E+00  0.00000000000E+00  0.40394759481E+03  0.40394760744E+03  0.10100000000E+00 0.  1.
         -3   -1    0    0    0  501 -0.00000000000E+00 -0.00000000000E+00 -0.16060479469E+04  0.16060479501E+04  0.10100000000E+00 0. -1.
     200001    2    1    2    0    0 -0.20869403858E+03  0.33746548639E+03 -0.63906158167E+03  0.10279320091E+04  0.70057715766E+03 0.  0.
    5000001    2    3    3    0    0 -0.60310024894E+02  0.10561266132E+03  0.12317764058E+02  0.16186699992E+03  0.10610308675E+03 0.  0.
        -11    1    4    4    0    0 -0.68357955806E+01  0.13079080813E+02 -0.37423025340E+02  0.40227767549E+02  0.51100000000E-03 0. -1.
     200002    1    4    4    0    0 -0.53474229314E+02  0.92533580503E+02  0.49740789398E+02  0.12163923237E+03  0.30000000000E+02 0. -1.
     200000    1    3    3    0    0 -0.14838401368E+03  0.23185282507E+03 -0.65137934573E+03  0.86606500914E+03  0.50000000000E+03 0. -1.
    -200001    1    1    2    0    0  0.20869403858E+03 -0.33746548639E+03 -0.56303877045E+03  0.98206354849E+03  0.70000000000E+03 0.  1.
<mgrwt>
<rscale>  0 0.16109118E+04</rscale>
<asrwt>0</asrwt>
<pdfrwt beam="1">  1        3 0.57706801E-01 0.16109118E+04</pdfrwt>
<pdfrwt beam="2">  1       -3 0.22943542E+00 0.16109118E+04</pdfrwt>
<totfact> 0.71881459E-01</totfact>
</mgrwt>
</event>
<event>
 8    1  0.1649749E-011  0.2389475E+04  0.7818608E-02  0.8443455E-01
         -3   -1    0    0    0  501 -0.00000000000E+00  0.00000000000E+00  0.69436973546E+03  0.69436974281E+03  0.10100000000E+00 0. -1.
          3   -1    0    0  501    0  0.00000000000E+00 -0.00000000000E+00 -0.20556732777E+04  0.20556732801E+04  0.10100000000E+00 0.  1.
     200001    2    1    2    0    0  0.94169337094E+03  0.54952804810E+01 -0.93962526532E+03  0.15031953289E+04  0.69991710554E+03 0.  0.
    5000001    2    3    3    0    0  0.35462242085E+03  0.11478423520E+03 -0.22984941714E+03  0.44945051600E+03  0.10120538400E+03 0.  0.
        -11    1    4    4    0    0  0.79902172317E+02 -0.13196009478E+02 -0.37508934702E+02  0.89249156802E+02  0.51100000000E-03 0. -1.
     200002    1    4    4    0    0  0.27472024854E+03  0.12798024468E+03 -0.19234048244E+03  0.36020135920E+03  0.30000000000E+02 0. -1.
     200000    1    3    3    0    0  0.58707095008E+03 -0.10928895472E+03 -0.70977584817E+03  0.10537448129E+04  0.50000000000E+03 0. -1.
    -200001    1    1    2    0    0 -0.94169337094E+03 -0.54952804810E+01 -0.42167827689E+03  0.12468476941E+04  0.70000000000E+03 0. -1.
<mgrwt>
<rscale>  0 0.23894747E+04</rscale>
<asrwt>0</asrwt>
<pdfrwt beam="1">  1        3 0.29366761E+00 0.23894747E+04</pdfrwt>
<pdfrwt beam="2">  1       -3 0.99195678E-01 0.23894747E+04</pdfrwt>
<totfact> 0.88370868E-02</totfact>
</mgrwt>
</event>
<event>
 8    1  0.1649749E-011  0.1829657E+04  0.7818608E-02  0.8690685E-01
         -3   -1    0    0    0  501 -0.00000000000E+00  0.00000000000E+00  0.14919721656E+04  0.14919721690E+04  0.10100000000E+00 0. -1.
          3   -1    0    0  501    0  0.00000000000E+00 -0.00000000000E+00 -0.56094269705E+03  0.56094270615E+03  0.10100000000E+00 0.  1.
     200001    2    1    2    0    0  0.45954352521E+03 -0.26714734878E+03  0.18084851867E+03  0.89735465819E+03  0.69999374164E+03 0.  0.
    5000001    2    3    3    0    0  0.13932063931E+03 -0.65192513123E+02  0.84436378777E+02  0.26282825762E+03  0.19567546253E+03 0.  0.
        -11    1    4    4    0    0  0.11477589880E+01 -0.72995449817E+02  0.96164232526E+02  0.12073612824E+03  0.51100000000E-03 0. -1.
     200002    1    4    4    0    0  0.13817288033E+03  0.78029366937E+01 -0.11727853749E+02  0.14209212938E+03  0.30000000000E+02 0. -1.
     200000    1    3    3    0    0  0.32022288590E+03 -0.20195483565E+03  0.96412139894E+02  0.63452640057E+03  0.50000000000E+03 0.  1.
    -200001    1    1    2    0    0 -0.45954352521E+03  0.26714734878E+03  0.75018094989E+03  0.11555602170E+04  0.70000000000E+03 0. -1.
<mgrwt>
<rscale>  0 0.18296567E+04</rscale>
<asrwt>0</asrwt>
<pdfrwt beam="1">  1        3 0.80134673E-01 0.18296567E+04</pdfrwt>
<pdfrwt beam="2">  1       -3 0.21313888E+00 0.18296567E+04</pdfrwt>
<totfact> 0.43584888E-01</totfact>
</mgrwt>
</event>
<event>
 8    1  0.1649749E-011  0.1467548E+04  0.7818608E-02  0.8906324E-01
         -3   -1    0    0    0  501 -0.00000000000E+00  0.00000000000E+00  0.82406149079E+03  0.82406149698E+03  0.10100000000E+00 0. -1.
          3   -1    0    0  501    0  0.00000000000E+00 -0.00000000000E+00 -0.65337895918E+03  0.65337896699E+03  0.10100000000E+00 0.  1.
     200001    2    1    2    0    0 -0.11148097465E+03 -0.11279878657E+03 -0.74959785760E+02  0.71882875693E+03  0.69709700785E+03 0.  0.
    5000001    2    3    3    0    0 -0.68339803677E+02  0.57730481209E+02  0.64069677606E+02  0.17085924730E+03  0.13070891925E+03 0.  0.
        -11    1    4    4    0    0  0.20790704060E+02  0.39713405688E+02 -0.14375552751E+02  0.47075094092E+02  0.51100000000E-03 0. -1.
     200002    1    4    4    0    0 -0.89130507737E+02  0.18017075522E+02  0.78445230357E+02  0.12378415321E+03  0.30000000000E+02 0. -1.
     200000    1    3    3    0    0 -0.43141170977E+02 -0.17052926778E+03 -0.13902946337E+03  0.54796950963E+03  0.50000000000E+03 0. -1.
    -200001    1    1    2    0    0  0.11148097465E+03  0.11279878657E+03  0.24564231737E+03  0.75861170703E+03  0.70000000000E+03 0. -1.
<mgrwt>
<rscale>  0 0.14675482E+04</rscale>
<asrwt>0</asrwt>
<pdfrwt beam="1">  1        3 0.93339852E-01 0.14675482E+04</pdfrwt>
<pdfrwt beam="2">  1       -3 0.11772307E+00 0.14675482E+04</pdfrwt>
<totfact> 0.15514691E+00</totfact>
</mgrwt>
</event>
<event>
 8    1  0.1649749E-011  0.1545978E+04  0.7818608E-02  0.8854441E-01
         -3   -1    0    0    0  501 -0.00000000000E+00  0.00000000000E+00  0.91058029385E+03  0.91058029945E+03  0.10100000000E+00 0. -1.
          3   -1    0    0  501    0  0.00000000000E+00 -0.00000000000E+00 -0.65618837028E+03  0.65618837805E+03  0.10100000000E+00 0.  1.
     200001    2    1    2    0    0 -0.26212250465E+03 -0.82724402874E+02  0.30441835916E+03  0.81307498737E+03  0.70204619750E+03 0.  0.
    5000001    2    3    3    0    0  0.11888194384E+02  0.73455501613E+02  0.61103548518E+01  0.15091058847E+03  0.13114735755E+03 0.  0.
        -11    1    4    4    0    0  0.21091983557E+01  0.10542542449E+03 -0.88527191536E+00  0.10545023733E+03  0.51100000000E-03 0. -1.
     200002    1    4    4    0    0  0.97789960281E+01 -0.31969922873E+02  0.69956267672E+01  0.45460351139E+02  0.30000000000E+02 0. -1.
     200000    1    3    3    0    0 -0.27401069903E+03 -0.15617990449E+03  0.29830800431E+03  0.66216439891E+03  0.50000000000E+03 0. -1.
    -200001    1    1    2    0    0  0.26212250465E+03  0.82724402874E+02 -0.50026435588E+02  0.75369369012E+03  0.70000000000E+03 0.  1.
<mgrwt>
<rscale>  0 0.15459783E+04</rscale>
<asrwt>0</asrwt>
<pdfrwt beam="1">  1        3 0.93741197E-01 0.15459783E+04</pdfrwt>
<pdfrwt beam="2">  1       -3 0.13008290E+00 0.15459783E+04</pdfrwt>
<totfact> 0.11944258E+00</totfact>
</mgrwt>
</event>
<event>
 8    1  0.1649749E-011  0.1484910E+04  0.7818608E-02  0.8894550E-01
         -3   -1    0    0    0  501 -0.00000000000E+00  0.00000000000E+00  0.84187704933E+03  0.84187705539E+03  0.10100000000E+00 0. -1.
          3   -1    0    0  501    0  0.00000000000E+00 -0.00000000000E+00 -0.65477384011E+03  0.65477384790E+03  0.10100000000E+00 0.  1.
     200001    2    1    2    0    0 -0.14138547902E+03  0.33350303610E+02 -0.10810789459E+03  0.72318358515E+03  0.70014647362E+03 0.  0.
    5000001    2    3    3    0    0 -0.42145480238E+02  0.35384714318E+02 -0.84157343334E+02  0.21286373928E+03  0.18761714620E+03 0.  0.
        -11    1    4    4    0    0 -0.25697185446E+02 -0.41387126791E+02 -0.11376048700E+03  0.12375252728E+03  0.51100000000E-03 0. -1.
     200002    1    4    4    0    0 -0.16448294792E+02  0.76771841109E+02  0.29603143670E+02  0.89111211999E+02  0.30000000000E+02 0. -1.
     200000    1    3    3    0    0 -0.99239998779E+02 -0.20344107084E+01 -0.23950551257E+02  0.51031984587E+03  0.50000000000E+03 0.  1.
    -200001    1    1    2    0    0  0.14138547902E+03 -0.33350303610E+02  0.29521110381E+03  0.77346731815E+03  0.70000000000E+03 0. -1.
<mgrwt>
<rscale>  0 0.14849095E+04</rscale>
<asrwt>0</asrwt>
<pdfrwt beam="1">  1        3 0.93539121E-01 0.14849095E+04</pdfrwt>
<pdfrwt beam="2">  1       -3 0.12026815E+00 0.14849095E+04</pdfrwt>
<totfact> 0.14635936E+00</totfact>
</mgrwt>
</event>
<event>
 8    1  0.1649749E-011  0.2429456E+04  0.7818608E-02  0.8428557E-01
          3   -1    0    0  501    0  0.00000000000E+00  0.00000000000E+00  0.98128786897E+03  0.98128787417E+03  0.10100000000E+00 0.  1.
         -3   -1    0    0    0  501 -0.00000000000E+00 -0.00000000000E+00 -0.15037017659E+04  0.15037017693E+04  0.10100000000E+00 0. -1.
     200001    2    1    2    0    0  0.52578986170E+03 -0.74592346123E+03  0.13913580556E+03  0.11581494882E+04  0.69935304106E+03 0.  0.
    5000001    2    3    3    0    0  0.20102458731E+03 -0.19661996919E+03  0.16964454338E+03  0.34689268987E+03  0.11173616335E+03 0.  0.
        -11    1    4    4    0    0  0.77154436317E+02 -0.68878995259E+02  0.12262662275E+03  0.16041948647E+03  0.51100000000E-03 0. -1.
     200002    1    4    4    0    0  0.12387015099E+03 -0.12774097393E+03  0.47017920634E+02  0.18647320340E+03  0.30000000000E+02 0. -1.
     200000    1    3    3    0    0  0.32476527439E+03 -0.54930349204E+03 -0.30508737821E+02  0.81125679837E+03  0.50000000000E+03 0.  1.
    -200001    1    1    2    0    0 -0.52578986170E+03  0.74592346123E+03 -0.66154970253E+03  0.13268401553E+04  0.70000000000E+03 0. -1.
<mgrwt>
<rscale>  0 0.24294562E+04</rscale>
<asrwt>0</asrwt>
<pdfrwt beam="1">  1        3 0.14018398E+00 0.24294562E+04</pdfrwt>
<pdfrwt beam="2">  1       -3 0.21481454E+00 0.24294562E+04</pdfrwt>
<totfact> 0.10750826E-01</totfact>
</mgrwt>
</event>
<event>
 8    1  0.1649749E-011  0.2169034E+04  0.7818608E-02  0.8531429E-01
         -3   -1    0    0    0  501 -0.00000000000E+00  0.00000000000E+00  0.74667797974E+03  0.74667798658E+03  0.10100000000E+00 0. -1.
          3   -1    0    0  501    0  0.00000000000E+00 -0.00000000000E+00 -0.15752130577E+04  0.15752130609E+04  0.10100000000E+00 0.  1.
     200001    2    1    2    0    0  0.70465561058E+03 -0.18199270171E+03  0.92139331173E+01  0.10098375888E+04  0.70001870415E+03 0.  0.
    5000001    2    3    3    0    0  0.10562491233E+03 -0.14152587426E+03  0.36598676729E+02  0.22802861867E+03  0.13953993193E+03 0.  0.
        -11    1    4    4    0    0 -0.13948836280E+01 -0.28778858235E+02  0.61356450307E+02  0.67784824084E+02  0.51100000000E-03 0. -1.
     200002    1    4    4    0    0  0.10701979595E+03 -0.11274701603E+03 -0.24757773578E+02  0.16024379458E+03  0.30000000000E+02 0. -1.
     200000    1    3    3    0    0  0.59903069825E+03 -0.40466827451E+02 -0.27384743612E+02  0.78180897012E+03  0.50000000000E+03 0. -1.
    -200001    1    1    2    0    0 -0.70465561058E+03  0.18199270171E+03 -0.83774901106E+03  0.13120534587E+04  0.70000000000E+03 0.  1.
<mgrwt>
<rscale>  0 0.21690338E+04</rscale>
<asrwt>0</asrwt>
<pdfrwt beam="1">  1        3 0.22503044E+00 0.21690338E+04</pdfrwt>
<pdfrwt beam="2">  1       -3 0.10666828E+00 0.21690338E+04</pdfrwt>
<totfact> 0.18719810E-01</totfact>
</mgrwt>
</event>
<event>
 8    1  0.1649749E-011  0.1487100E+04  0.7818608E-02  0.8893077E-01
         -3   -1    0    0    0  501 -0.00000000000E+00  0.00000000000E+00  0.10507339611E+04  0.10507339659E+04  0.10100000000E+00 0. -1.
          3   -1    0    0  501    0  0.00000000000E+00 -0.00000000000E+00 -0.52617169251E+03  0.52617170220E+03  0.10100000000E+00 0.  1.
     200001    2    1    2    0    0 -0.11251342892E+03 -0.19907961504E+03  0.14454460054E+03  0.74822877524E+03  0.69761106194E+03 0.  0.
    5000001    2    3    3    0    0 -0.82426660353E+02 -0.55749509168E+02  0.65488369023E+02  0.22125759895E+03  0.18645116387E+03 0.  0.
        -11    1    4    4    0    0 -0.42015852384E+02 -0.44961450337E+02  0.12695646284E+03  0.14108439788E+03  0.51100000000E-03 0. -1.
     200002    1    4    4    0    0 -0.40410807969E+02 -0.10788058831E+02 -0.61468093813E+02  0.80173201078E+02  0.30000000000E+02 0. -1.
     200000    1    3    3    0    0 -0.30086768562E+02 -0.14333010588E+03  0.79056231515E+02  0.52697117628E+03  0.50000000000E+03 0.  1.
    -200001    1    1    2    0    0  0.11251342892E+03  0.19907961504E+03  0.38001766804E+03  0.82867689291E+03  0.70000000000E+03 0. -1.
<mgrwt>
<rscale>  0 0.14870998E+04</rscale>
<asrwt>0</asrwt>
<pdfrwt beam="1">  1        3 0.75167387E-01 0.14870998E+04</pdfrwt>
<pdfrwt beam="2">  1       -3 0.15010485E+00 0.14870998E+04</pdfrwt>
<totfact> 0.13696935E+00</totfact>
</mgrwt>
</event>
<event>
 8    1  0.1649749E-011  0.1678727E+04  0.7818608E-02  0.8773591E-01
          3   -1    0    0  501    0  0.00000000000E+00  0.00000000000E+00  0.70962314664E+03  0.70962315382E+03  0.10100000000E+00 0. -1.
         -3   -1    0    0    0  501 -0.00000000000E+00 -0.00000000000E+00 -0.99282393585E+03  0.99282394099E+03  0.10100000000E+00 0.  1.
     200001    2    1    2    0    0  0.36396391540E+03  0.56404244185E+02  0.14319373040E+03  0.80385739042E+03  0.70002220624E+03 0.  0.
    5000001    2    3    3    0    0  0.10792231026E+03 -0.81978270482E+01  0.15470474125E+03  0.23829286312E+03  0.14538054281E+03 0.  0.
        -11    1    4    4    0    0  0.66947491653E+02 -0.71288214306E+02  0.10390771882E+03  0.14269124068E+03  0.51100000000E-03 0. -1.
     200002    1    4    4    0    0  0.40974818604E+02  0.63090387258E+02  0.50797022437E+02  0.95601622436E+02  0.30000000000E+02 0. -1.
     200000    1    3    3    0    0  0.25604160515E+03  0.64602071233E+02 -0.11511010858E+02  0.56556452730E+03  0.50000000000E+03 0. -1.
    -200001    1    1    2    0    0 -0.36396391540E+03 -0.56404244185E+02 -0.42639451961E+03  0.89858970439E+03  0.70000000000E+03 0.  1.
<mgrwt>
<rscale>  0 0.16787267E+04</rscale>
<asrwt>0</asrwt>
<pdfrwt beam="1">  1        3 0.10137474E+00 0.16787267E+04</pdfrwt>
<pdfrwt beam="2">  1       -3 0.14183199E+00 0.16787267E+04</pdfrwt>
<totfact> 0.79265261E-01</totfact>
</mgrwt>
</event>
<event>
 8    1  0.1649749E-011  0.1979362E+04  0.7818608E-02  0.8616331E-01
         -3   -1    0    0    0  501 -0.00000000000E+00  0.00000000000E+00  0.43494002015E+03  0.43494003188E+03  0.10100000000E+00 0.  1.
          3   -1    0    0  501    0  0.00000000000E+00 -0.00000000000E+00 -0.22519621187E+04  0.22519621209E+04  0.10100000000E+00 0. -1.
     200001    2    1    2    0    0  0.17427389149E+03  0.28227884826E+03 -0.17445665217E+04  0.19088902326E+04  0.70021199207E+03 0.  0.
    5000001    2    3    3    0    0  0.13190150969E+03  0.15445059283E+03 -0.51947050197E+03  0.57885424086E+03  0.15482130298E+03 0.  0.
        -11    1    4    4    0    0  0.66034499321E+01 -0.28065225280E+02 -0.34947020012E+02  0.45305150138E+02  0.51100000000E-03 0. -1.
     200002    1    4    4    0    0  0.12529805976E+03  0.18251581811E+03 -0.48452348196E+03  0.53354909072E+03  0.30000000000E+02 0. -1.
     200000    1    3    3    0    0  0.42372381805E+02  0.12782825543E+03 -0.12250960197E+04  0.13300359917E+04  0.50000000000E+03 0. -1.
    -200001    1    1    2    0    0 -0.17427389149E+03 -0.28227884826E+03 -0.72455576792E+02  0.77801192024E+03  0.70000000000E+03 0.  1.
<mgrwt>
<rscale>  0 0.19793620E+04</rscale>
<asrwt>0</asrwt>
<pdfrwt beam="1">  1        3 0.32170887E+00 0.19793620E+04</pdfrwt>
<pdfrwt beam="2">  1       -3 0.62134291E-01 0.19793620E+04</pdfrwt>
<totfact> 0.18180883E-01</totfact>
</mgrwt>
</event>
<event>
 8    1  0.1649749E-011  0.1631643E+04  0.7818608E-02  0.8801341E-01
          3   -1    0    0  501    0  0.00000000000E+00  0.00000000000E+00  0.19253412059E+04  0.19253412086E+04  0.10100000000E+00 0.  1.
         -3   -1    0    0    0  501 -0.00000000000E+00 -0.00000000000E+00 -0.34568680892E+03  0.34568682367E+03  0.10100000000E+00 0. -1.
     200001    2    1    2    0    0 -0.65527246663E+02  0.26991565075E+03  0.35260423210E+03  0.83130570284E+03  0.69970790227E+03 0.  0.
    5000001    2    3    3    0    0 -0.11516885636E+03  0.11351964052E+03  0.25979349163E+02  0.21194489073E+03  0.13451816183E+03 0.  0.
        -11    1    4    4    0    0 -0.11964493933E+02  0.93940189668E+01  0.57106641205E+02  0.59097928707E+02  0.51100000000E-03 0. -1.
     200002    1    4    4    0    0 -0.10320436243E+03  0.10412562156E+03 -0.31127292042E+02  0.15284696202E+03  0.30000000000E+02 0. -1.
     200000    1    3    3    0    0  0.49641609698E+02  0.15639601023E+03  0.32662488294E+03  0.61936081211E+03  0.50000000000E+03 0. -1.
    -200001    1    1    2    0    0  0.65527246663E+02 -0.26991565075E+03  0.12270501649E+04  0.14397223294E+04  0.70000000000E+03 0.  1.
<mgrwt>
<rscale>  0 0.16316434E+04</rscale>
<asrwt>0</asrwt>
<pdfrwt beam="1">  1        3 0.27504875E+00 0.16316434E+04</pdfrwt>
<pdfrwt beam="2">  1       -3 0.49383831E-01 0.16316434E+04</pdfrwt>
<totfact> 0.54696292E-01</totfact>
</mgrwt>
</event>
<event>
 8    1  0.1649749E-011  0.2017412E+04  0.7818608E-02  0.8598523E-01
         -3   -1    0    0    0  501 -0.00000000000E+00  0.00000000000E+00  0.11265686744E+04  0.11265686789E+04  0.10100000000E+00 0. -1.
          3   -1    0    0  501    0  0.00000000000E+00 -0.00000000000E+00 -0.90317423500E+03  0.90317424064E+03  0.10100000000E+00 0.  1.
     200001    2    1    2    0    0  0.70257443700E+03  0.10053057280E+03  0.26571426834E+03  0.10319913455E+04  0.70048899292E+03 0.  0.
    5000001    2    3    3    0    0  0.16195643387E+03 -0.58473396215E+02  0.50416467298E+02  0.24847157511E+03  0.17189321954E+03 0.  0.
        -11    1    4    4    0    0  0.36951591164E+02  0.58634999611E+02  0.17551810917E+02  0.71495100082E+02  0.51100000000E-03 0. -1.
     200002    1    4    4    0    0  0.12500484271E+03 -0.11710839583E+03  0.32864656381E+02  0.17697647503E+03  0.30000000000E+02 0. -1.
     200000    1    3    3    0    0  0.54061800313E+03  0.15900396902E+03  0.21529780104E+03  0.78351977040E+03  0.50000000000E+03 0. -1.
    -200001    1    1    2    0    0 -0.70257443700E+03 -0.10053057280E+03 -0.42319828954E+02  0.99775157405E+03  0.70000000000E+03 0.  1.
<mgrwt>
<rscale>  0 0.20174120E+04</rscale>
<asrwt>0</asrwt>
<pdfrwt beam="1">  1        3 0.12902489E+00 0.20174120E+04</pdfrwt>
<pdfrwt beam="2">  1       -3 0.16093838E+00 0.20174120E+04</pdfrwt>
<totfact> 0.31028996E-01</totfact>
</mgrwt>
</event>
<event>
 8    1  0.1649749E-011  0.1456353E+04  0.7818608E-02  0.8914008E-01
         -3   -1    0    0    0  501 -0.00000000000E+00  0.00000000000E+00  0.96573769584E+03  0.96573770112E+03  0.10100000000E+00 0. -1.
          3   -1    0    0  501    0  0.00000000000E+00 -0.00000000000E+00 -0.54905313238E+03  0.54905314167E+03  0.10100000000E+00 0.  1.
     200001    2    1    2    0    0  0.83964982897E+01  0.10453633117E+03  0.30082806403E+02  0.70828029464E+03  0.69982687488E+03 0.  0.
    5000001    2    3    3    0    0  0.48102376005E+02  0.72771191952E+02 -0.18511412911E+02  0.20335754911E+03  0.18276251098E+03 0.  0.
        -11    1    4    4    0    0  0.58513962572E+02 -0.21592829442E+02  0.52122942412E+02  0.81283056199E+02  0.51100000000E-03 0. -1.
     200002    1    4    4    0    0 -0.10411586567E+02  0.94364021394E+02 -0.70634355323E+02  0.12207449291E+03  0.30000000000E+02 0. -1.
     200000    1    3    3    0    0 -0.39705877715E+02  0.31765139215E+02  0.48594219314E+02  0.50492274552E+03  0.50000000000E+03 0.  1.
    -200001    1    1    2    0    0 -0.83964982897E+01 -0.10453633117E+03  0.38660175706E+03  0.80651054815E+03  0.70000000000E+03 0. -1.
<mgrwt>
<rscale>  0 0.14563534E+04</rscale>
<asrwt>0</asrwt>
<pdfrwt beam="1">  1        3 0.78436163E-01 0.14563534E+04</pdfrwt>
<pdfrwt beam="2">  1       -3 0.13796253E+00 0.14563534E+04</pdfrwt>
<totfact> 0.15517941E+00</totfact>
</mgrwt>
</event>
<event>
 8    1  0.1649749E-011  0.2031344E+04  0.7818608E-02  0.8592105E-01
          3   -1    0    0  501    0  0.00000000000E+00  0.00000000000E+00  0.43030332770E+03  0.43030333956E+03  0.10100000000E+00 0.  1.
         -3   -1    0    0    0  501 -0.00000000000E+00 -0.00000000000E+00 -0.23973549301E+04  0.23973549322E+04  0.10100000000E+00 0. -1.
     200001    2    1    2    0    0 -0.47082918080E+02 -0.67620772252E+02  0.34452688375E+02  0.70567599194E+03  0.70000160560E+03 0.  0.
    5000001    2    3    3    0    0 -0.76087371559E+02  0.70059079396E-01 -0.28189795708E+02  0.19641438158E+03  0.17887048860E+03 0.  0.
        -11    1    4    4    0    0  0.29943126291E+02  0.60136820480E+02  0.24633440334E+01  0.67224222224E+02  0.51100000000E-03 0. -1.
     200002    1    4    4    0    0 -0.10603049785E+03 -0.60066761401E+02 -0.30653139742E+02  0.12919015936E+03  0.30000000000E+02 0.  1.
     200000    1    3    3    0    0  0.29004453479E+02 -0.67690831331E+02  0.62642484084E+02  0.50926161035E+03  0.50000000000E+03 0.  1.
    -200001    1    1    2    0    0  0.47082918080E+02  0.67620772252E+02 -0.20015042908E+04  0.21219822799E+04  0.70000000000E+03 0. -1.
<mgrwt>
<rscale>  0 0.20313442E+04</rscale>
<asrwt>0</asrwt>
<pdfrwt beam="1">  1        3 0.61471906E-01 0.20313442E+04</pdfrwt>
<pdfrwt beam="2">  1       -3 0.34247927E+00 0.20313442E+04</pdfrwt>
<totfact> 0.13881078E-01</totfact>
</mgrwt>
</event>
<event>
 8    1  0.1649749E-011  0.1733008E+04  0.7818608E-02  0.8742760E-01
         -3   -1    0    0    0  501 -0.00000000000E+00  0.00000000000E+00  0.73174966301E+03  0.73174966998E+03  0.10100000000E+00 0.  1.
          3   -1    0    0  501    0  0.00000000000E+00 -0.00000000000E+00 -0.10260734241E+04  0.10260734290E+04  0.10100000000E+00 0. -1.
     200001    2    1    2    0    0  0.26312307834E+03  0.42932913694E+03 -0.56819281089E+02  0.86341511595E+03  0.69907079010E+03 0.  0.
    5000001    2    3    3    0    0 -0.25379248035E+02  0.16510017209E+03  0.68740343265E+02  0.21625535403E+03  0.11890740220E+03 0.  0.
        -11    1    4    4    0    0 -0.20412330531E+01  0.16624384416E+03  0.63029518573E+02  0.17780298807E+03  0.51100000000E-03 0. -1.
     200002    1    4    4    0    0 -0.23338014982E+02 -0.11436720720E+01  0.57108246919E+01  0.38452365958E+02  0.30000000000E+02 0. -1.
     200000    1    3    3    0    0  0.28850232638E+03  0.26422896485E+03 -0.12555962435E+03  0.64715976193E+03  0.50000000000E+03 0.  1.
    -200001    1    1    2    0    0 -0.26312307834E+03 -0.42932913694E+03 -0.23750447997E+03  0.89440798307E+03  0.70000000000E+03 0. -1.
<mgrwt>
<rscale>  0 0.17330077E+04</rscale>
<asrwt>0</asrwt>
<pdfrwt beam="1">  1        3 0.14658192E+00 0.17330077E+04</pdfrwt>
<pdfrwt beam="2">  1       -3 0.10453567E+00 0.17330077E+04</pdfrwt>
<totfact> 0.67573980E-01</totfact>
</mgrwt>
</event>
<event>
 8    1  0.1649749E-011  0.1972251E+04  0.7818608E-02  0.8619705E-01
         -3   -1    0    0    0  501 -0.00000000000E+00  0.00000000000E+00  0.65541144406E+03  0.65541145184E+03  0.10100000000E+00 0.  1.
          3   -1    0    0  501    0  0.00000000000E+00 -0.00000000000E+00 -0.14837152254E+04  0.14837152288E+04  0.10100000000E+00 0. -1.
     200001    2    1    2    0    0 -0.22825890325E+03  0.57747086497E+03 -0.75205798657E+03  0.12003039349E+04  0.69968821208E+03 0.  0.
    5000001    2    3    3    0    0 -0.11020656522E+03  0.25312714225E+03 -0.18347119949E+03  0.36818246573E+03  0.16024297135E+03 0.  0.
        -11    1    4    4    0    0 -0.13325089371E+03  0.17977818503E+03 -0.17715477361E+03  0.28541165060E+03  0.51100000000E-03 0. -1.
     200002    1    4    4    0    0  0.23044328483E+02  0.73348957223E+02 -0.63164258740E+01  0.82770815126E+02  0.30000000000E+02 0. -1.
     200000    1    3    3    0    0 -0.11805233803E+03  0.32434372272E+03 -0.56858678709E+03  0.83212146916E+03  0.50000000000E+03 0. -1.
    -200001    1    1    2    0    0  0.22825890325E+03 -0.57747086497E+03 -0.76245794766E+02  0.93882274580E+03  0.70000000000E+03 0.  1.
<mgrwt>
<rscale>  0 0.19722515E+04</rscale>
<asrwt>0</asrwt>
<pdfrwt beam="1">  1        3 0.21195932E+00 0.19722515E+04</pdfrwt>
<pdfrwt beam="2">  1       -3 0.93630208E-01 0.19722515E+04</pdfrwt>
<totfact> 0.30979977E-01</totfact>
</mgrwt>
</event>
<event>
 8    1  0.1649749E-011  0.1791504E+04  0.7818608E-02  0.8710831E-01
         -3   -1    0    0    0  501 -0.00000000000E+00  0.00000000000E+00  0.10550222528E+04  0.10550222576E+04  0.10100000000E+00 0. -1.
          3   -1    0    0  501    0  0.00000000000E+00 -0.00000000000E+00 -0.76052561891E+03  0.76052562562E+03  0.10100000000E+00 0.  1.
     200001    2    1    2    0    0 -0.12374547275E+03  0.33489903406E+03 -0.28816287548E+03  0.83730332849E+03  0.70040610795E+03 0.  0.
    5000001    2    3    3    0    0 -0.88167983485E+02  0.80072690527E+02 -0.18128648534E+03  0.26491815584E+03  0.15209079673E+03 0.  0.
        -11    1    4    4    0    0 -0.74511793735E+02 -0.85015480665E+01 -0.19399974489E+02  0.77463815653E+02  0.51100000000E-03 0. -1.
     200002    1    4    4    0    0 -0.13656189750E+02  0.88574238593E+02 -0.16188651085E+03  0.18745434019E+03  0.30000000000E+02 0. -1.
     200000    1    3    3    0    0 -0.35577489264E+02  0.25482634353E+03 -0.10687639014E+03  0.57238517265E+03  0.50000000000E+03 0.  1.
    -200001    1    1    2    0    0  0.12374547275E+03 -0.33489903406E+03  0.58265950934E+03  0.97824455473E+03  0.70000000000E+03 0. -1.
<mgrwt>
<rscale>  0 0.17915038E+04</rscale>
<asrwt>0</asrwt>
<pdfrwt beam="1">  1        3 0.10864652E+00 0.17915038E+04</pdfrwt>
<pdfrwt beam="2">  1       -3 0.15071746E+00 0.17915038E+04</pdfrwt>
<totfact> 0.57014285E-01</totfact>
</mgrwt>
</event>
<event>
 8    1  0.1649749E-011  0.1939036E+04  0.7818608E-02  0.8635666E-01
          3   -1    0    0  501    0  0.00000000000E+00  0.00000000000E+00  0.44062989095E+03  0.44062990253E+03  0.10100000000E+00 0. -1.
         -3   -1    0    0    0  501 -0.00000000000E+00 -0.00000000000E+00 -0.21332297825E+04  0.21332297849E+04  0.10100000000E+00 0.  1.
     200001    2    1    2    0    0 -0.74395599718E+02 -0.63126025190E+03 -0.56174860317E+03  0.10998010565E+04  0.69998332830E+03 0.  0.
    5000001    2    3    3    0    0 -0.28009143265E+02 -0.73435153284E+02 -0.13823465897E+03  0.23800954757E+03  0.17709457910E+03 0.  0.
        -11    1    4    4    0    0  0.15605471435E+02  0.80234535124E+01 -0.13975235875E+03  0.14084966567E+03  0.51100000000E-03 0. -1.
     200002    1    4    4    0    0 -0.43614614700E+02 -0.81458606796E+02  0.15176997765E+01  0.97159881892E+02  0.30000000000E+02 0. -1.
     200000    1    3    3    0    0 -0.46386456453E+02 -0.55782509862E+03 -0.42351394420E+03  0.86179150897E+03  0.50000000000E+03 0. -1.
    -200001    1    1    2    0    0  0.74395599718E+02  0.63126025190E+03 -0.11308512884E+04  0.14740586309E+04  0.70000000000E+03 0.  1.
<mgrwt>
<rscale>  0 0.19390357E+04</rscale>
<asrwt>0</asrwt>
<pdfrwt beam="1">  1        3 0.62947129E-01 0.19390357E+04</pdfrwt>
<pdfrwt beam="2">  1       -3 0.30474711E+00 0.19390357E+04</pdfrwt>
<totfact> 0.21572459E-01</totfact>
</mgrwt>
</event>
<event>
 8    1  0.1649749E-011  0.1674010E+04  0.7818608E-02  0.8776328E-01
         -3   -1    0    0    0  501 -0.00000000000E+00  0.00000000000E+00  0.42650555194E+03  0.42650556390E+03  0.10100000000E+00 0.  1.
          3   -1    0    0  501    0  0.00000000000E+00 -0.00000000000E+00 -0.16425975761E+04  0.16425975792E+04  0.10100000000E+00 0. -1.
     200001    2    1    2    0    0  0.37764792065E+03  0.24438827030E+03 -0.71967249972E+03  0.11001986468E+04  0.70011783083E+03 0.  0.
    5000001    2    3    3    0    0  0.15516564697E+03  0.11056057987E+03 -0.35975657663E+03  0.43165718626E+03  0.14353784241E+03 0.  0.
        -11    1    4    4    0    0  0.87378769330E+02  0.12634927910E+03 -0.18041016252E+03  0.23695361656E+03  0.51100000000E-03 0. -1.
     200002    1    4    4    0    0  0.67786877644E+02 -0.15788699221E+02 -0.17934641411E+03  0.19470356971E+03  0.30000000000E+02 0. -1.
     200000    1    3    3    0    0  0.22248227368E+03  0.13382769042E+03 -0.35991592309E+03  0.66854146058E+03  0.50000000000E+03 0.  1.
    -200001    1    1    2    0    0 -0.37764792065E+03 -0.24438827030E+03 -0.49641952446E+03  0.96890449627E+03  0.70000000000E+03 0. -1.
<mgrwt>
<rscale>  0 0.16740096E+04</rscale>
<asrwt>0</asrwt>
<pdfrwt beam="1">  1        3 0.23465679E+00 0.16740096E+04</pdfrwt>
<pdfrwt beam="2">  1       -3 0.60929367E-01 0.16740096E+04</pdfrwt>
<totfact> 0.59910885E-01</totfact>
</mgrwt>
</event>
<event>
 8    1  0.1649749E-011  0.1867588E+04  0.7818608E-02  0.8671160E-01
          3   -1    0    0  501    0  0.00000000000E+00  0.00000000000E+00  0.75582938736E+03  0.75582939411E+03  0.10100000000E+00 0.  1.
         -3   -1    0    0    0  501 -0.00000000000E+00 -0.00000000000E+00 -0.11536619871E+04  0.11536619915E+04  0.10100000000E+00 0. -1.
     200001    2    1    2    0    0 -0.54536314794E+03 -0.15304944061E+03 -0.45160671979E+03  0.10074178019E+04  0.70006921359E+03 0.  0.
    5000001    2    3    3    0    0 -0.71843099435E+02  0.39333379991E+01 -0.81992129798E+02  0.21024794907E+03  0.17973477309E+03 0.  0.
        -11    1    4    4    0    0 -0.66952121567E+02  0.68772586175E+02 -0.97675008596E+02  0.13694036109E+03  0.51100000000E-03 0. -1.
     200002    1    4    4    0    0 -0.48909778687E+01 -0.64839248176E+02  0.15682878798E+02  0.73307587983E+02  0.30000000000E+02 0. -1.
     200000    1    3    3    0    0 -0.47352004851E+03 -0.15698277861E+03 -0.36961458999E+03  0.79716985282E+03  0.50000000000E+03 0. -1.
    -200001    1    1    2    0    0  0.54536314794E+03  0.15304944061E+03  0.53774120086E+02  0.90207358369E+03  0.70000000000E+03 0.  1.
<mgrwt>
<rscale>  0 0.18675884E+04</rscale>
<asrwt>0</asrwt>
<pdfrwt beam="1">  1        3 0.10797563E+00 0.18675884E+04</pdfrwt>
<pdfrwt beam="2">  1       -3 0.16480886E+00 0.18675884E+04</pdfrwt>
<totfact> 0.45398996E-01</totfact>
</mgrwt>
</event>
<event>
 8    1  0.1649749E-011  0.1515280E+04  0.7818608E-02  0.8874355E-01
          3   -1    0    0  501    0  0.00000000000E+00  0.00000000000E+00  0.14108137534E+04  0.14108137570E+04  0.10100000000E+00 0. -1.
         -3   -1    0    0    0  501 -0.00000000000E+00 -0.00000000000E+00 -0.40687063774E+03  0.40687065028E+03  0.10100000000E+00 0.  1.
     200001    2    1    2    0    0  0.17622777813E+03  0.46294095152E+02  0.77208233474E+03  0.10581063700E+04  0.70019896140E+03 0.  0.
    5000001    2    3    3    0    0  0.13727398429E+02 -0.54981413385E+02  0.43183742838E+02  0.15369702720E+03  0.13618569396E+03 0.  0.
        -11    1    4    4    0    0  0.46958053744E+02 -0.27584093025E+02 -0.31120074324E+02  0.62724795939E+02  0.51100000000E-03 0. -1.
     200002    1    4    4    0    0 -0.33230655316E+02 -0.27397320361E+02  0.74303817162E+02  0.90972231260E+02  0.30000000000E+02 0. -1.
     200000    1    3    3    0    0  0.16250037970E+03  0.10127550854E+03  0.72889859191E+03  0.90440934278E+03  0.50000000000E+03 0. -1.
    -200001    1    1    2    0    0 -0.17622777813E+03 -0.46294095152E+02  0.23186078091E+03  0.75957803730E+03  0.70000000000E+03 0.  1.
<mgrwt>
<rscale>  0 0.15152804E+04</rscale>
<asrwt>0</asrwt>
<pdfrwt beam="1">  1        3 0.20154482E+00 0.15152804E+04</pdfrwt>
<pdfrwt beam="2">  1       -3 0.58124378E-01 0.15152804E+04</pdfrwt>
<totfact> 0.10632002E+00</totfact>
</mgrwt>
</event>
<event>
 8    1  0.1649749E-011  0.1489374E+04  0.7818608E-02  0.8891550E-01
          3   -1    0    0  501    0  0.00000000000E+00  0.00000000000E+00  0.14123303957E+04  0.14123303993E+04  0.10100000000E+00 0.  1.
         -3   -1    0    0    0  501 -0.00000000000E+00 -0.00000000000E+00 -0.39265528256E+03  0.39265529555E+03  0.10100000000E+00 0. -1.
     200001    2    1    2    0    0  0.79548751341E+02 -0.22768894624E+03  0.60133171099E+03  0.95458492924E+03  0.70104372218E+03 0.  0.
    5000001    2    3    3    0    0  0.96205608137E+01 -0.15657584627E+02  0.18045201410E+03  0.26394249686E+03  0.19174200665E+03 0.  0.
        -11    1    4    4    0    0  0.34058689542E+02 -0.58678026565E+02 -0.65801507550E+01  0.68164532707E+02  0.51100000000E-03 0. -1.
     200002    1    4    4    0    0 -0.24438128728E+02  0.43020441938E+02  0.18703216485E+03  0.19577796416E+03  0.30000000000E+02 0. -1.
     200000    1    3    3    0    0  0.69928190527E+02 -0.21203136161E+03  0.42087969689E+03  0.69064243237E+03  0.50000000000E+03 0. -1.
    -200001    1    1    2    0    0 -0.79548751341E+02  0.22768894624E+03  0.41834340219E+03  0.85040076566E+03  0.70000000000E+03 0. -1.
<mgrwt>
<rscale>  0 0.14893744E+04</rscale>
<asrwt>0</asrwt>
<pdfrwt beam="1">  1        3 0.20176149E+00 0.14893744E+04</pdfrwt>
<pdfrwt beam="2">  1       -3 0.56093612E-01 0.14893744E+04</pdfrwt>
<totfact> 0.11440964E+00</totfact>
</mgrwt>
</event>
<event>
 8    1  0.1649749E-011  0.1567476E+04  0.7818608E-02  0.8840782E-01
         -3   -1    0    0    0  501 -0.00000000000E+00  0.00000000000E+00  0.14215481303E+04  0.14215481338E+04  0.10100000000E+00 0. -1.
          3   -1    0    0  501    0  0.00000000000E+00 -0.00000000000E+00 -0.43209573291E+03  0.43209574472E+03  0.10100000000E+00 0.  1.
     200001    2    1    2    0    0  0.22111901000E+03  0.17955418249E+03  0.74130095543E+03  0.10582116318E+04  0.69939361605E+03 0.  0.
    5000001    2    3    3    0    0  0.50749909009E+02  0.45588147535E+02  0.42320304617E+02  0.17190103203E+03  0.15200369788E+03 0.  0.
        -11    1    4    4    0    0  0.43090506243E+02  0.29229902566E+02 -0.50597495617E+02  0.72603619023E+02  0.51100000000E-03 0. -1.
     200002    1    4    4    0    0  0.76594027662E+01  0.16358244969E+02  0.92917800233E+02  0.99297413005E+02  0.30000000000E+02 0.  1.
     200000    1    3    3    0    0  0.17036910099E+03  0.13396603496E+03  0.69898065081E+03  0.88631059979E+03  0.50000000000E+03 0. -1.
    -200001    1    1    2    0    0 -0.22111901000E+03 -0.17955418249E+03  0.24815144191E+03  0.79543224674E+03  0.70000000000E+03 0. -1.
<mgrwt>
<rscale>  0 0.15674755E+04</rscale>
<asrwt>0</asrwt>
<pdfrwt beam="1">  1        3 0.61727963E-01 0.15674755E+04</pdfrwt>
<pdfrwt beam="2">  1       -3 0.20307830E+00 0.15674755E+04</pdfrwt>
<totfact> 0.90646790E-01</totfact>
</mgrwt>
</event>
<event>
 8    1  0.1649749E-011  0.1839481E+04  0.7818608E-02  0.8685581E-01
         -3   -1    0    0    0  501 -0.00000000000E+00  0.00000000000E+00  0.81797112080E+03  0.81797112704E+03  0.10100000000E+00 0. -1.
          3   -1    0    0  501    0  0.00000000000E+00 -0.00000000000E+00 -0.10341718737E+04  0.10341718786E+04  0.10100000000E+00 0.  1.
     200001    2    1    2    0    0  0.45552226371E+03  0.11613505698E+03 -0.47760607715E+03  0.96935162163E+03  0.70039068899E+03 0.  0.
    5000001    2    3    3    0    0  0.13602613590E+03 -0.41664546896E+02 -0.19471186118E+03  0.29332822847E+03  0.16700208566E+03 0.  0.
        -11    1    4    4    0    0 -0.28727779807E+02  0.94841086143E+01  0.15715261721E+01  0.30293618860E+02  0.51100000000E-03 0. -1.
     200002    1    4    4    0    0  0.16475391571E+03 -0.51148655510E+02 -0.19628338735E+03  0.26303460961E+03  0.30000000000E+02 0. -1.
     200000    1    3    3    0    0  0.31949612781E+03  0.15779960388E+03 -0.28289421597E+03  0.67602339316E+03  0.50000000000E+03 0. -1.
    -200001    1    1    2    0    0 -0.45552226371E+03 -0.11613505698E+03  0.26140532425E+03  0.88279138405E+03  0.70000000000E+03 0. -1.
<mgrwt>
<rscale>  0 0.18394812E+04</rscale>
<asrwt>0</asrwt>
<pdfrwt beam="1">  1        3 0.14773884E+00 0.18394812E+04</pdfrwt>
<pdfrwt beam="2">  1       -3 0.11685302E+00 0.18394812E+04</pdfrwt>
<totfact> 0.50313690E-01</totfact>
</mgrwt>
</event>
<event>
 8    1  0.1649749E-011  0.1945051E+04  0.7818608E-02  0.8632751E-01
          3   -1    0    0  501    0  0.00000000000E+00  0.00000000000E+00  0.18028554184E+04  0.18028554212E+04  0.10100000000E+00 0.  1.
         -3   -1    0    0    0  501 -0.00000000000E+00 -0.00000000000E+00 -0.52461571245E+03  0.52461572217E+03  0.10100000000E+00 0. -1.
     200001    2    1    2    0    0  0.58469804170E+03 -0.33756891767E+03  0.63197544946E+03  0.11597887965E+04  0.69992321687E+03 0.  0.
    5000001    2    3    3    0    0  0.33721121505E+02 -0.90411186268E+02  0.13057058330E+03  0.22916032570E+03  0.16172347081E+03 0.  0.
        -11    1    4    4    0    0 -0.44946883011E+02 -0.86296564665E+02  0.39350465700E+02  0.10495607899E+03  0.51100000000E-03 0. -1.
     200002    1    4    4    0    0  0.78668004516E+02 -0.41146216027E+01  0.91220117599E+02  0.12420424671E+03  0.30000000000E+02 0. -1.
     200000    1    3    3    0    0  0.55097692019E+03 -0.24715773141E+03  0.50140486616E+03  0.93062847076E+03  0.50000000000E+03 0. -1.
    -200001    1    1    2    0    0 -0.58469804170E+03  0.33756891767E+03  0.64626425649E+03  0.11676823469E+04  0.70000000000E+03 0.  1.
<mgrwt>
<rscale>  0 0.19450515E+04</rscale>
<asrwt>0</asrwt>
<pdfrwt beam="1">  1        3 0.25755078E+00 0.19450515E+04</pdfrwt>
<pdfrwt beam="2">  1       -3 0.74945101E-01 0.19450515E+04</pdfrwt>
<totfact> 0.27620092E-01</totfact>
</mgrwt>
</event>
<event>
 8    1  0.1649749E-011  0.2401556E+04  0.7818608E-02  0.8438921E-01
          3   -1    0    0  501    0  0.00000000000E+00  0.00000000000E+00  0.71412864423E+03  0.71412865138E+03  0.10100000000E+00 0.  1.
         -3   -1    0    0    0  501 -0.00000000000E+00 -0.00000000000E+00 -0.20190596045E+04  0.20190596070E+04  0.10100000000E+00 0. -1.
     200001    2    1    2    0    0 -0.21245624867E+03  0.30478724658E+03 -0.16792037853E+04  0.18567676568E+04  0.69987702870E+03 0.  0.
    5000001    2    3    3    0    0 -0.95785853252E+02  0.13544523563E+03 -0.49210359134E+03  0.55235377752E+03  0.18817122359E+03 0.  0.
        -11    1    4    4    0    0 -0.10674009878E+03 -0.31754930352E+01 -0.17867578550E+03  0.20815515551E+03  0.51100000000E-03 0. -1.
     200002    1    4    4    0    0  0.10954245530E+02  0.13862072867E+03 -0.31342780585E+03  0.34419862200E+03  0.30000000000E+02 0. -1.
     200000    1    3    3    0    0 -0.11667039541E+03  0.16934201095E+03 -0.11871001940E+04  0.13044138793E+04  0.50000000000E+03 0. -1.
    -200001    1    1    2    0    0  0.21245624867E+03 -0.30478724658E+03  0.37427282510E+03  0.87642060159E+03  0.70000000000E+03 0.  1.
<mgrwt>
<rscale>  0 0.24015564E+04</rscale>
<asrwt>0</asrwt>
<pdfrwt beam="1">  1        3 0.10201838E+00 0.24015564E+04</pdfrwt>
<pdfrwt beam="2">  1       -3 0.28843708E+00 0.24015564E+04</pdfrwt>
<totfact> 0.87082634E-02</totfact>
</mgrwt>
</event>
<event>
 8    1  0.1649749E-011  0.1856863E+04  0.7818608E-02  0.8676631E-01
          3   -1    0    0  501    0  0.00000000000E+00  0.00000000000E+00  0.45689766144E+03  0.45689767260E+03  0.10100000000E+00 0. -1.
         -3   -1    0    0    0  501 -0.00000000000E+00 -0.00000000000E+00 -0.18866049932E+04  0.18866049959E+04  0.10100000000E+00 0.  1.
     200001    2    1    2    0    0  0.74688616452E+02 -0.46653163727E+03 -0.12021916717E+04  0.14688635809E+04  0.69933199975E+03 0.  0.
    5000001    2    3    3    0    0  0.60282248997E+02 -0.42199403493E+02 -0.11815925646E+03  0.20182306645E+03  0.14613761002E+03 0.  0.
        -11    1    4    4    0    0  0.68746601532E+02  0.34407080976E+02 -0.79289414552E+02  0.11043891390E+03  0.51100000000E-03 0. -1.
     200002    1    4    4    0    0 -0.84643525348E+01 -0.76606484469E+02 -0.38869841905E+02  0.91384152544E+02  0.30000000000E+02 0. -1.
     200000    1    3    3    0    0  0.14406367455E+02 -0.42433223378E+03 -0.10840324152E+04  0.12670405145E+04  0.50000000000E+03 0.  1.
    -200001    1    1    2    0    0 -0.74688616452E+02  0.46653163727E+03 -0.22751566011E+03  0.87463908762E+03  0.70000000000E+03 0. -1.
<mgrwt>
<rscale>  0 0.18568634E+04</rscale>
<asrwt>0</asrwt>
<pdfrwt beam="1">  1        3 0.65271097E-01 0.18568634E+04</pdfrwt>
<pdfrwt beam="2">  1       -3 0.26951500E+00 0.18568634E+04</pdfrwt>
<totfact> 0.31742355E-01</totfact>
</mgrwt>
</event>
<event>
 8    1  0.1649749E-011  0.1880039E+04  0.7818608E-02  0.8664856E-01
         -3   -1    0    0    0  501 -0.00000000000E+00  0.00000000000E+00  0.32695209804E+03  0.32695211364E+03  0.10100000000E+00 0. -1.
          3   -1    0    0  501    0  0.00000000000E+00 -0.00000000000E+00 -0.27026500188E+04  0.27026500206E+04  0.10100000000E+00 0.  1.
     200001    2    1    2    0    0 -0.48398936084E+03 -0.22698546690E+03 -0.17166596619E+04  0.19295568942E+04  0.70035798680E+03 0.  0.
    5000001    2    3    3    0    0 -0.17802012908E+03 -0.10764278919E+03 -0.51957647692E+03  0.59132373170E+03  0.19085571484E+03 0.  0.
        -11    1    4    4    0    0 -0.75034394191E+02 -0.12359596893E+03 -0.41964372288E+03  0.44385468118E+03  0.51100000000E-03 0. -1.
     200002    1    4    4    0    0 -0.10298573489E+03  0.15953179737E+02 -0.99932754032E+02  0.14746905053E+03  0.30000000000E+02 0. -1.
     200000    1    3    3    0    0 -0.30596923176E+03 -0.11934267771E+03 -0.11970831850E+04  0.13382331625E+04  0.50000000000E+03 0.  1.
    -200001    1    1    2    0    0  0.48398936084E+03  0.22698546690E+03 -0.65903825883E+03  0.11000452401E+04  0.70000000000E+03 0. -1.
<mgrwt>
<rscale>  0 0.18800395E+04</rscale>
<asrwt>0</asrwt>
<pdfrwt beam="1">  1        3 0.38609285E+00 0.18800395E+04</pdfrwt>
<pdfrwt beam="2">  1       -3 0.46707446E-01 0.18800395E+04</pdfrwt>
<totfact> 0.14901723E-01</totfact>
</mgrwt>
</event>
<event>
 8    1  0.1649749E-011  0.1536580E+04  0.7818608E-02  0.8860486E-01
         -3   -1    0    0    0  501 -0.00000000000E+00  0.00000000000E+00  0.96009030708E+03  0.96009031239E+03  0.10100000000E+00 0. -1.
          3   -1    0    0  501    0  0.00000000000E+00 -0.00000000000E+00 -0.61480623782E+03  0.61480624612E+03  0.10100000000E+00 0.  1.
     200001    2    1    2    0    0  0.13585134954E+03  0.15756562888E+03 -0.71039773246E+02  0.73429673790E+03  0.70061582435E+03 0.  0.
    5000001    2    3    3    0    0  0.34067009493E+02 -0.16340095360E+01 -0.82116326167E+02  0.19966858041E+03  0.17877701155E+03 0.  0.
        -11    1    4    4    0    0 -0.37970875159E+01  0.48918945759E+02  0.37063078501E+02  0.61491079971E+02  0.51100000000E-03 0. -1.
     200002    1    4    4    0    0  0.37864097009E+02 -0.50552955295E+02 -0.11917940467E+03  0.13817750044E+03  0.30000000000E+02 0. -1.
     200000    1    3    3    0    0  0.10178434005E+03  0.15919963841E+03  0.11076552921E+02  0.53462815748E+03  0.50000000000E+03 0.  1.
    -200001    1    1    2    0    0 -0.13585134954E+03 -0.15756562888E+03  0.41632384250E+03  0.84059982061E+03  0.70000000000E+03 0. -1.
<mgrwt>
<rscale>  0 0.15365800E+04</rscale>
<asrwt>0</asrwt>
<pdfrwt beam="1">  1        3 0.87829463E-01 0.15365800E+04</pdfrwt>
<pdfrwt beam="2">  1       -3 0.13715576E+00 0.15365800E+04</pdfrwt>
<totfact> 0.12148059E+00</totfact>
</mgrwt>
</event>
<event>
 8    1  0.1649749E-011  0.1869034E+04  0.7818608E-02  0.8670426E-01
          3   -1    0    0  501    0  0.00000000000E+00  0.00000000000E+00  0.20672157224E+04  0.20672157248E+04  0.10100000000E+00 0.  1.
         -3   -1    0    0    0  501 -0.00000000000E+00 -0.00000000000E+00 -0.42246292669E+03  0.42246293876E+03  0.10100000000E+00 0. -1.
     200001    2    1    2    0    0 -0.43441308569E+03  0.20069396784E+03  0.29989941398E+03  0.89982853983E+03  0.70054189371E+03 0.  0.
    5000001    2    3    3    0    0 -0.12502637940E+03  0.18314213564E+02  0.60396766791E+02  0.23926512364E+03  0.19399232971E+03 0.  0.
        -11    1    4    4    0    0 -0.28553610947E+02  0.57954181524E+02 -0.52066905154E+02  0.82975649843E+02  0.51100000000E-03 0. -1.
     200002    1    4    4    0    0 -0.96472768456E+02 -0.39639967960E+02  0.11246367194E+03  0.15628947380E+03  0.30000000000E+02 0. -1.
     200000    1    3    3    0    0 -0.30938670629E+03  0.18237975428E+03  0.23950264719E+03  0.66056341619E+03  0.50000000000E+03 0.  1.
    -200001    1    1    2    0    0  0.43441308569E+03 -0.20069396784E+03  0.13448533817E+04  0.15898501238E+04  0.70000000000E+03 0.  1.
<mgrwt>
<rscale>  0 0.18690340E+04</rscale>
<asrwt>0</asrwt>
<pdfrwt beam="1">  1        3 0.29531654E+00 0.18690340E+04</pdfrwt>
<pdfrwt beam="2">  1       -3 0.60351847E-01 0.18690340E+04</pdfrwt>
<totfact> 0.27254319E-01</totfact>
</mgrwt>
</event>
<event>
 8    1  0.1649749E-011  0.1622343E+04  0.7818608E-02  0.8806939E-01
         -3   -1    0    0    0  501 -0.00000000000E+00  0.00000000000E+00  0.67655905432E+03  0.67655906186E+03  0.10100000000E+00 0. -1.
          3   -1    0    0  501    0  0.00000000000E+00 -0.00000000000E+00 -0.97256672507E+03  0.97256673031E+03  0.10100000000E+00 0.  1.
     200001    2    1    2    0    0  0.39011495634E+03  0.89441906792E+02 -0.61603092095E+02  0.80940259948E+03  0.70081958680E+03 0.  0.
    5000001    2    3    3    0    0  0.56107928573E+02 -0.20429300861E+02 -0.58907238933E+02  0.19814189856E+03  0.17951237613E+03 0.  0.
        -11    1    4    4    0    0  0.98886531776E+02 -0.11901999848E+02  0.21477890234E+02  0.10188966354E+03  0.51100000000E-03 0. -1.
     200002    1    4    4    0    0 -0.42778603203E+02 -0.85273010125E+01 -0.80385129167E+02  0.96252235017E+02  0.30000000000E+02 0. -1.
     200000    1    3    3    0    0  0.33400702776E+03  0.10987120765E+03 -0.26958531615E+01  0.61126070092E+03  0.50000000000E+03 0. -1.
    -200001    1    1    2    0    0 -0.39011495634E+03 -0.89441906792E+02 -0.23440457865E+03  0.83972319269E+03  0.70000000000E+03 0.  1.
<mgrwt>
<rscale>  0 0.16223425E+04</rscale>
<asrwt>0</asrwt>
<pdfrwt beam="1">  1        3 0.13893810E+00 0.16223425E+04</pdfrwt>
<pdfrwt beam="2">  1       -3 0.96651295E-01 0.16223425E+04</pdfrwt>
<totfact> 0.93941239E-01</totfact>
</mgrwt>
</event>
<event>
 8    1  0.1649749E-011  0.1523210E+04  0.7818608E-02  0.8869163E-01
         -3   -1    0    0    0  501 -0.00000000000E+00  0.00000000000E+00  0.14807371042E+04  0.14807371077E+04  0.10100000000E+00 0. -1.
          3   -1    0    0  501    0  0.00000000000E+00 -0.00000000000E+00 -0.39172541682E+03  0.39172542984E+03  0.10100000000E+00 0.  1.
     200001    2    1    2    0    0  0.72203777423E+02  0.14280146207E+03  0.85264969120E+03  0.11165044459E+04  0.70282646418E+03 0.  0.
    5000001    2    3    3    0    0 -0.46214719434E+02  0.59162927598E+01  0.18645079380E+03  0.26410696767E+03  0.18115680791E+03 0.  0.
        -11    1    4    4    0    0  0.38514277166E+02 -0.59835921301E+02  0.45470562570E+02  0.84446782558E+02  0.51100000000E-03 0. -1.
     200002    1    4    4    0    0 -0.84728996600E+02  0.65752214061E+02  0.14098023123E+03  0.17966018512E+03  0.30000000000E+02 0. -1.
     200000    1    3    3    0    0  0.11841849686E+03  0.13688516931E+03  0.66619889740E+03  0.85239747822E+03  0.50000000000E+03 0. -1.
    -200001    1    1    2    0    0 -0.72203777423E+02 -0.14280146207E+03  0.23636199622E+03  0.75595809163E+03  0.70000000000E+03 0. -1.
<mgrwt>
<rscale>  0 0.15232103E+04</rscale>
<asrwt>0</asrwt>
<pdfrwt beam="1">  1        3 0.55960775E-01 0.15232103E+04</pdfrwt>
<pdfrwt beam="2">  1       -3 0.21153387E+00 0.15232103E+04</pdfrwt>
<totfact> 0.99060877E-01</totfact>
</mgrwt>
</event>
<event>
 8    1  0.1649749E-011  0.1479041E+04  0.7818608E-02  0.8898511E-01
         -3   -1    0    0    0  501 -0.00000000000E+00  0.00000000000E+00  0.13212528478E+04  0.13212528517E+04  0.10100000000E+00 0. -1.
          3   -1    0    0  501    0  0.00000000000E+00 -0.00000000000E+00 -0.41391842309E+03  0.41391843541E+03  0.10100000000E+00 0.  1.
     200001    2    1    2    0    0 -0.20161125833E+03  0.22794900474E+02  0.60180857355E+03  0.94491009438E+03  0.69965335723E+03 0.  0.
    5000001    2    3    3    0    0 -0.30133090949E+02  0.46473647537E+02  0.42583712140E+02  0.17504134545E+03  0.16049391575E+03 0.  0.
        -11    1    4    4    0    0  0.40930955305E+02  0.51983199445E+02 -0.26568908659E+02  0.71298688868E+02  0.51100000000E-03 0. -1.
     200002    1    4    4    0    0 -0.71064046254E+02 -0.55095519077E+01  0.69152620799E+02  0.10374265659E+03  0.30000000000E+02 0. -1.
     200000    1    3    3    0    0 -0.17147816738E+03 -0.23678747064E+02  0.55922486141E+03  0.76986874892E+03  0.50000000000E+03 0. -1.
    -200001    1    1    2    0    0  0.20161125833E+03 -0.22794900474E+02  0.30552585119E+03  0.79026119272E+03  0.70000000000E+03 0.  1.
<mgrwt>
<rscale>  0 0.14790415E+04</rscale>
<asrwt>0</asrwt>
<pdfrwt beam="1">  1        3 0.59131204E-01 0.14790415E+04</pdfrwt>
<pdfrwt beam="2">  1       -3 0.18875041E+00 0.14790415E+04</pdfrwt>
<totfact> 0.12344814E+00</totfact>
</mgrwt>
</event>
<event>
 8    1  0.1649749E-011  0.1687042E+04  0.7818608E-02  0.8768790E-01
          3   -1    0    0  501    0  0.00000000000E+00  0.00000000000E+00  0.73348361390E+03  0.73348362085E+03  0.10100000000E+00 0.  1.
         -3   -1    0    0    0  501 -0.00000000000E+00 -0.00000000000E+00 -0.97006576733E+03  0.97006577259E+03  0.10100000000E+00 0. -1.
     200001    2    1    2    0    0 -0.37075281986E+02 -0.18835705436E+03  0.31552063450E+03  0.79158972059E+03  0.70014859743E+03 0.  0.
    5000001    2    3    3    0    0  0.28888937923E+02 -0.47687587300E+01  0.23135000001E+02  0.18040619670E+03  0.17650454892E+03 0.  0.
        -11    1    4    4    0    0  0.32483836583E+02  0.34207116649E+02  0.87448829844E+02  0.99361080459E+02  0.51100000000E-03 0. -1.
     200002    1    4    4    0    0 -0.35948986600E+01 -0.38975875379E+02 -0.64313829844E+02  0.81045116245E+02  0.30000000000E+02 0. -1.
     200000    1    3    3    0    0 -0.65964219909E+02 -0.18358829563E+03  0.29238563450E+03  0.61118352388E+03  0.50000000000E+03 0.  1.
    -200001    1    1    2    0    0  0.37075281986E+02  0.18835705436E+03 -0.55210278793E+03  0.91195967285E+03  0.70000000000E+03 0. -1.
<mgrwt>
<rscale>  0 0.16870416E+04</rscale>
<asrwt>0</asrwt>
<pdfrwt beam="1">  1        3 0.10478337E+00 0.16870416E+04</pdfrwt>
<pdfrwt beam="2">  1       -3 0.13858082E+00 0.16870416E+04</pdfrwt>
<totfact> 0.77737609E-01</totfact>
</mgrwt>
</event>
<event>
 8    1  0.1649749E-011  0.2051732E+04  0.7818608E-02  0.8582809E-01
         -3   -1    0    0    0  501 -0.00000000000E+00  0.00000000000E+00  0.17557486983E+04  0.17557487012E+04  0.10100000000E+00 0. -1.
          3   -1    0    0  501    0  0.00000000000E+00 -0.00000000000E+00 -0.59940326918E+03  0.59940327769E+03  0.10100000000E+00 0.  1.
     200001    2    1    2    0    0 -0.60825419239E+03 -0.32562371491E+03  0.24018157863E+03  0.10115150610E+04  0.69962244214E+03 0.  0.
    5000001    2    3    3    0    0 -0.11436014115E+03 -0.70530132044E+02  0.14718326001E+03  0.25808772064E+03  0.16399273796E+03 0.  0.
        -11    1    4    4    0    0 -0.79753335597E+02 -0.86408731969E+02  0.16545995352E+02  0.11874693033E+03  0.51100000000E-03 0. -1.
     200002    1    4    4    0    0 -0.34606805556E+02  0.15878599925E+02  0.13063726466E+03  0.13934079031E+03  0.30000000000E+02 0. -1.
     200000    1    3    3    0    0 -0.49389405124E+03 -0.25509358287E+03  0.92998318612E+02  0.75342734031E+03  0.50000000000E+03 0.  1.
    -200001    1    1    2    0    0  0.60825419239E+03  0.32562371491E+03  0.91616385048E+03  0.13436369179E+04  0.70000000000E+03 0. -1.
<mgrwt>
<rscale>  0 0.20517325E+04</rscale>
<asrwt>0</asrwt>
<pdfrwt beam="1">  1        3 0.85629041E-01 0.20517325E+04</pdfrwt>
<pdfrwt beam="2">  1       -3 0.25082124E+00 0.20517325E+04</pdfrwt>
<totfact> 0.22000394E-01</totfact>
</mgrwt>
</event>
<event>
 8    1  0.1649749E-011  0.1552056E+04  0.7818608E-02  0.8850555E-01
          3   -1    0    0  501    0  0.00000000000E+00  0.00000000000E+00  0.48054632581E+03  0.48054633642E+03  0.10100000000E+00 0.  1.
         -3   -1    0    0    0  501 -0.00000000000E+00 -0.00000000000E+00 -0.12531980948E+04  0.12531980988E+04  0.10100000000E+00 0. -1.
     200001    2    1    2    0    0  0.10956552382E+03 -0.31198677913E+03 -0.44316602112E+03  0.89237578099E+03  0.70042705391E+03 0.  0.
    5000001    2    3    3    0    0 -0.61436047367E+02 -0.98017232190E+02 -0.13160396596E+03  0.24268707200E+03  0.16791558992E+03 0.  0.
        -11    1    4    4    0    0 -0.42771808979E+02 -0.13365251316E+03 -0.54186095208E+02  0.15042790576E+03  0.51100000000E-03 0. -1.
     200002    1    4    4    0    0 -0.18664238387E+02  0.35635280967E+02 -0.77417870755E+02  0.92259166246E+02  0.30000000000E+02 0. -1.
     200000    1    3    3    0    0  0.17100157119E+03 -0.21396954694E+03 -0.31156205516E+03  0.64968870898E+03  0.50000000000E+03 0. -1.
    -200001    1    1    2    0    0 -0.10956552382E+03  0.31198677913E+03 -0.32948574784E+03  0.84136865427E+03  0.70000000000E+03 0.  1.
<mgrwt>
<rscale>  0 0.15520564E+04</rscale>
<asrwt>0</asrwt>
<pdfrwt beam="1">  1        3 0.68649477E-01 0.15520564E+04</pdfrwt>
<pdfrwt beam="2">  1       -3 0.17902830E+00 0.15520564E+04</pdfrwt>
<totfact> 0.10354985E+00</totfact>
</mgrwt>
</event>
<event>
 8    1  0.1649749E-011  0.1482255E+04  0.7818608E-02  0.8896340E-01
         -3   -1    0    0    0  501 -0.00000000000E+00  0.00000000000E+00  0.60892524406E+03  0.60892525244E+03  0.10100000000E+00 0. -1.
          3   -1    0    0  501    0  0.00000000000E+00 -0.00000000000E+00 -0.90203140139E+03  0.90203140705E+03  0.10100000000E+00 0.  1.
     200001    2    1    2    0    0 -0.14762847838E+03 -0.18318913212E+03 -0.21625280470E+03  0.76848857023E+03  0.69889697473E+03 0.  0.
    5000001    2    3    3    0    0 -0.61841468980E+02 -0.42142058708E+02 -0.14363737399E+03  0.23695617360E+03  0.17296303825E+03 0.  0.
        -11    1    4    4    0    0 -0.12332449352E+02  0.36776082032E+02 -0.13295947316E+03  0.13850195313E+03  0.51100000000E-03 0. -1.
     200002    1    4    4    0    0 -0.49509019627E+02 -0.78918140740E+02 -0.10677900830E+02  0.98454220471E+02  0.30000000000E+02 0. -1.
     200000    1    3    3    0    0 -0.85787009397E+02 -0.14104707341E+03 -0.72615430709E+02  0.53153239664E+03  0.50000000000E+03 0. -1.
    -200001    1    1    2    0    0  0.14762847838E+03  0.18318913212E+03 -0.76853352633E+02  0.74246808926E+03  0.70000000000E+03 0. -1.
<mgrwt>
<rscale>  0 0.14822546E+04</rscale>
<asrwt>0</asrwt>
<pdfrwt beam="1">  1        3 0.12886163E+00 0.14822546E+04</pdfrwt>
<pdfrwt beam="2">  1       -3 0.86989322E-01 0.14822546E+04</pdfrwt>
<totfact> 0.14594339E+00</totfact>
</mgrwt>
</event>
<event>
 8    1  0.1649749E-011  0.1691812E+04  0.7818608E-02  0.8766048E-01
          3   -1    0    0  501    0  0.00000000000E+00  0.00000000000E+00  0.55377860507E+03  0.55377861428E+03  0.10100000000E+00 0.  1.
         -3   -1    0    0    0  501 -0.00000000000E+00 -0.00000000000E+00 -0.12921355937E+04  0.12921355977E+04  0.10100000000E+00 0. -1.
     200001    2    1    2    0    0 -0.27900712828E+03  0.10153657426E+03 -0.77367468134E+03  0.10847296135E+04  0.69993654589E+03 0.  0.
    5000001    2    3    3    0    0 -0.79383390940E+02 -0.33822942585E+02 -0.23176606396E+03  0.30894821070E+03  0.18516958252E+03 0.  0.
        -11    1    4    4    0    0  0.65563337685E+01  0.44824424224E+02 -0.16554208071E+03  0.17162865439E+03  0.51100000000E-03 0. -1.
     200002    1    4    4    0    0 -0.85939724709E+02 -0.78647366809E+02 -0.66223983246E+02  0.13731955631E+03  0.30000000000E+02 0. -1.
     200000    1    3    3    0    0 -0.19962373734E+03  0.13535951684E+03 -0.54190861738E+03  0.77578140278E+03  0.50000000000E+03 0. -1.
    -200001    1    1    2    0    0  0.27900712828E+03 -0.10153657426E+03  0.35317692671E+02  0.76118459848E+03  0.70000000000E+03 0.  1.
<mgrwt>
<rscale>  0 0.16918121E+04</rscale>
<asrwt>0</asrwt>
<pdfrwt beam="1">  1        3 0.79111230E-01 0.16918121E+04</pdfrwt>
<pdfrwt beam="2">  1       -3 0.18459080E+00 0.16918121E+04</pdfrwt>
<totfact> 0.68899748E-01</totfact>
</mgrwt>
</event>
<event>
 8    1  0.1649749E-011  0.1704195E+04  0.7818608E-02  0.8758975E-01
         -3   -1    0    0    0  501 -0.00000000000E+00  0.00000000000E+00  0.92555258004E+03  0.92555258555E+03  0.10100000000E+00 0. -1.
          3   -1    0    0  501    0  0.00000000000E+00 -0.00000000000E+00 -0.78447250962E+03  0.78447251612E+03  0.10100000000E+00 0.  1.
     200001    2    1    2    0    0 -0.40510371664E+03 -0.26621026263E+03  0.66328548007E+02  0.85529431642E+03  0.70153543478E+03 0.  0.
    5000001    2    3    3    0    0 -0.53386926626E+02 -0.13868527955E+02 -0.19664011189E+02  0.18837920063E+03  0.17904622278E+03 0.  0.
        -11    1    4    4    0    0 -0.10463183971E+03  0.35084497694E+02 -0.97844806571E+01  0.11079025192E+03  0.51100000000E-03 0. -1.
     200002    1    4    4    0    0  0.51244913084E+02 -0.48953025649E+02 -0.98795305318E+01  0.77588948702E+02  0.30000000000E+02 0. -1.
     200000    1    3    3    0    0 -0.35171679001E+03 -0.25234173468E+03  0.85992559196E+02  0.66691511579E+03  0.50000000000E+03 0.  1.
    -200001    1    1    2    0    0  0.40510371664E+03  0.26621026263E+03  0.74751522416E+02  0.85473078526E+03  0.70000000000E+03 0.  1.
<mgrwt>
<rscale>  0 0.17041955E+04</rscale>
<asrwt>0</asrwt>
<pdfrwt beam="1">  1        3 0.11206750E+00 0.17041955E+04</pdfrwt>
<pdfrwt beam="2">  1       -3 0.13222180E+00 0.17041955E+04</pdfrwt>
<totfact> 0.74468200E-01</totfact>
</mgrwt>
</event>
<event>
 8    1  0.1649749E-011  0.1696836E+04  0.7818608E-02  0.8763171E-01
         -3   -1    0    0    0  501 -0.00000000000E+00  0.00000000000E+00  0.64874413122E+03  0.64874413908E+03  0.10100000000E+00 0. -1.
          3   -1    0    0  501    0  0.00000000000E+00 -0.00000000000E+00 -0.11095480307E+04  0.11095480353E+04  0.10100000000E+00 0.  1.
     200001    2    1    2    0    0 -0.66253099723E+02  0.28485987870E+03  0.16318444899E+03  0.77600093307E+03  0.70000975709E+03 0.  0.
    5000001    2    3    3    0    0  0.14732473406E+03  0.65306383469E+02  0.50875932510E+02  0.17898130926E+03  0.58961407440E+02 0.  0.
        -11    1    4    4    0    0  0.55183451038E+02  0.13292839080E+02 -0.23266210040E+01  0.56809559097E+02  0.51100000000E-03 0. -1.
     200002    1    4    4    0    0  0.92141283019E+02  0.52013544389E+02  0.53202553514E+02  0.12217175016E+03  0.30000000000E+02 0. -1.
     200000    1    3    3    0    0 -0.21357783378E+03  0.21955349524E+03  0.11230851648E+03  0.59701962382E+03  0.50000000000E+03 0. -1.
    -200001    1    1    2    0    0  0.66253099723E+02 -0.28485987870E+03 -0.62398834848E+03  0.98229124131E+03  0.70000000000E+03 0.  1.
<mgrwt>
<rscale>  0 0.16968356E+04</rscale>
<asrwt>0</asrwt>
<pdfrwt beam="1">  1        3 0.15850686E+00 0.16968356E+04</pdfrwt>
<pdfrwt beam="2">  1       -3 0.92677734E-01 0.16968356E+04</pdfrwt>
<totfact> 0.73189988E-01</totfact>
</mgrwt>
</event>
<event>
 8    1  0.1649749E-011  0.1480823E+04  0.7818608E-02  0.8897307E-01
         -3   -1    0    0    0  501 -0.00000000000E+00  0.00000000000E+00  0.21317602130E+03  0.21317604523E+03  0.10100000000E+00 0. -1.
          3   -1    0    0  501    0  0.00000000000E+00 -0.00000000000E+00 -0.25716259289E+04  0.25716259309E+04  0.10100000000E+00 0.  1.
     200001    2    1    2    0    0  0.10507897021E+03  0.62679203849E+02 -0.15702491403E+04  0.17235617949E+04  0.70000901835E+03 0.  0.
    5000001    2    3    3    0    0  0.66309089532E+02 -0.85833162995E+01 -0.63576300899E+03  0.66061975510E+03  0.16659318281E+03 0.  0.
        -11    1    4    4    0    0  0.60355228915E+02 -0.17646217482E+02 -0.70546187232E+02  0.94503477090E+02  0.51100000000E-03 0. -1.
     200002    1    4    4    0    0  0.59538606167E+01  0.90629011822E+01 -0.56521682176E+03  0.56611627801E+03  0.30000000000E+02 0. -1.
     200000    1    3    3    0    0  0.38769880680E+02  0.71262520148E+02 -0.93448613129E+03  0.10629420398E+04  0.50000000000E+03 0. -1.
    -200001    1    1    2    0    0 -0.10507897021E+03 -0.62679203849E+02 -0.78820076731E+03  0.10612401812E+04  0.70000000000E+03 0. -1.
<mgrwt>
<rscale>  0 0.14808228E+04</rscale>
<asrwt>0</asrwt>
<pdfrwt beam="1">  1        3 0.36737512E+00 0.14808228E+04</pdfrwt>
<pdfrwt beam="2">  1       -3 0.30453721E-01 0.14808228E+04</pdfrwt>
<totfact> 0.45039149E-01</totfact>
</mgrwt>
</event>
<event>
 8    1  0.1649749E-011  0.1449310E+04  0.7818608E-02  0.8918879E-01
          3   -1    0    0  501    0  0.00000000000E+00  0.00000000000E+00  0.54299638052E+03  0.54299638991E+03  0.10100000000E+00 0.  1.
         -3   -1    0    0    0  501 -0.00000000000E+00 -0.00000000000E+00 -0.96708767685E+03  0.96708768213E+03  0.10100000000E+00 0. -1.
     200001    2    1    2    0    0 -0.11137601228E+03  0.14809274069E+03 -0.23717567235E+03  0.76223814777E+03  0.70029894931E+03 0.  0.
    5000001    2    3    3    0    0 -0.28704446399E+01  0.55635960798E+02 -0.17034370175E+03  0.23803568054E+03  0.15665378673E+03 0.  0.
        -11    1    4    4    0    0  0.22505310569E+01 -0.45098466169E+02 -0.10466513526E+03  0.11399003062E+03  0.51100000000E-03 0. -1.
     200002    1    4    4    0    0 -0.51209756968E+01  0.10073442697E+03 -0.65678566484E+02  0.12404564992E+03  0.30000000000E+02 0. -1.
     200000    1    3    3    0    0 -0.10850556764E+03  0.92456779895E+02 -0.66831970608E+02  0.52420246723E+03  0.50000000000E+03 0.  1.
    -200001    1    1    2    0    0  0.11137601228E+03 -0.14809274069E+03 -0.18691562398E+03  0.74784592427E+03  0.70000000000E+03 0.  1.
<mgrwt>
<rscale>  0 0.14493103E+04</rscale>
<asrwt>0</asrwt>
<pdfrwt beam="1">  1        3 0.77570913E-01 0.14493103E+04</pdfrwt>
<pdfrwt beam="2">  1       -3 0.13815538E+00 0.14493103E+04</pdfrwt>
<totfact> 0.15855977E+00</totfact>
</mgrwt>
</event>
<event>
 8    1  0.1649749E-011  0.1474435E+04  0.7818608E-02  0.8901634E-01
          3   -1    0    0  501    0  0.00000000000E+00  0.00000000000E+00  0.99109422464E+03  0.99109422978E+03  0.10100000000E+00 0. -1.
         -3   -1    0    0    0  501 -0.00000000000E+00 -0.00000000000E+00 -0.54837331211E+03  0.54837332141E+03  0.10100000000E+00 0.  1.
     200001    2    1    2    0    0  0.77625157667E+02  0.63844811720E+02  0.47382767283E+01  0.70764388337E+03  0.70045384525E+03 0.  0.
    5000001    2    3    3    0    0 -0.94987948667E+02 -0.15884387151E+02  0.14302527265E+02  0.17262658971E+03  0.14254947577E+03 0.  0.
        -11    1    4    4    0    0 -0.19925910007E+02 -0.42745295894E+02  0.59717892014E+02  0.76094867353E+02  0.51100000000E-03 0. -1.
     200002    1    4    4    0    0 -0.75062038659E+02  0.26860908742E+02 -0.45415364749E+02  0.96531722358E+02  0.30000000000E+02 0. -1.
     200000    1    3    3    0    0  0.17261310633E+03  0.79729198871E+02 -0.95642505368E+01  0.53501729366E+03  0.50000000000E+03 0.  1.
    -200001    1    1    2    0    0 -0.77625157667E+02 -0.63844811720E+02  0.43798263580E+03  0.83182366782E+03  0.70000000000E+03 0. -1.
<mgrwt>
<rscale>  0 0.14744350E+04</rscale>
<asrwt>0</asrwt>
<pdfrwt beam="1">  1        3 0.14158489E+00 0.14744350E+04</pdfrwt>
<pdfrwt beam="2">  1       -3 0.78339045E-01 0.14744350E+04</pdfrwt>
<totfact> 0.14581638E+00</totfact>
</mgrwt>
</event>
<event>
 8    1  0.1649749E-011  0.1816363E+04  0.7818608E-02  0.8697646E-01
          3   -1    0    0  501    0  0.00000000000E+00  0.00000000000E+00  0.77667784043E+03  0.77667784700E+03  0.10100000000E+00 0.  1.
         -3   -1    0    0    0  501 -0.00000000000E+00 -0.00000000000E+00 -0.10619507435E+04  0.10619507483E+04  0.10100000000E+00 0. -1.
     200001    2    1    2    0    0 -0.16627077594E+03  0.89695368038E+02  0.41100994915E+03  0.83339178723E+03  0.69994389971E+03 0.  0.
    5000001    2    3    3    0    0 -0.68764603586E+02  0.74589810242E+01  0.40902327468E+02  0.19837215870E+03  0.18136787436E+03 0.  0.
        -11    1    4    4    0    0 -0.49964477597E+01 -0.19887156456E+01  0.10350047661E+03  0.10364008944E+03  0.51100000000E-03 0. -1.
     200002    1    4    4    0    0 -0.63768155826E+02  0.94476966698E+01 -0.62598149142E+02  0.94732069258E+02  0.30000000000E+02 0. -1.
     200000    1    3    3    0    0 -0.97506172353E+02  0.82236387014E+02  0.37010762168E+03  0.63501962853E+03  0.50000000000E+03 0.  1.
    -200001    1    1    2    0    0  0.16627077594E+03 -0.89695368038E+02 -0.69628285220E+03  0.10052368080E+04  0.70000000000E+03 0. -1.
<mgrwt>
<rscale>  0 0.18163630E+04</rscale>
<asrwt>0</asrwt>
<pdfrwt beam="1">  1        3 0.11095398E+00 0.18163630E+04</pdfrwt>
<pdfrwt beam="2">  1       -3 0.15170725E+00 0.18163630E+04</pdfrwt>
<totfact> 0.53207186E-01</totfact>
</mgrwt>
</event>
<event>
 8    1  0.1649749E-011  0.1994210E+04  0.7818608E-02  0.8609332E-01
         -3   -1    0    0    0  501 -0.00000000000E+00  0.00000000000E+00  0.73805841769E+03  0.73805842460E+03  0.10100000000E+00 0. -1.
          3   -1    0    0  501    0  0.00000000000E+00 -0.00000000000E+00 -0.13470727804E+04  0.13470727842E+04  0.10100000000E+00 0.  1.
     200001    2    1    2    0    0  0.96883169823E+02  0.67765876220E+03 -0.50298311952E+03  0.11003213941E+04  0.69936214167E+03 0.  0.
    5000001    2    3    3    0    0  0.15051258197E+03  0.21761162084E+03 -0.72900493738E+02  0.29441162798E+03  0.10655923164E+03 0.  0.
        -11    1    4    4    0    0  0.14500614454E+03  0.17244724671E+03 -0.80763666243E+02  0.23934829149E+03  0.51100000000E-03 0. -1.
     200002    1    4    4    0    0  0.55064374210E+01  0.45164374123E+02  0.78631725048E+01  0.55063336485E+02  0.30000000000E+02 0.  1.
     200000    1    3    3    0    0 -0.53629412143E+02  0.46004714136E+03 -0.43008262579E+03  0.80590976612E+03  0.50000000000E+03 0.  1.
    -200001    1    1    2    0    0 -0.96883169823E+02 -0.67765876220E+03 -0.10603124317E+03  0.98480981469E+03  0.70000000000E+03 0. -1.
<mgrwt>
<rscale>  0 0.19942100E+04</rscale>
<asrwt>0</asrwt>
<pdfrwt beam="1">  1        3 0.19243897E+00 0.19942100E+04</pdfrwt>
<pdfrwt beam="2">  1       -3 0.10543692E+00 0.19942100E+04</pdfrwt>
<totfact> 0.31066662E-01</totfact>
</mgrwt>
</event>
<event>
 8    1  0.1649749E-011  0.1541183E+04  0.7818608E-02  0.8857519E-01
          3   -1    0    0  501    0  0.00000000000E+00  0.00000000000E+00  0.94999769878E+03  0.94999770415E+03  0.10100000000E+00 0.  1.
         -3   -1    0    0    0  501 -0.00000000000E+00 -0.00000000000E+00 -0.62506575396E+03  0.62506576212E+03  0.10100000000E+00 0. -1.
     200001    2    1    2    0    0 -0.24596927512E+03  0.31339821826E+02 -0.48537982499E+02  0.74382171121E+03  0.69959397767E+03 0.  0.
    5000001    2    3    3    0    0 -0.68235392603E+02 -0.35540844475E+02  0.62155085047E+01  0.20617842678E+03  0.19118496461E+03 0.  0.
        -11    1    4    4    0    0 -0.11310930500E+03  0.28401293723E+02  0.27532237298E+02  0.11982642635E+03  0.51100000000E-03 0. -1.
     200002    1    4    4    0    0  0.44873912393E+02 -0.63942138198E+02 -0.21316728793E+02  0.86352000424E+02  0.30000000000E+02 0. -1.
     200000    1    3    3    0    0 -0.17773388252E+03  0.66880666301E+02 -0.54753491004E+02  0.53764328443E+03  0.50000000000E+03 0. -1.
    -200001    1    1    2    0    0  0.24596927512E+03 -0.31339821826E+02  0.37346992733E+03  0.83124175506E+03  0.70000000000E+03 0.  1.
<mgrwt>
<rscale>  0 0.15411827E+04</rscale>
<asrwt>0</asrwt>
<pdfrwt beam="1">  1        3 0.13571396E+00 0.15411827E+04</pdfrwt>
<pdfrwt beam="2">  1       -3 0.89295109E-01 0.15411827E+04</pdfrwt>
<totfact> 0.12032607E+00</totfact>
</mgrwt>
</event>
<event>
 8    1  0.1649749E-011  0.2111635E+04  0.7818608E-02  0.8556135E-01
         -3   -1    0    0    0  501 -0.00000000000E+00  0.00000000000E+00  0.53182151163E+03  0.53182152123E+03  0.10100000000E+00 0. -1.
          3   -1    0    0  501    0  0.00000000000E+00 -0.00000000000E+00 -0.20960982869E+04  0.20960982893E+04  0.10100000000E+00 0.  1.
     200001    2    1    2    0    0 -0.33023594048E+01 -0.46206381931E+02 -0.17639561177E+04  0.18985243245E+04  0.70050516787E+03 0.  0.
    5000001    2    3    3    0    0 -0.55324595259E+02 -0.28612487230E+02 -0.40747607649E+03  0.45178524631E+03  0.18491530657E+03 0.  0.
        -11    1    4    4    0    0  0.37087108139E+02  0.22476681989E+02 -0.17688198795E+02  0.46835106493E+02  0.51100000000E-03 0. -1.
     200002    1    4    4    0    0 -0.92411703398E+02 -0.51089169220E+02 -0.38978787770E+03  0.40495013981E+03  0.30000000000E+02 0. -1.
     200000    1    3    3    0    0  0.52022235855E+02 -0.17593894701E+02 -0.13564800412E+04  0.14467390782E+04  0.50000000000E+03 0.  1.
    -200001    1    1    2    0    0  0.33023594048E+01  0.46206381931E+02  0.19967934243E+03  0.72939548607E+03  0.70000000000E+03 0. -1.
<mgrwt>
<rscale>  0 0.21116346E+04</rscale>
<asrwt>0</asrwt>
<pdfrwt beam="1">  1        3 0.29944261E+00 0.21116346E+04</pdfrwt>
<pdfrwt beam="2">  1       -3 0.75974504E-01 0.21116346E+04</pdfrwt>
<totfact> 0.15400085E-01</totfact>
</mgrwt>
</event>
<event>
 8    1  0.1649749E-011  0.1948035E+04  0.7818608E-02  0.8631309E-01
          3   -1    0    0  501    0  0.00000000000E+00  0.00000000000E+00  0.42476067172E+03  0.42476068372E+03  0.10100000000E+00 0.  1.
         -3   -1    0    0    0  501 -0.00000000000E+00 -0.00000000000E+00 -0.22335173247E+04  0.22335173269E+04  0.10100000000E+00 0. -1.
     200001    2    1    2    0    0 -0.20774031018E+03  0.56352504120E+03 -0.47730810245E+03  0.10385645326E+04  0.70005482293E+03 0.  0.
    5000001    2    3    3    0    0 -0.41745310715E+02  0.13390814545E+03 -0.19190979950E+03  0.30128764544E+03  0.18512377419E+03 0.  0.
        -11    1    4    4    0    0  0.16375712120E+02  0.14218260103E+03 -0.62749067883E+02  0.15627380299E+03  0.51100000000E-03 0. -1.
     200002    1    4    4    0    0 -0.58121022835E+02 -0.82744555752E+01 -0.12916073161E+03  0.14501384245E+03  0.30000000000E+02 0. -1.
     200000    1    3    3    0    0 -0.16599499947E+03  0.42961689575E+03 -0.28539830295E+03  0.73727688712E+03  0.50000000000E+03 0.  1.
    -200001    1    1    2    0    0  0.20774031018E+03 -0.56352504120E+03 -0.13314485505E+04  0.16197134781E+04  0.70000000000E+03 0. -1.
<mgrwt>
<rscale>  0 0.19480353E+04</rscale>
<asrwt>0</asrwt>
<pdfrwt beam="1">  1        3 0.60680098E-01 0.19480353E+04</pdfrwt>
<pdfrwt beam="2">  1       -3 0.31907390E+00 0.19480353E+04</pdfrwt>
<totfact> 0.19388347E-01</totfact>
</mgrwt>
</event>
<event>
 8    1  0.1649749E-011  0.1676822E+04  0.7818608E-02  0.8774695E-01
          3   -1    0    0  501    0  0.00000000000E+00  0.00000000000E+00  0.32339368837E+03  0.32339370414E+03  0.10100000000E+00 0.  1.
         -3   -1    0    0    0  501 -0.00000000000E+00 -0.00000000000E+00 -0.21736129783E+04  0.21736129807E+04  0.10100000000E+00 0. -1.
     200001    2    1    2    0    0 -0.44016244857E+03  0.14422268918E+03 -0.10162199278E+04  0.13137492736E+04  0.69187502262E+03 0.  0.
    5000001    2    3    3    0    0 -0.11056520802E+03  0.88059306995E+02 -0.43100462216E+03  0.47454392299E+03  0.13945552607E+03 0.  0.
        -11    1    4    4    0    0 -0.28979467882E+02  0.65970379168E+02 -0.33699960111E+03  0.34461664445E+03  0.51100000000E-03 0. -1.
     200002    1    4    4    0    0 -0.81585740134E+02  0.22088927827E+02 -0.94005021054E+02  0.12992727854E+03  0.30000000000E+02 0. -1.
     200000    1    3    3    0    0 -0.32959724055E+03  0.56163382184E+02 -0.58521530567E+03  0.83920535059E+03  0.50000000000E+03 0.  1.
    -200001    1    1    2    0    0  0.44016244857E+03 -0.14422268918E+03 -0.83399936216E+03  0.11832574113E+04  0.70000000000E+03 0.  1.
<mgrwt>
<rscale>  0 0.16768217E+04</rscale>
<asrwt>0</asrwt>
<pdfrwt beam="1">  1        3 0.46199101E-01 0.16768217E+04</pdfrwt>
<pdfrwt beam="2">  1       -3 0.31051613E+00 0.16768217E+04</pdfrwt>
<totfact> 0.38932635E-01</totfact>
</mgrwt>
</event>
<event>
 8    1  0.1649749E-011  0.1632482E+04  0.7818608E-02  0.8800838E-01
          3   -1    0    0  501    0  0.00000000000E+00  0.00000000000E+00  0.25799005557E+04  0.25799005577E+04  0.10100000000E+00 0.  1.
         -3   -1    0    0    0  501 -0.00000000000E+00 -0.00000000000E+00 -0.25824604637E+03  0.25824606612E+03  0.10100000000E+00 0. -1.
     200001    2    1    2    0    0  0.15310766620E+03 -0.19921767843E+03  0.17456329200E+04  0.18974391707E+04  0.69993676463E+03 0.  0.
    5000001    2    3    3    0    0  0.58912086656E+02  0.13368471003E+02  0.43501884857E+03  0.47554785200E+03  0.18235956502E+03 0.  0.
        -11    1    4    4    0    0  0.11462094110E+02 -0.56273541594E+02  0.34089542607E+03  0.34569897686E+03  0.51100000000E-03 0. -1.
     200002    1    4    4    0    0  0.47449992546E+02  0.69642012597E+02  0.94123422499E+02  0.12984887514E+03  0.30000000000E+02 0.  1.
     200000    1    3    3    0    0  0.94195579544E+02 -0.21258614943E+03  0.13106140714E+04  0.14218913187E+04  0.50000000000E+03 0.  1.
    -200001    1    1    2    0    0 -0.15310766620E+03  0.19921767843E+03  0.57602158936E+03  0.94070745307E+03  0.70000000000E+03 0. -1.
<mgrwt>
<rscale>  0 0.16324817E+04</rscale>
<asrwt>0</asrwt>
<pdfrwt beam="1">  1        3 0.36855721E+00 0.16324817E+04</pdfrwt>
<pdfrwt beam="2">  1       -3 0.36892296E-01 0.16324817E+04</pdfrwt>
<totfact> 0.30243855E-01</totfact>
</mgrwt>
</event>
<event>
 8    1  0.1649749E-011  0.1695152E+04  0.7818608E-02  0.8764134E-01
         -3   -1    0    0    0  501 -0.00000000000E+00  0.00000000000E+00  0.61689643287E+03  0.61689644114E+03  0.10100000000E+00 0. -1.
          3   -1    0    0  501    0  0.00000000000E+00 -0.00000000000E+00 -0.11645145439E+04  0.11645145483E+04  0.10100000000E+00 0.  1.
     200001    2    1    2    0    0  0.18781817591E+03  0.21950918339E+03  0.12662372200E+03  0.76747706743E+03  0.69966244236E+03 0.  0.
    5000001    2    3    3    0    0  0.63128548410E+02  0.15873766474E+02  0.16884859452E+03  0.21178126387E+03  0.11001938815E+03 0.  0.
        -11    1    4    4    0    0  0.38605871108E+02 -0.40370752601E+02  0.51354834083E+02  0.75878389107E+02  0.51100000000E-03 0. -1.
     200002    1    4    4    0    0  0.24522677303E+02  0.56244519075E+02  0.11749376043E+03  0.13590287476E+03  0.30000000000E+02 0. -1.
     200000    1    3    3    0    0  0.12468962750E+03  0.20363541692E+03 -0.42224872515E+02  0.55569580356E+03  0.50000000000E+03 0.  1.
    -200001    1    1    2    0    0 -0.18781817591E+03 -0.21950918339E+03 -0.67424183306E+03  0.10139339220E+04  0.70000000000E+03 0.  1.
<mgrwt>
<rscale>  0 0.16951518E+04</rscale>
<asrwt>0</asrwt>
<pdfrwt beam="1">  1        3 0.16635922E+00 0.16951518E+04</pdfrwt>
<pdfrwt beam="2">  1       -3 0.88128063E-01 0.16951518E+04</pdfrwt>
<totfact> 0.72193340E-01</totfact>
</mgrwt>
</event>
<event>
 8    1  0.1649749E-011  0.2183543E+04  0.7818608E-02  0.8525309E-01
         -3   -1    0    0    0  501 -0.00000000000E+00  0.00000000000E+00  0.89606464006E+03  0.89606464576E+03  0.10100000000E+00 0. -1.
          3   -1    0    0  501    0  0.00000000000E+00 -0.00000000000E+00 -0.13302216017E+04  0.13302216055E+04  0.10100000000E+00 0.  1.
     200001    2    1    2    0    0 -0.77087615564E+03  0.25600514363E+03 -0.42699587260E+03  0.11539803425E+04  0.69968312448E+03 0.  0.
    5000001    2    3    3    0    0 -0.35671755055E+02 -0.24924054195E+02  0.37559956318E+02  0.11222276845E+03  0.96382139704E+02 0.  0.
        -11    1    4    4    0    0 -0.55397529488E+02 -0.33575441198E+02  0.87154761816E+01  0.65361732308E+02  0.51100000000E-03 0. -1.
     200002    1    4    4    0    0  0.19725774433E+02  0.86513870024E+01  0.28844480136E+02  0.46861036143E+02  0.30000000000E+02 0. -1.
     200000    1    3    3    0    0 -0.73520440058E+03  0.28092919782E+03 -0.46455582892E+03  0.10417575740E+04  0.50000000000E+03 0. -1.
    -200001    1    1    2    0    0  0.77087615564E+03 -0.25600514363E+03 -0.71610890235E+01  0.10723059088E+04  0.70000000000E+03 0.  1.
<mgrwt>
<rscale>  0 0.21835426E+04</rscale>
<asrwt>0</asrwt>
<pdfrwt beam="1">  1        3 0.19003166E+00 0.21835426E+04</pdfrwt>
<pdfrwt beam="2">  1       -3 0.12800923E+00 0.21835426E+04</pdfrwt>
<totfact> 0.19816923E-01</totfact>
</mgrwt>
</event>
<event>
 8    1  0.1649749E-011  0.1669724E+04  0.7818608E-02  0.8778823E-01
          3   -1    0    0  501    0  0.00000000000E+00  0.00000000000E+00  0.68095343824E+03  0.68095344573E+03  0.10100000000E+00 0.  1.
         -3   -1    0    0    0  501 -0.00000000000E+00 -0.00000000000E+00 -0.10235567524E+04  0.10235567574E+04  0.10100000000E+00 0. -1.
     200001    2    1    2    0    0  0.11779296116E+03  0.13248922695E+03  0.25648287564E+03  0.76624966373E+03  0.69994750140E+03 0.  0.
    5000001    2    3    3    0    0  0.61405695453E+02  0.87736445927E+02  0.19818749650E+03  0.25774136845E+03  0.12523572120E+03 0.  0.
        -11    1    4    4    0    0  0.48520975338E+02 -0.14015333244E+02  0.10264125628E+03  0.11439380273E+03  0.51100000000E-03 0. -1.
     200002    1    4    4    0    0  0.12884720115E+02  0.10175177917E+03  0.95546240220E+02  0.14334756572E+03  0.30000000000E+02 0. -1.
     200000    1    3    3    0    0  0.56387265706E+02  0.44752781025E+02  0.58295379141E+02  0.50850829528E+03  0.50000000000E+03 0.  1.
    -200001    1    1    2    0    0 -0.11779296116E+03 -0.13248922695E+03 -0.59908618983E+03  0.93826053940E+03  0.70000000000E+03 0. -1.
<mgrwt>
<rscale>  0 0.16697239E+04</rscale>
<asrwt>0</asrwt>
<pdfrwt beam="1">  1        3 0.97279064E-01 0.16697239E+04</pdfrwt>
<pdfrwt beam="2">  1       -3 0.14622239E+00 0.16697239E+04</pdfrwt>
<totfact> 0.80752929E-01</totfact>
</mgrwt>
</event>
<event>
 8    1  0.1649749E-011  0.1402470E+04  0.7818608E-02  0.8952033E-01
         -3   -1    0    0    0  501 -0.00000000000E+00  0.00000000000E+00  0.45012262733E+03  0.45012263866E+03  0.10100000000E+00 0.  1.
          3   -1    0    0  501    0  0.00000000000E+00 -0.00000000000E+00 -0.10924368394E+04  0.10924368440E+04  0.10100000000E+00 0. -1.
     200001    2    1    2    0    0  0.31478903201E+02  0.43025890918E+01 -0.33967128639E+03  0.77927567305E+03  0.70063154239E+03 0.  0.
    5000001    2    3    3    0    0  0.35049599487E+02  0.72724889748E+02 -0.64854977985E+02  0.20462937796E+03  0.17649257815E+03 0.  0.
        -11    1    4    4    0    0  0.77455642775E+02  0.94724487112E+02 -0.80034990901E+02  0.14621116519E+03  0.51100000000E-03 0. -1.
     200002    1    4    4    0    0 -0.42406043288E+02 -0.21999597365E+02  0.15180012916E+02  0.58418212773E+02  0.30000000000E+02 0. -1.
     200000    1    3    3    0    0 -0.35706962858E+01 -0.68422300656E+02 -0.27481630841E+03  0.57464629509E+03  0.50000000000E+03 0.  1.
    -200001    1    1    2    0    0 -0.31478903201E+02 -0.43025890918E+01 -0.30264292564E+03  0.76328380964E+03  0.70000000000E+03 0.  1.
<mgrwt>
<rscale>  0 0.14024700E+04</rscale>
<asrwt>0</asrwt>
<pdfrwt beam="1">  1        3 0.15606241E+00 0.14024700E+04</pdfrwt>
<pdfrwt beam="2">  1       -3 0.64303234E-01 0.14024700E+04</pdfrwt>
<totfact> 0.17525089E+00</totfact>
</mgrwt>
</event>
<event>
 8    1  0.1649749E-011  0.2002719E+04  0.7818608E-02  0.8605351E-01
         -3   -1    0    0    0  501 -0.00000000000E+00  0.00000000000E+00  0.10191791984E+04  0.10191792034E+04  0.10100000000E+00 0. -1.
          3   -1    0    0  501    0  0.00000000000E+00 -0.00000000000E+00 -0.98385112571E+03  0.98385113089E+03  0.10100000000E+00 0.  1.
     200001    2    1    2    0    0 -0.23551700548E+03 -0.65335640656E+03 -0.15474835669E+03  0.99880331666E+03  0.70094090878E+03 0.  0.
    5000001    2    3    3    0    0 -0.71756993112E+02 -0.23736633358E+03 -0.70482555134E+02  0.32281085532E+03  0.19428642608E+03 0.  0.
        -11    1    4    4    0    0 -0.57979599902E+02 -0.57234196464E+02  0.57214372685E+02  0.99553361026E+02  0.51100000000E-03 0. -1.
     200002    1    4    4    0    0 -0.13777393210E+02 -0.18013213712E+03 -0.12769692782E+03  0.22325749430E+03  0.30000000000E+02 0. -1.
     200000    1    3    3    0    0 -0.16376001237E+03 -0.41599007299E+03 -0.84265801553E+02  0.67599246134E+03  0.50000000000E+03 0.  1.
    -200001    1    1    2    0    0  0.23551700548E+03  0.65335640656E+03  0.19007642933E+03  0.10042270176E+04  0.70000000000E+03 0.  1.
<mgrwt>
<rscale>  0 0.20027188E+04</rscale>
<asrwt>0</asrwt>
<pdfrwt beam="1">  1        3 0.14055016E+00 0.20027188E+04</pdfrwt>
<pdfrwt beam="2">  1       -3 0.14559703E+00 0.20027188E+04</pdfrwt>
<totfact> 0.32582175E-01</totfact>
</mgrwt>
</event>
<event>
 8    1  0.1649749E-011  0.1514328E+04  0.7818608E-02  0.8874980E-01
          3   -1    0    0  501    0  0.00000000000E+00  0.00000000000E+00  0.87345789334E+03  0.87345789918E+03  0.10100000000E+00 0.  1.
         -3   -1    0    0    0  501 -0.00000000000E+00 -0.00000000000E+00 -0.65635375851E+03  0.65635376628E+03  0.10100000000E+00 0. -1.
     200001    2    1    2    0    0  0.10407932030E+03  0.17787509492E+02 -0.15746528476E+03  0.72890520994E+03  0.70381715578E+03 0.  0.
    5000001    2    3    3    0    0 -0.29714017751E+01  0.43265177115E+01 -0.60884265280E+02  0.20835843133E+03  0.19919536682E+03 0.  0.
        -11    1    4    4    0    0  0.94841673859E+02 -0.46508150457E+01 -0.16080135843E+02  0.96307548769E+02  0.51100000000E-03 0. -1.
     200002    1    4    4    0    0 -0.97813075634E+02  0.89773327571E+01 -0.44804129437E+02  0.11205088256E+03  0.30000000000E+02 0. -1.
     200000    1    3    3    0    0  0.10705072207E+03  0.13460991781E+02 -0.96581019479E+02  0.52054677861E+03  0.50000000000E+03 0. -1.
    -200001    1    1    2    0    0 -0.10407932030E+03 -0.17787509492E+02  0.37456941959E+03  0.80090645552E+03  0.70000000000E+03 0.  1.
<mgrwt>
<rscale>  0 0.15143281E+04</rscale>
<asrwt>0</asrwt>
<pdfrwt beam="1">  1        3 0.12477970E+00 0.15143281E+04</pdfrwt>
<pdfrwt beam="2">  1       -3 0.93764824E-01 0.15143281E+04</pdfrwt>
<totfact> 0.13281791E+00</totfact>
</mgrwt>
</event>
<event>
 8    1  0.1649749E-011  0.1573259E+04  0.7818608E-02  0.8837146E-01
         -3   -1    0    0    0  501 -0.00000000000E+00  0.00000000000E+00  0.12928123132E+04  0.12928123171E+04  0.10100000000E+00 0. -1.
          3   -1    0    0  501    0  0.00000000000E+00 -0.00000000000E+00 -0.47863584078E+03  0.47863585143E+03  0.10100000000E+00 0.  1.
     200001    2    1    2    0    0  0.23941628700E+03  0.19049656162E+03  0.20556667309E+03  0.79471126114E+03  0.70405911188E+03 0.  0.
    5000001    2    3    3    0    0  0.97610117351E+02  0.39665365940E+02  0.71915617792E+01  0.21833315249E+03  0.19109309420E+03 0.  0.
        -11    1    4    4    0    0 -0.26477194300E+02 -0.32707932307E+02 -0.45903474633E+02  0.62273426415E+02  0.51100000000E-03 0. -1.
     200002    1    4    4    0    0  0.12408731165E+03  0.72373298247E+02  0.53095036412E+02  0.15605972608E+03  0.30000000000E+02 0. -1.
     200000    1    3    3    0    0  0.14180616965E+03  0.15083119568E+03  0.19837511131E+03  0.57637810865E+03  0.50000000000E+03 0. -1.
    -200001    1    1    2    0    0 -0.23941628700E+03 -0.19049656162E+03  0.60860979929E+03  0.97673690739E+03  0.70000000000E+03 0. -1.
<mgrwt>
<rscale>  0 0.15732594E+04</rscale>
<asrwt>0</asrwt>
<pdfrwt beam="1">  1        3 0.68376550E-01 0.15732594E+04</pdfrwt>
<pdfrwt beam="2">  1       -3 0.18468747E+00 0.15732594E+04</pdfrwt>
<totfact> 0.95593222E-01</totfact>
</mgrwt>
</event>
<event>
 8    1  0.1649749E-011  0.1539782E+04  0.7818608E-02  0.8858421E-01
          3   -1    0    0  501    0  0.00000000000E+00  0.00000000000E+00  0.60084358737E+03  0.60084359586E+03  0.10100000000E+00 0.  1.
         -3   -1    0    0    0  501 -0.00000000000E+00 -0.00000000000E+00 -0.98650005748E+03  0.98650006265E+03  0.10100000000E+00 0. -1.
     200001    2    1    2    0    0 -0.28527616969E+03  0.13894050128E+03 -0.12983755819E+03  0.77732497256E+03  0.69763125328E+03 0.  0.
    5000001    2    3    3    0    0 -0.81688833481E+02  0.13202859421E+03 -0.72011972888E+02  0.23433383429E+03  0.16006875538E+03 0.  0.
        -11    1    4    4    0    0  0.35859580432E+02  0.81802584158E+02 -0.12548773124E+02  0.90194478716E+02  0.51100000000E-03 0. -1.
     200002    1    4    4    0    0 -0.11754841391E+03  0.50226010049E+02 -0.59463199764E+02  0.14413935557E+03  0.30000000000E+02 0. -1.
     200000    1    3    3    0    0 -0.20358733621E+03  0.69119070738E+01 -0.57825585302E+02  0.54299113827E+03  0.50000000000E+03 0.  1.
    -200001    1    1    2    0    0  0.28527616969E+03 -0.13894050128E+03 -0.25581891191E+03  0.81001868595E+03  0.70000000000E+03 0. -1.
<mgrwt>
<rscale>  0 0.15397821E+04</rscale>
<asrwt>0</asrwt>
<pdfrwt beam="1">  1        3 0.85834800E-01 0.15397821E+04</pdfrwt>
<pdfrwt beam="2">  1       -3 0.14092858E+00 0.15397821E+04</pdfrwt>
<totfact> 0.11939640E+00</totfact>
</mgrwt>
</event>
<event>
 8    1  0.1649749E-011  0.1785787E+04  0.7818608E-02  0.8713894E-01
          3   -1    0    0  501    0  0.00000000000E+00  0.00000000000E+00  0.57014466473E+03  0.57014467368E+03  0.10100000000E+00 0.  1.
         -3   -1    0    0    0  501 -0.00000000000E+00 -0.00000000000E+00 -0.13983450918E+04  0.13983450954E+04  0.10100000000E+00 0. -1.
     200001    2    1    2    0    0 -0.34815265191E+03 -0.61657940982E+02 -0.88457133142E+03  0.11822393958E+04  0.70015111068E+03 0.  0.
    5000001    2    3    3    0    0 -0.67172429490E+02 -0.58279259684E+02 -0.26900600007E+03  0.34088217196E+03  0.18954635236E+03 0.  0.
        -11    1    4    4    0    0 -0.70154372180E+02  0.52380784015E+02 -0.16137756897E+03  0.18359766403E+03  0.51100000000E-03 0. -1.
     200002    1    4    4    0    0  0.29819426901E+01 -0.11066004370E+03 -0.10762843110E+03  0.15728450793E+03  0.30000000000E+02 0. -1.
     200000    1    3    3    0    0 -0.28098022242E+03 -0.33786812984E+01 -0.61556533135E+03  0.84135722380E+03  0.50000000000E+03 0. -1.
    -200001    1    1    2    0    0  0.34815265191E+03  0.61657940982E+02  0.56370904378E+02  0.78625037334E+03  0.70000000000E+03 0.  1.
<mgrwt>
<rscale>  0 0.17857872E+04</rscale>
<asrwt>0</asrwt>
<pdfrwt beam="1">  1        3 0.81449239E-01 0.17857872E+04</pdfrwt>
<pdfrwt beam="2">  1       -3 0.19976358E+00 0.17857872E+04</pdfrwt>
<totfact> 0.51116283E-01</totfact>
</mgrwt>
</event>
<event>
 8    1  0.1649749E-011  0.1950263E+04  0.7818608E-02  0.8630234E-01
         -3   -1    0    0    0  501 -0.00000000000E+00  0.00000000000E+00  0.12683527936E+04  0.12683527976E+04  0.10100000000E+00 0. -1.
          3   -1    0    0  501    0  0.00000000000E+00 -0.00000000000E+00 -0.74969771976E+03  0.74969772656E+03  0.10100000000E+00 0.  1.
     200001    2    1    2    0    0 -0.10056758361E+03  0.64497469068E+03  0.45172582636E+03  0.10585789432E+04  0.70030490950E+03 0.  0.
    5000001    2    3    3    0    0 -0.11456961979E+03  0.13967820553E+03  0.15033746290E+03  0.28633834561E+03  0.16356068151E+03 0.  0.
        -11    1    4    4    0    0  0.26035398698E+02  0.65231191667E+02  0.88608171078E+02  0.11306793681E+03  0.51100000000E-03 0. -1.
     200002    1    4    4    0    0 -0.14060501849E+03  0.74447013864E+02  0.61729291822E+02  0.17327040880E+03  0.30000000000E+02 0. -1.
     200000    1    3    3    0    0  0.14002036179E+02  0.50529648515E+03  0.30138836346E+03  0.77224059758E+03  0.50000000000E+03 0. -1.
    -200001    1    1    2    0    0  0.10056758361E+03 -0.64497469068E+03  0.66929247438E+02  0.95947158095E+03  0.70000000000E+03 0.  1.
<mgrwt>
<rscale>  0 0.19502628E+04</rscale>
<asrwt>0</asrwt>
<pdfrwt beam="1">  1        3 0.10709967E+00 0.19502628E+04</pdfrwt>
<pdfrwt beam="2">  1       -3 0.18119326E+00 0.19502628E+04</pdfrwt>
<totfact> 0.35469289E-01</totfact>
</mgrwt>
</event>
<event>
 8    1  0.1649749E-011  0.1743045E+04  0.7818608E-02  0.8737188E-01
          3   -1    0    0  501    0  0.00000000000E+00  0.00000000000E+00  0.32150213623E+03  0.32150215209E+03  0.10100000000E+00 0.  1.
         -3   -1    0    0    0  501 -0.00000000000E+00 -0.00000000000E+00 -0.23625077470E+04  0.23625077492E+04  0.10100000000E+00 0. -1.
     200001    2    1    2    0    0 -0.32091739508E+03  0.23441466815E+03 -0.50685181473E+03  0.95150706401E+03  0.70037755508E+03 0.  0.
    5000001    2    3    3    0    0 -0.85742701334E+02  0.99058216317E+02 -0.16894683012E+03  0.28983623629E+03  0.19569790854E+03 0.  0.
        -11    1    4    4    0    0 -0.57599542355E+02 -0.50532875650E+02 -0.80995072386E+02  0.11149654951E+03  0.51100000000E-03 0. -1.
     200002    1    4    4    0    0 -0.28143158979E+02  0.14959109197E+03 -0.87951757731E+02  0.17833968678E+03  0.30000000000E+02 0. -1.
     200000    1    3    3    0    0 -0.23517469375E+03  0.13535645184E+03 -0.33790498461E+03  0.66167082773E+03  0.50000000000E+03 0. -1.
    -200001    1    1    2    0    0  0.32091739508E+03 -0.23441466815E+03 -0.15341537960E+04  0.17325028372E+04  0.70000000000E+03 0. -1.
<mgrwt>
<rscale>  0 0.17430448E+04</rscale>
<asrwt>0</asrwt>
<pdfrwt beam="1">  1        3 0.45928879E-01 0.17430448E+04</pdfrwt>
<pdfrwt beam="2">  1       -3 0.33750110E+00 0.17430448E+04</pdfrwt>
<totfact> 0.27740891E-01</totfact>
</mgrwt>
</event>
<event>
 8    1  0.1649749E-011  0.2145739E+04  0.7818608E-02  0.8541358E-01
         -3   -1    0    0    0  501 -0.00000000000E+00  0.00000000000E+00  0.10236371250E+04  0.10236371300E+04  0.10100000000E+00 0. -1.
          3   -1    0    0  501    0  0.00000000000E+00 -0.00000000000E+00 -0.11244701198E+04  0.11244701244E+04  0.10100000000E+00 0.  1.
     200001    2    1    2    0    0  0.44584964757E+03 -0.10886994912E+03 -0.72328857783E+03  0.11049938728E+04  0.69801899541E+03 0.  0.
    5000001    2    3    3    0    0  0.21633035406E+02 -0.23406587542E+02 -0.20276298252E+03  0.26344136959E+03  0.16514439613E+03 0.  0.
        -11    1    4    4    0    0 -0.56933903423E+02  0.10044944075E+02 -0.14492522463E+03  0.15603105779E+03  0.51100000000E-03 0. -1.
     200002    1    4    4    0    0  0.78566938829E+02 -0.33451531616E+02 -0.57837757894E+02  0.10741031181E+03  0.30000000000E+02 0. -1.
     200000    1    3    3    0    0  0.42421661217E+03 -0.85463361583E+02 -0.52052559531E+03  0.84155250316E+03  0.50000000000E+03 0.  1.
    -200001    1    1    2    0    0 -0.44584964757E+03  0.10886994912E+03  0.62245558301E+03  0.10431133816E+04  0.70000000000E+03 0. -1.
<mgrwt>
<rscale>  0 0.21457394E+04</rscale>
<asrwt>0</asrwt>
<pdfrwt beam="1">  1        3 0.16063859E+00 0.21457394E+04</pdfrwt>
<pdfrwt beam="2">  1       -3 0.14623388E+00 0.21457394E+04</pdfrwt>
<totfact> 0.22507389E-01</totfact>
</mgrwt>
</event>
<event>
 8    1  0.1649749E-011  0.1799978E+04  0.7818608E-02  0.8706311E-01
         -3   -1    0    0    0  501 -0.00000000000E+00  0.00000000000E+00  0.29305987000E+03  0.29305988741E+03  0.10100000000E+00 0.  1.
          3   -1    0    0  501    0  0.00000000000E+00 -0.00000000000E+00 -0.27638723696E+04  0.27638723714E+04  0.10100000000E+00 0. -1.
     200001    2    1    2    0    0 -0.56373247238E+03  0.46070233606E+02 -0.12794197009E+04  0.15638369613E+04  0.69910979364E+03 0.  0.
    5000001    2    3    3    0    0 -0.13986196169E+03  0.16899223045E+02 -0.39230300085E+03  0.46043621939E+03  0.19558352585E+03 0.  0.
        -11    1    4    4    0    0 -0.73488980533E+02  0.37858197580E+02 -0.37323592264E+03  0.38228121499E+03  0.51100000000E-03 0. -1.
     200002    1    4    4    0    0 -0.66372981159E+02 -0.20958974535E+02 -0.19067078209E+02  0.78155004401E+02  0.30000000000E+02 0. -1.
     200000    1    3    3    0    0 -0.42387051069E+03  0.29171010561E+02 -0.88711670006E+03  0.11034007419E+04  0.50000000000E+03 0.  1.
    -200001    1    1    2    0    0  0.56373247238E+03 -0.46070233606E+02 -0.11913927987E+04  0.14930952975E+04  0.70000000000E+03 0.  1.
<mgrwt>
<rscale>  0 0.17999779E+04</rscale>
<asrwt>0</asrwt>
<pdfrwt beam="1">  1        3 0.39483890E+00 0.17999779E+04</pdfrwt>
<pdfrwt beam="2">  1       -3 0.41865699E-01 0.17999779E+04</pdfrwt>
<totfact> 0.16803050E-01</totfact>
</mgrwt>
</event>
<event>
 8    1  0.1649749E-011  0.1583486E+04  0.7818608E-02  0.8830758E-01
          3   -1    0    0  501    0  0.00000000000E+00  0.00000000000E+00  0.38947306420E+03  0.38947307730E+03  0.10100000000E+00 0. -1.
         -3   -1    0    0    0  501 -0.00000000000E+00 -0.00000000000E+00 -0.16095004384E+04  0.16095004416E+04  0.10100000000E+00 0.  1.
     200001    2    1    2    0    0 -0.78187849347E+02  0.84064344840E+02 -0.10549214003E+04  0.12706603057E+04  0.69895514729E+03 0.  0.
    5000001    2    3    3    0    0 -0.12219848990E+02  0.20243342135E+02 -0.20534634700E+03  0.28060845425E+03  0.18977582765E+03 0.  0.
        -11    1    4    4    0    0 -0.74675472137E+01  0.83607515449E+02 -0.25822379289E+02  0.87822412705E+02  0.51100000000E-03 0. -1.
     200002    1    4    4    0    0 -0.47523017760E+01 -0.63364173314E+02 -0.17952396771E+03  0.19278604155E+03  0.30000000000E+02 0. -1.
     200000    1    3    3    0    0 -0.65968000358E+02  0.63821002705E+02 -0.84957505327E+03  0.99005185147E+03  0.50000000000E+03 0.  1.
    -200001    1    1    2    0    0  0.78187849347E+02 -0.84064344840E+02 -0.16510597397E+03  0.72831321318E+03  0.70000000000E+03 0. -1.
<mgrwt>
<rscale>  0 0.15834861E+04</rscale>
<asrwt>0</asrwt>
<pdfrwt beam="1">  1        3 0.55639011E-01 0.15834861E+04</pdfrwt>
<pdfrwt beam="2">  1       -3 0.22992863E+00 0.15834861E+04</pdfrwt>
<totfact> 0.77225603E-01</totfact>
</mgrwt>
</event>
<event>
 8    1  0.1649749E-011  0.1718287E+04  0.7818608E-02  0.8751003E-01
          3   -1    0    0  501    0  0.00000000000E+00  0.00000000000E+00  0.39145881440E+03  0.39145882743E+03  0.10100000000E+00 0.  1.
         -3   -1    0    0    0  501 -0.00000000000E+00 -0.00000000000E+00 -0.18855818393E+04  0.18855818421E+04  0.10100000000E+00 0. -1.
     200001    2    1    2    0    0  0.29914559243E+03 -0.27340441829E+03 -0.36203109815E+03  0.88568514621E+03  0.69938086961E+03 0.  0.
    5000001    2    3    3    0    0  0.57872469230E+02 -0.77415911826E+01 -0.99342871132E+02  0.21651060821E+03  0.18329943397E+03 0.  0.
        -11    1    4    4    0    0 -0.67466705597E+01  0.28747763810E+01  0.50089746893E+02  0.50623755757E+02  0.51100000000E-03 0. -1.
     200002    1    4    4    0    0  0.64619139790E+02 -0.10616367564E+02 -0.14943261802E+03  0.16588685245E+03  0.30000000000E+02 0. -1.
     200000    1    3    3    0    0  0.24127312320E+03 -0.26566282711E+03 -0.26268822702E+03  0.66917453800E+03  0.50000000000E+03 0.  1.
    -200001    1    1    2    0    0 -0.29914559243E+03  0.27340441829E+03 -0.11320919268E+04  0.13913555233E+04  0.70000000000E+03 0.  1.
<mgrwt>
<rscale>  0 0.17182871E+04</rscale>
<asrwt>0</asrwt>
<pdfrwt beam="1">  1        3 0.55922690E-01 0.17182871E+04</pdfrwt>
<pdfrwt beam="2">  1       -3 0.26936883E+00 0.17182871E+04</pdfrwt>
<totfact> 0.44619511E-01</totfact>
</mgrwt>
</event>
<event>
 8    1  0.1649749E-011  0.1501948E+04  0.7818608E-02  0.8883159E-01
          3   -1    0    0  501    0  0.00000000000E+00  0.00000000000E+00  0.48794732793E+03  0.48794733838E+03  0.10100000000E+00 0.  1.
         -3   -1    0    0    0  501 -0.00000000000E+00 -0.00000000000E+00 -0.11557841585E+04  0.11557841629E+04  0.10100000000E+00 0. -1.
     200001    2    1    2    0    0  0.96242254515E+02 -0.24554256743E+03 -0.40540290883E+03  0.85099870443E+03  0.70020964894E+03 0.  0.
    5000001    2    3    3    0    0  0.27204983351E+02 -0.81358061277E+02 -0.11059208727E+03  0.24384459106E+03  0.19967556077E+03 0.  0.
        -11    1    4    4    0    0  0.95638480528E+02 -0.56995213140E-01 -0.90381073716E+02  0.13158822399E+03  0.51100000000E-03 0. -1.
     200002    1    4    4    0    0 -0.68433497176E+02 -0.81301066064E+02 -0.20211013550E+02  0.11225636707E+03  0.30000000000E+02 0. -1.
     200000    1    3    3    0    0  0.69037271163E+02 -0.16418450615E+03 -0.29481082156E+03  0.60715411337E+03  0.50000000000E+03 0.  1.
    -200001    1    1    2    0    0 -0.96242254515E+02  0.24554256743E+03 -0.26243392176E+03  0.79273279689E+03  0.70000000000E+03 0. -1.
<mgrwt>
<rscale>  0 0.15019478E+04</rscale>
<asrwt>0</asrwt>
<pdfrwt beam="1">  1        3 0.69706762E-01 0.15019478E+04</pdfrwt>
<pdfrwt beam="2">  1       -3 0.16511202E+00 0.15019478E+04</pdfrwt>
<totfact> 0.12541136E+00</totfact>
</mgrwt>
</event>
<event>
 8    1  0.1649749E-011  0.1733915E+04  0.7818608E-02  0.8742254E-01
         -3   -1    0    0    0  501 -0.00000000000E+00  0.00000000000E+00  0.15521251847E+04  0.15521251880E+04  0.10100000000E+00 0.  1.
          3   -1    0    0  501    0  0.00000000000E+00 -0.00000000000E+00 -0.48424938741E+03  0.48424939794E+03  0.10100000000E+00 0. -1.
     200001    2    1    2    0    0 -0.20671423545E+03  0.11827058773E+03  0.44490604296E+01  0.74115447655E+03  0.70183435148E+03 0.  0.
    5000001    2    3    3    0    0 -0.10813695793E+03  0.17726351726E+02 -0.23524700095E+02  0.22095340551E+03  0.19041840950E+03 0.  0.
        -11    1    4    4    0    0 -0.23807607085E+02  0.91704585451E+02  0.20197337183E+02  0.96873451355E+02  0.51100000000E-03 0. -1.
     200002    1    4    4    0    0 -0.84329350841E+02 -0.73978233725E+02 -0.43722037278E+02  0.12407995415E+03  0.30000000000E+02 0. -1.
     200000    1    3    3    0    0 -0.98577277525E+02  0.10054423601E+03  0.27973760525E+02  0.52020107105E+03  0.50000000000E+03 0. -1.
    -200001    1    1    2    0    0  0.20671423545E+03 -0.11827058773E+03  0.10634267368E+04  0.12952201093E+04  0.70000000000E+03 0.  1.
<mgrwt>
<rscale>  0 0.17339154E+04</rscale>
<asrwt>0</asrwt>
<pdfrwt beam="1">  1        3 0.69178484E-01 0.17339154E+04</pdfrwt>
<pdfrwt beam="2">  1       -3 0.22173217E+00 0.17339154E+04</pdfrwt>
<totfact> 0.53782240E-01</totfact>
</mgrwt>
</event>
<event>
 8    1  0.1649749E-011  0.1659638E+04  0.7818608E-02  0.8784725E-01
         -3   -1    0    0    0  501 -0.00000000000E+00  0.00000000000E+00  0.12376104662E+04  0.12376104704E+04  0.10100000000E+00 0. -1.
          3   -1    0    0  501    0  0.00000000000E+00 -0.00000000000E+00 -0.55639448153E+03  0.55639449070E+03  0.10100000000E+00 0.  1.
     200001    2    1    2    0    0 -0.10220995318E+03  0.10298497599E+03  0.79617666174E+03  0.10699409189E+04  0.69987392686E+03 0.  0.
    5000001    2    3    3    0    0  0.25633923628E+02  0.32222109187E+02  0.15095174758E+03  0.24068424576E+03  0.18288552074E+03 0.  0.
        -11    1    4    4    0    0 -0.58420745231E+02  0.58058551810E+02  0.11411985906E+03  0.14073777440E+03  0.51100000000E-03 0. -1.
     200002    1    4    4    0    0  0.84054668859E+02 -0.25836442623E+02  0.36831888521E+02  0.99946471356E+02  0.30000000000E+02 0. -1.
     200000    1    3    3    0    0 -0.12784387680E+03  0.70762866808E+02  0.64522491416E+03  0.82925667318E+03  0.50000000000E+03 0. -1.
    -200001    1    1    2    0    0  0.10220995318E+03 -0.10298497599E+03 -0.11496067704E+03  0.72406404211E+03  0.70000000000E+03 0.  1.
<mgrwt>
<rscale>  0 0.16596381E+04</rscale>
<asrwt>0</asrwt>
<pdfrwt beam="1">  1        3 0.79484927E-01 0.16596381E+04</pdfrwt>
<pdfrwt beam="2">  1       -3 0.17680150E+00 0.16596381E+04</pdfrwt>
<totfact> 0.77082301E-01</totfact>
</mgrwt>
</event>
<event>
 8    1  0.1649749E-011  0.1495147E+04  0.7818608E-02  0.8887687E-01
         -3   -1    0    0    0  501 -0.00000000000E+00  0.00000000000E+00  0.41101366736E+03  0.41101367977E+03  0.10100000000E+00 0. -1.
          3   -1    0    0  501    0  0.00000000000E+00 -0.00000000000E+00 -0.13597261311E+04  0.13597261349E+04  0.10100000000E+00 0.  1.
     200001    2    1    2    0    0  0.10881758950E+02 -0.23973778606E+03 -0.34842467841E+03  0.81788198476E+03  0.69995611699E+03 0.  0.
    5000001    2    3    3    0    0 -0.26863806028E+02 -0.27328917068E+02 -0.81152611306E+02  0.21127122557E+03  0.19126225621E+03 0.  0.
        -11    1    4    4    0    0 -0.10133571668E+03 -0.40663404135E+02 -0.68522298458E+02  0.12890983398E+03  0.51100000000E-03 0. -1.
     200002    1    4    4    0    0  0.74471910654E+02  0.13334487067E+02 -0.12630312848E+02  0.82361391589E+02  0.30000000000E+02 0. -1.
     200000    1    3    3    0    0  0.37745564978E+02 -0.21240886899E+03 -0.26727206711E+03  0.60661075918E+03  0.50000000000E+03 0. -1.
    -200001    1    1    2    0    0 -0.10881758950E+02  0.23973778606E+03 -0.60028778534E+03  0.95285782989E+03  0.70000000000E+03 0.  1.
<mgrwt>
<rscale>  0 0.14951469E+04</rscale>
<asrwt>0</asrwt>
<pdfrwt beam="1">  1        3 0.19424659E+00 0.14951469E+04</pdfrwt>
<pdfrwt beam="2">  1       -3 0.58716240E-01 0.14951469E+04</pdfrwt>
<totfact> 0.11595724E+00</totfact>
</mgrwt>
</event>
<event>
 8    1  0.1649749E-011  0.1557593E+04  0.7818608E-02  0.8847032E-01
         -3   -1    0    0    0  501 -0.00000000000E+00  0.00000000000E+00  0.84478318909E+03  0.84478319512E+03  0.10100000000E+00 0. -1.
          3   -1    0    0  501    0  0.00000000000E+00 -0.00000000000E+00 -0.71796449278E+03  0.71796449989E+03  0.10100000000E+00 0.  1.
     200001    2    1    2    0    0  0.29379816364E+03  0.10290435334E+02 -0.10746916751E+03  0.76819495469E+03  0.70153446988E+03 0.  0.
    5000001    2    3    3    0    0  0.15838375725E+03  0.41033156951E+02 -0.60644633172E+02  0.24716260118E+03  0.17504983679E+03 0.  0.
        -11    1    4    4    0    0  0.69613566767E+01  0.79930215294E+02 -0.15772181740E+02  0.81768340578E+02  0.51100000000E-03 0. -1.
     200002    1    4    4    0    0  0.15142240057E+03 -0.38897058344E+02 -0.44872451431E+02  0.16539426060E+03  0.30000000000E+02 0. -1.
     200000    1    3    3    0    0  0.13541440639E+03 -0.30742721617E+02 -0.46824534337E+02  0.52103235351E+03  0.50000000000E+03 0.  1.
    -200001    1    1    2    0    0 -0.29379816364E+03 -0.10290435334E+02  0.23428786382E+03  0.79455274032E+03  0.70000000000E+03 0.  1.
<mgrwt>
<rscale>  0 0.15575935E+04</rscale>
<asrwt>0</asrwt>
<pdfrwt beam="1">  1        3 0.10256636E+00 0.15575935E+04</pdfrwt>
<pdfrwt beam="2">  1       -3 0.12068331E+00 0.15575935E+04</pdfrwt>
<totfact> 0.11650788E+00</totfact>
</mgrwt>
</event>
<event>
 8    1  0.1649749E-011  0.1425725E+04  0.7818608E-02  0.8935405E-01
          3   -1    0    0  501    0  0.00000000000E+00  0.00000000000E+00  0.21350036354E+04  0.21350036378E+04  0.10100000000E+00 0.  1.
         -3   -1    0    0    0  501 -0.00000000000E+00 -0.00000000000E+00 -0.23801985080E+03  0.23801987223E+03  0.10100000000E+00 0. -1.
     200001    2    1    2    0    0 -0.58770669325E+02 -0.34167688021E+02  0.11153313990E+04  0.13215474644E+04  0.70562181710E+03 0.  0.
    5000001    2    3    3    0    0 -0.13017243240E+02  0.11081105193E+02  0.40656310980E+03  0.45178122170E+03  0.19626632547E+03 0.  0.
        -11    1    4    4    0    0  0.59900630135E+02  0.27504565213E+02  0.41388912347E+02  0.77830769389E+02  0.51100000000E-03 0. -1.
     200002    1    4    4    0    0 -0.72917873375E+02 -0.16423460020E+02  0.36517419745E+03  0.37395045231E+03  0.30000000000E+02 0. -1.
     200000    1    3    3    0    0 -0.45753426085E+02 -0.45248793214E+02  0.70876828915E+03  0.86976624273E+03  0.50000000000E+03 0.  1.
    -200001    1    1    2    0    0  0.58770669325E+02  0.34167688021E+02  0.78165238565E+03  0.10514760456E+04  0.70000000000E+03 0. -1.
<mgrwt>
<rscale>  0 0.14257255E+04</rscale>
<asrwt>0</asrwt>
<pdfrwt beam="1">  1        3 0.30500052E+00 0.14257255E+04</pdfrwt>
<pdfrwt beam="2">  1       -3 0.34002837E-01 0.14257255E+04</pdfrwt>
<totfact> 0.79734817E-01</totfact>
</mgrwt>
</event>
<event>
 8    1  0.1649749E-011  0.1743065E+04  0.7818608E-02  0.8737177E-01
         -3   -1    0    0    0  501 -0.00000000000E+00  0.00000000000E+00  0.75802630247E+03  0.75802630920E+03  0.10100000000E+00 0.  1.
          3   -1    0    0  501    0  0.00000000000E+00 -0.00000000000E+00 -0.10020351417E+04  0.10020351468E+04  0.10100000000E+00 0. -1.
     200001    2    1    2    0    0 -0.78874917875E+02 -0.51166488734E+03 -0.15596468966E+03  0.88497632763E+03  0.70059682160E+03 0.  0.
    5000001    2    3    3    0    0 -0.22182643855E+02 -0.15998217458E+03 -0.14147342890E+03  0.27088778269E+03  0.16516383943E+03 0.  0.
        -11    1    4    4    0    0 -0.60371644988E+02 -0.16667543446E+03 -0.13185041630E+03  0.22092978127E+03  0.51100000000E-03 0. -1.
     200002    1    4    4    0    0  0.38189001132E+02  0.66932598773E+01 -0.96230125942E+01  0.49958001428E+02  0.30000000000E+02 0. -1.
     200000    1    3    3    0    0 -0.56692274020E+02 -0.35168271276E+03 -0.14491260769E+02  0.61408854494E+03  0.50000000000E+03 0. -1.
    -200001    1    1    2    0    0  0.78874917875E+02  0.51166488734E+03 -0.88044149565E+02  0.87508512836E+03  0.70000000000E+03 0.  1.
<mgrwt>
<rscale>  0 0.17430651E+04</rscale>
<asrwt>0</asrwt>
<pdfrwt beam="1">  1        3 0.14314788E+00 0.17430651E+04</pdfrwt>
<pdfrwt beam="2">  1       -3 0.10828947E+00 0.17430651E+04</pdfrwt>
<totfact> 0.65988726E-01</totfact>
</mgrwt>
</event>
<event>
 8    1  0.1649749E-011  0.1790659E+04  0.7818608E-02  0.8711283E-01
         -3   -1    0    0    0  501 -0.00000000000E+00  0.00000000000E+00  0.88990198603E+03  0.88990199176E+03  0.10100000000E+00 0. -1.
          3   -1    0    0  501    0  0.00000000000E+00 -0.00000000000E+00 -0.90079009902E+03  0.90079010468E+03  0.10100000000E+00 0.  1.
     200001    2    1    2    0    0  0.29770181201E+03  0.21288185140E+03  0.41602223757E+03  0.89280708212E+03  0.70006066323E+03 0.  0.
    5000001    2    3    3    0    0  0.14835956001E+03  0.90190573018E+02  0.11906737444E+03  0.27999516256E+03  0.18459510527E+03 0.  0.
        -11    1    4    4    0    0  0.88861760861E+02  0.11677867742E+03  0.69738234300E+01  0.14690917690E+03  0.51100000000E-03 0. -1.
     200002    1    4    4    0    0  0.59497799152E+02 -0.26588104406E+02  0.11209355101E+03  0.13308598566E+03  0.30000000000E+02 0. -1.
     200000    1    3    3    0    0  0.14934225200E+03  0.12269127839E+03  0.29695486313E+03  0.61281191956E+03  0.50000000000E+03 0. -1.
    -200001    1    1    2    0    0 -0.29770181201E+03 -0.21288185140E+03 -0.42691035056E+03  0.89788501432E+03  0.70000000000E+03 0.  1.
<mgrwt>
<rscale>  0 0.17906590E+04</rscale>
<asrwt>0</asrwt>
<pdfrwt beam="1">  1        3 0.12868430E+00 0.17906590E+04</pdfrwt>
<pdfrwt beam="2">  1       -3 0.12712886E+00 0.17906590E+04</pdfrwt>
<totfact> 0.58237482E-01</totfact>
</mgrwt>
</event>
<event>
 8    1  0.1649749E-011  0.1543110E+04  0.7818608E-02  0.8856281E-01
          3   -1    0    0  501    0  0.00000000000E+00  0.00000000000E+00  0.72092215134E+03  0.72092215841E+03  0.10100000000E+00 0.  1.
         -3   -1    0    0    0  501 -0.00000000000E+00 -0.00000000000E+00 -0.82574377708E+03  0.82574378326E+03  0.10100000000E+00 0. -1.
     200001    2    1    2    0    0  0.25388079359E+02 -0.12777532213E+03  0.24536293683E+03  0.75319236594E+03  0.70008905278E+03 0.  0.
    5000001    2    3    3    0    0 -0.25513346808E+02 -0.35377944352E+02  0.13813879112E+03  0.23105708842E+03  0.18000700732E+03 0.  0.
        -11    1    4    4    0    0  0.35833990509E+02 -0.39444532251E+02  0.15216174163E+03  0.16122388662E+03  0.51100000000E-03 0. -1.
     200002    1    4    4    0    0 -0.61347337317E+02  0.40665878990E+01 -0.14022950507E+02  0.69833201802E+02  0.30000000000E+02 0. -1.
     200000    1    3    3    0    0  0.50901426167E+02 -0.92397377775E+02  0.10722414571E+03  0.52213527752E+03  0.50000000000E+03 0.  1.
    -200001    1    1    2    0    0 -0.25388079359E+02  0.12777532213E+03 -0.35018456257E+03  0.79347357573E+03  0.70000000000E+03 0. -1.
<mgrwt>
<rscale>  0 0.15431098E+04</rscale>
<asrwt>0</asrwt>
<pdfrwt beam="1">  1        3 0.10298888E+00 0.15431098E+04</pdfrwt>
<pdfrwt beam="2">  1       -3 0.11796340E+00 0.15431098E+04</pdfrwt>
<totfact> 0.12212193E+00</totfact>
</mgrwt>
</event>
<event>
 8    1  0.1649749E-011  0.1673214E+04  0.7818608E-02  0.8776791E-01
         -3   -1    0    0    0  501 -0.00000000000E+00  0.00000000000E+00  0.18640841932E+04  0.18640841959E+04  0.10100000000E+00 0. -1.
          3   -1    0    0  501    0  0.00000000000E+00 -0.00000000000E+00 -0.37547182739E+03  0.37547184097E+03  0.10100000000E+00 0.  1.
     200001    2    1    2    0    0  0.40278845021E+03 -0.18886191757E+03  0.59846240051E+03  0.10228907911E+04  0.70017209758E+03 0.  0.
    5000001    2    3    3    0    0 -0.18837238859E+02 -0.94462530598E+01  0.95490185667E+02  0.17853349043E+03  0.14937121001E+03 0.  0.
        -11    1    4    4    0    0 -0.43492846134E+02 -0.66759734523E+02  0.36761017198E+02  0.87748858705E+02  0.51100000000E-03 0. -1.
     200002    1    4    4    0    0  0.24655607275E+02  0.57313481463E+02  0.58729168469E+02  0.90784631720E+02  0.30000000000E+02 0. -1.
     200000    1    3    3    0    0  0.42162568907E+03 -0.17941566451E+03  0.50297221485E+03  0.84435730071E+03  0.50000000000E+03 0.  1.
    -200001    1    1    2    0    0 -0.40278845021E+03  0.18886191757E+03  0.89014996526E+03  0.12166652457E+04  0.70000000000E+03 0. -1.
<mgrwt>
<rscale>  0 0.16732138E+04</rscale>
<asrwt>0</asrwt>
<pdfrwt beam="1">  1        3 0.53638834E-01 0.16732138E+04</pdfrwt>
<pdfrwt beam="2">  1       -3 0.26629774E+00 0.16732138E+04</pdfrwt>
<totfact> 0.50850217E-01</totfact>
</mgrwt>
</event>
<event>
 8    1  0.1649749E-011  0.1648314E+04  0.7818608E-02  0.8791405E-01
          3   -1    0    0  501    0  0.00000000000E+00  0.00000000000E+00  0.10175679964E+04  0.10175680014E+04  0.10100000000E+00 0. -1.
         -3   -1    0    0    0  501 -0.00000000000E+00 -0.00000000000E+00 -0.66750757275E+03  0.66750758040E+03  0.10100000000E+00 0.  1.
     200001    2    1    2    0    0 -0.32193513036E+03  0.22775284688E+03 -0.10046841873E+02  0.80462636118E+03  0.70129099142E+03 0.  0.
    5000001    2    3    3    0    0 -0.19505506700E+02  0.12865288864E+03  0.12718697487E+02  0.21149673894E+03  0.16624402176E+03 0.  0.
        -11    1    4    4    0    0 -0.28666706187E+02  0.15938777301E+03 -0.96114582043E+01  0.16223015243E+03  0.51100000000E-03 0. -1.
     200002    1    4    4    0    0  0.91611994874E+01 -0.30734884369E+02  0.22330155691E+02  0.49266586511E+02  0.30000000000E+02 0. -1.
     200000    1    3    3    0    0 -0.30242962366E+03  0.99099958241E+02 -0.22765539360E+02  0.59312962224E+03  0.50000000000E+03 0.  1.
    -200001    1    1    2    0    0  0.32193513036E+03 -0.22775284688E+03  0.36010726551E+03  0.88044922062E+03  0.70000000000E+03 0. -1.
<mgrwt>
<rscale>  0 0.16483135E+04</rscale>
<asrwt>0</asrwt>
<pdfrwt beam="1">  1        3 0.14536686E+00 0.16483135E+04</pdfrwt>
<pdfrwt beam="2">  1       -3 0.95358227E-01 0.16483135E+04</pdfrwt>
<totfact> 0.86170718E-01</totfact>
</mgrwt>
</event>
<event>
 8    1  0.1649749E-011  0.1612169E+04  0.7818608E-02  0.8813107E-01
         -3   -1    0    0    0  501 -0.00000000000E+00  0.00000000000E+00  0.11781687547E+04  0.11781687590E+04  0.10100000000E+00 0.  1.
          3   -1    0    0  501    0  0.00000000000E+00 -0.00000000000E+00 -0.55151025090E+03  0.55151026015E+03  0.10100000000E+00 0. -1.
     200001    2    1    2    0    0  0.94718377654E+02 -0.16747561523E+03 -0.63275224180E+02  0.72816606280E+03  0.69943005959E+03 0.  0.
    5000001    2    3    3    0    0 -0.31846918567E+02 -0.11961667923E+03  0.25232932675E+02  0.20267301261E+03  0.15848429884E+03 0.  0.
        -11    1    4    4    0    0  0.15120150191E+02  0.23710659794E+02 -0.28246410086E+02  0.39858173725E+02  0.51100000000E-03 0. -1.
     200002    1    4    4    0    0 -0.46967068758E+02 -0.14332733903E+03  0.53479342761E+02  0.16281483889E+03  0.30000000000E+02 0. -1.
     200000    1    3    3    0    0  0.12656529622E+03 -0.47858935996E+02 -0.88508156854E+02  0.52549305018E+03  0.50000000000E+03 0. -1.
    -200001    1    1    2    0    0 -0.94718377654E+02  0.16747561523E+03  0.68993372795E+03  0.10015129563E+04  0.70000000000E+03 0.  1.
<mgrwt>
<rscale>  0 0.16121689E+04</rscale>
<asrwt>0</asrwt>
<pdfrwt beam="1">  1        3 0.78787179E-01 0.16121689E+04</pdfrwt>
<pdfrwt beam="2">  1       -3 0.16830982E+00 0.16121689E+04</pdfrwt>
<totfact> 0.90259366E-01</totfact>
</mgrwt>
</event>
<event>
 8    1  0.1649749E-011  0.1434299E+04  0.7818608E-02  0.8929358E-01
         -3   -1    0    0    0  501 -0.00000000000E+00  0.00000000000E+00  0.20855450662E+03  0.20855453108E+03  0.10100000000E+00 0. -1.
          3   -1    0    0  501    0  0.00000000000E+00 -0.00000000000E+00 -0.24660398056E+04  0.24660398076E+04  0.10100000000E+00 0.  1.
     200001    2    1    2    0    0 -0.12362858565E+03 -0.51412022901E+02 -0.12778732013E+04  0.14631625061E+04  0.69996955455E+03 0.  0.
    5000001    2    3    3    0    0  0.66497616243E+02 -0.57297904529E+02 -0.29113317797E+03  0.34073723467E+03  0.15374769249E+03 0.  0.
        -11    1    4    4    0    0  0.85379898838E+02  0.46045662795E+01 -0.23466982016E+03  0.24976159363E+03  0.51100000000E-03 0. -1.
     200002    1    4    4    0    0 -0.18882282595E+02 -0.61902470808E+02 -0.56463357807E+02  0.90975641042E+02  0.30000000000E+02 0. -1.
     200000    1    3    3    0    0 -0.19012620189E+03  0.58858816274E+01 -0.98674002330E+03  0.11224252714E+04  0.50000000000E+03 0. -1.
    -200001    1    1    2    0    0  0.12362858565E+03  0.51412022901E+02 -0.97961209767E+03  0.12114318327E+04  0.70000000000E+03 0. -1.
<mgrwt>
<rscale>  0 0.14342995E+04</rscale>
<asrwt>0</asrwt>
<pdfrwt beam="1">  1        3 0.35229139E+00 0.14342995E+04</pdfrwt>
<pdfrwt beam="2">  1       -3 0.29793504E-01 0.14342995E+04</pdfrwt>
<totfact> 0.56825136E-01</totfact>
</mgrwt>
</event>
<event>
 8    1  0.1649749E-011  0.1470924E+04  0.7818608E-02  0.8904021E-01
         -3   -1    0    0    0  501 -0.00000000000E+00  0.00000000000E+00  0.12294476968E+04  0.12294477009E+04  0.10100000000E+00 0. -1.
          3   -1    0    0  501    0  0.00000000000E+00 -0.00000000000E+00 -0.43995743977E+03  0.43995745136E+03  0.10100000000E+00 0.  1.
     200001    2    1    2    0    0 -0.39263102068E+02  0.15539639600E+03  0.57308202411E+03  0.91939038287E+03  0.70083238986E+03 0.  0.
    5000001    2    3    3    0    0 -0.25918040513E+02  0.18162690183E+03  0.14658110584E+03  0.26153845167E+03  0.11513585375E+03 0.  0.
        -11    1    4    4    0    0  0.31017009382E+02  0.11072964872E+03  0.10971848596E+03  0.15893790025E+03  0.51100000000E-03 0. -1.
     200002    1    4    4    0    0 -0.56935049896E+02  0.70897253111E+02  0.36862619881E+02  0.10260055141E+03  0.30000000000E+02 0. -1.
     200000    1    3    3    0    0 -0.13345061555E+02 -0.26230505830E+02  0.42650091827E+03  0.65785193120E+03  0.50000000000E+03 0. -1.
    -200001    1    1    2    0    0  0.39263102068E+02 -0.15539639600E+03  0.21640823290E+03  0.75001476942E+03  0.70000000000E+03 0.  1.
<mgrwt>
<rscale>  0 0.14709244E+04</rscale>
<asrwt>0</asrwt>
<pdfrwt beam="1">  1        3 0.62851064E-01 0.14709244E+04</pdfrwt>
<pdfrwt beam="2">  1       -3 0.17563539E+00 0.14709244E+04</pdfrwt>
<totfact> 0.13275034E+00</totfact>
</mgrwt>
</event>
<event>
 8    1  0.1649749E-011  0.1712135E+04  0.7818608E-02  0.8754473E-01
          3   -1    0    0  501    0  0.00000000000E+00  0.00000000000E+00  0.42137539385E+04  0.42137539397E+04  0.10100000000E+00 0.  1.
         -3   -1    0    0    0  501 -0.00000000000E+00 -0.00000000000E+00 -0.17391895134E+03  0.17391898066E+03  0.10100000000E+00 0. -1.
     200001    2    1    2    0    0 -0.12476104318E+03 -0.29443888610E+03  0.29780318257E+04  0.30763051119E+04  0.70194017611E+03 0.  0.
    5000001    2    3    3    0    0  0.31531024267E+02 -0.11084111882E+03  0.99914760743E+03  0.10210391680E+04  0.17591214322E+03 0.  0.
        -11    1    4    4    0    0 -0.18978880048E+02  0.35730761017E+02  0.37701851374E+03  0.37918312842E+03  0.51100000000E-03 0. -1.
     200002    1    4    4    0    0  0.50509904316E+02 -0.14657187984E+03  0.62212909368E+03  0.64185603962E+03  0.30000000000E+02 0. -1.
     200000    1    3    3    0    0 -0.15629206745E+03 -0.18359776728E+03  0.19788842183E+04  0.20552659438E+04  0.50000000000E+03 0.  1.
    -200001    1    1    2    0    0  0.12476104318E+03  0.29443888610E+03  0.10618031615E+04  0.13113678086E+04  0.70000000000E+03 0. -1.
<mgrwt>
<rscale>  0 0.17121352E+04</rscale>
<asrwt>0</asrwt>
<pdfrwt beam="1">  1        3 0.60196483E+00 0.17121352E+04</pdfrwt>
<pdfrwt beam="2">  1       -3 0.24845567E-01 0.17121352E+04</pdfrwt>
<totfact> 0.43288706E-02</totfact>
</mgrwt>
</event>
<event>
 8    1  0.1649749E-011  0.1655229E+04  0.7818608E-02  0.8787319E-01
          3   -1    0    0  501    0  0.00000000000E+00  0.00000000000E+00  0.52866172848E+03  0.52866173813E+03  0.10100000000E+00 0.  1.
         -3   -1    0    0    0  501 -0.00000000000E+00 -0.00000000000E+00 -0.12956224626E+04  0.12956224665E+04  0.10100000000E+00 0. -1.
     200001    2    1    2    0    0 -0.33955211939E+03  0.23200299148E+03 -0.56354373008E+03  0.98732571858E+03  0.69864834432E+03 0.  0.
    5000001    2    3    3    0    0 -0.11179506972E+03  0.12882242509E+03 -0.96323335341E+02  0.25875561199E+03  0.16906486029E+03 0.  0.
        -11    1    4    4    0    0 -0.13081530816E+03  0.41716078338E+02 -0.90616384142E+02  0.16451202119E+03  0.51100000000E-03 0. -1.
     200002    1    4    4    0    0  0.19020238438E+02  0.87106346752E+02 -0.57069511996E+01  0.94243590799E+02  0.30000000000E+02 0. -1.
     200000    1    3    3    0    0 -0.22775704967E+03  0.10318056639E+03 -0.46722039474E+03  0.72857010659E+03  0.50000000000E+03 0. -1.
    -200001    1    1    2    0    0  0.33955211939E+03 -0.23200299148E+03 -0.20341700399E+03  0.83695848604E+03  0.70000000000E+03 0.  1.
<mgrwt>
<rscale>  0 0.16552293E+04</rscale>
<asrwt>0</asrwt>
<pdfrwt beam="1">  1        3 0.75523106E-01 0.16552293E+04</pdfrwt>
<pdfrwt beam="2">  1       -3 0.18508892E+00 0.16552293E+04</pdfrwt>
<totfact> 0.75995195E-01</totfact>
</mgrwt>
</event>
<event>
 8    1  0.1649749E-011  0.1534609E+04  0.7818608E-02  0.8861759E-01
         -3   -1    0    0    0  501 -0.00000000000E+00  0.00000000000E+00  0.14076148136E+04  0.14076148172E+04  0.10100000000E+00 0. -1.
          3   -1    0    0  501    0  0.00000000000E+00 -0.00000000000E+00 -0.41826527791E+03  0.41826529010E+03  0.10100000000E+00 0.  1.
     200001    2    1    2    0    0 -0.30970378017E+03  0.16719001892E+02  0.56395634319E+03  0.95000607261E+03  0.69876235194E+03 0.  0.
    5000001    2    3    3    0    0 -0.37371411113E+02 -0.38414541269E+02  0.19244001795E+03  0.26792909254E+03  0.17855122170E+03 0.  0.
        -11    1    4    4    0    0 -0.72323788081E+02 -0.33221412720E+02  0.10621102992E+02  0.80294460672E+02  0.51100000000E-03 0. -1.
     200002    1    4    4    0    0  0.34952376968E+02 -0.51931285488E+01  0.18181891496E+03  0.18763463187E+03  0.30000000000E+02 0. -1.
     200000    1    3    3    0    0 -0.27233236906E+03  0.55133543161E+02  0.37151632524E+03  0.68207698007E+03  0.50000000000E+03 0.  1.
    -200001    1    1    2    0    0  0.30970378017E+03 -0.16719001892E+02  0.42539319252E+03  0.87587403473E+03  0.70000000000E+03 0. -1.
<mgrwt>
<rscale>  0 0.15346093E+04</rscale>
<asrwt>0</asrwt>
<pdfrwt beam="1">  1        3 0.59752184E-01 0.15346093E+04</pdfrwt>
<pdfrwt beam="2">  1       -3 0.20108783E+00 0.15346093E+04</pdfrwt>
<totfact> 0.10020644E+00</totfact>
</mgrwt>
</event>
<event>
 8    1  0.1649749E-011  0.1496939E+04  0.7818608E-02  0.8886491E-01
         -3   -1    0    0    0  501 -0.00000000000E+00  0.00000000000E+00  0.29869027362E+04  0.29869027379E+04  0.10100000000E+00 0. -1.
          3   -1    0    0  501    0  0.00000000000E+00 -0.00000000000E+00 -0.18755431164E+03  0.18755433884E+03  0.10100000000E+00 0.  1.
     200001    2    1    2    0    0 -0.19537156962E+03 -0.51652135922E+02  0.10409802095E+04  0.12711187534E+04  0.70090305702E+03 0.  0.
    5000001    2    3    3    0    0 -0.12402088594E+03 -0.39692794044E+02  0.30930616918E+03  0.38197261964E+03  0.18241731774E+03 0.  0.
        -11    1    4    4    0    0 -0.14903095635E+03  0.24311981626E+00  0.28382963762E+03  0.32057689912E+03  0.51100000000E-03 0. -1.
     200002    1    4    4    0    0  0.25010070406E+02 -0.39935913860E+02  0.25476531557E+02  0.61395720516E+02  0.30000000000E+02 0. -1.
     200000    1    3    3    0    0 -0.71350683675E+02 -0.11959341878E+02  0.73167404032E+03  0.88914613377E+03  0.50000000000E+03 0.  1.
    -200001    1    1    2    0    0  0.19537156962E+03  0.51652135922E+02  0.17583682151E+04  0.19033383233E+04  0.70000000000E+03 0. -1.
<mgrwt>
<rscale>  0 0.14969389E+04</rscale>
<asrwt>0</asrwt>
<pdfrwt beam="1">  1        3 0.26793475E-01 0.14969389E+04</pdfrwt>
<pdfrwt beam="2">  1       -3 0.42670040E+00 0.14969389E+04</pdfrwt>
<totfact> 0.26067912E-01</totfact>
</mgrwt>
</event>
<event>
 8    1  0.1649749E-011  0.2778533E+04  0.7818608E-02  0.8309964E-01
         -3   -1    0    0    0  501 -0.00000000000E+00  0.00000000000E+00  0.11231953500E+04  0.11231953545E+04  0.10100000000E+00 0.  1.
          3   -1    0    0  501    0  0.00000000000E+00 -0.00000000000E+00 -0.17183664280E+04  0.17183664310E+04  0.10100000000E+00 0. -1.
     200001    2    1    2    0    0  0.29913288723E+03 -0.11534540550E+04 -0.15217779017E+03  0.13902934456E+04  0.69987216239E+03 0.  0.
    5000001    2    3    3    0    0  0.11240709969E+03 -0.30615490076E+03  0.93222506687E+02  0.35927274633E+03  0.11840731052E+03 0.  0.
        -11    1    4    4    0    0  0.72199702995E+01 -0.83634596731E+02  0.71684657146E+02  0.11038824128E+03  0.51100000000E-03 0. -1.
     200002    1    4    4    0    0  0.10518712939E+03 -0.22252030403E+03  0.21537849541E+02  0.24888450506E+03  0.30000000000E+02 0. -1.
     200000    1    3    3    0    0  0.18672578754E+03 -0.84729915429E+03 -0.24540029685E+03  0.10310206993E+04  0.50000000000E+03 0. -1.
    -200001    1    1    2    0    0 -0.29913288723E+03  0.11534540550E+04 -0.44299328785E+03  0.14512683399E+04  0.70000000000E+03 0. -1.
<mgrwt>
<rscale>  0 0.27785328E+04</rscale>
<asrwt>0</asrwt>
<pdfrwt beam="1">  1        3 0.24548092E+00 0.27785328E+04</pdfrwt>
<pdfrwt beam="2">  1       -3 0.16045648E+00 0.27785328E+04</pdfrwt>
<totfact> 0.48519679E-02</totfact>
</mgrwt>
</event>
<event>
 8    1  0.1649749E-011  0.1511251E+04  0.7818608E-02  0.8877005E-01
          3   -1    0    0  501    0  0.00000000000E+00  0.00000000000E+00  0.24071867304E+04  0.24071867325E+04  0.10100000000E+00 0. -1.
         -3   -1    0    0    0  501 -0.00000000000E+00 -0.00000000000E+00 -0.23719391057E+03  0.23719393207E+03  0.10100000000E+00 0.  1.
     200001    2    1    2    0    0 -0.20869684242E+03 -0.25685728488E+02  0.74453255298E+03  0.10424595988E+04  0.69869819233E+03 0.  0.
    5000001    2    3    3    0    0  0.38286022570E+02 -0.49637660195E+02  0.34646398528E+02  0.13940224573E+03  0.11959471706E+03 0.  0.
        -11    1    4    4    0    0  0.17074524800E+02  0.14492895446E+01 -0.38961025236E+02  0.42562910204E+02  0.51100000000E-03 0. -1.
     200002    1    4    4    0    0  0.21211497770E+02 -0.51086949740E+02  0.73607423764E+02  0.96839335523E+02  0.30000000000E+02 0. -1.
     200000    1    3    3    0    0 -0.24698286499E+03  0.23951931707E+02  0.70988615445E+03  0.90305735306E+03  0.50000000000E+03 0.  1.
    -200001    1    1    2    0    0  0.20869684242E+03  0.25685728488E+02  0.14254602669E+04  0.16019210658E+04  0.70000000000E+03 0. -1.
<mgrwt>
<rscale>  0 0.15112512E+04</rscale>
<asrwt>0</asrwt>
<pdfrwt beam="1">  1        3 0.34388383E+00 0.15112512E+04</pdfrwt>
<pdfrwt beam="2">  1       -3 0.33884845E-01 0.15112512E+04</pdfrwt>
<totfact> 0.48968340E-01</totfact>
</mgrwt>
</event>
<event>
 8    1  0.1649749E-011  0.1502085E+04  0.7818608E-02  0.8883068E-01
         -3   -1    0    0    0  501 -0.00000000000E+00  0.00000000000E+00  0.44040433481E+03  0.44040434639E+03  0.10100000000E+00 0. -1.
          3   -1    0    0  501    0  0.00000000000E+00 -0.00000000000E+00 -0.12807881190E+04  0.12807881230E+04  0.10100000000E+00 0.  1.
     200001    2    1    2    0    0 -0.80799917293E+02 -0.25731223245E+03 -0.39070550047E+03  0.84657897162E+03  0.70093291797E+03 0.  0.
    5000001    2    3    3    0    0  0.41107551401E+02 -0.92034045183E+02 -0.23363339271E+02  0.19303587931E+03  0.16296290628E+03 0.  0.
        -11    1    4    4    0    0  0.96016682081E+02 -0.25469086617E+02 -0.21623239589E+02  0.10166337640E+03  0.51100000000E-03 0. -1.
     200002    1    4    4    0    0 -0.54909130680E+02 -0.66564958566E+02 -0.17400996814E+01  0.91372502909E+02  0.30000000000E+02 0. -1.
     200000    1    3    3    0    0 -0.12190746869E+03 -0.16527818726E+03 -0.36734216120E+03  0.65354309231E+03  0.50000000000E+03 0.  1.
    -200001    1    1    2    0    0  0.80799917293E+02  0.25731223245E+03 -0.44967828372E+03  0.87461349775E+03  0.70000000000E+03 0. -1.
<mgrwt>
<rscale>  0 0.15020848E+04</rscale>
<asrwt>0</asrwt>
<pdfrwt beam="1">  1        3 0.18296973E+00 0.15020848E+04</pdfrwt>
<pdfrwt beam="2">  1       -3 0.62914907E-01 0.15020848E+04</pdfrwt>
<totfact> 0.11854514E+00</totfact>
</mgrwt>
</event>
<event>
 8    1  0.1649749E-011  0.1445763E+04  0.7818608E-02  0.8921343E-01
         -3   -1    0    0    0  501 -0.00000000000E+00  0.00000000000E+00  0.17048913324E+04  0.17048913354E+04  0.10100000000E+00 0. -1.
          3   -1    0    0  501    0  0.00000000000E+00 -0.00000000000E+00 -0.30650497331E+03  0.30650498995E+03  0.10100000000E+00 0.  1.
     200001    2    1    2    0    0  0.17376941856E+02  0.15724974476E+03  0.58091681697E+03  0.92360687299E+03  0.70039693551E+03 0.  0.
    5000001    2    3    3    0    0 -0.36516300229E+02 -0.38023214595E+01  0.27135629516E+03  0.31150396805E+03  0.14850112914E+03 0.  0.
        -11    1    4    4    0    0 -0.11458165227E+02 -0.19259796402E+02  0.26843487664E+03  0.26936872926E+03  0.51100000000E-03 0. -1.
     200002    1    4    4    0    0 -0.25058135002E+02  0.15457474943E+02  0.29214185194E+01  0.42135238786E+02  0.30000000000E+02 0. -1.
     200000    1    3    3    0    0  0.53893242085E+02  0.16105206622E+03  0.30956052180E+03  0.61210290494E+03  0.50000000000E+03 0.  1.
    -200001    1    1    2    0    0 -0.17376941856E+02 -0.15724974476E+03  0.81746954210E+03  0.10877894523E+04  0.70000000000E+03 0. -1.
<mgrwt>
<rscale>  0 0.14457630E+04</rscale>
<asrwt>0</asrwt>
<pdfrwt beam="1">  1        3 0.43786425E-01 0.14457630E+04</pdfrwt>
<pdfrwt beam="2">  1       -3 0.24355591E+00 0.14457630E+04</pdfrwt>
<totfact> 0.10588621E+00</totfact>
</mgrwt>
</event>
<event>
 8    1  0.1649749E-011  0.1869552E+04  0.7818608E-02  0.8670162E-01
         -3   -1    0    0    0  501 -0.00000000000E+00  0.00000000000E+00  0.63112577054E+03  0.63112577862E+03  0.10100000000E+00 0. -1.
          3   -1    0    0  501    0  0.00000000000E+00 -0.00000000000E+00 -0.13845199787E+04  0.13845199824E+04  0.10100000000E+00 0.  1.
     200001    2    1    2    0    0 -0.52265185365E+03  0.17610898739E+03 -0.71555771836E+02  0.89355708857E+03  0.69938880924E+03 0.  0.
    5000001    2    3    3    0    0 -0.13760250441E+03  0.54840867327E+01 -0.52274417084E+02  0.23953290805E+03  0.18888852514E+03 0.  0.
        -11    1    4    4    0    0 -0.37018513131E+02 -0.32172572102E+02  0.62540359461E+02  0.79477929464E+02  0.51100000000E-03 0. -1.
     200002    1    4    4    0    0 -0.10058399128E+03  0.37656658834E+02 -0.11481477655E+03  0.16005497858E+03  0.30000000000E+02 0. -1.
     200000    1    3    3    0    0 -0.38504934924E+03  0.17062490066E+03 -0.19281354753E+02  0.65402418053E+03  0.50000000000E+03 0. -1.
    -200001    1    1    2    0    0  0.52265185365E+03 -0.17610898739E+03 -0.68183843633E+03  0.11220886724E+04  0.70000000000E+03 0.  1.
<mgrwt>
<rscale>  0 0.18695521E+04</rscale>
<asrwt>0</asrwt>
<pdfrwt beam="1">  1        3 0.19778857E+00 0.18695521E+04</pdfrwt>
<pdfrwt beam="2">  1       -3 0.90160826E-01 0.18695521E+04</pdfrwt>
<totfact> 0.41754036E-01</totfact>
</mgrwt>
</event>
<event>
 8    1  0.1649749E-011  0.1505418E+04  0.7818608E-02  0.8880858E-01
         -3   -1    0    0    0  501 -0.00000000000E+00  0.00000000000E+00  0.17493899787E+03  0.17493902702E+03  0.10100000000E+00 0. -1.
          3   -1    0    0  501    0  0.00000000000E+00 -0.00000000000E+00 -0.32386754550E+04  0.32386754566E+04  0.10100000000E+00 0.  1.
     200001    2    1    2    0    0  0.20501663387E+03 -0.16379134908E+03 -0.17367509275E+04  0.18905419239E+04  0.69927502152E+03 0.  0.
    5000001    2    3    3    0    0  0.12838037546E+03 -0.82843582436E+02 -0.69667777348E+03  0.73115509341E+03  0.16088278532E+03 0.  0.
        -11    1    4    4    0    0  0.99318933077E+02  0.82080049810E+01 -0.50646108931E+03  0.51617289429E+03  0.51100000000E-03 0. -1.
     200002    1    4    4    0    0  0.29061442385E+02 -0.91051587417E+02 -0.19021668417E+03  0.21498219912E+03  0.30000000000E+02 0. -1.
     200000    1    3    3    0    0  0.76636258407E+02 -0.80947766643E+02 -0.10400731540E+04  0.11593868305E+04  0.50000000000E+03 0.  1.
    -200001    1    1    2    0    0 -0.20501663387E+03  0.16379134908E+03 -0.13269855296E+04  0.15230725597E+04  0.70000000000E+03 0. -1.
<mgrwt>
<rscale>  0 0.15054178E+04</rscale>
<asrwt>0</asrwt>
<pdfrwt beam="1">  1        3 0.46266789E+00 0.15054178E+04</pdfrwt>
<pdfrwt beam="2">  1       -3 0.24991290E-01 0.15054178E+04</pdfrwt>
<totfact> 0.20684987E-01</totfact>
</mgrwt>
</event>
<event>
 8    1  0.1649749E-011  0.1733699E+04  0.7818608E-02  0.8742375E-01
         -3   -1    0    0    0  501 -0.00000000000E+00  0.00000000000E+00  0.16715129352E+04  0.16715129383E+04  0.10100000000E+00 0. -1.
          3   -1    0    0  501    0  0.00000000000E+00 -0.00000000000E+00 -0.44954939909E+03  0.44954941043E+03  0.10100000000E+00 0.  1.
     200001    2    1    2    0    0 -0.45669328531E+03 -0.16525330803E+03  0.80620454001E+03  0.11730470769E+04  0.70014018004E+03 0.  0.
    5000001    2    3    3    0    0 -0.17350777307E+03 -0.52130100824E+02  0.23657231932E+03  0.35605762706E+03  0.19490530212E+03 0.  0.
        -11    1    4    4    0    0 -0.19547894775E+03 -0.87773644544E+02  0.19738052756E+03  0.29133366498E+03  0.51100000000E-03 0. -1.
     200002    1    4    4    0    0  0.21971174686E+02  0.35643543719E+02  0.39191791757E+02  0.64723962078E+02  0.30000000000E+02 0. -1.
     200000    1    3    3    0    0 -0.28318551224E+03 -0.11312320720E+03  0.56963222069E+03  0.81698944987E+03  0.50000000000E+03 0. -1.
    -200001    1    1    2    0    0  0.45669328531E+03  0.16525330803E+03  0.41575899612E+03  0.94801527177E+03  0.70000000000E+03 0.  1.
<mgrwt>
<rscale>  0 0.17336985E+04</rscale>
<asrwt>0</asrwt>
<pdfrwt beam="1">  1        3 0.64221341E-01 0.17336985E+04</pdfrwt>
<pdfrwt beam="2">  1       -3 0.23878757E+00 0.17336985E+04</pdfrwt>
<totfact> 0.49955140E-01</totfact>
</mgrwt>
</event>
<event>
 8    1  0.1649749E-011  0.1425667E+04  0.7818608E-02  0.8935446E-01
          3   -1    0    0  501    0  0.00000000000E+00  0.00000000000E+00  0.25286047727E+03  0.25286049744E+03  0.10100000000E+00 0. -1.
         -3   -1    0    0    0  501 -0.00000000000E+00 -0.00000000000E+00 -0.20095336998E+04  0.20095337023E+04  0.10100000000E+00 0.  1.
     200001    2    1    2    0    0  0.52670388701E+01 -0.37118006983E+02 -0.67427526796E+03  0.97282418609E+03  0.70023872495E+03 0.  0.
    5000001    2    3    3    0    0 -0.61415797523E+02  0.16822151157E+02 -0.31552774046E+03  0.35149019392E+03  0.14118327263E+03 0.  0.
        -11    1    4    4    0    0 -0.56792621030E+02 -0.12474255927E+02 -0.30146597222E+03  0.30702237910E+03  0.51100000000E-03 0. -1.
     200002    1    4    4    0    0 -0.46231764931E+01  0.29296407084E+02 -0.14061768241E+02  0.44467814821E+02  0.30000000000E+02 0. -1.
     200000    1    3    3    0    0  0.66682836393E+02 -0.53940158140E+02 -0.35874752750E+03  0.62133399216E+03  0.50000000000E+03 0. -1.
    -200001    1    1    2    0    0 -0.52670388701E+01  0.37118006983E+02 -0.10823979546E+04  0.12895700137E+04  0.70000000000E+03 0.  1.
<mgrwt>
<rscale>  0 0.14256671E+04</rscale>
<asrwt>0</asrwt>
<pdfrwt beam="1">  1        3 0.36122928E-01 0.14256671E+04</pdfrwt>
<pdfrwt beam="2">  1       -3 0.28707623E+00 0.14256671E+04</pdfrwt>
<totfact> 0.87599382E-01</totfact>
</mgrwt>
</event>
<event>
 8    1  0.1649749E-011  0.1518783E+04  0.7818608E-02  0.8872058E-01
          3   -1    0    0  501    0  0.00000000000E+00  0.00000000000E+00  0.14989727741E+04  0.14989727775E+04  0.10100000000E+00 0. -1.
         -3   -1    0    0    0  501 -0.00000000000E+00 -0.00000000000E+00 -0.38471355519E+03  0.38471356845E+03  0.10100000000E+00 0.  1.
     200001    2    1    2    0    0  0.27341200970E+03 -0.44602044477E+02  0.66751889241E+03  0.10082890712E+04  0.70308030115E+03 0.  0.
    5000001    2    3    3    0    0  0.17743305825E+01 -0.53629916652E+02  0.17782749739E+03  0.25751201134E+03  0.17835498576E+03 0.  0.
        -11    1    4    4    0    0  0.67530934624E+02 -0.30309729936E+02  0.11822078339E+02  0.74959111498E+02  0.51100000000E-03 0. -1.
     200002    1    4    4    0    0 -0.65756604042E+02 -0.23320186716E+02  0.16600541906E+03  0.18255289984E+03  0.30000000000E+02 0. -1.
     200000    1    3    3    0    0  0.27163767911E+03  0.90278721747E+01  0.48969139502E+03  0.75077705981E+03  0.50000000000E+03 0. -1.
    -200001    1    1    2    0    0 -0.27341200970E+03  0.44602044477E+02  0.44674032650E+03  0.87539727481E+03  0.70000000000E+03 0.  1.
<mgrwt>
<rscale>  0 0.15187826E+04</rscale>
<asrwt>0</asrwt>
<pdfrwt beam="1">  1        3 0.21413897E+00 0.15187826E+04</pdfrwt>
<pdfrwt beam="2">  1       -3 0.54959080E-01 0.15187826E+04</pdfrwt>
<totfact> 0.99886636E-01</totfact>
</mgrwt>
</event>
<event>
 8    1  0.1649749E-011  0.1579232E+04  0.7818608E-02  0.8833409E-01
          3   -1    0    0  501    0  0.00000000000E+00  0.00000000000E+00  0.43327291239E+03  0.43327292416E+03  0.10100000000E+00 0.  1.
         -3   -1    0    0    0  501 -0.00000000000E+00 -0.00000000000E+00 -0.14390307484E+04  0.14390307520E+04  0.10100000000E+00 0. -1.
     200001    2    1    2    0    0  0.19420325151E+03  0.26063415966E+02 -0.86874388872E+03  0.11325962838E+04  0.69976009693E+03 0.  0.
    5000001    2    3    3    0    0  0.50325470906E+02  0.17205293182E+02 -0.36891469248E+03  0.41106422799E+03  0.17334091864E+03 0.  0.
        -11    1    4    4    0    0  0.96836597733E+02  0.81018356667E+01 -0.11282660109E+03  0.14890536698E+03  0.51100000000E-03 0. -1.
     200002    1    4    4    0    0 -0.46511126826E+02  0.91034575150E+01 -0.25608809138E+03  0.26215886101E+03  0.30000000000E+02 0. -1.
     200000    1    3    3    0    0  0.14387778060E+03  0.88581227846E+01 -0.49982919624E+03  0.72153205577E+03  0.50000000000E+03 0.  1.
    -200001    1    1    2    0    0 -0.19420325151E+03 -0.26063415966E+02 -0.13701394730E+03  0.73970739235E+03  0.70000000000E+03 0.  1.
<mgrwt>
<rscale>  0 0.15792315E+04</rscale>
<asrwt>0</asrwt>
<pdfrwt beam="1">  1        3 0.61896132E-01 0.15792315E+04</pdfrwt>
<pdfrwt beam="2">  1       -3 0.20557582E+00 0.15792315E+04</pdfrwt>
<totfact> 0.86857109E-01</totfact>
</mgrwt>
</event>
<event>
 8    1  0.1649749E-011  0.1651280E+04  0.7818608E-02  0.8789650E-01
          3   -1    0    0  501    0  0.00000000000E+00  0.00000000000E+00  0.67261484436E+03  0.67261485194E+03  0.10100000000E+00 0. -1.
         -3   -1    0    0    0  501 -0.00000000000E+00 -0.00000000000E+00 -0.10134796317E+04  0.10134796367E+04  0.10100000000E+00 0.  1.
     200001    2    1    2    0    0 -0.37408492454E+03  0.16291583031E+03 -0.33174008482E+03  0.87580789815E+03  0.70036197216E+03 0.  0.
    5000001    2    3    3    0    0 -0.86712942559E+02  0.16891408367E+02 -0.64523511114E+02  0.22364956991E+03  0.19506766146E+03 0.  0.
        -11    1    4    4    0    0  0.41479402883E+02 -0.80258976763E+01  0.36506777061E+02  0.55836374064E+02  0.51100000000E-03 0. -1.
     200002    1    4    4    0    0 -0.12819234544E+03  0.24917306044E+02 -0.10103028817E+03  0.16781319584E+03  0.30000000000E+02 0. -1.
     200000    1    3    3    0    0 -0.28737198198E+03  0.14602442194E+03 -0.26721657370E+03  0.65215832824E+03  0.50000000000E+03 0.  1.
    -200001    1    1    2    0    0  0.37408492454E+03 -0.16291583031E+03 -0.91247024888E+01  0.81028659049E+03  0.70000000000E+03 0. -1.
<mgrwt>
<rscale>  0 0.16512801E+04</rscale>
<asrwt>0</asrwt>
<pdfrwt beam="1">  1        3 0.96087836E-01 0.16512801E+04</pdfrwt>
<pdfrwt beam="2">  1       -3 0.14478281E+00 0.16512801E+04</pdfrwt>
<totfact> 0.85357879E-01</totfact>
</mgrwt>
</event>
<event>
 8    1  0.1649749E-011  0.2985803E+04  0.7818608E-02  0.8247797E-01
          3   -1    0    0  501    0  0.00000000000E+00  0.00000000000E+00  0.19029063461E+04  0.19029063488E+04  0.10100000000E+00 0.  1.
         -3   -1    0    0    0  501 -0.00000000000E+00 -0.00000000000E+00 -0.11712369428E+04  0.11712369472E+04  0.10100000000E+00 0. -1.
     200001    2    1    2    0    0  0.26110044631E+03  0.87362242894E+03  0.13463480206E+04  0.17706021980E+04  0.70070647173E+03 0.  0.
    5000001    2    3    3    0    0  0.60146116837E+02  0.34045029710E+03  0.37646580384E+03  0.53961613832E+03  0.17301767281E+03 0.  0.
        -11    1    4    4    0    0  0.12992887437E+02  0.85098481708E+02  0.21691812792E+03  0.23337532203E+03  0.51100000000E-03 0. -1.
     200002    1    4    4    0    0  0.47153229400E+02  0.25535181540E+03  0.15954767592E+03  0.30624081628E+03  0.30000000000E+02 0. -1.
     200000    1    3    3    0    0  0.20095432948E+03  0.53317213184E+03  0.96988221675E+03  0.12309860597E+04  0.50000000000E+03 0.  1.
    -200001    1    1    2    0    0 -0.26110044631E+03 -0.87362242894E+03 -0.61467861732E+03  0.13035410979E+04  0.70000000000E+03 0. -1.
<mgrwt>
<rscale>  0 0.29858026E+04</rscale>
<asrwt>0</asrwt>
<pdfrwt beam="1">  1        3 0.27184376E+00 0.29858026E+04</pdfrwt>
<pdfrwt beam="2">  1       -3 0.16731956E+00 0.29858026E+04</pdfrwt>
<totfact> 0.30131379E-02</totfact>
</mgrwt>
</event>
<event>
 8    1  0.1649749E-011  0.2071678E+04  0.7818608E-02  0.8573823E-01
         -3   -1    0    0    0  501 -0.00000000000E+00  0.00000000000E+00  0.16522799989E+04  0.16522800020E+04  0.10100000000E+00 0. -1.
          3   -1    0    0  501    0  0.00000000000E+00 -0.00000000000E+00 -0.64938315763E+03  0.64938316548E+03  0.10100000000E+00 0.  1.
     200001    2    1    2    0    0  0.43212186898E+03  0.84372891321E+02 -0.19286143325E+03  0.84781106168E+03  0.69838382672E+03 0.  0.
    5000001    2    3    3    0    0  0.89004160668E+02 -0.42938457891E+02 -0.72907093170E+02  0.21667954995E+03  0.17851927444E+03 0.  0.
        -11    1    4    4    0    0 -0.29128498188E+02  0.22250150442E+02  0.27513161691E+02  0.45831350274E+02  0.51100000000E-03 0. -1.
     200002    1    4    4    0    0  0.11813265886E+03 -0.65188608333E+02 -0.10042025486E+03  0.17084819967E+03  0.30000000000E+02 0. -1.
     200000    1    3    3    0    0  0.34311770832E+03  0.12731134921E+03 -0.11995434008E+03  0.63113151173E+03  0.50000000000E+03 0.  1.
    -200001    1    1    2    0    0 -0.43212186898E+03 -0.84372891321E+02  0.11957582745E+04  0.14538521058E+04  0.70000000000E+03 0. -1.
<mgrwt>
<rscale>  0 0.20716784E+04</rscale>
<asrwt>0</asrwt>
<pdfrwt beam="1">  1        3 0.92769023E-01 0.20716784E+04</pdfrwt>
<pdfrwt beam="2">  1       -3 0.23604000E+00 0.20716784E+04</pdfrwt>
<totfact> 0.22333879E-01</totfact>
</mgrwt>
</event>
<event>
 8    1  0.1649749E-011  0.1897051E+04  0.7818608E-02  0.8656326E-01
         -3   -1    0    0    0  501 -0.00000000000E+00  0.00000000000E+00  0.69303352771E+03  0.69303353507E+03  0.10100000000E+00 0.  1.
          3   -1    0    0  501    0  0.00000000000E+00 -0.00000000000E+00 -0.12982067960E+04  0.12982068000E+04  0.10100000000E+00 0. -1.
     200001    2    1    2    0    0 -0.29681407161E+03  0.50944734167E+03 -0.40777797241E+02  0.91598341930E+03  0.69980540770E+03 0.  0.
    5000001    2    3    3    0    0 -0.12408143321E+03  0.20500178600E+03 -0.72415474959E+02  0.30481682713E+03  0.17391768961E+03 0.  0.
        -11    1    4    4    0    0 -0.69025764673E+02  0.20055252690E+03 -0.43156695692E+01  0.21214263418E+03  0.51100000000E-03 0. -1.
     200002    1    4    4    0    0 -0.55055668537E+02  0.44492591005E+01 -0.68099805390E+02  0.92674192949E+02  0.30000000000E+02 0. -1.
     200000    1    3    3    0    0 -0.17273263840E+03  0.30444555568E+03  0.31637677718E+02  0.61116659217E+03  0.50000000000E+03 0.  1.
    -200001    1    1    2    0    0  0.29681407161E+03 -0.50944734167E+03 -0.56439547108E+03  0.10752569157E+04  0.70000000000E+03 0. -1.
<mgrwt>
<rscale>  0 0.18970512E+04</rscale>
<asrwt>0</asrwt>
<pdfrwt beam="1">  1        3 0.18545811E+00 0.18970512E+04</pdfrwt>
<pdfrwt beam="2">  1       -3 0.99004791E-01 0.18970512E+04</pdfrwt>
<totfact> 0.40321063E-01</totfact>
</mgrwt>
</event>
<event>
 8    1  0.1649749E-011  0.1735259E+04  0.7818608E-02  0.8741507E-01
         -3   -1    0    0    0  501 -0.00000000000E+00  0.00000000000E+00  0.10935944582E+04  0.10935944628E+04  0.10100000000E+00 0. -1.
          3   -1    0    0  501    0  0.00000000000E+00 -0.00000000000E+00 -0.68835451489E+03  0.68835452230E+03  0.10100000000E+00 0.  1.
     200001    2    1    2    0    0 -0.25991429262E+03  0.19206014416E+03 -0.20389770899E+03  0.79935485840E+03  0.70210496041E+03 0.  0.
    5000001    2    3    3    0    0 -0.12614261186E+03  0.19782520822E+02 -0.72952091462E+02  0.23835468298E+03  0.18758368956E+03 0.  0.
        -11    1    4    4    0    0 -0.48589966792E+02  0.93243706441E+02 -0.71931714282E+02  0.12739523218E+03  0.51100000000E-03 0. -1.
     200002    1    4    4    0    0 -0.77552645071E+02 -0.73461185619E+02 -0.10203771792E+01  0.11095945079E+03  0.30000000000E+02 0. -1.
     200000    1    3    3    0    0 -0.13377168076E+03  0.17227762334E+03 -0.13094561753E+03  0.56100017542E+03  0.50000000000E+03 0.  1.
    -200001    1    1    2    0    0  0.25991429262E+03 -0.19206014416E+03  0.60913765227E+03  0.98259412673E+03  0.70000000000E+03 0. -1.
<mgrwt>
<rscale>  0 0.17352587E+04</rscale>
<asrwt>0</asrwt>
<pdfrwt beam="1">  1        3 0.98336362E-01 0.17352587E+04</pdfrwt>
<pdfrwt beam="2">  1       -3 0.15622778E+00 0.17352587E+04</pdfrwt>
<totfact> 0.65942391E-01</totfact>
</mgrwt>
</event>
<event>
 8    1  0.1649749E-011  0.1521470E+04  0.7818608E-02  0.8870300E-01
          3   -1    0    0  501    0  0.00000000000E+00  0.00000000000E+00  0.94163913143E+03  0.94163913685E+03  0.10100000000E+00 0.  1.
         -3   -1    0    0    0  501 -0.00000000000E+00 -0.00000000000E+00 -0.61458569306E+03  0.61458570136E+03  0.10100000000E+00 0. -1.
     200001    2    1    2    0    0 -0.22369011573E+03  0.15331736157E+03  0.28910243978E+03  0.80457082237E+03  0.70015034549E+03 0.  0.
    5000001    2    3    3    0    0 -0.14330760649E+03  0.24894173817E+02  0.13062490272E+03  0.25861387105E+03  0.16929701451E+03 0.  0.
        -11    1    4    4    0    0 -0.91714587782E+02  0.70034619224E+02  0.89151511342E+01  0.11574062995E+03  0.51100000000E-03 0. -1.
     200002    1    4    4    0    0 -0.51593018712E+02 -0.45140445407E+02  0.12170975158E+03  0.14287324110E+03  0.30000000000E+02 0. -1.
     200000    1    3    3    0    0 -0.80382509236E+02  0.12842318775E+03  0.15847753706E+03  0.54595695132E+03  0.50000000000E+03 0.  1.
    -200001    1    1    2    0    0  0.22369011573E+03 -0.15331736157E+03  0.37950998595E+02  0.75165401584E+03  0.70000000000E+03 0. -1.
<mgrwt>
<rscale>  0 0.15214703E+04</rscale>
<asrwt>0</asrwt>
<pdfrwt beam="1">  1        3 0.13451988E+00 0.15214703E+04</pdfrwt>
<pdfrwt beam="2">  1       -3 0.87797958E-01 0.15214703E+04</pdfrwt>
<totfact> 0.12803516E+00</totfact>
</mgrwt>
</event>
<event>
 8    1  0.1649749E-011  0.1754153E+04  0.7818608E-02  0.8731068E-01
         -3   -1    0    0    0  501 -0.00000000000E+00  0.00000000000E+00  0.87384807518E+03  0.87384808102E+03  0.10100000000E+00 0. -1.
          3   -1    0    0  501    0  0.00000000000E+00 -0.00000000000E+00 -0.88031700045E+03  0.88031700625E+03  0.10100000000E+00 0.  1.
     200001    2    1    2    0    0 -0.11998329568E+03  0.66387702785E+02  0.50627394259E+03  0.87569564166E+03  0.70123193991E+03 0.  0.
    5000001    2    3    3    0    0 -0.12801857199E+02  0.11053574551E+02  0.12149206004E+03  0.23335085602E+03  0.19851003071E+03 0.  0.
        -11    1    4    4    0    0 -0.61837386061E+02 -0.30348577262E+02 -0.22839400378E+02  0.72570907852E+02  0.51100000000E-03 0. -1.
     200002    1    4    4    0    0  0.49035528862E+02  0.41402151813E+02  0.14433146042E+03  0.16077994817E+03  0.30000000000E+02 0. -1.
     200000    1    3    3    0    0 -0.10718143848E+03  0.55334128234E+02  0.38478188255E+03  0.64234478564E+03  0.50000000000E+03 0. -1.
    -200001    1    1    2    0    0  0.11998329568E+03 -0.66387702785E+02 -0.51274286786E+03  0.87846944561E+03  0.70000000000E+03 0.  1.
<mgrwt>
<rscale>  0 0.17541532E+04</rscale>
<asrwt>0</asrwt>
<pdfrwt beam="1">  1        3 0.12575957E+00 0.17541532E+04</pdfrwt>
<pdfrwt beam="2">  1       -3 0.12483544E+00 0.17541532E+04</pdfrwt>
<totfact> 0.64670380E-01</totfact>
</mgrwt>
</event>
<event>
 8    1  0.1649749E-011  0.1719372E+04  0.7818608E-02  0.8750392E-01
          3   -1    0    0  501    0  0.00000000000E+00  0.00000000000E+00  0.17209080182E+04  0.17209080212E+04  0.10100000000E+00 0.  1.
         -3   -1    0    0    0  501 -0.00000000000E+00 -0.00000000000E+00 -0.42945918278E+03  0.42945919465E+03  0.10100000000E+00 0. -1.
     200001    2    1    2    0    0  0.39015013552E+02  0.21556838357E+03  0.12062899502E+04  0.14119608677E+04  0.70036144148E+03 0.  0.
    5000001    2    3    3    0    0 -0.31118917822E+02 -0.82317221321E+02  0.15288234988E+03  0.20642274125E+03  0.10720458585E+03 0.  0.
        -11    1    4    4    0    0 -0.39773052796E+00 -0.90970403526E+02  0.78775376234E+02  0.12033840787E+03  0.51100000000E-03 0. -1.
     200002    1    4    4    0    0 -0.30721187294E+02  0.86531822050E+01  0.74106973642E+02  0.86084333380E+02  0.30000000000E+02 0. -1.
     200000    1    3    3    0    0  0.70133931374E+02  0.29788560490E+03  0.10534076003E+04  0.12055381264E+04  0.50000000000E+03 0.  1.
    -200001    1    1    2    0    0 -0.39015013552E+02 -0.21556838357E+03  0.85158885291E+02  0.73840634817E+03  0.70000000000E+03 0.  1.
<mgrwt>
<rscale>  0 0.17193717E+04</rscale>
<asrwt>0</asrwt>
<pdfrwt beam="1">  1        3 0.24584400E+00 0.17193717E+04</pdfrwt>
<pdfrwt beam="2">  1       -3 0.61351313E-01 0.17193717E+04</pdfrwt>
<totfact> 0.50632771E-01</totfact>
</mgrwt>
</event>
<event>
 8    1  0.1649749E-011  0.1540167E+04  0.7818608E-02  0.8858173E-01
          3   -1    0    0  501    0  0.00000000000E+00  0.00000000000E+00  0.85015826050E+03  0.85015826650E+03  0.10100000000E+00 0.  1.
         -3   -1    0    0    0  501 -0.00000000000E+00 -0.00000000000E+00 -0.69755076932E+03  0.69755077663E+03  0.10100000000E+00 0. -1.
     200001    2    1    2    0    0 -0.21617219771E+03  0.22360538759E+03  0.92441571540E+01  0.76842550425E+03  0.70261121022E+03 0.  0.
    5000001    2    3    3    0    0 -0.50006103385E+02  0.16707861753E+03 -0.18225166683E+02  0.23780227598E+03  0.16062967020E+03 0.  0.
        -11    1    4    4    0    0  0.28967778661E+02  0.40994437057E+02 -0.62069105914E+02  0.79826373959E+02  0.51100000000E-03 0. -1.
     200002    1    4    4    0    0 -0.78973882046E+02  0.12608418047E+03  0.43843939232E+02  0.15797590202E+03  0.30000000000E+02 0. -1.
     200000    1    3    3    0    0 -0.16616609432E+03  0.56526770061E+02  0.27469323837E+02  0.53062322828E+03  0.50000000000E+03 0. -1.
    -200001    1    1    2    0    0  0.21617219771E+03 -0.22360538759E+03  0.14336333403E+03  0.77928353888E+03  0.70000000000E+03 0. -1.
<mgrwt>
<rscale>  0 0.15401670E+04</rscale>
<asrwt>0</asrwt>
<pdfrwt beam="1">  1        3 0.12145118E+00 0.15401670E+04</pdfrwt>
<pdfrwt beam="2">  1       -3 0.99650111E-01 0.15401670E+04</pdfrwt>
<totfact> 0.12301030E+00</totfact>
</mgrwt>
</event>
<event>
 8    1  0.1649749E-011  0.1564299E+04  0.7818608E-02  0.8842786E-01
         -3   -1    0    0    0  501 -0.00000000000E+00  0.00000000000E+00  0.23168324330E+04  0.23168324352E+04  0.10100000000E+00 0. -1.
          3   -1    0    0  501    0  0.00000000000E+00 -0.00000000000E+00 -0.26404930844E+03  0.26404932776E+03  0.10100000000E+00 0.  1.
     200001    2    1    2    0    0 -0.12464196786E+03  0.26374445451E+03  0.70675152343E+03  0.10359229193E+04  0.69895766778E+03 0.  0.
    5000001    2    3    3    0    0 -0.24099910202E+02  0.17471276876E+03  0.28412289711E+03  0.36760390696E+03  0.15264813956E+03 0.  0.
        -11    1    4    4    0    0  0.55962010564E+01  0.18616544499E+03  0.20338171461E+03  0.27577710603E+03  0.51100000000E-03 0. -1.
     200002    1    4    4    0    0 -0.29696111258E+02 -0.11452676233E+02  0.80741182498E+02  0.91826800924E+02  0.30000000000E+02 0. -1.
     200000    1    3    3    0    0 -0.10054205766E+03  0.89031685758E+02  0.42262862632E+03  0.66831901231E+03  0.50000000000E+03 0.  1.
    -200001    1    1    2    0    0  0.12464196786E+03 -0.26374445451E+03  0.13460316011E+04  0.15449588437E+04  0.70000000000E+03 0. -1.
<mgrwt>
<rscale>  0 0.15642992E+04</rscale>
<asrwt>0</asrwt>
<pdfrwt beam="1">  1        3 0.37721331E-01 0.15642992E+04</pdfrwt>
<pdfrwt beam="2">  1       -3 0.33097606E+00 0.15642992E+04</pdfrwt>
<totfact> 0.45319176E-01</totfact>
</mgrwt>
</event>
<event>
 8    1  0.1649749E-011  0.1656889E+04  0.7818608E-02  0.8786341E-01
         -3   -1    0    0    0  501 -0.00000000000E+00  0.00000000000E+00  0.62671682692E+03  0.62671683506E+03  0.10100000000E+00 0. -1.
          3   -1    0    0  501    0  0.00000000000E+00 -0.00000000000E+00 -0.10951049360E+04  0.10951049407E+04  0.10100000000E+00 0.  1.
     200001    2    1    2    0    0 -0.23350107195E+03  0.26755850200E+03 -0.50398426797E+03  0.93608811279E+03  0.70437952125E+03 0.  0.
    5000001    2    3    3    0    0 -0.16901192999E+03  0.99720791048E+02 -0.16956756244E+03  0.30826418876E+03  0.16662647807E+03 0.  0.
        -11    1    4    4    0    0 -0.19152214611E+03  0.90342472785E+02 -0.11378634922E+03  0.24039514993E+03  0.51100000000E-03 0. -1.
     200002    1    4    4    0    0  0.22510216126E+02  0.93783182635E+01 -0.55781213221E+02  0.67869038831E+02  0.30000000000E+02 0. -1.
     200000    1    3    3    0    0 -0.64489141966E+02  0.16783771095E+03 -0.33441670552E+03  0.62782392403E+03  0.50000000000E+03 0.  1.
    -200001    1    1    2    0    0  0.23350107195E+03 -0.26755850200E+03  0.35596158846E+02  0.78573366297E+03  0.70000000000E+03 0. -1.
<mgrwt>
<rscale>  0 0.16568895E+04</rscale>
<asrwt>0</asrwt>
<pdfrwt beam="1">  1        3 0.15644356E+00 0.16568895E+04</pdfrwt>
<pdfrwt beam="2">  1       -3 0.89530977E-01 0.16568895E+04</pdfrwt>
<totfact> 0.82258852E-01</totfact>
</mgrwt>
</event>
<event>
 8    1  0.1649749E-011  0.1470343E+04  0.7818608E-02  0.8904417E-01
          3   -1    0    0  501    0  0.00000000000E+00  0.00000000000E+00  0.21539775622E+03  0.21539777990E+03  0.10100000000E+00 0.  1.
         -3   -1    0    0    0  501 -0.00000000000E+00 -0.00000000000E+00 -0.25092054239E+04  0.25092054259E+04  0.10100000000E+00 0. -1.
     200001    2    1    2    0    0  0.43433041449E+02  0.79613881583E+02 -0.15282652095E+04  0.16833155152E+04  0.69980838388E+03 0.  0.
    5000001    2    3    3    0    0 -0.70470244508E+01 -0.81861725929E+02 -0.36566127441E+03  0.40649504286E+03  0.15741362565E+03 0.  0.
        -11    1    4    4    0    0 -0.38930766172E+02 -0.11580320386E+03 -0.25133167442E+03  0.27945231641E+03  0.51100000000E-03 0. -1.
     200002    1    4    4    0    0  0.31883741721E+02  0.33941477933E+02 -0.11432959998E+03  0.12704272645E+03  0.30000000000E+02 0. -1.
     200000    1    3    3    0    0  0.50480065900E+02  0.16147560751E+03 -0.11626039351E+04  0.12768204724E+04  0.50000000000E+03 0. -1.
    -200001    1    1    2    0    0 -0.43433041449E+02 -0.79613881583E+02 -0.76554245819E+03  0.10412876906E+04  0.70000000000E+03 0.  1.
<mgrwt>
<rscale>  0 0.14703432E+04</rscale>
<asrwt>0</asrwt>
<pdfrwt beam="1">  1        3 0.30771111E-01 0.14703432E+04</pdfrwt>
<pdfrwt beam="2">  1       -3 0.35845790E+00 0.14703432E+04</pdfrwt>
<totfact> 0.47742333E-01</totfact>
</mgrwt>
</event>
<event>
 8    1  0.1649749E-011  0.1524655E+04  0.7818608E-02  0.8868221E-01
         -3   -1    0    0    0  501 -0.00000000000E+00  0.00000000000E+00  0.32815496139E+03  0.32815497693E+03  0.10100000000E+00 0. -1.
          3   -1    0    0  501    0  0.00000000000E+00 -0.00000000000E+00 -0.17709417513E+04  0.17709417542E+04  0.10100000000E+00 0.  1.
     200001    2    1    2    0    0 -0.77815578068E+02 -0.48453534087E+02 -0.11172057860E+04  0.13216612037E+04  0.70016895105E+03 0.  0.
    5000001    2    3    3    0    0  0.75356233676E+01 -0.69724487937E+02 -0.16500386033E+03  0.24257557769E+03  0.16339628861E+03 0.  0.
        -11    1    4    4    0    0  0.16080753637E+02 -0.10223633502E+03 -0.16810981918E+03  0.19741268992E+03  0.51100000000E-03 0. -1.
     200002    1    4    4    0    0 -0.85451302698E+01  0.32511847078E+02  0.31059588534E+01  0.45162887775E+02  0.30000000000E+02 0. -1.
     200000    1    3    3    0    0 -0.85351201435E+02  0.21270953849E+02 -0.95220192563E+03  0.10790856260E+04  0.50000000000E+03 0.  1.
    -200001    1    1    2    0    0  0.77815578068E+02  0.48453534087E+02 -0.32558100394E+03  0.77743552741E+03  0.70000000000E+03 0. -1.
<mgrwt>
<rscale>  0 0.15246552E+04</rscale>
<asrwt>0</asrwt>
<pdfrwt beam="1">  1        3 0.25299167E+00 0.15246552E+04</pdfrwt>
<pdfrwt beam="2">  1       -3 0.46879283E-01 0.15246552E+04</pdfrwt>
<totfact> 0.81747073E-01</totfact>
</mgrwt>
</event>
<event>
 8    1  0.1649749E-011  0.2378470E+04  0.7818608E-02  0.8447608E-01
          3   -1    0    0  501    0  0.00000000000E+00  0.00000000000E+00  0.22185067798E+04  0.22185067821E+04  0.10100000000E+00 0.  1.
         -3   -1    0    0    0  501 -0.00000000000E+00 -0.00000000000E+00 -0.63749171290E+03  0.63749172090E+03  0.10100000000E+00 0. -1.
     200001    2    1    2    0    0 -0.39908013535E+03  0.29097819200E+03 -0.20000657781E+03  0.87964545723E+03  0.69988587398E+03 0.  0.
    5000001    2    3    3    0    0 -0.17853337950E+02  0.82183758985E+02  0.34880817413E+02  0.17672222191E+03  0.15146339616E+03 0.  0.
        -11    1    4    4    0    0 -0.41605147145E+01  0.11958736890E+03  0.40986962059E+02  0.12648470161E+03  0.51100000000E-03 0. -1.
     200002    1    4    4    0    0 -0.13692823235E+02 -0.37403609915E+02 -0.61061446460E+01  0.50237520294E+02  0.30000000000E+02 0. -1.
     200000    1    3    3    0    0 -0.38122679740E+03  0.20879443302E+03 -0.23488739522E+03  0.70292323532E+03  0.50000000000E+03 0. -1.
    -200001    1    1    2    0    0  0.39908013535E+03 -0.29097819200E+03  0.17810216447E+04  0.19763530458E+04  0.70000000000E+03 0.  1.
<mgrwt>
<rscale>  0 0.23784698E+04</rscale>
<asrwt>0</asrwt>
<pdfrwt beam="1">  1        3 0.31692955E+00 0.23784698E+04</pdfrwt>
<pdfrwt beam="2">  1       -3 0.91070243E-01 0.23784698E+04</pdfrwt>
<totfact> 0.80251045E-02</totfact>
</mgrwt>
</event>
<event>
 8    1  0.1649749E-011  0.1512408E+04  0.7818608E-02  0.8876244E-01
          3   -1    0    0  501    0  0.00000000000E+00  0.00000000000E+00  0.77426292395E+03  0.77426293054E+03  0.10100000000E+00 0.  1.
         -3   -1    0    0    0  501 -0.00000000000E+00 -0.00000000000E+00 -0.73856584877E+03  0.73856585568E+03  0.10100000000E+00 0. -1.
     200001    2    1    2    0    0 -0.44165546974E+01 -0.28083087428E+03 -0.35894696397E+02  0.75519373710E+03  0.70010261063E+03 0.  0.
    5000001    2    3    3    0    0 -0.70082719653E+02 -0.65770288035E+02 -0.80729585202E+02  0.20512713365E+03  0.16224227763E+03 0.  0.
        -11    1    4    4    0    0 -0.86369943267E+02 -0.75801241117E+01 -0.10248702087E+03  0.13424162852E+03  0.51100000000E-03 0. -1.
     200002    1    4    4    0    0  0.16287223614E+02 -0.58190163923E+02  0.21757435665E+02  0.70885505127E+02  0.30000000000E+02 0. -1.
     200000    1    3    3    0    0  0.65666164956E+02 -0.21506058624E+03  0.44834888804E+02  0.55006660345E+03  0.50000000000E+03 0.  1.
    -200001    1    1    2    0    0  0.44165546974E+01  0.28083087428E+03  0.71591771580E+02  0.75763504912E+03  0.70000000000E+03 0.  1.
<mgrwt>
<rscale>  0 0.15124076E+04</rscale>
<asrwt>0</asrwt>
<pdfrwt beam="1">  1        3 0.11060899E+00 0.15124076E+04</pdfrwt>
<pdfrwt beam="2">  1       -3 0.10550941E+00 0.15124076E+04</pdfrwt>
<totfact> 0.13497446E+00</totfact>
</mgrwt>
</event>
<event>
 8    1  0.1649749E-011  0.1687990E+04  0.7818608E-02  0.8768244E-01
          3   -1    0    0  501    0  0.00000000000E+00  0.00000000000E+00  0.41449990560E+03  0.41449991790E+03  0.10100000000E+00 0.  1.
         -3   -1    0    0    0  501 -0.00000000000E+00 -0.00000000000E+00 -0.17185225440E+04  0.17185225470E+04  0.10100000000E+00 0. -1.
     200001    2    1    2    0    0 -0.36986638587E+03  0.19172719489E+03 -0.37185648975E+03  0.89508297145E+03  0.69952542209E+03 0.  0.
    5000001    2    3    3    0    0 -0.97923636822E+02  0.88898191000E+02 -0.74986418987E+02  0.24496105849E+03  0.19207037807E+03 0.  0.
        -11    1    4    4    0    0 -0.41308682178E+02  0.13191196196E+03 -0.91857702323E+02  0.16596689552E+03  0.51100000000E-03 0. -1.
     200002    1    4    4    0    0 -0.56614954644E+02 -0.43013770960E+02  0.16871283336E+02  0.78994162968E+02  0.30000000000E+02 0. -1.
     200000    1    3    3    0    0 -0.27194274905E+03  0.10282900389E+03 -0.29687007076E+03  0.65012191296E+03  0.50000000000E+03 0.  1.
    -200001    1    1    2    0    0  0.36986638587E+03 -0.19172719489E+03 -0.93216614864E+03  0.12379394934E+04  0.70000000000E+03 0. -1.
<mgrwt>
<rscale>  0 0.16879899E+04</rscale>
<asrwt>0</asrwt>
<pdfrwt beam="1">  1        3 0.59214274E-01 0.16879899E+04</pdfrwt>
<pdfrwt beam="2">  1       -3 0.24550322E+00 0.16879899E+04</pdfrwt>
<totfact> 0.54419914E-01</totfact>
</mgrwt>
</event>
<event>
 8    1  0.1649749E-011  0.1849048E+04  0.7818608E-02  0.8680642E-01
         -3   -1    0    0    0  501 -0.00000000000E+00  0.00000000000E+00  0.16597334473E+04  0.16597334503E+04  0.10100000000E+00 0.  1.
          3   -1    0    0  501    0  0.00000000000E+00 -0.00000000000E+00 -0.51498936337E+03  0.51498937327E+03  0.10100000000E+00 0. -1.
     200001    2    1    2    0    0  0.54552903812E+03 -0.23152563672E+03  0.43998914591E+03  0.10180527866E+04  0.70116686738E+03 0.  0.
    5000001    2    3    3    0    0  0.25968503303E+03 -0.10814400490E+03  0.15131586693E+03  0.36210912720E+03  0.17057281801E+03 0.  0.
        -11    1    4    4    0    0  0.23423539978E+02 -0.84960295302E+02  0.25400733870E+02  0.91717562573E+02  0.51100000000E-03 0. -1.
     200002    1    4    4    0    0  0.23626149305E+03 -0.23183709601E+02  0.12591513306E+03  0.27039156463E+03  0.30000000000E+02 0. -1.
     200000    1    3    3    0    0  0.28584400509E+03 -0.12338163181E+03  0.28867327899E+03  0.65594365941E+03  0.50000000000E+03 0.  1.
    -200001    1    1    2    0    0 -0.54552903812E+03  0.23152563672E+03  0.70475493798E+03  0.11566700370E+04  0.70000000000E+03 0. -1.
<mgrwt>
<rscale>  0 0.18490485E+04</rscale>
<asrwt>0</asrwt>
<pdfrwt beam="1">  1        3 0.73569909E-01 0.18490485E+04</pdfrwt>
<pdfrwt beam="2">  1       -3 0.23710478E+00 0.18490485E+04</pdfrwt>
<totfact> 0.37722050E-01</totfact>
</mgrwt>
</event>
<event>
 8    1  0.1649749E-011  0.1510111E+04  0.7818608E-02  0.8877757E-01
          3   -1    0    0  501    0  0.00000000000E+00  0.00000000000E+00  0.47854148196E+03  0.47854149262E+03  0.10100000000E+00 0.  1.
         -3   -1    0    0    0  501 -0.00000000000E+00 -0.00000000000E+00 -0.11913469580E+04  0.11913469623E+04  0.10100000000E+00 0. -1.
     200001    2    1    2    0    0 -0.22445952878E+03  0.16550150542E+03 -0.39925333010E+03  0.85374644731E+03  0.70121818741E+03 0.  0.
    5000001    2    3    3    0    0 -0.87003772553E+02  0.50339813228E+02  0.51088244780E+01  0.18616495242E+03  0.15661269485E+03 0.  0.
        -11    1    4    4    0    0 -0.40436747570E+02 -0.42309002385E+02  0.42058815991E+02  0.72070286802E+02  0.51100000000E-03 0. -1.
     200002    1    4    4    0    0 -0.46567024983E+02  0.92648815613E+02 -0.36949991513E+02  0.11409466562E+03  0.30000000000E+02 0. -1.
     200000    1    3    3    0    0 -0.13745575623E+03  0.11516169219E+03 -0.40436215458E+03  0.66758149489E+03  0.50000000000E+03 0.  1.
    -200001    1    1    2    0    0  0.22445952878E+03 -0.16550150542E+03 -0.31355214597E+03  0.81614200762E+03  0.70000000000E+03 0. -1.
<mgrwt>
<rscale>  0 0.15101112E+04</rscale>
<asrwt>0</asrwt>
<pdfrwt beam="1">  1        3 0.68363070E-01 0.15101112E+04</pdfrwt>
<pdfrwt beam="2">  1       -3 0.17019242E+00 0.15101112E+04</pdfrwt>
<totfact> 0.12045593E+00</totfact>
</mgrwt>
</event>
<event>
 8    1  0.1649749E-011  0.1957936E+04  0.7818608E-02  0.8626544E-01
          3   -1    0    0  501    0  0.00000000000E+00  0.00000000000E+00  0.47054853695E+03  0.47054854779E+03  0.10100000000E+00 0.  1.
         -3   -1    0    0    0  501 -0.00000000000E+00 -0.00000000000E+00 -0.20367252711E+04  0.20367252736E+04  0.10100000000E+00 0. -1.
     200001    2    1    2    0    0 -0.47630122153E+03 -0.16453349353E+03 -0.19018635893E+03  0.88330225858E+03  0.70008421262E+03 0.  0.
    5000001    2    3    3    0    0 -0.11819842293E+03  0.44961441217E+01 -0.11218153583E+03  0.24073445267E+03  0.17713638029E+03 0.  0.
        -11    1    4    4    0    0 -0.11159243869E+03 -0.68761227250E+02 -0.51744709746E+02  0.14092016794E+03  0.51100000000E-03 0. -1.
     200002    1    4    4    0    0 -0.66059842410E+01  0.73257371372E+02 -0.60436826087E+02  0.99814284727E+02  0.30000000000E+02 0. -1.
     200000    1    3    3    0    0 -0.35810279860E+03 -0.16902963765E+03 -0.78004823094E+02  0.64256780591E+03  0.50000000000E+03 0. -1.
    -200001    1    1    2    0    0  0.47630122153E+03  0.16453349353E+03 -0.13759903752E+04  0.16239715628E+04  0.70000000000E+03 0.  1.
<mgrwt>
<rscale>  0 0.19579358E+04</rscale>
<asrwt>0</asrwt>
<pdfrwt beam="1">  1        3 0.67221222E-01 0.19579358E+04</pdfrwt>
<pdfrwt beam="2">  1       -3 0.29096075E+00 0.19579358E+04</pdfrwt>
<totfact> 0.22347974E-01</totfact>
</mgrwt>
</event>
<event>
 8    1  0.1649749E-011  0.3217285E+04  0.7818608E-02  0.8184267E-01
         -3   -1    0    0    0  501 -0.00000000000E+00  0.00000000000E+00  0.11359258661E+04  0.11359258706E+04  0.10100000000E+00 0. -1.
          3   -1    0    0  501    0  0.00000000000E+00 -0.00000000000E+00 -0.22780811760E+04  0.22780811782E+04  0.10100000000E+00 0.  1.
     200001    2    1    2    0    0 -0.57847790662E+03 -0.37624332865E+03  0.77990752736E+03  0.12551829983E+04  0.70073738101E+03 0.  0.
    5000001    2    3    3    0    0 -0.89662503614E+02 -0.22509184934E+02  0.44151389754E+02  0.18028512561E+03  0.14834875577E+03 0.  0.
        -11    1    4    4    0    0 -0.14446594847E+02  0.55919793075E+02 -0.35752217659E+01  0.57866307737E+02  0.51100000000E-03 0. -1.
     200002    1    4    4    0    0 -0.75215908767E+02 -0.78428978009E+02  0.47726611520E+02  0.12241881788E+03  0.30000000000E+02 0. -1.
     200000    1    3    3    0    0 -0.48881540301E+03 -0.35373414372E+03  0.73575613761E+03  0.10748978727E+04  0.50000000000E+03 0. -1.
    -200001    1    1    2    0    0  0.57847790662E+03  0.37624332865E+03 -0.19220628373E+04  0.21588240505E+04  0.70000000000E+03 0.  1.
<mgrwt>
<rscale>  0 0.32172854E+04</rscale>
<asrwt>0</asrwt>
<pdfrwt beam="1">  1        3 0.32544017E+00 0.32172854E+04</pdfrwt>
<pdfrwt beam="2">  1       -3 0.16227513E+00 0.32172854E+04</pdfrwt>
<totfact> 0.16203343E-02</totfact>
</mgrwt>
</event>
<event>
 8    1  0.1649749E-011  0.1451797E+04  0.7818608E-02  0.8917155E-01
          3   -1    0    0  501    0  0.00000000000E+00  0.00000000000E+00  0.85899435907E+03  0.85899436501E+03  0.10100000000E+00 0.  1.
         -3   -1    0    0    0  501 -0.00000000000E+00 -0.00000000000E+00 -0.61342533401E+03  0.61342534232E+03  0.10100000000E+00 0. -1.
     200001    2    1    2    0    0 -0.80722646668E+01 -0.13243827495E+03 -0.12909282533E+02  0.71451727718E+03  0.70197096214E+03 0.  0.
    5000001    2    3    3    0    0  0.29238718941E+02  0.31738837607E+02  0.63221016464E+02  0.18146750820E+03  0.16453359266E+03 0.  0.
        -11    1    4    4    0    0 -0.26825996127E+01  0.65153239261E+02  0.96970926539E+02  0.11685675642E+03  0.51100000000E-03 0. -1.
     200002    1    4    4    0    0  0.31921318554E+02 -0.33414401654E+02 -0.33749910074E+02  0.64610751784E+02  0.30000000000E+02 0. -1.
     200000    1    3    3    0    0 -0.37310983608E+02 -0.16417711256E+03 -0.76130298997E+02  0.53304976898E+03  0.50000000000E+03 0. -1.
    -200001    1    1    2    0    0  0.80722646668E+01  0.13243827495E+03  0.25847830760E+03  0.75790243015E+03  0.70000000000E+03 0.  1.
<mgrwt>
<rscale>  0 0.14517974E+04</rscale>
<asrwt>0</asrwt>
<pdfrwt beam="1">  1        3 0.12271348E+00 0.14517974E+04</pdfrwt>
<pdfrwt beam="2">  1       -3 0.87632192E-01 0.14517974E+04</pdfrwt>
<totfact> 0.16228235E+00</totfact>
</mgrwt>
</event>
<event>
 8    1  0.1649749E-011  0.1691619E+04  0.7818608E-02  0.8766159E-01
          3   -1    0    0  501    0  0.00000000000E+00  0.00000000000E+00  0.44407157847E+03  0.44407158996E+03  0.10100000000E+00 0.  1.
         -3   -1    0    0    0  501 -0.00000000000E+00 -0.00000000000E+00 -0.16109869254E+04  0.16109869286E+04  0.10100000000E+00 0. -1.
     200001    2    1    2    0    0  0.52259993272E+02 -0.46602143096E+03 -0.49174940483E+03  0.97535664748E+03  0.69971139165E+03 0.  0.
    5000001    2    3    3    0    0  0.83081397889E+02 -0.19847554689E+03 -0.20904806340E+03  0.34096654075E+03  0.16205563153E+03 0.  0.
        -11    1    4    4    0    0 -0.32926661694E+02 -0.11415237694E+03 -0.64680399640E+02  0.13527189031E+03  0.51100000000E-03 0. -1.
     200002    1    4    4    0    0  0.11600805958E+03 -0.84323169956E+02 -0.14436766376E+03  0.20569465044E+03  0.30000000000E+02 0. -1.
     200000    1    3    3    0    0 -0.30821404617E+02 -0.26754588407E+03 -0.28270134143E+03  0.63439010673E+03  0.50000000000E+03 0. -1.
    -200001    1    1    2    0    0 -0.52259993272E+02  0.46602143096E+03 -0.67516594213E+03  0.10797018711E+04  0.70000000000E+03 0.  1.
<mgrwt>
<rscale>  0 0.16916188E+04</rscale>
<asrwt>0</asrwt>
<pdfrwt beam="1">  1        3 0.63438799E-01 0.16916188E+04</pdfrwt>
<pdfrwt beam="2">  1       -3 0.23014099E+00 0.16916188E+04</pdfrwt>
<totfact> 0.57888979E-01</totfact>
</mgrwt>
</event>
<event>
 8    1  0.1649749E-011  0.1783630E+04  0.7818608E-02  0.8715054E-01
         -3   -1    0    0    0  501 -0.00000000000E+00  0.00000000000E+00  0.64244096221E+03  0.64244097015E+03  0.10100000000E+00 0. -1.
          3   -1    0    0  501    0  0.00000000000E+00 -0.00000000000E+00 -0.12379878181E+04  0.12379878222E+04  0.10100000000E+00 0.  1.
     200001    2    1    2    0    0 -0.98919045793E+02  0.54153239321E+03 -0.24773238064E+03  0.92438631436E+03  0.70005458019E+03 0.  0.
    5000001    2    3    3    0    0 -0.44168042950E+02  0.21934730339E+03 -0.20337021329E+03  0.32541310435E+03  0.12029209994E+03 0.  0.
        -11    1    4    4    0    0  0.11517011587E+02  0.12282415321E+03 -0.49144811612E+02  0.13279166645E+03  0.51100000000E-03 0. -1.
     200002    1    4    4    0    0 -0.55685054536E+02  0.96523150176E+02 -0.15422540168E+03  0.19262143791E+03  0.30000000000E+02 0. -1.
     200000    1    3    3    0    0 -0.54751002843E+02  0.32218508982E+03 -0.44362167345E+02  0.59897321000E+03  0.50000000000E+03 0.  1.
    -200001    1    1    2    0    0  0.98919045793E+02 -0.54153239321E+03 -0.34781447522E+03  0.95604247797E+03  0.70000000000E+03 0.  1.
<mgrwt>
<rscale>  0 0.17836301E+04</rscale>
<asrwt>0</asrwt>
<pdfrwt beam="1">  1        3 0.17685540E+00 0.17836301E+04</pdfrwt>
<pdfrwt beam="2">  1       -3 0.91777282E-01 0.17836301E+04</pdfrwt>
<totfact> 0.55333544E-01</totfact>
</mgrwt>
</event>
<event>
 8    1  0.1649749E-011  0.1956074E+04  0.7818608E-02  0.8627437E-01
         -3   -1    0    0    0  501 -0.00000000000E+00  0.00000000000E+00  0.71180777889E+03  0.71180778606E+03  0.10100000000E+00 0. -1.
          3   -1    0    0  501    0  0.00000000000E+00 -0.00000000000E+00 -0.13438406951E+04  0.13438406989E+04  0.10100000000E+00 0.  1.
     200001    2    1    2    0    0  0.35443295789E+02  0.36014801457E+03 -0.92534403467E+03  0.12148189946E+04  0.69897123512E+03 0.  0.
    5000001    2    3    3    0    0 -0.43116631585E+01  0.44102707575E+01 -0.16433044692E+03  0.23641648035E+03  0.16985351180E+03 0.  0.
        -11    1    4    4    0    0 -0.17034462794E+02 -0.69659609709E+02 -0.26238716396E+02  0.76361668302E+02  0.51100000000E-03 0. -1.
     200002    1    4    4    0    0  0.12722799635E+02  0.74069880467E+02 -0.13809173052E+03  0.16005481205E+03  0.30000000000E+02 0. -1.
     200000    1    3    3    0    0  0.39754958948E+02  0.35573774382E+03 -0.76101358776E+03  0.97840251425E+03  0.50000000000E+03 0.  1.
    -200001    1    1    2    0    0 -0.35443295789E+02 -0.36014801457E+03  0.29331111847E+03  0.84082949035E+03  0.70000000000E+03 0. -1.
<mgrwt>
<rscale>  0 0.19560739E+04</rscale>
<asrwt>0</asrwt>
<pdfrwt beam="1">  1        3 0.19197724E+00 0.19560739E+04</pdfrwt>
<pdfrwt beam="2">  1       -3 0.10168683E+00 0.19560739E+04</pdfrwt>
<totfact> 0.34183133E-01</totfact>
</mgrwt>
</event>
<event>
 8    1  0.1649749E-011  0.1473965E+04  0.7818608E-02  0.8901953E-01
          3   -1    0    0  501    0  0.00000000000E+00  0.00000000000E+00  0.30820312039E+03  0.30820313694E+03  0.10100000000E+00 0.  1.
         -3   -1    0    0    0  501 -0.00000000000E+00 -0.00000000000E+00 -0.17622885172E+04  0.17622885201E+04  0.10100000000E+00 0. -1.
     200001    2    1    2    0    0  0.13900619376E+03 -0.16565075508E+03 -0.83889633148E+03  0.11138200934E+04  0.70006089087E+03 0.  0.
    5000001    2    3    3    0    0  0.13256522757E+03  0.65920943031E+01 -0.18210528101E+03  0.27056238120E+03  0.14974870109E+03 0.  0.
        -11    1    4    4    0    0 -0.32000345483E+02 -0.25656464176E+01 -0.36419441578E+02  0.48548742287E+02  0.51100000000E-03 0. -1.
     200002    1    4    4    0    0  0.16456557306E+03  0.91577407207E+01 -0.14568583943E+03  0.22201363891E+03  0.30000000000E+02 0. -1.
     200000    1    3    3    0    0  0.64409661862E+01 -0.17224284938E+03 -0.65679105047E+03  0.84325771220E+03  0.50000000000E+03 0. -1.
    -200001    1    1    2    0    0 -0.13900619376E+03  0.16565075508E+03 -0.61518906533E+03  0.95667156363E+03  0.70000000000E+03 0.  1.
<mgrwt>
<rscale>  0 0.14739645E+04</rscale>
<asrwt>0</asrwt>
<pdfrwt beam="1">  1        3 0.44029019E-01 0.14739645E+04</pdfrwt>
<pdfrwt beam="2">  1       -3 0.25175550E+00 0.14739645E+04</pdfrwt>
<totfact> 0.93648860E-01</totfact>
</mgrwt>
</event>
<event>
 8    1  0.1649749E-011  0.1561651E+04  0.7818608E-02  0.8844460E-01
          3   -1    0    0  501    0  0.00000000000E+00  0.00000000000E+00  0.25517152260E+04  0.25517152280E+04  0.10100000000E+00 0.  1.
         -3   -1    0    0    0  501 -0.00000000000E+00 -0.00000000000E+00 -0.23893276926E+03  0.23893279060E+03  0.10100000000E+00 0. -1.
     200001    2    1    2    0    0  0.67100677085E+01 -0.56701171467E+02  0.54942596971E+03  0.89257369228E+03  0.70111258162E+03 0.  0.
    5000001    2    3    3    0    0  0.53218546864E+01  0.77379072779E+02  0.76929716197E+00  0.13825043043E+03  0.11444101824E+03 0.  0.
        -11    1    4    4    0    0 -0.45573942334E+02  0.52501703921E+02  0.18110150291E+02  0.71842819253E+02  0.51100000000E-03 0. -1.
     200002    1    4    4    0    0  0.50895797020E+02  0.24877368858E+02 -0.17340853129E+02  0.66407611182E+02  0.30000000000E+02 0. -1.
     200000    1    3    3    0    0  0.13882130221E+01 -0.13408024425E+03  0.54865667254E+03  0.75432326184E+03  0.50000000000E+03 0. -1.
    -200001    1    1    2    0    0 -0.67100677085E+01  0.56701171467E+02  0.17633564870E+04  0.18980743263E+04  0.70000000000E+03 0.  1.
<mgrwt>
<rscale>  0 0.15616509E+04</rscale>
<asrwt>0</asrwt>
<pdfrwt beam="1">  1        3 0.36453076E+00 0.15616509E+04</pdfrwt>
<pdfrwt beam="2">  1       -3 0.34133254E-01 0.15616509E+04</pdfrwt>
<totfact> 0.37208035E-01</totfact>
</mgrwt>
</event>
<event>
 8    1  0.1649749E-011  0.1754188E+04  0.7818608E-02  0.8731049E-01
         -3   -1    0    0    0  501 -0.00000000000E+00  0.00000000000E+00  0.13571931403E+04  0.13571931440E+04  0.10100000000E+00 0.  1.
          3   -1    0    0  501    0  0.00000000000E+00 -0.00000000000E+00 -0.56682684238E+03  0.56682685138E+03  0.10100000000E+00 0. -1.
     200001    2    1    2    0    0 -0.39730651421E+03  0.23303238632E+03  0.11093369562E+03  0.84523122075E+03  0.69996640805E+03 0.  0.
    5000001    2    3    3    0    0 -0.83416666995E+02  0.56870435954E+02  0.11903474626E+02  0.22123854963E+03  0.19649991429E+03 0.  0.
        -11    1    4    4    0    0  0.50338059535E+02 -0.27380268586E+02  0.18469232144E+02  0.60205580155E+02  0.51100000000E-03 0. -1.
     200002    1    4    4    0    0 -0.13375472653E+03  0.84250704540E+02 -0.65657575183E+01  0.16103296947E+03  0.30000000000E+02 0. -1.
     200000    1    3    3    0    0 -0.31388984722E+03  0.17616195036E+03  0.99030220990E+02  0.62399267112E+03  0.50000000000E+03 0. -1.
    -200001    1    1    2    0    0  0.39730651421E+03 -0.23303238632E+03  0.67943260230E+03  0.10787887747E+04  0.70000000000E+03 0.  1.
<mgrwt>
<rscale>  0 0.17541876E+04</rscale>
<asrwt>0</asrwt>
<pdfrwt beam="1">  1        3 0.80975264E-01 0.17541876E+04</pdfrwt>
<pdfrwt beam="2">  1       -3 0.19388473E+00 0.17541876E+04</pdfrwt>
<totfact> 0.56612776E-01</totfact>
</mgrwt>
</event>
<event>
 8    1  0.1649749E-011  0.2126813E+04  0.7818608E-02  0.8549523E-01
          3   -1    0    0  501    0  0.00000000000E+00  0.00000000000E+00  0.90195922451E+03  0.90195923017E+03  0.10100000000E+00 0. -1.
         -3   -1    0    0    0  501 -0.00000000000E+00 -0.00000000000E+00 -0.12537517166E+04  0.12537517207E+04  0.10100000000E+00 0.  1.
     200001    2    1    2    0    0 -0.35087470057E+03 -0.20758168209E+03  0.52559328974E+03  0.96155475487E+03  0.69436015882E+03 0.  0.
    5000001    2    3    3    0    0 -0.12169020310E+03 -0.42474763761E+02  0.10219697209E+03  0.24807716576E+03  0.18570257936E+03 0.  0.
        -11    1    4    4    0    0 -0.51521689320E+02 -0.37761654591E+01  0.14389953343E+03  0.15289152893E+03  0.51100000000E-03 0. -1.
     200002    1    4    4    0    0 -0.70168513784E+02 -0.38698598302E+02 -0.41702561342E+02  0.95185636835E+02  0.30000000000E+02 0. -1.
     200000    1    3    3    0    0 -0.22918449747E+03 -0.16510691833E+03  0.42339631765E+03  0.71347758911E+03  0.50000000000E+03 0.  1.
    -200001    1    1    2    0    0  0.35087470057E+03  0.20758168209E+03 -0.87738578186E+03  0.11941561960E+04  0.70000000000E+03 0.  1.
<mgrwt>
<rscale>  0 0.21268126E+04</rscale>
<asrwt>0</asrwt>
<pdfrwt beam="1">  1        3 0.12885132E+00 0.21268126E+04</pdfrwt>
<pdfrwt beam="2">  1       -3 0.17910739E+00 0.21268126E+04</pdfrwt>
<totfact> 0.23066594E-01</totfact>
</mgrwt>
</event>
<event>
 8    1  0.1649749E-011  0.1953289E+04  0.7818608E-02  0.8628777E-01
         -3   -1    0    0    0  501 -0.00000000000E+00  0.00000000000E+00  0.49898837703E+03  0.49898838725E+03  0.10100000000E+00 0.  1.
          3   -1    0    0  501    0  0.00000000000E+00 -0.00000000000E+00 -0.19115355141E+04  0.19115355167E+04  0.10100000000E+00 0. -1.
     200001    2    1    2    0    0  0.33338060291E+03 -0.59438234427E+03 -0.67527422774E+03  0.11865940284E+04  0.69826721819E+03 0.  0.
    5000001    2    3    3    0    0  0.50480474806E+02 -0.12522867997E+03 -0.25442433890E+03  0.33380315594E+03  0.16870774157E+03 0.  0.
        -11    1    4    4    0    0 -0.17186240985E+02  0.17303630641E+02  0.83980981643E+01  0.25793614822E+02  0.51100000000E-03 0. -1.
     200002    1    4    4    0    0  0.67666715791E+02 -0.14253231061E+03 -0.26282243707E+03  0.30800954112E+03  0.30000000000E+02 0. -1.
     200000    1    3    3    0    0  0.28290012810E+03 -0.46915366430E+03 -0.42084988884E+03  0.85279087246E+03  0.50000000000E+03 0. -1.
    -200001    1    1    2    0    0 -0.33338060291E+03  0.59438234427E+03 -0.73727290930E+03  0.12239298756E+04  0.70000000000E+03 0.  1.
<mgrwt>
<rscale>  0 0.19532885E+04</rscale>
<asrwt>0</asrwt>
<pdfrwt beam="1">  1        3 0.27307650E+00 0.19532885E+04</pdfrwt>
<pdfrwt beam="2">  1       -3 0.71284056E-01 0.19532885E+04</pdfrwt>
<totfact> 0.25164906E-01</totfact>
</mgrwt>
</event>
<event>
 8    1  0.1649749E-011  0.1761778E+04  0.7818608E-02  0.8726894E-01
         -3   -1    0    0    0  501 -0.00000000000E+00  0.00000000000E+00  0.23913121229E+03  0.23913123362E+03  0.10100000000E+00 0. -1.
          3   -1    0    0  501    0  0.00000000000E+00 -0.00000000000E+00 -0.32449371630E+04  0.32449371646E+04  0.10100000000E+00 0.  1.
     200001    2    1    2    0    0  0.39098685660E+03 -0.35046213681E+03 -0.12996472957E+04  0.15666034605E+04  0.69962052409E+03 0.  0.
    5000001    2    3    3    0    0 -0.28296275429E+01 -0.18269008064E+03 -0.25253651909E+03  0.32980118664E+03  0.10775183006E+03 0.  0.
        -11    1    4    4    0    0  0.46804792082E+02 -0.10099039251E+03 -0.12031525944E+03  0.16390701509E+03  0.51100000000E-03 0. -1.
     200002    1    4    4    0    0 -0.49634419625E+02 -0.81699688128E+02 -0.13222125965E+03  0.16589417155E+03  0.30000000000E+02 0. -1.
     200000    1    3    3    0    0  0.39381648414E+03 -0.16777205617E+03 -0.10471107767E+04  0.12368022739E+04  0.50000000000E+03 0. -1.
    -200001    1    1    2    0    0 -0.39098685660E+03  0.35046213681E+03 -0.17061586550E+04  0.19174649377E+04  0.70000000000E+03 0.  1.
<mgrwt>
<rscale>  0 0.17617784E+04</rscale>
<asrwt>0</asrwt>
<pdfrwt beam="1">  1        3 0.46356243E+00 0.17617784E+04</pdfrwt>
<pdfrwt beam="2">  1       -3 0.34161605E-01 0.17617784E+04</pdfrwt>
<totfact> 0.11050084E-01</totfact>
</mgrwt>
</event>
<event>
 8    1  0.1649749E-011  0.1547713E+04  0.7818608E-02  0.8853330E-01
          3   -1    0    0  501    0  0.00000000000E+00  0.00000000000E+00  0.36039347458E+03  0.36039348873E+03  0.10100000000E+00 0.  1.
         -3   -1    0    0    0  501 -0.00000000000E+00 -0.00000000000E+00 -0.16616677098E+04  0.16616677128E+04  0.10100000000E+00 0. -1.
     200001    2    1    2    0    0  0.27052223943E+03  0.16870932490E+03 -0.76152332332E+03  0.10823930872E+04  0.70000850343E+03 0.  0.
    5000001    2    3    3    0    0  0.14159729831E+03  0.85495486244E+02 -0.17351374044E+03  0.29543600262E+03  0.17267350828E+03 0.  0.
        -11    1    4    4    0    0  0.11960365626E+03 -0.94209456557E+01 -0.37981183188E+02  0.12584259646E+03  0.51100000000E-03 0. -1.
     200002    1    4    4    0    0  0.21993642051E+02  0.94916431900E+02 -0.13553255726E+03  0.16959340616E+03  0.30000000000E+02 0. -1.
     200000    1    3    3    0    0  0.12892494112E+03  0.83213838658E+02 -0.58800958288E+03  0.78695708456E+03  0.50000000000E+03 0. -1.
    -200001    1    1    2    0    0 -0.27052223943E+03 -0.16870932490E+03 -0.53975091186E+03  0.93966811438E+03  0.70000000000E+03 0.  1.
<mgrwt>
<rscale>  0 0.15477134E+04</rscale>
<asrwt>0</asrwt>
<pdfrwt beam="1">  1        3 0.51484784E-01 0.15477134E+04</pdfrwt>
<pdfrwt beam="2">  1       -3 0.23738110E+00 0.15477134E+04</pdfrwt>
<totfact> 0.82160620E-01</totfact>
</mgrwt>
</event>
<event>
 8    1  0.1649749E-011  0.1487078E+04  0.7818608E-02  0.8893092E-01
         -3   -1    0    0    0  501 -0.00000000000E+00  0.00000000000E+00  0.36807289453E+03  0.36807290839E+03  0.10100000000E+00 0.  1.
          3   -1    0    0  501    0  0.00000000000E+00 -0.00000000000E+00 -0.15020130712E+04  0.15020130746E+04  0.10100000000E+00 0. -1.
     200001    2    1    2    0    0  0.20751446042E+03  0.11743784604E+03 -0.66070553232E+03  0.99213101397E+03  0.70066985769E+03 0.  0.
    5000001    2    3    3    0    0  0.38020130216E+02  0.12433745277E+03 -0.28823577791E+03  0.34598114708E+03  0.14041993447E+03 0.  0.
        -11    1    4    4    0    0  0.24526959912E+02  0.53569442265E+02 -0.13591600595E+02  0.60464770852E+02  0.51100000000E-03 0. -1.
     200002    1    4    4    0    0  0.13493170304E+02  0.70768010508E+02 -0.27464417732E+03  0.28551637622E+03  0.30000000000E+02 0. -1.
     200000    1    3    3    0    0  0.16949433020E+03 -0.68996067300E+01 -0.37246975441E+03  0.64614986690E+03  0.50000000000E+03 0. -1.
    -200001    1    1    2    0    0 -0.20751446042E+03 -0.11743784604E+03 -0.47323464431E+03  0.87795496897E+03  0.70000000000E+03 0.  1.
<mgrwt>
<rscale>  0 0.14870781E+04</rscale>
<asrwt>0</asrwt>
<pdfrwt beam="1">  1        3 0.21457329E+00 0.14870781E+04</pdfrwt>
<pdfrwt beam="2">  1       -3 0.52581844E-01 0.14870781E+04</pdfrwt>
<totfact> 0.10907582E+00</totfact>
</mgrwt>
</event>
<event>
 8    1  0.1649749E-011  0.2327352E+04  0.7818608E-02  0.8467214E-01
         -3   -1    0    0    0  501 -0.00000000000E+00  0.00000000000E+00  0.13370287076E+04  0.13370287114E+04  0.10100000000E+00 0. -1.
          3   -1    0    0  501    0  0.00000000000E+00 -0.00000000000E+00 -0.10127993198E+04  0.10127993248E+04  0.10100000000E+00 0.  1.
     200001    2    1    2    0    0  0.91490331165E+03 -0.15649652840E+03  0.11182653568E+03  0.11680267819E+04  0.70017294733E+03 0.  0.
    5000001    2    3    3    0    0  0.30199026405E+03  0.21377402609E+02 -0.63651849804E+02  0.33851234383E+03  0.13741883430E+03 0.  0.
        -11    1    4    4    0    0  0.29295333021E+03  0.40134522781E+02 -0.52364728766E+02  0.30029068987E+03  0.51100000000E-03 0. -1.
     200002    1    4    4    0    0  0.90369338325E+01 -0.18757120173E+02 -0.11287121038E+02  0.38221653962E+02  0.30000000000E+02 0.  1.
     200000    1    3    3    0    0  0.61291304760E+03 -0.17787393101E+03  0.17547838548E+03  0.82951443810E+03  0.50000000000E+03 0. -1.
    -200001    1    1    2    0    0 -0.91490331165E+03  0.15649652840E+03  0.21240285218E+03  0.11818012543E+04  0.70000000000E+03 0.  1.
<mgrwt>
<rscale>  0 0.23273520E+04</rscale>
<asrwt>0</asrwt>
<pdfrwt beam="1">  1        3 0.14468562E+00 0.23273520E+04</pdfrwt>
<pdfrwt beam="2">  1       -3 0.19100410E+00 0.23273520E+04</pdfrwt>
<totfact> 0.14131925E-01</totfact>
</mgrwt>
</event>
<event>
 8    1  0.1649749E-011  0.1743234E+04  0.7818608E-02  0.8737084E-01
         -3   -1    0    0    0  501 -0.00000000000E+00  0.00000000000E+00  0.20578851107E+04  0.20578851132E+04  0.10100000000E+00 0. -1.
          3   -1    0    0  501    0  0.00000000000E+00 -0.00000000000E+00 -0.36917321555E+03  0.36917322937E+03  0.10100000000E+00 0.  1.
     200001    2    1    2    0    0 -0.18504260501E+03  0.38969290377E+03  0.44224883715E+03  0.93381640640E+03  0.70023404800E+03 0.  0.
    5000001    2    3    3    0    0 -0.14357574530E+02 -0.10529235518E+02  0.21808839745E+03  0.23413144648E+03  0.83294539928E+02 0.  0.
        -11    1    4    4    0    0 -0.43820786139E+01 -0.37940039359E+02  0.64635527280E+02  0.75075965439E+02  0.51100000000E-03 0. -1.
     200002    1    4    4    0    0 -0.99754959160E+01  0.27410803841E+02  0.15345287017E+03  0.15905548105E+03  0.30000000000E+02 0. -1.
     200000    1    3    3    0    0 -0.17068503048E+03  0.40022213929E+03  0.22416043969E+03  0.69968495991E+03  0.50000000000E+03 0.  1.
    -200001    1    1    2    0    0  0.18504260501E+03 -0.38969290377E+03  0.12464630580E+04  0.14932419362E+04  0.70000000000E+03 0.  1.
<mgrwt>
<rscale>  0 0.17432339E+04</rscale>
<asrwt>0</asrwt>
<pdfrwt beam="1">  1        3 0.52739031E-01 0.17432339E+04</pdfrwt>
<pdfrwt beam="2">  1       -3 0.29398360E+00 0.17432339E+04</pdfrwt>
<totfact> 0.36527541E-01</totfact>
</mgrwt>
</event>
<event>
 8    1  0.1649749E-011  0.1476492E+04  0.7818608E-02  0.8900238E-01
         -3   -1    0    0    0  501 -0.00000000000E+00  0.00000000000E+00  0.55194905027E+03  0.55194905951E+03  0.10100000000E+00 0. -1.
          3   -1    0    0  501    0  0.00000000000E+00 -0.00000000000E+00 -0.98742309980E+03  0.98742310497E+03  0.10100000000E+00 0.  1.
     200001    2    1    2    0    0 -0.16282710745E+03  0.14415084151E+03 -0.30600834753E+03  0.79502446345E+03  0.70080714658E+03 0.  0.
    5000001    2    3    3    0    0 -0.33090365688E+02  0.46811877580E+02 -0.10500067786E+03  0.23225401350E+03  0.19907400698E+03 0.  0.
        -11    1    4    4    0    0  0.74401452685E+02  0.58743772985E+02 -0.52202284171E+02  0.10821961698E+03  0.51100000000E-03 0. -1.
     200002    1    4    4    0    0 -0.10749181837E+03 -0.11931895405E+02 -0.52798393688E+02  0.12403439652E+03  0.30000000000E+02 0. -1.
     200000    1    3    3    0    0 -0.12973674176E+03  0.97338963931E+02 -0.20100766968E+03  0.56277044994E+03  0.50000000000E+03 0.  1.
    -200001    1    1    2    0    0  0.16282710745E+03 -0.14415084151E+03 -0.12946570200E+03  0.74434770103E+03  0.70000000000E+03 0. -1.
<mgrwt>
<rscale>  0 0.14764921E+04</rscale>
<asrwt>0</asrwt>
<pdfrwt beam="1">  1        3 0.14106044E+00 0.14764921E+04</pdfrwt>
<pdfrwt beam="2">  1       -3 0.78849865E-01 0.14764921E+04</pdfrwt>
<totfact> 0.14507004E+00</totfact>
</mgrwt>
</event>
<event>
 8    1  0.1649749E-011  0.1840422E+04  0.7818608E-02  0.8685094E-01
         -3   -1    0    0    0  501 -0.00000000000E+00  0.00000000000E+00  0.10175197487E+04  0.10175197537E+04  0.10100000000E+00 0. -1.
          3   -1    0    0  501    0  0.00000000000E+00 -0.00000000000E+00 -0.83220803094E+03  0.83220803707E+03  0.10100000000E+00 0.  1.
     200001    2    1    2    0    0  0.24525807720E+03  0.47838092092E+03  0.35187747359E+03  0.95153851176E+03  0.70186035150E+03 0.  0.
    5000001    2    3    3    0    0  0.24281539723E+02  0.16340647583E+03  0.75195857635E+02  0.26263195221E+03  0.18981532025E+03 0.  0.
        -11    1    4    4    0    0  0.55074234293E+02  0.17773315798E+03  0.99719020807E+02  0.21110691566E+03  0.51100000000E-03 0. -1.
     200002    1    4    4    0    0 -0.30792694570E+02 -0.14326682144E+02 -0.24523163172E+02  0.51525036556E+02  0.30000000000E+02 0. -1.
     200000    1    3    3    0    0  0.22097653748E+03  0.31497444509E+03  0.27668161596E+03  0.68890655955E+03  0.50000000000E+03 0. -1.
    -200001    1    1    2    0    0 -0.24525807720E+03 -0.47838092092E+03 -0.16656575583E+03  0.89818927902E+03  0.70000000000E+03 0.  1.
<mgrwt>
<rscale>  0 0.18404218E+04</rscale>
<asrwt>0</asrwt>
<pdfrwt beam="1">  1        3 0.11888686E+00 0.18404218E+04</pdfrwt>
<pdfrwt beam="2">  1       -3 0.14535996E+00 0.18404218E+04</pdfrwt>
<totfact> 0.50253515E-01</totfact>
</mgrwt>
</event>
<event>
 8    1  0.1649749E-011  0.1421244E+04  0.7818608E-02  0.8938583E-01
         -3   -1    0    0    0  501 -0.00000000000E+00  0.00000000000E+00  0.40800147779E+03  0.40800149029E+03  0.10100000000E+00 0.  1.
          3   -1    0    0  501    0  0.00000000000E+00 -0.00000000000E+00 -0.12377000408E+04  0.12377000449E+04  0.10100000000E+00 0. -1.
     200001    2    1    2    0    0  0.25726301527E+02  0.10651989215E+03 -0.47086057607E+03  0.85148932750E+03  0.70093941445E+03 0.  0.
    5000001    2    3    3    0    0  0.15129034423E+02  0.14072107952E+03 -0.13957520818E+03  0.25062992775E+03  0.15265258609E+03 0.  0.
        -11    1    4    4    0    0  0.41246623305E+02  0.12223439393E+03 -0.29781310337E+02  0.13239885739E+03  0.51100000000E-03 0. -1.
     200002    1    4    4    0    0 -0.26117588882E+02  0.18486685591E+02 -0.10979389785E+03  0.11823107036E+03  0.30000000000E+02 0. -1.
     200000    1    3    3    0    0  0.10597267104E+02 -0.34201187366E+02 -0.33128536789E+03  0.60085939975E+03  0.50000000000E+03 0. -1.
    -200001    1    1    2    0    0 -0.25726301527E+02 -0.10651989215E+03 -0.35883798693E+03  0.79421220771E+03  0.70000000000E+03 0.  1.
<mgrwt>
<rscale>  0 0.14212438E+04</rscale>
<asrwt>0</asrwt>
<pdfrwt beam="1">  1        3 0.17681429E+00 0.14212438E+04</pdfrwt>
<pdfrwt beam="2">  1       -3 0.58285927E-01 0.14212438E+04</pdfrwt>
<totfact> 0.15413604E+00</totfact>
</mgrwt>
</event>
<event>
 8    1  0.1649749E-011  0.2273100E+04  0.7818608E-02  0.8488603E-01
         -3   -1    0    0    0  501 -0.00000000000E+00  0.00000000000E+00  0.91742942225E+03  0.91742942781E+03  0.10100000000E+00 0. -1.
          3   -1    0    0  501    0  0.00000000000E+00 -0.00000000000E+00 -0.14080062161E+04  0.14080062197E+04  0.10100000000E+00 0.  1.
     200001    2    1    2    0    0  0.30408251728E+03 -0.83597478430E+03 -0.35445918298E+03  0.11853268715E+04  0.69859749676E+03 0.  0.
    5000001    2    3    3    0    0  0.15000941362E+03 -0.12140907840E+03 -0.89972108682E+02  0.26104548475E+03  0.15101912554E+03 0.  0.
        -11    1    4    4    0    0 -0.21578973580E+02  0.38806797340E+01 -0.31985497068E+02  0.38778651329E+02  0.51100000000E-03 0. -1.
     200002    1    4    4    0    0  0.17158838720E+03 -0.12528975813E+03 -0.57986611614E+02  0.22226683342E+03  0.30000000000E+02 0. -1.
     200000    1    3    3    0    0  0.15407310366E+03 -0.71456570591E+03 -0.26448707429E+03  0.92428138670E+03  0.50000000000E+03 0.  1.
    -200001    1    1    2    0    0 -0.30408251728E+03  0.83597478430E+03 -0.13611761087E+03  0.11401087761E+04  0.70000000000E+03 0. -1.
<mgrwt>
<rscale>  0 0.22731004E+04</rscale>
<asrwt>0</asrwt>
<pdfrwt beam="1">  1        3 0.20114375E+00 0.22731004E+04</pdfrwt>
<pdfrwt beam="2">  1       -3 0.13106135E+00 0.22731004E+04</pdfrwt>
<totfact> 0.15751534E-01</totfact>
</mgrwt>
</event>
<event>
 8    1  0.1649749E-011  0.1606688E+04  0.7818608E-02  0.8816450E-01
         -3   -1    0    0    0  501 -0.00000000000E+00  0.00000000000E+00  0.14087378046E+04  0.14087378082E+04  0.10100000000E+00 0.  1.
          3   -1    0    0  501    0  0.00000000000E+00 -0.00000000000E+00 -0.45811331626E+03  0.45811332739E+03  0.10100000000E+00 0. -1.
     200001    2    1    2    0    0  0.35063102756E+03  0.70952076787E+02  0.66751374189E+03  0.10313105864E+04  0.70003615281E+03 0.  0.
    5000001    2    3    3    0    0  0.12104386234E+03  0.31159476701E+02  0.19069427598E+03  0.30216689646E+03  0.19828766181E+03 0.  0.
        -11    1    4    4    0    0  0.76671393514E+02  0.89971435705E+02  0.28620828625E+02  0.12162447804E+03  0.51100000000E-03 0. -1.
     200002    1    4    4    0    0  0.44372468823E+02 -0.58811959004E+02  0.16207344735E+03  0.18054241842E+03  0.30000000000E+02 0. -1.
     200000    1    3    3    0    0  0.22958716523E+03  0.39792600086E+02  0.47681946591E+03  0.72914368991E+03  0.50000000000E+03 0.  1.
    -200001    1    1    2    0    0 -0.35063102756E+03 -0.70952076787E+02  0.28311074645E+03  0.83554054925E+03  0.70000000000E+03 0. -1.
<mgrwt>
<rscale>  0 0.16066880E+04</rscale>
<asrwt>0</asrwt>
<pdfrwt beam="1">  1        3 0.65444760E-01 0.16066880E+04</pdfrwt>
<pdfrwt beam="2">  1       -3 0.20124826E+00 0.16066880E+04</pdfrwt>
<totfact> 0.81916162E-01</totfact>
</mgrwt>
</event>
<event>
 8    1  0.1649749E-011  0.1432030E+04  0.7818608E-02  0.8930954E-01
          3   -1    0    0  501    0  0.00000000000E+00  0.00000000000E+00  0.21914052216E+04  0.21914052240E+04  0.10100000000E+00 0.  1.
         -3   -1    0    0    0  501 -0.00000000000E+00 -0.00000000000E+00 -0.23394932026E+03  0.23394934207E+03  0.10100000000E+00 0. -1.
     200001    2    1    2    0    0 -0.13651703581E+03 -0.40796895273E+02  0.10601069617E+04  0.12783862111E+04  0.70010231159E+03 0.  0.
    5000001    2    3    3    0    0 -0.10494482809E+03 -0.25157475303E+02  0.38170850196E+03  0.43490185086E+03  0.17830289932E+03 0.  0.
        -11    1    4    4    0    0 -0.10298144441E+03  0.59246984428E+02  0.21535656130E+03  0.24595493805E+03  0.51100000000E-03 0. -1.
     200002    1    4    4    0    0 -0.19633836820E+01 -0.84404459731E+02  0.16635194066E+03  0.18894691280E+03  0.30000000000E+02 0. -1.
     200000    1    3    3    0    0 -0.31572207716E+02 -0.15639419971E+02  0.67839845976E+03  0.84348436023E+03  0.50000000000E+03 0. -1.
    -200001    1    1    2    0    0  0.13651703581E+03  0.40796895273E+02  0.89734893966E+03  0.11469683549E+04  0.70000000000E+03 0. -1.
<mgrwt>
<rscale>  0 0.14320304E+04</rscale>
<asrwt>0</asrwt>
<pdfrwt beam="1">  1        3 0.31305790E+00 0.14320304E+04</pdfrwt>
<pdfrwt beam="2">  1       -3 0.33421332E-01 0.14320304E+04</pdfrwt>
<totfact> 0.74439365E-01</totfact>
</mgrwt>
</event>
<event>
 8    1  0.1649749E-011  0.1521153E+04  0.7818608E-02  0.8870507E-01
         -3   -1    0    0    0  501 -0.00000000000E+00  0.00000000000E+00  0.74961485135E+03  0.74961485816E+03  0.10100000000E+00 0.  1.
          3   -1    0    0  501    0  0.00000000000E+00 -0.00000000000E+00 -0.77169886358E+03  0.77169887019E+03  0.10100000000E+00 0. -1.
     200001    2    1    2    0    0  0.19379724806E+03  0.86357935609E+02 -0.22100350880E+03  0.76330051441E+03  0.69912091801E+03 0.  0.
    5000001    2    3    3    0    0  0.35529490719E+02  0.84954347706E+02  0.41813665944E+02  0.17668009163E+03  0.14487196490E+03 0.  0.
        -11    1    4    4    0    0  0.74026495377E+02  0.47502429191E+02  0.66628952110E+02  0.11034409842E+03  0.51100000000E-03 0. -1.
     200002    1    4    4    0    0 -0.38497004658E+02  0.37451918514E+02 -0.24815286166E+02  0.66335993213E+02  0.30000000000E+02 0.  1.
     200000    1    3    3    0    0  0.15826775734E+03  0.14035879036E+01 -0.26281717475E+03  0.58662042277E+03  0.50000000000E+03 0. -1.
    -200001    1    1    2    0    0 -0.19379724806E+03 -0.86357935609E+02  0.19891949657E+03  0.75801321394E+03  0.70000000000E+03 0.  1.
<mgrwt>
<rscale>  0 0.15211534E+04</rscale>
<asrwt>0</asrwt>
<pdfrwt beam="1">  1        3 0.11024270E+00 0.15211534E+04</pdfrwt>
<pdfrwt beam="2">  1       -3 0.10708784E+00 0.15211534E+04</pdfrwt>
<totfact> 0.13124788E+00</totfact>
</mgrwt>
</event>
<event>
 8    1  0.1649749E-011  0.1501108E+04  0.7818608E-02  0.8883716E-01
          3   -1    0    0  501    0  0.00000000000E+00  0.00000000000E+00  0.11343423170E+04  0.11343423215E+04  0.10100000000E+00 0.  1.
         -3   -1    0    0    0  501 -0.00000000000E+00 -0.00000000000E+00 -0.49661496983E+03  0.49661498010E+03  0.10100000000E+00 0. -1.
     200001    2    1    2    0    0 -0.13698111286E+03 -0.14262033299E+03  0.12051455211E+03  0.73842525176E+03  0.70117309596E+03 0.  0.
    5000001    2    3    3    0    0 -0.79285354692E+02 -0.10900991629E+03  0.58956535351E+02  0.23024432920E+03  0.17710801436E+03 0.  0.
        -11    1    4    4    0    0 -0.12074509466E+03 -0.78361642506E+02 -0.33551308997E+01  0.14398326918E+03  0.51100000000E-03 0. -1.
     200002    1    4    4    0    0  0.41459739970E+02 -0.30648273784E+02  0.62311666251E+02  0.86261060017E+02  0.30000000000E+02 0. -1.
     200000    1    3    3    0    0 -0.57695758171E+02 -0.33610416698E+02  0.61558016758E+02  0.50818092255E+03  0.50000000000E+03 0. -1.
    -200001    1    1    2    0    0  0.13698111286E+03  0.14262033299E+03  0.51721279510E+03  0.89253204989E+03  0.70000000000E+03 0.  1.
<mgrwt>
<rscale>  0 0.15011081E+04</rscale>
<asrwt>0</asrwt>
<pdfrwt beam="1">  1        3 0.16204891E+00 0.15011081E+04</pdfrwt>
<pdfrwt beam="2">  1       -3 0.70944996E-01 0.15011081E+04</pdfrwt>
<totfact> 0.12737759E+00</totfact>
</mgrwt>
</event>
<event>
 8    1  0.1649749E-011  0.1714543E+04  0.7818608E-02  0.8753113E-01
         -3   -1    0    0    0  501 -0.00000000000E+00  0.00000000000E+00  0.44209104448E+03  0.44209105601E+03  0.10100000000E+00 0. -1.
          3   -1    0    0  501    0  0.00000000000E+00 -0.00000000000E+00 -0.16623598672E+04  0.16623598702E+04  0.10100000000E+00 0.  1.
     200001    2    1    2    0    0 -0.13053015371E+01  0.47071118857E+03 -0.42132382364E+03  0.94260591146E+03  0.69958660157E+03 0.  0.
    5000001    2    3    3    0    0 -0.33784738260E+01  0.56204197122E+02 -0.73533567944E+02  0.20587094829E+03  0.18386227420E+03 0.  0.
        -11    1    4    4    0    0 -0.60412539383E+02  0.80323323351E+02 -0.90229060288E+02  0.13506588951E+03  0.51100000000E-03 0. -1.
     200002    1    4    4    0    0  0.57034065557E+02 -0.24119126229E+02  0.16695492344E+02  0.70805058778E+02  0.30000000000E+02 0. -1.
     200000    1    3    3    0    0  0.20731722889E+01  0.41450699145E+03 -0.34779025570E+03  0.73673496317E+03  0.50000000000E+03 0. -1.
    -200001    1    1    2    0    0  0.13053015371E+01 -0.47071118857E+03 -0.79894499903E+03  0.11618450148E+04  0.70000000000E+03 0.  1.
<mgrwt>
<rscale>  0 0.17145430E+04</rscale>
<asrwt>0</asrwt>
<pdfrwt beam="1">  1        3 0.23747998E+00 0.17145430E+04</pdfrwt>
<pdfrwt beam="2">  1       -3 0.63155865E-01 0.17145430E+04</pdfrwt>
<totfact> 0.53259129E-01</totfact>
</mgrwt>
</event>
<event>
 8    1  0.1649749E-011  0.1768005E+04  0.7818608E-02  0.8723502E-01
         -3   -1    0    0    0  501 -0.00000000000E+00  0.00000000000E+00  0.61210428122E+03  0.61210428956E+03  0.10100000000E+00 0. -1.
          3   -1    0    0  501    0  0.00000000000E+00 -0.00000000000E+00 -0.12766782286E+04  0.12766782326E+04  0.10100000000E+00 0.  1.
     200001    2    1    2    0    0  0.38317972112E+03 -0.24222748691E+03 -0.64516911311E+03  0.10545898575E+04  0.70029688634E+03 0.  0.
    5000001    2    3    3    0    0  0.13485837307E+03 -0.71508393473E+02 -0.29364959779E+03  0.37313958759E+03  0.17234510269E+03 0.  0.
        -11    1    4    4    0    0  0.88977803750E+02  0.10228366351E+01 -0.26227951975E+03  0.27696325070E+03  0.51100000000E-03 0. -1.
     200002    1    4    4    0    0  0.45880569321E+02 -0.72531230108E+02 -0.31370078035E+02  0.96176336893E+02  0.30000000000E+02 0. -1.
     200000    1    3    3    0    0  0.24832134805E+03 -0.17071909344E+03 -0.35151951532E+03  0.68145026995E+03  0.50000000000E+03 0. -1.
    -200001    1    1    2    0    0 -0.38317972112E+03  0.24222748691E+03 -0.19404834267E+02  0.83419266461E+03  0.70000000000E+03 0. -1.
<mgrwt>
<rscale>  0 0.17680048E+04</rscale>
<asrwt>0</asrwt>
<pdfrwt beam="1">  1        3 0.18238261E+00 0.17680048E+04</pdfrwt>
<pdfrwt beam="2">  1       -3 0.87443469E-01 0.17680048E+04</pdfrwt>
<totfact> 0.56810415E-01</totfact>
</mgrwt>
</event>
<event>
 8    1  0.1649749E-011  0.2242071E+04  0.7818608E-02  0.8501118E-01
          3   -1    0    0  501    0  0.00000000000E+00  0.00000000000E+00  0.30628144263E+04  0.30628144280E+04  0.10100000000E+00 0.  1.
         -3   -1    0    0    0  501 -0.00000000000E+00 -0.00000000000E+00 -0.41031567221E+03  0.41031568464E+03  0.10100000000E+00 0. -1.
     200001    2    1    2    0    0 -0.17382369290E+03 -0.75772845541E+03  0.70130743441E+03  0.12591936514E+04  0.69954945914E+03 0.  0.
    5000001    2    3    3    0    0 -0.63753924887E+02 -0.40195797141E+03  0.35470698764E+03  0.54587754977E+03  0.80811376353E+02 0.  0.
        -11    1    4    4    0    0 -0.42990455637E+02 -0.32965593508E+03  0.26603663546E+03  0.42578950928E+03  0.51100000000E-03 0. -1.
     200002    1    4    4    0    0 -0.20763469249E+02 -0.72302036329E+02  0.88670352187E+02  0.12008804049E+03  0.30000000000E+02 0.  1.
     200000    1    3    3    0    0 -0.11006976802E+03 -0.35577048400E+03  0.34660044677E+03  0.71331610161E+03  0.50000000000E+03 0. -1.
    -200001    1    1    2    0    0  0.17382369290E+03  0.75772845541E+03  0.19511913197E+04  0.22139364612E+04  0.70000000000E+03 0.  1.
<mgrwt>
<rscale>  0 0.22420712E+04</rscale>
<asrwt>0</asrwt>
<pdfrwt beam="1">  1        3 0.43754491E+00 0.22420712E+04</pdfrwt>
<pdfrwt beam="2">  1       -3 0.58616527E-01 0.22420712E+04</pdfrwt>
<totfact> 0.48392230E-02</totfact>
</mgrwt>
</event>
<event>
 8    1  0.1649749E-011  0.1794065E+04  0.7818608E-02  0.8709462E-01
         -3   -1    0    0    0  501 -0.00000000000E+00  0.00000000000E+00  0.16840167531E+04  0.16840167561E+04  0.10100000000E+00 0. -1.
          3   -1    0    0  501    0  0.00000000000E+00 -0.00000000000E+00 -0.47782617499E+03  0.47782618567E+03  0.10100000000E+00 0.  1.
     200001    2    1    2    0    0 -0.19742685828E+03  0.51746349974E+03  0.49281996555E+03  0.10191953720E+04  0.69938676704E+03 0.  0.
    5000001    2    3    3    0    0 -0.11040174515E+03  0.11005235105E+03  0.10755379815E+03  0.26289699560E+03  0.18233744951E+03 0.  0.
        -11    1    4    4    0    0 -0.11225461408E+03  0.11289012579E+03  0.85934342451E+01  0.15943376680E+03  0.51100000000E-03 0. -1.
     200002    1    4    4    0    0  0.18528689305E+01 -0.28377747463E+01  0.98960363908E+02  0.10346322880E+03  0.30000000000E+02 0. -1.
     200000    1    3    3    0    0 -0.87025113132E+02  0.40741114869E+03  0.38526616740E+03  0.75629837639E+03  0.50000000000E+03 0. -1.
    -200001    1    1    2    0    0  0.19742685828E+03 -0.51746349974E+03  0.71337061258E+03  0.11426475698E+04  0.70000000000E+03 0. -1.
<mgrwt>
<rscale>  0 0.17940650E+04</rscale>
<asrwt>0</asrwt>
<pdfrwt beam="1">  1        3 0.68260884E-01 0.17940650E+04</pdfrwt>
<pdfrwt beam="2">  1       -3 0.24057382E+00 0.17940650E+04</pdfrwt>
<totfact> 0.42558611E-01</totfact>
</mgrwt>
</event>
<event>
 8    1  0.1649749E-011  0.1664283E+04  0.7818608E-02  0.8782001E-01
         -3   -1    0    0    0  501 -0.00000000000E+00  0.00000000000E+00  0.38567711457E+03  0.38567712779E+03  0.10100000000E+00 0. -1.
          3   -1    0    0  501    0  0.00000000000E+00 -0.00000000000E+00 -0.17954378562E+04  0.17954378590E+04  0.10100000000E+00 0.  1.
     200001    2    1    2    0    0  0.15933203904E+03 -0.21463892555E+03 -0.22990814681E+03  0.78343522646E+03  0.69961162874E+03 0.  0.
    5000001    2    3    3    0    0 -0.73335036450E+01 -0.54012879002E+02 -0.98157823400E+02  0.21692284560E+03  0.18560547211E+03 0.  0.
        -11    1    4    4    0    0  0.14995981722E+02 -0.11531926394E+03 -0.84684300005E+02  0.14385702197E+03  0.51100000000E-03 0. -1.
     200002    1    4    4    0    0 -0.22329485367E+02  0.61306384935E+02 -0.13473523395E+02  0.73065823633E+02  0.30000000000E+02 0. -1.
     200000    1    3    3    0    0  0.16666554269E+03 -0.16062604654E+03 -0.13175032341E+03  0.56651238086E+03  0.50000000000E+03 0. -1.
    -200001    1    1    2    0    0 -0.15933203904E+03  0.21463892555E+03 -0.11798525948E+04  0.13976797603E+04  0.70000000000E+03 0.  1.
<mgrwt>
<rscale>  0 0.16642828E+04</rscale>
<asrwt>0</asrwt>
<pdfrwt beam="1">  1        3 0.25649112E+00 0.16642828E+04</pdfrwt>
<pdfrwt beam="2">  1       -3 0.55096733E-01 0.16642828E+04</pdfrwt>
<totfact> 0.55393382E-01</totfact>
</mgrwt>
</event>
<event>
 8    1  0.1649749E-011  0.1483074E+04  0.7818608E-02  0.8895787E-01
         -3   -1    0    0    0  501 -0.00000000000E+00  0.00000000000E+00  0.48621330777E+03  0.48621331826E+03  0.10100000000E+00 0.  1.
          3   -1    0    0  501    0  0.00000000000E+00 -0.00000000000E+00 -0.11309374379E+04  0.11309374424E+04  0.10100000000E+00 0. -1.
     200001    2    1    2    0    0 -0.80757425077E+02  0.20412044661E+03 -0.44036833689E+03  0.85560745350E+03  0.69996637342E+03 0.  0.
    5000001    2    3    3    0    0  0.21399227839E+02  0.17860840524E+03 -0.13481740066E+03  0.26025191214E+03  0.13113518552E+03 0.  0.
        -11    1    4    4    0    0  0.19365448278E+02  0.20477738511E+02 -0.88317775114E+02  0.92705920862E+02  0.51100000000E-03 0. -1.
     200002    1    4    4    0    0  0.20337795619E+01  0.15813066673E+03 -0.46499625545E+02  0.16754599128E+03  0.30000000000E+02 0.  1.
     200000    1    3    3    0    0 -0.10215665292E+03  0.25512041371E+02 -0.30555093623E+03  0.59535554135E+03  0.50000000000E+03 0. -1.
    -200001    1    1    2    0    0  0.80757425077E+02 -0.20412044661E+03 -0.20435579320E+03  0.76154330714E+03  0.70000000000E+03 0.  1.
<mgrwt>
<rscale>  0 0.14830736E+04</rscale>
<asrwt>0</asrwt>
<pdfrwt beam="1">  1        3 0.16156249E+00 0.14830736E+04</pdfrwt>
<pdfrwt beam="2">  1       -3 0.69459045E-01 0.14830736E+04</pdfrwt>
<totfact> 0.13462903E+00</totfact>
</mgrwt>
</event>
<event>
 8    1  0.1649749E-011  0.1875254E+04  0.7818608E-02  0.8667273E-01
          3   -1    0    0  501    0  0.00000000000E+00  0.00000000000E+00  0.72734391113E+03  0.72734391815E+03  0.10100000000E+00 0.  1.
         -3   -1    0    0    0  501 -0.00000000000E+00 -0.00000000000E+00 -0.12087048896E+04  0.12087048938E+04  0.10100000000E+00 0. -1.
     200001    2    1    2    0    0  0.47835158076E+03  0.34135313703E+03 -0.24204983338E+02  0.91412229655E+03  0.69977960305E+03 0.  0.
    5000001    2    3    3    0    0  0.17067013851E+03  0.10635788798E+03 -0.20973014664E+01  0.28136690417E+03  0.19678068903E+03 0.  0.
        -11    1    4    4    0    0  0.13918119784E+03  0.20911204023E+02 -0.76330947351E+02  0.16010964309E+03  0.51100000000E-03 0. -1.
     200002    1    4    4    0    0  0.31488940668E+02  0.85446683959E+02  0.74233645884E+02  0.12125726108E+03  0.30000000000E+02 0. -1.
     200000    1    3    3    0    0  0.30768144226E+03  0.23499524905E+03 -0.22107681872E+02  0.63275539238E+03  0.50000000000E+03 0.  1.
    -200001    1    1    2    0    0 -0.47835158076E+03 -0.34135313703E+03 -0.45715599508E+03  0.10219265154E+04  0.70000000000E+03 0. -1.
<mgrwt>
<rscale>  0 0.18752537E+04</rscale>
<asrwt>0</asrwt>
<pdfrwt beam="1">  1        3 0.10390627E+00 0.18752537E+04</pdfrwt>
<pdfrwt beam="2">  1       -3 0.17267213E+00 0.18752537E+04</pdfrwt>
<totfact> 0.43800425E-01</totfact>
</mgrwt>
</event>
<event>
 8    1  0.1649749E-011  0.1456071E+04  0.7818608E-02  0.8914203E-01
          3   -1    0    0  501    0  0.00000000000E+00  0.00000000000E+00  0.23965113051E+03  0.23965115179E+03  0.10100000000E+00 0. -1.
         -3   -1    0    0    0  501 -0.00000000000E+00 -0.00000000000E+00 -0.22116963261E+04  0.22116963284E+04  0.10100000000E+00 0.  1.
     200001    2    1    2    0    0 -0.46255376905E+02 -0.95107934237E+02 -0.12854809113E+04  0.14651651464E+04  0.69502708851E+03 0.  0.
    5000001    2    3    3    0    0 -0.47584710637E+01 -0.62546006257E+02 -0.21614907010E+03  0.28353370680E+03  0.17244215391E+03 0.  0.
        -11    1    4    4    0    0 -0.58630594020E+02  0.31773164373E+02 -0.11052019611E+03  0.12908057281E+03  0.51100000000E-03 0. -1.
     200002    1    4    4    0    0  0.53872122956E+02 -0.94319170630E+02 -0.10562887399E+03  0.15445313399E+03  0.30000000000E+02 0. -1.
     200000    1    3    3    0    0 -0.41496905842E+02 -0.32561927980E+02 -0.10693318412E+04  0.11816314396E+04  0.50000000000E+03 0.  1.
    -200001    1    1    2    0    0  0.46255376905E+02  0.95107934237E+02 -0.68656428421E+03  0.98618233375E+03  0.70000000000E+03 0. -1.
<mgrwt>
<rscale>  0 0.14560708E+04</rscale>
<asrwt>0</asrwt>
<pdfrwt beam="1">  1        3 0.34235879E-01 0.14560708E+04</pdfrwt>
<pdfrwt beam="2">  1       -3 0.31595661E+00 0.14560708E+04</pdfrwt>
<totfact> 0.66929852E-01</totfact>
</mgrwt>
</event>
<event>
 8    1  0.1649749E-011  0.1556672E+04  0.7818608E-02  0.8847617E-01
         -3   -1    0    0    0  501 -0.00000000000E+00  0.00000000000E+00  0.51068248814E+03  0.51068249813E+03  0.10100000000E+00 0.  1.
          3   -1    0    0  501    0  0.00000000000E+00 -0.00000000000E+00 -0.11862699547E+04  0.11862699590E+04  0.10100000000E+00 0. -1.
     200001    2    1    2    0    0  0.12946871106E+02  0.29513224792E+03 -0.52137672469E+03  0.92167726846E+03  0.70027468390E+03 0.  0.
    5000001    2    3    3    0    0  0.17534206884E+02  0.75019128840E+02 -0.16421427602E+03  0.26896305566E+03  0.19859375308E+03 0.  0.
        -11    1    4    4    0    0 -0.86437863940E+02  0.43838286339E+02 -0.52017880310E+02  0.10999617968E+03  0.51100000000E-03 0. -1.
     200002    1    4    4    0    0  0.10397207082E+03  0.31180842501E+02 -0.11219639571E+03  0.15896687599E+03  0.30000000000E+02 0. -1.
     200000    1    3    3    0    0 -0.45873357784E+01  0.22011311908E+03 -0.35716244867E+03  0.65271421280E+03  0.50000000000E+03 0. -1.
    -200001    1    1    2    0    0 -0.12946871106E+02 -0.29513224792E+03 -0.15421074184E+03  0.77527518865E+03  0.70000000000E+03 0.  1.
<mgrwt>
<rscale>  0 0.15566725E+04</rscale>
<asrwt>0</asrwt>
<pdfrwt beam="1">  1        3 0.16946714E+00 0.15566725E+04</pdfrwt>
<pdfrwt beam="2">  1       -3 0.72954642E-01 0.15566725E+04</pdfrwt>
<totfact> 0.10583265E+00</totfact>
</mgrwt>
</event>
<event>
 8    1  0.1649749E-011  0.1961803E+04  0.7818608E-02  0.8624690E-01
         -3   -1    0    0    0  501 -0.00000000000E+00  0.00000000000E+00  0.11817515893E+04  0.11817515936E+04  0.10100000000E+00 0. -1.
          3   -1    0    0  501    0  0.00000000000E+00 -0.00000000000E+00 -0.81418784731E+03  0.81418785358E+03  0.10100000000E+00 0.  1.
     200001    2    1    2    0    0 -0.19587910647E+03  0.26954692885E+03 -0.42740375724E+03  0.88553524329E+03  0.70033886383E+03 0.  0.
    5000001    2    3    3    0    0 -0.56008354347E+02  0.10802142788E+03 -0.10629622413E+03  0.25405732397E+03  0.19606292858E+03 0.  0.
        -11    1    4    4    0    0  0.49333820560E+02 -0.16283559422E+02  0.82993296657E+01  0.52610446032E+02  0.51100000000E-03 0. -1.
     200002    1    4    4    0    0 -0.10534217491E+03  0.12430498730E+03 -0.11459555380E+03  0.20144687794E+03  0.30000000000E+02 0. -1.
     200000    1    3    3    0    0 -0.13987075212E+03  0.16152550097E+03 -0.32110753311E+03  0.63147791931E+03  0.50000000000E+03 0.  1.
    -200001    1    1    2    0    0  0.19587910647E+03 -0.26954692885E+03  0.79496749920E+03  0.11104042039E+04  0.70000000000E+03 0. -1.
<mgrwt>
<rscale>  0 0.19618030E+04</rscale>
<asrwt>0</asrwt>
<pdfrwt beam="1">  1        3 0.11631255E+00 0.19618030E+04</pdfrwt>
<pdfrwt beam="2">  1       -3 0.16882166E+00 0.19618030E+04</pdfrwt>
<totfact> 0.35341613E-01</totfact>
</mgrwt>
</event>
<event>
 8    1  0.1649749E-011  0.1578109E+04  0.7818608E-02  0.8834110E-01
          3   -1    0    0  501    0  0.00000000000E+00  0.00000000000E+00  0.59017622255E+03  0.59017623119E+03  0.10100000000E+00 0.  1.
         -3   -1    0    0    0  501 -0.00000000000E+00 -0.00000000000E+00 -0.10549510315E+04  0.10549510364E+04  0.10100000000E+00 0. -1.
     200001    2    1    2    0    0 -0.34538511600E+03  0.48236408280E+02 -0.34026704758E+03  0.85321830051E+03  0.70041571600E+03 0.  0.
    5000001    2    3    3    0    0 -0.10343415662E+03  0.67279830867E+02 -0.15111680594E+03  0.26612313565E+03  0.18099733118E+03 0.  0.
        -11    1    4    4    0    0 -0.10798402683E+03  0.84228342620E+01 -0.16603997479E+03  0.19824421155E+03  0.51100000000E-03 0. -1.
     200002    1    4    4    0    0  0.45498702012E+01  0.58856996605E+02  0.14923168852E+02  0.67878924099E+02  0.30000000000E+02 0. -1.
     200000    1    3    3    0    0 -0.24195095937E+03 -0.19043422587E+02 -0.18915024164E+03  0.58709516486E+03  0.50000000000E+03 0. -1.
    -200001    1    1    2    0    0  0.34538511600E+03 -0.48236408280E+02 -0.12450776141E+03  0.79190896705E+03  0.70000000000E+03 0.  1.
<mgrwt>
<rscale>  0 0.15781090E+04</rscale>
<asrwt>0</asrwt>
<pdfrwt beam="1">  1        3 0.84310890E-01 0.15781090E+04</pdfrwt>
<pdfrwt beam="2">  1       -3 0.15070729E+00 0.15781090E+04</pdfrwt>
<totfact> 0.10427495E+00</totfact>
</mgrwt>
</event>
<event>
 8    1  0.1649749E-011  0.1609090E+04  0.7818608E-02  0.8814983E-01
          3   -1    0    0  501    0  0.00000000000E+00  0.00000000000E+00  0.21628326192E+03  0.21628328550E+03  0.10100000000E+00 0.  1.
         -3   -1    0    0    0  501 -0.00000000000E+00 -0.00000000000E+00 -0.29927985079E+04  0.29927985096E+04  0.10100000000E+00 0. -1.
     200001    2    1    2    0    0 -0.26441836976E+03  0.27199180267E+03 -0.16182884542E+04  0.18035975667E+04  0.70015001730E+03 0.  0.
    5000001    2    3    3    0    0 -0.12115288667E+03  0.24394120571E+02 -0.39466423128E+03  0.45116056275E+03  0.18031334632E+03 0.  0.
        -11    1    4    4    0    0 -0.15830141785E+03  0.17199925954E+02 -0.35349924889E+03  0.38770722887E+03  0.51100000000E-03 0. -1.
     200002    1    4    4    0    0  0.37148531187E+02  0.71941946170E+01 -0.41164982387E+02  0.63453333880E+02  0.30000000000E+02 0. -1.
     200000    1    3    3    0    0 -0.14326548310E+03  0.24759768210E+03 -0.12236242229E+04  0.13524370040E+04  0.50000000000E+03 0.  1.
    -200001    1    1    2    0    0  0.26441836976E+03 -0.27199180267E+03 -0.11582267918E+04  0.14054842284E+04  0.70000000000E+03 0. -1.
<mgrwt>
<rscale>  0 0.16090895E+04</rscale>
<asrwt>0</asrwt>
<pdfrwt beam="1">  1        3 0.30897612E-01 0.16090895E+04</pdfrwt>
<pdfrwt beam="2">  1       -3 0.42754262E+00 0.16090895E+04</pdfrwt>
<totfact> 0.19492316E-01</totfact>
</mgrwt>
</event>
<event>
 8    1  0.1649749E-011  0.1428409E+04  0.7818608E-02  0.8933508E-01
         -3   -1    0    0    0  501 -0.00000000000E+00  0.00000000000E+00  0.17282696284E+04  0.17282696314E+04  0.10100000000E+00 0. -1.
          3   -1    0    0  501    0  0.00000000000E+00 -0.00000000000E+00 -0.29514363136E+03  0.29514364864E+03  0.10100000000E+00 0.  1.
     200001    2    1    2    0    0  0.54562437817E+02  0.12659416633E+03  0.61163886629E+03  0.93536721086E+03  0.69412288092E+03 0.  0.
    5000001    2    3    3    0    0  0.44568930727E+02  0.16901994912E+01  0.25604752575E+03  0.30915153508E+03  0.16740695876E+03 0.  0.
        -11    1    4    4    0    0 -0.43697349094E+02  0.51043853060E+02  0.87603512894E+02  0.11040520243E+03  0.51100000000E-03 0. -1.
     200002    1    4    4    0    0  0.88266279821E+02 -0.49353653569E+02  0.16844401286E+03  0.19874633265E+03  0.30000000000E+02 0. -1.
     200000    1    3    3    0    0  0.99935070899E+01  0.12490396684E+03  0.35559134054E+03  0.62621567577E+03  0.50000000000E+03 0. -1.
    -200001    1    1    2    0    0 -0.54562437817E+02 -0.12659416633E+03  0.82148713078E+03  0.10880460692E+04  0.70000000000E+03 0. -1.
<mgrwt>
<rscale>  0 0.14284086E+04</rscale>
<asrwt>0</asrwt>
<pdfrwt beam="1">  1        3 0.42163377E-01 0.14284086E+04</pdfrwt>
<pdfrwt beam="2">  1       -3 0.24689567E+00 0.14284086E+04</pdfrwt>
<totfact> 0.10934784E+00</totfact>
</mgrwt>
</event>
<event>
 8    1  0.1649749E-011  0.1491665E+04  0.7818608E-02  0.8890015E-01
          3   -1    0    0  501    0  0.00000000000E+00  0.00000000000E+00  0.31378561398E+03  0.31378563024E+03  0.10100000000E+00 0. -1.
         -3   -1    0    0    0  501 -0.00000000000E+00 -0.00000000000E+00 -0.17727579775E+04  0.17727579804E+04  0.10100000000E+00 0.  1.
     200001    2    1    2    0    0 -0.15003641065E+03  0.15437867218E+03 -0.92742748507E+03  0.11816217042E+04  0.69983170318E+03 0.  0.
    5000001    2    3    3    0    0 -0.32180469627E+02  0.98166585400E+01 -0.30723151786E+03  0.36343392844E+03  0.19120948033E+03 0.  0.
        -11    1    4    4    0    0 -0.82134874851E+02 -0.41191343704E+02 -0.25223625457E+03  0.26845109905E+03  0.51100000000E-03 0. -1.
     200002    1    4    4    0    0  0.49954405224E+02  0.51008002244E+02 -0.54995263285E+02  0.94982829386E+02  0.30000000000E+02 0. -1.
     200000    1    3    3    0    0 -0.11785594102E+03  0.14456201364E+03 -0.62019596721E+03  0.81818777574E+03  0.50000000000E+03 0.  1.
    -200001    1    1    2    0    0  0.15003641065E+03 -0.15437867218E+03 -0.53154487845E+03  0.90492190644E+03  0.70000000000E+03 0.  1.
<mgrwt>
<rscale>  0 0.14916648E+04</rscale>
<asrwt>0</asrwt>
<pdfrwt beam="1">  1        3 0.44826519E-01 0.14916648E+04</pdfrwt>
<pdfrwt beam="2">  1       -3 0.25325113E+00 0.14916648E+04</pdfrwt>
<totfact> 0.88428977E-01</totfact>
</mgrwt>
</event>
<event>
 8    1  0.1649749E-011  0.1433656E+04  0.7818608E-02  0.8929811E-01
         -3   -1    0    0    0  501 -0.00000000000E+00  0.00000000000E+00  0.13417700707E+04  0.13417700745E+04  0.10100000000E+00 0. -1.
          3   -1    0    0  501    0  0.00000000000E+00 -0.00000000000E+00 -0.38295856803E+03  0.38295858135E+03  0.10100000000E+00 0.  1.
     200001    2    1    2    0    0  0.67225444764E+02 -0.11962152033E+03  0.39572314254E+03  0.81593986307E+03  0.70023744976E+03 0.  0.
    5000001    2    3    3    0    0 -0.17459656068E+02 -0.66802405990E+01  0.79249548308E+02  0.20759552405E+03  0.19096058623E+03 0.  0.
        -11    1    4    4    0    0 -0.90485003517E+02 -0.16808846922E+02  0.88233005445E+02  0.12749563305E+03  0.51100000000E-03 0. -1.
     200002    1    4    4    0    0  0.73025347450E+02  0.10128606323E+02 -0.89834571372E+01  0.80099891001E+02  0.30000000000E+02 0. -1.
     200000    1    3    3    0    0  0.84685100832E+02 -0.11294127973E+03  0.31647359423E+03  0.60834433902E+03  0.50000000000E+03 0. -1.
    -200001    1    1    2    0    0 -0.67225444764E+02  0.11962152033E+03  0.56308836008E+03  0.90878879274E+03  0.70000000000E+03 0.  1.
<mgrwt>
<rscale>  0 0.14336560E+04</rscale>
<asrwt>0</asrwt>
<pdfrwt beam="1">  1        3 0.54708368E-01 0.14336560E+04</pdfrwt>
<pdfrwt beam="2">  1       -3 0.19168144E+00 0.14336560E+04</pdfrwt>
<totfact> 0.13949147E+00</totfact>
</mgrwt>
</event>
<event>
 8    1  0.1649749E-011  0.1439870E+04  0.7818608E-02  0.8925454E-01
          3   -1    0    0  501    0  0.00000000000E+00  0.00000000000E+00  0.36173211752E+03  0.36173213162E+03  0.10100000000E+00 0.  1.
         -3   -1    0    0    0  501 -0.00000000000E+00 -0.00000000000E+00 -0.14328457480E+04  0.14328457516E+04  0.10100000000E+00 0. -1.
     200001    2    1    2    0    0  0.14031761102E+03  0.71946163295E+02 -0.46385397511E+03  0.85456215386E+03  0.70017903582E+03 0.  0.
    5000001    2    3    3    0    0  0.64107573076E+02  0.74819914491E+02 -0.17263675563E+03  0.27093239343E+03  0.18410081990E+03 0.  0.
        -11    1    4    4    0    0 -0.20031572875E+02  0.66619915146E+02  0.72270995553E+01  0.69940746166E+02  0.51100000000E-03 0. -1.
     200002    1    4    4    0    0  0.84139145951E+02  0.81999993441E+01 -0.17986385518E+03  0.20099164727E+03  0.30000000000E+02 0. -1.
     200000    1    3    3    0    0  0.76210037945E+02 -0.28737511958E+01 -0.29121721948E+03  0.58362976042E+03  0.50000000000E+03 0.  1.
    -200001    1    1    2    0    0 -0.14031761102E+03 -0.71946163295E+02 -0.60725965541E+03  0.94001572937E+03  0.70000000000E+03 0.  1.
<mgrwt>
<rscale>  0 0.14398699E+04</rscale>
<asrwt>0</asrwt>
<pdfrwt beam="1">  1        3 0.51676019E-01 0.14398699E+04</pdfrwt>
<pdfrwt beam="2">  1       -3 0.20469225E+00 0.14398699E+04</pdfrwt>
<totfact> 0.12965022E+00</totfact>
</mgrwt>
</event>
<event>
 8    1  0.1649749E-011  0.1525906E+04  0.7818608E-02  0.8867406E-01
         -3   -1    0    0    0  501 -0.00000000000E+00  0.00000000000E+00  0.11450691198E+04  0.11450691242E+04  0.10100000000E+00 0. -1.
          3   -1    0    0  501    0  0.00000000000E+00 -0.00000000000E+00 -0.50835115735E+03  0.50835116738E+03  0.10100000000E+00 0.  1.
     200001    2    1    2    0    0  0.50005370174E+02  0.35166246692E+01  0.64330352990E+03  0.95159675724E+03  0.69941693796E+03 0.  0.
    5000001    2    3    3    0    0  0.10659298753E+03 -0.29192156315E+02  0.20846694970E+03  0.28574776965E+03  0.16118024619E+03 0.  0.
        -11    1    4    4    0    0  0.10865684133E+03 -0.13500412075E+01  0.21808079978E+03  0.24365419556E+03  0.51100000000E-03 0. -1.
     200002    1    4    4    0    0 -0.20638538014E+01 -0.27842115108E+02 -0.96138500823E+01  0.42093574089E+02  0.30000000000E+02 0. -1.
     200000    1    3    3    0    0 -0.56587617356E+02  0.32708780984E+02  0.43483658020E+03  0.66584898759E+03  0.50000000000E+03 0. -1.
    -200001    1    1    2    0    0 -0.50005370174E+02 -0.35166246692E+01 -0.65855674809E+01  0.70182353437E+03  0.70000000000E+03 0.  1.
<mgrwt>
<rscale>  0 0.15259059E+04</rscale>
<asrwt>0</asrwt>
<pdfrwt beam="1">  1        3 0.72621595E-01 0.15259059E+04</pdfrwt>
<pdfrwt beam="2">  1       -3 0.16358130E+00 0.15259059E+04</pdfrwt>
<totfact> 0.11740011E+00</totfact>
</mgrwt>
</event>
<event>
 8    1  0.1649749E-011  0.1578363E+04  0.7818608E-02  0.8833952E-01
         -3   -1    0    0    0  501 -0.00000000000E+00  0.00000000000E+00  0.36734674713E+03  0.36734676101E+03  0.10100000000E+00 0.  1.
          3   -1    0    0  501    0  0.00000000000E+00 -0.00000000000E+00 -0.16954212792E+04  0.16954212822E+04  0.10100000000E+00 0. -1.
     200001    2    1    2    0    0  0.11866539491E+03 -0.81523575873E+02 -0.11014082083E+04  0.13130312949E+04  0.70015967524E+03 0.  0.
    5000001    2    3    3    0    0 -0.26971825846E+02 -0.86360947878E+02 -0.35462713359E+03  0.40258328777E+03  0.16771167820E+03 0.  0.
        -11    1    4    4    0    0 -0.65970609213E+02 -0.15613255262E+01 -0.50648281732E+02  0.83185380086E+02  0.51100000000E-03 0. -1.
     200002    1    4    4    0    0  0.38998783367E+02 -0.84799622351E+02 -0.30397885186E+03  0.31939790768E+03  0.30000000000E+02 0. -1.
     200000    1    3    3    0    0  0.14563722076E+03  0.48373720050E+01 -0.74678107468E+03  0.91044800716E+03  0.50000000000E+03 0. -1.
    -200001    1    1    2    0    0 -0.11866539491E+03  0.81523575873E+02 -0.22666632377E+03  0.74973674827E+03  0.70000000000E+03 0.  1.
<mgrwt>
<rscale>  0 0.15783631E+04</rscale>
<asrwt>0</asrwt>
<pdfrwt beam="1">  1        3 0.24220304E+00 0.15783631E+04</pdfrwt>
<pdfrwt beam="2">  1       -3 0.52478109E-01 0.15783631E+04</pdfrwt>
<totfact> 0.74554112E-01</totfact>
</mgrwt>
</event>
<event>
 8    1  0.1649749E-011  0.2099576E+04  0.7818608E-02  0.8561430E-01
         -3   -1    0    0    0  501 -0.00000000000E+00  0.00000000000E+00  0.87251062466E+03  0.87251063050E+03  0.10100000000E+00 0. -1.
          3   -1    0    0  501    0  0.00000000000E+00 -0.00000000000E+00 -0.12630851855E+04  0.12630851896E+04  0.10100000000E+00 0.  1.
     200001    2    1    2    0    0 -0.47851428240E+03 -0.44978172208E+03  0.23505696372E+03  0.98986709104E+03  0.70235714971E+03 0.  0.
    5000001    2    3    3    0    0 -0.26303896745E+03 -0.13322704601E+03  0.69194885565E+02  0.33860162806E+03  0.15140735171E+03 0.  0.
        -11    1    4    4    0    0 -0.19320248380E+03 -0.14009383977E+03  0.96676241768E+02  0.25748743544E+03  0.51100000000E-03 0. -1.
     200002    1    4    4    0    0 -0.69836483650E+02  0.68667937632E+01 -0.27481356203E+02  0.81114192617E+02  0.30000000000E+02 0. -1.
     200000    1    3    3    0    0 -0.21547531495E+03 -0.31655467607E+03  0.16586207816E+03  0.65126546298E+03  0.50000000000E+03 0. -1.
    -200001    1    1    2    0    0  0.47851428240E+03  0.44978172208E+03 -0.62563152460E+03  0.11457287290E+04  0.70000000000E+03 0.  1.
<mgrwt>
<rscale>  0 0.20995764E+04</rscale>
<asrwt>0</asrwt>
<pdfrwt beam="1">  1        3 0.18044074E+00 0.20995764E+04</pdfrwt>
<pdfrwt beam="2">  1       -3 0.12464438E+00 0.20995764E+04</pdfrwt>
<totfact> 0.24648401E-01</totfact>
</mgrwt>
</event>
<event>
 8    1  0.1649749E-011  0.1516049E+04  0.7818608E-02  0.8873850E-01
         -3   -1    0    0    0  501 -0.00000000000E+00  0.00000000000E+00  0.28095742224E+03  0.28095744039E+03  0.10100000000E+00 0.  1.
          3   -1    0    0  501    0  0.00000000000E+00 -0.00000000000E+00 -0.20451532788E+04  0.20451532813E+04  0.10100000000E+00 0. -1.
     200001    2    1    2    0    0  0.20850890444E+03  0.12507210580E+03 -0.11302613382E+04  0.13509225509E+04  0.69884336657E+03 0.  0.
    5000001    2    3    3    0    0  0.14713519932E+03  0.21969409910E+02 -0.15467124579E+03  0.24812024496E+03  0.12453529553E+03 0.  0.
        -11    1    4    4    0    0  0.11046346270E+03  0.66470689880E+02 -0.10636008091E+03  0.16713167269E+03  0.51100000000E-03 0. -1.
     200002    1    4    4    0    0  0.36671736612E+02 -0.44501279970E+02 -0.48311164887E+02  0.80988572266E+02  0.30000000000E+02 0. -1.
     200000    1    3    3    0    0  0.61373705125E+02  0.10310269589E+03 -0.97559009240E+03  0.11028023059E+04  0.50000000000E+03 0. -1.
    -200001    1    1    2    0    0 -0.20850890444E+03 -0.12507210580E+03 -0.63393451835E+03  0.97518817079E+03  0.70000000000E+03 0.  1.
<mgrwt>
<rscale>  0 0.15160488E+04</rscale>
<asrwt>0</asrwt>
<pdfrwt beam="1">  1        3 0.29216475E+00 0.15160488E+04</pdfrwt>
<pdfrwt beam="2">  1       -3 0.40136777E-01 0.15160488E+04</pdfrwt>
<totfact> 0.67318284E-01</totfact>
</mgrwt>
</event>
<event>
 8    1  0.1649749E-011  0.2424271E+04  0.7818608E-02  0.8430472E-01
          3   -1    0    0  501    0  0.00000000000E+00  0.00000000000E+00  0.23867706414E+04  0.23867706436E+04  0.10100000000E+00 0.  1.
         -3   -1    0    0    0  501 -0.00000000000E+00 -0.00000000000E+00 -0.61558998061E+03  0.61558998889E+03  0.10100000000E+00 0. -1.
     200001    2    1    2    0    0  0.59952503638E+03  0.46827965808E+03  0.16695430239E+04  0.19635890904E+04  0.69970858189E+03 0.  0.
    5000001    2    3    3    0    0  0.21862902379E+03  0.14029744825E+03  0.55478399668E+03  0.64247524544E+03  0.19366758636E+03 0.  0.
        -11    1    4    4    0    0  0.74418722335E+02 -0.27977546142E+02  0.26356219621E+03  0.27529242742E+03  0.51100000000E-03 0. -1.
     200002    1    4    4    0    0  0.14421030145E+03  0.16827499439E+03  0.29122180047E+03  0.36718281802E+03  0.30000000000E+02 0. -1.
     200000    1    3    3    0    0  0.38089601259E+03  0.32798220983E+03  0.11147590273E+04  0.13211138449E+04  0.50000000000E+03 0.  1.
    -200001    1    1    2    0    0 -0.59952503638E+03 -0.46827965808E+03  0.10163763687E+03  0.10387715421E+04  0.70000000000E+03 0. -1.
<mgrwt>
<rscale>  0 0.24242707E+04</rscale>
<asrwt>0</asrwt>
<pdfrwt beam="1">  1        3 0.34096724E+00 0.24242707E+04</pdfrwt>
<pdfrwt beam="2">  1       -3 0.87941426E-01 0.24242707E+04</pdfrwt>
<totfact> 0.64025527E-02</totfact>
</mgrwt>
</event>
<event>
 8    1  0.1649749E-011  0.1519076E+04  0.7818608E-02  0.8871866E-01
         -3   -1    0    0    0  501 -0.00000000000E+00  0.00000000000E+00  0.27727821687E+03  0.27727823526E+03  0.10100000000E+00 0. -1.
          3   -1    0    0  501    0  0.00000000000E+00 -0.00000000000E+00 -0.20805746011E+04  0.20805746036E+04  0.10100000000E+00 0.  1.
     200001    2    1    2    0    0  0.16013551703E+03  0.24471771327E+03 -0.87806899700E+03  0.11613680453E+04  0.70159848216E+03 0.  0.
    5000001    2    3    3    0    0  0.37286367935E+02  0.99013147991E+02 -0.25861897075E+03  0.34280829257E+03  0.19859475501E+03 0.  0.
        -11    1    4    4    0    0  0.71294240388E+02  0.11998317243E+03 -0.87927364663E+02  0.16495469631E+03  0.51100000000E-03 0. -1.
     200002    1    4    4    0    0 -0.34007872453E+02 -0.20970024440E+02 -0.17069160609E+03  0.17785359626E+03  0.30000000000E+02 0. -1.
     200000    1    3    3    0    0  0.12284914909E+03  0.14570456528E+03 -0.61945002625E+03  0.81855975273E+03  0.50000000000E+03 0.  1.
    -200001    1    1    2    0    0 -0.16013551703E+03 -0.24471771327E+03 -0.92522738724E+03  0.11964847935E+04  0.70000000000E+03 0.  1.
<mgrwt>
<rscale>  0 0.15190761E+04</rscale>
<asrwt>0</asrwt>
<pdfrwt beam="1">  1        3 0.29722494E+00 0.15190761E+04</pdfrwt>
<pdfrwt beam="2">  1       -3 0.39611176E-01 0.15190761E+04</pdfrwt>
<totfact> 0.64779848E-01</totfact>
</mgrwt>
</event>
<event>
 8    1  0.1649749E-011  0.1790823E+04  0.7818608E-02  0.8711195E-01
          3   -1    0    0  501    0  0.00000000000E+00  0.00000000000E+00  0.64598376014E+03  0.64598376804E+03  0.10100000000E+00 0.  1.
         -3   -1    0    0    0  501 -0.00000000000E+00 -0.00000000000E+00 -0.12411490972E+04  0.12411491014E+04  0.10100000000E+00 0. -1.
     200001    2    1    2    0    0 -0.23423848353E+03 -0.32196166230E+03  0.11458326028E+03  0.81369444515E+03  0.70031589113E+03 0.  0.
    5000001    2    3    3    0    0 -0.50198708975E+02  0.28632260530E+02  0.40842189626E+02  0.17164734185E+03  0.15638097322E+03 0.  0.
        -11    1    4    4    0    0 -0.70394212528E+02 -0.21774106516E+02  0.71302328590E+02  0.10253525703E+03  0.51100000000E-03 0. -1.
     200002    1    4    4    0    0  0.20195503554E+02  0.50406367046E+02 -0.30460138965E+02  0.69112084821E+02  0.30000000000E+02 0. -1.
     200000    1    3    3    0    0 -0.18403977456E+03 -0.35059392283E+03  0.73741070651E+02  0.64204710329E+03  0.50000000000E+03 0.  1.
    -200001    1    1    2    0    0  0.23423848353E+03  0.32196166230E+03 -0.70974859738E+03  0.10734384242E+04  0.70000000000E+03 0. -1.
<mgrwt>
<rscale>  0 0.17908235E+04</rscale>
<asrwt>0</asrwt>
<pdfrwt beam="1">  1        3 0.92283396E-01 0.17908235E+04</pdfrwt>
<pdfrwt beam="2">  1       -3 0.17730701E+00 0.17908235E+04</pdfrwt>
<totfact> 0.54024828E-01</totfact>
</mgrwt>
</event>
<event>
 8    1  0.1649749E-011  0.1414536E+04  0.7818608E-02  0.8943363E-01
          3   -1    0    0  501    0  0.00000000000E+00  0.00000000000E+00  0.71544710181E+03  0.71544710894E+03  0.10100000000E+00 0. -1.
         -3   -1    0    0    0  501 -0.00000000000E+00 -0.00000000000E+00 -0.69918225846E+03  0.69918226575E+03  0.10100000000E+00 0.  1.
     200001    2    1    2    0    0  0.23761709007E+02 -0.30006349863E+01 -0.89039554204E+02  0.70634790609E+03  0.70030400513E+03 0.  0.
    5000001    2    3    3    0    0 -0.10062612850E+03 -0.12801805556E+02 -0.37415993713E+02  0.18843537577E+03  0.15433220757E+03 0.  0.
        -11    1    4    4    0    0 -0.13349137035E+01 -0.22235412824E+02  0.48531474223E+02  0.53399434160E+02  0.51100000000E-03 0. -1.
     200002    1    4    4    0    0 -0.99291214795E+02  0.94336072688E+01 -0.85947467936E+02  0.13503594161E+03  0.30000000000E+02 0. -1.
     200000    1    3    3    0    0  0.12438783751E+03  0.98011705692E+01 -0.51623560491E+02  0.51791253032E+03  0.50000000000E+03 0.  1.
    -200001    1    1    2    0    0 -0.23761709007E+02  0.30006349863E+01  0.10530439755E+03  0.70828146861E+03  0.70000000000E+03 0. -1.
<mgrwt>
<rscale>  0 0.14145359E+04</rscale>
<asrwt>0</asrwt>
<pdfrwt beam="1">  1        3 0.10220673E+00 0.14145359E+04</pdfrwt>
<pdfrwt beam="2">  1       -3 0.99883181E-01 0.14145359E+04</pdfrwt>
<totfact> 0.18656555E+00</totfact>
</mgrwt>
</event>
<event>
 8    1  0.1649749E-011  0.1544676E+04  0.7818608E-02  0.8855276E-01
         -3   -1    0    0    0  501 -0.00000000000E+00  0.00000000000E+00  0.12806105861E+04  0.12806105901E+04  0.10100000000E+00 0. -1.
          3   -1    0    0  501    0  0.00000000000E+00 -0.00000000000E+00 -0.46579784654E+03  0.46579785749E+03  0.10100000000E+00 0.  1.
     200001    2    1    2    0    0 -0.19525982388E+03  0.14792153822E+03  0.17255770130E+03  0.76533825922E+03  0.70424378624E+03 0.  0.
    5000001    2    3    3    0    0 -0.81829143863E+02 -0.30600713178E+02  0.49395900956E+02  0.20864665476E+03  0.18292364276E+03 0.  0.
        -11    1    4    4    0    0  0.18375730216E+02 -0.72569066924E+02 -0.18446058177E+02  0.77098599194E+02  0.51100000000E-03 0. -1.
     200002    1    4    4    0    0 -0.10020487408E+03  0.41968353745E+02  0.67841959134E+02  0.13154805557E+03  0.30000000000E+02 0. -1.
     200000    1    3    3    0    0 -0.11343068002E+03  0.17852225140E+03  0.12316180034E+03  0.55669160446E+03  0.50000000000E+03 0. -1.
    -200001    1    1    2    0    0  0.19525982388E+03 -0.14792153822E+03  0.64225503825E+03  0.98107018834E+03  0.70000000000E+03 0. -1.
<mgrwt>
<rscale>  0 0.15446756E+04</rscale>
<asrwt>0</asrwt>
<pdfrwt beam="1">  1        3 0.66542552E-01 0.15446756E+04</pdfrwt>
<pdfrwt beam="2">  1       -3 0.18294437E+00 0.15446756E+04</pdfrwt>
<totfact> 0.10432769E+00</totfact>
</mgrwt>
</event>
<event>
 8    1  0.1649749E-011  0.1568990E+04  0.7818608E-02  0.8839829E-01
         -3   -1    0    0    0  501 -0.00000000000E+00  0.00000000000E+00  0.46223887751E+03  0.46223888854E+03  0.10100000000E+00 0. -1.
          3   -1    0    0  501    0  0.00000000000E+00 -0.00000000000E+00 -0.13314155894E+04  0.13314155932E+04  0.10100000000E+00 0.  1.
     200001    2    1    2    0    0  0.24686659869E+03 -0.23925353407E+03 -0.31928654627E+03  0.83941941356E+03  0.69605724055E+03 0.  0.
    5000001    2    3    3    0    0  0.21425030451E+02 -0.10113474109E+03 -0.99526665981E+02  0.23262858746E+03  0.18309351347E+03 0.  0.
        -11    1    4    4    0    0 -0.22781733312E+02 -0.37282284188E+02  0.46956212687E+02  0.64139395048E+02  0.51100000000E-03 0. -1.
     200002    1    4    4    0    0  0.44206763763E+02 -0.63852456903E+02 -0.14648287867E+03  0.16848919241E+03  0.30000000000E+02 0. -1.
     200000    1    3    3    0    0  0.22544156824E+03 -0.13811879298E+03 -0.21975988029E+03  0.60679082611E+03  0.50000000000E+03 0. -1.
    -200001    1    1    2    0    0 -0.24686659869E+03  0.23925353407E+03 -0.54989016559E+03  0.95423506817E+03  0.70000000000E+03 0.  1.
<mgrwt>
<rscale>  0 0.15689896E+04</rscale>
<asrwt>0</asrwt>
<pdfrwt beam="1">  1        3 0.19020223E+00 0.15689896E+04</pdfrwt>
<pdfrwt beam="2">  1       -3 0.66034127E-01 0.15689896E+04</pdfrwt>
<totfact> 0.95360067E-01</totfact>
</mgrwt>
</event>
<event>
 8    1  0.1649749E-011  0.1868700E+04  0.7818608E-02  0.8670595E-01
          3   -1    0    0  501    0  0.00000000000E+00  0.00000000000E+00  0.16079801499E+04  0.16079801531E+04  0.10100000000E+00 0. -1.
         -3   -1    0    0    0  501 -0.00000000000E+00 -0.00000000000E+00 -0.54292346640E+03  0.54292347580E+03  0.10100000000E+00 0.  1.
     200001    2    1    2    0    0 -0.26751050026E+03  0.45948889367E+03  0.16850881739E+03  0.89532010423E+03  0.70036487373E+03 0.  0.
    5000001    2    3    3    0    0 -0.10396341025E+03  0.18186295637E+03  0.80300684640E+02  0.29398451873E+03  0.18998992533E+03 0.  0.
        -11    1    4    4    0    0  0.42797806539E+02  0.26353372910E+02  0.58255456368E+02  0.76940566057E+02  0.51100000000E-03 0. -1.
     200002    1    4    4    0    0 -0.14676121679E+03  0.15550958346E+03  0.22045228272E+02  0.21704395267E+03  0.30000000000E+02 0. -1.
     200000    1    3    3    0    0 -0.16354709001E+03  0.27762593730E+03  0.88208132753E+02  0.60133558551E+03  0.50000000000E+03 0.  1.
    -200001    1    1    2    0    0  0.26751050026E+03 -0.45948889367E+03  0.89654786615E+03  0.12555835247E+04  0.70000000000E+03 0. -1.
<mgrwt>
<rscale>  0 0.18687003E+04</rscale>
<asrwt>0</asrwt>
<pdfrwt beam="1">  1        3 0.22971145E+00 0.18687003E+04</pdfrwt>
<pdfrwt beam="2">  1       -3 0.77560497E-01 0.18687003E+04</pdfrwt>
<totfact> 0.37379120E-01</totfact>
</mgrwt>
</event>
<event>
 8    1  0.1649749E-011  0.1483374E+04  0.7818608E-02  0.8895585E-01
          3   -1    0    0  501    0  0.00000000000E+00  0.00000000000E+00  0.12230748660E+04  0.12230748702E+04  0.10100000000E+00 0. -1.
         -3   -1    0    0    0  501 -0.00000000000E+00 -0.00000000000E+00 -0.44976763785E+03  0.44976764919E+03  0.10100000000E+00 0.  1.
     200001    2    1    2    0    0  0.58211814402E+02  0.13229265163E+02  0.12118920575E+03  0.71429072425E+03  0.70139916336E+03 0.  0.
    5000001    2    3    3    0    0 -0.39966747124E+02 -0.74821760884E+01 -0.56833976920E+02  0.17414236749E+03  0.15950592274E+03 0.  0.
        -11    1    4    4    0    0  0.50170852309E+02 -0.25284568138E+02 -0.53273788454E+02  0.77424287816E+02  0.51100000000E-03 0. -1.
     200002    1    4    4    0    0 -0.90137599433E+02  0.17802392049E+02 -0.35601884658E+01  0.96718079676E+02  0.30000000000E+02 0. -1.
     200000    1    3    3    0    0  0.98178561526E+02  0.20711441251E+02  0.17802318267E+03  0.54014835676E+03  0.50000000000E+03 0.  1.
    -200001    1    1    2    0    0 -0.58211814402E+02 -0.13229265163E+02  0.65211802242E+03  0.95855179514E+03  0.70000000000E+03 0. -1.
<mgrwt>
<rscale>  0 0.14833739E+04</rscale>
<asrwt>0</asrwt>
<pdfrwt beam="1">  1        3 0.17472498E+00 0.14833739E+04</pdfrwt>
<pdfrwt beam="2">  1       -3 0.64252521E-01 0.14833739E+04</pdfrwt>
<totfact> 0.12892691E+00</totfact>
</mgrwt>
</event>
<event>
 8    1  0.1649749E-011  0.2438707E+04  0.7818608E-02  0.8425153E-01
         -3   -1    0    0    0  501 -0.00000000000E+00  0.00000000000E+00  0.18705227220E+04  0.18705227247E+04  0.10100000000E+00 0. -1.
          3   -1    0    0  501    0  0.00000000000E+00 -0.00000000000E+00 -0.79487061459E+03  0.79487062101E+03  0.10100000000E+00 0.  1.
     200001    2    1    2    0    0  0.57369058958E+03  0.26963782833E+03 -0.30512147388E+03  0.99256306928E+03  0.70018346285E+03 0.  0.
    5000001    2    3    3    0    0  0.11443900810E+03  0.84327401295E+02 -0.80182069274E+02  0.25374664743E+03  0.19429565014E+03 0.  0.
        -11    1    4    4    0    0  0.10115598549E+03 -0.31168202957E+02  0.58966764319E+01  0.10601302311E+03  0.51100000000E-03 0. -1.
     200002    1    4    4    0    0  0.13283022607E+02  0.11549560425E+03 -0.86078745705E+02  0.14773362432E+03  0.30000000000E+02 0. -1.
     200000    1    3    3    0    0  0.45925158148E+03  0.18531042703E+03 -0.22493940460E+03  0.73881642185E+03  0.50000000000E+03 0.  1.
    -200001    1    1    2    0    0 -0.57369058958E+03 -0.26963782833E+03  0.13807735813E+04  0.16728302764E+04  0.70000000000E+03 0. -1.
<mgrwt>
<rscale>  0 0.24387075E+04</rscale>
<asrwt>0</asrwt>
<pdfrwt beam="1">  1        3 0.11355295E+00 0.24387075E+04</pdfrwt>
<pdfrwt beam="2">  1       -3 0.26721753E+00 0.24387075E+04</pdfrwt>
<totfact> 0.88778593E-02</totfact>
</mgrwt>
</event>
<event>
 8    1  0.1649749E-011  0.2588020E+04  0.7818608E-02  0.8372282E-01
         -3   -1    0    0    0  501 -0.00000000000E+00  0.00000000000E+00  0.20820874613E+04  0.20820874638E+04  0.10100000000E+00 0. -1.
          3   -1    0    0  501    0  0.00000000000E+00 -0.00000000000E+00 -0.80422235407E+03  0.80422236041E+03  0.10100000000E+00 0.  1.
     200001    2    1    2    0    0 -0.88813650448E+03  0.49532214003E+03  0.10703464683E+04  0.16344334491E+04  0.70114239946E+03 0.  0.
    5000001    2    3    3    0    0 -0.20493864593E+03  0.99083806811E+02  0.21060249521E+03  0.36442406727E+03  0.19140021017E+03 0.  0.
        -11    1    4    4    0    0 -0.13840255737E+03  0.14030083915E+03  0.19852965878E+03  0.27973848281E+03  0.51100000000E-03 0. -1.
     200002    1    4    4    0    0 -0.66536088562E+02 -0.41217032335E+02  0.12072836424E+02  0.84685584458E+02  0.30000000000E+02 0. -1.
     200000    1    3    3    0    0 -0.68319785855E+03  0.39623833322E+03  0.85974397312E+03  0.12700093818E+04  0.50000000000E+03 0. -1.
    -200001    1    1    2    0    0  0.88813650448E+03 -0.49532214003E+03  0.20751863895E+03  0.12518763751E+04  0.70000000000E+03 0.  1.
<mgrwt>
<rscale>  0 0.25880195E+04</rscale>
<asrwt>0</asrwt>
<pdfrwt beam="1">  1        3 0.11488891E+00 0.25880195E+04</pdfrwt>
<pdfrwt beam="2">  1       -3 0.29744106E+00 0.25880195E+04</pdfrwt>
<totfact> 0.57497860E-02</totfact>
</mgrwt>
</event>
<event>
 8    1  0.1649749E-011  0.2327809E+04  0.7818608E-02  0.8467036E-01
          3   -1    0    0  501    0  0.00000000000E+00  0.00000000000E+00  0.38381186725E+03  0.38381188054E+03  0.10100000000E+00 0. -1.
         -3   -1    0    0    0  501 -0.00000000000E+00 -0.00000000000E+00 -0.35295248583E+04  0.35295248597E+04  0.10100000000E+00 0.  1.
     200001    2    1    2    0    0 -0.46448231984E+03 -0.48446523209E+03 -0.26548214097E+04  0.28264030113E+04  0.70001919864E+03 0.  0.
    5000001    2    3    3    0    0 -0.17424195115E+03 -0.13992016859E+03 -0.63890209632E+03  0.70110739648E+03  0.18280531066E+03 0.  0.
        -11    1    4    4    0    0 -0.19454506464E+03 -0.14819120683E+03 -0.59674208309E+03  0.64491048192E+03  0.51100000000E-03 0. -1.
     200002    1    4    4    0    0  0.20303113489E+02  0.82710382441E+01 -0.42160013227E+02  0.56196914562E+02  0.30000000000E+02 0. -1.
     200000    1    3    3    0    0 -0.29024036868E+03 -0.34454506351E+03 -0.20159193133E+04  0.21252956148E+04  0.50000000000E+03 0. -1.
    -200001    1    1    2    0    0  0.46448231984E+03  0.48446523209E+03 -0.49089158137E+03  0.10869337290E+04  0.70000000000E+03 0.  1.
<mgrwt>
<rscale>  0 0.23278089E+04</rscale>
<asrwt>0</asrwt>
<pdfrwt beam="1">  1        3 0.54830270E-01 0.23278089E+04</pdfrwt>
<pdfrwt beam="2">  1       -3 0.50421782E+00 0.23278089E+04</pdfrwt>
<totfact> 0.22524120E-02</totfact>
</mgrwt>
</event>
<event>
 8    1  0.1649749E-011  0.1476645E+04  0.7818608E-02  0.8900134E-01
         -3   -1    0    0    0  501 -0.00000000000E+00  0.00000000000E+00  0.28970542623E+03  0.28970544384E+03  0.10100000000E+00 0. -1.
          3   -1    0    0  501    0  0.00000000000E+00 -0.00000000000E+00 -0.18816347882E+04  0.18816347909E+04  0.10100000000E+00 0.  1.
     200001    2    1    2    0    0 -0.11153261941E+03  0.20504545324E+03 -0.82270843523E+03  0.11054209145E+04  0.70044490560E+03 0.  0.
    5000001    2    3    3    0    0  0.44589532579E+02  0.20183831451E+02 -0.21153921305E+03  0.27954213183E+03  0.17606632655E+03 0.  0.
        -11    1    4    4    0    0 -0.23674445372E+02  0.24048125687E+02 -0.20138115396E+03  0.20418903223E+03  0.51100000000E-03 0. -1.
     200002    1    4    4    0    0  0.68263977952E+02 -0.38642942366E+01 -0.10158059092E+02  0.75353099606E+02  0.30000000000E+02 0. -1.
     200000    1    3    3    0    0 -0.15612215199E+03  0.18486162179E+03 -0.61116922218E+03  0.82587878268E+03  0.50000000000E+03 0.  1.
    -200001    1    1    2    0    0  0.11153261941E+03 -0.20504545324E+03 -0.76922092670E+03  0.10659193202E+04  0.70000000000E+03 0. -1.
<mgrwt>
<rscale>  0 0.14766446E+04</rscale>
<asrwt>0</asrwt>
<pdfrwt beam="1">  1        3 0.26880496E+00 0.14766446E+04</pdfrwt>
<pdfrwt beam="2">  1       -3 0.41386492E-01 0.14766446E+04</pdfrwt>
<totfact> 0.85744250E-01</totfact>
</mgrwt>
</event>
<event>
 8    1  0.1649749E-011  0.1732218E+04  0.7818608E-02  0.8743199E-01
          3   -1    0    0  501    0  0.00000000000E+00  0.00000000000E+00  0.19312438009E+04  0.19312438036E+04  0.10100000000E+00 0. -1.
         -3   -1    0    0    0  501 -0.00000000000E+00 -0.00000000000E+00 -0.38842584183E+03  0.38842585497E+03  0.10100000000E+00 0.  1.
     200001    2    1    2    0    0 -0.27114762912E+03 -0.39766326810E+03  0.99555753959E+03  0.13091494567E+04  0.70077127063E+03 0.  0.
    5000001    2    3    3    0    0 -0.47836451979E+02 -0.10837150278E+03  0.46148684654E+02  0.17559981898E+03  0.12113169105E+03 0.  0.
        -11    1    4    4    0    0 -0.82321796378E+02 -0.61036837052E+02  0.37984082676E+02  0.10929393475E+03  0.51100000000E-03 0. -1.
     200002    1    4    4    0    0  0.34485344398E+02 -0.47334665729E+02  0.81646019774E+01  0.66305884229E+02  0.30000000000E+02 0.  1.
     200000    1    3    3    0    0 -0.22331117714E+03 -0.28929176532E+03  0.94940885494E+03  0.11335496377E+04  0.50000000000E+03 0.  1.
    -200001    1    1    2    0    0  0.27114762912E+03  0.39766326810E+03  0.54726041948E+03  0.10105202018E+04  0.70000000000E+03 0. -1.
<mgrwt>
<rscale>  0 0.17322183E+04</rscale>
<asrwt>0</asrwt>
<pdfrwt beam="1">  1        3 0.27589197E+00 0.17322183E+04</pdfrwt>
<pdfrwt beam="2">  1       -3 0.55489409E-01 0.17322183E+04</pdfrwt>
<totfact> 0.42176542E-01</totfact>
</mgrwt>
</event>
<event>
 8    1  0.1649749E-011  0.1670638E+04  0.7818608E-02  0.8778290E-01
          3   -1    0    0  501    0  0.00000000000E+00  0.00000000000E+00  0.69170343991E+03  0.69170344728E+03  0.10100000000E+00 0.  1.
         -3   -1    0    0    0  501 -0.00000000000E+00 -0.00000000000E+00 -0.10087525445E+04  0.10087525496E+04  0.10100000000E+00 0. -1.
     200001    2    1    2    0    0  0.28892546156E+03  0.13908782679E+02 -0.51684622029E+03  0.91713597031E+03  0.70024067008E+03 0.  0.
    5000001    2    3    3    0    0  0.10808153049E+03  0.11620601408E+03 -0.27510622375E+03  0.32417098240E+03  0.64945642992E+02 0.  0.
        -11    1    4    4    0    0 -0.56113485648E+01  0.14279966612E+02 -0.32625708405E+02  0.36053315081E+02  0.51100000000E-03 0. -1.
     200002    1    4    4    0    0  0.11369287905E+03  0.10192604747E+03 -0.24248051534E+03  0.28811766732E+03  0.30000000000E+02 0. -1.
     200000    1    3    3    0    0  0.18084393107E+03 -0.10229723140E+03 -0.24173999654E+03  0.59296498791E+03  0.50000000000E+03 0. -1.
    -200001    1    1    2    0    0 -0.28892546156E+03 -0.13908782679E+02  0.19979711567E+03  0.78332002655E+03  0.70000000000E+03 0.  1.
<mgrwt>
<rscale>  0 0.16706377E+04</rscale>
<asrwt>0</asrwt>
<pdfrwt beam="1">  1        3 0.98814779E-01 0.16706377E+04</pdfrwt>
<pdfrwt beam="2">  1       -3 0.14410751E+00 0.16706377E+04</pdfrwt>
<totfact> 0.80837747E-01</totfact>
</mgrwt>
</event>
<event>
 8    1  0.1649749E-011  0.1798435E+04  0.7818608E-02  0.8707132E-01
         -3   -1    0    0    0  501 -0.00000000000E+00  0.00000000000E+00  0.29485151036E+03  0.29485152766E+03  0.10100000000E+00 0. -1.
          3   -1    0    0  501    0  0.00000000000E+00 -0.00000000000E+00 -0.27423713000E+04  0.27423713019E+04  0.10100000000E+00 0.  1.
     200001    2    1    2    0    0 -0.40991621658E+02  0.21377129566E+03 -0.35348963763E+03  0.81858794351E+03  0.70551599377E+03 0.  0.
    5000001    2    3    3    0    0 -0.25366011235E+02  0.15853607414E+03 -0.14842685190E+03  0.27513064483E+03  0.16700065878E+03 0.  0.
        -11    1    4    4    0    0 -0.35581546793E+01  0.15555914880E+03 -0.40232417702E+02  0.16071700804E+03  0.51100000000E-03 0. -1.
     200002    1    4    4    0    0 -0.21807856556E+02  0.29769253388E+01 -0.10819443420E+03  0.11441363679E+03  0.30000000000E+02 0. -1.
     200000    1    3    3    0    0 -0.15625610423E+02  0.55235221519E+02 -0.20506278573E+03  0.54345729868E+03  0.50000000000E+03 0. -1.
    -200001    1    1    2    0    0  0.40991621658E+02 -0.21377129566E+03 -0.20940301520E+04  0.22186348860E+04  0.70000000000E+03 0.  1.
<mgrwt>
<rscale>  0 0.17984353E+04</rscale>
<asrwt>0</asrwt>
<pdfrwt beam="1">  1        3 0.39176732E+00 0.17984353E+04</pdfrwt>
<pdfrwt beam="2">  1       -3 0.42121647E-01 0.17984353E+04</pdfrwt>
<totfact> 0.17237910E-01</totfact>
</mgrwt>
</event>
<event>
 8    1  0.1649749E-011  0.1707600E+04  0.7818608E-02  0.8757042E-01
         -3   -1    0    0    0  501 -0.00000000000E+00  0.00000000000E+00  0.20506890100E+04  0.20506890125E+04  0.10100000000E+00 0. -1.
          3   -1    0    0  501    0  0.00000000000E+00 -0.00000000000E+00 -0.35547779925E+03  0.35547781360E+03  0.10100000000E+00 0.  1.
     200001    2    1    2    0    0  0.39396468097E+03 -0.27933286884E+03  0.86481139503E+03  0.12175546625E+04  0.70802936789E+03 0.  0.
    5000001    2    3    3    0    0  0.19544196239E+03 -0.12048937599E+03  0.37685877988E+03  0.47408961315E+03  0.17327195656E+03 0.  0.
        -11    1    4    4    0    0  0.49188811066E+02 -0.12726764261E+03  0.20602655682E+03  0.24711036827E+03  0.51100000000E-03 0. -1.
     200002    1    4    4    0    0  0.14625315133E+03  0.67782666136E+01  0.17083222306E+03  0.22697924488E+03  0.30000000000E+02 0. -1.
     200000    1    3    3    0    0  0.19852271857E+03 -0.15884349284E+03  0.48795261515E+03  0.74346504937E+03  0.50000000000E+03 0.  1.
    -200001    1    1    2    0    0 -0.39396468097E+03  0.27933286884E+03  0.83039981577E+03  0.11886121636E+04  0.70000000000E+03 0. -1.
<mgrwt>
<rscale>  0 0.17076000E+04</rscale>
<asrwt>0</asrwt>
<pdfrwt beam="1">  1        3 0.50782543E-01 0.17076000E+04</pdfrwt>
<pdfrwt beam="2">  1       -3 0.29295558E+00 0.17076000E+04</pdfrwt>
<totfact> 0.40134251E-01</totfact>
</mgrwt>
</event>
<event>
 8    1  0.1649749E-011  0.1465553E+04  0.7818608E-02  0.8907689E-01
         -3   -1    0    0    0  501 -0.00000000000E+00  0.00000000000E+00  0.36690243749E+03  0.36690245139E+03  0.10100000000E+00 0. -1.
          3   -1    0    0  501    0  0.00000000000E+00 -0.00000000000E+00 -0.14634982998E+04  0.14634983033E+04  0.10100000000E+00 0.  1.
     200001    2    1    2    0    0  0.75272236982E+02  0.19962852880E+03 -0.58835273743E+03  0.93943019782E+03  0.70060880223E+03 0.  0.
    5000001    2    3    3    0    0  0.99061015640E+02  0.51938626190E+02 -0.12009308827E+03  0.23825595959E+03  0.17272187679E+03 0.  0.
        -11    1    4    4    0    0  0.98597961852E+02 -0.23105986434E+02 -0.10112454977E+02  0.10177281777E+03  0.51100000000E-03 0. -1.
     200002    1    4    4    0    0  0.46305378745E+00  0.75044612624E+02 -0.10998063329E+03  0.13648314182E+03  0.30000000000E+02 0. -1.
     200000    1    3    3    0    0 -0.23788778658E+02  0.14768990261E+03 -0.46825964916E+03  0.70117423823E+03  0.50000000000E+03 0.  1.
    -200001    1    1    2    0    0 -0.75272236982E+02 -0.19962852880E+03 -0.50824312487E+03  0.89097055684E+03  0.70000000000E+03 0.  1.
<mgrwt>
<rscale>  0 0.14655526E+04</rscale>
<asrwt>0</asrwt>
<pdfrwt beam="1">  1        3 0.20907118E+00 0.14655526E+04</pdfrwt>
<pdfrwt beam="2">  1       -3 0.52414636E-01 0.14655526E+04</pdfrwt>
<totfact> 0.11885040E+00</totfact>
</mgrwt>
</event>
<event>
 8    1  0.1649749E-011  0.1865808E+04  0.7818608E-02  0.8672065E-01
          3   -1    0    0  501    0  0.00000000000E+00  0.00000000000E+00  0.36824946296E+03  0.36824947681E+03  0.10100000000E+00 0.  1.
         -3   -1    0    0    0  501 -0.00000000000E+00 -0.00000000000E+00 -0.23633710423E+04  0.23633710445E+04  0.10100000000E+00 0. -1.
     200001    2    1    2    0    0 -0.56848462426E+03  0.23746309973E+03 -0.95214266248E+03  0.13325606538E+04  0.69969904573E+03 0.  0.
    5000001    2    3    3    0    0 -0.15205042793E+03  0.13853589331E+03 -0.17923203708E+03  0.31737846971E+03  0.16215253174E+03 0.  0.
        -11    1    4    4    0    0 -0.10618786515E+03  0.30817803648E+02 -0.12246354805E+02  0.11124555242E+03  0.51100000000E-03 0. -1.
     200002    1    4    4    0    0 -0.45862562779E+02  0.10771808966E+03 -0.16698568227E+03  0.20613291728E+03  0.30000000000E+02 0. -1.
     200000    1    3    3    0    0 -0.41643419633E+03  0.98927206425E+02 -0.77291062540E+03  0.10151821841E+04  0.50000000000E+03 0. -1.
    -200001    1    1    2    0    0  0.56848462426E+03 -0.23746309973E+03 -0.10429789169E+04  0.13990598675E+04  0.70000000000E+03 0.  1.
<mgrwt>
<rscale>  0 0.18658083E+04</rscale>
<asrwt>0</asrwt>
<pdfrwt beam="1">  1        3 0.52607068E-01 0.18658083E+04</pdfrwt>
<pdfrwt beam="2">  1       -3 0.33762443E+00 0.18658083E+04</pdfrwt>
<totfact> 0.20762200E-01</totfact>
</mgrwt>
</event>
<event>
 8    1  0.1649749E-011  0.1716060E+04  0.7818608E-02  0.8752258E-01
         -3   -1    0    0    0  501 -0.00000000000E+00  0.00000000000E+00  0.10934163938E+04  0.10934163984E+04  0.10100000000E+00 0. -1.
          3   -1    0    0  501    0  0.00000000000E+00 -0.00000000000E+00 -0.67331639842E+03  0.67331640599E+03  0.10100000000E+00 0.  1.
     200001    2    1    2    0    0  0.33354919674E+02 -0.22593004823E+03  0.66505033798E+03  0.99074465522E+03  0.69794418289E+03 0.  0.
    5000001    2    3    3    0    0 -0.10334650001E+03 -0.35913027787E+02  0.18151298051E+03  0.25684948404E+03  0.14510151870E+03 0.  0.
        -11    1    4    4    0    0 -0.12090166490E+03  0.12709554561E+02  0.12946194800E+03  0.17759262747E+03  0.51100000000E-03 0. -1.
     200002    1    4    4    0    0  0.17555164883E+02 -0.48622582348E+02  0.52051032510E+02  0.79256856571E+02  0.30000000000E+02 0. -1.
     200000    1    3    3    0    0  0.13670141969E+03 -0.19001702044E+03  0.48353735748E+03  0.73389517118E+03  0.50000000000E+03 0. -1.
    -200001    1    1    2    0    0 -0.33354919674E+02  0.22593004823E+03 -0.24495034263E+03  0.77598814921E+03  0.70000000000E+03 0.  1.
<mgrwt>
<rscale>  0 0.17160597E+04</rscale>
<asrwt>0</asrwt>
<pdfrwt beam="1">  1        3 0.96188059E-01 0.17160597E+04</pdfrwt>
<pdfrwt beam="2">  1       -3 0.15620234E+00 0.17160597E+04</pdfrwt>
<totfact> 0.69543291E-01</totfact>
</mgrwt>
</event>
<event>
 8    1  0.1649749E-011  0.1492090E+04  0.7818608E-02  0.8889730E-01
         -3   -1    0    0    0  501 -0.00000000000E+00  0.00000000000E+00  0.18049262851E+04  0.18049262880E+04  0.10100000000E+00 0. -1.
          3   -1    0    0  501    0  0.00000000000E+00 -0.00000000000E+00 -0.30836897653E+03  0.30836899307E+03  0.10100000000E+00 0.  1.
     200001    2    1    2    0    0  0.80946396202E+02 -0.23668886438E+03  0.66458042276E+03  0.99760738733E+03  0.70069923887E+03 0.  0.
    5000001    2    3    3    0    0  0.13915385982E+03  0.16781223804E+02  0.20648412993E+03  0.27132410381E+03  0.10646909043E+03 0.  0.
        -11    1    4    4    0    0  0.62012427445E+02 -0.41343569892E+02  0.79288349379E+02  0.10881853829E+03  0.51100000000E-03 0. -1.
     200002    1    4    4    0    0  0.77141432375E+02  0.58124793696E+02  0.12719578056E+03  0.16250556551E+03  0.30000000000E+02 0. -1.
     200000    1    3    3    0    0 -0.58207463618E+02 -0.25347008818E+03  0.45809629282E+03  0.72628328352E+03  0.50000000000E+03 0.  1.
    -200001    1    1    2    0    0 -0.80946396202E+02  0.23668886438E+03  0.83197688584E+03  0.11156878937E+04  0.70000000000E+03 0. -1.
<mgrwt>
<rscale>  0 0.14920902E+04</rscale>
<asrwt>0</asrwt>
<pdfrwt beam="1">  1        3 0.44052714E-01 0.14920902E+04</pdfrwt>
<pdfrwt beam="2">  1       -3 0.25784661E+00 0.14920902E+04</pdfrwt>
<totfact> 0.86168870E-01</totfact>
</mgrwt>
</event>
<event>
 8    1  0.1649749E-011  0.1974892E+04  0.7818608E-02  0.8618450E-01
         -3   -1    0    0    0  501 -0.00000000000E+00  0.00000000000E+00  0.14165207385E+04  0.14165207421E+04  0.10100000000E+00 0. -1.
          3   -1    0    0  501    0  0.00000000000E+00 -0.00000000000E+00 -0.68834119497E+03  0.68834120238E+03  0.10100000000E+00 0.  1.
     200001    2    1    2    0    0  0.41110198470E+03  0.44528569887E+02 -0.23172998938E+03  0.84692158550E+03  0.70184738273E+03 0.  0.
    5000001    2    3    3    0    0  0.10445838136E+03 -0.36073469373E+01 -0.16217191398E+03  0.25431236197E+03  0.16568186798E+03 0.  0.
        -11    1    4    4    0    0  0.77288187843E+02  0.74586700775E+02 -0.80622037512E+02  0.13430023397E+03  0.51100000000E-03 0. -1.
     200002    1    4    4    0    0  0.27170193515E+02 -0.78194047712E+02 -0.81549876468E+02  0.12001212799E+03  0.30000000000E+02 0. -1.
     200000    1    3    3    0    0  0.30664360334E+03  0.48135916824E+02 -0.69558075405E+02  0.59260922353E+03  0.50000000000E+03 0.  1.
    -200001    1    1    2    0    0 -0.41110198470E+03 -0.44528569887E+02  0.95990953291E+03  0.12579403590E+04  0.70000000000E+03 0. -1.
<mgrwt>
<rscale>  0 0.19748920E+04</rscale>
<asrwt>0</asrwt>
<pdfrwt beam="1">  1        3 0.98334456E-01 0.19748920E+04</pdfrwt>
<pdfrwt beam="2">  1       -3 0.20236011E+00 0.19748920E+04</pdfrwt>
<totfact> 0.31548186E-01</totfact>
</mgrwt>
</event>
<event>
 8    1  0.1649749E-011  0.1709343E+04  0.7818608E-02  0.8756053E-01
          3   -1    0    0  501    0  0.00000000000E+00  0.00000000000E+00  0.23209816702E+04  0.23209816724E+04  0.10100000000E+00 0. -1.
         -3   -1    0    0    0  501 -0.00000000000E+00 -0.00000000000E+00 -0.31472183904E+03  0.31472185524E+03  0.10100000000E+00 0.  1.
     200001    2    1    2    0    0 -0.74720394052E+02 -0.38855188220E+03  0.14419251162E+04  0.16533444421E+04  0.70558068353E+03 0.  0.
    5000001    2    3    3    0    0  0.10531999897E+02 -0.32932409522E+02  0.32432513146E+03  0.37554832927E+03  0.18615662787E+03 0.  0.
        -11    1    4    4    0    0  0.12660998077E+02 -0.73621818171E+02  0.31545402307E+03  0.32417852127E+03  0.51100000000E-03 0. -1.
     200002    1    4    4    0    0 -0.21289981803E+01  0.40689408649E+02  0.88711083924E+01  0.51369807996E+02  0.30000000000E+02 0. -1.
     200000    1    3    3    0    0 -0.85252393948E+02 -0.35561947268E+03  0.11175999847E+04  0.12777961128E+04  0.50000000000E+03 0. -1.
    -200001    1    1    2    0    0  0.74720394052E+02  0.38855188220E+03  0.56433471493E+03  0.98235908553E+03  0.70000000000E+03 0.  1.
<mgrwt>
<rscale>  0 0.17093433E+04</rscale>
<asrwt>0</asrwt>
<pdfrwt beam="1">  1        3 0.33156881E+00 0.17093433E+04</pdfrwt>
<pdfrwt beam="2">  1       -3 0.44960264E-01 0.17093433E+04</pdfrwt>
<totfact> 0.32127322E-01</totfact>
</mgrwt>
</event>
<event>
 8    1  0.1649749E-011  0.1699302E+04  0.7818608E-02  0.8761763E-01
          3   -1    0    0  501    0  0.00000000000E+00  0.00000000000E+00  0.70153555214E+03  0.70153555941E+03  0.10100000000E+00 0.  1.
         -3   -1    0    0    0  501 -0.00000000000E+00 -0.00000000000E+00 -0.10290380730E+04  0.10290380780E+04  0.10100000000E+00 0. -1.
     200001    2    1    2    0    0  0.31490566264E+03 -0.26287718926E+03  0.92354575731E+02  0.81703656940E+03  0.70053507769E+03 0.  0.
    5000001    2    3    3    0    0  0.68749417354E+02 -0.16757261016E+03 -0.88672609312E+02  0.22336435208E+03  0.96029891569E+02 0.  0.
        -11    1    4    4    0    0  0.36078647713E+02 -0.57267037952E+01 -0.22940587084E+02  0.43136231791E+02  0.51100000000E-03 0. -1.
     200002    1    4    4    0    0  0.32670769642E+02 -0.16184590637E+03 -0.65732022228E+02  0.18022812029E+03  0.30000000000E+02 0. -1.
     200000    1    3    3    0    0  0.24615624529E+03 -0.95304579103E+02  0.18102718504E+03  0.59367221732E+03  0.50000000000E+03 0.  1.
    -200001    1    1    2    0    0 -0.31490566264E+03  0.26287718926E+03 -0.41985709658E+03  0.91353706797E+03  0.70000000000E+03 0. -1.
<mgrwt>
<rscale>  0 0.16993020E+04</rscale>
<asrwt>0</asrwt>
<pdfrwt beam="1">  1        3 0.10021937E+00 0.16993020E+04</pdfrwt>
<pdfrwt beam="2">  1       -3 0.14700544E+00 0.16993020E+04</pdfrwt>
<totfact> 0.74142431E-01</totfact>
</mgrwt>
</event>
<event>
 8    1  0.1649749E-011  0.1733713E+04  0.7818608E-02  0.8742367E-01
          3   -1    0    0  501    0  0.00000000000E+00  0.00000000000E+00  0.10100371232E+04  0.10100371282E+04  0.10100000000E+00 0.  1.
         -3   -1    0    0    0  501 -0.00000000000E+00 -0.00000000000E+00 -0.74397289838E+03  0.74397290523E+03  0.10100000000E+00 0. -1.
     200001    2    1    2    0    0 -0.34648349178E+03 -0.37463284420E+03  0.10831830314E+03  0.87350770305E+03  0.70062991262E+03 0.  0.
    5000001    2    3    3    0    0 -0.66420125241E+02 -0.14722376392E+02 -0.77303158535E+02  0.17177672814E+03  0.13748848900E+03 0.  0.
        -11    1    4    4    0    0 -0.36991125179E+02  0.57017336864E+02 -0.49602935104E+02  0.84141376363E+02  0.51100000000E-03 0. -1.
     200002    1    4    4    0    0 -0.29429000062E+02 -0.71739713255E+02 -0.27700223431E+02  0.87635351775E+02  0.30000000000E+02 0. -1.
     200000    1    3    3    0    0 -0.28006336654E+03 -0.35991046781E+03  0.18562146167E+03  0.70173097491E+03  0.50000000000E+03 0. -1.
    -200001    1    1    2    0    0  0.34648349178E+03  0.37463284420E+03  0.15774592164E+03  0.88050233039E+03  0.70000000000E+03 0. -1.
<mgrwt>
<rscale>  0 0.17337131E+04</rscale>
<asrwt>0</asrwt>
<pdfrwt beam="1">  1        3 0.14429102E+00 0.17337131E+04</pdfrwt>
<pdfrwt beam="2">  1       -3 0.10628184E+00 0.17337131E+04</pdfrwt>
<totfact> 0.67650621E-01</totfact>
</mgrwt>
</event>
<event>
 8    1  0.1649749E-011  0.1554080E+04  0.7818608E-02  0.8849266E-01
         -3   -1    0    0    0  501 -0.00000000000E+00  0.00000000000E+00  0.21151745759E+04  0.21151745783E+04  0.10100000000E+00 0.  1.
          3   -1    0    0  501    0  0.00000000000E+00 -0.00000000000E+00 -0.28545689746E+03  0.28545691533E+03  0.10100000000E+00 0. -1.
     200001    2    1    2    0    0  0.27636957267E+03 -0.19388032242E+03  0.92093335581E+03  0.12048645158E+04  0.69972175583E+03 0.  0.
    5000001    2    3    3    0    0  0.49346329662E+02 -0.12131840096E+03  0.36075015542E+03  0.41707647119E+03  0.16327551413E+03 0.  0.
        -11    1    4    4    0    0  0.10128625662E+03 -0.74049527423E+02  0.27487427028E+03  0.30215575909E+03  0.51100000000E-03 0. -1.
     200002    1    4    4    0    0 -0.51939926960E+02 -0.47268873540E+02  0.85875885146E+02  0.11492071209E+03  0.30000000000E+02 0. -1.
     200000    1    3    3    0    0  0.22702324300E+03 -0.72561921458E+02  0.56018320039E+03  0.78778804466E+03  0.50000000000E+03 0.  1.
    -200001    1    1    2    0    0 -0.27636957267E+03  0.19388032242E+03  0.90878432263E+03  0.11957669778E+04  0.70000000000E+03 0.  1.
<mgrwt>
<rscale>  0 0.15540800E+04</rscale>
<asrwt>0</asrwt>
<pdfrwt beam="1">  1        3 0.40779558E-01 0.15540800E+04</pdfrwt>
<pdfrwt beam="2">  1       -3 0.30216780E+00 0.15540800E+04</pdfrwt>
<totfact> 0.56227211E-01</totfact>
</mgrwt>
</event>
<event>
 8    1  0.1649749E-011  0.1858889E+04  0.7818608E-02  0.8675595E-01
         -3   -1    0    0    0  501 -0.00000000000E+00  0.00000000000E+00  0.20837871822E+04  0.20837871847E+04  0.10100000000E+00 0. -1.
          3   -1    0    0  501    0  0.00000000000E+00 -0.00000000000E+00 -0.41456607836E+03  0.41456609066E+03  0.10100000000E+00 0.  1.
     200001    2    1    2    0    0 -0.45756640710E+03  0.37899295727E+03  0.10299075584E+04  0.13795483379E+04  0.69960085707E+03 0.  0.
    5000001    2    3    3    0    0 -0.18310280240E+03  0.76753602643E+02  0.21875220785E+03  0.34289415231E+03  0.17408652873E+03 0.  0.
        -11    1    4    4    0    0 -0.13738750746E+03 -0.21637677482E+02  0.68169060527E+02  0.15488878948E+03  0.51100000000E-03 0. -1.
     200002    1    4    4    0    0 -0.45715294939E+02  0.98391280125E+02  0.15058314732E+03  0.18800536283E+03  0.30000000000E+02 0. -1.
     200000    1    3    3    0    0 -0.27446360470E+03  0.30223935463E+03  0.81115535059E+03  0.10366541856E+04  0.50000000000E+03 0.  1.
    -200001    1    1    2    0    0  0.45756640710E+03 -0.37899295727E+03  0.63931354543E+03  0.11188049374E+04  0.70000000000E+03 0.  1.
<mgrwt>
<rscale>  0 0.18588895E+04</rscale>
<asrwt>0</asrwt>
<pdfrwt beam="1">  1        3 0.59223727E-01 0.18588895E+04</pdfrwt>
<pdfrwt beam="2">  1       -3 0.29768388E+00 0.18588895E+04</pdfrwt>
<totfact> 0.27070949E-01</totfact>
</mgrwt>
</event>
<event>
 8    1  0.1649749E-011  0.2114434E+04  0.7818608E-02  0.8554911E-01
         -3   -1    0    0    0  501 -0.00000000000E+00  0.00000000000E+00  0.39800108848E+04  0.39800108861E+04  0.10100000000E+00 0. -1.
          3   -1    0    0  501    0  0.00000000000E+00 -0.00000000000E+00 -0.28083039452E+03  0.28083041268E+03  0.10100000000E+00 0.  1.
     200001    2    1    2    0    0  0.56813743436E+03  0.50184725528E+03  0.23136029321E+04  0.25332834903E+04  0.70009706664E+03 0.  0.
    5000001    2    3    3    0    0  0.15063662551E+03  0.17607681224E+03  0.59250658040E+03  0.66443198231E+03  0.19160212566E+03 0.  0.
        -11    1    4    4    0    0  0.14200442499E+03  0.20006364515E+03  0.56624106430E+03  0.61710587562E+03  0.51100000000E-03 0. -1.
     200002    1    4    4    0    0  0.86322005231E+01 -0.23986832910E+02  0.26265516094E+02  0.47326106692E+02  0.30000000000E+02 0. -1.
     200000    1    3    3    0    0  0.41750080885E+03  0.32577044305E+03  0.17210963517E+04  0.18688515080E+04  0.50000000000E+03 0.  1.
    -200001    1    1    2    0    0 -0.56813743436E+03 -0.50184725528E+03  0.13855775582E+04  0.17275578085E+04  0.70000000000E+03 0.  1.
<mgrwt>
<rscale>  0 0.21144343E+04</rscale>
<asrwt>0</asrwt>
<pdfrwt beam="1">  1        3 0.40118632E-01 0.21144343E+04</pdfrwt>
<pdfrwt beam="2">  1       -3 0.56857295E+00 0.21144343E+04</pdfrwt>
<totfact> 0.19950509E-02</totfact>
</mgrwt>
</event>
<event>
 8    1  0.1649749E-011  0.1420956E+04  0.7818608E-02  0.8938788E-01
         -3   -1    0    0    0  501 -0.00000000000E+00  0.00000000000E+00  0.35809323379E+03  0.35809324803E+03  0.10100000000E+00 0. -1.
          3   -1    0    0  501    0  0.00000000000E+00 -0.00000000000E+00 -0.14096290744E+04  0.14096290780E+04  0.10100000000E+00 0.  1.
     200001    2    1    2    0    0 -0.82505458676E+01  0.61980948345E+02 -0.66459426477E+03  0.96545460728E+03  0.69750079031E+03 0.  0.
    5000001    2    3    3    0    0 -0.11938468906E+03  0.98905366864E+01 -0.15606318782E+03  0.24180547615E+03  0.14058322448E+03 0.  0.
        -11    1    4    4    0    0  0.10745042661E+01 -0.39844250812E+02 -0.76326851516E+02  0.86107532451E+02  0.51100000000E-03 0. -1.
     200002    1    4    4    0    0 -0.12045919332E+03  0.49734787498E+02 -0.79736336307E+02  0.15569794370E+03  0.30000000000E+02 0. -1.
     200000    1    3    3    0    0  0.11113414319E+03  0.52090411659E+02 -0.50853107695E+03  0.72364913113E+03  0.50000000000E+03 0.  1.
    -200001    1    1    2    0    0  0.82505458676E+01 -0.61980948345E+02 -0.38694157585E+03  0.80226771877E+03  0.70000000000E+03 0. -1.
<mgrwt>
<rscale>  0 0.14209555E+04</rscale>
<asrwt>0</asrwt>
<pdfrwt beam="1">  1        3 0.20137558E+00 0.14209555E+04</pdfrwt>
<pdfrwt beam="2">  1       -3 0.51156178E-01 0.14209555E+04</pdfrwt>
<totfact> 0.13996311E+00</totfact>
</mgrwt>
</event>
<event>
 8    1  0.1649749E-011  0.1656302E+04  0.7818608E-02  0.8786687E-01
         -3   -1    0    0    0  501 -0.00000000000E+00  0.00000000000E+00  0.10551499691E+04  0.10551499740E+04  0.10100000000E+00 0. -1.
          3   -1    0    0  501    0  0.00000000000E+00 -0.00000000000E+00 -0.64998690590E+03  0.64998691375E+03  0.10100000000E+00 0.  1.
     200001    2    1    2    0    0  0.43432270168E+03  0.78085306698E+02  0.17291293345E+03  0.84567563374E+03  0.70038194625E+03 0.  0.
    5000001    2    3    3    0    0  0.14321012413E+03  0.13197076065E+03  0.51324660492E+02  0.25201421250E+03  0.15149759472E+03 0.  0.
        -11    1    4    4    0    0  0.55495866789E+02 -0.21014659048E+02 -0.15043114540E+02  0.61218481040E+02  0.51100000000E-03 0. -1.
     200002    1    4    4    0    0  0.87714257343E+02  0.15298541969E+03  0.66367775031E+02  0.19079573146E+03  0.30000000000E+02 0. -1.
     200000    1    3    3    0    0  0.29111257755E+03 -0.53885453949E+02  0.12158827296E+03  0.59366142124E+03  0.50000000000E+03 0. -1.
    -200001    1    1    2    0    0 -0.43432270168E+03 -0.78085306698E+02  0.23225012979E+03  0.85946125399E+03  0.70000000000E+03 0.  1.
<mgrwt>
<rscale>  0 0.16563015E+04</rscale>
<asrwt>0</asrwt>
<pdfrwt beam="1">  1        3 0.92855274E-01 0.16563015E+04</pdfrwt>
<pdfrwt beam="2">  1       -3 0.15073571E+00 0.16563015E+04</pdfrwt>
<totfact> 0.83188035E-01</totfact>
</mgrwt>
</event>
<event>
 8    1  0.1649749E-011  0.1497266E+04  0.7818608E-02  0.8886273E-01
          3   -1    0    0  501    0  0.00000000000E+00  0.00000000000E+00  0.25634970549E+03  0.25634972539E+03  0.10100000000E+00 0.  1.
         -3   -1    0    0    0  501 -0.00000000000E+00 -0.00000000000E+00 -0.21862776083E+04  0.21862776107E+04  0.10100000000E+00 0. -1.
     200001    2    1    2    0    0  0.34107439731E+02  0.13480537325E+03 -0.13350604841E+04  0.15135401216E+04  0.69934354757E+03 0.  0.
    5000001    2    3    3    0    0 -0.22936835876E+02 -0.50043331964E+02 -0.57250060019E+03  0.58138097764E+03  0.84949811264E+02 0.  0.
        -11    1    4    4    0    0 -0.93262976035E+01 -0.41091730464E+02 -0.11277796939E+03  0.12039260990E+03  0.51100000000E-03 0. -1.
     200002    1    4    4    0    0 -0.13610538273E+02 -0.89516015008E+01 -0.45972263080E+03  0.46098836774E+03  0.30000000000E+02 0. -1.
     200000    1    3    3    0    0  0.57044275607E+02  0.18484870522E+03 -0.76255988389E+03  0.93215914399E+03  0.50000000000E+03 0. -1.
    -200001    1    1    2    0    0 -0.34107439731E+02 -0.13480537325E+03 -0.59486741878E+03  0.92908721444E+03  0.70000000000E+03 0.  1.
<mgrwt>
<rscale>  0 0.14972664E+04</rscale>
<asrwt>0</asrwt>
<pdfrwt beam="1">  1        3 0.36621389E-01 0.14972664E+04</pdfrwt>
<pdfrwt beam="2">  1       -3 0.31232536E+00 0.14972664E+04</pdfrwt>
<totfact> 0.61292621E-01</totfact>
</mgrwt>
</event>
<event>
 8    1  0.1649749E-011  0.1586161E+04  0.7818608E-02  0.8829095E-01
          3   -1    0    0  501    0  0.00000000000E+00  0.00000000000E+00  0.67609932578E+03  0.67609933333E+03  0.10100000000E+00 0. -1.
         -3   -1    0    0    0  501 -0.00000000000E+00 -0.00000000000E+00 -0.93030251024E+03  0.93030251572E+03  0.10100000000E+00 0.  1.
     200001    2    1    2    0    0 -0.33005826934E+03 -0.78594316623E+02 -0.28458700331E+03  0.82791697173E+03  0.69952928592E+03 0.  0.
    5000001    2    3    3    0    0 -0.18771982679E+03 -0.11176001910E+02 -0.83919894293E+02  0.26660355658E+03  0.16932593225E+03 0.  0.
        -11    1    4    4    0    0  0.10082866249E+02  0.32077514185E+02  0.17788040442E+02  0.38040051145E+02  0.51100000000E-03 0. -1.
     200002    1    4    4    0    0 -0.19780269304E+03 -0.43253516095E+02 -0.10170793474E+03  0.22856350543E+03  0.30000000000E+02 0. -1.
     200000    1    3    3    0    0 -0.14233844255E+03 -0.67418314713E+02 -0.20066710902E+03  0.56131341515E+03  0.50000000000E+03 0.  1.
    -200001    1    1    2    0    0  0.33005826934E+03  0.78594316623E+02  0.30383818850E+02  0.77848487732E+03  0.70000000000E+03 0. -1.
<mgrwt>
<rscale>  0 0.15861613E+04</rscale>
<asrwt>0</asrwt>
<pdfrwt beam="1">  1        3 0.96585618E-01 0.15861613E+04</pdfrwt>
<pdfrwt beam="2">  1       -3 0.13290036E+00 0.15861613E+04</pdfrwt>
<totfact> 0.10535338E+00</totfact>
</mgrwt>
</event>
<event>
 8    1  0.1649749E-011  0.1598896E+04  0.7818608E-02  0.8821227E-01
          3   -1    0    0  501    0  0.00000000000E+00  0.00000000000E+00  0.14882538258E+04  0.14882538293E+04  0.10100000000E+00 0.  1.
         -3   -1    0    0    0  501 -0.00000000000E+00 -0.00000000000E+00 -0.42944076462E+03  0.42944077650E+03  0.10100000000E+00 0. -1.
     200001    2    1    2    0    0 -0.36965988151E+03  0.10767133333E+03  0.50561396286E+03  0.94595864037E+03  0.70067876080E+03 0.  0.
    5000001    2    3    3    0    0 -0.13832067031E+03  0.41137216754E+02  0.26203743702E+03  0.33992716986E+03  0.16143724470E+03 0.  0.
        -11    1    4    4    0    0 -0.77042140669E+02  0.96126113836E+02  0.11370336060E+03  0.16764299989E+03  0.51100000000E-03 0. -1.
     200002    1    4    4    0    0 -0.61278529636E+02 -0.54988897082E+02  0.14833407641E+03  0.17228416997E+03  0.30000000000E+02 0. -1.
     200000    1    3    3    0    0 -0.23133921120E+03  0.66534116573E+02  0.24357652584E+03  0.60603147051E+03  0.50000000000E+03 0. -1.
    -200001    1    1    2    0    0  0.36965988151E+03 -0.10767133333E+03  0.55319909835E+03  0.97173596539E+03  0.70000000000E+03 0.  1.
<mgrwt>
<rscale>  0 0.15988957E+04</rscale>
<asrwt>0</asrwt>
<pdfrwt beam="1">  1        3 0.21260769E+00 0.15988957E+04</pdfrwt>
<pdfrwt beam="2">  1       -3 0.61348681E-01 0.15988957E+04</pdfrwt>
<totfact> 0.80496820E-01</totfact>
</mgrwt>
</event>
<event>
 8    1  0.1649749E-011  0.1921451E+04  0.7818608E-02  0.8644252E-01
         -3   -1    0    0    0  501 -0.00000000000E+00  0.00000000000E+00  0.19734635996E+04  0.19734636022E+04  0.10100000000E+00 0. -1.
          3   -1    0    0  501    0  0.00000000000E+00 -0.00000000000E+00 -0.46770224309E+03  0.46770225399E+03  0.10100000000E+00 0.  1.
     200001    2    1    2    0    0  0.60551287571E+03  0.24616044135E+03  0.84870792346E+03  0.12797184749E+04  0.70009530080E+03 0.  0.
    5000001    2    3    3    0    0  0.63166124043E+02  0.36656989296E+02  0.26531586608E+03  0.31619473984E+03  0.15573346018E+03 0.  0.
        -11    1    4    4    0    0 -0.12874408880E+02 -0.41590673865E+02  0.24117920948E+02  0.49771564850E+02  0.51100000000E-03 0. -1.
     200002    1    4    4    0    0  0.76040532923E+02  0.78247663161E+02  0.24119794513E+03  0.26642317499E+03  0.30000000000E+02 0. -1.
     200000    1    3    3    0    0  0.54234675167E+03  0.20950345205E+03  0.58339205738E+03  0.96352373509E+03  0.50000000000E+03 0. -1.
    -200001    1    1    2    0    0 -0.60551287571E+03 -0.24616044135E+03  0.65705343306E+03  0.11614473813E+04  0.70000000000E+03 0.  1.
<mgrwt>
<rscale>  0 0.19214509E+04</rscale>
<asrwt>0</asrwt>
<pdfrwt beam="1">  1        3 0.66814606E-01 0.19214509E+04</pdfrwt>
<pdfrwt beam="2">  1       -3 0.28192338E+00 0.19214509E+04</pdfrwt>
<totfact> 0.25536035E-01</totfact>
</mgrwt>
</event>
<event>
 8    1  0.1649749E-011  0.1629588E+04  0.7818608E-02  0.8802574E-01
          3   -1    0    0  501    0  0.00000000000E+00  0.00000000000E+00  0.39958184849E+03  0.39958186125E+03  0.10100000000E+00 0.  1.
         -3   -1    0    0    0  501 -0.00000000000E+00 -0.00000000000E+00 -0.16614595635E+04  0.16614595666E+04  0.10100000000E+00 0. -1.
     200001    2    1    2    0    0 -0.16961528107E+03  0.32763807933E+03 -0.87556601469E+03  0.11805002395E+04  0.70060610522E+03 0.  0.
    5000001    2    3    3    0    0  0.71731965116E+02  0.70494839599E+02 -0.21558046003E+03  0.28052686688E+03  0.14867881848E+03 0.  0.
        -11    1    4    4    0    0  0.31648560136E+01  0.40312255952E+02  0.93968898143E+01  0.41513802909E+02  0.51100000000E-03 0. -1.
     200002    1    4    4    0    0  0.68567109103E+02  0.30182583647E+02 -0.22497734984E+03  0.23901306397E+03  0.30000000000E+02 0. -1.
     200000    1    3    3    0    0 -0.24134724618E+03  0.25714323973E+03 -0.65998555466E+03  0.89997337257E+03  0.50000000000E+03 0. -1.
    -200001    1    1    2    0    0  0.16961528107E+03 -0.32763807933E+03 -0.38631170032E+03  0.88054118836E+03  0.70000000000E+03 0.  1.
<mgrwt>
<rscale>  0 0.16295878E+04</rscale>
<asrwt>0</asrwt>
<pdfrwt beam="1">  1        3 0.57083123E-01 0.16295878E+04</pdfrwt>
<pdfrwt beam="2">  1       -3 0.23735136E+00 0.16295878E+04</pdfrwt>
<totfact> 0.65911689E-01</totfact>
</mgrwt>
</event>
<event>
 8    1  0.1649749E-011  0.2444153E+04  0.7818608E-02  0.8423156E-01
         -3   -1    0    0    0  501 -0.00000000000E+00  0.00000000000E+00  0.81820575388E+03  0.81820576011E+03  0.10100000000E+00 0. -1.
          3   -1    0    0  501    0  0.00000000000E+00 -0.00000000000E+00 -0.18252998685E+04  0.18252998713E+04  0.10100000000E+00 0.  1.
     200001    2    1    2    0    0  0.34448889975E+03  0.92115841938E+03 -0.70846965387E+03  0.13999695426E+04  0.70055694562E+03 0.  0.
    5000001    2    3    3    0    0  0.19429317927E+03  0.31324001717E+03 -0.13170040659E+03  0.41265687538E+03  0.13065814877E+03 0.  0.
        -11    1    4    4    0    0  0.13651815954E+03  0.10342218117E+03 -0.62804826687E+02  0.18242204279E+03  0.51100000000E-03 0. -1.
     200002    1    4    4    0    0  0.57775019728E+02  0.20981783600E+03 -0.68895579899E+02  0.23023483259E+03  0.30000000000E+02 0. -1.
     200000    1    3    3    0    0  0.15019572049E+03  0.60791840221E+03 -0.57676924729E+03  0.98731266720E+03  0.50000000000E+03 0.  1.
    -200001    1    1    2    0    0 -0.34448889975E+03 -0.92115841938E+03 -0.29862446076E+03  0.12435360888E+04  0.70000000000E+03 0. -1.
<mgrwt>
<rscale>  0 0.24441529E+04</rscale>
<asrwt>0</asrwt>
<pdfrwt beam="1">  1        3 0.26075712E+00 0.24441529E+04</pdfrwt>
<pdfrwt beam="2">  1       -3 0.11688654E+00 0.24441529E+04</pdfrwt>
<totfact> 0.91042893E-02</totfact>
</mgrwt>
</event>
<event>
 8    1  0.1649749E-011  0.2449044E+04  0.7818608E-02  0.8421367E-01
         -3   -1    0    0    0  501 -0.00000000000E+00  0.00000000000E+00  0.63455378029E+03  0.63455378833E+03  0.10100000000E+00 0. -1.
          3   -1    0    0  501    0  0.00000000000E+00 -0.00000000000E+00 -0.23630059771E+04  0.23630059793E+04  0.10100000000E+00 0.  1.
     200001    2    1    2    0    0 -0.21676769193E+03 -0.93832163842E+03 -0.51320864864E+03  0.12963094595E+04  0.69971377603E+03 0.  0.
    5000001    2    3    3    0    0 -0.16228920249E+03 -0.41243495090E+03 -0.15900586636E+03  0.48699844086E+03  0.12427486431E+03 0.  0.
        -11    1    4    4    0    0 -0.61718798474E+01 -0.31506948000E+02 -0.51114586974E+02  0.60361253092E+02  0.51100000000E-03 0. -1.
     200002    1    4    4    0    0 -0.15611732264E+03 -0.38092800290E+03 -0.10789127939E+03  0.42663718777E+03  0.30000000000E+02 0. -1.
     200000    1    3    3    0    0 -0.54478489446E+02 -0.52588668752E+03 -0.35420278228E+03  0.80931101864E+03  0.50000000000E+03 0. -1.
    -200001    1    1    2    0    0  0.21676769193E+03  0.93832163842E+03 -0.12152435482E+04  0.17012503081E+04  0.70000000000E+03 0.  1.
<mgrwt>
<rscale>  0 0.24490442E+04</rscale>
<asrwt>0</asrwt>
<pdfrwt beam="1">  1        3 0.33757228E+00 0.24490442E+04</pdfrwt>
<pdfrwt beam="2">  1       -3 0.90650542E-01 0.24490442E+04</pdfrwt>
<totfact> 0.62202270E-02</totfact>
</mgrwt>
</event>
<event>
 8    1  0.1649749E-011  0.2990015E+04  0.7818608E-02  0.8246588E-01
          3   -1    0    0  501    0  0.00000000000E+00  0.00000000000E+00  0.29389631779E+04  0.29389631796E+04  0.10100000000E+00 0.  1.
         -3   -1    0    0    0  501 -0.00000000000E+00 -0.00000000000E+00 -0.76048846488E+03  0.76048847159E+03  0.10100000000E+00 0. -1.
     200001    2    1    2    0    0  0.30570617004E+03 -0.12509405417E+04  0.72488470669E+03  0.16351763770E+04  0.70002531729E+03 0.  0.
    5000001    2    3    3    0    0  0.15530292587E+03 -0.57414810980E+03  0.34330259678E+03  0.69908127594E+03  0.13073984338E+03 0.  0.
        -11    1    4    4    0    0  0.97506550272E+02 -0.24777555738E+03  0.21561174806E+03  0.34262031475E+03  0.51100000000E-03 0. -1.
     200002    1    4    4    0    0  0.57796375595E+02 -0.32637255242E+03  0.12769084873E+03  0.35646096119E+03  0.30000000000E+02 0. -1.
     200000    1    3    3    0    0  0.15040324417E+03 -0.67679243186E+03  0.38158210991E+03  0.93609510109E+03  0.50000000000E+03 0. -1.
    -200001    1    1    2    0    0 -0.30570617004E+03  0.12509405417E+04  0.14535900063E+04  0.20642752742E+04  0.70000000000E+03 0.  1.
<mgrwt>
<rscale>  0 0.29900151E+04</rscale>
<asrwt>0</asrwt>
<pdfrwt beam="1">  1        3 0.41985188E+00 0.29900151E+04</pdfrwt>
<pdfrwt beam="2">  1       -3 0.10864121E+00 0.29900151E+04</pdfrwt>
<totfact> 0.14111227E-02</totfact>
</mgrwt>
</event>
<event>
 8    1  0.1649749E-011  0.2362803E+04  0.7818608E-02  0.8453562E-01
         -3   -1    0    0    0  501 -0.00000000000E+00  0.00000000000E+00  0.15354209554E+04  0.15354209587E+04  0.10100000000E+00 0. -1.
          3   -1    0    0  501    0  0.00000000000E+00 -0.00000000000E+00 -0.90900740822E+03  0.90900741384E+03  0.10100000000E+00 0.  1.
     200001    2    1    2    0    0  0.24697651104E+03 -0.86021770276E+03 -0.21992337710E+02  0.11362226988E+04  0.69967597164E+03 0.  0.
    5000001    2    3    3    0    0 -0.99407183582E+00 -0.17557334697E+03 -0.32176770856E+02  0.25285922520E+03  0.17909621671E+03 0.  0.
        -11    1    4    4    0    0  0.10348689968E+02 -0.41747714660E+02 -0.92952259002E+02  0.10242113804E+03  0.51100000000E-03 0. -1.
     200002    1    4    4    0    0 -0.11342761803E+02 -0.13382563231E+03  0.60775488146E+02  0.15043808716E+03  0.30000000000E+02 0. -1.
     200000    1    3    3    0    0  0.24797058287E+03 -0.68464435578E+03  0.10184433146E+02  0.88336347364E+03  0.50000000000E+03 0. -1.
    -200001    1    1    2    0    0 -0.24697651104E+03  0.86021770276E+03  0.64840588484E+03  0.13082056737E+04  0.70000000000E+03 0. -1.
<mgrwt>
<rscale>  0 0.23628026E+04</rscale>
<asrwt>0</asrwt>
<pdfrwt beam="1">  1        3 0.12985820E+00 0.23628026E+04</pdfrwt>
<pdfrwt beam="2">  1       -3 0.21934585E+00 0.23628026E+04</pdfrwt>
<totfact> 0.12291769E-01</totfact>
</mgrwt>
</event>
<event>
 8    1  0.1649749E-011  0.1499529E+04  0.7818608E-02  0.8884766E-01
         -3   -1    0    0    0  501 -0.00000000000E+00  0.00000000000E+00  0.10427435104E+04  0.10427435153E+04  0.10100000000E+00 0. -1.
          3   -1    0    0  501    0  0.00000000000E+00 -0.00000000000E+00 -0.53910347584E+03  0.53910348530E+03  0.10100000000E+00 0.  1.
     200001    2    1    2    0    0 -0.10546173850E+03 -0.52418409485E+02 -0.25273768374E+01  0.71002401610E+03  0.70018415282E+03 0.  0.
    5000001    2    3    3    0    0 -0.43738852112E+02 -0.56437265246E+02 -0.79368765295E+01  0.20618363603E+03  0.19326263390E+03 0.  0.
        -11    1    4    4    0    0  0.46514469705E+02 -0.72171071259E+02  0.44217239266E+02  0.96578588036E+02  0.51100000000E-03 0. -1.
     200002    1    4    4    0    0 -0.90253321817E+02  0.15733806013E+02 -0.52154115795E+02  0.10960504799E+03  0.30000000000E+02 0. -1.
     200000    1    3    3    0    0 -0.61722886393E+02  0.40188557612E+01  0.54094996921E+01  0.50384038007E+03  0.50000000000E+03 0.  1.
    -200001    1    1    2    0    0  0.10546173850E+03  0.52418409485E+02  0.50616741140E+03  0.87182298450E+03  0.70000000000E+03 0. -1.
<mgrwt>
<rscale>  0 0.14995288E+04</rscale>
<asrwt>0</asrwt>
<pdfrwt beam="1">  1        3 0.77014785E-01 0.14995288E+04</pdfrwt>
<pdfrwt beam="2">  1       -3 0.14896336E+00 0.14995288E+04</pdfrwt>
<totfact> 0.13230168E+00</totfact>
</mgrwt>
</event>
<event>
 8    1  0.1649749E-011  0.1617346E+04  0.7818608E-02  0.8809962E-01
          3   -1    0    0  501    0  0.00000000000E+00  0.00000000000E+00  0.83867177633E+03  0.83867178242E+03  0.10100000000E+00 0.  1.
         -3   -1    0    0    0  501 -0.00000000000E+00 -0.00000000000E+00 -0.77974754771E+03  0.77974755425E+03  0.10100000000E+00 0. -1.
     200001    2    1    2    0    0 -0.36444063383E+03 -0.73840405470E+02  0.19112906084E+03  0.81483517882E+03  0.69939736179E+03 0.  0.
    5000001    2    3    3    0    0 -0.17536008041E+03 -0.99985459168E+02  0.11425788334E+03  0.27414654620E+03  0.14612739320E+03 0.  0.
        -11    1    4    4    0    0 -0.13730585269E+03 -0.72703130639E+02  0.96372195495E+01  0.15566476283E+03  0.51100000000E-03 0. -1.
     200002    1    4    4    0    0 -0.38054227722E+02 -0.27282328530E+02  0.10462066380E+03  0.11848178337E+03  0.30000000000E+02 0. -1.
     200000    1    3    3    0    0 -0.18908055342E+03  0.26145053698E+02  0.76871177500E+02  0.54068863262E+03  0.50000000000E+03 0. -1.
    -200001    1    1    2    0    0  0.36444063383E+03  0.73840405470E+02 -0.13220483222E+03  0.80358415784E+03  0.70000000000E+03 0. -1.
<mgrwt>
<rscale>  0 0.16173463E+04</rscale>
<asrwt>0</asrwt>
<pdfrwt beam="1">  1        3 0.11981025E+00 0.16173463E+04</pdfrwt>
<pdfrwt beam="2">  1       -3 0.11139251E+00 0.16173463E+04</pdfrwt>
<totfact> 0.97088667E-01</totfact>
</mgrwt>
</event>
<event>
 8    1  0.1649749E-011  0.2238775E+04  0.7818608E-02  0.8502460E-01
         -3   -1    0    0    0  501 -0.00000000000E+00  0.00000000000E+00  0.44654886924E+03  0.44654888066E+03  0.10100000000E+00 0.  1.
          3   -1    0    0  501    0  0.00000000000E+00 -0.00000000000E+00 -0.28060273835E+04  0.28060273854E+04  0.10100000000E+00 0. -1.
     200001    2    1    2    0    0  0.43340678801E+02 -0.84323154758E+03 -0.85347486012E+03  0.13895237000E+04  0.69959911291E+03 0.  0.
    5000001    2    3    3    0    0  0.10464795441E+00 -0.25213259797E+03 -0.28084291068E+03  0.42558663148E+03  0.19667328873E+03 0.  0.
        -11    1    4    4    0    0  0.13154925378E+02  0.31136064301E+02 -0.20940568925E+02  0.39761966614E+02  0.51100000000E-03 0. -1.
     200002    1    4    4    0    0 -0.13050277424E+02 -0.28326866227E+03 -0.25990234176E+03  0.38582466487E+03  0.30000000000E+02 0. -1.
     200000    1    3    3    0    0  0.43236030847E+02 -0.59109894961E+03 -0.57263194944E+03  0.96393706854E+03  0.50000000000E+03 0.  1.
    -200001    1    1    2    0    0 -0.43340678801E+02  0.84323154758E+03 -0.15060036542E+04  0.18630525660E+04  0.70000000000E+03 0. -1.
<mgrwt>
<rscale>  0 0.22387750E+04</rscale>
<asrwt>0</asrwt>
<pdfrwt beam="1">  1        3 0.40086105E+00 0.22387750E+04</pdfrwt>
<pdfrwt beam="2">  1       -3 0.63792698E-01 0.22387750E+04</pdfrwt>
<totfact> 0.62965395E-02</totfact>
</mgrwt>
</event>
<event>
 8    1  0.1649749E-011  0.1476427E+04  0.7818608E-02  0.8900282E-01
          3   -1    0    0  501    0  0.00000000000E+00  0.00000000000E+00  0.33545468823E+03  0.33545470344E+03  0.10100000000E+00 0.  1.
         -3   -1    0    0    0  501 -0.00000000000E+00 -0.00000000000E+00 -0.16245387994E+04  0.16245388025E+04  0.10100000000E+00 0. -1.
     200001    2    1    2    0    0 -0.18332482991E+03  0.11966280203E+03 -0.70460243874E+03  0.10221523655E+04  0.70739216993E+03 0.  0.
    5000001    2    3    3    0    0 -0.45299949943E+02  0.27802119405E+02 -0.11247354620E+03  0.22962105511E+03  0.19300385241E+03 0.  0.
        -11    1    4    4    0    0  0.74150669515E+02  0.60260915153E+01 -0.51484117007E+02  0.90472370770E+02  0.51100000000E-03 0. -1.
     200002    1    4    4    0    0 -0.11945061946E+03  0.21776027890E+02 -0.60989429192E+02  0.13914868434E+03  0.30000000000E+02 0. -1.
     200000    1    3    3    0    0 -0.13802487997E+03  0.91860682628E+02 -0.59212889254E+03  0.79253131035E+03  0.50000000000E+03 0. -1.
    -200001    1    1    2    0    0  0.18332482991E+03 -0.11966280203E+03 -0.58448167242E+03  0.93784114052E+03  0.70000000000E+03 0. -1.
<mgrwt>
<rscale>  0 0.14764270E+04</rscale>
<asrwt>0</asrwt>
<pdfrwt beam="1">  1        3 0.47922100E-01 0.14764270E+04</pdfrwt>
<pdfrwt beam="2">  1       -3 0.23207697E+00 0.14764270E+04</pdfrwt>
<totfact> 0.10283091E+00</totfact>
</mgrwt>
</event>
<event>
 8    1  0.1649749E-011  0.1926329E+04  0.7818608E-02  0.8641861E-01
         -3   -1    0    0    0  501 -0.00000000000E+00  0.00000000000E+00  0.81158339120E+03  0.81158339748E+03  0.10100000000E+00 0. -1.
          3   -1    0    0  501    0  0.00000000000E+00 -0.00000000000E+00 -0.11430565475E+04  0.11430565520E+04  0.10100000000E+00 0.  1.
     200001    2    1    2    0    0  0.59823171878E+03  0.27097056340E+03 -0.25335127161E+03  0.99161904393E+03  0.69843770365E+03 0.  0.
    5000001    2    3    3    0    0  0.20785198348E+03  0.13336728664E+03 -0.10230486546E+03  0.32517623594E+03  0.18515944141E+03 0.  0.
        -11    1    4    4    0    0  0.12861123202E+03  0.71460758978E+02  0.36093857374E+02  0.15149341774E+03  0.51100000000E-03 0. -1.
     200002    1    4    4    0    0  0.79240751459E+02  0.61906527663E+02 -0.13839872283E+03  0.17368281821E+03  0.30000000000E+02 0. -1.
     200000    1    3    3    0    0  0.39037973530E+03  0.13760327676E+03 -0.15104640615E+03  0.66644280799E+03  0.50000000000E+03 0. -1.
    -200001    1    1    2    0    0 -0.59823171878E+03 -0.27097056340E+03 -0.78121884695E+02  0.96302090551E+03  0.70000000000E+03 0.  1.
<mgrwt>
<rscale>  0 0.19263289E+04</rscale>
<asrwt>0</asrwt>
<pdfrwt beam="1">  1        3 0.16329379E+00 0.19263289E+04</pdfrwt>
<pdfrwt beam="2">  1       -3 0.11594049E+00 0.19263289E+04</pdfrwt>
<totfact> 0.39152375E-01</totfact>
</mgrwt>
</event>
<event>
 8    1  0.1649749E-011  0.1619692E+04  0.7818608E-02  0.8808541E-01
          3   -1    0    0  501    0  0.00000000000E+00  0.00000000000E+00  0.21366013206E+04  0.21366013230E+04  0.10100000000E+00 0.  1.
         -3   -1    0    0    0  501 -0.00000000000E+00 -0.00000000000E+00 -0.30695964125E+03  0.30695965787E+03  0.10100000000E+00 0. -1.
     200001    2    1    2    0    0  0.15278306440E+03 -0.32589968754E+03  0.63211973175E+03  0.10105180345E+04  0.70143999864E+03 0.  0.
    5000001    2    3    3    0    0  0.10089357020E+03 -0.56942327791E+02  0.12373572530E+03  0.24665621521E+03  0.17918375368E+03 0.  0.
        -11    1    4    4    0    0 -0.15496960135E+01 -0.96889024511E+02  0.75730947287E+02  0.12298398679E+03  0.51100000000E-03 0. -1.
     200002    1    4    4    0    0  0.10244326621E+03  0.39946696721E+02  0.48004778014E+02  0.12367222842E+03  0.30000000000E+02 0. -1.
     200000    1    3    3    0    0  0.51889494203E+02 -0.26895735975E+03  0.50838400645E+03  0.76386181930E+03  0.50000000000E+03 0. -1.
    -200001    1    1    2    0    0 -0.15278306440E+03  0.32589968754E+03  0.11975219476E+04  0.14330429463E+04  0.70000000000E+03 0.  1.
<mgrwt>
<rscale>  0 0.16196918E+04</rscale>
<asrwt>0</asrwt>
<pdfrwt beam="1">  1        3 0.30522877E+00 0.16196918E+04</pdfrwt>
<pdfrwt beam="2">  1       -3 0.43851378E-01 0.16196918E+04</pdfrwt>
<totfact> 0.47403411E-01</totfact>
</mgrwt>
</event>
<event>
 8    1  0.1649749E-011  0.1681526E+04  0.7818608E-02  0.8771971E-01
          3   -1    0    0  501    0  0.00000000000E+00  0.00000000000E+00  0.10688849546E+04  0.10688849594E+04  0.10100000000E+00 0.  1.
         -3   -1    0    0    0  501 -0.00000000000E+00 -0.00000000000E+00 -0.66132700718E+03  0.66132701489E+03  0.10100000000E+00 0. -1.
     200001    2    1    2    0    0 -0.41022143225E+03 -0.21635193540E+03  0.15702007514E+03  0.85393632766E+03  0.69961572615E+03 0.  0.
    5000001    2    3    3    0    0 -0.14164582349E+03 -0.24219339881E+02  0.14417266641E+02  0.23799529731E+03  0.18916603349E+03 0.  0.
        -11    1    4    4    0    0  0.13966841490E+02 -0.50218407575E+01  0.68003904324E+02  0.69604759531E+02  0.51100000000E-03 0. -1.
     200002    1    4    4    0    0 -0.15561266498E+03 -0.19197499123E+02 -0.53586637684E+02  0.16839053778E+03  0.30000000000E+02 0. -1.
     200000    1    3    3    0    0 -0.26857560876E+03 -0.19213259552E+03  0.14260280850E+03  0.61594103035E+03  0.50000000000E+03 0.  1.
    -200001    1    1    2    0    0  0.41022143225E+03  0.21635193540E+03  0.25053787233E+03  0.87627564664E+03  0.70000000000E+03 0. -1.
<mgrwt>
<rscale>  0 0.16815261E+04</rscale>
<asrwt>0</asrwt>
<pdfrwt beam="1">  1        3 0.15269785E+00 0.16815261E+04</pdfrwt>
<pdfrwt beam="2">  1       -3 0.94475288E-01 0.16815261E+04</pdfrwt>
<totfact> 0.77325546E-01</totfact>
</mgrwt>
</event>
<event>
 8    1  0.1649749E-011  0.1751929E+04  0.7818608E-02  0.8732289E-01
         -3   -1    0    0    0  501 -0.00000000000E+00  0.00000000000E+00  0.61181473691E+03  0.61181474525E+03  0.10100000000E+00 0.  1.
          3   -1    0    0  501    0  0.00000000000E+00 -0.00000000000E+00 -0.12541610152E+04  0.12541610192E+04  0.10100000000E+00 0. -1.
     200001    2    1    2    0    0  0.48581856057E+02  0.50433116810E+03 -0.16617300969E+03  0.87933950650E+03  0.69922412336E+03 0.  0.
    5000001    2    3    3    0    0 -0.29580984053E+02  0.10513349645E+03 -0.43812111758E+02  0.22325993818E+03  0.18972983995E+03 0.  0.
        -11    1    4    4    0    0  0.53914366434E+02  0.25023024651E+02  0.44824777252E+02  0.74445760972E+02  0.51100000000E-03 0. -1.
     200002    1    4    4    0    0 -0.83495350487E+02  0.80110471800E+02 -0.88636889010E+02  0.14881417721E+03  0.30000000000E+02 0. -1.
     200000    1    3    3    0    0  0.78162840110E+02  0.39919767164E+03 -0.12236089793E+03  0.65607956832E+03  0.50000000000E+03 0.  1.
    -200001    1    1    2    0    0 -0.48581856057E+02 -0.50433116810E+03 -0.47617326856E+03  0.98663625797E+03  0.70000000000E+03 0. -1.
<mgrwt>
<rscale>  0 0.17519295E+04</rscale>
<asrwt>0</asrwt>
<pdfrwt beam="1">  1        3 0.17916586E+00 0.17519295E+04</pdfrwt>
<pdfrwt beam="2">  1       -3 0.87402106E-01 0.17519295E+04</pdfrwt>
<totfact> 0.59830021E-01</totfact>
</mgrwt>
</event>
<event>
 8    1  0.1649749E-011  0.2895680E+04  0.7818608E-02  0.8274164E-01
         -3   -1    0    0    0  501 -0.00000000000E+00  0.00000000000E+00  0.16749906087E+04  0.16749906118E+04  0.10100000000E+00 0. -1.
          3   -1    0    0  501    0  0.00000000000E+00 -0.00000000000E+00 -0.12514936074E+04  0.12514936115E+04  0.10100000000E+00 0.  1.
     200001    2    1    2    0    0 -0.11435739262E+04 -0.51353382784E+03  0.40142387737E+03  0.14905296489E+04  0.69932766855E+03 0.  0.
    5000001    2    3    3    0    0 -0.20021587420E+03 -0.77309626633E+02  0.10962516616E+03  0.30083958180E+03  0.18006554991E+03 0.  0.
        -11    1    4    4    0    0 -0.37005718488E+02 -0.73781194585E+02 -0.25950802303E+02  0.86524747995E+02  0.51100000000E-03 0. -1.
     200002    1    4    4    0    0 -0.16321015572E+03 -0.35284320473E+01  0.13557596847E+03  0.21431483380E+03  0.30000000000E+02 0. -1.
     200000    1    3    3    0    0 -0.94335805195E+03 -0.43622420121E+03  0.29179871121E+03  0.11896900671E+04  0.50000000000E+03 0. -1.
    -200001    1    1    2    0    0  0.11435739262E+04  0.51353382784E+03  0.22073123932E+02  0.14359545744E+04  0.70000000000E+03 0.  1.
<mgrwt>
<rscale>  0 0.28956796E+04</rscale>
<asrwt>0</asrwt>
<pdfrwt beam="1">  1        3 0.17878480E+00 0.28956796E+04</pdfrwt>
<pdfrwt beam="2">  1       -3 0.23928437E+00 0.28956796E+04</pdfrwt>
<totfact> 0.38722557E-02</totfact>
</mgrwt>
</event>
<event>
 8    1  0.1649749E-011  0.1724347E+04  0.7818608E-02  0.8747599E-01
         -3   -1    0    0    0  501 -0.00000000000E+00  0.00000000000E+00  0.38660036154E+03  0.38660037474E+03  0.10100000000E+00 0. -1.
          3   -1    0    0  501    0  0.00000000000E+00 -0.00000000000E+00 -0.19227688559E+04  0.19227688586E+04  0.10100000000E+00 0.  1.
     200001    2    1    2    0    0  0.34690817489E+03 -0.33534394774E+03 -0.95602650058E+03  0.12801143679E+04  0.70135959387E+03 0.  0.
    5000001    2    3    3    0    0  0.38588649820E+02  0.50660858069E+02 -0.28351957065E+03  0.30732137321E+03  0.10003735829E+03 0.  0.
        -11    1    4    4    0    0  0.64907573737E+02  0.36534998311E+02 -0.20507333093E+03  0.21818082017E+03  0.51100000000E-03 0. -1.
     200002    1    4    4    0    0 -0.26318923917E+02  0.14125859758E+02 -0.78446239724E+02  0.89140553043E+02  0.30000000000E+02 0. -1.
     200000    1    3    3    0    0  0.30831952507E+03 -0.38600480581E+03 -0.67250692993E+03  0.97279299465E+03  0.50000000000E+03 0.  1.
    -200001    1    1    2    0    0 -0.34690817489E+03  0.33534394774E+03 -0.58014199382E+03  0.10292548655E+04  0.70000000000E+03 0. -1.
<mgrwt>
<rscale>  0 0.17243470E+04</rscale>
<asrwt>0</asrwt>
<pdfrwt beam="1">  1        3 0.27468126E+00 0.17243470E+04</pdfrwt>
<pdfrwt beam="2">  1       -3 0.55228625E-01 0.17243470E+04</pdfrwt>
<totfact> 0.43291159E-01</totfact>
</mgrwt>
</event>
<event>
 8    1  0.1649749E-011  0.1621799E+04  0.7818608E-02  0.8807267E-01
          3   -1    0    0  501    0  0.00000000000E+00  0.00000000000E+00  0.31225235094E+03  0.31225236728E+03  0.10100000000E+00 0.  1.
         -3   -1    0    0    0  501 -0.00000000000E+00 -0.00000000000E+00 -0.21058530770E+04  0.21058530794E+04  0.10100000000E+00 0. -1.
     200001    2    1    2    0    0  0.40196419126E+03  0.53586284896E+01 -0.10112125339E+04  0.12939456675E+04  0.70010047549E+03 0.  0.
    5000001    2    3    3    0    0  0.11303925897E+03 -0.29652291517E+02 -0.24066156554E+03  0.33038343503E+03  0.19385069655E+03 0.  0.
        -11    1    4    4    0    0 -0.45415031109E+02 -0.42353336710E+00 -0.11566302550E+03  0.12426037140E+03  0.51100000000E-03 0. -1.
     200002    1    4    4    0    0  0.15845429008E+03 -0.29228758150E+02 -0.12499854003E+03  0.20612306363E+03  0.30000000000E+02 0. -1.
     200000    1    3    3    0    0  0.28892493228E+03  0.35010920007E+02 -0.77055096834E+03  0.96356223246E+03  0.50000000000E+03 0.  1.
    -200001    1    1    2    0    0 -0.40196419126E+03 -0.53586284896E+01 -0.78238819219E+03  0.11241597792E+04  0.70000000000E+03 0. -1.
<mgrwt>
<rscale>  0 0.16217985E+04</rscale>
<asrwt>0</asrwt>
<pdfrwt beam="1">  1        3 0.44607481E-01 0.16217985E+04</pdfrwt>
<pdfrwt beam="2">  1       -3 0.30083615E+00 0.16217985E+04</pdfrwt>
<totfact> 0.47537844E-01</totfact>
</mgrwt>
</event>
<event>
 8    1  0.1649749E-011  0.1877207E+04  0.7818608E-02  0.8666286E-01
          3   -1    0    0  501    0  0.00000000000E+00  0.00000000000E+00  0.31912610785E+04  0.31912610801E+04  0.10100000000E+00 0.  1.
         -3   -1    0    0    0  501 -0.00000000000E+00 -0.00000000000E+00 -0.27605912316E+03  0.27605914163E+03  0.10100000000E+00 0. -1.
     200001    2    1    2    0    0  0.17422385593E+03 -0.59402685024E+03  0.16181962291E+04  0.18687440726E+04  0.70030245044E+03 0.  0.
    5000001    2    3    3    0    0 -0.95377360743E+02 -0.11114199669E+03  0.34700614670E+03  0.39504572371E+03  0.11915734809E+03 0.  0.
        -11    1    4    4    0    0 -0.10548415180E+03 -0.11137318262E+03  0.25320797394E+03  0.29604926981E+03  0.51100000000E-03 0. -1.
     200002    1    4    4    0    0  0.10106791052E+02  0.23118592896E+00  0.93798172759E+02  0.98996453902E+02  0.30000000000E+02 0. -1.
     200000    1    3    3    0    0  0.26960121667E+03 -0.48288485355E+03  0.12711900824E+04  0.14736983489E+04  0.50000000000E+03 0. -1.
    -200001    1    1    2    0    0 -0.17422385593E+03  0.59402685024E+03  0.12970057262E+04  0.15985761492E+04  0.70000000000E+03 0.  1.
<mgrwt>
<rscale>  0 0.18772073E+04</rscale>
<asrwt>0</asrwt>
<pdfrwt beam="1">  1        3 0.45589443E+00 0.18772073E+04</pdfrwt>
<pdfrwt beam="2">  1       -3 0.39437020E-01 0.18772073E+04</pdfrwt>
<totfact> 0.90309628E-02</totfact>
</mgrwt>
</event>
<event>
 8    1  0.1649749E-011  0.2112463E+04  0.7818608E-02  0.8555773E-01
          3   -1    0    0  501    0  0.00000000000E+00  0.00000000000E+00  0.10967733148E+04  0.10967733194E+04  0.10100000000E+00 0. -1.
         -3   -1    0    0    0  501 -0.00000000000E+00 -0.00000000000E+00 -0.10171883387E+04  0.10171883437E+04  0.10100000000E+00 0.  1.
     200001    2    1    2    0    0  0.27857334334E+03 -0.26578457727E+03  0.73138066341E+03  0.10829029028E+04  0.69965453836E+03 0.  0.
    5000001    2    3    3    0    0  0.14616006614E+02 -0.57389249320E+02  0.11016689040E+03  0.21745005023E+03  0.17787812406E+03 0.  0.
        -11    1    4    4    0    0 -0.63936811302E+02 -0.44398670521E+02  0.10698529874E+03  0.13230650752E+03  0.51100000000E-03 0. -1.
     200002    1    4    4    0    0  0.78552817916E+02 -0.12990578798E+02  0.31815916513E+01  0.85143542712E+02  0.30000000000E+02 0. -1.
     200000    1    3    3    0    0  0.26395733672E+03 -0.20839532795E+03  0.62121377301E+03  0.86545285262E+03  0.50000000000E+03 0. -1.
    -200001    1    1    2    0    0 -0.27857334334E+03  0.26578457727E+03 -0.65179568734E+03  0.10310587603E+04  0.70000000000E+03 0.  1.
<mgrwt>
<rscale>  0 0.21124631E+04</rscale>
<asrwt>0</asrwt>
<pdfrwt beam="1">  1        3 0.15668190E+00 0.21124631E+04</pdfrwt>
<pdfrwt beam="2">  1       -3 0.14531262E+00 0.21124631E+04</pdfrwt>
<totfact> 0.24505778E-01</totfact>
</mgrwt>
</event>
<event>
 8    1  0.1649749E-011  0.1541079E+04  0.7818608E-02  0.8857586E-01
         -3   -1    0    0    0  501 -0.00000000000E+00  0.00000000000E+00  0.21060226985E+04  0.21060227009E+04  0.10100000000E+00 0. -1.
          3   -1    0    0  501    0  0.00000000000E+00 -0.00000000000E+00 -0.28192041266E+03  0.28192043075E+03  0.10100000000E+00 0.  1.
     200001    2    1    2    0    0 -0.23017736164E+03 -0.21876012547E+03  0.84203552224E+03  0.11408293684E+04  0.70116347370E+03 0.  0.
    5000001    2    3    3    0    0 -0.67635448829E+02  0.10792072390E+02  0.19482568671E+03  0.27596252541E+03  0.18304984146E+03 0.  0.
        -11    1    4    4    0    0 -0.82540278784E+02  0.72753615364E+02  0.63754241872E+02  0.12716363288E+03  0.51100000000E-03 0. -1.
     200002    1    4    4    0    0  0.14904829955E+02 -0.61961542974E+02  0.13107144484E+03  0.14879889253E+03  0.30000000000E+02 0. -1.
     200000    1    3    3    0    0 -0.16254191281E+03 -0.22955219786E+03  0.64720983553E+03  0.86486684303E+03  0.50000000000E+03 0.  1.
    -200001    1    1    2    0    0  0.23017736164E+03  0.21876012547E+03  0.98206676359E+03  0.12471137632E+04  0.70000000000E+03 0. -1.
<mgrwt>
<rscale>  0 0.15410786E+04</rscale>
<asrwt>0</asrwt>
<pdfrwt beam="1">  1        3 0.40274345E-01 0.15410786E+04</pdfrwt>
<pdfrwt beam="2">  1       -3 0.30086040E+00 0.15410786E+04</pdfrwt>
<totfact> 0.58674085E-01</totfact>
</mgrwt>
</event>
<event>
 8    1  0.1649749E-011  0.1635862E+04  0.7818608E-02  0.8798815E-01
          3   -1    0    0  501    0  0.00000000000E+00  0.00000000000E+00  0.15113608282E+04  0.15113608316E+04  0.10100000000E+00 0.  1.
         -3   -1    0    0    0  501 -0.00000000000E+00 -0.00000000000E+00 -0.44265461247E+03  0.44265462399E+03  0.10100000000E+00 0. -1.
     200001    2    1    2    0    0 -0.34672629757E+03  0.20931020379E+03  0.38740779571E+03  0.89656691122E+03  0.69979821326E+03 0.  0.
    5000001    2    3    3    0    0 -0.17483851889E+03  0.11604227395E+03  0.83018338728E+02  0.27939816872E+03  0.16473304189E+03 0.  0.
        -11    1    4    4    0    0  0.26474653489E+02  0.13244390406E+02 -0.12556258454E+02  0.32155571543E+02  0.51100000000E-03 0. -1.
     200002    1    4    4    0    0 -0.20131317238E+03  0.10279788354E+03  0.95574597183E+02  0.24724259718E+03  0.30000000000E+02 0. -1.
     200000    1    3    3    0    0 -0.17188777868E+03  0.93267929842E+02  0.30438945698E+03  0.61716874250E+03  0.50000000000E+03 0. -1.
    -200001    1    1    2    0    0  0.34672629757E+03 -0.20931020379E+03  0.68129842005E+03  0.10574485444E+04  0.70000000000E+03 0. -1.
<mgrwt>
<rscale>  0 0.16358617E+04</rscale>
<asrwt>0</asrwt>
<pdfrwt beam="1">  1        3 0.21590869E+00 0.16358617E+04</pdfrwt>
<pdfrwt beam="2">  1       -3 0.63236375E-01 0.16358617E+04</pdfrwt>
<totfact> 0.71841089E-01</totfact>
</mgrwt>
</event>
<event>
 8    1  0.1649749E-011  0.1499251E+04  0.7818608E-02  0.8884951E-01
          3   -1    0    0  501    0  0.00000000000E+00  0.00000000000E+00  0.20765334559E+04  0.20765334583E+04  0.10100000000E+00 0.  1.
         -3   -1    0    0    0  501 -0.00000000000E+00 -0.00000000000E+00 -0.27061386232E+03  0.27061388117E+03  0.10100000000E+00 0. -1.
     200001    2    1    2    0    0 -0.13470279828E+03  0.21778312611E+03  0.77096390644E+03  0.10717228579E+04  0.69902089047E+03 0.  0.
    5000001    2    3    3    0    0 -0.57316318847E+02 -0.71570009889E+01  0.35317435962E+03  0.37808402295E+03  0.12197957634E+03 0.  0.
        -11    1    4    4    0    0  0.13010596201E+02 -0.51481394132E+01  0.24610410020E+03  0.24650153567E+03  0.51100000000E-03 0. -1.
     200002    1    4    4    0    0 -0.70326915047E+02 -0.20088615756E+01  0.10707025942E+03  0.13158248728E+03  0.30000000000E+02 0. -1.
     200000    1    3    3    0    0 -0.77386479431E+02  0.22494012710E+03  0.41778954682E+03  0.69363883499E+03  0.50000000000E+03 0. -1.
    -200001    1    1    2    0    0  0.13470279828E+03 -0.21778312611E+03  0.10349556871E+04  0.12754244815E+04  0.70000000000E+03 0. -1.
<mgrwt>
<rscale>  0 0.14992515E+04</rscale>
<asrwt>0</asrwt>
<pdfrwt beam="1">  1        3 0.29664763E+00 0.14992515E+04</pdfrwt>
<pdfrwt beam="2">  1       -3 0.38659126E-01 0.14992515E+04</pdfrwt>
<totfact> 0.68576057E-01</totfact>
</mgrwt>
</event>
<event>
 8    1  0.1649749E-011  0.1480088E+04  0.7818608E-02  0.8897803E-01
          3   -1    0    0  501    0  0.00000000000E+00  0.00000000000E+00  0.89378749683E+03  0.89378750254E+03  0.10100000000E+00 0. -1.
         -3   -1    0    0    0  501 -0.00000000000E+00 -0.00000000000E+00 -0.61274606571E+03  0.61274607404E+03  0.10100000000E+00 0.  1.
     200001    2    1    2    0    0  0.17177623238E+01 -0.22483357931E+03  0.22388795463E+03  0.76909231860E+03  0.70058838786E+03 0.  0.
    5000001    2    3    3    0    0 -0.88102056008E+02 -0.12425338295E+03  0.39445020174E+02  0.21936222870E+03  0.15284960686E+03 0.  0.
        -11    1    4    4    0    0 -0.10668176483E+03 -0.24619707428E+02  0.28259433149E+02  0.11307397801E+03  0.51100000000E-03 0. -1.
     200002    1    4    4    0    0  0.18579708822E+02 -0.99633675518E+02  0.11185587026E+02  0.10628825069E+03  0.30000000000E+02 0. -1.
     200000    1    3    3    0    0  0.89819818332E+02 -0.10058019637E+03  0.18444293446E+03  0.54973008990E+03  0.50000000000E+03 0.  1.
    -200001    1    1    2    0    0 -0.17177623238E+01  0.22483357931E+03  0.57153476487E+02  0.73744125798E+03  0.70000000000E+03 0.  1.
<mgrwt>
<rscale>  0 0.14800875E+04</rscale>
<asrwt>0</asrwt>
<pdfrwt beam="1">  1        3 0.12768393E+00 0.14800875E+04</pdfrwt>
<pdfrwt beam="2">  1       -3 0.87535154E-01 0.14800875E+04</pdfrwt>
<totfact> 0.14721981E+00</totfact>
</mgrwt>
</event>
<event>
 8    1  0.1649749E-011  0.2978894E+04  0.7818608E-02  0.8249784E-01
          3   -1    0    0  501    0  0.00000000000E+00  0.00000000000E+00  0.10625454687E+04  0.10625454735E+04  0.10100000000E+00 0.  1.
         -3   -1    0    0    0  501 -0.00000000000E+00 -0.00000000000E+00 -0.20878653341E+04  0.20878653365E+04  0.10100000000E+00 0. -1.
     200001    2    1    2    0    0 -0.18823103937E+03 -0.11939282352E+04  0.34888782598E+02  0.13968607160E+04  0.69936190760E+03 0.  0.
    5000001    2    3    3    0    0 -0.11739872656E+03 -0.23380795919E+03  0.56550184251E+02  0.31181814668E+03  0.15995002495E+03 0.  0.
        -11    1    4    4    0    0 -0.54297745327E+02 -0.13053048861E+03  0.10700704218E+03  0.17730471139E+03  0.51100000000E-03 0. -1.
     200002    1    4    4    0    0 -0.63100981232E+02 -0.10327747058E+03 -0.50456857926E+02  0.13451343529E+03  0.30000000000E+02 0. -1.
     200000    1    3    3    0    0 -0.70832312815E+02 -0.96012027605E+03 -0.21661401653E+02  0.10850425694E+04  0.50000000000E+03 0. -1.
    -200001    1    1    2    0    0  0.18823103937E+03  0.11939282352E+04 -0.10602086480E+04  0.17535500940E+04  0.70000000000E+03 0. -1.
<mgrwt>
<rscale>  0 0.29788937E+04</rscale>
<asrwt>0</asrwt>
<pdfrwt beam="1">  1        3 0.15179221E+00 0.29788937E+04</pdfrwt>
<pdfrwt beam="2">  1       -3 0.29826648E+00 0.29788937E+04</pdfrwt>
<totfact> 0.27417732E-02</totfact>
</mgrwt>
</event>
<event>
 8    1  0.1649749E-011  0.1998496E+04  0.7818608E-02  0.8607324E-01
         -3   -1    0    0    0  501 -0.00000000000E+00  0.00000000000E+00  0.45050749760E+03  0.45050750892E+03  0.10100000000E+00 0. -1.
          3   -1    0    0  501    0  0.00000000000E+00 -0.00000000000E+00 -0.22163807628E+04  0.22163807651E+04  0.10100000000E+00 0.  1.
     200001    2    1    2    0    0 -0.14395625208E+03 -0.32980034427E+03 -0.17043286437E+04  0.18774078056E+04  0.70030869861E+03 0.  0.
    5000001    2    3    3    0    0 -0.10024048117E+02 -0.92011638125E+02 -0.48257797683E+03  0.52938851942E+03  0.19698750641E+03 0.  0.
        -11    1    4    4    0    0 -0.83385985396E+01  0.44804480136E+02 -0.27472865827E+02  0.53214020923E+02  0.51100000000E-03 0. -1.
     200002    1    4    4    0    0 -0.16854495777E+01 -0.13681611826E+03 -0.45510511100E+03  0.47617449849E+03  0.30000000000E+02 0. -1.
     200000    1    3    3    0    0 -0.13393220396E+03 -0.23778870614E+03 -0.12217506669E+04  0.13480192862E+04  0.50000000000E+03 0.  1.
    -200001    1    1    2    0    0  0.14395625208E+03  0.32980034427E+03 -0.61544621548E+02  0.78948046843E+03  0.70000000000E+03 0. -1.
<mgrwt>
<rscale>  0 0.19984956E+04</rscale>
<asrwt>0</asrwt>
<pdfrwt beam="1">  1        3 0.31662582E+00 0.19984956E+04</pdfrwt>
<pdfrwt beam="2">  1       -3 0.64358216E-01 0.19984956E+04</pdfrwt>
<totfact> 0.17950184E-01</totfact>
</mgrwt>
</event>
<event>
 8    1  0.1649749E-011  0.1685849E+04  0.7818608E-02  0.8769477E-01
          3   -1    0    0  501    0  0.00000000000E+00  0.00000000000E+00  0.12962824726E+04  0.12962824765E+04  0.10100000000E+00 0.  1.
         -3   -1    0    0    0  501 -0.00000000000E+00 -0.00000000000E+00 -0.54812239828E+03  0.54812240758E+03  0.10100000000E+00 0. -1.
     200001    2    1    2    0    0 -0.26928048054E+03 -0.38530872750E+03  0.37789503075E+03  0.92349718233E+03  0.69933368202E+03 0.  0.
    5000001    2    3    3    0    0 -0.36029938197E+02 -0.18332867466E+03  0.10758855438E+03  0.27676126372E+03  0.17353368740E+03 0.  0.
        -11    1    4    4    0    0  0.67620252037E+02 -0.58828431263E+02  0.47133976000E+02  0.10126645301E+03  0.51100000000E-03 0. -1.
     200002    1    4    4    0    0 -0.10365019023E+03 -0.12450024339E+03  0.60454578382E+02  0.17549481071E+03  0.30000000000E+02 0. -1.
     200000    1    3    3    0    0 -0.23325054234E+03 -0.20198005285E+03  0.27030647637E+03  0.64673591861E+03  0.50000000000E+03 0.  1.
    -200001    1    1    2    0    0  0.26928048054E+03  0.38530872750E+03  0.37026504353E+03  0.92090770175E+03  0.70000000000E+03 0.  1.
<mgrwt>
<rscale>  0 0.16858487E+04</rscale>
<asrwt>0</asrwt>
<pdfrwt beam="1">  1        3 0.18518321E+00 0.16858487E+04</pdfrwt>
<pdfrwt beam="2">  1       -3 0.78303201E-01 0.16858487E+04</pdfrwt>
<totfact> 0.70212845E-01</totfact>
</mgrwt>
</event>
<event>
 8    1  0.1649749E-011  0.1822200E+04  0.7818608E-02  0.8694582E-01
          3   -1    0    0  501    0  0.00000000000E+00  0.00000000000E+00  0.83164461446E+03  0.83164462059E+03  0.10100000000E+00 0.  1.
         -3   -1    0    0    0  501 -0.00000000000E+00 -0.00000000000E+00 -0.99814656241E+03  0.99814656752E+03  0.10100000000E+00 0. -1.
     200001    2    1    2    0    0 -0.44838497078E+03 -0.28127492029E+03  0.15859222768E+03  0.89392213432E+03  0.70269525738E+03 0.  0.
    5000001    2    3    3    0    0 -0.13453039841E+03 -0.10289694224E+03  0.55000041719E+02  0.26857843951E+03  0.20105512866E+03 0.  0.
        -11    1    4    4    0    0 -0.13520326609E+03  0.64859875430E+01 -0.13571440079E+02  0.13603740362E+03  0.51100000000E-03 0. -1.
     200002    1    4    4    0    0  0.67286768479E+00 -0.10938292978E+03  0.68571481798E+02  0.13254103589E+03  0.30000000000E+02 0. -1.
     200000    1    3    3    0    0 -0.31385457237E+03 -0.17837797805E+03  0.10359218596E+03  0.62534369481E+03  0.50000000000E+03 0.  1.
    -200001    1    1    2    0    0  0.44838497078E+03  0.28127492029E+03 -0.32509417563E+03  0.93586905378E+03  0.70000000000E+03 0. -1.
<mgrwt>
<rscale>  0 0.18222000E+04</rscale>
<asrwt>0</asrwt>
<pdfrwt beam="1">  1        3 0.11880637E+00 0.18222000E+04</pdfrwt>
<pdfrwt beam="2">  1       -3 0.14259237E+00 0.18222000E+04</pdfrwt>
<totfact> 0.52962159E-01</totfact>
</mgrwt>
</event>
<event>
 8    1  0.1649749E-011  0.1554142E+04  0.7818608E-02  0.8849226E-01
          3   -1    0    0  501    0  0.00000000000E+00  0.00000000000E+00  0.90284057280E+03  0.90284057845E+03  0.10100000000E+00 0. -1.
         -3   -1    0    0    0  501 -0.00000000000E+00 -0.00000000000E+00 -0.66882198519E+03  0.66882199281E+03  0.10100000000E+00 0.  1.
     200001    2    1    2    0    0  0.32251133516E+03 -0.31107401340E+02  0.20985269887E+03  0.79993384826E+03  0.70062456041E+03 0.  0.
    5000001    2    3    3    0    0  0.96765961985E+02  0.84498709246E+02  0.13306475074E+03  0.23405211566E+03  0.14342413219E+03 0.  0.
        -11    1    4    4    0    0  0.12084300023E+03  0.30203185854E+02  0.10007601697E+03  0.15978257826E+03  0.51100000000E-03 0. -1.
     200002    1    4    4    0    0 -0.24077038245E+02  0.54295523392E+02  0.32988733764E+02  0.74269537405E+02  0.30000000000E+02 0.  1.
     200000    1    3    3    0    0  0.22574537317E+03 -0.11560611059E+03  0.76787948128E+02  0.56588173260E+03  0.50000000000E+03 0.  1.
    -200001    1    1    2    0    0 -0.32251133516E+03  0.31107401340E+02  0.24165888743E+02  0.77172872300E+03  0.70000000000E+03 0. -1.
<mgrwt>
<rscale>  0 0.15541424E+04</rscale>
<asrwt>0</asrwt>
<pdfrwt beam="1">  1        3 0.12897723E+00 0.15541424E+04</pdfrwt>
<pdfrwt beam="2">  1       -3 0.95545998E-01 0.15541424E+04</pdfrwt>
<totfact> 0.11683554E+00</totfact>
</mgrwt>
</event>
<event>
 8    1  0.1649749E-011  0.1775888E+04  0.7818608E-02  0.8719228E-01
          3   -1    0    0  501    0  0.00000000000E+00  0.00000000000E+00  0.70805461338E+03  0.70805462058E+03  0.10100000000E+00 0.  1.
         -3   -1    0    0    0  501 -0.00000000000E+00 -0.00000000000E+00 -0.11135361195E+04  0.11135361241E+04  0.10100000000E+00 0. -1.
     200001    2    1    2    0    0  0.16549823699E+03  0.18379370547E+03  0.29690279466E+03  0.79957631296E+03  0.70000087011E+03 0.  0.
    5000001    2    3    3    0    0  0.80361689160E+02  0.90122418460E+02  0.22258963438E+03  0.27847652637E+03  0.11585758074E+03 0.  0.
        -11    1    4    4    0    0 -0.25031732888E+02  0.22860976004E+02  0.77639985246E+02  0.84718234073E+02  0.51100000000E-03 0. -1.
     200002    1    4    4    0    0  0.10539342205E+03  0.67261442457E+02  0.14494964913E+03  0.19375829230E+03  0.30000000000E+02 0. -1.
     200000    1    3    3    0    0  0.85136547834E+02  0.93671287007E+02  0.74313160282E+02  0.52109978658E+03  0.50000000000E+03 0.  1.
    -200001    1    1    2    0    0 -0.16549823699E+03 -0.18379370547E+03 -0.70238430076E+03  0.10220144317E+04  0.70000000000E+03 0. -1.
<mgrwt>
<rscale>  0 0.17758878E+04</rscale>
<asrwt>0</asrwt>
<pdfrwt beam="1">  1        3 0.10115066E+00 0.17758878E+04</pdfrwt>
<pdfrwt beam="2">  1       -3 0.15907659E+00 0.17758878E+04</pdfrwt>
<totfact> 0.58660875E-01</totfact>
</mgrwt>
</event>
<event>
 8    1  0.1649749E-011  0.1632713E+04  0.7818608E-02  0.8800699E-01
          3   -1    0    0  501    0  0.00000000000E+00  0.00000000000E+00  0.14141846534E+04  0.14141846570E+04  0.10100000000E+00 0.  1.
         -3   -1    0    0    0  501 -0.00000000000E+00 -0.00000000000E+00 -0.47125252789E+03  0.47125253872E+03  0.10100000000E+00 0. -1.
     200001    2    1    2    0    0 -0.22464502816E+03  0.29105492528E+03  0.70980573462E+03  0.10611033603E+04  0.69780928772E+03 0.  0.
    5000001    2    3    3    0    0 -0.19702759733E+02  0.12821703969E+03  0.14643468146E+03  0.26366718481E+03  0.17677516907E+03 0.  0.
        -11    1    4    4    0    0 -0.54522695703E+02  0.11355527329E+03  0.16869480995E+03  0.21053613310E+03  0.51100000000E-03 0. -1.
     200002    1    4    4    0    0  0.34819935970E+02  0.14661766404E+02 -0.22260128486E+02  0.53131051705E+02  0.30000000000E+02 0. -1.
     200000    1    3    3    0    0 -0.20494226843E+03  0.16283788559E+03  0.56337105316E+03  0.79743617545E+03  0.50000000000E+03 0. -1.
    -200001    1    1    2    0    0  0.22464502816E+03 -0.29105492528E+03  0.23312639091E+03  0.82433383550E+03  0.70000000000E+03 0. -1.
<mgrwt>
<rscale>  0 0.16327132E+04</rscale>
<asrwt>0</asrwt>
<pdfrwt beam="1">  1        3 0.20202638E+00 0.16327132E+04</pdfrwt>
<pdfrwt beam="2">  1       -3 0.67321791E-01 0.16327132E+04</pdfrwt>
<totfact> 0.76521145E-01</totfact>
</mgrwt>
</event>
<event>
 8    1  0.1649749E-011  0.1595741E+04  0.7818608E-02  0.8823169E-01
         -3   -1    0    0    0  501 -0.00000000000E+00  0.00000000000E+00  0.40286018734E+04  0.40286018746E+04  0.10100000000E+00 0.  1.
          3   -1    0    0  501    0  0.00000000000E+00 -0.00000000000E+00 -0.15801937836E+03  0.15801941064E+03  0.10100000000E+00 0. -1.
     200001    2    1    2    0    0 -0.19577669864E+03  0.15135656456E+03  0.11670109496E+04  0.13829564647E+04  0.69958323394E+03 0.  0.
    5000001    2    3    3    0    0 -0.39420764834E+02  0.92138790963E+02  0.40250493370E+03  0.45428894012E+03  0.18526917163E+03 0.  0.
        -11    1    4    4    0    0  0.31814248324E+02  0.42312788221E+02  0.13598413328E+02  0.54657435805E+02  0.51100000000E-03 0. -1.
     200002    1    4    4    0    0 -0.71235013158E+02  0.49826002742E+02  0.38890652037E+03  0.39963150431E+03  0.30000000000E+02 0. -1.
     200000    1    3    3    0    0 -0.15635593381E+03  0.59217773595E+02  0.76450601594E+03  0.92866752455E+03  0.50000000000E+03 0. -1.
    -200001    1    1    2    0    0  0.19577669864E+03 -0.15135656456E+03  0.27035715454E+04  0.28036648206E+04  0.70000000000E+03 0.  1.
<mgrwt>
<rscale>  0 0.15957409E+04</rscale>
<asrwt>0</asrwt>
<pdfrwt beam="1">  1        3 0.22574202E-01 0.15957409E+04</pdfrwt>
<pdfrwt beam="2">  1       -3 0.57551449E+00 0.15957409E+04</pdfrwt>
<totfact> 0.57771646E-02</totfact>
</mgrwt>
</event>
<event>
 8    1  0.1649749E-011  0.1544707E+04  0.7818608E-02  0.8855256E-01
          3   -1    0    0  501    0  0.00000000000E+00  0.00000000000E+00  0.14159826319E+04  0.14159826355E+04  0.10100000000E+00 0.  1.
         -3   -1    0    0    0  501 -0.00000000000E+00 -0.00000000000E+00 -0.42128329740E+03  0.42128330951E+03  0.10100000000E+00 0. -1.
     200001    2    1    2    0    0 -0.78505151645E+02 -0.21412922175E+03  0.77517917335E+03  0.10690189251E+04  0.69991737302E+03 0.  0.
    5000001    2    3    3    0    0 -0.11256931673E+03 -0.93589209170E+02  0.51781730273E+02  0.18076551387E+03  0.92542056777E+02 0.  0.
        -11    1    4    4    0    0  0.14427025321E+02 -0.42292614887E+01  0.44302201140E+01  0.15673307336E+02  0.51100000000E-03 0. -1.
     200002    1    4    4    0    0 -0.12699634205E+03 -0.89359947681E+02  0.47351510159E+02  0.16509220653E+03  0.30000000000E+02 0. -1.
     200000    1    3    3    0    0  0.34064165082E+02 -0.12054001258E+03  0.72339744308E+03  0.88825341127E+03  0.50000000000E+03 0.  1.
    -200001    1    1    2    0    0  0.78505151645E+02  0.21412922175E+03  0.21952016119E+03  0.76824701992E+03  0.70000000000E+03 0.  1.
<mgrwt>
<rscale>  0 0.15447069E+04</rscale>
<asrwt>0</asrwt>
<pdfrwt beam="1">  1        3 0.20228323E+00 0.15447069E+04</pdfrwt>
<pdfrwt beam="2">  1       -3 0.60183330E-01 0.15447069E+04</pdfrwt>
<totfact> 0.97529057E-01</totfact>
</mgrwt>
</event>
<event>
 8    1  0.1649749E-011  0.1723716E+04  0.7818608E-02  0.8747952E-01
         -3   -1    0    0    0  501 -0.00000000000E+00  0.00000000000E+00  0.13604191984E+04  0.13604192022E+04  0.10100000000E+00 0. -1.
          3   -1    0    0  501    0  0.00000000000E+00 -0.00000000000E+00 -0.54600780711E+03  0.54600781645E+03  0.10100000000E+00 0.  1.
     200001    2    1    2    0    0 -0.22638718337E+02 -0.38561426976E+03  0.76165293028E+03  0.11051815307E+04  0.70149850540E+03 0.  0.
    5000001    2    3    3    0    0 -0.49279021549E+02 -0.71257975528E+02 -0.26426955346E+01  0.13891169828E+03  0.10855116323E+03 0.  0.
        -11    1    4    4    0    0 -0.37936700828E+02 -0.87010710690E+01  0.40707725902E+02  0.56320696514E+02  0.51100000000E-03 0. -1.
     200002    1    4    4    0    0 -0.11342320721E+02 -0.62556904458E+02 -0.43350421437E+02  0.82591001771E+02  0.30000000000E+02 0. -1.
     200000    1    3    3    0    0  0.26640303212E+02 -0.31435629423E+03  0.76429562582E+03  0.96626983246E+03  0.50000000000E+03 0. -1.
    -200001    1    1    2    0    0  0.22638718337E+02  0.38561426976E+03  0.52758461014E+02  0.80124548786E+03  0.70000000000E+03 0.  1.
<mgrwt>
<rscale>  0 0.17237164E+04</rscale>
<asrwt>0</asrwt>
<pdfrwt beam="1">  1        3 0.78001116E-01 0.17237164E+04</pdfrwt>
<pdfrwt beam="2">  1       -3 0.19434560E+00 0.17237164E+04</pdfrwt>
<totfact> 0.61257898E-01</totfact>
</mgrwt>
</event>
<event>
 8    1  0.1649749E-011  0.1643387E+04  0.7818608E-02  0.8794328E-01
          3   -1    0    0  501    0  0.00000000000E+00  0.00000000000E+00  0.35316778490E+03  0.35316779935E+03  0.10100000000E+00 0.  1.
         -3   -1    0    0    0  501 -0.00000000000E+00 -0.00000000000E+00 -0.19117840958E+04  0.19117840985E+04  0.10100000000E+00 0. -1.
     200001    2    1    2    0    0  0.24585490617E+03 -0.23746326959E+02 -0.12653815172E+04  0.14668321279E+04  0.69956957073E+03 0.  0.
    5000001    2    3    3    0    0  0.13468185847E+03 -0.53446221664E+02 -0.50908841155E+03  0.55292797974E+03  0.15988320236E+03 0.  0.
        -11    1    4    4    0    0 -0.12561376001E+01 -0.42432118886E+02 -0.25365379708E+02  0.49451643884E+02  0.51100000000E-03 0. -1.
     200002    1    4    4    0    0  0.13593799607E+03 -0.11014102778E+02 -0.48372303184E+03  0.50347633586E+03  0.30000000000E+02 0. -1.
     200000    1    3    3    0    0  0.11117304769E+03  0.29699894705E+02 -0.75629310569E+03  0.91390414814E+03  0.50000000000E+03 0. -1.
    -200001    1    1    2    0    0 -0.24585490617E+03  0.23746326959E+02 -0.29323479365E+03  0.79811976992E+03  0.70000000000E+03 0.  1.
<mgrwt>
<rscale>  0 0.16433874E+04</rscale>
<asrwt>0</asrwt>
<pdfrwt beam="1">  1        3 0.50452543E-01 0.16433874E+04</pdfrwt>
<pdfrwt beam="2">  1       -3 0.27311201E+00 0.16433874E+04</pdfrwt>
<totfact> 0.52899664E-01</totfact>
</mgrwt>
</event>
<event>
 8    1  0.1649749E-011  0.2144962E+04  0.7818608E-02  0.8541692E-01
          3   -1    0    0  501    0  0.00000000000E+00  0.00000000000E+00  0.26648682991E+03  0.26648684905E+03  0.10100000000E+00 0.  1.
         -3   -1    0    0    0  501 -0.00000000000E+00 -0.00000000000E+00 -0.43162190396E+04  0.43162190407E+04  0.10100000000E+00 0. -1.
     200001    2    1    2    0    0  0.75508080196E+03 -0.26011859078E+03 -0.16972127510E+04  0.20015905297E+04  0.69858773797E+03 0.  0.
    5000001    2    3    3    0    0  0.99330757094E+02 -0.41270091402E+02 -0.43064073271E+03  0.47446661052E+03  0.16762250467E+03 0.  0.
        -11    1    4    4    0    0  0.81837425953E+02  0.53401151373E+02 -0.23046315979E+03  0.25032442006E+03  0.51100000000E-03 0. -1.
     200002    1    4    4    0    0  0.17493331141E+02 -0.94671242776E+02 -0.20017757292E+03  0.22414219046E+03  0.30000000000E+02 0. -1.
     200000    1    3    3    0    0  0.65575004487E+03 -0.21884849938E+03 -0.12665720183E+04  0.15271239192E+04  0.50000000000E+03 0. -1.
    -200001    1    1    2    0    0 -0.75508080196E+03  0.26011859078E+03 -0.23525194586E+04  0.25811153601E+04  0.70000000000E+03 0.  1.
<mgrwt>
<rscale>  0 0.21449621E+04</rscale>
<asrwt>0</asrwt>
<pdfrwt beam="1">  1        3 0.38069551E-01 0.21449621E+04</pdfrwt>
<pdfrwt beam="2">  1       -3 0.61660268E+00 0.21449621E+04</pdfrwt>
<totfact> 0.12269312E-02</totfact>
</mgrwt>
</event>
<event>
 8    1  0.1649749E-011  0.1859053E+04  0.7818608E-02  0.8675511E-01
          3   -1    0    0  501    0  0.00000000000E+00  0.00000000000E+00  0.15587466548E+04  0.15587466581E+04  0.10100000000E+00 0. -1.
         -3   -1    0    0    0  501 -0.00000000000E+00 -0.00000000000E+00 -0.55430419517E+03  0.55430420437E+03  0.10100000000E+00 0.  1.
     200001    2    1    2    0    0 -0.26133503182E+03 -0.54429591624E+03  0.38874619866E+03  0.10023592180E+04  0.69931849083E+03 0.  0.
    5000001    2    3    3    0    0 -0.60533639663E+02 -0.19848038275E+03  0.16934316245E+03  0.32556731895E+03  0.18508967728E+03 0.  0.
        -11    1    4    4    0    0  0.11882551053E+02  0.31610422519E+02  0.31214689567E+02  0.45986635846E+02  0.51100000000E-03 0. -1.
     200002    1    4    4    0    0 -0.72416190716E+02 -0.23009080526E+03  0.13812847289E+03  0.27958068311E+03  0.30000000000E+02 0. -1.
     200000    1    3    3    0    0 -0.20080139215E+03 -0.34581553349E+03  0.21940303621E+03  0.67679189903E+03  0.50000000000E+03 0. -1.
    -200001    1    1    2    0    0  0.26133503182E+03  0.54429591624E+03  0.61569626096E+03  0.11106916444E+04  0.70000000000E+03 0. -1.
<mgrwt>
<rscale>  0 0.18590533E+04</rscale>
<asrwt>0</asrwt>
<pdfrwt beam="1">  1        3 0.22267809E+00 0.18590533E+04</pdfrwt>
<pdfrwt beam="2">  1       -3 0.79186316E-01 0.18590533E+04</pdfrwt>
<totfact> 0.39341590E-01</totfact>
</mgrwt>
</event>
<event>
 8    1  0.1649749E-011  0.1750967E+04  0.7818608E-02  0.8732818E-01
          3   -1    0    0  501    0  0.00000000000E+00  0.00000000000E+00  0.36292149248E+04  0.36292149262E+04  0.10100000000E+00 0.  1.
         -3   -1    0    0    0  501 -0.00000000000E+00 -0.00000000000E+00 -0.21119474412E+03  0.21119476827E+03  0.10100000000E+00 0. -1.
     200001    2    1    2    0    0 -0.22107075393E+03  0.41076508487E+03  0.11785522463E+04  0.14481687237E+04  0.70043345283E+03 0.  0.
    5000001    2    3    3    0    0 -0.22546093068E+02  0.12081166460E+03  0.12244305390E+03  0.22798363397E+03  0.14792042218E+03 0.  0.
        -11    1    4    4    0    0  0.76301908727E+01 -0.26644448599E+02  0.52409966148E+02  0.59287022237E+02  0.51100000000E-03 0. -1.
     200002    1    4    4    0    0 -0.30176283941E+02  0.14745611320E+03  0.70033087748E+02  0.16869661174E+03  0.30000000000E+02 0. -1.
     200000    1    3    3    0    0 -0.19852466086E+03  0.28995342027E+03  0.10561091924E+04  0.12201850897E+04  0.50000000000E+03 0.  1.
    -200001    1    1    2    0    0  0.22107075393E+03 -0.41076508487E+03  0.22394679343E+04  0.23922409707E+04  0.70000000000E+03 0.  1.
<mgrwt>
<rscale>  0 0.17509668E+04</rscale>
<asrwt>0</asrwt>
<pdfrwt beam="1">  1        3 0.51845930E+00 0.17509668E+04</pdfrwt>
<pdfrwt beam="2">  1       -3 0.30170678E-01 0.17509668E+04</pdfrwt>
<totfact> 0.75187004E-02</totfact>
</mgrwt>
</event>
<event>
 8    1  0.1649749E-011  0.1573732E+04  0.7818608E-02  0.8836850E-01
         -3   -1    0    0    0  501 -0.00000000000E+00  0.00000000000E+00  0.14093819921E+04  0.14093819957E+04  0.10100000000E+00 0.  1.
          3   -1    0    0  501    0  0.00000000000E+00 -0.00000000000E+00 -0.43931152437E+03  0.43931153598E+03  0.10100000000E+00 0. -1.
     200001    2    1    2    0    0 -0.49407138561E+02  0.24228945963E+03  0.79122751274E+03  0.10850640076E+04  0.70012689994E+03 0.  0.
    5000001    2    3    3    0    0  0.51820740146E+01 -0.47758752935E+01  0.25225117884E+03  0.30755725496E+03  0.17581565623E+03 0.  0.
        -11    1    4    4    0    0  0.71762987252E+02  0.38979334181E+00  0.21241639938E+03  0.22421151845E+03  0.51100000000E-03 0. -1.
     200002    1    4    4    0    0 -0.66580913238E+02 -0.51656686353E+01  0.39834779462E+02  0.83345736512E+02  0.30000000000E+02 0. -1.
     200000    1    3    3    0    0 -0.54589212576E+02  0.24706533492E+03  0.53897633390E+03  0.77750675261E+03  0.50000000000E+03 0.  1.
    -200001    1    1    2    0    0  0.49407138561E+02 -0.24228945963E+03  0.17884295500E+03  0.76362952414E+03  0.70000000000E+03 0. -1.
<mgrwt>
<rscale>  0 0.15737316E+04</rscale>
<asrwt>0</asrwt>
<pdfrwt beam="1">  1        3 0.62758791E-01 0.15737316E+04</pdfrwt>
<pdfrwt beam="2">  1       -3 0.20134028E+00 0.15737316E+04</pdfrwt>
<totfact> 0.89700862E-01</totfact>
</mgrwt>
</event>
<event>
 8    1  0.1649749E-011  0.1720406E+04  0.7818608E-02  0.8749811E-01
         -3   -1    0    0    0  501 -0.00000000000E+00  0.00000000000E+00  0.23952796201E+04  0.23952796222E+04  0.10100000000E+00 0. -1.
          3   -1    0    0  501    0  0.00000000000E+00 -0.00000000000E+00 -0.30891971511E+03  0.30891973162E+03  0.10100000000E+00 0.  1.
     200001    2    1    2    0    0 -0.32826281449E+01  0.25591998120E+03  0.37343297748E+03  0.83614569524E+03  0.70298052788E+03 0.  0.
    5000001    2    3    3    0    0  0.42511033239E+02  0.71901695025E+02  0.14329446821E+03  0.25397430938E+03  0.19233461340E+03 0.  0.
        -11    1    4    4    0    0 -0.37617814806E+02 -0.46738827056E+02  0.63460974408E+02  0.87332200353E+02  0.51100000000E-03 0. -1.
     200002    1    4    4    0    0  0.80128848045E+02  0.11864052208E+03  0.79833493800E+02  0.16664210903E+03  0.30000000000E+02 0. -1.
     200000    1    3    3    0    0 -0.45793661384E+02  0.18401828618E+03  0.23013850927E+03  0.58217138587E+03  0.50000000000E+03 0.  1.
    -200001    1    1    2    0    0  0.32826281449E+01 -0.25591998120E+03  0.17129269275E+04  0.18680536586E+04  0.70000000000E+03 0. -1.
<mgrwt>
<rscale>  0 0.17204059E+04</rscale>
<asrwt>0</asrwt>
<pdfrwt beam="1">  1        3 0.44131387E-01 0.17204059E+04</pdfrwt>
<pdfrwt beam="2">  1       -3 0.34218282E+00 0.17204059E+04</pdfrwt>
<totfact> 0.28377726E-01</totfact>
</mgrwt>
</event>
<event>
 8    1  0.1649749E-011  0.1763660E+04  0.7818608E-02  0.8725867E-01
         -3   -1    0    0    0  501 -0.00000000000E+00  0.00000000000E+00  0.62271365330E+03  0.62271366149E+03  0.10100000000E+00 0. -1.
          3   -1    0    0  501    0  0.00000000000E+00 -0.00000000000E+00 -0.12487663219E+04  0.12487663259E+04  0.10100000000E+00 0.  1.
     200001    2    1    2    0    0 -0.29709586483E+03  0.10051046247E+03  0.14928386469E+03  0.78083107704E+03  0.69931623223E+03 0.  0.
    5000001    2    3    3    0    0 -0.93819089735E+02 -0.18351025608E+02  0.19445764193E+01  0.20885348438E+03  0.18568041044E+03 0.  0.
        -11    1    4    4    0    0 -0.11070199234E+03 -0.77951136513E+02 -0.19437488600E+02  0.13678130996E+03  0.51100000000E-03 0. -1.
     200002    1    4    4    0    0  0.16882902607E+02  0.59600110906E+02  0.21382065019E+02  0.72072174415E+02  0.30000000000E+02 0. -1.
     200000    1    3    3    0    0 -0.20327677509E+03  0.11886148807E+03  0.14733928827E+03  0.57197759266E+03  0.50000000000E+03 0. -1.
    -200001    1    1    2    0    0  0.29709586483E+03 -0.10051046247E+03 -0.77533653324E+03  0.10906489104E+04  0.70000000000E+03 0.  1.
<mgrwt>
<rscale>  0 0.17636597E+04</rscale>
<asrwt>0</asrwt>
<pdfrwt beam="1">  1        3 0.17839519E+00 0.17636597E+04</pdfrwt>
<pdfrwt beam="2">  1       -3 0.88959094E-01 0.17636597E+04</pdfrwt>
<totfact> 0.58110269E-01</totfact>
</mgrwt>
</event>
<event>
 8    1  0.1649749E-011  0.1411733E+04  0.7818608E-02  0.8945369E-01
          3   -1    0    0  501    0  0.00000000000E+00  0.00000000000E+00  0.16193287029E+04  0.16193287061E+04  0.10100000000E+00 0.  1.
         -3   -1    0    0    0  501 -0.00000000000E+00 -0.00000000000E+00 -0.30768789087E+03  0.30768790744E+03  0.10100000000E+00 0. -1.
     200001    2    1    2    0    0 -0.47214898823E+01  0.61577672690E+02  0.76777674980E+03  0.10384209684E+04  0.69643583187E+03 0.  0.
    5000001    2    3    3    0    0 -0.40583100481E+01  0.53504079945E+02  0.19110092116E+03  0.27512506641E+03  0.19051268632E+03 0.  0.
        -11    1    4    4    0    0  0.87378544393E+02  0.43620747766E+02  0.12183270770E+03  0.15614412676E+03  0.51100000000E-03 0. -1.
     200002    1    4    4    0    0 -0.91436854441E+02  0.98833321794E+01  0.69268213455E+02  0.11898093965E+03  0.30000000000E+02 0. -1.
     200000    1    3    3    0    0 -0.66317983420E+00  0.80735927450E+01  0.57667582865E+03  0.76329590203E+03  0.50000000000E+03 0.  1.
    -200001    1    1    2    0    0  0.47214898823E+01 -0.61577672690E+02  0.54386406226E+03  0.88859564508E+03  0.70000000000E+03 0. -1.
<mgrwt>
<rscale>  0 0.14117335E+04</rscale>
<asrwt>0</asrwt>
<pdfrwt beam="1">  1        3 0.23133267E+00 0.14117335E+04</pdfrwt>
<pdfrwt beam="2">  1       -3 0.43955415E-01 0.14117335E+04</pdfrwt>
<totfact> 0.12541283E+00</totfact>
</mgrwt>
</event>
<event>
 8    1  0.1649749E-011  0.2997158E+04  0.7818608E-02  0.8244543E-01
          3   -1    0    0  501    0  0.00000000000E+00  0.00000000000E+00  0.20947046551E+04  0.20947046575E+04  0.10100000000E+00 0.  1.
         -3   -1    0    0    0  501 -0.00000000000E+00 -0.00000000000E+00 -0.10721027607E+04  0.10721027654E+04  0.10100000000E+00 0. -1.
     200001    2    1    2    0    0 -0.37307936346E+03 -0.96574042441E+03 -0.36218367795E+03  0.13014726379E+04  0.70057921172E+03 0.  0.
    5000001    2    3    3    0    0 -0.72823597858E+02 -0.14661533450E+03 -0.61642460909E+02  0.25197539598E+03  0.18136282550E+03 0.  0.
        -11    1    4    4    0    0  0.48605762628E+01  0.21815308870E+02 -0.60051479221E+02  0.64075838345E+02  0.51100000000E-03 0. -1.
     200002    1    4    4    0    0 -0.77684174121E+02 -0.16843064337E+03 -0.15909816880E+01  0.18789955763E+03  0.30000000000E+02 0. -1.
     200000    1    3    3    0    0 -0.30025576560E+03 -0.81912508991E+03 -0.30054121704E+03  0.10494972419E+04  0.50000000000E+03 0. -1.
    -200001    1    1    2    0    0  0.37307936346E+03  0.96574042441E+03  0.13847855724E+04  0.18653347850E+04  0.70000000000E+03 0.  1.
<mgrwt>
<rscale>  0 0.29971578E+04</rscale>
<asrwt>0</asrwt>
<pdfrwt beam="1">  1        3 0.29924353E+00 0.29971578E+04</pdfrwt>
<pdfrwt beam="2">  1       -3 0.15315754E+00 0.29971578E+04</pdfrwt>
<totfact> 0.26797719E-02</totfact>
</mgrwt>
</event>
<event>
 8    1  0.1649749E-011  0.2121656E+04  0.7818608E-02  0.8551763E-01
          3   -1    0    0  501    0  0.00000000000E+00  0.00000000000E+00  0.20379271649E+04  0.20379271674E+04  0.10100000000E+00 0. -1.
         -3   -1    0    0    0  501 -0.00000000000E+00 -0.00000000000E+00 -0.55220622301E+03  0.55220623224E+03  0.10100000000E+00 0.  1.
     200001    2    1    2    0    0  0.50137232242E+03  0.56997264746E+03  0.44416835340E+03  0.11234791053E+04  0.69905418199E+03 0.  0.
    5000001    2    3    3    0    0  0.79042224003E+02  0.12851279201E+03 -0.36332887517E+02  0.19928704814E+03  0.12502814865E+03 0.  0.
        -11    1    4    4    0    0  0.31770317999E+02 -0.74691015609E+01  0.23818533748E+02  0.40403751485E+02  0.51100000000E-03 0. -1.
     200002    1    4    4    0    0  0.47271906004E+02  0.13598189357E+03 -0.60151421265E+02  0.15888329665E+03  0.30000000000E+02 0. -1.
     200000    1    3    3    0    0  0.42233009842E+03  0.44145985545E+03  0.48050124091E+03  0.92419205717E+03  0.50000000000E+03 0.  1.
    -200001    1    1    2    0    0 -0.50137232242E+03 -0.56997264746E+03  0.10415525885E+04  0.14666542944E+04  0.70000000000E+03 0. -1.
<mgrwt>
<rscale>  0 0.21216560E+04</rscale>
<asrwt>0</asrwt>
<pdfrwt beam="1">  1        3 0.29113245E+00 0.21216560E+04</pdfrwt>
<pdfrwt beam="2">  1       -3 0.78886605E-01 0.21216560E+04</pdfrwt>
<totfact> 0.15735974E-01</totfact>
</mgrwt>
</event>
<event>
 8    1  0.1649749E-011  0.1628915E+04  0.7818608E-02  0.8802979E-01
         -3   -1    0    0    0  501 -0.00000000000E+00  0.00000000000E+00  0.18841583010E+03  0.18841585717E+03  0.10100000000E+00 0. -1.
          3   -1    0    0  501    0  0.00000000000E+00 -0.00000000000E+00 -0.35206229469E+04  0.35206229483E+04  0.10100000000E+00 0.  1.
     200001    2    1    2    0    0 -0.31403630514E+02 -0.26014327724E+03 -0.93576786362E+03  0.11987436422E+04  0.70190035795E+03 0.  0.
    5000001    2    3    3    0    0 -0.86608891877E+02  0.68538273148E+01 -0.32709299429E+03  0.36518490327E+03  0.13719370090E+03 0.  0.
        -11    1    4    4    0    0  0.10316594290E+02 -0.58315405159E+01  0.83542528771E+01  0.14499397365E+02  0.51100000000E-03 0. -1.
     200002    1    4    4    0    0 -0.96925486167E+02  0.12685367831E+02 -0.33544724716E+03  0.35068550591E+03  0.30000000000E+02 0. -1.
     200000    1    3    3    0    0  0.55205261362E+02 -0.26699710456E+03 -0.60867486933E+03  0.83355873895E+03  0.50000000000E+03 0. -1.
    -200001    1    1    2    0    0  0.31403630514E+02  0.26014327724E+03 -0.23964392532E+04  0.25102951633E+04  0.70000000000E+03 0.  1.
<mgrwt>
<rscale>  0 0.16289152E+04</rscale>
<asrwt>0</asrwt>
<pdfrwt beam="1">  1        3 0.50294610E+00 0.16289152E+04</pdfrwt>
<pdfrwt beam="2">  1       -3 0.26916551E-01 0.16289152E+04</pdfrwt>
<totfact> 0.11226208E-01</totfact>
</mgrwt>
</event>
<event>
 8    1  0.1649749E-011  0.2067694E+04  0.7818608E-02  0.8575610E-01
         -3   -1    0    0    0  501 -0.00000000000E+00  0.00000000000E+00  0.30067317308E+04  0.30067317325E+04  0.10100000000E+00 0. -1.
          3   -1    0    0  501    0  0.00000000000E+00 -0.00000000000E+00 -0.35548207914E+03  0.35548209349E+03  0.10100000000E+00 0.  1.
     200001    2    1    2    0    0 -0.62167750627E+03 -0.21286019859E+03  0.70102467538E+03  0.11884682466E+04  0.69944891998E+03 0.  0.
    5000001    2    3    3    0    0 -0.20763474656E+03 -0.48240370824E+02  0.25790533256E+03  0.38542039834E+03  0.19129663231E+03 0.  0.
        -11    1    4    4    0    0 -0.88174330458E+02 -0.11059717334E+03  0.88350867600E+02  0.16677027045E+03  0.51100000000E-03 0. -1.
     200002    1    4    4    0    0 -0.11946041610E+03  0.62356802512E+02  0.16955446496E+03  0.21865012788E+03  0.30000000000E+02 0. -1.
     200000    1    3    3    0    0 -0.41404275971E+03 -0.16461982777E+03  0.44311934282E+03  0.80304784823E+03  0.50000000000E+03 0.  1.
    -200001    1    1    2    0    0  0.62167750627E+03  0.21286019859E+03  0.19502249763E+04  0.21737455794E+04  0.70000000000E+03 0. -1.
<mgrwt>
<rscale>  0 0.20676937E+04</rscale>
<asrwt>0</asrwt>
<pdfrwt beam="1">  1        3 0.50783156E-01 0.20676937E+04</pdfrwt>
<pdfrwt beam="2">  1       -3 0.42953310E+00 0.20676937E+04</pdfrwt>
<totfact> 0.68184776E-02</totfact>
</mgrwt>
</event>
<event>
 8    1  0.1649749E-011  0.1431369E+04  0.7818608E-02  0.8931420E-01
          3   -1    0    0  501    0  0.00000000000E+00  0.00000000000E+00  0.32151381965E+03  0.32151383551E+03  0.10100000000E+00 0.  1.
         -3   -1    0    0    0  501 -0.00000000000E+00 -0.00000000000E+00 -0.15931022741E+04  0.15931022773E+04  0.10100000000E+00 0. -1.
     200001    2    1    2    0    0 -0.52011544287E+02 -0.13855067624E+03 -0.64613791679E+03  0.96430570790E+03  0.70034976986E+03 0.  0.
    5000001    2    3    3    0    0  0.15234401079E+01 -0.59061111992E+02 -0.35028861088E+03  0.37548366586E+03  0.12163608265E+03 0.  0.
        -11    1    4    4    0    0 -0.32893974268E+02 -0.70675859340E+02 -0.14258362245E+03  0.16250286160E+03  0.51100000000E-03 0. -1.
     200002    1    4    4    0    0  0.34417414376E+02  0.11614747348E+02 -0.20770498842E+03  0.21298080426E+03  0.30000000000E+02 0. -1.
     200000    1    3    3    0    0 -0.53534984395E+02 -0.79489564253E+02 -0.29584930592E+03  0.58882204204E+03  0.50000000000E+03 0.  1.
    -200001    1    1    2    0    0  0.52011544287E+02  0.13855067624E+03 -0.62545053766E+03  0.95031040491E+03  0.70000000000E+03 0.  1.
<mgrwt>
<rscale>  0 0.14313692E+04</rscale>
<asrwt>0</asrwt>
<pdfrwt beam="1">  1        3 0.45930548E-01 0.14313692E+04</pdfrwt>
<pdfrwt beam="2">  1       -3 0.22758604E+00 0.14313692E+04</pdfrwt>
<totfact> 0.11959387E+00</totfact>
</mgrwt>
</event>
<event>
 8    1  0.1649749E-011  0.1643140E+04  0.7818608E-02  0.8794475E-01
          3   -1    0    0  501    0  0.00000000000E+00  0.00000000000E+00  0.72596624797E+03  0.72596625500E+03  0.10100000000E+00 0.  1.
         -3   -1    0    0    0  501 -0.00000000000E+00 -0.00000000000E+00 -0.92976395708E+03  0.92976396257E+03  0.10100000000E+00 0. -1.
     200001    2    1    2    0    0  0.37247063733E+03 -0.18688132737E+03 -0.21106764982E+03  0.84104508929E+03  0.69939136628E+03 0.  0.
    5000001    2    3    3    0    0  0.71850354799E+02 -0.11097355822E+03 -0.47630835058E+02  0.23043380860E+03  0.18262924079E+03 0.  0.
        -11    1    4    4    0    0 -0.38981996919E+02 -0.98742465806E+02 -0.17242835679E+01  0.10617270738E+03  0.51100000000E-03 0. -1.
     200002    1    4    4    0    0  0.11083235172E+03 -0.12231092410E+02 -0.45906551490E+02  0.12426110123E+03  0.30000000000E+02 0. -1.
     200000    1    3    3    0    0  0.30062028253E+03 -0.75907769158E+02 -0.16343681477E+03  0.61061128069E+03  0.50000000000E+03 0. -1.
    -200001    1    1    2    0    0 -0.37247063733E+03  0.18688132737E+03  0.72699407124E+01  0.81468512827E+03  0.70000000000E+03 0. -1.
<mgrwt>
<rscale>  0 0.16431400E+04</rscale>
<asrwt>0</asrwt>
<pdfrwt beam="1">  1        3 0.10370947E+00 0.16431400E+04</pdfrwt>
<pdfrwt beam="2">  1       -3 0.13282342E+00 0.16431400E+04</pdfrwt>
<totfact> 0.88939429E-01</totfact>
</mgrwt>
</event>
<event>
 8    1  0.1649749E-011  0.1855520E+04  0.7818608E-02  0.8677319E-01
          3   -1    0    0  501    0  0.00000000000E+00  0.00000000000E+00  0.19933810827E+04  0.19933810853E+04  0.10100000000E+00 0.  1.
         -3   -1    0    0    0  501 -0.00000000000E+00 -0.00000000000E+00 -0.43179823419E+03  0.43179824600E+03  0.10100000000E+00 0. -1.
     200001    2    1    2    0    0  0.17044018588E+03 -0.38420857199E+03  0.13566752147E+04  0.15833638989E+04  0.69986249683E+03 0.  0.
    5000001    2    3    3    0    0  0.64543553453E+02 -0.91089011326E+00  0.36666937435E+03  0.40512675233E+03  0.15973276230E+03 0.  0.
        -11    1    4    4    0    0 -0.47966439997E+02 -0.23903262100E+02  0.11349178336E+03  0.12550908412E+03  0.51100000000E-03 0. -1.
     200002    1    4    4    0    0  0.11250999345E+03  0.22992371986E+02  0.25317759099E+03  0.27961766821E+03  0.30000000000E+02 0. -1.
     200000    1    3    3    0    0  0.10589663242E+03 -0.38329768188E+03  0.99000584035E+03  0.11782371466E+04  0.50000000000E+03 0.  1.
    -200001    1    1    2    0    0 -0.17044018588E+03  0.38420857199E+03  0.20490763383E+03  0.84181543236E+03  0.70000000000E+03 0. -1.
<mgrwt>
<rscale>  0 0.18555198E+04</rscale>
<asrwt>0</asrwt>
<pdfrwt beam="1">  1        3 0.28476872E+00 0.18555198E+04</pdfrwt>
<pdfrwt beam="2">  1       -3 0.61685464E-01 0.18555198E+04</pdfrwt>
<totfact> 0.29804668E-01</totfact>
</mgrwt>
</event>
<event>
 8    1  0.1649749E-011  0.2779863E+04  0.7818608E-02  0.8309547E-01
         -3   -1    0    0    0  501 -0.00000000000E+00  0.00000000000E+00  0.25055212536E+04  0.25055212556E+04  0.10100000000E+00 0. -1.
          3   -1    0    0  501    0  0.00000000000E+00 -0.00000000000E+00 -0.77106092727E+03  0.77106093388E+03  0.10100000000E+00 0.  1.
     200001    2    1    2    0    0 -0.11994061031E+04 -0.26755780273E+02  0.92577299946E+03  0.16693279892E+04  0.70022097728E+03 0.  0.
    5000001    2    3    3    0    0 -0.43165567050E+03 -0.24476306650E+02  0.27975379638E+03  0.54826298950E+03  0.18816060058E+03 0.  0.
        -11    1    4    4    0    0 -0.29478298821E+03  0.59715027313E+02  0.13407652223E+03  0.32930139453E+03  0.51100000000E-03 0. -1.
     200002    1    4    4    0    0 -0.13687268229E+03 -0.84191333963E+02  0.14567727414E+03  0.21896159497E+03  0.30000000000E+02 0. -1.
     200000    1    3    3    0    0 -0.76775043258E+03 -0.22794736231E+01  0.64601920308E+03  0.11210649997E+04  0.50000000000E+03 0.  1.
    -200001    1    1    2    0    0  0.11994061031E+04  0.26755780273E+02  0.80868732685E+03  0.16072542003E+04  0.70000000000E+03 0.  1.
<mgrwt>
<rscale>  0 0.27798630E+04</rscale>
<asrwt>0</asrwt>
<pdfrwt beam="1">  1        3 0.11015156E+00 0.27798630E+04</pdfrwt>
<pdfrwt beam="2">  1       -3 0.35793161E+00 0.27798630E+04</pdfrwt>
<totfact> 0.28788046E-02</totfact>
</mgrwt>
</event>
<event>
 8    1  0.1649749E-011  0.1850971E+04  0.7818608E-02  0.8679654E-01
         -3   -1    0    0    0  501 -0.00000000000E+00  0.00000000000E+00  0.56445951545E+03  0.56445952448E+03  0.10100000000E+00 0. -1.
          3   -1    0    0  501    0  0.00000000000E+00 -0.00000000000E+00 -0.15174220939E+04  0.15174220973E+04  0.10100000000E+00 0.  1.
     200001    2    1    2    0    0 -0.13172130528E+01  0.47895018384E+03 -0.60722105056E+02  0.85083000787E+03  0.70059225988E+03 0.  0.
    5000001    2    3    3    0    0 -0.13418287680E+03  0.16837693205E+03 -0.76259089615E+02  0.24721553885E+03  0.94573982817E+02 0.  0.
        -11    1    4    4    0    0 -0.12671205091E+03  0.15710628602E+03 -0.60361135135E+02  0.21066987347E+03  0.51100000000E-03 0. -1.
     200002    1    4    4    0    0 -0.74708258931E+01  0.11270646032E+02 -0.15897954480E+02  0.36545665381E+02  0.30000000000E+02 0.  1.
     200000    1    3    3    0    0  0.13286566375E+03  0.31057325179E+03  0.15536984560E+02  0.60361446903E+03  0.50000000000E+03 0.  1.
    -200001    1    1    2    0    0  0.13172130528E+01 -0.47895018384E+03 -0.89224047340E+03  0.12310516139E+04  0.70000000000E+03 0.  1.
<mgrwt>
<rscale>  0 0.18509709E+04</rscale>
<asrwt>0</asrwt>
<pdfrwt beam="1">  1        3 0.21677458E+00 0.18509709E+04</pdfrwt>
<pdfrwt beam="2">  1       -3 0.80637075E-01 0.18509709E+04</pdfrwt>
<totfact> 0.41036320E-01</totfact>
</mgrwt>
</event>
<event>
 8    1  0.1649749E-011  0.2532310E+04  0.7818608E-02  0.8391565E-01
         -3   -1    0    0    0  501 -0.00000000000E+00  0.00000000000E+00  0.53044597703E+03  0.53044598665E+03  0.10100000000E+00 0. -1.
          3   -1    0    0  501    0  0.00000000000E+00 -0.00000000000E+00 -0.30222648807E+04  0.30222648824E+04  0.10100000000E+00 0.  1.
     200001    2    1    2    0    0 -0.86734866819E+03  0.56936310230E+02 -0.40716621693E+03  0.11881152842E+04  0.70021292807E+03 0.  0.
    5000001    2    3    3    0    0 -0.18601898975E+03  0.16337146579E+02  0.41611611841E+01  0.24734504931E+03  0.16214897857E+03 0.  0.
        -11    1    4    4    0    0 -0.90162875737E+02 -0.27443192585E+02 -0.67939960506E+02  0.11618223278E+03  0.51100000000E-03 0. -1.
     200002    1    4    4    0    0 -0.95856114014E+02  0.43780339164E+02  0.72101121691E+02  0.13116281653E+03  0.30000000000E+02 0. -1.
     200000    1    3    3    0    0 -0.68132967844E+03  0.40599163651E+02 -0.41132737812E+03  0.94077023486E+03  0.50000000000E+03 0. -1.
    -200001    1    1    2    0    0  0.86734866819E+03 -0.56936310230E+02 -0.20846526867E+04  0.23645955849E+04  0.70000000000E+03 0.  1.
<mgrwt>
<rscale>  0 0.25323098E+04</rscale>
<asrwt>0</asrwt>
<pdfrwt beam="1">  1        3 0.43175212E+00 0.25323098E+04</pdfrwt>
<pdfrwt beam="2">  1       -3 0.75777999E-01 0.25323098E+04</pdfrwt>
<totfact> 0.29059805E-02</totfact>
</mgrwt>
</event>
<event>
 8    1  0.1649749E-011  0.1728421E+04  0.7818608E-02  0.8745319E-01
         -3   -1    0    0    0  501 -0.00000000000E+00  0.00000000000E+00  0.16264379959E+03  0.16264383095E+03  0.10100000000E+00 0.  1.
          3   -1    0    0  501    0  0.00000000000E+00 -0.00000000000E+00 -0.45919948758E+04  0.45919948769E+04  0.10100000000E+00 0. -1.
     200001    2    1    2    0    0  0.34470050524E+03 -0.14969909733E+03 -0.12773008753E+04  0.15040005048E+04  0.69949391306E+03 0.  0.
    5000001    2    3    3    0    0  0.17452003591E+03 -0.87783379769E+02 -0.32001273682E+03  0.40892264079E+03  0.16323728043E+03 0.  0.
        -11    1    4    4    0    0  0.19272242152E+03 -0.95981824577E+02 -0.24815174148E+03  0.32853269122E+03  0.51100000000E-03 0. -1.
     200002    1    4    4    0    0 -0.18202385607E+02  0.81984448079E+01 -0.71860995344E+02  0.80389949563E+02  0.30000000000E+02 0. -1.
     200000    1    3    3    0    0  0.17018046933E+03 -0.61915717564E+02 -0.95728813848E+03  0.10950778640E+04  0.50000000000E+03 0.  1.
    -200001    1    1    2    0    0 -0.34470050524E+03  0.14969909733E+03 -0.31520502009E+04  0.32506382031E+04  0.70000000000E+03 0.  1.
<mgrwt>
<rscale>  0 0.17284207E+04</rscale>
<asrwt>0</asrwt>
<pdfrwt beam="1">  1        3 0.65599919E+00 0.17284207E+04</pdfrwt>
<pdfrwt beam="2">  1       -3 0.23234834E-01 0.17284207E+04</pdfrwt>
<totfact> 0.26087991E-02</totfact>
</mgrwt>
</event>
<event>
 8    1  0.1649749E-011  0.1432964E+04  0.7818608E-02  0.8930297E-01
         -3   -1    0    0    0  501 -0.00000000000E+00  0.00000000000E+00  0.97008094375E+03  0.97008094901E+03  0.10100000000E+00 0. -1.
          3   -1    0    0  501    0  0.00000000000E+00 -0.00000000000E+00 -0.52917892504E+03  0.52917893468E+03  0.10100000000E+00 0.  1.
     200001    2    1    2    0    0 -0.13866173290E+03  0.59434685315E+02  0.19586919182E+03  0.74242394094E+03  0.70004929097E+03 0.  0.
    5000001    2    3    3    0    0 -0.41938289590E+02  0.38299485303E+02  0.30676734145E+02  0.20661551507E+03  0.19627337654E+03 0.  0.
        -11    1    4    4    0    0  0.19027310139E+02  0.10585715332E+03  0.26176376398E+02  0.11069317107E+03  0.51100000000E-03 0. -1.
     200002    1    4    4    0    0 -0.60965599729E+02 -0.67557668015E+02  0.45003577469E+01  0.95922343996E+02  0.30000000000E+02 0. -1.
     200000    1    3    3    0    0 -0.96723443308E+02  0.21135200011E+02  0.16519245767E+03  0.53580842587E+03  0.50000000000E+03 0.  1.
    -200001    1    1    2    0    0  0.13866173290E+03 -0.59434685315E+02  0.24503282689E+03  0.75683594275E+03  0.70000000000E+03 0. -1.
<mgrwt>
<rscale>  0 0.14329639E+04</rscale>
<asrwt>0</asrwt>
<pdfrwt beam="1">  1        3 0.75596990E-01 0.14329639E+04</pdfrwt>
<pdfrwt beam="2">  1       -3 0.13858299E+00 0.14329639E+04</pdfrwt>
<totfact> 0.16673188E+00</totfact>
</mgrwt>
</event>
<event>
 8    1  0.1649749E-011  0.1472311E+04  0.7818608E-02  0.8903077E-01
         -3   -1    0    0    0  501 -0.00000000000E+00  0.00000000000E+00  0.10077481453E+04  0.10077481504E+04  0.10100000000E+00 0. -1.
          3   -1    0    0  501    0  0.00000000000E+00 -0.00000000000E+00 -0.53775849272E+03  0.53775850220E+03  0.10100000000E+00 0.  1.
     200001    2    1    2    0    0  0.21195824692E+03  0.19247770266E+02  0.32193844509E+03  0.79903767454E+03  0.69965710731E+03 0.  0.
    5000001    2    3    3    0    0  0.96833896862E+02 -0.14685200623E+02  0.29447978680E+02  0.20746710781E+03  0.18050750310E+03 0.  0.
        -11    1    4    4    0    0  0.12817758169E+02 -0.84953998319E+02  0.37236872285E+02  0.93637927213E+02  0.51100000000E-03 0. -1.
     200002    1    4    4    0    0  0.84016138693E+02  0.70268797697E+02 -0.77888936056E+01  0.11382918059E+03  0.30000000000E+02 0. -1.
     200000    1    3    3    0    0  0.11512435005E+03  0.33932970889E+02  0.29249046641E+03  0.59157056674E+03  0.50000000000E+03 0. -1.
    -200001    1    1    2    0    0 -0.21195824692E+03 -0.19247770266E+02  0.14805120749E+03  0.74646897801E+03  0.70000000000E+03 0.  1.
<mgrwt>
<rscale>  0 0.14723113E+04</rscale>
<asrwt>0</asrwt>
<pdfrwt beam="1">  1        3 0.76822644E-01 0.14723113E+04</pdfrwt>
<pdfrwt beam="2">  1       -3 0.14396402E+00 0.14723113E+04</pdfrwt>
<totfact> 0.14557370E+00</totfact>
</mgrwt>
</event>
<event>
 8    1  0.1649749E-011  0.2227691E+04  0.7818608E-02  0.8506990E-01
          3   -1    0    0  501    0  0.00000000000E+00  0.00000000000E+00  0.19282509978E+04  0.19282510005E+04  0.10100000000E+00 0. -1.
         -3   -1    0    0    0  501 -0.00000000000E+00 -0.00000000000E+00 -0.64340793665E+03  0.64340794457E+03  0.10100000000E+00 0.  1.
     200001    2    1    2    0    0  0.68060863782E+03  0.53473585800E+03  0.59255150602E+03  0.12607668240E+04  0.69946060750E+03 0.  0.
    5000001    2    3    3    0    0  0.22095060675E+03  0.21702425523E+02  0.95501344447E+02  0.27509564580E+03  0.13140373530E+03 0.  0.
        -11    1    4    4    0    0  0.12920393983E+03  0.39938671634E+02  0.11186635208E+03  0.17550736818E+03  0.51100000000E-03 0. -1.
     200002    1    4    4    0    0  0.91746666925E+02 -0.18236246111E+02 -0.16365007633E+02  0.99588277618E+02  0.30000000000E+02 0. -1.
     200000    1    3    3    0    0  0.45965803107E+03  0.51303343248E+03  0.49705016157E+03  0.98567117818E+03  0.50000000000E+03 0. -1.
    -200001    1    1    2    0    0 -0.68060863782E+03 -0.53473585800E+03  0.69229155514E+03  0.13108921210E+04  0.70000000000E+03 0. -1.
<mgrwt>
<rscale>  0 0.22276912E+04</rscale>
<asrwt>0</asrwt>
<pdfrwt beam="1">  1        3 0.27546443E+00 0.22276912E+04</pdfrwt>
<pdfrwt beam="2">  1       -3 0.91915419E-01 0.22276912E+04</pdfrwt>
<totfact> 0.13500131E-01</totfact>
</mgrwt>
</event>
<event>
 8    1  0.1649749E-011  0.1611797E+04  0.7818608E-02  0.8813333E-01
          3   -1    0    0  501    0  0.00000000000E+00  0.00000000000E+00  0.44452710876E+03  0.44452712023E+03  0.10100000000E+00 0.  1.
         -3   -1    0    0    0  501 -0.00000000000E+00 -0.00000000000E+00 -0.14610410135E+04  0.14610410170E+04  0.10100000000E+00 0. -1.
     200001    2    1    2    0    0  0.67548129815E+02  0.36592646274E+02 -0.49920791301E+02  0.70965676151E+03  0.70371788535E+03 0.  0.
    5000001    2    3    3    0    0  0.11400864839E+02 -0.88749489111E+02  0.10610542868E+02  0.18761537553E+03  0.16456152034E+03 0.  0.
        -11    1    4    4    0    0 -0.59876268843E+02 -0.59572944889E+02  0.47721126346E+02  0.97012417934E+02  0.51100000000E-03 0. -1.
     200002    1    4    4    0    0  0.71277133682E+02 -0.29176544222E+02 -0.37110583478E+02  0.90602957594E+02  0.30000000000E+02 0. -1.
     200000    1    3    3    0    0  0.56147264976E+02  0.12534213538E+03 -0.60531334169E+02  0.52204138599E+03  0.50000000000E+03 0.  1.
    -200001    1    1    2    0    0 -0.67548129815E+02 -0.36592646274E+02 -0.96659311343E+03  0.11959113757E+04  0.70000000000E+03 0. -1.
<mgrwt>
<rscale>  0 0.16117969E+04</rscale>
<asrwt>0</asrwt>
<pdfrwt beam="1">  1        3 0.63503874E-01 0.16117969E+04</pdfrwt>
<pdfrwt beam="2">  1       -3 0.20872015E+00 0.16117969E+04</pdfrwt>
<totfact> 0.78422047E-01</totfact>
</mgrwt>
</event>
<event>
 8    1  0.1649749E-011  0.1795069E+04  0.7818608E-02  0.8708926E-01
         -3   -1    0    0    0  501 -0.00000000000E+00  0.00000000000E+00  0.54743333628E+03  0.54743334560E+03  0.10100000000E+00 0. -1.
          3   -1    0    0  501    0  0.00000000000E+00 -0.00000000000E+00 -0.14715363040E+04  0.14715363074E+04  0.10100000000E+00 0.  1.
     200001    2    1    2    0    0 -0.24862579908E+03 -0.20452857491E+03 -0.97932766035E+03  0.12465083319E+04  0.70075218825E+03 0.  0.
    5000001    2    3    3    0    0 -0.89610092649E+02 -0.84326910856E+02 -0.24706308400E+03  0.33769270448E+03  0.19456412461E+03 0.  0.
        -11    1    4    4    0    0 -0.92168139581E+02  0.34557517815E+02 -0.64221653168E+02  0.11753130956E+03  0.51100000000E-03 0. -1.
     200002    1    4    4    0    0  0.25580469323E+01 -0.11888442867E+03 -0.18284143083E+03  0.22016139492E+03  0.30000000000E+02 0. -1.
     200000    1    3    3    0    0 -0.15901570643E+03 -0.12020166405E+03 -0.73226457635E+03  0.90881562746E+03  0.50000000000E+03 0.  1.
    -200001    1    1    2    0    0  0.24862579908E+03  0.20452857491E+03  0.55224692660E+02  0.77246132110E+03  0.70000000000E+03 0. -1.
<mgrwt>
<rscale>  0 0.17950688E+04</rscale>
<asrwt>0</asrwt>
<pdfrwt beam="1">  1        3 0.21021947E+00 0.17950688E+04</pdfrwt>
<pdfrwt beam="2">  1       -3 0.78204764E-01 0.17950688E+04</pdfrwt>
<totfact> 0.48400645E-01</totfact>
</mgrwt>
</event>
<event>
 8    1  0.1649749E-011  0.1737148E+04  0.7818608E-02  0.8740457E-01
          3   -1    0    0  501    0  0.00000000000E+00  0.00000000000E+00  0.26172442452E+03  0.26172444401E+03  0.10100000000E+00 0.  1.
         -3   -1    0    0    0  501 -0.00000000000E+00 -0.00000000000E+00 -0.28824996756E+04  0.28824996774E+04  0.10100000000E+00 0. -1.
     200001    2    1    2    0    0 -0.15955561536E+03  0.26218432737E+03 -0.56187751538E+03  0.94803230325E+03  0.69918544737E+03 0.  0.
    5000001    2    3    3    0    0 -0.27534618220E+02  0.10741813050E+03 -0.15071015451E+03  0.26947448109E+03  0.19392301391E+03 0.  0.
        -11    1    4    4    0    0  0.58713280437E+02  0.43985986499E+02  0.10011478168E+02  0.74042190698E+02  0.51100000000E-03 0. -1.
     200002    1    4    4    0    0 -0.86247898657E+02  0.63432144000E+02 -0.16072163268E+03  0.19543229039E+03  0.30000000000E+02 0.  1.
     200000    1    3    3    0    0 -0.13202099715E+03  0.15476619687E+03 -0.41116736087E+03  0.67855782217E+03  0.50000000000E+03 0.  1.
    -200001    1    1    2    0    0  0.15955561536E+03 -0.26218432737E+03 -0.20588977357E+04  0.21961918182E+04  0.70000000000E+03 0. -1.
<mgrwt>
<rscale>  0 0.17371478E+04</rscale>
<asrwt>0</asrwt>
<pdfrwt beam="1">  1        3 0.37389207E-01 0.17371478E+04</pdfrwt>
<pdfrwt beam="2">  1       -3 0.41178565E+00 0.17371478E+04</pdfrwt>
<totfact> 0.16250545E-01</totfact>
</mgrwt>
</event>
<event>
 8    1  0.1649749E-011  0.1587968E+04  0.7818608E-02  0.8827974E-01
          3   -1    0    0  501    0  0.00000000000E+00  0.00000000000E+00  0.10573607490E+04  0.10573607538E+04  0.10100000000E+00 0.  1.
         -3   -1    0    0    0  501 -0.00000000000E+00 -0.00000000000E+00 -0.59621135578E+03  0.59621136433E+03  0.10100000000E+00 0. -1.
     200001    2    1    2    0    0 -0.31842638110E+03 -0.19502364964E+03  0.19992816719E+03  0.81830802036E+03  0.70016223838E+03 0.  0.
    5000001    2    3    3    0    0 -0.12538285740E+03  0.44818481110E+02  0.60175548522E+02  0.21471805677E+03  0.15733146565E+03 0.  0.
        -11    1    4    4    0    0 -0.11623300239E+03  0.15115235502E+02 -0.24422901466E+02  0.11972910801E+03  0.51100000000E-03 0. -1.
     200002    1    4    4    0    0 -0.91498550109E+01  0.29703245608E+02  0.84598449988E+02  0.94988948761E+02  0.30000000000E+02 0. -1.
     200000    1    3    3    0    0 -0.19304352370E+03 -0.23984213075E+03  0.13975261867E+03  0.60358996359E+03  0.50000000000E+03 0. -1.
    -200001    1    1    2    0    0  0.31842638110E+03  0.19502364964E+03  0.26122122601E+03  0.83526409777E+03  0.70000000000E+03 0. -1.
<mgrwt>
<rscale>  0 0.15879679E+04</rscale>
<asrwt>0</asrwt>
<pdfrwt beam="1">  1        3 0.15105153E+00 0.15879679E+04</pdfrwt>
<pdfrwt beam="2">  1       -3 0.85173053E-01 0.15879679E+04</pdfrwt>
<totfact> 0.10149652E+00</totfact>
</mgrwt>
</event>
<event>
 8    1  0.1649749E-011  0.1632550E+04  0.7818608E-02  0.8800797E-01
         -3   -1    0    0    0  501 -0.00000000000E+00  0.00000000000E+00  0.33087179847E+03  0.33087181388E+03  0.10100000000E+00 0. -1.
          3   -1    0    0  501    0  0.00000000000E+00 -0.00000000000E+00 -0.20137851109E+04  0.20137851134E+04  0.10100000000E+00 0.  1.
     200001    2    1    2    0    0 -0.19046330917E+03  0.48460886627E+02 -0.13740922591E+04  0.15547232765E+04  0.70029293896E+03 0.  0.
    5000001    2    3    3    0    0 -0.28269530836E+02  0.55452589793E+02 -0.58330652468E+03  0.60514558965E+03  0.14859517771E+03 0.  0.
        -11    1    4    4    0    0 -0.66463383816E+02 -0.21615537422E+02 -0.26485620901E+03  0.27392229609E+03  0.51100000000E-03 0. -1.
     200002    1    4    4    0    0  0.38193852979E+02  0.77068127215E+02 -0.31845031568E+03  0.33122329355E+03  0.30000000000E+02 0. -1.
     200000    1    3    3    0    0 -0.16219377833E+03 -0.69917031652E+01 -0.79078573437E+03  0.94957768683E+03  0.50000000000E+03 0.  1.
    -200001    1    1    2    0    0  0.19046330917E+03 -0.48460886627E+02 -0.30882105334E+03  0.78993365079E+03  0.70000000000E+03 0. -1.
<mgrwt>
<rscale>  0 0.16325498E+04</rscale>
<asrwt>0</asrwt>
<pdfrwt beam="1">  1        3 0.28768358E+00 0.16325498E+04</pdfrwt>
<pdfrwt beam="2">  1       -3 0.47267402E-01 0.16325498E+04</pdfrwt>
<totfact> 0.50854174E-01</totfact>
</mgrwt>
</event>
<event>
 8    1  0.1649749E-011  0.1728604E+04  0.7818608E-02  0.8745216E-01
         -3   -1    0    0    0  501 -0.00000000000E+00  0.00000000000E+00  0.31275404272E+04  0.31275404288E+04  0.10100000000E+00 0. -1.
          3   -1    0    0  501    0  0.00000000000E+00 -0.00000000000E+00 -0.23885168661E+03  0.23885170796E+03  0.10100000000E+00 0.  1.
     200001    2    1    2    0    0 -0.39243266909E+03  0.28017250346E+03  0.11531182097E+04  0.14338536251E+04  0.70267672596E+03 0.  0.
    5000001    2    3    3    0    0 -0.67736188069E+02  0.11142507977E+03  0.20618434620E+03  0.30222327926E+03  0.17839054440E+03 0.  0.
        -11    1    4    4    0    0 -0.11043535150E+03  0.15517544725E+02  0.11154219290E+03  0.15772895059E+03  0.51100000000E-03 0. -1.
     200002    1    4    4    0    0  0.42699163435E+02  0.95907535045E+02  0.94642153307E+02  0.14449432867E+03  0.30000000000E+02 0. -1.
     200000    1    3    3    0    0 -0.32469648103E+03  0.16874742369E+03  0.94693386350E+03  0.11316303458E+04  0.50000000000E+03 0. -1.
    -200001    1    1    2    0    0  0.39243266909E+03 -0.28017250346E+03  0.17355705309E+04  0.19325385117E+04  0.70000000000E+03 0.  1.
<mgrwt>
<rscale>  0 0.17286045E+04</rscale>
<asrwt>0</asrwt>
<pdfrwt beam="1">  1        3 0.34121668E-01 0.17286045E+04</pdfrwt>
<pdfrwt beam="2">  1       -3 0.44679153E+00 0.17286045E+04</pdfrwt>
<totfact> 0.12511402E-01</totfact>
</mgrwt>
</event>
<event>
 8    1  0.1649749E-011  0.1739658E+04  0.7818608E-02  0.8739064E-01
         -3   -1    0    0    0  501 -0.00000000000E+00  0.00000000000E+00  0.95487367071E+03  0.95487367605E+03  0.10100000000E+00 0.  1.
          3   -1    0    0  501    0  0.00000000000E+00 -0.00000000000E+00 -0.79235826695E+03  0.79235827339E+03  0.10100000000E+00 0. -1.
     200001    2    1    2    0    0  0.29295495125E+03  0.38715709814E+03 -0.96423922382E+02  0.85685966958E+03  0.69942669269E+03 0.  0.
    5000001    2    3    3    0    0  0.17427499306E+03  0.61817459105E+02 -0.50457612281E+02  0.24690580668E+03  0.15563847622E+03 0.  0.
        -11    1    4    4    0    0  0.18032116262E+03  0.16178375444E+02 -0.60818321126E+02  0.19098777371E+03  0.51100000000E-03 0. -1.
     200002    1    4    4    0    0 -0.60461695596E+01  0.45639083661E+02  0.10360708845E+02  0.55918032972E+02  0.30000000000E+02 0. -1.
     200000    1    3    3    0    0  0.11867995819E+03  0.32533963904E+03 -0.45966310101E+02  0.60995386290E+03  0.50000000000E+03 0.  1.
    -200001    1    1    2    0    0 -0.29295495125E+03 -0.38715709814E+03  0.25893932614E+03  0.89037227985E+03  0.70000000000E+03 0.  1.
<mgrwt>
<rscale>  0 0.17396575E+04</rscale>
<asrwt>0</asrwt>
<pdfrwt beam="1">  1        3 0.11319404E+00 0.17396575E+04</pdfrwt>
<pdfrwt beam="2">  1       -3 0.13641053E+00 0.17396575E+04</pdfrwt>
<totfact> 0.67051654E-01</totfact>
</mgrwt>
</event>
<event>
 8    1  0.1649749E-011  0.1509836E+04  0.7818608E-02  0.8877938E-01
         -3   -1    0    0    0  501 -0.00000000000E+00  0.00000000000E+00  0.16085082673E+04  0.16085082704E+04  0.10100000000E+00 0. -1.
          3   -1    0    0  501    0  0.00000000000E+00 -0.00000000000E+00 -0.35430406777E+03  0.35430408216E+03  0.10100000000E+00 0.  1.
     200001    2    1    2    0    0  0.20766344625E+03  0.13374790311E+03  0.80543883263E+03  0.10954007070E+04  0.70011312458E+03 0.  0.
    5000001    2    3    3    0    0  0.15633088632E+03  0.54494439642E+02  0.31720131083E+03  0.39021135589E+03  0.15568956515E+03 0.  0.
        -11    1    4    4    0    0  0.81371394459E+02  0.76634735695E+02  0.76719413615E+02  0.13557306140E+03  0.51100000000E-03 0. -1.
     200002    1    4    4    0    0  0.74959491861E+02 -0.22140296053E+02  0.24048189722E+03  0.25463829449E+03  0.30000000000E+02 0. -1.
     200000    1    3    3    0    0  0.51332559932E+02  0.79253463469E+02  0.48823752179E+03  0.70518935107E+03  0.50000000000E+03 0. -1.
    -200001    1    1    2    0    0 -0.20766344625E+03 -0.13374790311E+03  0.44876536689E+03  0.86741164565E+03  0.70000000000E+03 0.  1.
<mgrwt>
<rscale>  0 0.15098358E+04</rscale>
<asrwt>0</asrwt>
<pdfrwt beam="1">  1        3 0.50614870E-01 0.15098358E+04</pdfrwt>
<pdfrwt beam="2">  1       -3 0.22978689E+00 0.15098358E+04</pdfrwt>
<totfact> 0.94648546E-01</totfact>
</mgrwt>
</event>
<event>
 8    1  0.1649749E-011  0.1650286E+04  0.7818608E-02  0.8790237E-01
         -3   -1    0    0    0  501 -0.00000000000E+00  0.00000000000E+00  0.91057856937E+03  0.91057857497E+03  0.10100000000E+00 0. -1.
          3   -1    0    0  501    0  0.00000000000E+00 -0.00000000000E+00 -0.74772341382E+03  0.74772342064E+03  0.10100000000E+00 0.  1.
     200001    2    1    2    0    0 -0.78478272295E+02  0.23120841612E+03 -0.28249091222E+03  0.79346137967E+03  0.70011690069E+03 0.  0.
    5000001    2    3    3    0    0  0.44543975323E+02 -0.94325152911E+02 -0.47962307843E+02  0.14069017607E+03  0.81313851582E+02 0.  0.
        -11    1    4    4    0    0  0.49015020975E+02 -0.80578494968E+02 -0.18258241846E+02  0.96066276748E+02  0.51100000000E-03 0. -1.
     200002    1    4    4    0    0 -0.44710456522E+01 -0.13746657943E+02 -0.29704065997E+02  0.44623899320E+02  0.30000000000E+02 0. -1.
     200000    1    3    3    0    0 -0.12302224762E+03  0.32553356904E+03 -0.23452860437E+03  0.65277120360E+03  0.50000000000E+03 0.  1.
    -200001    1    1    2    0    0  0.78478272295E+02 -0.23120841612E+03  0.44534606777E+03  0.86484061594E+03  0.70000000000E+03 0. -1.
<mgrwt>
<rscale>  0 0.16502859E+04</rscale>
<asrwt>0</asrwt>
<pdfrwt beam="1">  1        3 0.10681763E+00 0.16502859E+04</pdfrwt>
<pdfrwt beam="2">  1       -3 0.13008265E+00 0.16502859E+04</pdfrwt>
<totfact> 0.87316243E-01</totfact>
</mgrwt>
</event>
<event>
 8    1  0.1649749E-011  0.1968894E+04  0.7818608E-02  0.8621303E-01
         -3   -1    0    0    0  501 -0.00000000000E+00  0.00000000000E+00  0.80712905182E+03  0.80712905814E+03  0.10100000000E+00 0. -1.
          3   -1    0    0  501    0  0.00000000000E+00 -0.00000000000E+00 -0.12007197980E+04  0.12007198022E+04  0.10100000000E+00 0.  1.
     200001    2    1    2    0    0 -0.26152630041E+03 -0.61072405981E+03 -0.39592523583E+03  0.10427657899E+04  0.69944536397E+03 0.  0.
    5000001    2    3    3    0    0 -0.12787283644E+03 -0.18400583555E+03 -0.60507813894E+02  0.29279476493E+03  0.17848800804E+03 0.  0.
        -11    1    4    4    0    0  0.42970469705E+02 -0.53672265658E+02 -0.23725745877E+02  0.72732966289E+02  0.51100000000E-03 0. -1.
     200002    1    4    4    0    0 -0.17084330615E+03 -0.13033356989E+03 -0.36782068017E+02  0.22006179864E+03  0.30000000000E+02 0. -1.
     200000    1    3    3    0    0 -0.13365346397E+03 -0.42671822426E+03 -0.33541742194E+03  0.74997102497E+03  0.50000000000E+03 0.  1.
    -200001    1    1    2    0    0  0.26152630041E+03  0.61072405981E+03  0.23344896842E+01  0.96508307046E+03  0.70000000000E+03 0. -1.
<mgrwt>
<rscale>  0 0.19688939E+04</rscale>
<asrwt>0</asrwt>
<pdfrwt beam="1">  1        3 0.17153140E+00 0.19688939E+04</pdfrwt>
<pdfrwt beam="2">  1       -3 0.11530415E+00 0.19688939E+04</pdfrwt>
<totfact> 0.34629580E-01</totfact>
</mgrwt>
</event>
<event>
 8    1  0.1649749E-011  0.1444514E+04  0.7818608E-02  0.8922213E-01
          3   -1    0    0  501    0  0.00000000000E+00  0.00000000000E+00  0.71725668011E+03  0.71725668722E+03  0.10100000000E+00 0.  1.
         -3   -1    0    0    0  501 -0.00000000000E+00 -0.00000000000E+00 -0.72729189020E+03  0.72729189721E+03  0.10100000000E+00 0. -1.
     200001    2    1    2    0    0  0.26340555506E+02  0.11361131113E+03  0.12446718371E+03  0.72226591897E+03  0.70183660706E+03 0.  0.
    5000001    2    3    3    0    0 -0.32507266231E+02  0.26777354570E+02  0.14187895599E+03  0.21108456960E+03  0.15051016010E+03 0.  0.
        -11    1    4    4    0    0 -0.48359496787E+02  0.37735515529E+02  0.15980684525E+03  0.17117487505E+03  0.51100000000E-03 0. -1.
     200002    1    4    4    0    0  0.15852230556E+02 -0.10958160959E+02 -0.17927889256E+02  0.39909694541E+02  0.30000000000E+02 0. -1.
     200000    1    3    3    0    0  0.58847821737E+02  0.86833956556E+02 -0.17411772284E+02  0.51118134937E+03  0.50000000000E+03 0. -1.
    -200001    1    1    2    0    0 -0.26340555506E+02 -0.11361131113E+03 -0.13450239380E+03  0.72228266546E+03  0.70000000000E+03 0. -1.
<mgrwt>
<rscale>  0 0.14445137E+04</rscale>
<asrwt>0</asrwt>
<pdfrwt beam="1">  1        3 0.10246524E+00 0.14445137E+04</pdfrwt>
<pdfrwt beam="2">  1       -3 0.10389884E+00 0.14445137E+04</pdfrwt>
<totfact> 0.16864979E+00</totfact>
</mgrwt>
</event>
<event>
 8    1  0.1649749E-011  0.1554783E+04  0.7818608E-02  0.8848818E-01
          3   -1    0    0  501    0  0.00000000000E+00  0.00000000000E+00  0.51063516706E+03  0.51063517705E+03  0.10100000000E+00 0.  1.
         -3   -1    0    0    0  501 -0.00000000000E+00 -0.00000000000E+00 -0.11835019938E+04  0.11835019981E+04  0.10100000000E+00 0. -1.
     200001    2    1    2    0    0  0.28211459732E+03 -0.18343250044E+03 -0.37660450522E+03  0.86286857150E+03  0.69962496389E+03 0.  0.
    5000001    2    3    3    0    0  0.78692639363E+02 -0.29124191532E+02 -0.19799087300E+02  0.19766059393E+03  0.17786780628E+03 0.  0.
        -11    1    4    4    0    0  0.78320700332E+02  0.46009635296E+02 -0.58433126808E+02  0.10800670789E+03  0.51100000000E-03 0. -1.
     200002    1    4    4    0    0  0.37193903102E+00 -0.75133826828E+02  0.38634039508E+02  0.89653886035E+02  0.30000000000E+02 0. -1.
     200000    1    3    3    0    0  0.20342195796E+03 -0.15430830891E+03 -0.35680541792E+03  0.66520797758E+03  0.50000000000E+03 0. -1.
    -200001    1    1    2    0    0 -0.28211459732E+03  0.18343250044E+03 -0.29626232148E+03  0.83126860362E+03  0.70000000000E+03 0.  1.
<mgrwt>
<rscale>  0 0.15547833E+04</rscale>
<asrwt>0</asrwt>
<pdfrwt beam="1">  1        3 0.72947882E-01 0.15547833E+04</pdfrwt>
<pdfrwt beam="2">  1       -3 0.16907171E+00 0.15547833E+04</pdfrwt>
<totfact> 0.10612702E+00</totfact>
</mgrwt>
</event>
<event>
 8    1  0.1649749E-011  0.2416827E+04  0.7818608E-02  0.8433230E-01
         -3   -1    0    0    0  501 -0.00000000000E+00  0.00000000000E+00  0.15510843442E+04  0.15510843475E+04  0.10100000000E+00 0. -1.
          3   -1    0    0  501    0  0.00000000000E+00 -0.00000000000E+00 -0.94144677241E+03  0.94144677782E+03  0.10100000000E+00 0.  1.
     200001    2    1    2    0    0  0.48697632076E+03  0.54903773641E+03  0.98392684485E+03  0.14114756999E+04  0.69682368103E+03 0.  0.
    5000001    2    3    3    0    0  0.11039258535E+03  0.23040686219E+03  0.38592786049E+03  0.48900958721E+03  0.15784871821E+03 0.  0.
        -11    1    4    4    0    0  0.11662908580E+03  0.17616236539E+03  0.36773949161E+03  0.42410830731E+03  0.51100000000E-03 0. -1.
     200002    1    4    4    0    0 -0.62365004470E+01  0.54244496799E+02  0.18188368872E+02  0.64901279903E+02  0.30000000000E+02 0. -1.
     200000    1    3    3    0    0  0.37658373542E+03  0.31863087421E+03  0.59799898436E+03  0.92246611270E+03  0.50000000000E+03 0. -1.
    -200001    1    1    2    0    0 -0.48697632076E+03 -0.54903773641E+03 -0.37428927301E+03  0.10810554254E+04  0.70000000000E+03 0.  1.
<mgrwt>
<rscale>  0 0.24168271E+04</rscale>
<asrwt>0</asrwt>
<pdfrwt beam="1">  1        3 0.13449240E+00 0.24168271E+04</pdfrwt>
<pdfrwt beam="2">  1       -3 0.22158348E+00 0.24168271E+04</pdfrwt>
<totfact> 0.10866911E-01</totfact>
</mgrwt>
</event>
<event>
 8    1  0.1649749E-011  0.1826853E+04  0.7818608E-02  0.8692148E-01
          3   -1    0    0  501    0  0.00000000000E+00  0.00000000000E+00  0.12256962835E+04  0.12256962877E+04  0.10100000000E+00 0.  1.
         -3   -1    0    0    0  501 -0.00000000000E+00 -0.00000000000E+00 -0.68071334158E+03  0.68071334907E+03  0.10100000000E+00 0. -1.
     200001    2    1    2    0    0  0.14796954056E+02 -0.57395770029E+03  0.14572926401E+03  0.91694013702E+03  0.69992557098E+03 0.  0.
    5000001    2    3    3    0    0 -0.20448392918E+02 -0.15690152319E+03  0.23303954345E+02  0.25349002903E+03  0.19666696667E+03 0.  0.
        -11    1    4    4    0    0 -0.40680123635E+02 -0.13273156685E+03 -0.66325601337E+02  0.15385586336E+03  0.51100000000E-03 0. -1.
     200002    1    4    4    0    0  0.20231730717E+02 -0.24169956343E+02  0.89629555681E+02  0.99634165671E+02  0.30000000000E+02 0. -1.
     200000    1    3    3    0    0  0.35245346974E+02 -0.41705617710E+03  0.12242530967E+03  0.66345010799E+03  0.50000000000E+03 0.  1.
    -200001    1    1    2    0    0 -0.14796954056E+02  0.57395770029E+03  0.39925367794E+03  0.98946949974E+03  0.70000000000E+03 0.  1.
<mgrwt>
<rscale>  0 0.18268528E+04</rscale>
<asrwt>0</asrwt>
<pdfrwt beam="1">  1        3 0.17509947E+00 0.18268528E+04</pdfrwt>
<pdfrwt beam="2">  1       -3 0.97244764E-01 0.18268528E+04</pdfrwt>
<totfact> 0.49591174E-01</totfact>
</mgrwt>
</event>
<event>
 8    1  0.1649749E-011  0.1962439E+04  0.7818608E-02  0.8624386E-01
         -3   -1    0    0    0  501 -0.00000000000E+00  0.00000000000E+00  0.54358886070E+03  0.54358887008E+03  0.10100000000E+00 0. -1.
          3   -1    0    0  501    0  0.00000000000E+00 -0.00000000000E+00 -0.17711771036E+04  0.17711771065E+04  0.10100000000E+00 0.  1.
     200001    2    1    2    0    0 -0.59236498598E+03 -0.15507763412E+03 -0.96673065871E+03  0.13488508517E+04  0.71406239532E+03 0.  0.
    5000001    2    3    3    0    0 -0.15009184980E+03 -0.88079794786E+02 -0.21294451717E+03  0.33974838681E+03  0.19949432404E+03 0.  0.
        -11    1    4    4    0    0 -0.19367969061E+03 -0.83227227994E+02 -0.15914504218E+03  0.26413204744E+03  0.51100000000E-03 0. -1.
     200002    1    4    4    0    0  0.43587840810E+02 -0.48525667923E+01 -0.53799474990E+02  0.75616339373E+02  0.30000000000E+02 0. -1.
     200000    1    3    3    0    0 -0.44227313618E+03 -0.66997839332E+02 -0.75378614154E+03  0.10091024649E+04  0.50000000000E+03 0.  1.
    -200001    1    1    2    0    0  0.59236498598E+03  0.15507763412E+03 -0.26085758420E+03  0.96591512487E+03  0.70000000000E+03 0. -1.
<mgrwt>
<rscale>  0 0.19624395E+04</rscale>
<asrwt>0</asrwt>
<pdfrwt beam="1">  1        3 0.25302530E+00 0.19624395E+04</pdfrwt>
<pdfrwt beam="2">  1       -3 0.77655553E-01 0.19624395E+04</pdfrwt>
<totfact> 0.27061864E-01</totfact>
</mgrwt>
</event>
<event>
 8    1  0.1649749E-011  0.1550551E+04  0.7818608E-02  0.8851516E-01
         -3   -1    0    0    0  501 -0.00000000000E+00  0.00000000000E+00  0.24231859820E+04  0.24231859841E+04  0.10100000000E+00 0.  1.
          3   -1    0    0  501    0  0.00000000000E+00 -0.00000000000E+00 -0.24804206258E+03  0.24804208314E+03  0.10100000000E+00 0. -1.
     200001    2    1    2    0    0 -0.27655774760E+03  0.18681352792E+03  0.10425915787E+04  0.12986180402E+04  0.69859010321E+03 0.  0.
    5000001    2    3    3    0    0 -0.79367017704E+02  0.25887519257E+02  0.39509030199E+03  0.44185712394E+03  0.17936578298E+03 0.  0.
        -11    1    4    4    0    0 -0.10551928703E+03  0.61671717739E+01  0.38080134908E+03  0.39519871129E+03  0.51100000000E-03 0. -1.
     200002    1    4    4    0    0  0.26152269331E+02  0.19720347483E+02  0.14288952903E+02  0.46658412651E+02  0.30000000000E+02 0. -1.
     200000    1    3    3    0    0 -0.19719072990E+03  0.16092600866E+03  0.64750127671E+03  0.85676091622E+03  0.50000000000E+03 0. -1.
    -200001    1    1    2    0    0  0.27655774760E+03 -0.18681352792E+03  0.11325523408E+04  0.13726100271E+04  0.70000000000E+03 0.  1.
<mgrwt>
<rscale>  0 0.15505510E+04</rscale>
<asrwt>0</asrwt>
<pdfrwt beam="1">  1        3 0.35434583E-01 0.15505510E+04</pdfrwt>
<pdfrwt beam="2">  1       -3 0.34616942E+00 0.15505510E+04</pdfrwt>
<totfact> 0.42240592E-01</totfact>
</mgrwt>
</event>
<event>
 8    1  0.1649749E-011  0.1656891E+04  0.7818608E-02  0.8786340E-01
          3   -1    0    0  501    0  0.00000000000E+00  0.00000000000E+00  0.15548890385E+04  0.15548890418E+04  0.10100000000E+00 0.  1.
         -3   -1    0    0    0  501 -0.00000000000E+00 -0.00000000000E+00 -0.44139624258E+03  0.44139625413E+03  0.10100000000E+00 0. -1.
     200001    2    1    2    0    0  0.26884489546E+01 -0.44288670998E+03  0.56705919913E+03  0.10039418366E+04  0.70013370884E+03 0.  0.
    5000001    2    3    3    0    0  0.11662392283E+02 -0.96933554102E+02  0.21497154474E+03  0.30128272000E+03  0.18715337832E+03 0.  0.
        -11    1    4    4    0    0 -0.49326695834E+02 -0.11499374888E+02  0.17947404610E+03  0.18648402550E+03  0.51100000000E-03 0. -1.
     200002    1    4    4    0    0  0.60989088117E+02 -0.85434179214E+02  0.35497498641E+02  0.11479869449E+03  0.30000000000E+02 0. -1.
     200000    1    3    3    0    0 -0.89739433288E+01 -0.34595315588E+03  0.35208765439E+03  0.70265911657E+03  0.50000000000E+03 0. -1.
    -200001    1    1    2    0    0 -0.26884489546E+01  0.44288670998E+03  0.54643359682E+03  0.99234345938E+03  0.70000000000E+03 0. -1.
<mgrwt>
<rscale>  0 0.16568913E+04</rscale>
<asrwt>0</asrwt>
<pdfrwt beam="1">  1        3 0.22212701E+00 0.16568913E+04</pdfrwt>
<pdfrwt beam="2">  1       -3 0.63056606E-01 0.16568913E+04</pdfrwt>
<totfact> 0.66182710E-01</totfact>
</mgrwt>
</event>
<event>
 8    1  0.1649749E-011  0.1565234E+04  0.7818608E-02  0.8842195E-01
          3   -1    0    0  501    0  0.00000000000E+00  0.00000000000E+00  0.47703389370E+03  0.47703390439E+03  0.10100000000E+00 0.  1.
         -3   -1    0    0    0  501 -0.00000000000E+00 -0.00000000000E+00 -0.12839539158E+04  0.12839539198E+04  0.10100000000E+00 0. -1.
     200001    2    1    2    0    0 -0.23754333877E+03 -0.20812354704E+03 -0.23493223323E+03  0.80343245801E+03  0.70040581933E+03 0.  0.
    5000001    2    3    3    0    0 -0.67953136077E+02  0.10306083949E+03 -0.24583394258E+02  0.15547937844E+03  0.91270633315E+02 0.  0.
        -11    1    4    4    0    0 -0.55761308457E+02  0.64172212477E+02 -0.50231353836E+02  0.98745051944E+02  0.51100000000E-03 0. -1.
     200002    1    4    4    0    0 -0.12191827620E+02  0.38888627017E+02  0.25647959578E+02  0.56734326492E+02  0.30000000000E+02 0. -1.
     200000    1    3    3    0    0 -0.16959020269E+03 -0.31118438654E+03 -0.21034883897E+03  0.64795307957E+03  0.50000000000E+03 0.  1.
    -200001    1    1    2    0    0  0.23754333877E+03  0.20812354704E+03 -0.57198778888E+03  0.95755536615E+03  0.70000000000E+03 0. -1.
<mgrwt>
<rscale>  0 0.15652342E+04</rscale>
<asrwt>0</asrwt>
<pdfrwt beam="1">  1        3 0.68147701E-01 0.15652342E+04</pdfrwt>
<pdfrwt beam="2">  1       -3 0.18342199E+00 0.15652342E+04</pdfrwt>
<totfact> 0.98225353E-01</totfact>
</mgrwt>
</event>
<event>
 8    1  0.1649749E-011  0.1950205E+04  0.7818608E-02  0.8630262E-01
          3   -1    0    0  501    0  0.00000000000E+00  0.00000000000E+00  0.30645042430E+04  0.30645042447E+04  0.10100000000E+00 0.  1.
         -3   -1    0    0    0  501 -0.00000000000E+00 -0.00000000000E+00 -0.31027021591E+03  0.31027023235E+03  0.10100000000E+00 0. -1.
     200001    2    1    2    0    0 -0.43427529327E+03  0.52159140355E+03  0.13820181877E+04  0.16914358502E+04  0.70023449047E+03 0.  0.
    5000001    2    3    3    0    0 -0.16456795891E+03  0.73483977341E+02  0.10987629480E+03  0.22791704019E+03  0.85970163564E+02 0.  0.
        -11    1    4    4    0    0 -0.13242281236E+03  0.29608718241E+02  0.89474916483E+02  0.16253688230E+03  0.51100000000E-03 0. -1.
     200002    1    4    4    0    0 -0.32145146555E+02  0.43875259100E+02  0.20401378315E+02  0.65380157887E+02  0.30000000000E+02 0. -1.
     200000    1    3    3    0    0 -0.26970733436E+03  0.44810742621E+03  0.12721418929E+04  0.14635188100E+04  0.50000000000E+03 0.  1.
    -200001    1    1    2    0    0  0.43427529327E+03 -0.52159140355E+03  0.13722158394E+04  0.16833386268E+04  0.70000000000E+03 0. -1.
<mgrwt>
<rscale>  0 0.19502045E+04</rscale>
<asrwt>0</asrwt>
<pdfrwt beam="1">  1        3 0.43778633E+00 0.19502045E+04</pdfrwt>
<pdfrwt beam="2">  1       -3 0.44324317E-01 0.19502045E+04</pdfrwt>
<totfact> 0.88034372E-02</totfact>
</mgrwt>
</event>
<event>
 8    1  0.1649749E-011  0.2616907E+04  0.7818608E-02  0.8362481E-01
         -3   -1    0    0    0  501 -0.00000000000E+00  0.00000000000E+00  0.14264679678E+04  0.14264679714E+04  0.10100000000E+00 0. -1.
          3   -1    0    0  501    0  0.00000000000E+00 -0.00000000000E+00 -0.12002025412E+04  0.12002025454E+04  0.10100000000E+00 0.  1.
     200001    2    1    2    0    0 -0.81631817376E+03  0.28806919425E+03 -0.57573087438E+03  0.12546073665E+04  0.70229223473E+03 0.  0.
    5000001    2    3    3    0    0 -0.32078248468E+03  0.52807682414E+02 -0.21348057841E+03  0.42869643003E+03  0.18032364783E+03 0.  0.
        -11    1    4    4    0    0 -0.53196598703E+01  0.14372470291E+02  0.25630556191E+02  0.29862888245E+02  0.51100000000E-03 0. -1.
     200002    1    4    4    0    0 -0.31546282481E+03  0.38435212123E+02 -0.23911113460E+03  0.39883354179E+03  0.30000000000E+02 0. -1.
     200000    1    3    3    0    0 -0.49553568908E+03  0.23526151183E+03 -0.36225029598E+03  0.82591093650E+03  0.50000000000E+03 0.  1.
    -200001    1    1    2    0    0  0.81631817376E+03 -0.28806919425E+03  0.80199630098E+03  0.13720631502E+04  0.70000000000E+03 0. -1.
<mgrwt>
<rscale>  0 0.26169069E+04</rscale>
<asrwt>0</asrwt>
<pdfrwt beam="1">  1        3 0.17145751E+00 0.26169069E+04</pdfrwt>
<pdfrwt beam="2">  1       -3 0.20378114E+00 0.26169069E+04</pdfrwt>
<totfact> 0.73022633E-02</totfact>
</mgrwt>
</event>
<event>
 8    1  0.1649749E-011  0.2697028E+04  0.7818608E-02  0.8335970E-01
         -3   -1    0    0    0  501 -0.00000000000E+00  0.00000000000E+00  0.96256859582E+03  0.96256860112E+03  0.10100000000E+00 0. -1.
          3   -1    0    0  501    0  0.00000000000E+00 -0.00000000000E+00 -0.18892059875E+04  0.18892059902E+04  0.10100000000E+00 0.  1.
     200001    2    1    2    0    0  0.81018291665E+03 -0.59677136935E+03  0.12389764938E+03  0.12374151833E+04  0.70944575742E+03 0.  0.
    5000001    2    3    3    0    0  0.28503678961E+03 -0.16687010114E+03  0.66742879639E+02  0.39251269023E+03  0.20129579709E+03 0.  0.
        -11    1    4    4    0    0  0.79558520472E+02 -0.32065728052E+02  0.11175455873E+03  0.14087885040E+03  0.51100000000E-03 0. -1.
     200002    1    4    4    0    0  0.20547826914E+03 -0.13480437309E+03 -0.45011679086E+02  0.25163383982E+03  0.30000000000E+02 0. -1.
     200000    1    3    3    0    0  0.52514612704E+03 -0.42990126821E+03  0.57154769736E+02  0.84490249311E+03  0.50000000000E+03 0. -1.
    -200001    1    1    2    0    0 -0.81018291665E+03  0.59677136935E+03 -0.10505350411E+04  0.16143594080E+04  0.70000000000E+03 0.  1.
<mgrwt>
<rscale>  0 0.26970283E+04</rscale>
<asrwt>0</asrwt>
<pdfrwt beam="1">  1        3 0.26988657E+00 0.26970283E+04</pdfrwt>
<pdfrwt beam="2">  1       -3 0.13750980E+00 0.26970283E+04</pdfrwt>
<totfact> 0.52902581E-02</totfact>
</mgrwt>
</event>
<event>
 8    1  0.1649749E-011  0.1508445E+04  0.7818608E-02  0.8878857E-01
          3   -1    0    0  501    0  0.00000000000E+00  0.00000000000E+00  0.12738529569E+04  0.12738529609E+04  0.10100000000E+00 0.  1.
         -3   -1    0    0    0  501 -0.00000000000E+00 -0.00000000000E+00 -0.44655973931E+03  0.44655975074E+03  0.10100000000E+00 0. -1.
     200001    2    1    2    0    0  0.76900152026E+02 -0.26884757160E+03  0.44672045855E+03  0.87600269569E+03  0.69973488168E+03 0.  0.
    5000001    2    3    3    0    0  0.69573418109E+02 -0.48694700840E+02  0.10327018764E+03  0.23065081019E+03  0.18794528509E+03 0.  0.
        -11    1    4    4    0    0 -0.23438208998E+02 -0.46229309160E+02  0.12069067822E+03  0.13134968016E+03  0.51100000000E-03 0. -1.
     200002    1    4    4    0    0  0.93011627107E+02 -0.24653916791E+01 -0.17420490586E+02  0.99301130031E+02  0.30000000000E+02 0. -1.
     200000    1    3    3    0    0  0.73267339175E+01 -0.22015287076E+03  0.34345027092E+03  0.64535188551E+03  0.50000000000E+03 0. -1.
    -200001    1    1    2    0    0 -0.76900152026E+02  0.26884757160E+03  0.38057275906E+03  0.84441001597E+03  0.70000000000E+03 0. -1.
<mgrwt>
<rscale>  0 0.15084448E+04</rscale>
<asrwt>0</asrwt>
<pdfrwt beam="1">  1        3 0.18197900E+00 0.15084448E+04</pdfrwt>
<pdfrwt beam="2">  1       -3 0.63794248E-01 0.15084448E+04</pdfrwt>
<totfact> 0.11678400E+00</totfact>
</mgrwt>
</event>
<event>
 8    1  0.1649749E-011  0.1939809E+04  0.7818608E-02  0.8635291E-01
         -3   -1    0    0    0  501 -0.00000000000E+00  0.00000000000E+00  0.39298854500E+04  0.39298854513E+04  0.10100000000E+00 0.  1.
          3   -1    0    0  501    0  0.00000000000E+00 -0.00000000000E+00 -0.23937449475E+03  0.23937451606E+03  0.10100000000E+00 0. -1.
     200001    2    1    2    0    0 -0.33154971464E+03  0.30778610321E+03  0.77811488579E+03  0.11399517354E+04  0.69954963015E+03 0.  0.
    5000001    2    3    3    0    0 -0.20246244941E+03  0.17649396509E+03  0.17380344808E+03  0.33428836820E+03  0.96953140288E+02 0.  0.
        -11    1    4    4    0    0 -0.72953272179E+02  0.18536592460E+02  0.71745020881E+02  0.10398621641E+03  0.51100000000E-03 0. -1.
     200002    1    4    4    0    0 -0.12950917723E+03  0.15795737263E+03  0.10205842720E+03  0.23030215179E+03  0.30000000000E+02 0. -1.
     200000    1    3    3    0    0 -0.12908726523E+03  0.13129213812E+03  0.60431143770E+03  0.80566336724E+03  0.50000000000E+03 0. -1.
    -200001    1    1    2    0    0  0.33154971464E+03 -0.30778610321E+03  0.29123960695E+04  0.30293082319E+04  0.70000000000E+03 0.  1.
<mgrwt>
<rscale>  0 0.19398086E+04</rscale>
<asrwt>0</asrwt>
<pdfrwt beam="1">  1        3 0.34196360E-01 0.19398086E+04</pdfrwt>
<pdfrwt beam="2">  1       -3 0.56141218E+00 0.19398086E+04</pdfrwt>
<totfact> 0.30227058E-02</totfact>
</mgrwt>
</event>
<event>
 8    1  0.1649749E-011  0.1495040E+04  0.7818608E-02  0.8887758E-01
          3   -1    0    0  501    0  0.00000000000E+00  0.00000000000E+00  0.55658196256E+03  0.55658197172E+03  0.10100000000E+00 0.  1.
         -3   -1    0    0    0  501 -0.00000000000E+00 -0.00000000000E+00 -0.10039598306E+04  0.10039598357E+04  0.10100000000E+00 0. -1.
     200001    2    1    2    0    0  0.19071802965E+03  0.18231169764E+03 -0.18256131746E+03  0.76698101742E+03  0.69664935550E+03 0.  0.
    5000001    2    3    3    0    0 -0.81580371443E+02  0.25188981926E+02 -0.17560266952E+02  0.15374426566E+03  0.12664554644E+03 0.  0.
        -11    1    4    4    0    0 -0.28149001208E+01  0.58383536866E+02  0.94646254525E+01  0.59212669040E+02  0.51100000000E-03 0. -1.
     200002    1    4    4    0    0 -0.78765471322E+02 -0.33194554940E+02 -0.27024892404E+02  0.94531596621E+02  0.30000000000E+02 0. -1.
     200000    1    3    3    0    0  0.27229840110E+03  0.15712271571E+03 -0.16500105051E+03  0.61323675175E+03  0.50000000000E+03 0.  1.
    -200001    1    1    2    0    0 -0.19071802965E+03 -0.18231169764E+03 -0.26481655058E+03  0.79356078998E+03  0.70000000000E+03 0.  1.
<mgrwt>
<rscale>  0 0.14950397E+04</rscale>
<asrwt>0</asrwt>
<pdfrwt beam="1">  1        3 0.79511710E-01 0.14950397E+04</pdfrwt>
<pdfrwt beam="2">  1       -3 0.14342283E+00 0.14950397E+04</pdfrwt>
<totfact> 0.13596430E+00</totfact>
</mgrwt>
</event>
<event>
 8    1  0.1649749E-011  0.1468963E+04  0.7818608E-02  0.8905358E-01
         -3   -1    0    0    0  501 -0.00000000000E+00  0.00000000000E+00  0.30375451843E+03  0.30375453522E+03  0.10100000000E+00 0. -1.
          3   -1    0    0  501    0  0.00000000000E+00 -0.00000000000E+00 -0.17759843808E+04  0.17759843837E+04  0.10100000000E+00 0.  1.
     200001    2    1    2    0    0  0.42725428941E+02  0.19596881818E+03 -0.60081934952E+03  0.94413972820E+03  0.70013334132E+03 0.  0.
    5000001    2    3    3    0    0 -0.37643524782E+02  0.50183798874E+02 -0.15674319473E+03  0.25499818118E+03  0.19110257633E+03 0.  0.
        -11    1    4    4    0    0 -0.66634267748E+02  0.95135087685E+02 -0.15494265472E+03  0.19364409828E+03  0.51100000000E-03 0. -1.
     200002    1    4    4    0    0  0.28990742966E+02 -0.44951288812E+02 -0.18005400107E+01  0.61354082895E+02  0.30000000000E+02 0. -1.
     200000    1    3    3    0    0  0.80368953723E+02  0.14578501931E+03 -0.44407615479E+03  0.68914154702E+03  0.50000000000E+03 0. -1.
    -200001    1    1    2    0    0 -0.42725428941E+02 -0.19596881818E+03 -0.87141051284E+03  0.11355991907E+04  0.70000000000E+03 0.  1.
<mgrwt>
<rscale>  0 0.14689633E+04</rscale>
<asrwt>0</asrwt>
<pdfrwt beam="1">  1        3 0.25371205E+00 0.14689633E+04</pdfrwt>
<pdfrwt beam="2">  1       -3 0.43393505E-01 0.14689633E+04</pdfrwt>
<totfact> 0.95039049E-01</totfact>
</mgrwt>
</event>
<event>
 8    1  0.1649749E-011  0.1523174E+04  0.7818608E-02  0.8869187E-01
          3   -1    0    0  501    0  0.00000000000E+00  0.00000000000E+00  0.31045387209E+03  0.31045388852E+03  0.10100000000E+00 0.  1.
         -3   -1    0    0    0  501 -0.00000000000E+00 -0.00000000000E+00 -0.18682801421E+04  0.18682801449E+04  0.10100000000E+00 0. -1.
     200001    2    1    2    0    0  0.26415792563E+02  0.29389231081E+03 -0.85344366291E+03  0.11427681355E+04  0.70034451608E+03 0.  0.
    5000001    2    3    3    0    0 -0.15149248715E+02  0.14159351435E+03 -0.20859700729E+03  0.31165455397E+03  0.18258594283E+03 0.  0.
        -11    1    4    4    0    0 -0.24363340766E+02  0.12262483128E+02 -0.17127904321E+03  0.17343716876E+03  0.51100000000E-03 0. -1.
     200002    1    4    4    0    0  0.92140920518E+01  0.12933103123E+03 -0.37317964077E+02  0.13821738521E+03  0.30000000000E+02 0. -1.
     200000    1    3    3    0    0  0.41565041277E+02  0.15229879646E+03 -0.64484665562E+03  0.83111358148E+03  0.50000000000E+03 0. -1.
    -200001    1    1    2    0    0 -0.26415792563E+02 -0.29389231081E+03 -0.70438260713E+03  0.10359658979E+04  0.70000000000E+03 0.  1.
<mgrwt>
<rscale>  0 0.15231741E+04</rscale>
<asrwt>0</asrwt>
<pdfrwt beam="1">  1        3 0.44350555E-01 0.15231741E+04</pdfrwt>
<pdfrwt beam="2">  1       -3 0.26689716E+00 0.15231741E+04</pdfrwt>
<totfact> 0.75282339E-01</totfact>
</mgrwt>
</event>
<event>
 8    1  0.1649749E-011  0.1590206E+04  0.7818608E-02  0.8826588E-01
         -3   -1    0    0    0  501 -0.00000000000E+00  0.00000000000E+00  0.62974787489E+03  0.62974788299E+03  0.10100000000E+00 0.  1.
          3   -1    0    0  501    0  0.00000000000E+00 -0.00000000000E+00 -0.10038758727E+04  0.10038758778E+04  0.10100000000E+00 0. -1.
     200001    2    1    2    0    0 -0.28772892065E+03  0.23913820461E+03 -0.14233129809E+03  0.80675936885E+03  0.70044804813E+03 0.  0.
    5000001    2    3    3    0    0 -0.11802404891E+03  0.12423734911E+03 -0.81985833941E+02  0.26302825411E+03  0.18192743185E+03 0.  0.
        -11    1    4    4    0    0 -0.13947265101E+03  0.46358598237E+02 -0.96249559318E+02  0.17568641860E+03  0.51100000000E-03 0. -1.
     200002    1    4    4    0    0  0.21448602099E+02  0.77878750874E+02  0.14263725377E+02  0.87341835516E+02  0.30000000000E+02 0. -1.
     200000    1    3    3    0    0 -0.16970487174E+03  0.11490085549E+03 -0.60345464145E+02  0.54373111473E+03  0.50000000000E+03 0.  1.
    -200001    1    1    2    0    0  0.28772892065E+03 -0.23913820461E+03 -0.23179669977E+03  0.82686439197E+03  0.70000000000E+03 0. -1.
<mgrwt>
<rscale>  0 0.15902059E+04</rscale>
<asrwt>0</asrwt>
<pdfrwt beam="1">  1        3 0.14341084E+00 0.15902059E+04</pdfrwt>
<pdfrwt beam="2">  1       -3 0.89963983E-01 0.15902059E+04</pdfrwt>
<totfact> 0.10244877E+00</totfact>
</mgrwt>
</event>
<event>
 8    1  0.1649749E-011  0.2029932E+04  0.7818608E-02  0.8592753E-01
          3   -1    0    0  501    0  0.00000000000E+00  0.00000000000E+00  0.11984633485E+04  0.11984633527E+04  0.10100000000E+00 0.  1.
         -3   -1    0    0    0  501 -0.00000000000E+00 -0.00000000000E+00 -0.85956439282E+03  0.85956439875E+03  0.10100000000E+00 0. -1.
     200001    2    1    2    0    0 -0.59850857474E+01 -0.57146801490E+03  0.63861649687E+03  0.11059552133E+04  0.69906679978E+03 0.  0.
    5000001    2    3    3    0    0  0.74206038131E+02 -0.16975473809E+03  0.10553518832E+03  0.26811283280E+03  0.16255340027E+03 0.  0.
        -11    1    4    4    0    0  0.50797484323E+02 -0.15245357347E+03  0.14062487888E+03  0.21353649111E+03  0.51100000000E-03 0. -1.
     200002    1    4    4    0    0  0.23408553808E+02 -0.17301164618E+02 -0.35089690559E+02  0.54576341688E+02  0.30000000000E+02 0. -1.
     200000    1    3    3    0    0 -0.80191123879E+02 -0.40171327681E+03  0.53308130855E+03  0.83784238055E+03  0.50000000000E+03 0.  1.
    -200001    1    1    2    0    0  0.59850857474E+01  0.57146801490E+03 -0.29971754123E+03  0.95207253811E+03  0.70000000000E+03 0. -1.
<mgrwt>
<rscale>  0 0.20299324E+04</rscale>
<asrwt>0</asrwt>
<pdfrwt beam="1">  1        3 0.17120905E+00 0.20299324E+04</pdfrwt>
<pdfrwt beam="2">  1       -3 0.12279491E+00 0.20299324E+04</pdfrwt>
<totfact> 0.29712704E-01</totfact>
</mgrwt>
</event>
<event>
 8    1  0.1649749E-011  0.1555220E+04  0.7818608E-02  0.8848540E-01
         -3   -1    0    0    0  501 -0.00000000000E+00  0.00000000000E+00  0.10446780620E+04  0.10446780669E+04  0.10100000000E+00 0. -1.
          3   -1    0    0  501    0  0.00000000000E+00 -0.00000000000E+00 -0.57881695922E+03  0.57881696804E+03  0.10100000000E+00 0.  1.
     200001    2    1    2    0    0  0.11840077769E+03  0.13193857456E+03 -0.67543091545E+02  0.72574976697E+03  0.70051704007E+03 0.  0.
    5000001    2    3    3    0    0  0.12309414508E+02  0.64427122725E+02  0.17526765187E+02  0.20320785095E+03  0.19153033014E+03 0.  0.
        -11    1    4    4    0    0 -0.34151745839E+02  0.11744266386E+03  0.29115005653E+02  0.12572511520E+03  0.51100000000E-03 0. -1.
     200002    1    4    4    0    0  0.46461160347E+02 -0.53015541132E+02 -0.11588240466E+02  0.77482735750E+02  0.30000000000E+02 0. -1.
     200000    1    3    3    0    0  0.10609136318E+03  0.67511451836E+02 -0.85069856732E+02  0.52254191602E+03  0.50000000000E+03 0.  1.
    -200001    1    1    2    0    0 -0.11840077769E+03 -0.13193857456E+03  0.53340419432E+03  0.89774526796E+03  0.70000000000E+03 0. -1.
<mgrwt>
<rscale>  0 0.15552201E+04</rscale>
<asrwt>0</asrwt>
<pdfrwt beam="1">  1        3 0.82688140E-01 0.15552201E+04</pdfrwt>
<pdfrwt beam="2">  1       -3 0.14923972E+00 0.15552201E+04</pdfrwt>
<totfact> 0.11192616E+00</totfact>
</mgrwt>
</event>
<event>
 8    1  0.1649749E-011  0.1863046E+04  0.7818608E-02  0.8673473E-01
         -3   -1    0    0    0  501 -0.00000000000E+00  0.00000000000E+00  0.61523033828E+03  0.61523034657E+03  0.10100000000E+00 0. -1.
          3   -1    0    0  501    0  0.00000000000E+00 -0.00000000000E+00 -0.14104226998E+04  0.14104227035E+04  0.10100000000E+00 0.  1.
     200001    2    1    2    0    0  0.27490694231E+03 -0.53161092837E+03 -0.55070610873E+03  0.10727849931E+04  0.69957588376E+03 0.  0.
    5000001    2    3    3    0    0  0.43592378302E+02 -0.12353013942E+03 -0.19919930399E+03  0.30233487038E+03  0.18591939206E+03 0.  0.
        -11    1    4    4    0    0  0.59050369298E+02 -0.15401566221E+03 -0.19681246745E+03  0.25679353120E+03  0.51100000000E-03 0. -1.
     200002    1    4    4    0    0 -0.15457990996E+02  0.30485522789E+02 -0.23868365380E+01  0.45541339177E+02  0.30000000000E+02 0. -1.
     200000    1    3    3    0    0  0.23131456400E+03 -0.40808078895E+03 -0.35150680474E+03  0.77045012273E+03  0.50000000000E+03 0. -1.
    -200001    1    1    2    0    0 -0.27490694231E+03  0.53161092837E+03 -0.24448625283E+03  0.95286805693E+03  0.70000000000E+03 0. -1.
<mgrwt>
<rscale>  0 0.18630457E+04</rscale>
<asrwt>0</asrwt>
<pdfrwt beam="1">  1        3 0.20148896E+00 0.18630457E+04</pdfrwt>
<pdfrwt beam="2">  1       -3 0.87890050E-01 0.18630457E+04</pdfrwt>
<totfact> 0.41956513E-01</totfact>
</mgrwt>
</event>
<event>
 8    1  0.1649749E-011  0.1826934E+04  0.7818608E-02  0.8692106E-01
          3   -1    0    0  501    0  0.00000000000E+00  0.00000000000E+00  0.37121303334E+03  0.37121304708E+03  0.10100000000E+00 0.  1.
         -3   -1    0    0    0  501 -0.00000000000E+00 -0.00000000000E+00 -0.22478255693E+04  0.22478255716E+04  0.10100000000E+00 0. -1.
     200001    2    1    2    0    0 -0.34485689480E+03 -0.18456495235E+03 -0.31191172106E+03  0.86083523461E+03  0.70054113361E+03 0.  0.
    5000001    2    3    3    0    0 -0.12263590563E+03 -0.30468802634E+02 -0.15166191168E+02  0.21959760245E+03  0.17895580561E+03 0.  0.
        -11    1    4    4    0    0 -0.15658213636E+03  0.10388180016E+00 -0.36748752594E+02  0.16083670923E+03  0.51100000000E-03 0. -1.
     200002    1    4    4    0    0  0.33946230729E+02 -0.30572684434E+02  0.21582561426E+02  0.58760893219E+02  0.30000000000E+02 0. -1.
     200000    1    3    3    0    0 -0.22222098917E+03 -0.15409614972E+03 -0.29674552989E+03  0.64123763216E+03  0.50000000000E+03 0.  1.
    -200001    1    1    2    0    0  0.34485689480E+03  0.18456495235E+03 -0.15647008149E+04  0.17582033840E+04  0.70000000000E+03 0. -1.
<mgrwt>
<rscale>  0 0.18269342E+04</rscale>
<asrwt>0</asrwt>
<pdfrwt beam="1">  1        3 0.53030436E-01 0.18269342E+04</pdfrwt>
<pdfrwt beam="2">  1       -3 0.32111793E+00 0.18269342E+04</pdfrwt>
<totfact> 0.25304649E-01</totfact>
</mgrwt>
</event>
<event>
 8    1  0.1649749E-011  0.1447647E+04  0.7818608E-02  0.8920034E-01
          3   -1    0    0  501    0  0.00000000000E+00  0.00000000000E+00  0.12144919522E+04  0.12144919564E+04  0.10100000000E+00 0.  1.
         -3   -1    0    0    0  501 -0.00000000000E+00 -0.00000000000E+00 -0.43139043012E+03  0.43139044195E+03  0.10100000000E+00 0. -1.
     200001    2    1    2    0    0  0.78387120056E+02  0.13249411716E+03  0.50830980316E+03  0.87828242409E+03  0.69950120000E+03 0.  0.
    5000001    2    3    3    0    0  0.72228574853E+02  0.71113820250E+02  0.38823322817E+02  0.18964389499E+03  0.15551017349E+03 0.  0.
        -11    1    4    4    0    0  0.35239599752E+02  0.93347705494E+02 -0.28936291599E+02  0.10388903928E+03  0.51100000000E-03 0. -1.
     200002    1    4    4    0    0  0.36988975101E+02 -0.22233885244E+02  0.67759614416E+02  0.85754855710E+02  0.30000000000E+02 0. -1.
     200000    1    3    3    0    0  0.61585452029E+01  0.61380296914E+02  0.46948648034E+03  0.68863852909E+03  0.50000000000E+03 0.  1.
    -200001    1    1    2    0    0 -0.78387120056E+02 -0.13249411716E+03  0.27479171890E+03  0.76759997424E+03  0.70000000000E+03 0. -1.
<mgrwt>
<rscale>  0 0.14476467E+04</rscale>
<asrwt>0</asrwt>
<pdfrwt beam="1">  1        3 0.17349885E+00 0.14476467E+04</pdfrwt>
<pdfrwt beam="2">  1       -3 0.61627206E-01 0.14476467E+04</pdfrwt>
<totfact> 0.14403590E+00</totfact>
</mgrwt>
</event>
<event>
 8    1  0.1649749E-011  0.1807040E+04  0.7818608E-02  0.8702564E-01
          3   -1    0    0  501    0  0.00000000000E+00  0.00000000000E+00  0.45020285786E+03  0.45020286919E+03  0.10100000000E+00 0.  1.
         -3   -1    0    0    0  501 -0.00000000000E+00 -0.00000000000E+00 -0.18132909678E+04  0.18132909706E+04  0.10100000000E+00 0. -1.
     200001    2    1    2    0    0  0.53613922037E+03  0.11793638085E+03 -0.88005306664E+03  0.12512304815E+04  0.69980716211E+03 0.  0.
    5000001    2    3    3    0    0  0.14815546161E+03  0.56571414638E+02 -0.19751335906E+03  0.31840814654E+03  0.19292966340E+03 0.  0.
        -11    1    4    4    0    0  0.73720614163E+02 -0.45693178571E+02 -0.59958482768E+01  0.86939897155E+02  0.51100000000E-03 0. -1.
     200002    1    4    4    0    0  0.74434847451E+02  0.10226459321E+03 -0.19151751078E+03  0.23146824939E+03  0.30000000000E+02 0. -1.
     200000    1    3    3    0    0  0.38798375875E+03  0.61364966211E+02 -0.68253970758E+03  0.93282233494E+03  0.50000000000E+03 0. -1.
    -200001    1    1    2    0    0 -0.53613922037E+03 -0.11793638085E+03 -0.48303504329E+03  0.10122633583E+04  0.70000000000E+03 0.  1.
<mgrwt>
<rscale>  0 0.18070404E+04</rscale>
<asrwt>0</asrwt>
<pdfrwt beam="1">  1        3 0.64314696E-01 0.18070404E+04</pdfrwt>
<pdfrwt beam="2">  1       -3 0.25904156E+00 0.18070404E+04</pdfrwt>
<totfact> 0.37759906E-01</totfact>
</mgrwt>
</event>
<event>
 8    1  0.1649749E-011  0.1896353E+04  0.7818608E-02  0.8656674E-01
         -3   -1    0    0    0  501 -0.00000000000E+00  0.00000000000E+00  0.48738030515E+03  0.48738031561E+03  0.10100000000E+00 0. -1.
          3   -1    0    0  501    0  0.00000000000E+00 -0.00000000000E+00 -0.18446356148E+04  0.18446356176E+04  0.10100000000E+00 0.  1.
     200001    2    1    2    0    0  0.49880141949E+02 -0.31334106821E+03  0.44801592972E+01  0.76836822958E+03  0.69978497469E+03 0.  0.
    5000001    2    3    3    0    0  0.96318662895E+02 -0.12066997925E+03  0.20801024408E+02  0.23027432013E+03  0.16957314404E+03 0.  0.
        -11    1    4    4    0    0 -0.32772995771E+02 -0.15599201852E+02  0.46729465550E+02  0.59169648478E+02  0.51100000000E-03 0. -1.
     200002    1    4    4    0    0  0.12909165867E+03 -0.10507077739E+03 -0.25928441142E+02  0.17110467165E+03  0.30000000000E+02 0. -1.
     200000    1    3    3    0    0 -0.46438520946E+02 -0.19267108897E+03 -0.16320865111E+02  0.53809390945E+03  0.50000000000E+03 0. -1.
    -200001    1    1    2    0    0 -0.49880141949E+02  0.31334106821E+03 -0.13617354690E+04  0.15636477036E+04  0.70000000000E+03 0.  1.
<mgrwt>
<rscale>  0 0.18963534E+04</rscale>
<asrwt>0</asrwt>
<pdfrwt beam="1">  1        3 0.26351937E+00 0.18963534E+04</pdfrwt>
<pdfrwt beam="2">  1       -3 0.69625760E-01 0.18963534E+04</pdfrwt>
<totfact> 0.30132243E-01</totfact>
</mgrwt>
</event>
<event>
 8    1  0.1649749E-011  0.2339238E+04  0.7818608E-02  0.8462609E-01
         -3   -1    0    0    0  501 -0.00000000000E+00  0.00000000000E+00  0.11476107077E+04  0.11476107122E+04  0.10100000000E+00 0. -1.
          3   -1    0    0  501    0  0.00000000000E+00 -0.00000000000E+00 -0.11920497278E+04  0.11920497320E+04  0.10100000000E+00 0.  1.
     200001    2    1    2    0    0  0.29435800546E+02 -0.31445776652E+03  0.86033729407E+03  0.11529126480E+04  0.69948349585E+03 0.  0.
    5000001    2    3    3    0    0 -0.13822895900E+02 -0.15080869001E+03  0.25649753665E+03  0.35086851718E+03  0.18542760477E+03 0.  0.
        -11    1    4    4    0    0  0.74569874747E+02 -0.11179412162E+03  0.11468599950E+03  0.17666768332E+03  0.51100000000E-03 0. -1.
     200002    1    4    4    0    0 -0.88392770647E+02 -0.39014568384E+02  0.14181153715E+03  0.17420083386E+03  0.30000000000E+02 0. -1.
     200000    1    3    3    0    0  0.43258696446E+02 -0.16364907651E+03  0.60383975742E+03  0.80204413077E+03  0.50000000000E+03 0. -1.
    -200001    1    1    2    0    0 -0.29435800546E+02  0.31445776652E+03 -0.90477631411E+03  0.11867477962E+04  0.70000000000E+03 0.  1.
<mgrwt>
<rscale>  0 0.23392384E+04</rscale>
<asrwt>0</asrwt>
<pdfrwt beam="1">  1        3 0.17029282E+00 0.23392384E+04</pdfrwt>
<pdfrwt beam="2">  1       -3 0.16394439E+00 0.23392384E+04</pdfrwt>
<totfact> 0.14020907E-01</totfact>
</mgrwt>
</event>
<event>
 8    1  0.1649749E-011  0.1699287E+04  0.7818608E-02  0.8761771E-01
          3   -1    0    0  501    0  0.00000000000E+00  0.00000000000E+00  0.13263066110E+04  0.13263066149E+04  0.10100000000E+00 0. -1.
         -3   -1    0    0    0  501 -0.00000000000E+00 -0.00000000000E+00 -0.54428924026E+03  0.54428924963E+03  0.10100000000E+00 0.  1.
     200001    2    1    2    0    0 -0.72741424753E+02  0.47119944463E+03  0.31533218537E+03  0.90358226908E+03  0.69979018168E+03 0.  0.
    5000001    2    3    3    0    0 -0.99567513857E+02  0.34281121676E+02  0.79569255110E+02  0.19845716013E+03  0.14820625132E+03 0.  0.
        -11    1    4    4    0    0 -0.11917477828E+03  0.63882101216E+02  0.62174220518E+02  0.14882602035E+03  0.51100000000E-03 0. -1.
     200002    1    4    4    0    0  0.19607264426E+02 -0.29600979540E+02  0.17395034591E+02  0.49631139786E+02  0.30000000000E+02 0. -1.
     200000    1    3    3    0    0  0.26826089103E+02  0.43691832295E+03  0.23576293026E+03  0.70512510895E+03  0.50000000000E+03 0. -1.
    -200001    1    1    2    0    0  0.72741424753E+02 -0.47119944463E+03  0.46668518542E+03  0.96701359545E+03  0.70000000000E+03 0.  1.
<mgrwt>
<rscale>  0 0.16992874E+04</rscale>
<asrwt>0</asrwt>
<pdfrwt beam="1">  1        3 0.18947237E+00 0.16992874E+04</pdfrwt>
<pdfrwt beam="2">  1       -3 0.77755607E-01 0.16992874E+04</pdfrwt>
<totfact> 0.66790691E-01</totfact>
</mgrwt>
</event>
<event>
 8    1  0.1649749E-011  0.1460409E+04  0.7818608E-02  0.8911216E-01
          3   -1    0    0  501    0  0.00000000000E+00  0.00000000000E+00  0.12203232674E+04  0.12203232716E+04  0.10100000000E+00 0. -1.
         -3   -1    0    0    0  501 -0.00000000000E+00 -0.00000000000E+00 -0.43693205974E+03  0.43693207141E+03  0.10100000000E+00 0.  1.
     200001    2    1    2    0    0 -0.12831188818E+03 -0.10488884923E+03  0.25322557595E+03  0.76364401339E+03  0.70111580750E+03 0.  0.
    5000001    2    3    3    0    0 -0.36620880509E+02 -0.53846379440E+02  0.17767979667E+03  0.24719484902E+03  0.15904295574E+03 0.  0.
        -11    1    4    4    0    0 -0.76297487761E+02 -0.23987525674E+02  0.24892388616E+02  0.83763590168E+02  0.51100000000E-03 0. -1.
     200002    1    4    4    0    0  0.39676607251E+02 -0.29858853766E+02  0.15278740805E+03  0.16343125885E+03  0.30000000000E+02 0. -1.
     200000    1    3    3    0    0 -0.91691007672E+02 -0.51042469794E+02  0.75545779283E+02  0.51644916437E+03  0.50000000000E+03 0.  1.
    -200001    1    1    2    0    0  0.12831188818E+03  0.10488884923E+03  0.53016563171E+03  0.89361132960E+03  0.70000000000E+03 0.  1.
<mgrwt>
<rscale>  0 0.14604087E+04</rscale>
<asrwt>0</asrwt>
<pdfrwt beam="1">  1        3 0.17433190E+00 0.14604087E+04</pdfrwt>
<pdfrwt beam="2">  1       -3 0.62418866E-01 0.14604087E+04</pdfrwt>
<totfact> 0.13822589E+00</totfact>
</mgrwt>
</event>
<event>
 8    1  0.1649749E-011  0.1622570E+04  0.7818608E-02  0.8806801E-01
         -3   -1    0    0    0  501 -0.00000000000E+00  0.00000000000E+00  0.38201542888E+03  0.38201544224E+03  0.10100000000E+00 0. -1.
          3   -1    0    0  501    0  0.00000000000E+00 -0.00000000000E+00 -0.17229231468E+04  0.17229231498E+04  0.10100000000E+00 0.  1.
     200001    2    1    2    0    0 -0.38982368272E+03  0.11646118891E+03 -0.74046760021E+03  0.10969435290E+04  0.69961927267E+03 0.  0.
    5000001    2    3    3    0    0 -0.95083662192E+02  0.70127843151E+01 -0.13362132435E+03  0.25011826042E+03  0.18871778907E+03 0.  0.
        -11    1    4    4    0    0 -0.42580818731E+02  0.16394918566E+02 -0.17195781508E+03  0.17790843051E+03  0.51100000000E-03 0. -1.
     200002    1    4    4    0    0 -0.52502843462E+02 -0.93821342510E+01  0.38336490723E+02  0.72209829910E+02  0.30000000000E+02 0. -1.
     200000    1    3    3    0    0 -0.29474002052E+03  0.10944840459E+03 -0.60684627585E+03  0.84682526857E+03  0.50000000000E+03 0.  1.
    -200001    1    1    2    0    0  0.38982368272E+03 -0.11646118891E+03 -0.60044011773E+03  0.10079950630E+04  0.70000000000E+03 0.  1.
<mgrwt>
<rscale>  0 0.16225699E+04</rscale>
<asrwt>0</asrwt>
<pdfrwt beam="1">  1        3 0.24613188E+00 0.16225699E+04</pdfrwt>
<pdfrwt beam="2">  1       -3 0.54573635E-01 0.16225699E+04</pdfrwt>
<totfact> 0.65009217E-01</totfact>
</mgrwt>
</event>
<event>
 8    1  0.1649749E-011  0.1674140E+04  0.7818608E-02  0.8776252E-01
          3   -1    0    0  501    0  0.00000000000E+00  0.00000000000E+00  0.23980981983E+04  0.23980982005E+04  0.10100000000E+00 0.  1.
         -3   -1    0    0    0  501 -0.00000000000E+00 -0.00000000000E+00 -0.29218419054E+03  0.29218420799E+03  0.10100000000E+00 0. -1.
     200001    2    1    2    0    0 -0.94125359738E+02 -0.26449669661E+03  0.46888177711E+03  0.88786941189E+03  0.69974558649E+03 0.  0.
    5000001    2    3    3    0    0  0.25283575255E+02 -0.37490695956E+02  0.21684539680E+03  0.27198585546E+03  0.15782765281E+03 0.  0.
        -11    1    4    4    0    0 -0.35090164547E+02  0.31224803998E+02  0.16626265753E+02  0.49827108543E+02  0.51100000000E-03 0. -1.
     200002    1    4    4    0    0  0.60373739802E+02 -0.68715499953E+02  0.20021913105E+03  0.22215874691E+03  0.30000000000E+02 0. -1.
     200000    1    3    3    0    0 -0.11940893499E+03 -0.22700600066E+03  0.25203638030E+03  0.61588355643E+03  0.50000000000E+03 0. -1.
    -200001    1    1    2    0    0  0.94125359738E+02  0.26449669661E+03  0.16370322307E+04  0.18024129966E+04  0.70000000000E+03 0.  1.
<mgrwt>
<rscale>  0 0.16741403E+04</rscale>
<asrwt>0</asrwt>
<pdfrwt beam="1">  1        3 0.34258544E+00 0.16741403E+04</pdfrwt>
<pdfrwt beam="2">  1       -3 0.41740602E-01 0.16741403E+04</pdfrwt>
<totfact> 0.32594300E-01</totfact>
</mgrwt>
</event>
<event>
 8    1  0.1649749E-011  0.1531313E+04  0.7818608E-02  0.8863893E-01
          3   -1    0    0  501    0  0.00000000000E+00  0.00000000000E+00  0.11003390289E+04  0.11003390336E+04  0.10100000000E+00 0. -1.
         -3   -1    0    0    0  501 -0.00000000000E+00 -0.00000000000E+00 -0.53277169276E+03  0.53277170233E+03  0.10100000000E+00 0.  1.
     200001    2    1    2    0    0 -0.18126228658E+03 -0.10961190601E+03  0.52582283345E+03  0.90057173353E+03  0.69976353763E+03 0.  0.
    5000001    2    3    3    0    0 -0.14369091436E+03 -0.60647053921E+02  0.13551485787E+03  0.26327315316E+03  0.16316657885E+03 0.  0.
        -11    1    4    4    0    0 -0.40487948376E+02 -0.10263397539E+03  0.66651370683E+02  0.12890078387E+03  0.51100000000E-03 0. -1.
     200002    1    4    4    0    0 -0.10320296598E+03  0.41986921466E+02  0.68863487186E+02  0.13437236929E+03  0.30000000000E+02 0. -1.
     200000    1    3    3    0    0 -0.37571372225E+02 -0.48964852085E+02  0.39030797558E+03  0.63729858038E+03  0.50000000000E+03 0. -1.
    -200001    1    1    2    0    0  0.18126228658E+03  0.10961190601E+03  0.41744502719E+02  0.73253900236E+03  0.70000000000E+03 0.  1.
<mgrwt>
<rscale>  0 0.15313125E+04</rscale>
<asrwt>0</asrwt>
<pdfrwt beam="1">  1        3 0.15719129E+00 0.15313125E+04</pdfrwt>
<pdfrwt beam="2">  1       -3 0.76110243E-01 0.15313125E+04</pdfrwt>
<totfact> 0.11808674E+00</totfact>
</mgrwt>
</event>
<event>
 8    1  0.1649749E-011  0.1772477E+04  0.7818608E-02  0.8721074E-01
         -3   -1    0    0    0  501 -0.00000000000E+00  0.00000000000E+00  0.18212158357E+04  0.18212158385E+04  0.10100000000E+00 0. -1.
          3   -1    0    0  501    0  0.00000000000E+00 -0.00000000000E+00 -0.43126059379E+03  0.43126060561E+03  0.10100000000E+00 0.  1.
     200001    2    1    2    0    0 -0.36333212404E+03 -0.18801590718E+03  0.24028511400E+03  0.84567097899E+03  0.70004446643E+03 0.  0.
    5000001    2    3    3    0    0 -0.14299294745E+03 -0.38959379648E+01  0.37699504050E+02  0.23453233256E+03  0.18199450831E+03 0.  0.
        -11    1    4    4    0    0 -0.63450652507E+02  0.54041634509E+02  0.86975716737E+02  0.12046268661E+03  0.51100000000E-03 0. -1.
     200002    1    4    4    0    0 -0.79542294946E+02 -0.57937572474E+02 -0.49276212687E+02  0.11406964595E+03  0.30000000000E+02 0. -1.
     200000    1    3    3    0    0 -0.22033917658E+03 -0.18411996921E+03  0.20258560995E+03  0.61113864643E+03  0.50000000000E+03 0.  1.
    -200001    1    1    2    0    0  0.36333212404E+03  0.18801590718E+03  0.11496701280E+04  0.14068054652E+04  0.70000000000E+03 0. -1.
<mgrwt>
<rscale>  0 0.17724770E+04</rscale>
<asrwt>0</asrwt>
<pdfrwt beam="1">  1        3 0.61608658E-01 0.17724770E+04</pdfrwt>
<pdfrwt beam="2">  1       -3 0.26017369E+00 0.17724770E+04</pdfrwt>
<totfact> 0.40884802E-01</totfact>
</mgrwt>
</event>
<event>
 8    1  0.1649749E-011  0.2207358E+04  0.7818608E-02  0.8515372E-01
         -3   -1    0    0    0  501 -0.00000000000E+00  0.00000000000E+00  0.80945620185E+03  0.80945620816E+03  0.10100000000E+00 0. -1.
          3   -1    0    0  501    0  0.00000000000E+00 -0.00000000000E+00 -0.15048467527E+04  0.15048467561E+04  0.10100000000E+00 0.  1.
     200001    2    1    2    0    0  0.76288851852E+03 -0.38205868087E+03 -0.33156522399E+03  0.11522631217E+04  0.69986218393E+03 0.  0.
    5000001    2    3    3    0    0  0.16658925991E+03 -0.81160332686E+02 -0.61258474458E+02  0.27523498039E+03  0.19406883474E+03 0.  0.
        -11    1    4    4    0    0  0.84480203475E+02  0.58366282816E+02 -0.12034313864E+02  0.10338448849E+03  0.51100000000E-03 0. -1.
     200002    1    4    4    0    0  0.82109056432E+02 -0.13952661550E+03 -0.49224160594E+02  0.17185049190E+03  0.30000000000E+02 0. -1.
     200000    1    3    3    0    0  0.59629925861E+03 -0.30089834818E+03 -0.27030674953E+03  0.87702814128E+03  0.50000000000E+03 0. -1.
    -200001    1    1    2    0    0 -0.76288851852E+03  0.38205868087E+03 -0.36382532688E+03  0.11620398426E+04  0.70000000000E+03 0.  1.
<mgrwt>
<rscale>  0 0.22073582E+04</rscale>
<asrwt>0</asrwt>
<pdfrwt beam="1">  1        3 0.21497811E+00 0.22073582E+04</pdfrwt>
<pdfrwt beam="2">  1       -3 0.11563660E+00 0.22073582E+04</pdfrwt>
<totfact> 0.17688787E-01</totfact>
</mgrwt>
</event>
<event>
 8    1  0.1649749E-011  0.1530875E+04  0.7818608E-02  0.8864177E-01
          3   -1    0    0  501    0  0.00000000000E+00  0.00000000000E+00  0.58426871325E+03  0.58426872198E+03  0.10100000000E+00 0.  1.
         -3   -1    0    0    0  501 -0.00000000000E+00 -0.00000000000E+00 -0.10027830602E+04  0.10027830653E+04  0.10100000000E+00 0. -1.
     200001    2    1    2    0    0 -0.90830454181E+02 -0.29265619490E+03 -0.24771748749E+03  0.80406431162E+03  0.70089774133E+03 0.  0.
    5000001    2    3    3    0    0 -0.11487610743E+03 -0.71050105908E+02 -0.14948201830E+03  0.24788299269E+03  0.14441768127E+03 0.  0.
        -11    1    4    4    0    0 -0.13427546038E+03 -0.83396661166E+02 -0.13328333758E+03  0.20675916045E+03  0.51100000000E-03 0. -1.
     200002    1    4    4    0    0  0.19399352945E+02  0.12346555258E+02 -0.16198680721E+02  0.41123832245E+02  0.30000000000E+02 0. -1.
     200000    1    3    3    0    0  0.24045653250E+02 -0.22160608899E+03 -0.98235469188E+02  0.55618131893E+03  0.50000000000E+03 0.  1.
    -200001    1    1    2    0    0  0.90830454181E+02  0.29265619490E+03 -0.17079685946E+03  0.78298747565E+03  0.70000000000E+03 0. -1.
<mgrwt>
<rscale>  0 0.15308753E+04</rscale>
<asrwt>0</asrwt>
<pdfrwt beam="1">  1        3 0.83466960E-01 0.15308753E+04</pdfrwt>
<pdfrwt beam="2">  1       -3 0.14325472E+00 0.15308753E+04</pdfrwt>
<totfact> 0.12202343E+00</totfact>
</mgrwt>
</event>
<event>
 8    1  0.1649749E-011  0.2971967E+04  0.7818608E-02  0.8251781E-01
          3   -1    0    0  501    0  0.00000000000E+00  0.00000000000E+00  0.10137575562E+04  0.10137575613E+04  0.10100000000E+00 0.  1.
         -3   -1    0    0    0  501 -0.00000000000E+00 -0.00000000000E+00 -0.21781808801E+04  0.21781808825E+04  0.10100000000E+00 0. -1.
     200001    2    1    2    0    0  0.32050660401E+03 -0.11242218600E+04  0.53772449661E+02  0.13642075510E+04  0.70112159583E+03 0.  0.
    5000001    2    3    3    0    0  0.73696807571E+02 -0.36280817930E+03 -0.12182832423E+02  0.41815471525E+03  0.19402048879E+03 0.  0.
        -11    1    4    4    0    0  0.83176563570E+02 -0.37133953128E+03 -0.28679193735E+02  0.38162007858E+03  0.51100000000E-03 0. -1.
     200002    1    4    4    0    0 -0.94797559997E+01  0.85313519834E+01  0.16496361313E+02  0.36534636676E+02  0.30000000000E+02 0. -1.
     200000    1    3    3    0    0  0.24680979644E+03 -0.76141368067E+03  0.65955282084E+02  0.94605283572E+03  0.50000000000E+03 0.  1.
    -200001    1    1    2    0    0 -0.32050660401E+03  0.11242218600E+04 -0.12181957736E+04  0.18277308928E+04  0.70000000000E+03 0. -1.
<mgrwt>
<rscale>  0 0.29719673E+04</rscale>
<asrwt>0</asrwt>
<pdfrwt beam="1">  1        3 0.14482251E+00 0.29719673E+04</pdfrwt>
<pdfrwt beam="2">  1       -3 0.31116870E+00 0.29719673E+04</pdfrwt>
<totfact> 0.26228411E-02</totfact>
</mgrwt>
</event>
<event>
 8    1  0.1649749E-011  0.1879123E+04  0.7818608E-02  0.8665319E-01
          3   -1    0    0  501    0  0.00000000000E+00  0.00000000000E+00  0.45482573062E+03  0.45482574183E+03  0.10100000000E+00 0.  1.
         -3   -1    0    0    0  501 -0.00000000000E+00 -0.00000000000E+00 -0.19409089567E+04  0.19409089593E+04  0.10100000000E+00 0. -1.
     200001    2    1    2    0    0  0.57814322771E+03  0.15805009067E+03 -0.97487991656E+03  0.13419044271E+04  0.70077615312E+03 0.  0.
    5000001    2    3    3    0    0  0.19366048076E+03 -0.13655080447E+02 -0.28485724530E+03  0.39140932696E+03  0.18538276080E+03 0.  0.
        -11    1    4    4    0    0  0.12989626740E+03  0.31605689795E+02 -0.27664819302E+03  0.30725589109E+03  0.51100000000E-03 0. -1.
     200002    1    4    4    0    0  0.63764213358E+02 -0.45260770243E+02 -0.82090522791E+01  0.84153435862E+02  0.30000000000E+02 0. -1.
     200000    1    3    3    0    0  0.38448274696E+03  0.17170517111E+03 -0.69002267126E+03  0.95049510012E+03  0.50000000000E+03 0. -1.
    -200001    1    1    2    0    0 -0.57814322771E+03 -0.15805009067E+03 -0.51120330954E+03  0.10538302741E+04  0.70000000000E+03 0.  1.
<mgrwt>
<rscale>  0 0.18791225E+04</rscale>
<asrwt>0</asrwt>
<pdfrwt beam="1">  1        3 0.64975107E-01 0.18791225E+04</pdfrwt>
<pdfrwt beam="2">  1       -3 0.27727270E+00 0.18791225E+04</pdfrwt>
<totfact> 0.28908993E-01</totfact>
</mgrwt>
</event>
<event>
 8    1  0.1649749E-011  0.1583606E+04  0.7818608E-02  0.8830683E-01
         -3   -1    0    0    0  501 -0.00000000000E+00  0.00000000000E+00  0.50495640490E+03  0.50495641500E+03  0.10100000000E+00 0. -1.
          3   -1    0    0  501    0  0.00000000000E+00 -0.00000000000E+00 -0.12415965009E+04  0.12415965050E+04  0.10100000000E+00 0.  1.
     200001    2    1    2    0    0  0.31316576877E+03 -0.55686481236E+02 -0.15787045216E+03  0.78418704180E+03  0.69917984377E+03 0.  0.
    5000001    2    3    3    0    0  0.13980593289E+03 -0.56954239794E+02 -0.16670253687E+03  0.25491088927E+03  0.12000142237E+03 0.  0.
        -11    1    4    4    0    0  0.23977306454E+02  0.33349741871E+02 -0.51381388602E+02  0.65781179699E+02  0.51100000000E-03 0. -1.
     200002    1    4    4    0    0  0.11582862644E+03 -0.90303981665E+02 -0.11532114827E+03  0.18912970958E+03  0.30000000000E+02 0. -1.
     200000    1    3    3    0    0  0.17335983588E+03  0.12677585577E+01  0.88320847090E+01  0.52927615252E+03  0.50000000000E+03 0. -1.
    -200001    1    1    2    0    0 -0.31316576877E+03  0.55686481236E+02 -0.57876964383E+03  0.96236587821E+03  0.70000000000E+03 0.  1.
<mgrwt>
<rscale>  0 0.15836062E+04</rscale>
<asrwt>0</asrwt>
<pdfrwt beam="1">  1        3 0.17737093E+00 0.15836062E+04</pdfrwt>
<pdfrwt beam="2">  1       -3 0.72136631E-01 0.15836062E+04</pdfrwt>
<totfact> 0.95589472E-01</totfact>
</mgrwt>
</event>
<event>
 8    1  0.1649749E-011  0.1950209E+04  0.7818608E-02  0.8630260E-01
         -3   -1    0    0    0  501 -0.00000000000E+00  0.00000000000E+00  0.11673448349E+04  0.11673448392E+04  0.10100000000E+00 0.  1.
          3   -1    0    0  501    0  0.00000000000E+00 -0.00000000000E+00 -0.81452251999E+03  0.81452252625E+03  0.10100000000E+00 0. -1.
     200001    2    1    2    0    0  0.50075900222E+03  0.35741139998E+03 -0.11702599623E+03  0.93819120757E+03  0.69857366901E+03 0.  0.
    5000001    2    3    3    0    0  0.10960135146E+03  0.51145433844E+02 -0.92693126482E+02  0.23292867609E+03  0.17616878499E+03 0.  0.
        -11    1    4    4    0    0  0.14435681926E+03  0.17173542441E+02 -0.30595262178E+02  0.14855938844E+03  0.51100000000E-03 0. -1.
     200002    1    4    4    0    0 -0.34755467799E+02  0.33971891403E+02 -0.62097864304E+02  0.84369287650E+02  0.30000000000E+02 0. -1.
     200000    1    3    3    0    0  0.39115765076E+03  0.30626596613E+03 -0.24332869745E+02  0.70526253148E+03  0.50000000000E+03 0. -1.
    -200001    1    1    2    0    0 -0.50075900222E+03 -0.35741139998E+03  0.46984831109E+03  0.10436761579E+04  0.70000000000E+03 0.  1.
<mgrwt>
<rscale>  0 0.19502089E+04</rscale>
<asrwt>0</asrwt>
<pdfrwt beam="1">  1        3 0.11636036E+00 0.19502089E+04</pdfrwt>
<pdfrwt beam="2">  1       -3 0.16676355E+00 0.19502089E+04</pdfrwt>
<totfact> 0.36531824E-01</totfact>
</mgrwt>
</event>
<event>
 8    1  0.1649749E-011  0.2173420E+04  0.7818608E-02  0.8529573E-01
         -3   -1    0    0    0  501 -0.00000000000E+00  0.00000000000E+00  0.56976839869E+03  0.56976840764E+03  0.10100000000E+00 0. -1.
          3   -1    0    0  501    0  0.00000000000E+00 -0.00000000000E+00 -0.20726643124E+04  0.20726643148E+04  0.10100000000E+00 0.  1.
     200001    2    1    2    0    0  0.32368946913E+03  0.53206004196E+03 -0.14207237889E+04  0.17018929738E+04  0.70008631573E+03 0.  0.
    5000001    2    3    3    0    0  0.96196548150E+02  0.26323414111E+03 -0.38750676219E+03  0.50124405835E+03  0.15012703406E+03 0.  0.
        -11    1    4    4    0    0 -0.42637312598E+01  0.12314642546E+02 -0.11682478302E+03  0.11754939282E+03  0.51100000000E-03 0. -1.
     200002    1    4    4    0    0  0.10046027941E+03  0.25091949857E+03 -0.27068197918E+03  0.38369466553E+03  0.30000000000E+02 0. -1.
     200000    1    3    3    0    0  0.22749292098E+03  0.26882590084E+03 -0.10332170267E+04  0.12006489155E+04  0.50000000000E+03 0.  1.
    -200001    1    1    2    0    0 -0.32368946913E+03 -0.53206004196E+03 -0.82172124810E+02  0.94053974864E+03  0.70000000000E+03 0. -1.
<mgrwt>
<rscale>  0 0.21734200E+04</rscale>
<asrwt>0</asrwt>
<pdfrwt beam="1">  1        3 0.29609490E+00 0.21734200E+04</pdfrwt>
<pdfrwt beam="2">  1       -3 0.81395488E-01 0.21734200E+04</pdfrwt>
<totfact> 0.13713339E-01</totfact>
</mgrwt>
</event>
<event>
 8    1  0.1649749E-011  0.1855519E+04  0.7818608E-02  0.8677320E-01
          3   -1    0    0  501    0  0.00000000000E+00  0.00000000000E+00  0.78249326376E+03  0.78249327028E+03  0.10100000000E+00 0.  1.
         -3   -1    0    0    0  501 -0.00000000000E+00 -0.00000000000E+00 -0.10999934467E+04  0.10999934513E+04  0.10100000000E+00 0. -1.
     200001    2    1    2    0    0 -0.88319910372E+02 -0.26533943986E+03  0.38986173918E+03  0.84877190901E+03  0.70015437793E+03 0.  0.
    5000001    2    3    3    0    0  0.44063623032E+02 -0.12013878280E+03  0.20584691730E+03  0.28090741338E+03  0.14198975851E+03 0.  0.
        -11    1    4    4    0    0 -0.43978635148E+02 -0.12142183051E+02  0.72890642825E+02  0.85991852931E+02  0.51100000000E-03 0. -1.
     200002    1    4    4    0    0  0.88042258180E+02 -0.10799659975E+03  0.13295627448E+03  0.19491556045E+03  0.30000000000E+02 0. -1.
     200000    1    3    3    0    0 -0.13238353340E+03 -0.14520065706E+03  0.18401482188E+03  0.56786449563E+03  0.50000000000E+03 0.  1.
    -200001    1    1    2    0    0  0.88319910372E+02  0.26533943986E+03 -0.70736192211E+03  0.10337148126E+04  0.70000000000E+03 0. -1.
<mgrwt>
<rscale>  0 0.18555188E+04</rscale>
<asrwt>0</asrwt>
<pdfrwt beam="1">  1        3 0.11178475E+00 0.18555188E+04</pdfrwt>
<pdfrwt beam="2">  1       -3 0.15714192E+00 0.18555188E+04</pdfrwt>
<totfact> 0.47507118E-01</totfact>
</mgrwt>
</event>
<event>
 8    1  0.1857221E-011  0.1478010E+04  0.7818608E-02  0.8899209E-01
         -3   -1    0    0    0  501 -0.00000000000E+00  0.00000000000E+00  0.62309809781E+03  0.62309810599E+03  0.10100000000E+00 0. -1.
          3   -1    0    0  501    0  0.00000000000E+00 -0.00000000000E+00 -0.87647282393E+03  0.87647282975E+03  0.10100000000E+00 0.  1.
     200001    2    1    2    0    0 -0.14140134494E+03 -0.17655639193E+03 -0.70146599698E+02  0.74145547871E+03  0.70261595596E+03 0.  0.
    5000001    2    3    3    0    0 -0.55966413274E+02 -0.38326428767E+01  0.46123613642E+02  0.19313861453E+03  0.17896426492E+03 0.  0.
        -11    1    4    4    0    0  0.24613660602E+02 -0.30098349769E+02  0.86307641118E+02  0.94661247946E+02  0.51100000000E-03 0. -1.
     200002    1    4    4    0    0 -0.80580073876E+02  0.26265706892E+02 -0.40184027476E+02  0.98477366581E+02  0.30000000000E+02 0. -1.
     200000    1    3    3    0    0 -0.85434931664E+02 -0.17272374906E+03 -0.11627021334E+03  0.54831686418E+03  0.50000000000E+03 0. -1.
    -200001    1    1    2    0    0  0.14140134494E+03  0.17655639193E+03 -0.18322812643E+03  0.75811545704E+03  0.70000000000E+03 0. -1.
<mgrwt>
<rscale>  0 0.14780102E+04</rscale>
<asrwt>0</asrwt>
<pdfrwt beam="1">  1        3 0.12521040E+00 0.14780102E+04</pdfrwt>
<pdfrwt beam="2">  1       -3 0.89014015E-01 0.14780102E+04</pdfrwt>
<totfact> 0.14875336E+00</totfact>
</mgrwt>
</event>
<event>
 8    1  0.1649749E-011  0.1590455E+04  0.7818608E-02  0.8826434E-01
         -3   -1    0    0    0  501 -0.00000000000E+00  0.00000000000E+00  0.14554165782E+04  0.14554165817E+04  0.10100000000E+00 0. -1.
          3   -1    0    0  501    0  0.00000000000E+00 -0.00000000000E+00 -0.43450552035E+03  0.43450553209E+03  0.10100000000E+00 0.  1.
     200001    2    1    2    0    0  0.18317259954E+03 -0.32983296486E+03  0.53066538130E+03  0.95574717873E+03  0.69964629407E+03 0.  0.
    5000001    2    3    3    0    0  0.71287277738E+02  0.57140969566E+02  0.17886557695E+03  0.22360630874E+03  0.98284893666E+02 0.  0.
        -11    1    4    4    0    0  0.12662712413E+01  0.41318972778E+02  0.11736313698E+03  0.12443057051E+03  0.51100000000E-03 0. -1.
     200002    1    4    4    0    0  0.70021006496E+02  0.15821996789E+02  0.61502439967E+02  0.99175738238E+02  0.30000000000E+02 0. -1.
     200000    1    3    3    0    0  0.11188532180E+03 -0.38697393443E+03  0.35179980436E+03  0.73214086999E+03  0.50000000000E+03 0.  1.
    -200001    1    1    2    0    0 -0.18317259954E+03  0.32983296486E+03  0.49024567655E+03  0.93417493507E+03  0.70000000000E+03 0. -1.
<mgrwt>
<rscale>  0 0.15904547E+04</rscale>
<asrwt>0</asrwt>
<pdfrwt beam="1">  1        3 0.62072218E-01 0.15904547E+04</pdfrwt>
<pdfrwt beam="2">  1       -3 0.20791666E+00 0.15904547E+04</pdfrwt>
<totfact> 0.83412720E-01</totfact>
</mgrwt>
</event>
<event>
 8    1  0.1649749E-011  0.1428771E+04  0.7818608E-02  0.8933252E-01
         -3   -1    0    0    0  501 -0.00000000000E+00  0.00000000000E+00  0.72222505691E+03  0.72222506397E+03  0.10100000000E+00 0. -1.
          3   -1    0    0  501    0  0.00000000000E+00 -0.00000000000E+00 -0.70663117637E+03  0.70663118359E+03  0.10100000000E+00 0.  1.
     200001    2    1    2    0    0 -0.64349406065E+02  0.22794149276E+02 -0.11686720841E+03  0.71317031129E+03  0.70020963232E+03 0.  0.
    5000001    2    3    3    0    0  0.56189055274E+02 -0.67479924893E+01  0.71823079654E+00  0.18474946166E+03  0.17586671770E+03 0.  0.
        -11    1    4    4    0    0 -0.31053465705E+02  0.60438968425E+02 -0.14879375916E+02  0.69559919957E+02  0.51100000000E-03 0. -1.
     200002    1    4    4    0    0  0.87242520979E+02 -0.67186960914E+02  0.15597606712E+02  0.11518954171E+03  0.30000000000E+02 0. -1.
     200000    1    3    3    0    0 -0.12053846134E+03  0.29542141765E+02 -0.11758543920E+03  0.52842084962E+03  0.50000000000E+03 0.  1.
    -200001    1    1    2    0    0  0.64349406065E+02 -0.22794149276E+02  0.13246108894E+03  0.71568593628E+03  0.70000000000E+03 0. -1.
<mgrwt>
<rscale>  0 0.14287712E+04</rscale>
<asrwt>0</asrwt>
<pdfrwt beam="1">  1        3 0.10094731E+00 0.14287712E+04</pdfrwt>
<pdfrwt beam="2">  1       -3 0.10317501E+00 0.14287712E+04</pdfrwt>
<totfact> 0.17778614E+00</totfact>
</mgrwt>
</event>
<event>
 8    1  0.1649749E-011  0.1538451E+04  0.7818608E-02  0.8859278E-01
          3   -1    0    0  501    0  0.00000000000E+00  0.00000000000E+00  0.79447155413E+03  0.79447156055E+03  0.10100000000E+00 0. -1.
         -3   -1    0    0    0  501 -0.00000000000E+00 -0.00000000000E+00 -0.74478200447E+03  0.74478201131E+03  0.10100000000E+00 0.  1.
     200001    2    1    2    0    0 -0.85292392028E+02 -0.84734815774E+02 -0.26957934391E+03  0.76054476394E+03  0.70092833738E+03 0.  0.
    5000001    2    3    3    0    0 -0.42332394853E+02  0.16588419526E+02 -0.39113951846E+02  0.19909462696E+03  0.18984615334E+03 0.  0.
        -11    1    4    4    0    0 -0.11429211624E+03  0.13839918489E+02 -0.90193156255E+01  0.11547977846E+03  0.51100000000E-03 0. -1.
     200002    1    4    4    0    0  0.71959721389E+02  0.27485010366E+01 -0.30094636221E+02  0.83614848500E+02  0.30000000000E+02 0. -1.
     200000    1    3    3    0    0 -0.42959997175E+02 -0.10132323530E+03 -0.23046539207E+03  0.56145013698E+03  0.50000000000E+03 0.  1.
    -200001    1    1    2    0    0  0.85292392028E+02  0.84734815774E+02  0.31926889358E+03  0.77870880793E+03  0.70000000000E+03 0. -1.
<mgrwt>
<rscale>  0 0.15384513E+04</rscale>
<asrwt>0</asrwt>
<pdfrwt beam="1">  1        3 0.11349594E+00 0.15384513E+04</pdfrwt>
<pdfrwt beam="2">  1       -3 0.10639743E+00 0.15384513E+04</pdfrwt>
<totfact> 0.12416830E+00</totfact>
</mgrwt>
</event>
<event>
 8    1  0.1649749E-011  0.1788183E+04  0.7818608E-02  0.8712609E-01
         -3   -1    0    0    0  501 -0.00000000000E+00  0.00000000000E+00  0.69503068747E+03  0.69503069481E+03  0.10100000000E+00 0. -1.
          3   -1    0    0  501    0  0.00000000000E+00 -0.00000000000E+00 -0.11501646409E+04  0.11501646453E+04  0.10100000000E+00 0.  1.
     200001    2    1    2    0    0  0.15942122144E+02 -0.53719004935E+03 -0.37568071863E+03  0.95911401380E+03  0.69995456191E+03 0.  0.
    5000001    2    3    3    0    0 -0.35899105005E+02 -0.25855058177E+03 -0.12736479185E+03  0.33302435151E+03  0.16293029008E+03 0.  0.
        -11    1    4    4    0    0 -0.84844779744E+02 -0.72328495794E+02 -0.31523374408E+02  0.11586099899E+03  0.51100000000E-03 0. -1.
     200002    1    4    4    0    0  0.48945674739E+02 -0.18622208597E+03 -0.95841417447E+02  0.21716335252E+03  0.30000000000E+02 0. -1.
     200000    1    3    3    0    0  0.51841227148E+02 -0.27863946758E+03 -0.24831592678E+03  0.62608966228E+03  0.50000000000E+03 0.  1.
    -200001    1    1    2    0    0 -0.15942122144E+02  0.53719004935E+03 -0.79453234789E+02  0.88608132634E+03  0.70000000000E+03 0. -1.
<mgrwt>
<rscale>  0 0.17881831E+04</rscale>
<asrwt>0</asrwt>
<pdfrwt beam="1">  1        3 0.16430924E+00 0.17881831E+04</pdfrwt>
<pdfrwt beam="2">  1       -3 0.99290099E-01 0.17881831E+04</pdfrwt>
<totfact> 0.56293637E-01</totfact>
</mgrwt>
</event>
<event>
 8    1  0.1649749E-011  0.1657903E+04  0.7818608E-02  0.8785745E-01
          3   -1    0    0  501    0  0.00000000000E+00  0.00000000000E+00  0.11878983425E+04  0.11878983468E+04  0.10100000000E+00 0.  1.
         -3   -1    0    0    0  501 -0.00000000000E+00 -0.00000000000E+00 -0.57846727435E+03  0.57846728317E+03  0.10100000000E+00 0. -1.
     200001    2    1    2    0    0 -0.22086719605E+03 -0.27717279240E+03  0.58913031896E+03  0.98149672656E+03  0.70046714155E+03 0.  0.
    5000001    2    3    3    0    0  0.44959769441E+02 -0.76553574232E+02  0.27225111305E+03  0.30228801238E+03  0.96827389073E+02 0.  0.
        -11    1    4    4    0    0 -0.20785431422E+02 -0.17062621405E+02  0.12458400338E+03  0.12745328990E+03  0.51100000000E-03 0. -1.
     200002    1    4    4    0    0  0.65745200863E+02 -0.59490952827E+02  0.14766710967E+03  0.17483472248E+03  0.30000000000E+02 0. -1.
     200000    1    3    3    0    0 -0.26582696549E+03 -0.20061921817E+03  0.31687920591E+03  0.67920871418E+03  0.50000000000E+03 0. -1.
    -200001    1    1    2    0    0  0.22086719605E+03  0.27717279240E+03  0.20300749212E+02  0.78486890342E+03  0.70000000000E+03 0. -1.
<mgrwt>
<rscale>  0 0.16579027E+04</rscale>
<asrwt>0</asrwt>
<pdfrwt beam="1">  1        3 0.16969977E+00 0.16579027E+04</pdfrwt>
<pdfrwt beam="2">  1       -3 0.82638182E-01 0.16579027E+04</pdfrwt>
<totfact> 0.79358060E-01</totfact>
</mgrwt>
</event>
<event>
 8    1  0.1649749E-011  0.2076078E+04  0.7818608E-02  0.8571855E-01
          3   -1    0    0  501    0  0.00000000000E+00  0.00000000000E+00  0.83856191066E+03  0.83856191674E+03  0.10100000000E+00 0. -1.
         -3   -1    0    0    0  501 -0.00000000000E+00 -0.00000000000E+00 -0.12849673469E+04  0.12849673509E+04  0.10100000000E+00 0.  1.
     200001    2    1    2    0    0  0.74569915153E+03  0.14292995906E+03 -0.11181529867E+03  0.10379663915E+04  0.69883858733E+03 0.  0.
    5000001    2    3    3    0    0  0.83547459982E+02 -0.38537873467E+02 -0.42424931004E+02  0.18579829779E+03  0.15574269463E+03 0.  0.
        -11    1    4    4    0    0  0.83384299310E+01 -0.14073882711E+02  0.54647214663E+02  0.57043156109E+02  0.51100000000E-03 0. -1.
     200002    1    4    4    0    0  0.75209030051E+02 -0.24463990756E+02 -0.97072145667E+02  0.12875514168E+03  0.30000000000E+02 0. -1.
     200000    1    3    3    0    0  0.66215169155E+03  0.18146783253E+03 -0.69390367661E+02  0.85216809374E+03  0.50000000000E+03 0.  1.
    -200001    1    1    2    0    0 -0.74569915153E+03 -0.14292995906E+03 -0.33459013759E+03  0.10855628761E+04  0.70000000000E+03 0.  1.
<mgrwt>
<rscale>  0 0.20760777E+04</rscale>
<asrwt>0</asrwt>
<pdfrwt beam="1">  1        3 0.11979456E+00 0.20760777E+04</pdfrwt>
<pdfrwt beam="2">  1       -3 0.18356676E+00 0.20760777E+04</pdfrwt>
<totfact> 0.25874660E-01</totfact>
</mgrwt>
</event>
<event>
 8    1  0.1649749E-011  0.2022019E+04  0.7818608E-02  0.8596395E-01
         -3   -1    0    0    0  501 -0.00000000000E+00  0.00000000000E+00  0.21066967424E+04  0.21066967448E+04  0.10100000000E+00 0.  1.
          3   -1    0    0  501    0  0.00000000000E+00 -0.00000000000E+00 -0.48518603714E+03  0.48518604765E+03  0.10100000000E+00 0. -1.
     200001    2    1    2    0    0 -0.70574143875E+03  0.78446397364E+02  0.60379816340E+03  0.11671148698E+04  0.70239595779E+03 0.  0.
    5000001    2    3    3    0    0 -0.13082934888E+03  0.13710649984E+03  0.13865799846E+03  0.27250864817E+03  0.13827657779E+03 0.  0.
        -11    1    4    4    0    0 -0.63656839408E+02  0.13352172879E+03  0.13251858491E+03  0.19859864201E+03  0.51100000000E-03 0. -1.
     200002    1    4    4    0    0 -0.67172509469E+02  0.35847710550E+01  0.61394135490E+01  0.73910006160E+02  0.30000000000E+02 0. -1.
     200000    1    3    3    0    0 -0.57491208987E+03 -0.58660102481E+02  0.46514016494E+03  0.89460622161E+03  0.50000000000E+03 0. -1.
    -200001    1    1    2    0    0  0.70574143875E+03 -0.78446397364E+02  0.10177125418E+04  0.14247679227E+04  0.70000000000E+03 0. -1.
<mgrwt>
<rscale>  0 0.20220187E+04</rscale>
<asrwt>0</asrwt>
<pdfrwt beam="1">  1        3 0.69312293E-01 0.20220187E+04</pdfrwt>
<pdfrwt beam="2">  1       -3 0.30095668E+00 0.20220187E+04</pdfrwt>
<totfact> 0.18283359E-01</totfact>
</mgrwt>
</event>
<event>
 8    1  0.1649749E-011  0.1583488E+04  0.7818608E-02  0.8830757E-01
         -3   -1    0    0    0  501 -0.00000000000E+00  0.00000000000E+00  0.11650353497E+04  0.11650353541E+04  0.10100000000E+00 0. -1.
          3   -1    0    0  501    0  0.00000000000E+00 -0.00000000000E+00 -0.53805950714E+03  0.53805951662E+03  0.10100000000E+00 0.  1.
     200001    2    1    2    0    0 -0.13564199343E+03 -0.29364599255E+03  0.12071824365E+03  0.78063973589E+03  0.70014197387E+03 0.  0.
    5000001    2    3    3    0    0  0.42661562780E+02 -0.34495845868E+01  0.60164513114E+02  0.17263244347E+03  0.15604577318E+03 0.  0.
        -11    1    4    4    0    0  0.37722993423E+02  0.51268162175E+02  0.84224153596E+02  0.10557062439E+03  0.51100000000E-03 0. -1.
     200002    1    4    4    0    0  0.49385693572E+01 -0.54717746762E+02 -0.24059640482E+02  0.67061819079E+02  0.30000000000E+02 0. -1.
     200000    1    3    3    0    0 -0.17830355621E+03 -0.29019640796E+03  0.60553730532E+02  0.60800729242E+03  0.50000000000E+03 0.  1.
    -200001    1    1    2    0    0  0.13564199343E+03  0.29364599255E+03  0.50625759896E+03  0.92245513486E+03  0.70000000000E+03 0. -1.
<mgrwt>
<rscale>  0 0.15834877E+04</rscale>
<asrwt>0</asrwt>
<pdfrwt beam="1">  1        3 0.76865646E-01 0.15834877E+04</pdfrwt>
<pdfrwt beam="2">  1       -3 0.16643362E+00 0.15834877E+04</pdfrwt>
<totfact> 0.98482415E-01</totfact>
</mgrwt>
</event>
<event>
 8    1  0.1649749E-011  0.1955319E+04  0.7818608E-02  0.8627800E-01
         -3   -1    0    0    0  501 -0.00000000000E+00  0.00000000000E+00  0.77214661799E+03  0.77214662460E+03  0.10100000000E+00 0. -1.
          3   -1    0    0  501    0  0.00000000000E+00 -0.00000000000E+00 -0.12378712976E+04  0.12378713017E+04  0.10100000000E+00 0.  1.
     200001    2    1    2    0    0  0.40534338196E+03  0.35369476091E+03 -0.66431364280E+03  0.11051196904E+04  0.70040964644E+03 0.  0.
    5000001    2    3    3    0    0  0.18014662248E+03  0.43922681510E+02 -0.24658271780E+03  0.34936083507E+03  0.16391445579E+03 0.  0.
        -11    1    4    4    0    0  0.10388033906E+03  0.21438706016E+02 -0.20766973009E+02  0.10808334806E+03  0.51100000000E-03 0. -1.
     200002    1    4    4    0    0  0.76266283417E+02  0.22483975494E+02 -0.22581574479E+03  0.24127748701E+03  0.30000000000E+02 0. -1.
     200000    1    3    3    0    0  0.22519675947E+03  0.30977207940E+03 -0.41773092500E+03  0.75575885529E+03  0.50000000000E+03 0.  1.
    -200001    1    1    2    0    0 -0.40534338196E+03 -0.35369476091E+03  0.19858896317E+03  0.90489823598E+03  0.70000000000E+03 0. -1.
<mgrwt>
<rscale>  0 0.19553190E+04</rscale>
<asrwt>0</asrwt>
<pdfrwt beam="1">  1        3 0.17683876E+00 0.19553190E+04</pdfrwt>
<pdfrwt beam="2">  1       -3 0.11030666E+00 0.19553190E+04</pdfrwt>
<totfact> 0.35469716E-01</totfact>
</mgrwt>
</event>
<event>
 8    1  0.1649749E-011  0.2560911E+04  0.7818608E-02  0.8381602E-01
         -3   -1    0    0    0  501 -0.00000000000E+00  0.00000000000E+00  0.21424805067E+04  0.21424805091E+04  0.10100000000E+00 0. -1.
          3   -1    0    0  501    0  0.00000000000E+00 -0.00000000000E+00 -0.76526517848E+03  0.76526518515E+03  0.10100000000E+00 0.  1.
     200001    2    1    2    0    0 -0.57338235074E+03  0.84270548170E+03  0.10658970027E+04  0.16326617955E+04  0.70037723338E+03 0.  0.
    5000001    2    3    3    0    0 -0.68298360889E+02  0.30358705745E+03  0.26314560161E+03  0.43259166248E+03  0.14512122950E+03 0.  0.
        -11    1    4    4    0    0  0.11813414111E+02 -0.10574862986E+02  0.37400141884E+01  0.16290248203E+02  0.51100000000E-03 0. -1.
     200002    1    4    4    0    0 -0.80111775000E+02  0.31416192043E+03  0.25940558743E+03  0.41630141428E+03  0.30000000000E+02 0. -1.
     200000    1    3    3    0    0 -0.50508398985E+03  0.53911842426E+03  0.80275140105E+03  0.12000701330E+04  0.50000000000E+03 0. -1.
    -200001    1    1    2    0    0  0.57338235074E+03 -0.84270548170E+03  0.31131832553E+03  0.12750838987E+04  0.70000000000E+03 0.  1.
<mgrwt>
<rscale>  0 0.25609106E+04</rscale>
<asrwt>0</asrwt>
<pdfrwt beam="1">  1        3 0.10932360E+00 0.25609106E+04</pdfrwt>
<pdfrwt beam="2">  1       -3 0.30606864E+00 0.25609106E+04</pdfrwt>
<totfact> 0.58063979E-02</totfact>
</mgrwt>
</event>
