<event>
 4    1  0.1049403E-004  0.4555840E+03  0.7818608E-02  0.1026070E+00
          2   -1    0    0  501    0  0.00000000000E+00  0.00000000000E+00  0.45975656693E+03  0.45975656693E+03  0.25500000000E-02 0.  1.
         -2   -1    0    0    0  501 -0.00000000000E+00 -0.00000000000E+00 -0.11286233131E+03  0.11286233134E+03  0.25500000000E-02 0. -1.
    5000001    1    1    2    0    0 -0.38580538466E+02 -0.11762005823E+03  0.51968462054E+02  0.21271731734E+03  0.16500000000E+03 0.  0.
   -5000001    1    1    2    0    0  0.38580538466E+02  0.11762005823E+03  0.29492577356E+03  0.35990158093E+03  0.16500000000E+03 0.  0.
<mgrwt>
<rscale>  0 0.45558401E+03</rscale>
<asrwt>0</asrwt>
<pdfrwt beam="1">  1        2 0.65679510E-01 0.45558401E+03</pdfrwt>
<pdfrwt beam="2">  1       -2 0.16123190E-01 0.45558401E+03</pdfrwt>
<totfact> 0.22711643E+03</totfact>
</mgrwt>
</event>
<event>
 4    1  0.1049403E-004  0.5885850E+03  0.7818608E-02  0.9929376E-01
         -2   -1    0    0    0  501 -0.00000000000E+00  0.00000000000E+00  0.56030214167E+02  0.56030214225E+02  0.25500000000E-02 0. -1.
          2   -1    0    0  501    0  0.00000000000E+00 -0.00000000000E+00 -0.15457390118E+04  0.15457390118E+04  0.25500000000E-02 0.  1.
    5000001    1    1    2    0    0 -0.13778013749E+03 -0.19168704449E+03 -0.58031047247E+03  0.64785224687E+03  0.16500000000E+03 0.  0.
   -5000001    1    1    2    0    0  0.13778013749E+03  0.19168704449E+03 -0.90939832514E+03  0.95391697914E+03  0.16500000000E+03 0.  0.
<mgrwt>
<rscale>  0 0.58858504E+03</rscale>
<asrwt>0</asrwt>
<pdfrwt beam="1">  1        2 0.22081983E+00 0.58858504E+03</pdfrwt>
<pdfrwt beam="2">  1       -2 0.80043173E-02 0.58858504E+03</pdfrwt>
<totfact> 0.13801903E+03</totfact>
</mgrwt>
</event>
<event>
 4    1  0.1049403E-004  0.6653675E+03  0.7818608E-02  0.9778363E-01
          2   -1    0    0  501    0  0.00000000000E+00  0.00000000000E+00  0.32827995941E+03  0.32827995942E+03  0.25500000000E-02 0.  1.
         -2   -1    0    0    0  501 -0.00000000000E+00 -0.00000000000E+00 -0.33714662899E+03  0.33714662900E+03  0.25500000000E-02 0. -1.
    5000001    1    1    2    0    0 -0.93845586205E+01  0.16816715200E+03 -0.23915658215E+03  0.33584093220E+03  0.16500000000E+03 0.  0.
   -5000001    1    1    2    0    0  0.93845586205E+01 -0.16816715200E+03  0.23028991258E+03  0.32958565622E+03  0.16500000000E+03 0.  0.
<mgrwt>
<rscale>  0 0.66536751E+03</rscale>
<asrwt>0</asrwt>
<pdfrwt beam="1">  1        2 0.46897137E-01 0.66536751E+03</pdfrwt>
<pdfrwt beam="2">  1       -2 0.48163804E-01 0.66536751E+03</pdfrwt>
<totfact> 0.44402074E+02</totfact>
</mgrwt>
</event>
<event>
 4    1  0.1049403E-004  0.4606885E+03  0.7818608E-02  0.1024582E+00
          2   -1    0    0  501    0  0.00000000000E+00  0.00000000000E+00  0.27044905628E+02  0.27044905748E+02  0.25500000000E-02 0.  1.
         -2   -1    0    0    0  501 -0.00000000000E+00 -0.00000000000E+00 -0.19618657920E+04  0.19618657920E+04  0.25500000000E-02 0. -1.
    5000001    1    1    2    0    0 -0.11867969131E+03  0.10480644667E+03 -0.84806230106E+03  0.87835296258E+03  0.16500000000E+03 0.  0.
   -5000001    1    1    2    0    0  0.11867969131E+03 -0.10480644667E+03 -0.10867585853E+04  0.11105577351E+04  0.16500000000E+03 0.  0.
<mgrwt>
<rscale>  0 0.46068851E+03</rscale>
<asrwt>0</asrwt>
<pdfrwt beam="1">  1        2 0.38635592E-02 0.46068851E+03</pdfrwt>
<pdfrwt beam="2">  1       -2 0.28026645E+00 0.46068851E+03</pdfrwt>
<totfact> 0.10441617E+02</totfact>
</mgrwt>
</event>
<event>
 4    1  0.1049403E-004  0.8249190E+03  0.7818608E-02  0.9524632E-01
          2   -1    0    0  501    0  0.00000000000E+00  0.00000000000E+00  0.10958658023E+04  0.10958658023E+04  0.25500000000E-02 0. -1.
         -2   -1    0    0    0  501 -0.00000000000E+00 -0.00000000000E+00 -0.15524058735E+03  0.15524058737E+03  0.25500000000E-02 0.  1.
    5000001    1    1    2    0    0  0.13180863366E+03 -0.11534135125E+03 -0.37752561096E+02  0.24357216402E+03  0.16500000000E+03 0.  0.
   -5000001    1    1    2    0    0 -0.13180863366E+03  0.11534135125E+03  0.97837777602E+03  0.10075342256E+04  0.16500000000E+03 0.  0.
<mgrwt>
<rscale>  0 0.82491903E+03</rscale>
<asrwt>0</asrwt>
<pdfrwt beam="1">  1        2 0.15655225E+00 0.82491903E+03</pdfrwt>
<pdfrwt beam="2">  1       -2 0.22177227E-01 0.82491903E+03</pdfrwt>
<totfact> 0.43771416E+02</totfact>
</mgrwt>
</event>
<event>
 4    1  0.1049403E-004  0.4122564E+03  0.7818608E-02  0.1039616E+00
          2   -1    0    0  501    0  0.00000000000E+00  0.00000000000E+00  0.23836629052E+03  0.23836629053E+03  0.25500000000E-02 0.  1.
         -2   -1    0    0    0  501 -0.00000000000E+00 -0.00000000000E+00 -0.17825017484E+03  0.17825017486E+03  0.25500000000E-02 0. -1.
    5000001    1    1    2    0    0 -0.69852850224E+01 -0.11639031830E+03 -0.11219153282E+02  0.20235209364E+03  0.16500000000E+03 0.  0.
   -5000001    1    1    2    0    0  0.69852850224E+01  0.11639031830E+03  0.71335268958E+02  0.21426437174E+03  0.16500000000E+03 0.  0.
<mgrwt>
<rscale>  0 0.41225639E+03</rscale>
<asrwt>0</asrwt>
<pdfrwt beam="1">  1        2 0.34052327E-01 0.41225639E+03</pdfrwt>
<pdfrwt beam="2">  1       -2 0.25464311E-01 0.41225639E+03</pdfrwt>
<totfact> 0.21135736E+03</totfact>
</mgrwt>
</event>
<event>
 4    1  0.1049403E-004  0.9408393E+03  0.7818608E-02  0.9375923E-01
          2   -1    0    0  501    0  0.00000000000E+00  0.00000000000E+00  0.34273049285E+04  0.34273049285E+04  0.25500000000E-02 0.  1.
         -2   -1    0    0    0  501 -0.00000000000E+00 -0.00000000000E+00 -0.64568126437E+02  0.64568126488E+02  0.25500000000E-02 0. -1.
    5000001    1    1    2    0    0 -0.28015467325E+03 -0.14409247986E+03  0.28242304695E+04  0.28465333352E+04  0.16500000000E+03 0.  0.
   -5000001    1    1    2    0    0  0.28015467325E+03  0.14409247986E+03  0.53850633256E+03  0.64533971976E+03  0.16500000000E+03 0.  0.
<mgrwt>
<rscale>  0 0.94083932E+03</rscale>
<asrwt>0</asrwt>
<pdfrwt beam="1">  1        2 0.48961500E+00 0.94083932E+03</pdfrwt>
<pdfrwt beam="2">  1       -2 0.92240179E-02 0.94083932E+03</pdfrwt>
<totfact> 0.10826285E+02</totfact>
</mgrwt>
</event>
<event>
 4    1  0.1049403E-004  0.7372078E+03  0.7818608E-02  0.9655636E-01
         -2   -1    0    0    0  501 -0.00000000000E+00  0.00000000000E+00  0.82002783861E+02  0.82002783901E+02  0.25500000000E-02 0. -1.
          2   -1    0    0  501    0  0.00000000000E+00 -0.00000000000E+00 -0.16568807420E+04  0.16568807420E+04  0.25500000000E-02 0.  1.
    5000001    1    1    2    0    0  0.28649886745E+03  0.12341064432E+03 -0.53634591083E+03  0.64203093714E+03  0.16500000000E+03 0.  0.
   -5000001    1    1    2    0    0 -0.28649886745E+03 -0.12341064432E+03 -0.10385320473E+04  0.10968525888E+04  0.16500000000E+03 0.  0.
<mgrwt>
<rscale>  0 0.73720780E+03</rscale>
<asrwt>0</asrwt>
<pdfrwt beam="1">  1        2 0.23669723E+00 0.73720780E+03</pdfrwt>
<pdfrwt beam="2">  1       -2 0.11714684E-01 0.73720780E+03</pdfrwt>
<totfact> 0.64819450E+02</totfact>
</mgrwt>
</event>
<event>
 4    1  0.1049403E-004  0.3828789E+03  0.7818608E-02  0.1049875E+00
         -2   -1    0    0    0  501 -0.00000000000E+00  0.00000000000E+00  0.56101806411E+02  0.56101806469E+02  0.25500000000E-02 0. -1.
          2   -1    0    0  501    0  0.00000000000E+00 -0.00000000000E+00 -0.65326004856E+03  0.65326004856E+03  0.25500000000E-02 0.  1.
    5000001    1    1    2    0    0 -0.53184175422E+02  0.17175107393E+02 -0.15151902838E+03  0.23088212748E+03  0.16500000000E+03 0.  0.
   -5000001    1    1    2    0    0  0.53184175422E+02 -0.17175107393E+02 -0.44563921377E+03  0.47847972755E+03  0.16500000000E+03 0.  0.
<mgrwt>
<rscale>  0 0.38287893E+03</rscale>
<asrwt>0</asrwt>
<pdfrwt beam="1">  1        2 0.93322859E-01 0.38287893E+03</pdfrwt>
<pdfrwt beam="2">  1       -2 0.80145442E-02 0.38287893E+03</pdfrwt>
<totfact> 0.47267531E+03</totfact>
</mgrwt>
</event>
<event>
 4    1  0.1049403E-004  0.5680313E+03  0.7818608E-02  0.9974045E-01
         -2   -1    0    0    0  501 -0.00000000000E+00  0.00000000000E+00  0.68876091480E+02  0.68876091527E+02  0.25500000000E-02 0. -1.
          2   -1    0    0  501    0  0.00000000000E+00 -0.00000000000E+00 -0.11711594018E+04  0.11711594018E+04  0.25500000000E-02 0.  1.
    5000001    1    1    2    0    0  0.18012439039E+02 -0.20863593131E+03 -0.33739884902E+03  0.43001904971E+03  0.16500000000E+03 0.  0.
   -5000001    1    1    2    0    0 -0.18012439039E+02  0.20863593131E+03 -0.76488446125E+03  0.81001644357E+03  0.16500000000E+03 0.  0.
<mgrwt>
<rscale>  0 0.56803127E+03</rscale>
<asrwt>0</asrwt>
<pdfrwt beam="1">  1        2 0.16730847E+00 0.56803127E+03</pdfrwt>
<pdfrwt beam="2">  1       -2 0.98394424E-02 0.56803127E+03</pdfrwt>
<totfact> 0.15760015E+03</totfact>
</mgrwt>
</event>
<event>
 4    1  0.1049403E-004  0.5222920E+03  0.7818608E-02  0.1008119E+00
         -2   -1    0    0    0  501 -0.00000000000E+00  0.00000000000E+00  0.29896645285E+03  0.29896645286E+03  0.25500000000E-02 0. -1.
          2   -1    0    0  501    0  0.00000000000E+00 -0.00000000000E+00 -0.22810997873E+03  0.22810997874E+03  0.25500000000E-02 0.  1.
    5000001    1    1    2    0    0 -0.47078404585E+02  0.16355750124E+03  0.14599832961E+03  0.27840248677E+03  0.16500000000E+03 0.  0.
   -5000001    1    1    2    0    0  0.47078404585E+02 -0.16355750124E+03 -0.75141855488E+02  0.24867394483E+03  0.16500000000E+03 0.  0.
<mgrwt>
<rscale>  0 0.52229199E+03</rscale>
<asrwt>0</asrwt>
<pdfrwt beam="1">  1        2 0.32587140E-01 0.52229199E+03</pdfrwt>
<pdfrwt beam="2">  1       -2 0.42709493E-01 0.52229199E+03</pdfrwt>
<totfact> 0.84544485E+02</totfact>
</mgrwt>
</event>
<event>
 4    1  0.1049403E-004  0.4830004E+03  0.7818608E-02  0.1018314E+00
         -2   -1    0    0    0  501 -0.00000000000E+00  0.00000000000E+00  0.55127675908E+03  0.55127675908E+03  0.25500000000E-02 0. -1.
          2   -1    0    0  501    0  0.00000000000E+00 -0.00000000000E+00 -0.10579503809E+03  0.10579503812E+03  0.25500000000E-02 0.  1.
    5000001    1    1    2    0    0 -0.29766717993E+01 -0.17427112503E+03  0.25919490765E+03  0.35325102370E+03  0.16500000000E+03 0.  0.
   -5000001    1    1    2    0    0  0.29766717993E+01  0.17427112503E+03  0.18628681333E+03  0.30382077351E+03  0.16500000000E+03 0.  0.
<mgrwt>
<rscale>  0 0.48300040E+03</rscale>
<asrwt>0</asrwt>
<pdfrwt beam="1">  1        2 0.15113577E-01 0.48300040E+03</pdfrwt>
<pdfrwt beam="2">  1       -2 0.78753823E-01 0.48300040E+03</pdfrwt>
<totfact> 0.57328014E+02</totfact>
</mgrwt>
</event>
<event>
 4    1  0.1049403E-004  0.6249807E+03  0.7818608E-02  0.9854893E-01
          2   -1    0    0  501    0  0.00000000000E+00  0.00000000000E+00  0.11844862706E+03  0.11844862708E+03  0.25500000000E-02 0.  1.
         -2   -1    0    0    0  501 -0.00000000000E+00 -0.00000000000E+00 -0.82440975335E+03  0.82440975335E+03  0.25500000000E-02 0. -1.
    5000001    1    1    2    0    0  0.26207688156E+03 -0.38330694993E+02 -0.37784623860E+03  0.49004725696E+03  0.16500000000E+03 0.  0.
   -5000001    1    1    2    0    0 -0.26207688156E+03  0.38330694993E+02 -0.32811488769E+03  0.45281112348E+03  0.16500000000E+03 0.  0.
<mgrwt>
<rscale>  0 0.62498065E+03</rscale>
<asrwt>0</asrwt>
<pdfrwt beam="1">  1        2 0.16921233E-01 0.62498065E+03</pdfrwt>
<pdfrwt beam="2">  1       -2 0.11777282E+00 0.62498065E+03</pdfrwt>
<totfact> 0.19522563E+02</totfact>
</mgrwt>
</event>
<event>
 4    1  0.1049403E-004  0.4471196E+03  0.7818608E-02  0.1028584E+00
         -2   -1    0    0    0  501 -0.00000000000E+00  0.00000000000E+00  0.59697814123E+02  0.59697814177E+02  0.25500000000E-02 0. -1.
          2   -1    0    0  501    0  0.00000000000E+00 -0.00000000000E+00 -0.83719971715E+03  0.83719971716E+03  0.25500000000E-02 0.  1.
    5000001    1    1    2    0    0  0.30227713907E+02  0.12844620650E+03 -0.24214049527E+03  0.32135519617E+03  0.16500000000E+03 0.  0.
   -5000001    1    1    2    0    0 -0.30227713907E+02 -0.12844620650E+03 -0.53536140776E+03  0.57554233517E+03  0.16500000000E+03 0.  0.
<mgrwt>
<rscale>  0 0.44711964E+03</rscale>
<asrwt>0</asrwt>
<pdfrwt beam="1">  1        2 0.11959995E+00 0.44711964E+03</pdfrwt>
<pdfrwt beam="2">  1       -2 0.85282597E-02 0.44711964E+03</pdfrwt>
<totfact> 0.31650522E+03</totfact>
</mgrwt>
</event>
<event>
 4    1  0.1049403E-004  0.7495922E+03  0.7818608E-02  0.9635990E-01
          2   -1    0    0  501    0  0.00000000000E+00  0.00000000000E+00  0.49835902830E+03  0.49835902831E+03  0.25500000000E-02 0.  1.
         -2   -1    0    0    0  501 -0.00000000000E+00 -0.00000000000E+00 -0.28186933082E+03  0.28186933083E+03  0.25500000000E-02 0. -1.
    5000001    1    1    2    0    0  0.30616462908E+03 -0.59006420370E+01  0.25350325689E+03  0.43041898068E+03  0.16500000000E+03 0.  0.
   -5000001    1    1    2    0    0 -0.30616462908E+03  0.59006420370E+01 -0.37013559410E+02  0.34980937846E+03  0.16500000000E+03 0.  0.
<mgrwt>
<rscale>  0 0.74959222E+03</rscale>
<asrwt>0</asrwt>
<pdfrwt beam="1">  1        2 0.71194147E-01 0.74959222E+03</pdfrwt>
<pdfrwt beam="2">  1       -2 0.40267047E-01 0.74959222E+03</pdfrwt>
<totfact> 0.39579225E+02</totfact>
</mgrwt>
</event>
<event>
 4    1  0.1049403E-004  0.4479368E+03  0.7818608E-02  0.1028339E+00
         -2   -1    0    0    0  501 -0.00000000000E+00  0.00000000000E+00  0.43065035473E+02  0.43065035548E+02  0.25500000000E-02 0. -1.
          2   -1    0    0  501    0  0.00000000000E+00 -0.00000000000E+00 -0.11647926742E+04  0.11647926742E+04  0.25500000000E-02 0.  1.
    5000001    1    1    2    0    0  0.55105175554E+02  0.14083578441E+03 -0.53903400300E+03  0.58365568183E+03  0.16500000000E+03 0.  0.
   -5000001    1    1    2    0    0 -0.55105175554E+02 -0.14083578441E+03 -0.58269363573E+03  0.62420202792E+03  0.16500000000E+03 0.  0.
<mgrwt>
<rscale>  0 0.44793677E+03</rscale>
<asrwt>0</asrwt>
<pdfrwt beam="1">  1        2 0.16639893E+00 0.44793677E+03</pdfrwt>
<pdfrwt beam="2">  1       -2 0.61521486E-02 0.44793677E+03</pdfrwt>
<totfact> 0.33491210E+03</totfact>
</mgrwt>
</event>
<event>
 4    1  0.1049403E-004  0.4881113E+03  0.7818608E-02  0.1016929E+00
         -2   -1    0    0    0  501 -0.00000000000E+00  0.00000000000E+00  0.14015824483E+02  0.14015824715E+02  0.25500000000E-02 0. -1.
          2   -1    0    0  501    0  0.00000000000E+00 -0.00000000000E+00 -0.42497086199E+04  0.42497086199E+04  0.25500000000E-02 0.  1.
    5000001    1    1    2    0    0 -0.15867688557E+03  0.57947786347E+02 -0.26564495600E+04  0.26669243643E+04  0.16500000000E+03 0.  0.
   -5000001    1    1    2    0    0  0.15867688557E+03 -0.57947786347E+02 -0.15792432354E+04  0.15968000803E+04  0.16500000000E+03 0.  0.
<mgrwt>
<rscale>  0 0.48811134E+03</rscale>
<asrwt>0</asrwt>
<pdfrwt beam="1">  1        2 0.60710041E+00 0.48811134E+03</pdfrwt>
<pdfrwt beam="2">  1       -2 0.20022634E-02 0.48811134E+03</pdfrwt>
<totfact> 0.36074173E+02</totfact>
</mgrwt>
</event>
<event>
 4    1  0.1049403E-004  0.4725369E+03  0.7818608E-02  0.1021207E+00
          2   -1    0    0  501    0  0.00000000000E+00  0.00000000000E+00  0.36158589523E+03  0.36158589524E+03  0.25500000000E-02 0.  1.
         -2   -1    0    0    0  501 -0.00000000000E+00 -0.00000000000E+00 -0.15438315301E+03  0.15438315303E+03  0.25500000000E-02 0. -1.
    5000001    1    1    2    0    0 -0.15474277778E+03 -0.68199202437E+02  0.10235061432E+03  0.25748224548E+03  0.16500000000E+03 0.  0.
   -5000001    1    1    2    0    0  0.15474277778E+03  0.68199202437E+02  0.10485212791E+03  0.25848680279E+03  0.16500000000E+03 0.  0.
<mgrwt>
<rscale>  0 0.47253686E+03</rscale>
<asrwt>0</asrwt>
<pdfrwt beam="1">  1        2 0.51655127E-01 0.47253686E+03</pdfrwt>
<pdfrwt beam="2">  1       -2 0.22054736E-01 0.47253686E+03</pdfrwt>
<totfact> 0.17287342E+03</totfact>
</mgrwt>
</event>
<event>
 4    1  0.1049403E-004  0.8547151E+03  0.7818608E-02  0.9484030E-01
         -2   -1    0    0    0  501 -0.00000000000E+00  0.00000000000E+00  0.10970403778E+03  0.10970403781E+03  0.25500000000E-02 0. -1.
          2   -1    0    0  501    0  0.00000000000E+00 -0.00000000000E+00 -0.16647925780E+04  0.16647925780E+04  0.25500000000E-02 0.  1.
    5000001    1    1    2    0    0 -0.23126271536E+02 -0.38833687519E+03 -0.64510896360E+03  0.77118799782E+03  0.16500000000E+03 0.  0.
   -5000001    1    1    2    0    0  0.23126271536E+02  0.38833687519E+03 -0.90997957662E+03  0.10033086180E+04  0.16500000000E+03 0.  0.
<mgrwt>
<rscale>  0 0.85471508E+03</rscale>
<asrwt>0</asrwt>
<pdfrwt beam="1">  1        2 0.23782750E+00 0.85471508E+03</pdfrwt>
<pdfrwt beam="2">  1       -2 0.15672006E-01 0.85471508E+03</pdfrwt>
<totfact> 0.39184596E+02</totfact>
</mgrwt>
</event>
<event>
 4    1  0.1049403E-004  0.4635966E+03  0.7818608E-02  0.1023743E+00
          2   -1    0    0  501    0  0.00000000000E+00  0.00000000000E+00  0.90141791911E+03  0.90141791911E+03  0.25500000000E-02 0.  1.
         -2   -1    0    0    0  501 -0.00000000000E+00 -0.00000000000E+00 -0.59606592571E+02  0.59606592626E+02  0.25500000000E-02 0. -1.
    5000001    1    1    2    0    0  0.11964548982E+03  0.44001900302E+02  0.21098945609E+03  0.29663573797E+03  0.16500000000E+03 0.  0.
   -5000001    1    1    2    0    0 -0.11964548982E+03 -0.44001900302E+02  0.63082187045E+03  0.66438877376E+03  0.16500000000E+03 0.  0.
<mgrwt>
<rscale>  0 0.46359659E+03</rscale>
<asrwt>0</asrwt>
<pdfrwt beam="1">  1        2 0.12877399E+00 0.46359659E+03</pdfrwt>
<pdfrwt beam="2">  1       -2 0.85152277E-02 0.46359659E+03</pdfrwt>
<totfact> 0.28817535E+03</totfact>
</mgrwt>
</event>
<event>
 4    1  0.1049403E-004  0.6168760E+03  0.7818608E-02  0.9870999E-01
          2   -1    0    0  501    0  0.00000000000E+00  0.00000000000E+00  0.35511245924E+03  0.35511245925E+03  0.25500000000E-02 0.  1.
         -2   -1    0    0    0  501 -0.00000000000E+00 -0.00000000000E+00 -0.26789819180E+03  0.26789819182E+03  0.25500000000E-02 0. -1.
    5000001    1    1    2    0    0 -0.22413807505E+03  0.12769575965E+03  0.62951477560E+01  0.30628208012E+03  0.16500000000E+03 0.  0.
   -5000001    1    1    2    0    0  0.22413807505E+03 -0.12769575965E+03  0.80919119680E+02  0.31672857094E+03  0.16500000000E+03 0.  0.
<mgrwt>
<rscale>  0 0.61687595E+03</rscale>
<asrwt>0</asrwt>
<pdfrwt beam="1">  1        2 0.50730352E-01 0.61687595E+03</pdfrwt>
<pdfrwt beam="2">  1       -2 0.38271170E-01 0.61687595E+03</pdfrwt>
<totfact> 0.64080200E+02</totfact>
</mgrwt>
</event>
<event>
 4    1  0.1049403E-004  0.4325975E+03  0.7818608E-02  0.1033043E+00
         -2   -1    0    0    0  501 -0.00000000000E+00  0.00000000000E+00  0.63544896691E+03  0.63544896691E+03  0.25500000000E-02 0. -1.
          2   -1    0    0  501    0  0.00000000000E+00 -0.00000000000E+00 -0.73625359343E+02  0.73625359387E+02  0.25500000000E-02 0.  1.
    5000001    1    1    2    0    0  0.59008147788E+01  0.13966569164E+03  0.27379846645E+03  0.34890102503E+03  0.16500000000E+03 0.  0.
   -5000001    1    1    2    0    0 -0.59008147788E+01 -0.13966569164E+03  0.28802514111E+03  0.36017330127E+03  0.16500000000E+03 0.  0.
<mgrwt>
<rscale>  0 0.43259754E+03</rscale>
<asrwt>0</asrwt>
<pdfrwt beam="1">  1        2 0.10517909E-01 0.43259754E+03</pdfrwt>
<pdfrwt beam="2">  1       -2 0.90778423E-01 0.43259754E+03</pdfrwt>
<totfact> 0.64953675E+02</totfact>
</mgrwt>
</event>
<event>
 4    1  0.1049403E-004  0.6181276E+03  0.7818608E-02  0.9868495E-01
         -2   -1    0    0    0  501 -0.00000000000E+00  0.00000000000E+00  0.35660581872E+02  0.35660581963E+02  0.25500000000E-02 0. -1.
          2   -1    0    0  501    0  0.00000000000E+00 -0.00000000000E+00 -0.26786003173E+04  0.26786003173E+04  0.25500000000E-02 0.  1.
    5000001    1    1    2    0    0 -0.10694369966E+03  0.23367677915E+03 -0.11130125971E+04  0.11541506978E+04  0.16500000000E+03 0.  0.
   -5000001    1    1    2    0    0  0.10694369966E+03 -0.23367677915E+03 -0.15299271384E+04  0.15601102015E+04  0.16500000000E+03 0.  0.
<mgrwt>
<rscale>  0 0.61812764E+03</rscale>
<asrwt>0</asrwt>
<pdfrwt beam="1">  1        2 0.38265706E+00 0.61812764E+03</pdfrwt>
<pdfrwt beam="2">  1       -2 0.50943705E-02 0.61812764E+03</pdfrwt>
<totfact> 0.74460252E+02</totfact>
</mgrwt>
</event>
<event>
 4    1  0.1049403E-004  0.4098177E+03  0.7818608E-02  0.1040432E+00
          2   -1    0    0  501    0  0.00000000000E+00  0.00000000000E+00  0.41425495805E+03  0.41425495806E+03  0.25500000000E-02 0.  1.
         -2   -1    0    0    0  501 -0.00000000000E+00 -0.00000000000E+00 -0.10135697024E+03  0.10135697027E+03  0.25500000000E-02 0. -1.
    5000001    1    1    2    0    0 -0.45309315068E+01  0.10840314499E+03  0.22525558861E+03  0.29956109792E+03  0.16500000000E+03 0.  0.
   -5000001    1    1    2    0    0  0.45309315068E+01 -0.10840314499E+03  0.87642399197E+02  0.21605083041E+03  0.16500000000E+03 0.  0.
<mgrwt>
<rscale>  0 0.40981765E+03</rscale>
<asrwt>0</asrwt>
<pdfrwt beam="1">  1        2 0.59179280E-01 0.40981765E+03</pdfrwt>
<pdfrwt beam="2">  1       -2 0.14479567E-01 0.40981765E+03</pdfrwt>
<totfact> 0.30476250E+03</totfact>
</mgrwt>
</event>
<event>
 4    1  0.1049403E-004  0.4816810E+03  0.7818608E-02  0.1018674E+00
          2   -1    0    0  501    0  0.00000000000E+00  0.00000000000E+00  0.16169506053E+03  0.16169506055E+03  0.25500000000E-02 0.  1.
         -2   -1    0    0    0  501 -0.00000000000E+00 -0.00000000000E+00 -0.35872550246E+03  0.35872550247E+03  0.25500000000E-02 0. -1.
    5000001    1    1    2    0    0 -0.82334960497E+02  0.75584169128E+02 -0.24462110951E+03  0.31552575102E+03  0.16500000000E+03 0.  0.
   -5000001    1    1    2    0    0  0.82334960497E+02 -0.75584169128E+02  0.47590667579E+02  0.20489481200E+03  0.16500000000E+03 0.  0.
<mgrwt>
<rscale>  0 0.48168098E+03</rscale>
<asrwt>0</asrwt>
<pdfrwt beam="1">  1        2 0.23099294E-01 0.48168098E+03</pdfrwt>
<pdfrwt beam="2">  1       -2 0.51246500E-01 0.48168098E+03</pdfrwt>
<totfact> 0.86685690E+02</totfact>
</mgrwt>
</event>
<event>
 4    1  0.1049403E-004  0.3779244E+03  0.7818608E-02  0.1051704E+00
         -2   -1    0    0    0  501 -0.00000000000E+00  0.00000000000E+00  0.14658566528E+02  0.14658566750E+02  0.25500000000E-02 0. -1.
          2   -1    0    0  501    0  0.00000000000E+00 -0.00000000000E+00 -0.24358936688E+04  0.24358936688E+04  0.25500000000E-02 0.  1.
    5000001    1    1    2    0    0 -0.26225968165E+02 -0.40781150009E+02 -0.17183300346E+04  0.17269145930E+04  0.16500000000E+03 0.  0.
   -5000001    1    1    2    0    0  0.26225968165E+02  0.40781150009E+02 -0.70290506764E+03  0.72363764255E+03  0.16500000000E+03 0.  0.
<mgrwt>
<rscale>  0 0.37792438E+03</rscale>
<asrwt>0</asrwt>
<pdfrwt beam="1">  1        2 0.34798455E+00 0.37792438E+03</pdfrwt>
<pdfrwt beam="2">  1       -2 0.20940825E-02 0.37792438E+03</pdfrwt>
<totfact> 0.38836601E+03</totfact>
</mgrwt>
</event>
<event>
 4    1  0.1049403E-004  0.4005357E+03  0.7818608E-02  0.1043594E+00
         -2   -1    0    0    0  501 -0.00000000000E+00  0.00000000000E+00  0.14756069920E+02  0.14756070140E+02  0.25500000000E-02 0. -1.
          2   -1    0    0  501    0  0.00000000000E+00 -0.00000000000E+00 -0.27180141710E+04  0.27180141710E+04  0.25500000000E-02 0.  1.
    5000001    1    1    2    0    0  0.10903912248E+03 -0.44577655919E+01 -0.11388274300E+04  0.11558816190E+04  0.16500000000E+03 0.  0.
   -5000001    1    1    2    0    0 -0.10903912248E+03  0.44577655919E+01 -0.15644306711E+04  0.15768886221E+04  0.16500000000E+03 0.  0.
<mgrwt>
<rscale>  0 0.40053568E+03</rscale>
<asrwt>0</asrwt>
<pdfrwt beam="1">  1        2 0.38828742E+00 0.40053568E+03</pdfrwt>
<pdfrwt beam="2">  1       -2 0.21080117E-02 0.40053568E+03</pdfrwt>
<totfact> 0.27589724E+03</totfact>
</mgrwt>
</event>
<event>
 4    1  0.1049403E-004  0.3472472E+03  0.7818608E-02  0.1063751E+00
          2   -1    0    0  501    0  0.00000000000E+00  0.00000000000E+00  0.10899278672E+04  0.10899278672E+04  0.25500000000E-02 0.  1.
         -2   -1    0    0    0  501 -0.00000000000E+00 -0.00000000000E+00 -0.27657941485E+02  0.27657941603E+02  0.25500000000E-02 0. -1.
    5000001    1    1    2    0    0  0.49597579495E+02  0.19797203476E+02  0.50453439881E+03  0.53350895844E+03  0.16500000000E+03 0.  0.
   -5000001    1    1    2    0    0 -0.49597579495E+02 -0.19797203476E+02  0.55773552690E+03  0.58407685036E+03  0.16500000000E+03 0.  0.
<mgrwt>
<rscale>  0 0.34724724E+03</rscale>
<asrwt>0</asrwt>
<pdfrwt beam="1">  1        2 0.15570393E+00 0.34724724E+03</pdfrwt>
<pdfrwt beam="2">  1       -2 0.39511358E-02 0.34724724E+03</pdfrwt>
<totfact> 0.72629485E+03</totfact>
</mgrwt>
</event>
<event>
 4    1  0.1049403E-004  0.5184093E+03  0.7818608E-02  0.1009082E+00
         -2   -1    0    0    0  501 -0.00000000000E+00  0.00000000000E+00  0.67010884768E+02  0.67010884816E+02  0.25500000000E-02 0. -1.
          2   -1    0    0  501    0  0.00000000000E+00 -0.00000000000E+00 -0.10026288972E+04  0.10026288972E+04  0.25500000000E-02 0.  1.
    5000001    1    1    2    0    0  0.19270802705E+03  0.47718266048E+02 -0.41948024106E+03  0.49254653510E+03  0.16500000000E+03 0.  0.
   -5000001    1    1    2    0    0 -0.19270802705E+03 -0.47718266048E+02 -0.51613777141E+03  0.57709324695E+03  0.16500000000E+03 0.  0.
<mgrwt>
<rscale>  0 0.51840930E+03</rscale>
<asrwt>0</asrwt>
<pdfrwt beam="1">  1        2 0.14323269E+00 0.51840930E+03</pdfrwt>
<pdfrwt beam="2">  1       -2 0.95729841E-02 0.51840930E+03</pdfrwt>
<totfact> 0.20674986E+03</totfact>
</mgrwt>
</event>
<event>
 4    1  0.1049403E-004  0.5773723E+03  0.7818608E-02  0.9953496E-01
          2   -1    0    0  501    0  0.00000000000E+00  0.00000000000E+00  0.93152217139E+03  0.93152217140E+03  0.25500000000E-02 0.  1.
         -2   -1    0    0    0  501 -0.00000000000E+00 -0.00000000000E+00 -0.89466133902E+02  0.89466133939E+02  0.25500000000E-02 0. -1.
    5000001    1    1    2    0    0 -0.11684216041E+03 -0.20164337871E+03  0.49610518325E+03  0.57241374501E+03  0.16500000000E+03 0.  0.
   -5000001    1    1    2    0    0  0.11684216041E+03  0.20164337871E+03  0.34595085424E+03  0.44857456033E+03  0.16500000000E+03 0.  0.
<mgrwt>
<rscale>  0 0.57737228E+03</rscale>
<asrwt>0</asrwt>
<pdfrwt beam="1">  1        2 0.13307461E+00 0.57737228E+03</pdfrwt>
<pdfrwt beam="2">  1       -2 0.12780875E-01 0.57737228E+03</pdfrwt>
<totfact> 0.14267811E+03</totfact>
</mgrwt>
</event>
<event>
 4    1  0.1049403E-004  0.4739383E+03  0.7818608E-02  0.1020815E+00
         -2   -1    0    0    0  501 -0.00000000000E+00  0.00000000000E+00  0.71877032870E+02  0.71877032915E+02  0.25500000000E-02 0.  1.
          2   -1    0    0  501    0  0.00000000000E+00 -0.00000000000E+00 -0.78125620209E+03  0.78125620210E+03  0.25500000000E-02 0. -1.
    5000001    1    1    2    0    0  0.16609862389E+03  0.41585108694E+01 -0.28920645789E+03  0.37211748327E+03  0.16500000000E+03 0.  0.
   -5000001    1    1    2    0    0 -0.16609862389E+03 -0.41585108694E+01 -0.42017271133E+03  0.48101575174E+03  0.16500000000E+03 0.  0.
<mgrwt>
<rscale>  0 0.47393830E+03</rscale>
<asrwt>0</asrwt>
<pdfrwt beam="1">  1        2 0.11160802E+00 0.47393830E+03</pdfrwt>
<pdfrwt beam="2">  1       -2 0.10268148E-01 0.47393830E+03</pdfrwt>
<totfact> 0.25673948E+03</totfact>
</mgrwt>
</event>
<event>
 4    1  0.1049403E-004  0.6350558E+03  0.7818608E-02  0.9835232E-01
         -2   -1    0    0    0  501 -0.00000000000E+00  0.00000000000E+00  0.78486742579E+02  0.78486742620E+02  0.25500000000E-02 0. -1.
          2   -1    0    0  501    0  0.00000000000E+00 -0.00000000000E+00 -0.12845987655E+04  0.12845987655E+04  0.25500000000E-02 0.  1.
    5000001    1    1    2    0    0  0.26142906054E+03  0.66466993316E+02 -0.66511481085E+03  0.73645483671E+03  0.16500000000E+03 0.  0.
   -5000001    1    1    2    0    0 -0.26142906054E+03 -0.66466993316E+02 -0.54099721208E+03  0.62663067142E+03  0.16500000000E+03 0.  0.
<mgrwt>
<rscale>  0 0.63505582E+03</rscale>
<asrwt>0</asrwt>
<pdfrwt beam="1">  1        2 0.18351410E+00 0.63505582E+03</pdfrwt>
<pdfrwt beam="2">  1       -2 0.11212393E-01 0.63505582E+03</pdfrwt>
<totfact> 0.11000402E+03</totfact>
</mgrwt>
</event>
<event>
 4    1  0.1049403E-004  0.7595633E+03  0.7818608E-02  0.9620465E-01
          2   -1    0    0  501    0  0.00000000000E+00  0.00000000000E+00  0.62186442704E+03  0.62186442704E+03  0.25500000000E-02 0.  1.
         -2   -1    0    0    0  501 -0.00000000000E+00 -0.00000000000E+00 -0.23193817090E+03  0.23193817091E+03  0.25500000000E-02 0. -1.
    5000001    1    1    2    0    0 -0.24239508051E+03  0.23545065809E+03  0.13530569030E+03  0.39965612379E+03  0.16500000000E+03 0.  0.
   -5000001    1    1    2    0    0  0.24239508051E+03 -0.23545065809E+03  0.25462056584E+03  0.45414647417E+03  0.16500000000E+03 0.  0.
<mgrwt>
<rscale>  0 0.75956329E+03</rscale>
<asrwt>0</asrwt>
<pdfrwt beam="1">  1        2 0.88837774E-01 0.75956329E+03</pdfrwt>
<pdfrwt beam="2">  1       -2 0.33134025E-01 0.75956329E+03</pdfrwt>
<totfact> 0.44400928E+02</totfact>
</mgrwt>
</event>
<event>
 4    1  0.1049403E-004  0.5083777E+03  0.7818608E-02  0.1011615E+00
          2   -1    0    0  501    0  0.00000000000E+00  0.00000000000E+00  0.88969232744E+03  0.88969232745E+03  0.25500000000E-02 0.  1.
         -2   -1    0    0    0  501 -0.00000000000E+00 -0.00000000000E+00 -0.72622833572E+02  0.72622833617E+02  0.25500000000E-02 0. -1.
    5000001    1    1    2    0    0 -0.14451349961E+03  0.10644549489E+03  0.27240038765E+03  0.36557046673E+03  0.16500000000E+03 0.  0.
   -5000001    1    1    2    0    0  0.14451349961E+03 -0.10644549489E+03  0.54466910622E+03  0.59674469434E+03  0.16500000000E+03 0.  0.
<mgrwt>
<rscale>  0 0.50837773E+03</rscale>
<asrwt>0</asrwt>
<pdfrwt beam="1">  1        2 0.12709890E+00 0.50837773E+03</pdfrwt>
<pdfrwt beam="2">  1       -2 0.10374691E-01 0.50837773E+03</pdfrwt>
<totfact> 0.21359769E+03</totfact>
</mgrwt>
</event>
<event>
 4    1  0.1049403E-004  0.5897357E+03  0.7818608E-02  0.9926933E-01
         -2   -1    0    0    0  501 -0.00000000000E+00  0.00000000000E+00  0.41048706457E+02  0.41048706537E+02  0.25500000000E-02 0. -1.
          2   -1    0    0  501    0  0.00000000000E+00 -0.00000000000E+00 -0.21181437588E+04  0.21181437588E+04  0.25500000000E-02 0.  1.
    5000001    1    1    2    0    0 -0.13445511869E+03  0.20087719681E+03 -0.11701622703E+04  0.12062066846E+04  0.16500000000E+03 0.  0.
   -5000001    1    1    2    0    0  0.13445511869E+03 -0.20087719681E+03 -0.90693278203E+03  0.95298578073E+03  0.16500000000E+03 0.  0.
<mgrwt>
<rscale>  0 0.58973574E+03</rscale>
<asrwt>0</asrwt>
<pdfrwt beam="1">  1        2 0.30259190E+00 0.58973574E+03</pdfrwt>
<pdfrwt beam="2">  1       -2 0.58641023E-02 0.58973574E+03</pdfrwt>
<totfact> 0.11576012E+03</totfact>
</mgrwt>
</event>
<event>
 4    1  0.1049403E-004  0.5496195E+03  0.7818608E-02  0.1001582E+00
          2   -1    0    0  501    0  0.00000000000E+00  0.00000000000E+00  0.57019344806E+03  0.57019344806E+03  0.25500000000E-02 0.  1.
         -2   -1    0    0    0  501 -0.00000000000E+00 -0.00000000000E+00 -0.13244698108E+03  0.13244698111E+03  0.25500000000E-02 0. -1.
    5000001    1    1    2    0    0 -0.67863315173E+02  0.18838923776E+03  0.10311182798E+03  0.27920061519E+03  0.16500000000E+03 0.  0.
   -5000001    1    1    2    0    0  0.67863315173E+02 -0.18838923776E+03  0.33463463900E+03  0.42343981398E+03  0.16500000000E+03 0.  0.
<mgrwt>
<rscale>  0 0.54961951E+03</rscale>
<asrwt>0</asrwt>
<pdfrwt beam="1">  1        2 0.81456208E-01 0.54961951E+03</pdfrwt>
<pdfrwt beam="2">  1       -2 0.18920997E-01 0.54961951E+03</pdfrwt>
<totfact> 0.13545738E+03</totfact>
</mgrwt>
</event>
<event>
 4    1  0.1049403E-004  0.1022813E+04  0.7818608E-02  0.9283872E-01
         -2   -1    0    0    0  501 -0.00000000000E+00  0.00000000000E+00  0.62556979909E+03  0.62556979910E+03  0.25500000000E-02 0. -1.
          2   -1    0    0  501    0  0.00000000000E+00 -0.00000000000E+00 -0.41807741372E+03  0.41807741372E+03  0.25500000000E-02 0.  1.
    5000001    1    1    2    0    0  0.24963111891E+03  0.39683840058E+03 -0.19186918985E+02  0.49738269930E+03  0.16500000000E+03 0.  0.
   -5000001    1    1    2    0    0 -0.24963111891E+03 -0.39683840058E+03  0.22667930436E+03  0.54626451352E+03  0.16500000000E+03 0.  0.
<mgrwt>
<rscale>  0 0.10228130E+04</rscale>
<asrwt>0</asrwt>
<pdfrwt beam="1">  1        2 0.59725345E-01 0.10228130E+04</pdfrwt>
<pdfrwt beam="2">  1       -2 0.89367114E-01 0.10228130E+04</pdfrwt>
<totfact> 0.88224776E+01</totfact>
</mgrwt>
</event>
<event>
 4    1  0.1049403E-004  0.5054186E+03  0.7818608E-02  0.1012374E+00
         -2   -1    0    0    0  501 -0.00000000000E+00  0.00000000000E+00  0.49903176512E+02  0.49903176578E+02  0.25500000000E-02 0. -1.
          2   -1    0    0  501    0  0.00000000000E+00 -0.00000000000E+00 -0.12797180779E+04  0.12797180779E+04  0.25500000000E-02 0.  1.
    5000001    1    1    2    0    0 -0.16739958033E+03 -0.54911441119E+02 -0.41805707144E+03  0.48273657499E+03  0.16500000000E+03 0.  0.
   -5000001    1    1    2    0    0  0.16739958033E+03  0.54911441119E+02 -0.81175782995E+03  0.84688467948E+03  0.16500000000E+03 0.  0.
<mgrwt>
<rscale>  0 0.50541863E+03</rscale>
<asrwt>0</asrwt>
<pdfrwt beam="1">  1        2 0.18281685E+00 0.50541863E+03</pdfrwt>
<pdfrwt beam="2">  1       -2 0.71290260E-02 0.50541863E+03</pdfrwt>
<totfact> 0.22971072E+03</totfact>
</mgrwt>
</event>
<event>
 4    1  0.1049403E-004  0.4182558E+03  0.7818608E-02  0.1037635E+00
         -2   -1    0    0    0  501 -0.00000000000E+00  0.00000000000E+00  0.35031237753E+03  0.35031237754E+03  0.25500000000E-02 0. -1.
          2   -1    0    0  501    0  0.00000000000E+00 -0.00000000000E+00 -0.12484419882E+03  0.12484419884E+03  0.25500000000E-02 0.  1.
    5000001    1    1    2    0    0  0.27994069332E+02  0.11536726099E+03  0.16857607350E+03  0.26407605984E+03  0.16500000000E+03 0.  0.
   -5000001    1    1    2    0    0 -0.27994069332E+02 -0.11536726099E+03  0.56892105217E+02  0.21108051654E+03  0.16500000000E+03 0.  0.
<mgrwt>
<rscale>  0 0.41825575E+03</rscale>
<asrwt>0</asrwt>
<pdfrwt beam="1">  1        2 0.17834886E-01 0.41825575E+03</pdfrwt>
<pdfrwt beam="2">  1       -2 0.50044625E-01 0.41825575E+03</pdfrwt>
<totfact> 0.12269282E+03</totfact>
</mgrwt>
</event>
<event>
 4    1  0.1049403E-004  0.3335062E+03  0.7818608E-02  0.1069596E+00
         -2   -1    0    0    0  501 -0.00000000000E+00  0.00000000000E+00  0.27282811454E+03  0.27282811455E+03  0.25500000000E-02 0. -1.
          2   -1    0    0  501    0  0.00000000000E+00 -0.00000000000E+00 -0.10191984700E+03  0.10191984703E+03  0.25500000000E-02 0.  1.
    5000001    1    1    2    0    0 -0.20725700543E+02  0.12131766264E+02  0.82975630965E+02  0.18624363009E+03  0.16500000000E+03 0.  0.
   -5000001    1    1    2    0    0  0.20725700543E+02 -0.12131766264E+02  0.87932636576E+02  0.18850433149E+03  0.16500000000E+03 0.  0.
<mgrwt>
<rscale>  0 0.33350622E+03</rscale>
<asrwt>0</asrwt>
<pdfrwt beam="1">  1        2 0.14559978E-01 0.33350622E+03</pdfrwt>
<pdfrwt beam="2">  1       -2 0.38975445E-01 0.33350622E+03</pdfrwt>
<totfact> 0.25385913E+03</totfact>
</mgrwt>
</event>
<event>
 4    1  0.1049403E-004  0.5940674E+03  0.7818608E-02  0.9917791E-01
          2   -1    0    0  501    0  0.00000000000E+00  0.00000000000E+00  0.30262141834E+03  0.30262141836E+03  0.25500000000E-02 0. -1.
         -2   -1    0    0    0  501 -0.00000000000E+00 -0.00000000000E+00 -0.29154911925E+03  0.29154911926E+03  0.25500000000E-02 0.  1.
    5000001    1    1    2    0    0 -0.29527513921E+02 -0.21717870710E+03 -0.10834996488E+03  0.29496301426E+03  0.16500000000E+03 0.  0.
   -5000001    1    1    2    0    0  0.29527513921E+02  0.21717870710E+03  0.11942226398E+03  0.29920752335E+03  0.16500000000E+03 0.  0.
<mgrwt>
<rscale>  0 0.59406736E+03</rscale>
<asrwt>0</asrwt>
<pdfrwt beam="1">  1        2 0.43231631E-01 0.59406736E+03</pdfrwt>
<pdfrwt beam="2">  1       -2 0.41649874E-01 0.59406736E+03</pdfrwt>
<totfact> 0.64906705E+02</totfact>
</mgrwt>
</event>
<event>
 4    1  0.1049403E-004  0.8843218E+03  0.7818608E-02  0.9445395E-01
          2   -1    0    0  501    0  0.00000000000E+00  0.00000000000E+00  0.78782111926E+03  0.78782111926E+03  0.25500000000E-02 0.  1.
         -2   -1    0    0    0  501 -0.00000000000E+00 -0.00000000000E+00 -0.24816072186E+03  0.24816072187E+03  0.25500000000E-02 0. -1.
    5000001    1    1    2    0    0  0.31629356918E+03 -0.59665922176E+02 -0.28107544728E+02  0.36279012975E+03  0.16500000000E+03 0.  0.
   -5000001    1    1    2    0    0 -0.31629356918E+03  0.59665922176E+02  0.56776794212E+03  0.67319171139E+03  0.16500000000E+03 0.  0.
<mgrwt>
<rscale>  0 0.88432179E+03</rscale>
<asrwt>0</asrwt>
<pdfrwt beam="1">  1        2 0.11254587E+00 0.88432179E+03</pdfrwt>
<pdfrwt beam="2">  1       -2 0.35451532E-01 0.88432179E+03</pdfrwt>
<totfact> 0.29012937E+02</totfact>
</mgrwt>
</event>
<event>
 4    1  0.1049403E-004  0.4930665E+03  0.7818608E-02  0.1015605E+00
          2   -1    0    0  501    0  0.00000000000E+00  0.00000000000E+00  0.38150246887E+03  0.38150246888E+03  0.25500000000E-02 0.  1.
         -2   -1    0    0    0  501 -0.00000000000E+00 -0.00000000000E+00 -0.15931391052E+03  0.15931391054E+03  0.25500000000E-02 0. -1.
    5000001    1    1    2    0    0  0.14422090514E+03 -0.78848645131E+02  0.19977501780E+03  0.30684171173E+03  0.16500000000E+03 0.  0.
   -5000001    1    1    2    0    0 -0.14422090514E+03  0.78848645131E+02  0.22413540546E+02  0.23397466769E+03  0.16500000000E+03 0.  0.
<mgrwt>
<rscale>  0 0.49306653E+03</rscale>
<asrwt>0</asrwt>
<pdfrwt beam="1">  1        2 0.54500353E-01 0.49306653E+03</pdfrwt>
<pdfrwt beam="2">  1       -2 0.22759130E-01 0.49306653E+03</pdfrwt>
<totfact> 0.15423773E+03</totfact>
</mgrwt>
</event>
<event>
 4    1  0.1049403E-004  0.5644248E+03  0.7818608E-02  0.9982092E-01
          2   -1    0    0  501    0  0.00000000000E+00  0.00000000000E+00  0.63197295171E+03  0.63197295171E+03  0.25500000000E-02 0.  1.
         -2   -1    0    0    0  501 -0.00000000000E+00 -0.00000000000E+00 -0.12602411487E+03  0.12602411490E+03  0.25500000000E-02 0. -1.
    5000001    1    1    2    0    0 -0.14708028465E+03 -0.17426539241E+03  0.22552438082E+03  0.36067614763E+03  0.16500000000E+03 0.  0.
   -5000001    1    1    2    0    0  0.14708028465E+03  0.17426539241E+03  0.28042445602E+03  0.39732091898E+03  0.16500000000E+03 0.  0.
<mgrwt>
<rscale>  0 0.56442478E+03</rscale>
<asrwt>0</asrwt>
<pdfrwt beam="1">  1        2 0.90281853E-01 0.56442478E+03</pdfrwt>
<pdfrwt beam="2">  1       -2 0.18003444E-01 0.56442478E+03</pdfrwt>
<totfact> 0.13075849E+03</totfact>
</mgrwt>
</event>
<event>
 4    1  0.1049403E-004  0.3843729E+03  0.7818608E-02  0.1049329E+00
         -2   -1    0    0    0  501 -0.00000000000E+00  0.00000000000E+00  0.29701150674E+02  0.29701150784E+02  0.25500000000E-02 0. -1.
          2   -1    0    0  501    0  0.00000000000E+00 -0.00000000000E+00 -0.12435759259E+04  0.12435759259E+04  0.25500000000E-02 0.  1.
    5000001    1    1    2    0    0 -0.44740878602E+02  0.80045461175E+02 -0.48742546557E+03  0.52270221595E+03  0.16500000000E+03 0.  0.
   -5000001    1    1    2    0    0  0.44740878602E+02 -0.80045461175E+02 -0.72644930970E+03  0.75057486078E+03  0.16500000000E+03 0.  0.
<mgrwt>
<rscale>  0 0.38437292E+03</rscale>
<asrwt>0</asrwt>
<pdfrwt beam="1">  1        2 0.17765367E+00 0.38437292E+03</pdfrwt>
<pdfrwt beam="2">  1       -2 0.42430223E-02 0.38437292E+03</pdfrwt>
<totfact> 0.53621743E+03</totfact>
</mgrwt>
</event>
<event>
 4    1  0.1049403E-004  0.4262009E+03  0.7818608E-02  0.1035067E+00
          2   -1    0    0  501    0  0.00000000000E+00  0.00000000000E+00  0.22015656308E+03  0.22015656310E+03  0.25500000000E-02 0.  1.
         -2   -1    0    0    0  501 -0.00000000000E+00 -0.00000000000E+00 -0.20627052438E+03  0.20627052439E+03  0.25500000000E-02 0. -1.
    5000001    1    1    2    0    0  0.88445882250E+02 -0.36854743241E+02  0.10189260298E+03  0.21630545238E+03  0.16500000000E+03 0.  0.
   -5000001    1    1    2    0    0 -0.88445882250E+02  0.36854743241E+02 -0.88006564277E+02  0.21012163511E+03  0.16500000000E+03 0.  0.
<mgrwt>
<rscale>  0 0.42620094E+03</rscale>
<asrwt>0</asrwt>
<pdfrwt beam="1">  1        2 0.31450938E-01 0.42620094E+03</pdfrwt>
<pdfrwt beam="2">  1       -2 0.29467218E-01 0.42620094E+03</pdfrwt>
<totfact> 0.17732061E+03</totfact>
</mgrwt>
</event>
<event>
 4    1  0.1049403E-004  0.3613701E+03  0.7818608E-02  0.1058043E+00
          2   -1    0    0  501    0  0.00000000000E+00  0.00000000000E+00  0.14548316121E+04  0.14548316121E+04  0.25500000000E-02 0.  1.
         -2   -1    0    0    0  501 -0.00000000000E+00 -0.00000000000E+00 -0.22440457540E+02  0.22440457684E+02  0.25500000000E-02 0. -1.
    5000001    1    1    2    0    0  0.12925154457E+02 -0.68007779198E+02  0.61359069497E+03  0.63914838543E+03  0.16500000000E+03 0.  0.
   -5000001    1    1    2    0    0 -0.12925154457E+02  0.68007779198E+02  0.81880045964E+03  0.83812368440E+03  0.16500000000E+03 0.  0.
<mgrwt>
<rscale>  0 0.36137010E+03</rscale>
<asrwt>0</asrwt>
<pdfrwt beam="1">  1        2 0.20783304E+00 0.36137010E+03</pdfrwt>
<pdfrwt beam="2">  1       -2 0.32057804E-02 0.36137010E+03</pdfrwt>
<totfact> 0.63347118E+03</totfact>
</mgrwt>
</event>
<event>
 4    1  0.1049403E-004  0.4665409E+03  0.7818608E-02  0.1022901E+00
          2   -1    0    0  501    0  0.00000000000E+00  0.00000000000E+00  0.13989747791E+04  0.13989747791E+04  0.25500000000E-02 0.  1.
         -2   -1    0    0    0  501 -0.00000000000E+00 -0.00000000000E+00 -0.38896409719E+02  0.38896409803E+02  0.25500000000E-02 0. -1.
    5000001    1    1    2    0    0  0.16010245248E+03 -0.28170868097E+02  0.59486802164E+03  0.63837242756E+03  0.16500000000E+03 0.  0.
   -5000001    1    1    2    0    0 -0.16010245248E+03  0.28170868097E+02  0.76521034773E+03  0.79949876134E+03  0.16500000000E+03 0.  0.
<mgrwt>
<rscale>  0 0.46654087E+03</rscale>
<asrwt>0</asrwt>
<pdfrwt beam="1">  1        2 0.19985351E+00 0.46654087E+03</pdfrwt>
<pdfrwt beam="2">  1       -2 0.55566309E-02 0.46654087E+03</pdfrwt>
<totfact> 0.29291654E+03</totfact>
</mgrwt>
</event>
<event>
 4    1  0.1049403E-004  0.4987512E+03  0.7818608E-02  0.1014105E+00
         -2   -1    0    0    0  501 -0.00000000000E+00  0.00000000000E+00  0.10805903044E+03  0.10805903047E+03  0.25500000000E-02 0. -1.
          2   -1    0    0  501    0  0.00000000000E+00 -0.00000000000E+00 -0.57550201892E+03  0.57550201893E+03  0.25500000000E-02 0.  1.
    5000001    1    1    2    0    0 -0.56266106414E+00  0.12658121895E+03 -0.45103063588E+02  0.21279663513E+03  0.16500000000E+03 0.  0.
   -5000001    1    1    2    0    0  0.56266106414E+00 -0.12658121895E+03 -0.42233992489E+03  0.47076441427E+03  0.16500000000E+03 0.  0.
<mgrwt>
<rscale>  0 0.49875120E+03</rscale>
<asrwt>0</asrwt>
<pdfrwt beam="1">  1        2 0.82214573E-01 0.49875120E+03</pdfrwt>
<pdfrwt beam="2">  1       -2 0.15437005E-01 0.49875120E+03</pdfrwt>
<totfact> 0.18951019E+03</totfact>
</mgrwt>
</event>
<event>
 4    1  0.1049403E-004  0.3637290E+03  0.7818608E-02  0.1057117E+00
          2   -1    0    0  501    0  0.00000000000E+00  0.00000000000E+00  0.23097166074E+03  0.23097166075E+03  0.25500000000E-02 0.  1.
         -2   -1    0    0    0  501 -0.00000000000E+00 -0.00000000000E+00 -0.14319805156E+03  0.14319805158E+03  0.25500000000E-02 0. -1.
    5000001    1    1    2    0    0 -0.26218708284E+02  0.38384344298E+02 -0.18593041632E+02  0.17242818722E+03  0.16500000000E+03 0.  0.
   -5000001    1    1    2    0    0  0.26218708284E+02 -0.38384344298E+02  0.10636665081E+03  0.20174152512E+03  0.16500000000E+03 0.  0.
<mgrwt>
<rscale>  0 0.36372897E+03</rscale>
<asrwt>0</asrwt>
<pdfrwt beam="1">  1        2 0.32995951E-01 0.36372897E+03</pdfrwt>
<pdfrwt beam="2">  1       -2 0.20456865E-01 0.36372897E+03</pdfrwt>
<totfact> 0.32068892E+03</totfact>
</mgrwt>
</event>
<event>
 4    1  0.1049403E-004  0.7463743E+03  0.7818608E-02  0.9641056E-01
         -2   -1    0    0    0  501 -0.00000000000E+00  0.00000000000E+00  0.11506090428E+03  0.11506090431E+03  0.25500000000E-02 0. -1.
          2   -1    0    0  501    0  0.00000000000E+00 -0.00000000000E+00 -0.12103907785E+04  0.12103907785E+04  0.25500000000E-02 0.  1.
    5000001    1    1    2    0    0  0.10794762184E+03 -0.31567027020E+03 -0.59607931689E+03  0.70273463026E+03  0.16500000000E+03 0.  0.
   -5000001    1    1    2    0    0 -0.10794762184E+03  0.31567027020E+03 -0.49925055734E+03  0.62271705256E+03  0.16500000000E+03 0.  0.
<mgrwt>
<rscale>  0 0.74637432E+03</rscale>
<asrwt>0</asrwt>
<pdfrwt beam="1">  1        2 0.17291296E+00 0.74637432E+03</pdfrwt>
<pdfrwt beam="2">  1       -2 0.16437273E-01 0.74637432E+03</pdfrwt>
<totfact> 0.63549099E+02</totfact>
</mgrwt>
</event>
<event>
 4    1  0.1049403E-004  0.7532784E+03  0.7818608E-02  0.9630221E-01
          2   -1    0    0  501    0  0.00000000000E+00  0.00000000000E+00  0.83272447982E+03  0.83272447982E+03  0.25500000000E-02 0.  1.
         -2   -1    0    0    0  501 -0.00000000000E+00 -0.00000000000E+00 -0.17035296893E+03  0.17035296895E+03  0.25500000000E-02 0. -1.
    5000001    1    1    2    0    0  0.17586730146E+03  0.26376942973E+03  0.48946591617E+03  0.60605734290E+03  0.16500000000E+03 0.  0.
   -5000001    1    1    2    0    0 -0.17586730146E+03 -0.26376942973E+03  0.17290559472E+03  0.39702010588E+03  0.16500000000E+03 0.  0.
<mgrwt>
<rscale>  0 0.75327840E+03</rscale>
<asrwt>0</asrwt>
<pdfrwt beam="1">  1        2 0.11896064E+00 0.75327840E+03</pdfrwt>
<pdfrwt beam="2">  1       -2 0.24336138E-01 0.75327840E+03</pdfrwt>
<totfact> 0.54454627E+02</totfact>
</mgrwt>
</event>
<event>
 4    1  0.1049403E-004  0.3541641E+03  0.7818608E-02  0.1060919E+00
          2   -1    0    0  501    0  0.00000000000E+00  0.00000000000E+00  0.66842971429E+02  0.66842971478E+02  0.25500000000E-02 0.  1.
         -2   -1    0    0    0  501 -0.00000000000E+00 -0.00000000000E+00 -0.46913001456E+03  0.46913001457E+03  0.25500000000E-02 0. -1.
    5000001    1    1    2    0    0  0.24299733768E+02 -0.40833665692E+02 -0.13561056367E+03  0.21879920085E+03  0.16500000000E+03 0.  0.
   -5000001    1    1    2    0    0 -0.24299733768E+02  0.40833665692E+02 -0.26667647946E+03  0.31717378519E+03  0.16500000000E+03 0.  0.
<mgrwt>
<rscale>  0 0.35416405E+03</rscale>
<asrwt>0</asrwt>
<pdfrwt beam="1">  1        2 0.95489962E-02 0.35416405E+03</pdfrwt>
<pdfrwt beam="2">  1       -2 0.67018571E-01 0.35416405E+03</pdfrwt>
<totfact> 0.14307433E+03</totfact>
</mgrwt>
</event>
<event>
 4    1  0.1049403E-004  0.4828193E+03  0.7818608E-02  0.1018363E+00
         -2   -1    0    0    0  501 -0.00000000000E+00  0.00000000000E+00  0.70236774237E+02  0.70236774283E+02  0.25500000000E-02 0. -1.
          2   -1    0    0  501    0  0.00000000000E+00 -0.00000000000E+00 -0.82974520910E+03  0.82974520910E+03  0.25500000000E-02 0.  1.
    5000001    1    1    2    0    0  0.83574591200E+02 -0.15309980580E+03 -0.33299145550E+03  0.41052718822E+03  0.16500000000E+03 0.  0.
   -5000001    1    1    2    0    0 -0.83574591200E+02  0.15309980580E+03 -0.42651697936E+03  0.48945479517E+03  0.16500000000E+03 0.  0.
<mgrwt>
<rscale>  0 0.48281933E+03</rscale>
<asrwt>0</asrwt>
<pdfrwt beam="1">  1        2 0.11853502E+00 0.48281933E+03</pdfrwt>
<pdfrwt beam="2">  1       -2 0.10033825E-01 0.48281933E+03</pdfrwt>
<totfact> 0.24689166E+03</totfact>
</mgrwt>
</event>
<event>
 4    1  0.1049403E-004  0.5405369E+03  0.7818608E-02  0.1003708E+00
         -2   -1    0    0    0  501 -0.00000000000E+00  0.00000000000E+00  0.41005288056E+02  0.41005288136E+02  0.25500000000E-02 0. -1.
          2   -1    0    0  501    0  0.00000000000E+00 -0.00000000000E+00 -0.17813562908E+04  0.17813562908E+04  0.25500000000E-02 0.  1.
    5000001    1    1    2    0    0 -0.82255157814E+02 -0.15866670762E+03 -0.12673562597E+04  0.12904874754E+04  0.16500000000E+03 0.  0.
   -5000001    1    1    2    0    0  0.82255157814E+02  0.15866670762E+03 -0.47299474301E+03  0.53187410354E+03  0.16500000000E+03 0.  0.
<mgrwt>
<rscale>  0 0.54053687E+03</rscale>
<asrwt>0</asrwt>
<pdfrwt beam="1">  1        2 0.25447942E+00 0.54053687E+03</pdfrwt>
<pdfrwt beam="2">  1       -2 0.58578994E-02 0.54053687E+03</pdfrwt>
<totfact> 0.17153673E+03</totfact>
</mgrwt>
</event>
<event>
 4    1  0.1049403E-004  0.7619154E+03  0.7818608E-02  0.9616840E-01
         -2   -1    0    0    0  501 -0.00000000000E+00  0.00000000000E+00  0.37225530602E+03  0.37225530602E+03  0.25500000000E-02 0. -1.
          2   -1    0    0  501    0  0.00000000000E+00 -0.00000000000E+00 -0.38986357027E+03  0.38986357028E+03  0.25500000000E-02 0.  1.
    5000001    1    1    2    0    0  0.17952567875E+03 -0.60203686472E+02 -0.29532403017E+03  0.38767929528E+03  0.16500000000E+03 0.  0.
   -5000001    1    1    2    0    0 -0.17952567875E+03  0.60203686472E+02  0.27771576592E+03  0.37443958102E+03  0.16500000000E+03 0.  0.
<mgrwt>
<rscale>  0 0.76191544E+03</rscale>
<asrwt>0</asrwt>
<pdfrwt beam="1">  1        2 0.55694796E-01 0.76191544E+03</pdfrwt>
<pdfrwt beam="2">  1       -2 0.53179329E-01 0.76191544E+03</pdfrwt>
<totfact> 0.29896916E+02</totfact>
</mgrwt>
</event>
<event>
 4    1  0.1049403E-004  0.3669086E+03  0.7818608E-02  0.1055881E+00
          2   -1    0    0  501    0  0.00000000000E+00  0.00000000000E+00  0.11431520410E+03  0.11431520413E+03  0.25500000000E-02 0.  1.
         -2   -1    0    0    0  501 -0.00000000000E+00 -0.00000000000E+00 -0.29440942890E+03  0.29440942891E+03  0.25500000000E-02 0. -1.
    5000001    1    1    2    0    0 -0.75018722789E+02  0.27305652921E+02 -0.81631928219E+02  0.20065437736E+03  0.16500000000E+03 0.  0.
   -5000001    1    1    2    0    0  0.75018722789E+02 -0.27305652921E+02 -0.98462296574E+02  0.20807025568E+03  0.16500000000E+03 0.  0.
<mgrwt>
<rscale>  0 0.36690857E+03</rscale>
<asrwt>0</asrwt>
<pdfrwt beam="1">  1        2 0.16330743E-01 0.36690857E+03</pdfrwt>
<pdfrwt beam="2">  1       -2 0.42058490E-01 0.36690857E+03</pdfrwt>
<totfact> 0.19161494E+03</totfact>
</mgrwt>
</event>
<event>
 4    1  0.1049403E-004  0.4168301E+03  0.7818608E-02  0.1038103E+00
          2   -1    0    0  501    0  0.00000000000E+00  0.00000000000E+00  0.77963252279E+03  0.77963252280E+03  0.25500000000E-02 0.  1.
         -2   -1    0    0    0  501 -0.00000000000E+00 -0.00000000000E+00 -0.55714483178E+02  0.55714483236E+02  0.25500000000E-02 0. -1.
    5000001    1    1    2    0    0  0.63024898382E+02  0.10959193823E+03  0.33161293331E+03  0.39137535472E+03  0.16500000000E+03 0.  0.
   -5000001    1    1    2    0    0 -0.63024898382E+02 -0.10959193823E+03  0.39230510630E+03  0.44397165131E+03  0.16500000000E+03 0.  0.
<mgrwt>
<rscale>  0 0.41683005E+03</rscale>
<asrwt>0</asrwt>
<pdfrwt beam="1">  1        2 0.11137608E+00 0.41683005E+03</pdfrwt>
<pdfrwt beam="2">  1       -2 0.79592115E-02 0.41683005E+03</pdfrwt>
<totfact> 0.38616064E+03</totfact>
</mgrwt>
</event>
<event>
 4    1  0.1049403E-004  0.3911686E+03  0.7818608E-02  0.1046881E+00
         -2   -1    0    0    0  501 -0.00000000000E+00  0.00000000000E+00  0.18005288323E+04  0.18005288323E+04  0.25500000000E-02 0. -1.
          2   -1    0    0  501    0  0.00000000000E+00 -0.00000000000E+00 -0.21245550521E+02  0.21245550674E+02  0.25500000000E-02 0.  1.
    5000001    1    1    2    0    0 -0.58864707589E+02  0.68083734218E+02  0.11416411023E+04  0.11570090126E+04  0.16500000000E+03 0.  0.
   -5000001    1    1    2    0    0  0.58864707589E+02 -0.68083734218E+02  0.63764217946E+03  0.66476537041E+03  0.16500000000E+03 0.  0.
<mgrwt>
<rscale>  0 0.39116864E+03</rscale>
<asrwt>0</asrwt>
<pdfrwt beam="1">  1        2 0.30350771E-02 0.39116864E+03</pdfrwt>
<pdfrwt beam="2">  1       -2 0.25721854E+00 0.39116864E+03</pdfrwt>
<totfact> 0.19978720E+02</totfact>
</mgrwt>
</event>
<event>
 4    1  0.1049403E-004  0.3663177E+03  0.7818608E-02  0.1056110E+00
         -2   -1    0    0    0  501 -0.00000000000E+00  0.00000000000E+00  0.20566106255E+02  0.20566106413E+02  0.25500000000E-02 0. -1.
          2   -1    0    0  501    0  0.00000000000E+00 -0.00000000000E+00 -0.16311867000E+04  0.16311867000E+04  0.25500000000E-02 0.  1.
    5000001    1    1    2    0    0 -0.87813111590E+01 -0.77011271905E+02 -0.72536968699E+03  0.74792648719E+03  0.16500000000E+03 0.  0.
   -5000001    1    1    2    0    0  0.87813111590E+01  0.77011271905E+02 -0.88525090676E+03  0.90382631924E+03  0.16500000000E+03 0.  0.
<mgrwt>
<rscale>  0 0.36631767E+03</rscale>
<asrwt>0</asrwt>
<pdfrwt beam="1">  1        2 0.23302659E+00 0.36631767E+03</pdfrwt>
<pdfrwt beam="2">  1       -2 0.29380162E-02 0.36631767E+03</pdfrwt>
<totfact> 0.58758929E+03</totfact>
</mgrwt>
</event>
<event>
 4    1  0.1049403E-004  0.4971913E+03  0.7818608E-02  0.1014515E+00
         -2   -1    0    0    0  501 -0.00000000000E+00  0.00000000000E+00  0.12349814611E+03  0.12349814613E+03  0.25500000000E-02 0. -1.
          2   -1    0    0  501    0  0.00000000000E+00 -0.00000000000E+00 -0.50041079640E+03  0.50041079640E+03  0.25500000000E-02 0.  1.
    5000001    1    1    2    0    0 -0.10133025576E+03 -0.12938457382E+03 -0.79300093195E+02  0.24601157179E+03  0.16500000000E+03 0.  0.
   -5000001    1    1    2    0    0  0.10133025576E+03  0.12938457382E+03 -0.29761255710E+03  0.37789737074E+03  0.16500000000E+03 0.  0.
<mgrwt>
<rscale>  0 0.49719133E+03</rscale>
<asrwt>0</asrwt>
<pdfrwt beam="1">  1        2 0.71487256E-01 0.49719133E+03</pdfrwt>
<pdfrwt beam="2">  1       -2 0.17642593E-01 0.49719133E+03</pdfrwt>
<totfact> 0.17735922E+03</totfact>
</mgrwt>
</event>
<event>
 4    1  0.1049403E-004  0.3480361E+03  0.7818608E-02  0.1063424E+00
          2   -1    0    0  501    0  0.00000000000E+00  0.00000000000E+00  0.29789648616E+03  0.29789648617E+03  0.25500000000E-02 0.  1.
         -2   -1    0    0    0  501 -0.00000000000E+00 -0.00000000000E+00 -0.10165372339E+03  0.10165372342E+03  0.25500000000E-02 0. -1.
    5000001    1    1    2    0    0 -0.38378905414E+02 -0.36192823314E+02  0.11713916033E+03  0.20911586196E+03  0.16500000000E+03 0.  0.
   -5000001    1    1    2    0    0  0.38378905414E+02  0.36192823314E+02  0.79103602443E+02  0.19043434764E+03  0.16500000000E+03 0.  0.
<mgrwt>
<rscale>  0 0.34803613E+03</rscale>
<asrwt>0</asrwt>
<pdfrwt beam="1">  1        2 0.42556641E-01 0.34803613E+03</pdfrwt>
<pdfrwt beam="2">  1       -2 0.14521960E-01 0.34803613E+03</pdfrwt>
<totfact> 0.43300550E+03</totfact>
</mgrwt>
</event>
<event>
 4    1  0.1049403E-004  0.5787097E+03  0.7818608E-02  0.9950588E-01
         -2   -1    0    0    0  501 -0.00000000000E+00  0.00000000000E+00  0.33125140566E+02  0.33125140664E+02  0.25500000000E-02 0. -1.
          2   -1    0    0  501    0  0.00000000000E+00 -0.00000000000E+00 -0.25275739757E+04  0.25275739757E+04  0.25500000000E-02 0.  1.
    5000001    1    1    2    0    0  0.16012571803E+03 -0.17374662434E+03 -0.13620239799E+04  0.13921790319E+04  0.16500000000E+03 0.  0.
   -5000001    1    1    2    0    0 -0.16012571803E+03  0.17374662434E+03 -0.11324248552E+04  0.11685200845E+04  0.16500000000E+03 0.  0.
<mgrwt>
<rscale>  0 0.57870975E+03</rscale>
<asrwt>0</asrwt>
<pdfrwt beam="1">  1        2 0.36108187E+00 0.57870975E+03</pdfrwt>
<pdfrwt beam="2">  1       -2 0.47321645E-02 0.57870975E+03</pdfrwt>
<totfact> 0.10026457E+03</totfact>
</mgrwt>
</event>
<event>
 4    1  0.1049403E-004  0.5725855E+03  0.7818608E-02  0.9963974E-01
         -2   -1    0    0    0  501 -0.00000000000E+00  0.00000000000E+00  0.35739211910E+03  0.35739211911E+03  0.25500000000E-02 0. -1.
          2   -1    0    0  501    0  0.00000000000E+00 -0.00000000000E+00 -0.22933781126E+03  0.22933781128E+03  0.25500000000E-02 0.  1.
    5000001    1    1    2    0    0 -0.11506711132E+03  0.68177745640E+02  0.26073241526E+03  0.33629605629E+03  0.16500000000E+03 0.  0.
   -5000001    1    1    2    0    0  0.11506711132E+03 -0.68177745640E+02 -0.13267810742E+03  0.25043387410E+03  0.16500000000E+03 0.  0.
<mgrwt>
<rscale>  0 0.57258546E+03</rscale>
<asrwt>0</asrwt>
<pdfrwt beam="1">  1        2 0.32762545E-01 0.57258546E+03</pdfrwt>
<pdfrwt beam="2">  1       -2 0.51056017E-01 0.57258546E+03</pdfrwt>
<totfact> 0.58828281E+02</totfact>
</mgrwt>
</event>
<event>
 4    1  0.1049403E-004  0.5338566E+03  0.7818608E-02  0.1005301E+00
          2   -1    0    0  501    0  0.00000000000E+00  0.00000000000E+00  0.75961859774E+03  0.75961859774E+03  0.25500000000E-02 0.  1.
         -2   -1    0    0    0  501 -0.00000000000E+00 -0.00000000000E+00 -0.93798002675E+02  0.93798002709E+02  0.25500000000E-02 0. -1.
    5000001    1    1    2    0    0 -0.94893376914E+02  0.11570393082E+03  0.97784412233E+02  0.24326722727E+03  0.16500000000E+03 0.  0.
   -5000001    1    1    2    0    0  0.94893376914E+02 -0.11570393082E+03  0.56803618283E+03  0.61014937318E+03  0.16500000000E+03 0.  0.
<mgrwt>
<rscale>  0 0.53385656E+03</rscale>
<asrwt>0</asrwt>
<pdfrwt beam="1">  1        2 0.10851695E+00 0.53385656E+03</pdfrwt>
<pdfrwt beam="2">  1       -2 0.13399713E-01 0.53385656E+03</pdfrwt>
<totfact> 0.17204832E+03</totfact>
</mgrwt>
</event>
<event>
 4    1  0.1049403E-004  0.4957033E+03  0.7818608E-02  0.1014907E+00
          2   -1    0    0  501    0  0.00000000000E+00  0.00000000000E+00  0.24862021393E+04  0.24862021393E+04  0.25500000000E-02 0.  1.
         -2   -1    0    0    0  501 -0.00000000000E+00 -0.00000000000E+00 -0.24708549558E+02  0.24708549690E+02  0.25500000000E-02 0. -1.
    5000001    1    1    2    0    0  0.13660426862E+03  0.11769774567E+03  0.14391022651E+04  0.14597101818E+04  0.16500000000E+03 0.  0.
   -5000001    1    1    2    0    0 -0.13660426862E+03 -0.11769774567E+03  0.10223913247E+04  0.10512005072E+04  0.16500000000E+03 0.  0.
<mgrwt>
<rscale>  0 0.49570333E+03</rscale>
<asrwt>0</asrwt>
<pdfrwt beam="1">  1        2 0.35517145E+00 0.49570333E+03</pdfrwt>
<pdfrwt beam="2">  1       -2 0.35297957E-02 0.49570333E+03</pdfrwt>
<totfact> 0.16598779E+03</totfact>
</mgrwt>
</event>
<event>
 4    1  0.1049403E-004  0.5543200E+03  0.7818608E-02  0.1000499E+00
         -2   -1    0    0    0  501 -0.00000000000E+00  0.00000000000E+00  0.57902475033E+02  0.57902475089E+02  0.25500000000E-02 0. -1.
          2   -1    0    0  501    0  0.00000000000E+00 -0.00000000000E+00 -0.13266731252E+04  0.13266731252E+04  0.25500000000E-02 0.  1.
    5000001    1    1    2    0    0  0.16963879447E+03 -0.13378347669E+03 -0.49947410853E+03  0.56866046488E+03  0.16500000000E+03 0.  0.
   -5000001    1    1    2    0    0 -0.16963879447E+03  0.13378347669E+03 -0.76929654162E+03  0.81591513540E+03  0.16500000000E+03 0.  0.
<mgrwt>
<rscale>  0 0.55431997E+03</rscale>
<asrwt>0</asrwt>
<pdfrwt beam="1">  1        2 0.18952471E+00 0.55431997E+03</pdfrwt>
<pdfrwt beam="2">  1       -2 0.82717830E-02 0.55431997E+03</pdfrwt>
<totfact> 0.17101600E+03</totfact>
</mgrwt>
</event>
<event>
 4    1  0.1049403E-004  0.6277714E+03  0.7818608E-02  0.9849407E-01
          2   -1    0    0  501    0  0.00000000000E+00  0.00000000000E+00  0.16867148779E+03  0.16867148780E+03  0.25500000000E-02 0. -1.
         -2   -1    0    0    0  501 -0.00000000000E+00 -0.00000000000E+00 -0.58411905104E+03  0.58411905105E+03  0.25500000000E-02 0.  1.
    5000001    1    1    2    0    0 -0.11649701094E+03  0.23632446133E+03 -0.25969579499E+03  0.40507741299E+03  0.16500000000E+03 0.  0.
   -5000001    1    1    2    0    0  0.11649701094E+03 -0.23632446133E+03 -0.15575176827E+03  0.34771312586E+03  0.16500000000E+03 0.  0.
<mgrwt>
<rscale>  0 0.62777139E+03</rscale>
<asrwt>0</asrwt>
<pdfrwt beam="1">  1        2 0.24095927E-01 0.62777139E+03</pdfrwt>
<pdfrwt beam="2">  1       -2 0.83445578E-01 0.62777139E+03</pdfrwt>
<totfact> 0.29031811E+02</totfact>
</mgrwt>
</event>
<event>
 4    1  0.1049403E-004  0.6281339E+03  0.7818608E-02  0.9848697E-01
          2   -1    0    0  501    0  0.00000000000E+00  0.00000000000E+00  0.98567689269E+03  0.98567689269E+03  0.25500000000E-02 0.  1.
         -2   -1    0    0    0  501 -0.00000000000E+00 -0.00000000000E+00 -0.10007139272E+03  0.10007139275E+03  0.25500000000E-02 0. -1.
    5000001    1    1    2    0    0 -0.23663678098E+03  0.11359720152E+03  0.52943243924E+03  0.61353483848E+03  0.16500000000E+03 0.  0.
   -5000001    1    1    2    0    0  0.23663678098E+03 -0.11359720152E+03  0.35617306073E+03  0.47221344697E+03  0.16500000000E+03 0.  0.
<mgrwt>
<rscale>  0 0.62813393E+03</rscale>
<asrwt>0</asrwt>
<pdfrwt beam="1">  1        2 0.14081098E+00 0.62813393E+03</pdfrwt>
<pdfrwt beam="2">  1       -2 0.14295913E-01 0.62813393E+03</pdfrwt>
<totfact> 0.10942480E+03</totfact>
</mgrwt>
</event>
<event>
 4    1  0.1049403E-004  0.6358764E+03  0.7818608E-02  0.9833648E-01
          2   -1    0    0  501    0  0.00000000000E+00  0.00000000000E+00  0.12566577490E+04  0.12566577490E+04  0.25500000000E-02 0.  1.
         -2   -1    0    0    0  501 -0.00000000000E+00 -0.00000000000E+00 -0.80439312854E+02  0.80439312895E+02  0.25500000000E-02 0. -1.
    5000001    1    1    2    0    0  0.12227800383E+03 -0.22779186037E+03  0.76427309634E+03  0.82351648900E+03  0.16500000000E+03 0.  0.
   -5000001    1    1    2    0    0 -0.12227800383E+03  0.22779186037E+03  0.41194533983E+03  0.51358057291E+03  0.16500000000E+03 0.  0.
<mgrwt>
<rscale>  0 0.63587636E+03</rscale>
<asrwt>0</asrwt>
<pdfrwt beam="1">  1        2 0.17952251E+00 0.63587636E+03</pdfrwt>
<pdfrwt beam="2">  1       -2 0.11491332E-01 0.63587636E+03</pdfrwt>
<totfact> 0.10945779E+03</totfact>
</mgrwt>
</event>
<event>
 4    1  0.1049403E-004  0.7059662E+03  0.7818608E-02  0.9707083E-01
          2   -1    0    0  501    0  0.00000000000E+00  0.00000000000E+00  0.48007208158E+03  0.48007208159E+03  0.25500000000E-02 0.  1.
         -2   -1    0    0    0  501 -0.00000000000E+00 -0.00000000000E+00 -0.25953825688E+03  0.25953825690E+03  0.25500000000E-02 0. -1.
    5000001    1    1    2    0    0 -0.25223009009E+03 -0.36136159253E+02 -0.78445813456E+02  0.31353562158E+03  0.16500000000E+03 0.  0.
   -5000001    1    1    2    0    0  0.25223009009E+03  0.36136159253E+02  0.29897963815E+03  0.42607471690E+03  0.16500000000E+03 0.  0.
<mgrwt>
<rscale>  0 0.70596621E+03</rscale>
<asrwt>0</asrwt>
<pdfrwt beam="1">  1        2 0.68581725E-01 0.70596621E+03</pdfrwt>
<pdfrwt beam="2">  1       -2 0.37076894E-01 0.70596621E+03</pdfrwt>
<totfact> 0.48516658E+02</totfact>
</mgrwt>
</event>
<event>
 4    1  0.1049403E-004  0.3932637E+03  0.7818608E-02  0.1046138E+00
         -2   -1    0    0    0  501 -0.00000000000E+00  0.00000000000E+00  0.14851753989E+02  0.14851754208E+02  0.25500000000E-02 0. -1.
          2   -1    0    0  501    0  0.00000000000E+00 -0.00000000000E+00 -0.26033344218E+04  0.26033344218E+04  0.25500000000E-02 0.  1.
    5000001    1    1    2    0    0 -0.64792673413E+02  0.74750151354E+02 -0.15649527450E+04  0.15767332589E+04  0.16500000000E+03 0.  0.
   -5000001    1    1    2    0    0  0.64792673413E+02 -0.74750151354E+02 -0.10235299228E+04  0.10414529171E+04  0.16500000000E+03 0.  0.
<mgrwt>
<rscale>  0 0.39326369E+03</rscale>
<asrwt>0</asrwt>
<pdfrwt beam="1">  1        2 0.37190463E+00 0.39326369E+03</pdfrwt>
<pdfrwt beam="2">  1       -2 0.21216808E-02 0.39326369E+03</pdfrwt>
<totfact> 0.31310651E+03</totfact>
</mgrwt>
</event>
<event>
 4    1  0.1049403E-004  0.3745176E+03  0.7818608E-02  0.1052979E+00
          2   -1    0    0  501    0  0.00000000000E+00  0.00000000000E+00  0.59831947155E+03  0.59831947155E+03  0.25500000000E-02 0.  1.
         -2   -1    0    0    0  501 -0.00000000000E+00 -0.00000000000E+00 -0.58607246840E+02  0.58607246895E+02  0.25500000000E-02 0. -1.
    5000001    1    1    2    0    0 -0.40432732793E+02 -0.78628339521E+02  0.26132853916E+03  0.32145734870E+03  0.16500000000E+03 0.  0.
   -5000001    1    1    2    0    0  0.40432732793E+02  0.78628339521E+02  0.27838368555E+03  0.33546936975E+03  0.16500000000E+03 0.  0.
<mgrwt>
<rscale>  0 0.37451759E+03</rscale>
<asrwt>0</asrwt>
<pdfrwt beam="1">  1        2 0.85474205E-01 0.37451759E+03</pdfrwt>
<pdfrwt beam="2">  1       -2 0.83724644E-02 0.37451759E+03</pdfrwt>
<totfact> 0.48861598E+03</totfact>
</mgrwt>
</event>
<event>
 4    1  0.1049403E-004  0.5281847E+03  0.7818608E-02  0.1006673E+00
         -2   -1    0    0    0  501 -0.00000000000E+00  0.00000000000E+00  0.31656327155E+02  0.31656327258E+02  0.25500000000E-02 0. -1.
          2   -1    0    0  501    0  0.00000000000E+00 -0.00000000000E+00 -0.22031861298E+04  0.22031861298E+04  0.25500000000E-02 0.  1.
    5000001    1    1    2    0    0 -0.17924039970E+03 -0.33119125971E+01 -0.15168818703E+04  0.15363247372E+04  0.16500000000E+03 0.  0.
   -5000001    1    1    2    0    0  0.17924039970E+03  0.33119125971E+01 -0.65464793230E+03  0.69851771982E+03  0.16500000000E+03 0.  0.
<mgrwt>
<rscale>  0 0.52818474E+03</rscale>
<asrwt>0</asrwt>
<pdfrwt beam="1">  1        2 0.31474078E+00 0.52818474E+03</pdfrwt>
<pdfrwt beam="2">  1       -2 0.45223338E-02 0.52818474E+03</pdfrwt>
<totfact> 0.15755709E+03</totfact>
</mgrwt>
</event>
<event>
 4    1  0.1049403E-004  0.4454628E+03  0.7818608E-02  0.1029084E+00
         -2   -1    0    0    0  501 -0.00000000000E+00  0.00000000000E+00  0.89587126314E+02  0.89587126351E+02  0.25500000000E-02 0. -1.
          2   -1    0    0  501    0  0.00000000000E+00 -0.00000000000E+00 -0.55375463472E+03  0.55375463473E+03  0.25500000000E-02 0.  1.
    5000001    1    1    2    0    0 -0.63773073475E+02  0.79814313881E+02 -0.38993895857E+03  0.43556253398E+03  0.16500000000E+03 0.  0.
   -5000001    1    1    2    0    0  0.63773073475E+02 -0.79814313881E+02 -0.74228549838E+02  0.20777922709E+03  0.16500000000E+03 0.  0.
<mgrwt>
<rscale>  0 0.44546284E+03</rscale>
<asrwt>0</asrwt>
<pdfrwt beam="1">  1        2 0.79107803E-01 0.44546284E+03</pdfrwt>
<pdfrwt beam="2">  1       -2 0.12798161E-01 0.44546284E+03</pdfrwt>
<totfact> 0.27035985E+03</totfact>
</mgrwt>
</event>
<event>
 4    1  0.1049403E-004  0.4625490E+03  0.7818608E-02  0.1024045E+00
          2   -1    0    0  501    0  0.00000000000E+00  0.00000000000E+00  0.19823540563E+03  0.19823540565E+03  0.25500000000E-02 0.  1.
         -2   -1    0    0    0  501 -0.00000000000E+00 -0.00000000000E+00 -0.26982008388E+03  0.26982008389E+03  0.25500000000E-02 0. -1.
    5000001    1    1    2    0    0  0.61211171676E+02 -0.10199147032E+03 -0.14716542904E+03  0.25106120979E+03  0.16500000000E+03 0.  0.
   -5000001    1    1    2    0    0 -0.61211171676E+02  0.10199147032E+03  0.75580750788E+02  0.21699427975E+03  0.16500000000E+03 0.  0.
<mgrwt>
<rscale>  0 0.46254900E+03</rscale>
<asrwt>0</asrwt>
<pdfrwt beam="1">  1        2 0.28319344E-01 0.46254900E+03</pdfrwt>
<pdfrwt beam="2">  1       -2 0.38545726E-01 0.46254900E+03</pdfrwt>
<totfact> 0.12062878E+03</totfact>
</mgrwt>
</event>
<event>
 4    1  0.1049403E-004  0.6699023E+03  0.7818608E-02  0.9770134E-01
          2   -1    0    0  501    0  0.00000000000E+00  0.00000000000E+00  0.10564547653E+04  0.10564547653E+04  0.25500000000E-02 0.  1.
         -2   -1    0    0    0  501 -0.00000000000E+00 -0.00000000000E+00 -0.10619694097E+03  0.10619694100E+03  0.25500000000E-02 0. -1.
    5000001    1    1    2    0    0 -0.14774965446E+03  0.10867735140E+03  0.86832497795E+03  0.90269263563E+03  0.16500000000E+03 0.  0.
   -5000001    1    1    2    0    0  0.14774965446E+03 -0.10867735140E+03  0.81932846357E+02  0.25995907065E+03  0.16500000000E+03 0.  0.
<mgrwt>
<rscale>  0 0.66990227E+03</rscale>
<asrwt>0</asrwt>
<pdfrwt beam="1">  1        2 0.15092212E+00 0.66990227E+03</pdfrwt>
<pdfrwt beam="2">  1       -2 0.15170991E-01 0.66990227E+03</pdfrwt>
<totfact> 0.89616413E+02</totfact>
</mgrwt>
</event>
<event>
 4    1  0.1049403E-004  0.5301131E+03  0.7818608E-02  0.1006205E+00
         -2   -1    0    0    0  501 -0.00000000000E+00  0.00000000000E+00  0.76938909856E+02  0.76938909898E+02  0.25500000000E-02 0. -1.
          2   -1    0    0  501    0  0.00000000000E+00 -0.00000000000E+00 -0.91312688652E+03  0.91312688652E+03  0.25500000000E-02 0.  1.
    5000001    1    1    2    0    0  0.16744814166E+03 -0.50790703920E+02 -0.21002561630E+03  0.31930288952E+03  0.16500000000E+03 0.  0.
   -5000001    1    1    2    0    0 -0.16744814166E+03  0.50790703920E+02 -0.62616236036E+03  0.67076290691E+03  0.16500000000E+03 0.  0.
<mgrwt>
<rscale>  0 0.53011315E+03</rscale>
<asrwt>0</asrwt>
<pdfrwt beam="1">  1        2 0.13044669E+00 0.53011315E+03</pdfrwt>
<pdfrwt beam="2">  1       -2 0.10991273E-01 0.53011315E+03</pdfrwt>
<totfact> 0.18784382E+03</totfact>
</mgrwt>
</event>
<event>
 4    1  0.1049403E-004  0.7567759E+03  0.7818608E-02  0.9624780E-01
          2   -1    0    0  501    0  0.00000000000E+00  0.00000000000E+00  0.50166593909E+03  0.50166593910E+03  0.25500000000E-02 0.  1.
         -2   -1    0    0    0  501 -0.00000000000E+00 -0.00000000000E+00 -0.28540393371E+03  0.28540393372E+03  0.25500000000E-02 0. -1.
    5000001    1    1    2    0    0  0.26873185126E+03  0.20911847236E+03  0.11047720281E+03  0.39417959828E+03  0.16500000000E+03 0.  0.
   -5000001    1    1    2    0    0 -0.26873185126E+03 -0.20911847236E+03  0.10578480258E+03  0.39289027453E+03  0.16500000000E+03 0.  0.
<mgrwt>
<rscale>  0 0.75677588E+03</rscale>
<asrwt>0</asrwt>
<pdfrwt beam="1">  1        2 0.71666563E-01 0.75677588E+03</pdfrwt>
<pdfrwt beam="2">  1       -2 0.40771990E-01 0.75677588E+03</pdfrwt>
<totfact> 0.38327550E+02</totfact>
</mgrwt>
</event>
<event>
 4    1  0.1049403E-004  0.3948699E+03  0.7818608E-02  0.1045571E+00
          2   -1    0    0  501    0  0.00000000000E+00  0.00000000000E+00  0.31717977991E+04  0.31717977991E+04  0.25500000000E-02 0.  1.
         -2   -1    0    0    0  501 -0.00000000000E+00 -0.00000000000E+00 -0.12289737218E+02  0.12289737482E+02  0.25500000000E-02 0. -1.
    5000001    1    1    2    0    0 -0.30339868796E+02  0.91021170259E+02  0.19869637596E+04  0.19961100528E+04  0.16500000000E+03 0.  0.
   -5000001    1    1    2    0    0  0.30339868796E+02 -0.91021170259E+02  0.11725443023E+04  0.11879774838E+04  0.16500000000E+03 0.  0.
<mgrwt>
<rscale>  0 0.39486991E+03</rscale>
<asrwt>0</asrwt>
<pdfrwt beam="1">  1        2 0.45311350E+00 0.39486991E+03</pdfrwt>
<pdfrwt beam="2">  1       -2 0.17556786E-02 0.39486991E+03</pdfrwt>
<totfact> 0.20749121E+03</totfact>
</mgrwt>
</event>
<event>
 4    1  0.1049403E-004  0.4194769E+03  0.7818608E-02  0.1037237E+00
          2   -1    0    0  501    0  0.00000000000E+00  0.00000000000E+00  0.17200303679E+04  0.17200303679E+04  0.25500000000E-02 0.  1.
         -2   -1    0    0    0  501 -0.00000000000E+00 -0.00000000000E+00 -0.25575252341E+02  0.25575252468E+02  0.25500000000E-02 0. -1.
    5000001    1    1    2    0    0 -0.55725764381E+02 -0.11577763040E+03  0.91373041464E+03  0.93735697104E+03  0.16500000000E+03 0.  0.
   -5000001    1    1    2    0    0  0.55725764381E+02  0.11577763040E+03  0.78072470089E+03  0.80824864930E+03  0.16500000000E+03 0.  0.
<mgrwt>
<rscale>  0 0.41947687E+03</rscale>
<asrwt>0</asrwt>
<pdfrwt beam="1">  1        2 0.24571874E+00 0.41947687E+03</pdfrwt>
<pdfrwt beam="2">  1       -2 0.36536058E-02 0.41947687E+03</pdfrwt>
<totfact> 0.38176253E+03</totfact>
</mgrwt>
</event>
<event>
 4    1  0.1049403E-004  0.1523614E+04  0.7818608E-02  0.8868900E-01
         -2   -1    0    0    0  501 -0.00000000000E+00  0.00000000000E+00  0.23595306883E+03  0.23595306884E+03  0.25500000000E-02 0. -1.
          2   -1    0    0  501    0  0.00000000000E+00 -0.00000000000E+00 -0.24595992330E+04  0.24595992330E+04  0.25500000000E-02 0.  1.
    5000001    1    1    2    0    0 -0.18710338307E+03  0.11608879201E+03 -0.23686165539E+04  0.23845447497E+04  0.16500000000E+03 0.  0.
   -5000001    1    1    2    0    0  0.18710338307E+03 -0.11608879201E+03  0.14497038979E+03  0.31100755216E+03  0.16500000000E+03 0.  0.
<mgrwt>
<rscale>  0 0.15236141E+04</rscale>
<asrwt>0</asrwt>
<pdfrwt beam="1">  1        2 0.35137130E+00 0.15236141E+04</pdfrwt>
<pdfrwt beam="2">  1       -2 0.33707583E-01 0.15236141E+04</pdfrwt>
<totfact> 0.36859211E+01</totfact>
</mgrwt>
</event>
<event>
 4    1  0.1049403E-004  0.5370884E+03  0.7818608E-02  0.1004527E+00
         -2   -1    0    0    0  501 -0.00000000000E+00  0.00000000000E+00  0.10243696071E+03  0.10243696074E+03  0.25500000000E-02 0. -1.
          2   -1    0    0  501    0  0.00000000000E+00 -0.00000000000E+00 -0.70400345580E+03  0.70400345581E+03  0.25500000000E-02 0.  1.
    5000001    1    1    2    0    0 -0.16828821385E+03 -0.43403608139E+02 -0.11882114388E+03  0.26748506566E+03  0.16500000000E+03 0.  0.
   -5000001    1    1    2    0    0  0.16828821385E+03  0.43403608139E+02 -0.48274535122E+03  0.53895535088E+03  0.16500000000E+03 0.  0.
<mgrwt>
<rscale>  0 0.53708835E+03</rscale>
<asrwt>0</asrwt>
<pdfrwt beam="1">  1        2 0.10057192E+00 0.53708835E+03</pdfrwt>
<pdfrwt beam="2">  1       -2 0.14633852E-01 0.53708835E+03</pdfrwt>
<totfact> 0.16316702E+03</totfact>
</mgrwt>
</event>
<event>
 4    1  0.1049403E-004  0.4354996E+03  0.7818608E-02  0.1032137E+00
         -2   -1    0    0    0  501 -0.00000000000E+00  0.00000000000E+00  0.22254395813E+02  0.22254395959E+02  0.25500000000E-02 0. -1.
          2   -1    0    0  501    0  0.00000000000E+00 -0.00000000000E+00 -0.21305892445E+04  0.21305892445E+04  0.25500000000E-02 0.  1.
    5000001    1    1    2    0    0  0.97064082981E+02  0.75801042196E+02 -0.14045118178E+04  0.14195230468E+04  0.16500000000E+03 0.  0.
   -5000001    1    1    2    0    0 -0.97064082981E+02 -0.75801042196E+02 -0.70382303089E+03  0.73332059361E+03  0.16500000000E+03 0.  0.
<mgrwt>
<rscale>  0 0.43549961E+03</rscale>
<asrwt>0</asrwt>
<pdfrwt beam="1">  1        2 0.30436976E+00 0.43549961E+03</pdfrwt>
<pdfrwt beam="2">  1       -2 0.31792008E-02 0.43549961E+03</pdfrwt>
<totfact> 0.29440604E+03</totfact>
</mgrwt>
</event>
<event>
 4    1  0.1049403E-004  0.3809288E+03  0.7818608E-02  0.1050591E+00
          2   -1    0    0  501    0  0.00000000000E+00  0.00000000000E+00  0.51944800072E+03  0.51944800073E+03  0.25500000000E-02 0.  1.
         -2   -1    0    0    0  501 -0.00000000000E+00 -0.00000000000E+00 -0.69836977578E+02  0.69836977624E+02  0.25500000000E-02 0. -1.
    5000001    1    1    2    0    0  0.77322742164E+02 -0.55171838917E+02  0.21648343222E+03  0.28829293209E+03  0.16500000000E+03 0.  0.
   -5000001    1    1    2    0    0 -0.77322742164E+02  0.55171838917E+02  0.23312759092E+03  0.30099204626E+03  0.16500000000E+03 0.  0.
<mgrwt>
<rscale>  0 0.38092875E+03</rscale>
<asrwt>0</asrwt>
<pdfrwt beam="1">  1        2 0.74206860E-01 0.38092875E+03</pdfrwt>
<pdfrwt beam="2">  1       -2 0.99767107E-02 0.38092875E+03</pdfrwt>
<totfact> 0.43448656E+03</totfact>
</mgrwt>
</event>
<event>
 4    1  0.1049403E-004  0.5169693E+03  0.7818608E-02  0.1009442E+00
         -2   -1    0    0    0  501 -0.00000000000E+00  0.00000000000E+00  0.22533729886E+03  0.22533729887E+03  0.25500000000E-02 0. -1.
          2   -1    0    0  501    0  0.00000000000E+00 -0.00000000000E+00 -0.29650800861E+03  0.29650800862E+03  0.25500000000E-02 0.  1.
    5000001    1    1    2    0    0 -0.11623105027E+03  0.14287942824E+03  0.40391586487E+02  0.25056070785E+03  0.16500000000E+03 0.  0.
   -5000001    1    1    2    0    0  0.11623105027E+03 -0.14287942824E+03 -0.11156229624E+03  0.27128459964E+03  0.16500000000E+03 0.  0.
<mgrwt>
<rscale>  0 0.51696930E+03</rscale>
<asrwt>0</asrwt>
<pdfrwt beam="1">  1        2 0.42358286E-01 0.51696930E+03</pdfrwt>
<pdfrwt beam="2">  1       -2 0.32191043E-01 0.51696930E+03</pdfrwt>
<totfact> 0.10857731E+03</totfact>
</mgrwt>
</event>
<event>
 4    1  0.1049403E-004  0.3921126E+03  0.7818608E-02  0.1046546E+00
          2   -1    0    0  501    0  0.00000000000E+00  0.00000000000E+00  0.81832258117E+03  0.81832258118E+03  0.25500000000E-02 0.  1.
         -2   -1    0    0    0  501 -0.00000000000E+00 -0.00000000000E+00 -0.46971796559E+02  0.46971796628E+02  0.25500000000E-02 0. -1.
    5000001    1    1    2    0    0 -0.90339926127E+02  0.48070195521E+02  0.44574746989E+03  0.48619733942E+03  0.16500000000E+03 0.  0.
   -5000001    1    1    2    0    0  0.90339926127E+02 -0.48070195521E+02  0.32560331473E+03  0.37909703838E+03  0.16500000000E+03 0.  0.
<mgrwt>
<rscale>  0 0.39211265E+03</rscale>
<asrwt>0</asrwt>
<pdfrwt beam="1">  1        2 0.11690323E+00 0.39211265E+03</pdfrwt>
<pdfrwt beam="2">  1       -2 0.67102566E-02 0.39211265E+03</pdfrwt>
<totfact> 0.47450573E+03</totfact>
</mgrwt>
</event>
<event>
 4    1  0.1049403E-004  0.4915453E+03  0.7818608E-02  0.1016010E+00
         -2   -1    0    0    0  501 -0.00000000000E+00  0.00000000000E+00  0.67261910884E+02  0.67261910933E+02  0.25500000000E-02 0.  1.
          2   -1    0    0  501    0  0.00000000000E+00 -0.00000000000E+00 -0.89804460092E+03  0.89804460092E+03  0.25500000000E-02 0. -1.
    5000001    1    1    2    0    0 -0.11656183408E+03  0.11292852730E+03 -0.25297876799E+03  0.34287427798E+03  0.16500000000E+03 0.  0.
   -5000001    1    1    2    0    0  0.11656183408E+03 -0.11292852730E+03 -0.57780392204E+03  0.62243223388E+03  0.16500000000E+03 0.  0.
<mgrwt>
<rscale>  0 0.49154530E+03</rscale>
<asrwt>0</asrwt>
<pdfrwt beam="1">  1        2 0.12829208E+00 0.49154530E+03</pdfrwt>
<pdfrwt beam="2">  1       -2 0.96088449E-02 0.49154530E+03</pdfrwt>
<totfact> 0.23876348E+03</totfact>
</mgrwt>
</event>
<event>
 4    1  0.1049403E-004  0.4660040E+03  0.7818608E-02  0.1023054E+00
         -2   -1    0    0    0  501 -0.00000000000E+00  0.00000000000E+00  0.60649106046E+02  0.60649106100E+02  0.25500000000E-02 0. -1.
          2   -1    0    0  501    0  0.00000000000E+00 -0.00000000000E+00 -0.89514805090E+03  0.89514805090E+03  0.25500000000E-02 0.  1.
    5000001    1    1    2    0    0  0.75242053859E+02 -0.94639441321E+02 -0.64607652918E+03  0.67768567351E+03  0.16500000000E+03 0.  0.
   -5000001    1    1    2    0    0 -0.75242053859E+02  0.94639441321E+02 -0.18842241567E+03  0.27811148349E+03  0.16500000000E+03 0.  0.
<mgrwt>
<rscale>  0 0.46600399E+03</rscale>
<asrwt>0</asrwt>
<pdfrwt beam="1">  1        2 0.12787828E+00 0.46600399E+03</pdfrwt>
<pdfrwt beam="2">  1       -2 0.86641586E-02 0.46600399E+03</pdfrwt>
<totfact> 0.28293889E+03</totfact>
</mgrwt>
</event>
<event>
 4    1  0.1049403E-004  0.6741475E+03  0.7818608E-02  0.9762494E-01
          2   -1    0    0  501    0  0.00000000000E+00  0.00000000000E+00  0.34654557385E+03  0.34654557386E+03  0.25500000000E-02 0.  1.
         -2   -1    0    0    0  501 -0.00000000000E+00 -0.00000000000E+00 -0.32786082051E+03  0.32786082052E+03  0.25500000000E-02 0. -1.
    5000001    1    1    2    0    0 -0.13683227004E+03 -0.36533916852E+02  0.26699888665E+03  0.34434169465E+03  0.16500000000E+03 0.  0.
   -5000001    1    1    2    0    0  0.13683227004E+03  0.36533916852E+02 -0.24831413331E+03  0.33006469973E+03  0.16500000000E+03 0.  0.
<mgrwt>
<rscale>  0 0.67414751E+03</rscale>
<asrwt>0</asrwt>
<pdfrwt beam="1">  1        2 0.49506511E-01 0.67414751E+03</pdfrwt>
<pdfrwt beam="2">  1       -2 0.46837260E-01 0.67414751E+03</pdfrwt>
<totfact> 0.44222164E+02</totfact>
</mgrwt>
</event>
<event>
 4    1  0.1049403E-004  0.3943787E+03  0.7818608E-02  0.1045744E+00
          2   -1    0    0  501    0  0.00000000000E+00  0.00000000000E+00  0.19313996595E+04  0.19313996595E+04  0.25500000000E-02 0.  1.
         -2   -1    0    0    0  501 -0.00000000000E+00 -0.00000000000E+00 -0.20132358408E+02  0.20132358570E+02  0.25500000000E-02 0. -1.
    5000001    1    1    2    0    0 -0.56868945493E+02 -0.87928375716E+02  0.10859134813E+04  0.11033578591E+04  0.16500000000E+03 0.  0.
   -5000001    1    1    2    0    0  0.56868945493E+02  0.87928375716E+02  0.82535381976E+03  0.84817415901E+03  0.16500000000E+03 0.  0.
<mgrwt>
<rscale>  0 0.39437865E+03</rscale>
<asrwt>0</asrwt>
<pdfrwt beam="1">  1        2 0.27591427E+00 0.39437865E+03</pdfrwt>
<pdfrwt beam="2">  1       -2 0.28760508E-02 0.39437865E+03</pdfrwt>
<totfact> 0.43019057E+03</totfact>
</mgrwt>
</event>
<event>
 4    1  0.1049403E-004  0.3568569E+03  0.7818608E-02  0.1059835E+00
          2   -1    0    0  501    0  0.00000000000E+00  0.00000000000E+00  0.45236303106E+03  0.45236303107E+03  0.25500000000E-02 0.  1.
         -2   -1    0    0    0  501 -0.00000000000E+00 -0.00000000000E+00 -0.70378676546E+02  0.70378676592E+02  0.25500000000E-02 0. -1.
    5000001    1    1    2    0    0 -0.14610439497E+02  0.66068947309E+02  0.18255933435E+03  0.25520870146E+03  0.16500000000E+03 0.  0.
   -5000001    1    1    2    0    0  0.14610439497E+02 -0.66068947309E+02  0.19942502016E+03  0.26753300620E+03  0.16500000000E+03 0.  0.
<mgrwt>
<rscale>  0 0.35685690E+03</rscale>
<asrwt>0</asrwt>
<pdfrwt beam="1">  1        2 0.64623292E-01 0.35685690E+03</pdfrwt>
<pdfrwt beam="2">  1       -2 0.10054096E-01 0.35685690E+03</pdfrwt>
<totfact> 0.49988185E+03</totfact>
</mgrwt>
</event>
<event>
 4    1  0.1049403E-004  0.4700481E+03  0.7818608E-02  0.1021907E+00
          2   -1    0    0  501    0  0.00000000000E+00  0.00000000000E+00  0.34167504416E+03  0.34167504417E+03  0.25500000000E-02 0.  1.
         -2   -1    0    0    0  501 -0.00000000000E+00 -0.00000000000E+00 -0.16166327638E+03  0.16166327640E+03  0.25500000000E-02 0. -1.
    5000001    1    1    2    0    0 -0.31181174616E+02  0.16238022538E+03  0.11775867095E+03  0.26159454855E+03  0.16500000000E+03 0.  0.
   -5000001    1    1    2    0    0  0.31181174616E+02 -0.16238022538E+03  0.62253096836E+02  0.24174377202E+03  0.16500000000E+03 0.  0.
<mgrwt>
<rscale>  0 0.47004811E+03</rscale>
<asrwt>0</asrwt>
<pdfrwt beam="1">  1        2 0.48810720E-01 0.47004811E+03</pdfrwt>
<pdfrwt beam="2">  1       -2 0.23094754E-01 0.47004811E+03</pdfrwt>
<totfact> 0.16961756E+03</totfact>
</mgrwt>
</event>
<event>
 4    1  0.1049403E-004  0.4677886E+03  0.7818608E-02  0.1022546E+00
          2   -1    0    0  501    0  0.00000000000E+00  0.00000000000E+00  0.78009265265E+03  0.78009265265E+03  0.25500000000E-02 0.  1.
         -2   -1    0    0    0  501 -0.00000000000E+00 -0.00000000000E+00 -0.70128276753E+02  0.70128276799E+02  0.25500000000E-02 0. -1.
    5000001    1    1    2    0    0  0.88877642970E+02 -0.10268152055E+03  0.52777993211E+03  0.56940265789E+03  0.16500000000E+03 0.  0.
   -5000001    1    1    2    0    0 -0.88877642970E+02  0.10268152055E+03  0.18218444379E+03  0.28081827156E+03  0.16500000000E+03 0.  0.
<mgrwt>
<rscale>  0 0.46778864E+03</rscale>
<asrwt>0</asrwt>
<pdfrwt beam="1">  1        2 0.11144180E+00 0.46778864E+03</pdfrwt>
<pdfrwt beam="2">  1       -2 0.10018326E-01 0.46778864E+03</pdfrwt>
<totfact> 0.26762803E+03</totfact>
</mgrwt>
</event>
<event>
 4    1  0.1049403E-004  0.4421939E+03  0.7818608E-02  0.1030076E+00
          2   -1    0    0  501    0  0.00000000000E+00  0.00000000000E+00  0.17240084605E+04  0.17240084605E+04  0.25500000000E-02 0.  1.
         -2   -1    0    0    0  501 -0.00000000000E+00 -0.00000000000E+00 -0.28354768147E+02  0.28354768262E+02  0.25500000000E-02 0. -1.
    5000001    1    1    2    0    0  0.43939837060E+02 -0.14032241126E+03  0.82347141589E+03  0.85261436838E+03  0.16500000000E+03 0.  0.
   -5000001    1    1    2    0    0 -0.43939837060E+02  0.14032241126E+03  0.87218227645E+03  0.89974886037E+03  0.16500000000E+03 0.  0.
<mgrwt>
<rscale>  0 0.44219390E+03</rscale>
<asrwt>0</asrwt>
<pdfrwt beam="1">  1        2 0.24628695E+00 0.44219390E+03</pdfrwt>
<pdfrwt beam="2">  1       -2 0.40506808E-02 0.44219390E+03</pdfrwt>
<totfact> 0.32472276E+03</totfact>
</mgrwt>
</event>
<event>
 4    1  0.1049403E-004  0.5808009E+03  0.7818608E-02  0.9946059E-01
          2   -1    0    0  501    0  0.00000000000E+00  0.00000000000E+00  0.49993941890E+03  0.49993941890E+03  0.25500000000E-02 0.  1.
         -2   -1    0    0    0  501 -0.00000000000E+00 -0.00000000000E+00 -0.16868527647E+03  0.16868527649E+03  0.25500000000E-02 0. -1.
    5000001    1    1    2    0    0 -0.16911762399E+03 -0.16820688147E+03  0.18243213340E+03  0.34263801455E+03  0.16500000000E+03 0.  0.
   -5000001    1    1    2    0    0  0.16911762399E+03  0.16820688147E+03  0.14882200903E+03  0.32598668084E+03  0.16500000000E+03 0.  0.
<mgrwt>
<rscale>  0 0.58080089E+03</rscale>
<asrwt>0</asrwt>
<pdfrwt beam="1">  1        2 0.71419915E-01 0.58080089E+03</pdfrwt>
<pdfrwt beam="2">  1       -2 0.24097897E-01 0.58080089E+03</pdfrwt>
<totfact> 0.10303186E+03</totfact>
</mgrwt>
</event>
<event>
 4    1  0.1049403E-004  0.3640253E+03  0.7818608E-02  0.1057001E+00
          2   -1    0    0  501    0  0.00000000000E+00  0.00000000000E+00  0.65562955471E+03  0.65562955471E+03  0.25500000000E-02 0.  1.
         -2   -1    0    0    0  501 -0.00000000000E+00 -0.00000000000E+00 -0.50529453774E+02  0.50529453838E+02  0.25500000000E-02 0. -1.
    5000001    1    1    2    0    0 -0.58110773949E+02  0.42831110130E+02  0.35358861252E+03  0.39681390216E+03  0.16500000000E+03 0.  0.
   -5000001    1    1    2    0    0  0.58110773949E+02 -0.42831110130E+02  0.25151148842E+03  0.30934510639E+03  0.16500000000E+03 0.  0.
<mgrwt>
<rscale>  0 0.36402529E+03</rscale>
<asrwt>0</asrwt>
<pdfrwt beam="1">  1        2 0.93661365E-01 0.36402529E+03</pdfrwt>
<pdfrwt beam="2">  1       -2 0.72184934E-02 0.36402529E+03</pdfrwt>
<totfact> 0.55406889E+03</totfact>
</mgrwt>
</event>
<event>
 4    1  0.1049403E-004  0.1280721E+04  0.7818608E-02  0.9044995E-01
          2   -1    0    0  501    0  0.00000000000E+00  0.00000000000E+00  0.19303188543E+04  0.19303188543E+04  0.25500000000E-02 0.  1.
         -2   -1    0    0    0  501 -0.00000000000E+00 -0.00000000000E+00 -0.21243207050E+03  0.21243207051E+03  0.25500000000E-02 0. -1.
    5000001    1    1    2    0    0  0.54571772285E+02  0.47278242685E+03  0.19741925498E+03  0.54101817317E+03  0.16500000000E+03 0.  0.
   -5000001    1    1    2    0    0 -0.54571772285E+02 -0.47278242685E+03  0.15204675288E+04  0.16017327516E+04  0.16500000000E+03 0.  0.
<mgrwt>
<rscale>  0 0.12807211E+04</rscale>
<asrwt>0</asrwt>
<pdfrwt beam="1">  1        2 0.27575984E+00 0.12807211E+04</pdfrwt>
<pdfrwt beam="2">  1       -2 0.30347438E-01 0.12807211E+04</pdfrwt>
<totfact> 0.85875956E+01</totfact>
</mgrwt>
</event>
<event>
 4    1  0.1049403E-004  0.4553006E+03  0.7818608E-02  0.1026153E+00
          2   -1    0    0  501    0  0.00000000000E+00  0.00000000000E+00  0.51344066362E+03  0.51344066363E+03  0.25500000000E-02 0.  1.
         -2   -1    0    0    0  501 -0.00000000000E+00 -0.00000000000E+00 -0.10093601759E+03  0.10093601763E+03  0.25500000000E-02 0. -1.
    5000001    1    1    2    0    0  0.22475575769E+01 -0.14080406128E+03  0.11306818105E+03  0.24462266607E+03  0.16500000000E+03 0.  0.
   -5000001    1    1    2    0    0 -0.22475575769E+01  0.14080406128E+03  0.29943646498E+03  0.36975401519E+03  0.16500000000E+03 0.  0.
<mgrwt>
<rscale>  0 0.45530059E+03</rscale>
<asrwt>0</asrwt>
<pdfrwt beam="1">  1        2 0.73348666E-01 0.45530059E+03</pdfrwt>
<pdfrwt beam="2">  1       -2 0.14419431E-01 0.45530059E+03</pdfrwt>
<totfact> 0.24191612E+03</totfact>
</mgrwt>
</event>
<event>
 4    1  0.1049403E-004  0.8312204E+03  0.7818608E-02  0.9515895E-01
          2   -1    0    0  501    0  0.00000000000E+00  0.00000000000E+00  0.47896145643E+04  0.47896145643E+04  0.25500000000E-02 0.  1.
         -2   -1    0    0    0  501 -0.00000000000E+00 -0.00000000000E+00 -0.36063832734E+02  0.36063832824E+02  0.25500000000E-02 0. -1.
    5000001    1    1    2    0    0 -0.14223754441E+03  0.35371013281E+03  0.23023191671E+04  0.23394958697E+04  0.16500000000E+03 0.  0.
   -5000001    1    1    2    0    0  0.14223754441E+03 -0.35371013281E+03  0.24512315645E+04  0.24861825275E+04  0.16500000000E+03 0.  0.
<mgrwt>
<rscale>  0 0.83122045E+03</rscale>
<asrwt>0</asrwt>
<pdfrwt beam="1">  1        2 0.68423054E+00 0.83122045E+03</pdfrwt>
<pdfrwt beam="2">  1       -2 0.51519770E-02 0.83122045E+03</pdfrwt>
<totfact> 0.30346624E+01</totfact>
</mgrwt>
</event>
<event>
 4    1  0.1049403E-004  0.5319132E+03  0.7818608E-02  0.1005769E+00
          2   -1    0    0  501    0  0.00000000000E+00  0.00000000000E+00  0.70820298023E+03  0.70820298023E+03  0.25500000000E-02 0.  1.
         -2   -1    0    0    0  501 -0.00000000000E+00 -0.00000000000E+00 -0.99876601516E+02  0.99876601549E+02  0.25500000000E-02 0. -1.
    5000001    1    1    2    0    0  0.17357022113E+03  0.20345642816E+02  0.13116608502E+03  0.27380669952E+03  0.16500000000E+03 0.  0.
   -5000001    1    1    2    0    0 -0.17357022113E+03 -0.20345642816E+02  0.47716029369E+03  0.53427288226E+03  0.16500000000E+03 0.  0.
<mgrwt>
<rscale>  0 0.53191318E+03</rscale>
<asrwt>0</asrwt>
<pdfrwt beam="1">  1        2 0.10117185E+00 0.53191318E+03</pdfrwt>
<pdfrwt beam="2">  1       -2 0.14268086E-01 0.53191318E+03</pdfrwt>
<totfact> 0.16899340E+03</totfact>
</mgrwt>
</event>
<event>
 4    1  0.1049403E-004  0.6934300E+03  0.7818608E-02  0.9728534E-01
          2   -1    0    0  501    0  0.00000000000E+00  0.00000000000E+00  0.57047925652E+03  0.57047925653E+03  0.25500000000E-02 0.  1.
         -2   -1    0    0    0  501 -0.00000000000E+00 -0.00000000000E+00 -0.21071982960E+03  0.21071982961E+03  0.25500000000E-02 0. -1.
    5000001    1    1    2    0    0  0.15529104692E+03 -0.25274284494E+03  0.25947694969E+03  0.42725582775E+03  0.16500000000E+03 0.  0.
   -5000001    1    1    2    0    0 -0.15529104692E+03  0.25274284494E+03  0.10028247724E+03  0.35394325840E+03  0.16500000000E+03 0.  0.
<mgrwt>
<rscale>  0 0.69343000E+03</rscale>
<asrwt>0</asrwt>
<pdfrwt beam="1">  1        2 0.81497036E-01 0.69343000E+03</pdfrwt>
<pdfrwt beam="2">  1       -2 0.30102833E-01 0.69343000E+03</pdfrwt>
<totfact> 0.58931397E+02</totfact>
</mgrwt>
</event>
<event>
 4    1  0.1049403E-004  0.4622261E+03  0.7818608E-02  0.1024138E+00
         -2   -1    0    0    0  501 -0.00000000000E+00  0.00000000000E+00  0.45634836154E+02  0.45634836225E+02  0.25500000000E-02 0. -1.
          2   -1    0    0  501    0  0.00000000000E+00 -0.00000000000E+00 -0.11704487535E+04  0.11704487535E+04  0.25500000000E-02 0.  1.
    5000001    1    1    2    0    0 -0.14908362474E+03  0.50829816952E+02 -0.66009341836E+03  0.69839667698E+03  0.16500000000E+03 0.  0.
   -5000001    1    1    2    0    0  0.14908362474E+03 -0.50829816952E+02 -0.46472049902E+03  0.51768691278E+03  0.16500000000E+03 0.  0.
<mgrwt>
<rscale>  0 0.46222608E+03</rscale>
<asrwt>0</asrwt>
<pdfrwt beam="1">  1        2 0.16720695E+00 0.46222608E+03</pdfrwt>
<pdfrwt beam="2">  1       -2 0.65192630E-02 0.46222608E+03</pdfrwt>
<totfact> 0.30374225E+03</totfact>
</mgrwt>
</event>
<event>
 4    1  0.1049403E-004  0.4400845E+03  0.7818608E-02  0.1030721E+00
          2   -1    0    0  501    0  0.00000000000E+00  0.00000000000E+00  0.89449625458E+02  0.89449625495E+02  0.25500000000E-02 0.  1.
         -2   -1    0    0    0  501 -0.00000000000E+00 -0.00000000000E+00 -0.54129457557E+03  0.54129457558E+03  0.25500000000E-02 0. -1.
    5000001    1    1    2    0    0  0.11272959969E+03  0.91667331669E+02 -0.23895897687E+03  0.32471103302E+03  0.16500000000E+03 0.  0.
   -5000001    1    1    2    0    0 -0.11272959969E+03 -0.91667331669E+02 -0.21288597324E+03  0.30603316805E+03  0.16500000000E+03 0.  0.
<mgrwt>
<rscale>  0 0.44008452E+03</rscale>
<asrwt>0</asrwt>
<pdfrwt beam="1">  1        2 0.12778518E-01 0.44008452E+03</pdfrwt>
<pdfrwt beam="2">  1       -2 0.77327795E-01 0.44008452E+03</pdfrwt>
<totfact> 0.73189325E+02</totfact>
</mgrwt>
</event>
<event>
 4    1  0.1049403E-004  0.5639073E+03  0.7818608E-02  0.9983252E-01
          2   -1    0    0  501    0  0.00000000000E+00  0.00000000000E+00  0.19781574699E+04  0.19781574699E+04  0.25500000000E-02 0.  1.
         -2   -1    0    0    0  501 -0.00000000000E+00 -0.00000000000E+00 -0.40187825726E+02  0.40187825807E+02  0.25500000000E-02 0. -1.
    5000001    1    1    2    0    0 -0.22257366304E+03  0.33458954847E+02  0.82517738860E+03  0.87109199272E+03  0.16500000000E+03 0.  0.
   -5000001    1    1    2    0    0  0.22257366304E+03 -0.33458954847E+02  0.11127922556E+04  0.11472533030E+04  0.16500000000E+03 0.  0.
<mgrwt>
<rscale>  0 0.56390725E+03</rscale>
<asrwt>0</asrwt>
<pdfrwt beam="1">  1        2 0.28259395E+00 0.56390725E+03</pdfrwt>
<pdfrwt beam="2">  1       -2 0.57411175E-02 0.56390725E+03</pdfrwt>
<totfact> 0.14084956E+03</totfact>
</mgrwt>
</event>
<event>
 4    1  0.1049403E-004  0.3992601E+03  0.7818608E-02  0.1044036E+00
          2   -1    0    0  501    0  0.00000000000E+00  0.00000000000E+00  0.23668339353E+03  0.23668339354E+03  0.25500000000E-02 0.  1.
         -2   -1    0    0    0  501 -0.00000000000E+00 -0.00000000000E+00 -0.16837748517E+03  0.16837748518E+03  0.25500000000E-02 0. -1.
    5000001    1    1    2    0    0  0.66917177974E+02 -0.52209554151E+02 -0.40560799090E+02  0.18993136833E+03  0.16500000000E+03 0.  0.
   -5000001    1    1    2    0    0 -0.66917177974E+02  0.52209554151E+02  0.10886670746E+03  0.21512951040E+03  0.16500000000E+03 0.  0.
<mgrwt>
<rscale>  0 0.39926009E+03</rscale>
<asrwt>0</asrwt>
<pdfrwt beam="1">  1        2 0.33811913E-01 0.39926009E+03</pdfrwt>
<pdfrwt beam="2">  1       -2 0.24053927E-01 0.39926009E+03</pdfrwt>
<totfact> 0.23560835E+03</totfact>
</mgrwt>
</event>
<event>
 4    1  0.1049403E-004  0.6891108E+03  0.7818608E-02  0.9736038E-01
         -2   -1    0    0    0  501 -0.00000000000E+00  0.00000000000E+00  0.49097501774E+03  0.49097501775E+03  0.25500000000E-02 0. -1.
          2   -1    0    0  501    0  0.00000000000E+00 -0.00000000000E+00 -0.24180133247E+03  0.24180133248E+03  0.25500000000E-02 0.  1.
    5000001    1    1    2    0    0 -0.98087198820E+02  0.24302445982E+03  0.28519168382E+03  0.42100033630E+03  0.16500000000E+03 0.  0.
   -5000001    1    1    2    0    0  0.98087198820E+02 -0.24302445982E+03 -0.36017998550E+02  0.31177601393E+03  0.16500000000E+03 0.  0.
<mgrwt>
<rscale>  0 0.68911077E+03</rscale>
<asrwt>0</asrwt>
<pdfrwt beam="1">  1        2 0.34543048E-01 0.68911077E+03</pdfrwt>
<pdfrwt beam="2">  1       -2 0.70139286E-01 0.68911077E+03</pdfrwt>
<totfact> 0.28358565E+02</totfact>
</mgrwt>
</event>
<event>
 4    1  0.1049403E-004  0.4737007E+03  0.7818608E-02  0.1020881E+00
         -2   -1    0    0    0  501 -0.00000000000E+00  0.00000000000E+00  0.49626660047E+02  0.49626660112E+02  0.25500000000E-02 0. -1.
          2   -1    0    0  501    0  0.00000000000E+00 -0.00000000000E+00 -0.11304020569E+04  0.11304020569E+04  0.25500000000E-02 0.  1.
    5000001    1    1    2    0    0  0.51435790583E+02  0.14061270146E+03 -0.34023855266E+03  0.40669994477E+03  0.16500000000E+03 0.  0.
   -5000001    1    1    2    0    0 -0.51435790583E+02 -0.14061270146E+03 -0.74053684418E+03  0.77332877223E+03  0.16500000000E+03 0.  0.
<mgrwt>
<rscale>  0 0.47370066E+03</rscale>
<asrwt>0</asrwt>
<pdfrwt beam="1">  1        2 0.16148599E+00 0.47370066E+03</pdfrwt>
<pdfrwt beam="2">  1       -2 0.70895236E-02 0.47370066E+03</pdfrwt>
<totfact> 0.28055986E+03</totfact>
</mgrwt>
</event>
<event>
 4    1  0.1049403E-004  0.5476061E+03  0.7818608E-02  0.1002050E+00
          2   -1    0    0  501    0  0.00000000000E+00  0.00000000000E+00  0.11038808187E+04  0.11038808187E+04  0.25500000000E-02 0.  1.
         -2   -1    0    0    0  501 -0.00000000000E+00 -0.00000000000E+00 -0.67913230240E+02  0.67913230288E+02  0.25500000000E-02 0. -1.
    5000001    1    1    2    0    0 -0.19445171666E+02 -0.21268286609E+03  0.61676499966E+03  0.67322817903E+03  0.16500000000E+03 0.  0.
   -5000001    1    1    2    0    0  0.19445171666E+02  0.21268286609E+03  0.41920258877E+03  0.49856586993E+03  0.16500000000E+03 0.  0.
<mgrwt>
<rscale>  0 0.54760611E+03</rscale>
<asrwt>0</asrwt>
<pdfrwt beam="1">  1        2 0.15769725E+00 0.54760611E+03</pdfrwt>
<pdfrwt beam="2">  1       -2 0.97018903E-02 0.54760611E+03</pdfrwt>
<totfact> 0.17621913E+03</totfact>
</mgrwt>
</event>
<event>
 4    1  0.1049403E-004  0.5291966E+03  0.7818608E-02  0.1006427E+00
          2   -1    0    0  501    0  0.00000000000E+00  0.00000000000E+00  0.92158226950E+03  0.92158226951E+03  0.25500000000E-02 0. -1.
         -2   -1    0    0    0  501 -0.00000000000E+00 -0.00000000000E+00 -0.75969618239E+02  0.75969618282E+02  0.25500000000E-02 0.  1.
    5000001    1    1    2    0    0 -0.19032711080E+03  0.80865166451E+02  0.41363550731E+03  0.49100195230E+03  0.16500000000E+03 0.  0.
   -5000001    1    1    2    0    0  0.19032711080E+03 -0.80865166451E+02  0.43197714395E+03  0.50654993549E+03  0.16500000000E+03 0.  0.
<mgrwt>
<rscale>  0 0.52919657E+03</rscale>
<asrwt>0</asrwt>
<pdfrwt beam="1">  1        2 0.13165461E+00 0.52919657E+03</pdfrwt>
<pdfrwt beam="2">  1       -2 0.10852803E-01 0.52919657E+03</pdfrwt>
<totfact> 0.18940427E+03</totfact>
</mgrwt>
</event>
<event>
 4    1  0.1049403E-004  0.3823986E+03  0.7818608E-02  0.1050051E+00
         -2   -1    0    0    0  501 -0.00000000000E+00  0.00000000000E+00  0.32099667600E+03  0.32099667601E+03  0.25500000000E-02 0. -1.
          2   -1    0    0  501    0  0.00000000000E+00 -0.00000000000E+00 -0.11388645166E+03  0.11388645169E+03  0.25500000000E-02 0.  1.
    5000001    1    1    2    0    0 -0.18759410377E+02  0.83634857794E+02  0.52880823935E+02  0.19330826795E+03  0.16500000000E+03 0.  0.
   -5000001    1    1    2    0    0  0.18759410377E+02 -0.83634857794E+02  0.15422940040E+03  0.24157485975E+03  0.16500000000E+03 0.  0.
<mgrwt>
<rscale>  0 0.38239860E+03</rscale>
<asrwt>0</asrwt>
<pdfrwt beam="1">  1        2 0.16269493E-01 0.38239860E+03</pdfrwt>
<pdfrwt beam="2">  1       -2 0.45856667E-01 0.38239860E+03</pdfrwt>
<totfact> 0.16260921E+03</totfact>
</mgrwt>
</event>
<event>
 4    1  0.1049403E-004  0.4318888E+03  0.7818608E-02  0.1033265E+00
         -2   -1    0    0    0  501 -0.00000000000E+00  0.00000000000E+00  0.65558583049E+02  0.65558583099E+02  0.25500000000E-02 0. -1.
          2   -1    0    0  501    0  0.00000000000E+00 -0.00000000000E+00 -0.71130256528E+03  0.71130256528E+03  0.25500000000E-02 0.  1.
    5000001    1    1    2    0    0  0.13852259336E+03  0.12618697522E+02 -0.33671747049E+03  0.39993923955E+03  0.16500000000E+03 0.  0.
   -5000001    1    1    2    0    0 -0.13852259336E+03 -0.12618697522E+02 -0.30902651174E+03  0.37692190883E+03  0.16500000000E+03 0.  0.
<mgrwt>
<rscale>  0 0.43188882E+03</rscale>
<asrwt>0</asrwt>
<pdfrwt beam="1">  1        2 0.10161465E+00 0.43188882E+03</pdfrwt>
<pdfrwt beam="2">  1       -2 0.93655123E-02 0.43188882E+03</pdfrwt>
<totfact> 0.33396170E+03</totfact>
</mgrwt>
</event>
<event>
 4    1  0.1049403E-004  0.6010542E+03  0.7818608E-02  0.9903221E-01
          2   -1    0    0  501    0  0.00000000000E+00  0.00000000000E+00  0.54960279395E+03  0.54960279395E+03  0.25500000000E-02 0.  1.
         -2   -1    0    0    0  501 -0.00000000000E+00 -0.00000000000E+00 -0.16433054917E+03  0.16433054919E+03  0.25500000000E-02 0. -1.
    5000001    1    1    2    0    0  0.14196466511E+03 -0.17768785221E+03  0.31926155345E+03  0.42529975132E+03  0.16500000000E+03 0.  0.
   -5000001    1    1    2    0    0 -0.14196466511E+03  0.17768785221E+03  0.66010691323E+02  0.28863359183E+03  0.16500000000E+03 0.  0.
<mgrwt>
<rscale>  0 0.60105417E+03</rscale>
<asrwt>0</asrwt>
<pdfrwt beam="1">  1        2 0.78514685E-01 0.60105417E+03</pdfrwt>
<pdfrwt beam="2">  1       -2 0.23475793E-01 0.60105417E+03</pdfrwt>
<totfact> 0.96822433E+02</totfact>
</mgrwt>
</event>
<event>
 4    1  0.1049403E-004  0.8148394E+03  0.7818608E-02  0.9538783E-01
          2   -1    0    0  501    0  0.00000000000E+00  0.00000000000E+00  0.21023957842E+04  0.21023957842E+04  0.25500000000E-02 0.  1.
         -2   -1    0    0    0  501 -0.00000000000E+00 -0.00000000000E+00 -0.78953179107E+02  0.78953179148E+02  0.25500000000E-02 0. -1.
    5000001    1    1    2    0    0  0.26931884254E+03 -0.25431272532E+03  0.11173954731E+04  0.11886989714E+04  0.16500000000E+03 0.  0.
   -5000001    1    1    2    0    0 -0.26931884254E+03  0.25431272532E+03  0.90604713201E+03  0.99264999201E+03  0.16500000000E+03 0.  0.
<mgrwt>
<rscale>  0 0.81483945E+03</rscale>
<asrwt>0</asrwt>
<pdfrwt beam="1">  1        2 0.30034218E+00 0.81483945E+03</pdfrwt>
<pdfrwt beam="2">  1       -2 0.11279028E-01 0.81483945E+03</pdfrwt>
<totfact> 0.40752659E+02</totfact>
</mgrwt>
</event>
<event>
 4    1  0.1049403E-004  0.4898536E+03  0.7818608E-02  0.1016462E+00
          2   -1    0    0  501    0  0.00000000000E+00  0.00000000000E+00  0.35990290003E+03  0.35990290004E+03  0.25500000000E-02 0.  1.
         -2   -1    0    0    0  501 -0.00000000000E+00 -0.00000000000E+00 -0.16668144121E+03  0.16668144123E+03  0.25500000000E-02 0. -1.
    5000001    1    1    2    0    0 -0.45532928115E+02  0.29245895868E+02 -0.89070830164E+02  0.19515937783E+03  0.16500000000E+03 0.  0.
   -5000001    1    1    2    0    0  0.45532928115E+02 -0.29245895868E+02  0.28229228899E+03  0.33142496344E+03  0.16500000000E+03 0.  0.
<mgrwt>
<rscale>  0 0.48985359E+03</rscale>
<asrwt>0</asrwt>
<pdfrwt beam="1">  1        2 0.51414700E-01 0.48985359E+03</pdfrwt>
<pdfrwt beam="2">  1       -2 0.23811634E-01 0.48985359E+03</pdfrwt>
<totfact> 0.15180846E+03</totfact>
</mgrwt>
</event>
<event>
 4    1  0.1049403E-004  0.4807165E+03  0.7818608E-02  0.1018938E+00
          2   -1    0    0  501    0  0.00000000000E+00  0.00000000000E+00  0.16027306824E+04  0.16027306824E+04  0.25500000000E-02 0.  1.
         -2   -1    0    0    0  501 -0.00000000000E+00 -0.00000000000E+00 -0.36046035200E+02  0.36046035291E+02  0.25500000000E-02 0. -1.
    5000001    1    1    2    0    0 -0.55435287612E+02  0.16435438072E+03  0.85658912066E+03  0.88941292728E+03  0.16500000000E+03 0.  0.
   -5000001    1    1    2    0    0  0.55435287612E+02 -0.16435438072E+03  0.71009552651E+03  0.74936379038E+03  0.16500000000E+03 0.  0.
<mgrwt>
<rscale>  0 0.48071649E+03</rscale>
<asrwt>0</asrwt>
<pdfrwt beam="1">  1        2 0.22896153E+00 0.48071649E+03</pdfrwt>
<pdfrwt beam="2">  1       -2 0.51494335E-02 0.48071649E+03</pdfrwt>
<totfact> 0.25851040E+03</totfact>
</mgrwt>
</event>
<event>
 4    1  0.1049403E-004  0.4266318E+03  0.7818608E-02  0.1034929E+00
         -2   -1    0    0    0  501 -0.00000000000E+00  0.00000000000E+00  0.16466783981E+03  0.16466783983E+03  0.25500000000E-02 0. -1.
          2   -1    0    0  501    0  0.00000000000E+00 -0.00000000000E+00 -0.27633610042E+03  0.27633610043E+03  0.25500000000E-02 0.  1.
    5000001    1    1    2    0    0 -0.37814722606E+02 -0.12970560753E+03 -0.50648061796E+02  0.21918878628E+03  0.16500000000E+03 0.  0.
   -5000001    1    1    2    0    0  0.37814722606E+02  0.12970560753E+03 -0.61020198811E+02  0.22181515397E+03  0.16500000000E+03 0.  0.
<mgrwt>
<rscale>  0 0.42663178E+03</rscale>
<asrwt>0</asrwt>
<pdfrwt beam="1">  1        2 0.39476586E-01 0.42663178E+03</pdfrwt>
<pdfrwt beam="2">  1       -2 0.23523977E-01 0.42663178E+03</pdfrwt>
<totfact> 0.20692190E+03</totfact>
</mgrwt>
</event>
<event>
 4    1  0.1049403E-004  0.4320231E+03  0.7818608E-02  0.1033223E+00
         -2   -1    0    0    0  501 -0.00000000000E+00  0.00000000000E+00  0.47088752651E+02  0.47088752720E+02  0.25500000000E-02 0. -1.
          2   -1    0    0  501    0  0.00000000000E+00 -0.00000000000E+00 -0.99091581314E+03  0.99091581314E+03  0.25500000000E-02 0.  1.
    5000001    1    1    2    0    0 -0.41672550289E+02 -0.10326454586E+03 -0.67344817325E+03  0.70225181376E+03  0.16500000000E+03 0.  0.
   -5000001    1    1    2    0    0  0.41672550289E+02  0.10326454586E+03 -0.27037888724E+03  0.33575275210E+03  0.16500000000E+03 0.  0.
<mgrwt>
<rscale>  0 0.43202310E+03</rscale>
<asrwt>0</asrwt>
<pdfrwt beam="1">  1        2 0.14155939E+00 0.43202310E+03</pdfrwt>
<pdfrwt beam="2">  1       -2 0.67269653E-02 0.43202310E+03</pdfrwt>
<totfact> 0.36757328E+03</totfact>
</mgrwt>
</event>
<event>
 4    1  0.1049403E-004  0.5388510E+03  0.7818608E-02  0.1004108E+00
          2   -1    0    0  501    0  0.00000000000E+00  0.00000000000E+00  0.31120823286E+04  0.31120823286E+04  0.25500000000E-02 0.  1.
         -2   -1    0    0    0  501 -0.00000000000E+00 -0.00000000000E+00 -0.23325251488E+02  0.23325251628E+02  0.25500000000E-02 0. -1.
    5000001    1    1    2    0    0  0.20115071836E+03  0.47527350264E+02  0.12451460107E+04  0.12729234260E+04  0.16500000000E+03 0.  0.
   -5000001    1    1    2    0    0 -0.20115071836E+03 -0.47527350264E+02  0.18436110664E+04  0.18624841542E+04  0.16500000000E+03 0.  0.
<mgrwt>
<rscale>  0 0.53885101E+03</rscale>
<asrwt>0</asrwt>
<pdfrwt beam="1">  1        2 0.44458316E+00 0.53885101E+03</pdfrwt>
<pdfrwt beam="2">  1       -2 0.33321790E-02 0.53885101E+03</pdfrwt>
<totfact> 0.84351453E+02</totfact>
</mgrwt>
</event>
<event>
 4    1  0.1049403E-004  0.4083740E+03  0.7818608E-02  0.1040918E+00
         -2   -1    0    0    0  501 -0.00000000000E+00  0.00000000000E+00  0.30042145971E+02  0.30042146079E+02  0.25500000000E-02 0. -1.
          2   -1    0    0  501    0  0.00000000000E+00 -0.00000000000E+00 -0.13877949888E+04  0.13877949888E+04  0.25500000000E-02 0.  1.
    5000001    1    1    2    0    0 -0.93338648662E+02  0.20928507637E+02 -0.42570708599E+03  0.46647789747E+03  0.16500000000E+03 0.  0.
   -5000001    1    1    2    0    0  0.93338648662E+02 -0.20928507637E+02 -0.93204575685E+03  0.95135923742E+03  0.16500000000E+03 0.  0.
<mgrwt>
<rscale>  0 0.40837404E+03</rscale>
<asrwt>0</asrwt>
<pdfrwt beam="1">  1        2 0.19825639E+00 0.40837404E+03</pdfrwt>
<pdfrwt beam="2">  1       -2 0.42917360E-02 0.40837404E+03</pdfrwt>
<totfact> 0.44167847E+03</totfact>
</mgrwt>
</event>
<event>
 4    1  0.1049403E-004  0.4867547E+03  0.7818608E-02  0.1017295E+00
          2   -1    0    0  501    0  0.00000000000E+00  0.00000000000E+00  0.66224486150E+03  0.66224486151E+03  0.25500000000E-02 0.  1.
         -2   -1    0    0    0  501 -0.00000000000E+00 -0.00000000000E+00 -0.89442054996E+02  0.89442055033E+02  0.25500000000E-02 0. -1.
    5000001    1    1    2    0    0 -0.11385320400E+02 -0.13356624324E+03  0.46937104461E+03  0.51527055454E+03  0.16500000000E+03 0.  0.
   -5000001    1    1    2    0    0  0.11385320400E+02  0.13356624324E+03  0.10343176189E+03  0.23641636200E+03  0.16500000000E+03 0.  0.
<mgrwt>
<rscale>  0 0.48675473E+03</rscale>
<asrwt>0</asrwt>
<pdfrwt beam="1">  1        2 0.94606407E-01 0.48675473E+03</pdfrwt>
<pdfrwt beam="2">  1       -2 0.12777437E-01 0.48675473E+03</pdfrwt>
<totfact> 0.22007029E+03</totfact>
</mgrwt>
</event>
<event>
 4    1  0.1049403E-004  0.6475705E+03  0.7818608E-02  0.9811349E-01
          2   -1    0    0  501    0  0.00000000000E+00  0.00000000000E+00  0.13122452830E+04  0.13122452830E+04  0.25500000000E-02 0.  1.
         -2   -1    0    0    0  501 -0.00000000000E+00 -0.00000000000E+00 -0.79891224674E+02  0.79891224715E+02  0.25500000000E-02 0. -1.
    5000001    1    1    2    0    0 -0.26885192511E+03 -0.70778105114E+02  0.65469266965E+03  0.73016326222E+03  0.16500000000E+03 0.  0.
   -5000001    1    1    2    0    0  0.26885192511E+03  0.70778105114E+02  0.57766138872E+03  0.66197324554E+03  0.16500000000E+03 0.  0.
<mgrwt>
<rscale>  0 0.64757048E+03</rscale>
<asrwt>0</asrwt>
<pdfrwt beam="1">  1        2 0.18746359E+00 0.64757048E+03</pdfrwt>
<pdfrwt beam="2">  1       -2 0.11413034E-01 0.64757048E+03</pdfrwt>
<totfact> 0.10316011E+03</totfact>
</mgrwt>
</event>
<event>
 4    1  0.1049403E-004  0.7087694E+03  0.7818608E-02  0.9702352E-01
         -2   -1    0    0    0  501 -0.00000000000E+00  0.00000000000E+00  0.37250362736E+03  0.37250362737E+03  0.25500000000E-02 0. -1.
          2   -1    0    0  501    0  0.00000000000E+00 -0.00000000000E+00 -0.33714705642E+03  0.33714705643E+03  0.25500000000E-02 0.  1.
    5000001    1    1    2    0    0 -0.21893267262E+03  0.19759475540E+03 -0.89170384553E+02  0.34950187408E+03  0.16500000000E+03 0.  0.
   -5000001    1    1    2    0    0  0.21893267262E+03 -0.19759475540E+03  0.12452695549E+03  0.36014880972E+03  0.16500000000E+03 0.  0.
<mgrwt>
<rscale>  0 0.70876936E+03</rscale>
<asrwt>0</asrwt>
<pdfrwt beam="1">  1        2 0.48163865E-01 0.70876936E+03</pdfrwt>
<pdfrwt beam="2">  1       -2 0.53214804E-01 0.70876936E+03</pdfrwt>
<totfact> 0.35150874E+02</totfact>
</mgrwt>
</event>
<event>
 4    1  0.1049403E-004  0.8735675E+03  0.7818608E-02  0.9459240E-01
          2   -1    0    0  501    0  0.00000000000E+00  0.00000000000E+00  0.42390539444E+03  0.42390539445E+03  0.25500000000E-02 0.  1.
         -2   -1    0    0    0  501 -0.00000000000E+00 -0.00000000000E+00 -0.45005332877E+03  0.45005332878E+03  0.25500000000E-02 0. -1.
    5000001    1    1    2    0    0 -0.64804366409E+02 -0.39730431747E+03 -0.51881896900E+02  0.43814045443E+03  0.16500000000E+03 0.  0.
   -5000001    1    1    2    0    0  0.64804366409E+02  0.39730431747E+03  0.25733962567E+02  0.43581826879E+03  0.16500000000E+03 0.  0.
<mgrwt>
<rscale>  0 0.87356748E+03</rscale>
<asrwt>0</asrwt>
<pdfrwt beam="1">  1        2 0.60557914E-01 0.87356748E+03</pdfrwt>
<pdfrwt beam="2">  1       -2 0.64293332E-01 0.87356748E+03</pdfrwt>
<totfact> 0.18194060E+02</totfact>
</mgrwt>
</event>
<event>
 4    1  0.1049403E-004  0.4394793E+03  0.7818608E-02  0.1030907E+00
         -2   -1    0    0    0  501 -0.00000000000E+00  0.00000000000E+00  0.14108815978E+03  0.14108815980E+03  0.25500000000E-02 0. -1.
          2   -1    0    0  501    0  0.00000000000E+00 -0.00000000000E+00 -0.34223652597E+03  0.34223652598E+03  0.25500000000E-02 0.  1.
    5000001    1    1    2    0    0 -0.81270091491E+02  0.74733283858E+02 -0.20415462382E+03  0.28477008606E+03  0.16500000000E+03 0.  0.
   -5000001    1    1    2    0    0  0.81270091491E+02 -0.74733283858E+02  0.30062576265E+01  0.19855459973E+03  0.16500000000E+03 0.  0.
<mgrwt>
<rscale>  0 0.43947934E+03</rscale>
<asrwt>0</asrwt>
<pdfrwt beam="1">  1        2 0.48890932E-01 0.43947934E+03</pdfrwt>
<pdfrwt beam="2">  1       -2 0.20155452E-01 0.43947934E+03</pdfrwt>
<totfact> 0.21468394E+03</totfact>
</mgrwt>
</event>
<event>
 4    1  0.1049403E-004  0.4098697E+03  0.7818608E-02  0.1040415E+00
          2   -1    0    0  501    0  0.00000000000E+00  0.00000000000E+00  0.25457592896E+04  0.25457592896E+04  0.25500000000E-02 0.  1.
         -2   -1    0    0    0  501 -0.00000000000E+00 -0.00000000000E+00 -0.16497351635E+02  0.16497351833E+02  0.25500000000E-02 0. -1.
    5000001    1    1    2    0    0 -0.11975618471E+02  0.11729895132E+03  0.14491082091E+04  0.14632300097E+04  0.16500000000E+03 0.  0.
   -5000001    1    1    2    0    0  0.11975618471E+02 -0.11729895132E+03  0.10801537288E+04  0.10990266317E+04  0.16500000000E+03 0.  0.
<mgrwt>
<rscale>  0 0.40986967E+03</rscale>
<asrwt>0</asrwt>
<pdfrwt beam="1">  1        2 0.36367919E+00 0.40986967E+03</pdfrwt>
<pdfrwt beam="2">  1       -2 0.23567692E-02 0.40986967E+03</pdfrwt>
<totfact> 0.28611636E+03</totfact>
</mgrwt>
</event>
<event>
 4    1  0.1049403E-004  0.3922591E+03  0.7818608E-02  0.1046494E+00
          2   -1    0    0  501    0  0.00000000000E+00  0.00000000000E+00  0.21589535154E+03  0.21589535156E+03  0.25500000000E-02 0.  1.
         -2   -1    0    0    0  501 -0.00000000000E+00 -0.00000000000E+00 -0.17817336192E+03  0.17817336194E+03  0.25500000000E-02 0. -1.
    5000001    1    1    2    0    0 -0.84798774029E+02 -0.52285711101E+02  0.55321302471E+02  0.20052449768E+03  0.16500000000E+03 0.  0.
   -5000001    1    1    2    0    0  0.84798774029E+02  0.52285711101E+02 -0.17599312846E+02  0.19354421581E+03  0.16500000000E+03 0.  0.
<mgrwt>
<rscale>  0 0.39225910E+03</rscale>
<asrwt>0</asrwt>
<pdfrwt beam="1">  1        2 0.30842193E-01 0.39225910E+03</pdfrwt>
<pdfrwt beam="2">  1       -2 0.25453337E-01 0.39225910E+03</pdfrwt>
<totfact> 0.23579245E+03</totfact>
</mgrwt>
</event>
<event>
 4    1  0.1049403E-004  0.4840416E+03  0.7818608E-02  0.1018030E+00
         -2   -1    0    0    0  501 -0.00000000000E+00  0.00000000000E+00  0.64075557673E+03  0.64075557673E+03  0.25500000000E-02 0. -1.
          2   -1    0    0  501    0  0.00000000000E+00 -0.00000000000E+00 -0.91414054614E+02  0.91414054649E+02  0.25500000000E-02 0.  1.
    5000001    1    1    2    0    0  0.12328359005E+03 -0.12425968064E+03  0.31496869688E+03  0.39632006236E+03  0.16500000000E+03 0.  0.
   -5000001    1    1    2    0    0 -0.12328359005E+03  0.12425968064E+03  0.23437282523E+03  0.33584956903E+03  0.16500000000E+03 0.  0.
<mgrwt>
<rscale>  0 0.48404159E+03</rscale>
<asrwt>0</asrwt>
<pdfrwt beam="1">  1        2 0.13059150E-01 0.48404159E+03</pdfrwt>
<pdfrwt beam="2">  1       -2 0.91536515E-01 0.48404159E+03</pdfrwt>
<totfact> 0.48739184E+02</totfact>
</mgrwt>
</event>
<event>
 4    1  0.1049403E-004  0.6552931E+03  0.7818608E-02  0.9796898E-01
          2   -1    0    0  501    0  0.00000000000E+00  0.00000000000E+00  0.11911198502E+04  0.11911198502E+04  0.25500000000E-02 0.  1.
         -2   -1    0    0    0  501 -0.00000000000E+00 -0.00000000000E+00 -0.90127159734E+02  0.90127159770E+02  0.25500000000E-02 0. -1.
    5000001    1    1    2    0    0  0.22081741683E+03 -0.13557929072E+03  0.77329941591E+03  0.83208116328E+03  0.16500000000E+03 0.  0.
   -5000001    1    1    2    0    0 -0.22081741683E+03  0.13557929072E+03  0.32769327458E+03  0.44916584672E+03  0.16500000000E+03 0.  0.
<mgrwt>
<rscale>  0 0.65529306E+03</rscale>
<asrwt>0</asrwt>
<pdfrwt beam="1">  1        2 0.17015997E+00 0.65529306E+03</pdfrwt>
<pdfrwt beam="2">  1       -2 0.12875309E-01 0.65529306E+03</pdfrwt>
<totfact> 0.98625990E+02</totfact>
</mgrwt>
</event>
<event>
 4    1  0.1049403E-004  0.4806940E+03  0.7818608E-02  0.1018945E+00
          2   -1    0    0  501    0  0.00000000000E+00  0.00000000000E+00  0.25282331735E+04  0.25282331735E+04  0.25500000000E-02 0.  1.
         -2   -1    0    0    0  501 -0.00000000000E+00 -0.00000000000E+00 -0.22848631754E+02  0.22848631896E+02  0.25500000000E-02 0. -1.
    5000001    1    1    2    0    0 -0.25360868515E+02  0.11646836680E+03  0.57443121410E+03  0.60942946585E+03  0.16500000000E+03 0.  0.
   -5000001    1    1    2    0    0  0.25360868515E+02 -0.11646836680E+03  0.19309533277E+04  0.19416523396E+04  0.16500000000E+03 0.  0.
<mgrwt>
<rscale>  0 0.48069395E+03</rscale>
<asrwt>0</asrwt>
<pdfrwt beam="1">  1        2 0.36117618E+00 0.48069395E+03</pdfrwt>
<pdfrwt beam="2">  1       -2 0.32640902E-02 0.48069395E+03</pdfrwt>
<totfact> 0.17811809E+03</totfact>
</mgrwt>
</event>
<event>
 4    1  0.1049403E-004  0.3835064E+03  0.7818608E-02  0.1049645E+00
         -2   -1    0    0    0  501 -0.00000000000E+00  0.00000000000E+00  0.46300199879E+02  0.46300199949E+02  0.25500000000E-02 0. -1.
          2   -1    0    0  501    0  0.00000000000E+00 -0.00000000000E+00 -0.79414954962E+03  0.79414954963E+03  0.25500000000E-02 0.  1.
    5000001    1    1    2    0    0  0.67253908766E+02 -0.15083795117E+02 -0.52565535864E+03  0.55523793565E+03  0.16500000000E+03 0.  0.
   -5000001    1    1    2    0    0 -0.67253908766E+02  0.15083795117E+02 -0.22219399111E+03  0.28521181393E+03  0.16500000000E+03 0.  0.
<mgrwt>
<rscale>  0 0.38350636E+03</rscale>
<asrwt>0</asrwt>
<pdfrwt beam="1">  1        2 0.11344993E+00 0.38350636E+03</pdfrwt>
<pdfrwt beam="2">  1       -2 0.66143148E-02 0.38350636E+03</pdfrwt>
<totfact> 0.50375831E+03</totfact>
</mgrwt>
</event>
<event>
 4    1  0.1049403E-004  0.1075853E+04  0.7818608E-02  0.9229053E-01
          2   -1    0    0  501    0  0.00000000000E+00  0.00000000000E+00  0.14239557338E+04  0.14239557338E+04  0.25500000000E-02 0.  1.
         -2   -1    0    0    0  501 -0.00000000000E+00 -0.00000000000E+00 -0.20321183400E+03  0.20321183402E+03  0.25500000000E-02 0. -1.
    5000001    1    1    2    0    0 -0.36488587563E+03  0.35613766429E+03  0.54001614314E+03  0.76080100750E+03  0.16500000000E+03 0.  0.
   -5000001    1    1    2    0    0  0.36488587563E+03 -0.35613766429E+03  0.68072775665E+03  0.86636656031E+03  0.16500000000E+03 0.  0.
<mgrwt>
<rscale>  0 0.10758525E+04</rscale>
<asrwt>0</asrwt>
<pdfrwt beam="1">  1        2 0.20342224E+00 0.10758525E+04</pdfrwt>
<pdfrwt beam="2">  1       -2 0.29030263E-01 0.10758525E+04</pdfrwt>
<totfact> 0.17370674E+02</totfact>
</mgrwt>
</event>
<event>
 4    1  0.1049403E-004  0.1066436E+04  0.7818608E-02  0.9238538E-01
         -2   -1    0    0    0  501 -0.00000000000E+00  0.00000000000E+00  0.11547818264E+03  0.11547818267E+03  0.25500000000E-02 0. -1.
          2   -1    0    0  501    0  0.00000000000E+00 -0.00000000000E+00 -0.24621211131E+04  0.24621211131E+04  0.25500000000E-02 0.  1.
    5000001    1    1    2    0    0 -0.12795542250E+03  0.49048778182E+03 -0.12024681278E+04  0.13153347303E+04  0.16500000000E+03 0.  0.
   -5000001    1    1    2    0    0  0.12795542250E+03 -0.49048778182E+03 -0.11441748026E+04  0.12622645654E+04  0.16500000000E+03 0.  0.
<mgrwt>
<rscale>  0 0.10664357E+04</rscale>
<asrwt>0</asrwt>
<pdfrwt beam="1">  1        2 0.35173156E+00 0.10664357E+04</pdfrwt>
<pdfrwt beam="2">  1       -2 0.16496885E-01 0.10664357E+04</pdfrwt>
<totfact> 0.13804844E+02</totfact>
</mgrwt>
</event>
<event>
 4    1  0.1049403E-004  0.1341190E+04  0.7818608E-02  0.8997524E-01
          2   -1    0    0  501    0  0.00000000000E+00  0.00000000000E+00  0.21412130610E+04  0.21412130610E+04  0.25500000000E-02 0.  1.
         -2   -1    0    0    0  501 -0.00000000000E+00 -0.00000000000E+00 -0.21002001851E+03  0.21002001853E+03  0.25500000000E-02 0. -1.
    5000001    1    1    2    0    0 -0.64285642351E+03  0.17635111524E+02  0.11309573984E+04  0.13114362415E+04  0.16500000000E+03 0.  0.
   -5000001    1    1    2    0    0  0.64285642351E+03 -0.17635111524E+02  0.80023564403E+03  0.10397968380E+04  0.16500000000E+03 0.  0.
<mgrwt>
<rscale>  0 0.13411899E+04</rscale>
<asrwt>0</asrwt>
<pdfrwt beam="1">  1        2 0.30588760E+00 0.13411899E+04</pdfrwt>
<pdfrwt beam="2">  1       -2 0.30002858E-01 0.13411899E+04</pdfrwt>
<totfact> 0.68065124E+01</totfact>
</mgrwt>
</event>
<event>
 4    1  0.1049403E-004  0.4135222E+03  0.7818608E-02  0.1039195E+00
         -2   -1    0    0    0  501 -0.00000000000E+00  0.00000000000E+00  0.49166156592E+02  0.49166156658E+02  0.25500000000E-02 0.  1.
          2   -1    0    0  501    0  0.00000000000E+00 -0.00000000000E+00 -0.86950382319E+03  0.86950382320E+03  0.25500000000E-02 0. -1.
    5000001    1    1    2    0    0 -0.23882578971E+02 -0.12112093415E+03 -0.44764058486E+03  0.49279585173E+03  0.16500000000E+03 0.  0.
   -5000001    1    1    2    0    0  0.23882578971E+02  0.12112093415E+03 -0.37269708174E+03  0.42587412813E+03  0.16500000000E+03 0.  0.
<mgrwt>
<rscale>  0 0.41352224E+03</rscale>
<asrwt>0</asrwt>
<pdfrwt beam="1">  1        2 0.12421482E+00 0.41352224E+03</pdfrwt>
<pdfrwt beam="2">  1       -2 0.70237372E-02 0.41352224E+03</pdfrwt>
<totfact> 0.40905262E+03</totfact>
</mgrwt>
</event>
<event>
 4    1  0.1049403E-004  0.7849497E+03  0.7818608E-02  0.9582061E-01
         -2   -1    0    0    0  501 -0.00000000000E+00  0.00000000000E+00  0.14141080333E+03  0.14141080335E+03  0.25500000000E-02 0. -1.
          2   -1    0    0  501    0  0.00000000000E+00 -0.00000000000E+00 -0.10892838880E+04  0.10892838880E+04  0.25500000000E-02 0.  1.
    5000001    1    1    2    0    0 -0.17724654459E+03 -0.89555808506E+02 -0.93738550620E+03  0.97229273762E+03  0.16500000000E+03 0.  0.
   -5000001    1    1    2    0    0  0.17724654459E+03  0.89555808506E+02 -0.10487578513E+02  0.25840195377E+03  0.16500000000E+03 0.  0.
<mgrwt>
<rscale>  0 0.78494970E+03</rscale>
<asrwt>0</asrwt>
<pdfrwt beam="1">  1        2 0.15561198E+00 0.78494970E+03</pdfrwt>
<pdfrwt beam="2">  1       -2 0.20201544E-01 0.78494970E+03</pdfrwt>
<totfact> 0.52152343E+02</totfact>
</mgrwt>
</event>
<event>
 4    1  0.1049403E-004  0.4872753E+03  0.7818608E-02  0.1017155E+00
          2   -1    0    0  501    0  0.00000000000E+00  0.00000000000E+00  0.59433862831E+03  0.59433862831E+03  0.25500000000E-02 0.  1.
         -2   -1    0    0    0  501 -0.00000000000E+00 -0.00000000000E+00 -0.99874540682E+02  0.99874540715E+02  0.25500000000E-02 0. -1.
    5000001    1    1    2    0    0  0.16137124551E+03 -0.74637235484E+02  0.21465373659E+03  0.32390218034E+03  0.16500000000E+03 0.  0.
   -5000001    1    1    2    0    0 -0.16137124551E+03  0.74637235484E+02  0.27981035104E+03  0.37031098869E+03  0.16500000000E+03 0.  0.
<mgrwt>
<rscale>  0 0.48727527E+03</rscale>
<asrwt>0</asrwt>
<pdfrwt beam="1">  1        2 0.84905516E-01 0.48727527E+03</pdfrwt>
<pdfrwt beam="2">  1       -2 0.14267792E-01 0.48727527E+03</pdfrwt>
<totfact> 0.20825643E+03</totfact>
</mgrwt>
</event>
<event>
 4    1  0.1049403E-004  0.3808220E+03  0.7818608E-02  0.1050630E+00
         -2   -1    0    0    0  501 -0.00000000000E+00  0.00000000000E+00  0.44502596414E+02  0.44502596487E+02  0.25500000000E-02 0. -1.
          2   -1    0    0  501    0  0.00000000000E+00 -0.00000000000E+00 -0.81470185823E+03  0.81470185824E+03  0.25500000000E-02 0.  1.
    5000001    1    1    2    0    0  0.31141569937E+02  0.89756364994E+02 -0.39031604927E+03  0.43427827571E+03  0.16500000000E+03 0.  0.
   -5000001    1    1    2    0    0 -0.31141569937E+02 -0.89756364994E+02 -0.37988321255E+03  0.42492617902E+03  0.16500000000E+03 0.  0.
<mgrwt>
<rscale>  0 0.38082200E+03</rscale>
<asrwt>0</asrwt>
<pdfrwt beam="1">  1        2 0.11638597E+00 0.38082200E+03</pdfrwt>
<pdfrwt beam="2">  1       -2 0.63575143E-02 0.38082200E+03</pdfrwt>
<totfact> 0.51874766E+03</totfact>
</mgrwt>
</event>
<event>
 4    1  0.1049403E-004  0.3931278E+03  0.7818608E-02  0.1046186E+00
          2   -1    0    0  501    0  0.00000000000E+00  0.00000000000E+00  0.85993590677E+02  0.85993590715E+02  0.25500000000E-02 0.  1.
         -2   -1    0    0    0  501 -0.00000000000E+00 -0.00000000000E+00 -0.44930511204E+03  0.44930511205E+03  0.25500000000E-02 0. -1.
    5000001    1    1    2    0    0 -0.18135207570E+02  0.88135159996E+02 -0.10324999967E+03  0.21443473276E+03  0.16500000000E+03 0.  0.
   -5000001    1    1    2    0    0  0.18135207570E+02 -0.88135159996E+02 -0.26006152170E+03  0.32086397001E+03  0.16500000000E+03 0.  0.
<mgrwt>
<rscale>  0 0.39312777E+03</rscale>
<asrwt>0</asrwt>
<pdfrwt beam="1">  1        2 0.12284799E-01 0.39312777E+03</pdfrwt>
<pdfrwt beam="2">  1       -2 0.64186443E-01 0.39312777E+03</pdfrwt>
<totfact> 0.11482045E+03</totfact>
</mgrwt>
</event>
<event>
 4    1  0.1049403E-004  0.4240036E+03  0.7818608E-02  0.1035771E+00
          2   -1    0    0  501    0  0.00000000000E+00  0.00000000000E+00  0.91894378406E+03  0.91894378407E+03  0.25500000000E-02 0.  1.
         -2   -1    0    0    0  501 -0.00000000000E+00 -0.00000000000E+00 -0.48909147480E+02  0.48909147546E+02  0.25500000000E-02 0. -1.
    5000001    1    1    2    0    0  0.51848810244E+02 -0.11588070364E+03  0.34362221275E+03  0.40176841799E+03  0.16500000000E+03 0.  0.
   -5000001    1    1    2    0    0 -0.51848810244E+02  0.11588070364E+03  0.52641242383E+03  0.56608451362E+03  0.16500000000E+03 0.  0.
<mgrwt>
<rscale>  0 0.42400357E+03</rscale>
<asrwt>0</asrwt>
<pdfrwt beam="1">  1        2 0.13127767E+00 0.42400357E+03</pdfrwt>
<pdfrwt beam="2">  1       -2 0.69870219E-02 0.42400357E+03</pdfrwt>
<totfact> 0.38358547E+03</totfact>
</mgrwt>
</event>
<event>
 4    1  0.1049403E-004  0.3822804E+03  0.7818608E-02  0.1050094E+00
          2   -1    0    0  501    0  0.00000000000E+00  0.00000000000E+00  0.18650324689E+04  0.18650324689E+04  0.25500000000E-02 0.  1.
         -2   -1    0    0    0  501 -0.00000000000E+00 -0.00000000000E+00 -0.19589244973E+02  0.19589245139E+02  0.25500000000E-02 0. -1.
    5000001    1    1    2    0    0  0.51963751315E+02  0.39436924482E+02  0.57224179425E+03  0.59911699487E+03  0.16500000000E+03 0.  0.
   -5000001    1    1    2    0    0 -0.51963751315E+02 -0.39436924482E+02  0.12732014297E+04  0.12855047192E+04  0.16500000000E+03 0.  0.
<mgrwt>
<rscale>  0 0.38228041E+03</rscale>
<asrwt>0</asrwt>
<pdfrwt beam="1">  1        2 0.26643324E+00 0.38228041E+03</pdfrwt>
<pdfrwt beam="2">  1       -2 0.27984633E-02 0.38228041E+03</pdfrwt>
<totfact> 0.48346663E+03</totfact>
</mgrwt>
</event>
<event>
 4    1  0.1049403E-004  0.6608201E+03  0.7818608E-02  0.9786685E-01
          2   -1    0    0  501    0  0.00000000000E+00  0.00000000000E+00  0.73050278180E+03  0.73050278181E+03  0.25500000000E-02 0.  1.
         -2   -1    0    0    0  501 -0.00000000000E+00 -0.00000000000E+00 -0.14944612179E+03  0.14944612181E+03  0.25500000000E-02 0. -1.
    5000001    1    1    2    0    0 -0.33168733072E+02  0.20584929673E+03  0.55171135148E+03  0.61244143652E+03  0.16500000000E+03 0.  0.
   -5000001    1    1    2    0    0  0.33168733072E+02 -0.20584929673E+03  0.29345308542E+02  0.26750746710E+03  0.16500000000E+03 0.  0.
<mgrwt>
<rscale>  0 0.66082012E+03</rscale>
<asrwt>0</asrwt>
<pdfrwt beam="1">  1        2 0.10435754E+00 0.66082012E+03</pdfrwt>
<pdfrwt beam="2">  1       -2 0.21349446E-01 0.66082012E+03</pdfrwt>
<totfact> 0.81416588E+02</totfact>
</mgrwt>
</event>
<event>
 4    1  0.1049403E-004  0.7818872E+03  0.7818608E-02  0.9586611E-01
         -2   -1    0    0    0  501 -0.00000000000E+00  0.00000000000E+00  0.52108479752E+02  0.52108479814E+02  0.25500000000E-02 0. -1.
          2   -1    0    0  501    0  0.00000000000E+00 -0.00000000000E+00 -0.29330523682E+04  0.29330523682E+04  0.25500000000E-02 0.  1.
    5000001    1    1    2    0    0 -0.20718323425E+03  0.12201559367E+03 -0.24345853342E+04  0.24519876523E+04  0.16500000000E+03 0.  0.
   -5000001    1    1    2    0    0  0.20718323425E+03 -0.12201559367E+03 -0.44635855426E+03  0.53317319570E+03  0.16500000000E+03 0.  0.
<mgrwt>
<rscale>  0 0.78188720E+03</rscale>
<asrwt>0</asrwt>
<pdfrwt beam="1">  1        2 0.41900738E+00 0.78188720E+03</pdfrwt>
<pdfrwt beam="2">  1       -2 0.74440704E-02 0.78188720E+03</pdfrwt>
<totfact> 0.29578273E+02</totfact>
</mgrwt>
</event>
<event>
 4    1  0.1049403E-004  0.4595711E+03  0.7818608E-02  0.1024906E+00
          2   -1    0    0  501    0  0.00000000000E+00  0.00000000000E+00  0.30653755749E+03  0.30653755750E+03  0.25500000000E-02 0.  1.
         -2   -1    0    0    0  501 -0.00000000000E+00 -0.00000000000E+00 -0.17225098349E+03  0.17225098351E+03  0.25500000000E-02 0. -1.
    5000001    1    1    2    0    0  0.12100471400E+03  0.86070615022E+02  0.12900737580E+03  0.25674538865E+03  0.16500000000E+03 0.  0.
   -5000001    1    1    2    0    0 -0.12100471400E+03 -0.86070615022E+02  0.52791981955E+01  0.22204315237E+03  0.16500000000E+03 0.  0.
<mgrwt>
<rscale>  0 0.45957109E+03</rscale>
<asrwt>0</asrwt>
<pdfrwt beam="1">  1        2 0.43791080E-01 0.45957109E+03</pdfrwt>
<pdfrwt beam="2">  1       -2 0.24607283E-01 0.45957109E+03</pdfrwt>
<totfact> 0.17066622E+03</totfact>
</mgrwt>
</event>
<event>
 4    1  0.1049403E-004  0.4312166E+03  0.7818608E-02  0.1033476E+00
         -2   -1    0    0    0  501 -0.00000000000E+00  0.00000000000E+00  0.38990839140E+03  0.38990839141E+03  0.25500000000E-02 0. -1.
          2   -1    0    0  501    0  0.00000000000E+00 -0.00000000000E+00 -0.11922526568E+03  0.11922526570E+03  0.25500000000E-02 0.  1.
    5000001    1    1    2    0    0  0.12085095690E+03  0.38487716048E+02  0.68805929764E+02  0.21919286950E+03  0.16500000000E+03 0.  0.
   -5000001    1    1    2    0    0 -0.12085095690E+03 -0.38487716048E+02  0.20187719596E+03  0.28994078761E+03  0.16500000000E+03 0.  0.
<mgrwt>
<rscale>  0 0.43121657E+03</rscale>
<asrwt>0</asrwt>
<pdfrwt beam="1">  1        2 0.17032181E-01 0.43121657E+03</pdfrwt>
<pdfrwt beam="2">  1       -2 0.55701199E-01 0.43121657E+03</pdfrwt>
<totfact> 0.10419343E+03</totfact>
</mgrwt>
</event>
<event>
 4    1  0.1049403E-004  0.4463875E+03  0.7818608E-02  0.1028805E+00
         -2   -1    0    0    0  501 -0.00000000000E+00  0.00000000000E+00  0.18634047287E+03  0.18634047288E+03  0.25500000000E-02 0. -1.
          2   -1    0    0  501    0  0.00000000000E+00 -0.00000000000E+00 -0.26733565922E+03  0.26733565924E+03  0.25500000000E-02 0.  1.
    5000001    1    1    2    0    0 -0.47546489005E+02 -0.13684148923E+03 -0.81203926181E+02  0.23410540237E+03  0.16500000000E+03 0.  0.
   -5000001    1    1    2    0    0  0.47546489005E+02  0.13684148923E+03  0.20873982352E+00  0.21957072975E+03  0.16500000000E+03 0.  0.
<mgrwt>
<rscale>  0 0.44638751E+03</rscale>
<asrwt>0</asrwt>
<pdfrwt beam="1">  1        2 0.38190808E-01 0.44638751E+03</pdfrwt>
<pdfrwt beam="2">  1       -2 0.26620068E-01 0.44638751E+03</pdfrwt>
<totfact> 0.17219030E+03</totfact>
</mgrwt>
</event>
<event>
 4    1  0.1049403E-004  0.5754760E+03  0.7818608E-02  0.9957634E-01
          2   -1    0    0  501    0  0.00000000000E+00  0.00000000000E+00  0.43208774311E+03  0.43208774312E+03  0.25500000000E-02 0.  1.
         -2   -1    0    0    0  501 -0.00000000000E+00 -0.00000000000E+00 -0.19161187706E+03  0.19161187708E+03  0.25500000000E-02 0. -1.
    5000001    1    1    2    0    0  0.10938087899E+03  0.16727533883E+03  0.25570368474E+03  0.36408047196E+03  0.16500000000E+03 0.  0.
   -5000001    1    1    2    0    0 -0.10938087899E+03 -0.16727533883E+03 -0.15227818689E+02  0.25961914824E+03  0.16500000000E+03 0.  0.
<mgrwt>
<rscale>  0 0.57547595E+03</rscale>
<asrwt>0</asrwt>
<pdfrwt beam="1">  1        2 0.61726820E-01 0.57547595E+03</pdfrwt>
<pdfrwt beam="2">  1       -2 0.27373125E-01 0.57547595E+03</pdfrwt>
<totfact> 0.96519885E+02</totfact>
</mgrwt>
</event>
<event>
 4    1  0.1049403E-004  0.3746775E+03  0.7818608E-02  0.1052919E+00
          2   -1    0    0  501    0  0.00000000000E+00  0.00000000000E+00  0.72860665487E+03  0.72860665488E+03  0.25500000000E-02 0.  1.
         -2   -1    0    0    0  501 -0.00000000000E+00 -0.00000000000E+00 -0.48168382552E+02  0.48168382619E+02  0.25500000000E-02 0. -1.
    5000001    1    1    2    0    0 -0.80059439877E+02  0.37263627573E+02  0.32254079639E+03  0.37290167228E+03  0.16500000000E+03 0.  0.
   -5000001    1    1    2    0    0  0.80059439877E+02 -0.37263627573E+02  0.35789747593E+03  0.40387336522E+03  0.16500000000E+03 0.  0.
<mgrwt>
<rscale>  0 0.37467748E+03</rscale>
<asrwt>0</asrwt>
<pdfrwt beam="1">  1        2 0.10408666E+00 0.37467748E+03</pdfrwt>
<pdfrwt beam="2">  1       -2 0.68811979E-02 0.37467748E+03</pdfrwt>
<totfact> 0.52651419E+03</totfact>
</mgrwt>
</event>
<event>
 4    1  0.1049403E-004  0.4200633E+03  0.7818608E-02  0.1037046E+00
         -2   -1    0    0    0  501 -0.00000000000E+00  0.00000000000E+00  0.50707859314E+02  0.50707859378E+02  0.25500000000E-02 0. -1.
          2   -1    0    0  501    0  0.00000000000E+00 -0.00000000000E+00 -0.86994983685E+03  0.86994983685E+03  0.25500000000E-02 0.  1.
    5000001    1    1    2    0    0 -0.11501278627E+03 -0.53151159047E+02 -0.34627682967E+03  0.40396241098E+03  0.16500000000E+03 0.  0.
   -5000001    1    1    2    0    0  0.11501278627E+03  0.53151159047E+02 -0.47296514786E+03  0.51669528525E+03  0.16500000000E+03 0.  0.
<mgrwt>
<rscale>  0 0.42006330E+03</rscale>
<asrwt>0</asrwt>
<pdfrwt beam="1">  1        2 0.12427854E+00 0.42006330E+03</pdfrwt>
<pdfrwt beam="2">  1       -2 0.72439805E-02 0.42006330E+03</pdfrwt>
<totfact> 0.38953038E+03</totfact>
</mgrwt>
</event>
<event>
 4    1  0.1049403E-004  0.1476328E+04  0.7818608E-02  0.8900349E-01
         -2   -1    0    0    0  501 -0.00000000000E+00  0.00000000000E+00  0.50606506645E+03  0.50606506646E+03  0.25500000000E-02 0. -1.
          2   -1    0    0  501    0  0.00000000000E+00 -0.00000000000E+00 -0.10767122155E+04  0.10767122155E+04  0.25500000000E-02 0.  1.
    5000001    1    1    2    0    0 -0.34092631050E+02 -0.71405123452E+03 -0.19802795350E+03  0.75991548437E+03  0.16500000000E+03 0.  0.
   -5000001    1    1    2    0    0  0.34092631050E+02  0.71405123452E+03 -0.37261919553E+03  0.82286179757E+03  0.16500000000E+03 0.  0.
<mgrwt>
<rscale>  0 0.14763285E+04</rscale>
<asrwt>0</asrwt>
<pdfrwt beam="1">  1        2 0.15381603E+00 0.14763285E+04</pdfrwt>
<pdfrwt beam="2">  1       -2 0.72295010E-01 0.14763285E+04</pdfrwt>
<totfact> 0.42360685E+01</totfact>
</mgrwt>
</event>
<event>
 4    1  0.1049403E-004  0.4152462E+03  0.7818608E-02  0.1038625E+00
         -2   -1    0    0    0  501 -0.00000000000E+00  0.00000000000E+00  0.31751943364E+02  0.31751943466E+02  0.25500000000E-02 0. -1.
          2   -1    0    0  501    0  0.00000000000E+00 -0.00000000000E+00 -0.13576284744E+04  0.13576284744E+04  0.25500000000E-02 0.  1.
    5000001    1    1    2    0    0 -0.10114354278E+03 -0.22324729236E+02 -0.90314485960E+03  0.92391777080E+03  0.16500000000E+03 0.  0.
   -5000001    1    1    2    0    0  0.10114354278E+03  0.22324729236E+02 -0.42273167145E+03  0.46546264708E+03  0.16500000000E+03 0.  0.
<mgrwt>
<rscale>  0 0.41524616E+03</rscale>
<asrwt>0</asrwt>
<pdfrwt beam="1">  1        2 0.19394689E+00 0.41524616E+03</pdfrwt>
<pdfrwt beam="2">  1       -2 0.45359928E-02 0.41524616E+03</pdfrwt>
<totfact> 0.42099767E+03</totfact>
</mgrwt>
</event>
<event>
 4    1  0.1049403E-004  0.4701846E+03  0.7818608E-02  0.1021868E+00
          2   -1    0    0  501    0  0.00000000000E+00  0.00000000000E+00  0.33705790240E+04  0.33705790240E+04  0.25500000000E-02 0.  1.
         -2   -1    0    0    0  501 -0.00000000000E+00 -0.00000000000E+00 -0.16397297079E+02  0.16397297277E+02  0.25500000000E-02 0. -1.
    5000001    1    1    2    0    0  0.16339227027E+03 -0.33843107553E+02  0.15749645885E+04  0.15923507293E+04  0.16500000000E+03 0.  0.
   -5000001    1    1    2    0    0 -0.16339227027E+03  0.33843107553E+02  0.17792171384E+04  0.17946255920E+04  0.16500000000E+03 0.  0.
<mgrwt>
<rscale>  0 0.47018458E+03</rscale>
<asrwt>0</asrwt>
<pdfrwt beam="1">  1        2 0.48151201E+00 0.47018458E+03</pdfrwt>
<pdfrwt beam="2">  1       -2 0.23424675E-02 0.47018458E+03</pdfrwt>
<totfact> 0.10350784E+03</totfact>
</mgrwt>
</event>
<event>
 4    1  0.1049403E-004  0.1188030E+04  0.7818608E-02  0.9123399E-01
          2   -1    0    0  501    0  0.00000000000E+00  0.00000000000E+00  0.70164405979E+03  0.70164405979E+03  0.25500000000E-02 0.  1.
         -2   -1    0    0    0  501 -0.00000000000E+00 -0.00000000000E+00 -0.50289535840E+03  0.50289535840E+03  0.25500000000E-02 0. -1.
    5000001    1    1    2    0    0  0.93888067108E+02  0.54959524781E+03 -0.23799035963E+02  0.58194613124E+03  0.16500000000E+03 0.  0.
   -5000001    1    1    2    0    0 -0.93888067108E+02 -0.54959524781E+03  0.22254773735E+03  0.62259328695E+03  0.16500000000E+03 0.  0.
<mgrwt>
<rscale>  0 0.11880295E+04</rscale>
<asrwt>0</asrwt>
<pdfrwt beam="1">  1        2 0.10023486E+00 0.11880295E+04</pdfrwt>
<pdfrwt beam="2">  1       -2 0.71842195E-01 0.11880295E+04</pdfrwt>
<totfact> 0.77914933E+01</totfact>
</mgrwt>
</event>
<event>
 4    1  0.1049403E-004  0.4582050E+03  0.7818608E-02  0.1025303E+00
          2   -1    0    0  501    0  0.00000000000E+00  0.00000000000E+00  0.21528386193E+03  0.21528386194E+03  0.25500000000E-02 0.  1.
         -2   -1    0    0    0  501 -0.00000000000E+00 -0.00000000000E+00 -0.24380812082E+03  0.24380812083E+03  0.25500000000E-02 0. -1.
    5000001    1    1    2    0    0 -0.15522796927E+03  0.21052855987E+02 -0.41221625202E+02  0.23122103618E+03  0.16500000000E+03 0.  0.
   -5000001    1    1    2    0    0  0.15522796927E+03 -0.21052855987E+02  0.12697366310E+02  0.22787094659E+03  0.16500000000E+03 0.  0.
<mgrwt>
<rscale>  0 0.45820499E+03</rscale>
<asrwt>0</asrwt>
<pdfrwt beam="1">  1        2 0.30754837E-01 0.45820499E+03</pdfrwt>
<pdfrwt beam="2">  1       -2 0.34829732E-01 0.45820499E+03</pdfrwt>
<totfact> 0.13337536E+03</totfact>
</mgrwt>
</event>
<event>
 4    1  0.1049403E-004  0.5501974E+03  0.7818608E-02  0.1001448E+00
         -2   -1    0    0    0  501 -0.00000000000E+00  0.00000000000E+00  0.14862249135E+03  0.14862249137E+03  0.25500000000E-02 0. -1.
          2   -1    0    0  501    0  0.00000000000E+00 -0.00000000000E+00 -0.50920487125E+03  0.50920487126E+03  0.25500000000E-02 0.  1.
    5000001    1    1    2    0    0  0.17920787910E+03  0.71338772348E+02 -0.30710372112E+03  0.39842487359E+03  0.16500000000E+03 0.  0.
   -5000001    1    1    2    0    0 -0.17920787910E+03 -0.71338772348E+02 -0.53478658783E+02  0.25940248904E+03  0.16500000000E+03 0.  0.
<mgrwt>
<rscale>  0 0.55019741E+03</rscale>
<asrwt>0</asrwt>
<pdfrwt beam="1">  1        2 0.72743552E-01 0.55019741E+03</pdfrwt>
<pdfrwt beam="2">  1       -2 0.21231785E-01 0.55019741E+03</pdfrwt>
<totfact> 0.12624737E+03</totfact>
</mgrwt>
</event>
<event>
 4    1  0.1049403E-004  0.8397993E+03  0.7818608E-02  0.9504131E-01
         -2   -1    0    0    0  501 -0.00000000000E+00  0.00000000000E+00  0.51478195231E+02  0.51478195294E+02  0.25500000000E-02 0.  1.
          2   -1    0    0  501    0  0.00000000000E+00 -0.00000000000E+00 -0.34250566327E+04  0.34250566327E+04  0.25500000000E-02 0. -1.
    5000001    1    1    2    0    0  0.12692596808E+03  0.36427934369E+03 -0.16173834298E+04  0.16709170538E+04  0.16500000000E+03 0.  0.
   -5000001    1    1    2    0    0 -0.12692596808E+03 -0.36427934369E+03 -0.17561950076E+04  0.18056177742E+04  0.16500000000E+03 0.  0.
<mgrwt>
<rscale>  0 0.83979934E+03</rscale>
<asrwt>0</asrwt>
<pdfrwt beam="1">  1        2 0.48929366E+00 0.83979934E+03</pdfrwt>
<pdfrwt beam="2">  1       -2 0.73540301E-02 0.83979934E+03</pdfrwt>
<totfact> 0.15804642E+02</totfact>
</mgrwt>
</event>
<event>
 4    1  0.1049403E-004  0.4490680E+03  0.7818608E-02  0.1028000E+00
          2   -1    0    0  501    0  0.00000000000E+00  0.00000000000E+00  0.85370028528E+03  0.85370028528E+03  0.25500000000E-02 0.  1.
         -2   -1    0    0    0  501 -0.00000000000E+00 -0.00000000000E+00 -0.59055295485E+02  0.59055295540E+02  0.25500000000E-02 0. -1.
    5000001    1    1    2    0    0 -0.28981152170E+01  0.89895598292E+02  0.64709455262E+03  0.67382933870E+03  0.16500000000E+03 0.  0.
   -5000001    1    1    2    0    0  0.28981152170E+01 -0.89895598292E+02  0.14755043717E+03  0.23892624212E+03  0.16500000000E+03 0.  0.
<mgrwt>
<rscale>  0 0.44906802E+03</rscale>
<asrwt>0</asrwt>
<pdfrwt beam="1">  1        2 0.12195719E+00 0.44906802E+03</pdfrwt>
<pdfrwt beam="2">  1       -2 0.84364707E-02 0.44906802E+03</pdfrwt>
<totfact> 0.31399979E+03</totfact>
</mgrwt>
</event>
<event>
 4    1  0.1049403E-004  0.5485287E+03  0.7818608E-02  0.1001835E+00
          2   -1    0    0  501    0  0.00000000000E+00  0.00000000000E+00  0.38411452612E+03  0.38411452613E+03  0.25500000000E-02 0.  1.
         -2   -1    0    0    0  501 -0.00000000000E+00 -0.00000000000E+00 -0.19582943223E+03  0.19582943224E+03  0.25500000000E-02 0. -1.
    5000001    1    1    2    0    0 -0.20835751590E+03  0.11174987414E+02  0.16473628917E+03  0.31289100298E+03  0.16500000000E+03 0.  0.
   -5000001    1    1    2    0    0  0.20835751590E+03 -0.11174987414E+02  0.23548804715E+02  0.26705295539E+03  0.16500000000E+03 0.  0.
<mgrwt>
<rscale>  0 0.54852869E+03</rscale>
<asrwt>0</asrwt>
<pdfrwt beam="1">  1        2 0.54873503E-01 0.54852869E+03</pdfrwt>
<pdfrwt beam="2">  1       -2 0.27975633E-01 0.54852869E+03</pdfrwt>
<totfact> 0.10574227E+03</totfact>
</mgrwt>
</event>
<event>
 4    1  0.1049403E-004  0.8252478E+03  0.7818608E-02  0.9524174E-01
          2   -1    0    0  501    0  0.00000000000E+00  0.00000000000E+00  0.31507087278E+04  0.31507087278E+04  0.25500000000E-02 0.  1.
         -2   -1    0    0    0  501 -0.00000000000E+00 -0.00000000000E+00 -0.54038153254E+02  0.54038153314E+02  0.25500000000E-02 0. -1.
    5000001    1    1    2    0    0  0.37672281435E+03  0.29330721066E+02  0.14865528573E+04  0.15426745502E+04  0.16500000000E+03 0.  0.
   -5000001    1    1    2    0    0 -0.37672281435E+03 -0.29330721066E+02  0.16101177172E+04  0.16620723309E+04  0.16500000000E+03 0.  0.
<mgrwt>
<rscale>  0 0.82524780E+03</rscale>
<asrwt>0</asrwt>
<pdfrwt beam="1">  1        2 0.45010117E+00 0.82524780E+03</pdfrwt>
<pdfrwt beam="2">  1       -2 0.77197375E-02 0.82524780E+03</pdfrwt>
<totfact> 0.21073071E+02</totfact>
</mgrwt>
</event>
<event>
 4    1  0.1049403E-004  0.3714853E+03  0.7818608E-02  0.1054126E+00
          2   -1    0    0  501    0  0.00000000000E+00  0.00000000000E+00  0.18553529155E+04  0.18553529155E+04  0.25500000000E-02 0.  1.
         -2   -1    0    0    0  501 -0.00000000000E+00 -0.00000000000E+00 -0.18595023422E+02  0.18595023597E+02  0.25500000000E-02 0. -1.
    5000001    1    1    2    0    0  0.78753082794E+02  0.24755204068E+02  0.81013260617E+03  0.83087586784E+03  0.16500000000E+03 0.  0.
   -5000001    1    1    2    0    0 -0.78753082794E+02 -0.24755204068E+02  0.10266252859E+04  0.10430720713E+04  0.16500000000E+03 0.  0.
<mgrwt>
<rscale>  0 0.37148529E+03</rscale>
<asrwt>0</asrwt>
<pdfrwt beam="1">  1        2 0.26505059E+00 0.37148529E+03</pdfrwt>
<pdfrwt beam="2">  1       -2 0.26564302E-02 0.37148529E+03</pdfrwt>
<totfact> 0.52848675E+03</totfact>
</mgrwt>
</event>
<event>
 4    1  0.1049403E-004  0.9303835E+03  0.7818608E-02  0.9388378E-01
         -2   -1    0    0    0  501 -0.00000000000E+00  0.00000000000E+00  0.11614665480E+03  0.11614665483E+03  0.25500000000E-02 0. -1.
          2   -1    0    0  501    0  0.00000000000E+00 -0.00000000000E+00 -0.18631908693E+04  0.18631908693E+04  0.25500000000E-02 0.  1.
    5000001    1    1    2    0    0 -0.13962224449E+02  0.43418740289E+03 -0.91938525898E+03  0.10301494547E+04  0.16500000000E+03 0.  0.
   -5000001    1    1    2    0    0  0.13962224449E+02 -0.43418740289E+03 -0.82765895551E+03  0.94918806945E+03  0.16500000000E+03 0.  0.
<mgrwt>
<rscale>  0 0.93038355E+03</rscale>
<asrwt>0</asrwt>
<pdfrwt beam="1">  1        2 0.26617011E+00 0.93038355E+03</pdfrwt>
<pdfrwt beam="2">  1       -2 0.16592380E-01 0.93038355E+03</pdfrwt>
<totfact> 0.27989144E+02</totfact>
</mgrwt>
</event>
<event>
 4    1  0.1049403E-004  0.3642982E+03  0.7818608E-02  0.1056895E+00
          2   -1    0    0  501    0  0.00000000000E+00  0.00000000000E+00  0.45884116845E+03  0.45884116845E+03  0.25500000000E-02 0.  1.
         -2   -1    0    0    0  501 -0.00000000000E+00 -0.00000000000E+00 -0.72308893846E+02  0.72308893891E+02  0.25500000000E-02 0. -1.
    5000001    1    1    2    0    0 -0.46602798603E+02 -0.82823976598E+01  0.28210757068E+03  0.33022734651E+03  0.16500000000E+03 0.  0.
   -5000001    1    1    2    0    0  0.46602798603E+02  0.82823976598E+01  0.10442470392E+03  0.20092271583E+03  0.16500000000E+03 0.  0.
<mgrwt>
<rscale>  0 0.36429821E+03</rscale>
<asrwt>0</asrwt>
<pdfrwt beam="1">  1        2 0.65548738E-01 0.36429821E+03</pdfrwt>
<pdfrwt beam="2">  1       -2 0.10329842E-01 0.36429821E+03</pdfrwt>
<totfact> 0.47143626E+03</totfact>
</mgrwt>
</event>
<event>
 4    1  0.1049403E-004  0.4192731E+03  0.7818608E-02  0.1037303E+00
         -2   -1    0    0    0  501 -0.00000000000E+00  0.00000000000E+00  0.83213800533E+02  0.83213800572E+02  0.25500000000E-02 0. -1.
          2   -1    0    0  501    0  0.00000000000E+00 -0.00000000000E+00 -0.52812737222E+03  0.52812737223E+03  0.25500000000E-02 0.  1.
    5000001    1    1    2    0    0 -0.12124550873E+03  0.34638900744E+02 -0.26426528116E+03  0.33609740502E+03  0.16500000000E+03 0.  0.
   -5000001    1    1    2    0    0  0.12124550873E+03 -0.34638900744E+02 -0.18064829053E+03  0.27524376779E+03  0.16500000000E+03 0.  0.
<mgrwt>
<rscale>  0 0.41927311E+03</rscale>
<asrwt>0</asrwt>
<pdfrwt beam="1">  1        2 0.75446765E-01 0.41927311E+03</pdfrwt>
<pdfrwt beam="2">  1       -2 0.11887686E-01 0.41927311E+03</pdfrwt>
<totfact> 0.32177970E+03</totfact>
</mgrwt>
</event>
<event>
 4    1  0.1049403E-004  0.3731609E+03  0.7818608E-02  0.1053491E+00
         -2   -1    0    0    0  501 -0.00000000000E+00  0.00000000000E+00  0.10088339815E+02  0.10088340138E+02  0.25500000000E-02 0. -1.
          2   -1    0    0  501    0  0.00000000000E+00 -0.00000000000E+00 -0.34507432058E+04  0.34507432058E+04  0.25500000000E-02 0.  1.
    5000001    1    1    2    0    0  0.47001987919E+02 -0.42744915594E+02 -0.22729860328E+04  0.22798523680E+04  0.16500000000E+03 0.  0.
   -5000001    1    1    2    0    0 -0.47001987919E+02  0.42744915594E+02 -0.11676688331E+04  0.11809791779E+04  0.16500000000E+03 0.  0.
<mgrwt>
<rscale>  0 0.37316093E+03</rscale>
<asrwt>0</asrwt>
<pdfrwt beam="1">  1        2 0.49296256E+00 0.37316093E+03</pdfrwt>
<pdfrwt beam="2">  1       -2 0.14411936E-02 0.37316093E+03</pdfrwt>
<totfact> 0.19368251E+03</totfact>
</mgrwt>
</event>
<event>
 4    1  0.1049403E-004  0.8093857E+03  0.7818608E-02  0.9546530E-01
          2   -1    0    0  501    0  0.00000000000E+00  0.00000000000E+00  0.20199359116E+04  0.20199359116E+04  0.25500000000E-02 0.  1.
         -2   -1    0    0    0  501 -0.00000000000E+00 -0.00000000000E+00 -0.81079946895E+02  0.81079946935E+02  0.25500000000E-02 0. -1.
    5000001    1    1    2    0    0 -0.65964195124E+02 -0.31231627806E+03  0.14526860284E+04  0.14964673166E+04  0.16500000000E+03 0.  0.
   -5000001    1    1    2    0    0  0.65964195124E+02  0.31231627806E+03  0.48616993630E+03  0.60454854192E+03  0.16500000000E+03 0.  0.
<mgrwt>
<rscale>  0 0.80938568E+03</rscale>
<asrwt>0</asrwt>
<pdfrwt beam="1">  1        2 0.28856223E+00 0.80938568E+03</pdfrwt>
<pdfrwt beam="2">  1       -2 0.11582851E-01 0.80938568E+03</pdfrwt>
<totfact> 0.42964535E+02</totfact>
</mgrwt>
</event>
<event>
 4    1  0.1049403E-004  0.5972697E+03  0.7818608E-02  0.9911087E-01
         -2   -1    0    0    0  501 -0.00000000000E+00  0.00000000000E+00  0.66673944902E+02  0.66673944951E+02  0.25500000000E-02 0. -1.
          2   -1    0    0  501    0  0.00000000000E+00 -0.00000000000E+00 -0.13375953722E+04  0.13375953722E+04  0.25500000000E-02 0.  1.
    5000001    1    1    2    0    0  0.90305536586E+01 -0.24156067316E+03 -0.77504546718E+03  0.82846459545E+03  0.16500000000E+03 0.  0.
   -5000001    1    1    2    0    0 -0.90305536586E+01  0.24156067316E+03 -0.49587596011E+03  0.57580472170E+03  0.16500000000E+03 0.  0.
<mgrwt>
<rscale>  0 0.59726965E+03</rscale>
<asrwt>0</asrwt>
<pdfrwt beam="1">  1        2 0.19108504E+00 0.59726965E+03</pdfrwt>
<pdfrwt beam="2">  1       -2 0.95248501E-02 0.59726965E+03</pdfrwt>
<totfact> 0.13438908E+03</totfact>
</mgrwt>
</event>
<event>
 4    1  0.1049403E-004  0.5134068E+03  0.7818608E-02  0.1010338E+00
         -2   -1    0    0    0  501 -0.00000000000E+00  0.00000000000E+00  0.22258519001E+03  0.22258519003E+03  0.25500000000E-02 0. -1.
          2   -1    0    0  501    0  0.00000000000E+00 -0.00000000000E+00 -0.29605125955E+03  0.29605125956E+03  0.25500000000E-02 0.  1.
    5000001    1    1    2    0    0 -0.48075797715E+02  0.17336499710E+03 -0.11694539337E+03  0.27068049352E+03  0.16500000000E+03 0.  0.
   -5000001    1    1    2    0    0  0.48075797715E+02 -0.17336499710E+03  0.43479323835E+02  0.24795595606E+03  0.16500000000E+03 0.  0.
<mgrwt>
<rscale>  0 0.51340676E+03</rscale>
<asrwt>0</asrwt>
<pdfrwt beam="1">  1        2 0.42293037E-01 0.51340676E+03</pdfrwt>
<pdfrwt beam="2">  1       -2 0.31797885E-01 0.51340676E+03</pdfrwt>
<totfact> 0.11127732E+03</totfact>
</mgrwt>
</event>
<event>
 4    1  0.1049403E-004  0.8488840E+03  0.7818608E-02  0.9491836E-01
         -2   -1    0    0    0  501 -0.00000000000E+00  0.00000000000E+00  0.12411966046E+03  0.12411966048E+03  0.25500000000E-02 0. -1.
          2   -1    0    0  501    0  0.00000000000E+00 -0.00000000000E+00 -0.14514302039E+04  0.14514302039E+04  0.25500000000E-02 0.  1.
    5000001    1    1    2    0    0 -0.77653394343E+02  0.24821190294E+03 -0.12162347408E+03  0.33114417987E+03  0.16500000000E+03 0.  0.
   -5000001    1    1    2    0    0  0.77653394343E+02 -0.24821190294E+03 -0.12056870694E+04  0.12444056845E+04  0.16500000000E+03 0.  0.
<mgrwt>
<rscale>  0 0.84888403E+03</rscale>
<asrwt>0</asrwt>
<pdfrwt beam="1">  1        2 0.20734716E+00 0.84888403E+03</pdfrwt>
<pdfrwt beam="2">  1       -2 0.17731381E-01 0.84888403E+03</pdfrwt>
<totfact> 0.41021376E+02</totfact>
</mgrwt>
</event>
<event>
 4    1  0.1049403E-004  0.5592872E+03  0.7818608E-02  0.9993669E-01
          2   -1    0    0  501    0  0.00000000000E+00  0.00000000000E+00  0.16177805611E+04  0.16177805612E+04  0.25500000000E-02 0.  1.
         -2   -1    0    0    0  501 -0.00000000000E+00 -0.00000000000E+00 -0.48338160255E+02  0.48338160322E+02  0.25500000000E-02 0. -1.
    5000001    1    1    2    0    0  0.37252195429E+02  0.21500280830E+03  0.61200055246E+03  0.67036080573E+03  0.16500000000E+03 0.  0.
   -5000001    1    1    2    0    0 -0.37252195429E+02 -0.21500280830E+03  0.95744184843E+03  0.99575791574E+03  0.16500000000E+03 0.  0.
<mgrwt>
<rscale>  0 0.55928718E+03</rscale>
<asrwt>0</asrwt>
<pdfrwt beam="1">  1        2 0.23111154E+00 0.55928718E+03</pdfrwt>
<pdfrwt beam="2">  1       -2 0.69054505E-02 0.55928718E+03</pdfrwt>
<totfact> 0.16031522E+03</totfact>
</mgrwt>
</event>
<event>
 4    1  0.1049403E-004  0.1408275E+04  0.7818608E-02  0.8947850E-01
         -2   -1    0    0    0  501 -0.00000000000E+00  0.00000000000E+00  0.75323240318E+03  0.75323240319E+03  0.25500000000E-02 0. -1.
          2   -1    0    0  501    0  0.00000000000E+00 -0.00000000000E+00 -0.65824261900E+03  0.65824261901E+03  0.25500000000E-02 0.  1.
    5000001    1    1    2    0    0  0.53573740933E+03 -0.12247221429E+03 -0.36156316540E+03  0.67820862395E+03  0.16500000000E+03 0.  0.
   -5000001    1    1    2    0    0 -0.53573740933E+03  0.12247221429E+03  0.45655294958E+03  0.73326639824E+03  0.16500000000E+03 0.  0.
<mgrwt>
<rscale>  0 0.14082751E+04</rscale>
<asrwt>0</asrwt>
<pdfrwt beam="1">  1        2 0.94034659E-01 0.14082751E+04</pdfrwt>
<pdfrwt beam="2">  1       -2 0.10760463E+00 0.14082751E+04</pdfrwt>
<totfact> 0.32776842E+01</totfact>
</mgrwt>
</event>
<event>
 4    1  0.1049403E-004  0.4600482E+03  0.7818608E-02  0.1024767E+00
          2   -1    0    0  501    0  0.00000000000E+00  0.00000000000E+00  0.16678122423E+04  0.16678122423E+04  0.25500000000E-02 0.  1.
         -2   -1    0    0    0  501 -0.00000000000E+00 -0.00000000000E+00 -0.31724844323E+02  0.31724844425E+02  0.25500000000E-02 0. -1.
    5000001    1    1    2    0    0  0.23597588199E+02 -0.14675375444E+03  0.59661692339E+03  0.63660840702E+03  0.16500000000E+03 0.  0.
   -5000001    1    1    2    0    0 -0.23597588199E+02  0.14675375444E+03  0.10394704746E+04  0.10629286797E+04  0.16500000000E+03 0.  0.
<mgrwt>
<rscale>  0 0.46004819E+03</rscale>
<asrwt>0</asrwt>
<pdfrwt beam="1">  1        2 0.23825890E+00 0.46004819E+03</pdfrwt>
<pdfrwt beam="2">  1       -2 0.45321206E-02 0.46004819E+03</pdfrwt>
<totfact> 0.29177335E+03</totfact>
</mgrwt>
</event>
<event>
 4    1  0.1049403E-004  0.3610412E+03  0.7818608E-02  0.1058172E+00
         -2   -1    0    0    0  501 -0.00000000000E+00  0.00000000000E+00  0.13480331237E+02  0.13480331479E+02  0.25500000000E-02 0. -1.
          2   -1    0    0  501    0  0.00000000000E+00 -0.00000000000E+00 -0.24174243605E+04  0.24174243605E+04  0.25500000000E-02 0.  1.
    5000001    1    1    2    0    0 -0.54791115809E+02 -0.12414016317E+02 -0.88569772866E+03  0.90268579292E+03  0.16500000000E+03 0.  0.
   -5000001    1    1    2    0    0  0.54791115809E+02  0.12414016317E+02 -0.15182463006E+04  0.15282188990E+04  0.16500000000E+03 0.  0.
<mgrwt>
<rscale>  0 0.36104117E+03</rscale>
<asrwt>0</asrwt>
<pdfrwt beam="1">  1        2 0.34534606E+00 0.36104117E+03</pdfrwt>
<pdfrwt beam="2">  1       -2 0.19257632E-02 0.36104117E+03</pdfrwt>
<totfact> 0.44953991E+03</totfact>
</mgrwt>
</event>
<event>
 4    1  0.1049403E-004  0.7713720E+03  0.7818608E-02  0.9602405E-01
         -2   -1    0    0    0  501 -0.00000000000E+00  0.00000000000E+00  0.57981652329E+02  0.57981652385E+02  0.25500000000E-02 0. -1.
          2   -1    0    0  501    0  0.00000000000E+00 -0.00000000000E+00 -0.25655305526E+04  0.25655305526E+04  0.25500000000E-02 0.  1.
    5000001    1    1    2    0    0  0.14225795361E+03 -0.31810630814E+03 -0.12877432309E+04  0.13442234105E+04  0.16500000000E+03 0.  0.
   -5000001    1    1    2    0    0 -0.14225795361E+03  0.31810630814E+03 -0.12198056695E+04  0.12792887946E+04  0.16500000000E+03 0.  0.
<mgrwt>
<rscale>  0 0.77137203E+03</rscale>
<asrwt>0</asrwt>
<pdfrwt beam="1">  1        2 0.36650429E+00 0.77137203E+03</pdfrwt>
<pdfrwt beam="2">  1       -2 0.82830948E-02 0.77137203E+03</pdfrwt>
<totfact> 0.39105348E+02</totfact>
</mgrwt>
</event>
<event>
 4    1  0.1049403E-004  0.4697780E+03  0.7818608E-02  0.1021983E+00
          2   -1    0    0  501    0  0.00000000000E+00  0.00000000000E+00  0.20550558746E+04  0.20550558746E+04  0.25500000000E-02 0.  1.
         -2   -1    0    0    0  501 -0.00000000000E+00 -0.00000000000E+00 -0.26847372754E+02  0.26847372876E+02  0.25500000000E-02 0. -1.
    5000001    1    1    2    0    0 -0.92825120639E+02 -0.13811616063E+03  0.94329802534E+03  0.97197157441E+03  0.16500000000E+03 0.  0.
   -5000001    1    1    2    0    0  0.92825120639E+02  0.13811616063E+03  0.10849104765E+04  0.11099316731E+04  0.16500000000E+03 0.  0.
<mgrwt>
<rscale>  0 0.46977804E+03</rscale>
<asrwt>0</asrwt>
<pdfrwt beam="1">  1        2 0.29357949E+00 0.46977804E+03</pdfrwt>
<pdfrwt beam="2">  1       -2 0.38353380E-02 0.46977804E+03</pdfrwt>
<totfact> 0.24114486E+03</totfact>
</mgrwt>
</event>
<event>
 4    1  0.1049403E-004  0.7145116E+03  0.7818608E-02  0.9692732E-01
          2   -1    0    0  501    0  0.00000000000E+00  0.00000000000E+00  0.17725200646E+04  0.17725200646E+04  0.25500000000E-02 0.  1.
         -2   -1    0    0    0  501 -0.00000000000E+00 -0.00000000000E+00 -0.72005783207E+02  0.72005783252E+02  0.25500000000E-02 0. -1.
    5000001    1    1    2    0    0 -0.30096615384E+03  0.74356872242E+02  0.68103215302E+03  0.76625019651E+03  0.16500000000E+03 0.  0.
   -5000001    1    1    2    0    0  0.30096615384E+03 -0.74356872242E+02  0.10194821283E+04  0.10782756513E+04  0.16500000000E+03 0.  0.
<mgrwt>
<rscale>  0 0.71451157E+03</rscale>
<asrwt>0</asrwt>
<pdfrwt beam="1">  1        2 0.25321711E+00 0.71451157E+03</pdfrwt>
<pdfrwt beam="2">  1       -2 0.10286542E-01 0.71451157E+03</pdfrwt>
<totfact> 0.70090554E+02</totfact>
</mgrwt>
</event>
<event>
 4    1  0.1049403E-004  0.3934920E+03  0.7818608E-02  0.1046057E+00
          2   -1    0    0  501    0  0.00000000000E+00  0.00000000000E+00  0.16523590343E+03  0.16523590345E+03  0.25500000000E-02 0.  1.
         -2   -1    0    0    0  501 -0.00000000000E+00 -0.00000000000E+00 -0.23426496739E+03  0.23426496740E+03  0.25500000000E-02 0. -1.
    5000001    1    1    2    0    0 -0.94010504685E+02 -0.39759704178E+02 -0.67649932553E+02  0.20547584394E+03  0.16500000000E+03 0.  0.
   -5000001    1    1    2    0    0  0.94010504685E+02  0.39759704178E+02 -0.13791314011E+01  0.19402502692E+03  0.16500000000E+03 0.  0.
<mgrwt>
<rscale>  0 0.39349197E+03</rscale>
<asrwt>0</asrwt>
<pdfrwt beam="1">  1        2 0.23605129E-01 0.39349197E+03</pdfrwt>
<pdfrwt beam="2">  1       -2 0.33466424E-01 0.39349197E+03</pdfrwt>
<totfact> 0.19323928E+03</totfact>
</mgrwt>
</event>
<event>
 4    1  0.1049403E-004  0.6079088E+03  0.7818608E-02  0.9889132E-01
         -2   -1    0    0    0  501 -0.00000000000E+00  0.00000000000E+00  0.56956024298E+02  0.56956024355E+02  0.25500000000E-02 0. -1.
          2   -1    0    0  501    0  0.00000000000E+00 -0.00000000000E+00 -0.16220985849E+04  0.16220985849E+04  0.25500000000E-02 0.  1.
    5000001    1    1    2    0    0  0.22530194553E+03 -0.11567760613E+03 -0.87082675039E+03  0.92179526165E+03  0.16500000000E+03 0.  0.
   -5000001    1    1    2    0    0 -0.22530194553E+03  0.11567760613E+03 -0.69431581023E+03  0.75725934761E+03  0.16500000000E+03 0.  0.
<mgrwt>
<rscale>  0 0.60790883E+03</rscale>
<asrwt>0</asrwt>
<pdfrwt beam="1">  1        2 0.23172834E+00 0.60790883E+03</pdfrwt>
<pdfrwt beam="2">  1       -2 0.81365759E-02 0.60790883E+03</pdfrwt>
<totfact> 0.12272721E+03</totfact>
</mgrwt>
</event>
<event>
 4    1  0.1049403E-004  0.6217392E+03  0.7818608E-02  0.9861303E-01
          2   -1    0    0  501    0  0.00000000000E+00  0.00000000000E+00  0.54426831216E+03  0.54426831216E+03  0.25500000000E-02 0.  1.
         -2   -1    0    0    0  501 -0.00000000000E+00 -0.00000000000E+00 -0.17755929090E+03  0.17755929092E+03  0.25500000000E-02 0. -1.
    5000001    1    1    2    0    0  0.23109817534E+03 -0.10120330876E+03  0.95193132504E+02  0.31612530558E+03  0.16500000000E+03 0.  0.
   -5000001    1    1    2    0    0 -0.23109817534E+03  0.10120330876E+03  0.27151588875E+03  0.40570229750E+03  0.16500000000E+03 0.  0.
<mgrwt>
<rscale>  0 0.62173916E+03</rscale>
<asrwt>0</asrwt>
<pdfrwt beam="1">  1        2 0.77752617E-01 0.62173916E+03</pdfrwt>
<pdfrwt beam="2">  1       -2 0.25365613E-01 0.62173916E+03</pdfrwt>
<totfact> 0.85221536E+02</totfact>
</mgrwt>
</event>
<event>
 4    1  0.1049403E-004  0.3821004E+03  0.7818608E-02  0.1050160E+00
          2   -1    0    0  501    0  0.00000000000E+00  0.00000000000E+00  0.10167710466E+04  0.10167710466E+04  0.25500000000E-02 0.  1.
         -2   -1    0    0    0  501 -0.00000000000E+00 -0.00000000000E+00 -0.35898135343E+02  0.35898135434E+02  0.25500000000E-02 0. -1.
    5000001    1    1    2    0    0  0.76174142455E+01  0.29580480727E+02  0.23881161914E+03  0.29187158011E+03  0.16500000000E+03 0.  0.
   -5000001    1    1    2    0    0 -0.76174142455E+01 -0.29580480727E+02  0.74206129211E+03  0.76079760192E+03  0.16500000000E+03 0.  0.
<mgrwt>
<rscale>  0 0.38210043E+03</rscale>
<asrwt>0</asrwt>
<pdfrwt beam="1">  1        2 0.14525301E+00 0.38210043E+03</pdfrwt>
<pdfrwt beam="2">  1       -2 0.51283050E-02 0.38210043E+03</pdfrwt>
<totfact> 0.53926690E+03</totfact>
</mgrwt>
</event>
<event>
 4    1  0.1049403E-004  0.3515859E+03  0.7818608E-02  0.1061966E+00
          2   -1    0    0  501    0  0.00000000000E+00  0.00000000000E+00  0.62842066897E+03  0.62842066898E+03  0.25500000000E-02 0.  1.
         -2   -1    0    0    0  501 -0.00000000000E+00 -0.00000000000E+00 -0.49175907632E+02  0.49175907698E+02  0.25500000000E-02 0. -1.
    5000001    1    1    2    0    0 -0.58741550940E+02  0.89463363042E+00  0.31864579479E+03  0.36360901077E+03  0.16500000000E+03 0.  0.
   -5000001    1    1    2    0    0  0.58741550940E+02 -0.89463363042E+00  0.26059896655E+03  0.31398756590E+03  0.16500000000E+03 0.  0.
<mgrwt>
<rscale>  0 0.35158587E+03</rscale>
<asrwt>0</asrwt>
<pdfrwt beam="1">  1        2 0.89774382E-01 0.35158587E+03</pdfrwt>
<pdfrwt beam="2">  1       -2 0.70251296E-02 0.35158587E+03</pdfrwt>
<totfact> 0.60701647E+03</totfact>
</mgrwt>
</event>
<event>
 4    1  0.1049403E-004  0.4032318E+03  0.7818608E-02  0.1042666E+00
         -2   -1    0    0    0  501 -0.00000000000E+00  0.00000000000E+00  0.40921927260E+02  0.40921927339E+02  0.25500000000E-02 0. -1.
          2   -1    0    0  501    0  0.00000000000E+00 -0.00000000000E+00 -0.99332971058E+03  0.99332971058E+03  0.25500000000E-02 0.  1.
    5000001    1    1    2    0    0 -0.95844705539E+02  0.64481105706E+02 -0.45327047101E+03  0.49600719799E+03  0.16500000000E+03 0.  0.
   -5000001    1    1    2    0    0  0.95844705539E+02 -0.64481105706E+02 -0.49913731231E+03  0.53824443993E+03  0.16500000000E+03 0.  0.
<mgrwt>
<rscale>  0 0.40323178E+03</rscale>
<asrwt>0</asrwt>
<pdfrwt beam="1">  1        2 0.14190423E+00 0.40323178E+03</pdfrwt>
<pdfrwt beam="2">  1       -2 0.58459902E-02 0.40323178E+03</pdfrwt>
<totfact> 0.45545450E+03</totfact>
</mgrwt>
</event>
<event>
 4    1  0.1049403E-004  0.6475492E+03  0.7818608E-02  0.9811389E-01
          2   -1    0    0  501    0  0.00000000000E+00  0.00000000000E+00  0.20844375227E+03  0.20844375229E+03  0.25500000000E-02 0.  1.
         -2   -1    0    0    0  501 -0.00000000000E+00 -0.00000000000E+00 -0.50291746721E+03  0.50291746722E+03  0.25500000000E-02 0. -1.
    5000001    1    1    2    0    0  0.19293159639E+03 -0.19808517945E+03 -0.18440377496E+03  0.37106615505E+03  0.16500000000E+03 0.  0.
   -5000001    1    1    2    0    0 -0.19293159639E+03  0.19808517945E+03 -0.11006993998E+03  0.34029506445E+03  0.16500000000E+03 0.  0.
<mgrwt>
<rscale>  0 0.64754924E+03</rscale>
<asrwt>0</asrwt>
<pdfrwt beam="1">  1        2 0.29777679E-01 0.64754924E+03</pdfrwt>
<pdfrwt beam="2">  1       -2 0.71845352E-01 0.64754924E+03</pdfrwt>
<totfact> 0.31818574E+02</totfact>
</mgrwt>
</event>
<event>
 4    1  0.1049403E-004  0.8045439E+03  0.7818608E-02  0.9553463E-01
         -2   -1    0    0    0  501 -0.00000000000E+00  0.00000000000E+00  0.38700925921E+03  0.38700925922E+03  0.25500000000E-02 0. -1.
          2   -1    0    0  501    0  0.00000000000E+00 -0.00000000000E+00 -0.41813651786E+03  0.41813651786E+03  0.25500000000E-02 0.  1.
    5000001    1    1    2    0    0 -0.31203303947E+03 -0.17061049117E+03 -0.10577066259E+03  0.40606032862E+03  0.16500000000E+03 0.  0.
   -5000001    1    1    2    0    0  0.31203303947E+03  0.17061049117E+03  0.74643403946E+02  0.39908544845E+03  0.16500000000E+03 0.  0.
<mgrwt>
<rscale>  0 0.80454386E+03</rscale>
<asrwt>0</asrwt>
<pdfrwt beam="1">  1        2 0.59733788E-01 0.80454386E+03</pdfrwt>
<pdfrwt beam="2">  1       -2 0.55287037E-01 0.80454386E+03</pdfrwt>
<totfact> 0.25470592E+02</totfact>
</mgrwt>
</event>
<event>
 4    1  0.1049403E-004  0.7306412E+03  0.7818608E-02  0.9666220E-01
          2   -1    0    0  501    0  0.00000000000E+00  0.00000000000E+00  0.73390485511E+03  0.73390485511E+03  0.25500000000E-02 0.  1.
         -2   -1    0    0    0  501 -0.00000000000E+00 -0.00000000000E+00 -0.18184803724E+03  0.18184803726E+03  0.25500000000E-02 0. -1.
    5000001    1    1    2    0    0  0.21194136112E+03 -0.11486740403E+03  0.10876271162E+01  0.29212984099E+03  0.16500000000E+03 0.  0.
   -5000001    1    1    2    0    0 -0.21194136112E+03  0.11486740403E+03  0.55096919075E+03  0.62362305138E+03  0.16500000000E+03 0.  0.
<mgrwt>
<rscale>  0 0.73064125E+03</rscale>
<asrwt>0</asrwt>
<pdfrwt beam="1">  1        2 0.10484355E+00 0.73064125E+03</pdfrwt>
<pdfrwt beam="2">  1       -2 0.25978291E-01 0.73064125E+03</pdfrwt>
<totfact> 0.56915889E+02</totfact>
</mgrwt>
</event>
<event>
 4    1  0.1049403E-004  0.4045169E+03  0.7818608E-02  0.1042227E+00
          2   -1    0    0  501    0  0.00000000000E+00  0.00000000000E+00  0.30831523495E+04  0.30831523495E+04  0.25500000000E-02 0.  1.
         -2   -1    0    0    0  501 -0.00000000000E+00 -0.00000000000E+00 -0.13268395397E+02  0.13268395642E+02  0.25500000000E-02 0. -1.
    5000001    1    1    2    0    0  0.31029699694E+02  0.10755436784E+03  0.12750567938E+04  0.12905524444E+04  0.16500000000E+03 0.  0.
   -5000001    1    1    2    0    0 -0.31029699694E+02 -0.10755436784E+03  0.17948271603E+04  0.18058683007E+04  0.16500000000E+03 0.  0.
<mgrwt>
<rscale>  0 0.40451692E+03</rscale>
<asrwt>0</asrwt>
<pdfrwt beam="1">  1        2 0.44045079E+00 0.40451692E+03</pdfrwt>
<pdfrwt beam="2">  1       -2 0.18954831E-02 0.40451692E+03</pdfrwt>
<totfact> 0.20690705E+03</totfact>
</mgrwt>
</event>
<event>
 4    1  0.1049403E-004  0.1102301E+04  0.7818608E-02  0.9202952E-01
         -2   -1    0    0    0  501 -0.00000000000E+00  0.00000000000E+00  0.97932267920E+03  0.97932267920E+03  0.25500000000E-02 0. -1.
          2   -1    0    0  501    0  0.00000000000E+00 -0.00000000000E+00 -0.31018066274E+03  0.31018066275E+03  0.25500000000E-02 0.  1.
    5000001    1    1    2    0    0 -0.43012587241E+03 -0.28010785055E+03  0.20081461414E+03  0.57534353504E+03  0.16500000000E+03 0.  0.
   -5000001    1    1    2    0    0  0.43012587241E+03  0.28010785055E+03  0.46832740232E+03  0.71415980692E+03  0.16500000000E+03 0.  0.
<mgrwt>
<rscale>  0 0.11023012E+04</rscale>
<asrwt>0</asrwt>
<pdfrwt beam="1">  1        2 0.44311523E-01 0.11023012E+04</pdfrwt>
<pdfrwt beam="2">  1       -2 0.13990324E+00 0.11023012E+04</pdfrwt>
<totfact> 0.41041227E+01</totfact>
</mgrwt>
</event>
<event>
 4    1  0.1049403E-004  0.3754073E+03  0.7818608E-02  0.1052644E+00
         -2   -1    0    0    0  501 -0.00000000000E+00  0.00000000000E+00  0.69005424503E+02  0.69005424550E+02  0.25500000000E-02 0. -1.
          2   -1    0    0  501    0  0.00000000000E+00 -0.00000000000E+00 -0.51057800875E+03  0.51057800875E+03  0.25500000000E-02 0.  1.
    5000001    1    1    2    0    0  0.33194440496E+02 -0.50259263657E+02 -0.11861242454E+03  0.21194756832E+03  0.16500000000E+03 0.  0.
   -5000001    1    1    2    0    0 -0.33194440496E+02  0.50259263657E+02 -0.32296015971E+03  0.36763586498E+03  0.16500000000E+03 0.  0.
<mgrwt>
<rscale>  0 0.37540726E+03</rscale>
<asrwt>0</asrwt>
<pdfrwt beam="1">  1        2 0.72939713E-01 0.37540726E+03</pdfrwt>
<pdfrwt beam="2">  1       -2 0.98579181E-02 0.37540726E+03</pdfrwt>
<totfact> 0.45142494E+03</totfact>
</mgrwt>
</event>
<event>
 4    1  0.1049403E-004  0.4103229E+03  0.7818608E-02  0.1040263E+00
          2   -1    0    0  501    0  0.00000000000E+00  0.00000000000E+00  0.40878831557E+02  0.40878831636E+02  0.25500000000E-02 0.  1.
         -2   -1    0    0    0  501 -0.00000000000E+00 -0.00000000000E+00 -0.10296580570E+04  0.10296580570E+04  0.25500000000E-02 0. -1.
    5000001    1    1    2    0    0 -0.76182174382E+02  0.95048314811E+02 -0.48050720480E+03  0.52244624576E+03  0.16500000000E+03 0.  0.
   -5000001    1    1    2    0    0  0.76182174382E+02 -0.95048314811E+02 -0.50827202060E+03  0.54809064284E+03  0.16500000000E+03 0.  0.
<mgrwt>
<rscale>  0 0.41032289E+03</rscale>
<asrwt>0</asrwt>
<pdfrwt beam="1">  1        2 0.58398337E-02 0.41032289E+03</pdfrwt>
<pdfrwt beam="2">  1       -2 0.14709399E+00 0.41032289E+03</pdfrwt>
<totfact> 0.42904701E+02</totfact>
</mgrwt>
</event>
<event>
 4    1  0.1049403E-004  0.6667372E+03  0.7818608E-02  0.9775870E-01
         -2   -1    0    0    0  501 -0.00000000000E+00  0.00000000000E+00  0.65512232016E+02  0.65512232066E+02  0.25500000000E-02 0. -1.
          2   -1    0    0  501    0  0.00000000000E+00 -0.00000000000E+00 -0.16963947753E+04  0.16963947753E+04  0.25500000000E-02 0.  1.
    5000001    1    1    2    0    0 -0.26316828801E+03 -0.67684776019E+02 -0.55024892320E+03  0.63548222178E+03  0.16500000000E+03 0.  0.
   -5000001    1    1    2    0    0  0.26316828801E+03  0.67684776019E+02 -0.10806336200E+04  0.11264247855E+04  0.16500000000E+03 0.  0.
<mgrwt>
<rscale>  0 0.66673715E+03</rscale>
<asrwt>0</asrwt>
<pdfrwt beam="1">  1        2 0.24234208E+00 0.66673715E+03</pdfrwt>
<pdfrwt beam="2">  1       -2 0.93588913E-02 0.66673715E+03</pdfrwt>
<totfact> 0.89569664E+02</totfact>
</mgrwt>
</event>
<event>
 4    1  0.1049403E-004  0.5645767E+03  0.7818608E-02  0.9981752E-01
          2   -1    0    0  501    0  0.00000000000E+00  0.00000000000E+00  0.83880396056E+03  0.83880396056E+03  0.25500000000E-02 0.  1.
         -2   -1    0    0    0  501 -0.00000000000E+00 -0.00000000000E+00 -0.95000407684E+02  0.95000407719E+02  0.25500000000E-02 0. -1.
    5000001    1    1    2    0    0 -0.19507542037E+03  0.38605274769E+02  0.18392135853E+03  0.31717006952E+03  0.16500000000E+03 0.  0.
   -5000001    1    1    2    0    0  0.19507542037E+03 -0.38605274769E+02  0.55988219434E+03  0.61663429876E+03  0.16500000000E+03 0.  0.
<mgrwt>
<rscale>  0 0.56457672E+03</rscale>
<asrwt>0</asrwt>
<pdfrwt beam="1">  1        2 0.11982914E+00 0.56457672E+03</pdfrwt>
<pdfrwt beam="2">  1       -2 0.13571487E-01 0.56457672E+03</pdfrwt>
<totfact> 0.14843729E+03</totfact>
</mgrwt>
</event>
<event>
 4    1  0.1049403E-004  0.4400723E+03  0.7818608E-02  0.1030725E+00
         -2   -1    0    0    0  501 -0.00000000000E+00  0.00000000000E+00  0.12691975296E+03  0.12691975299E+03  0.25500000000E-02 0. -1.
          2   -1    0    0  501    0  0.00000000000E+00 -0.00000000000E+00 -0.38146873324E+03  0.38146873325E+03  0.25500000000E-02 0.  1.
    5000001    1    1    2    0    0  0.14534402170E+03  0.69778510585E+01 -0.12246359916E+03  0.25178544074E+03  0.16500000000E+03 0.  0.
   -5000001    1    1    2    0    0 -0.14534402170E+03 -0.69778510585E+01 -0.13208538112E+03  0.25660304549E+03  0.16500000000E+03 0.  0.
<mgrwt>
<rscale>  0 0.44007235E+03</rscale>
<asrwt>0</asrwt>
<pdfrwt beam="1">  1        2 0.54495533E-01 0.44007235E+03</pdfrwt>
<pdfrwt beam="2">  1       -2 0.18131393E-01 0.44007235E+03</pdfrwt>
<totfact> 0.22865995E+03</totfact>
</mgrwt>
</event>
<event>
 4    1  0.1049403E-004  0.5519287E+03  0.7818608E-02  0.1001048E+00
          2   -1    0    0  501    0  0.00000000000E+00  0.00000000000E+00  0.69786541777E+03  0.69786541777E+03  0.25500000000E-02 0.  1.
         -2   -1    0    0    0  501 -0.00000000000E+00 -0.00000000000E+00 -0.10912752703E+03  0.10912752706E+03  0.25500000000E-02 0. -1.
    5000001    1    1    2    0    0 -0.15743141747E+03 -0.11178637114E+03  0.13655015261E+03  0.28836051768E+03  0.16500000000E+03 0.  0.
   -5000001    1    1    2    0    0  0.15743141747E+03  0.11178637114E+03  0.45218773813E+03  0.51863242716E+03  0.16500000000E+03 0.  0.
<mgrwt>
<rscale>  0 0.55192872E+03</rscale>
<asrwt>0</asrwt>
<pdfrwt beam="1">  1        2 0.99695056E-01 0.55192872E+03</pdfrwt>
<pdfrwt beam="2">  1       -2 0.15589647E-01 0.55192872E+03</pdfrwt>
<totfact> 0.14826869E+03</totfact>
</mgrwt>
</event>
<event>
 4    1  0.1049403E-004  0.5548035E+03  0.7818608E-02  0.1000388E+00
         -2   -1    0    0    0  501 -0.00000000000E+00  0.00000000000E+00  0.37366562453E+02  0.37366562540E+02  0.25500000000E-02 0. -1.
          2   -1    0    0  501    0  0.00000000000E+00 -0.00000000000E+00 -0.20593739429E+04  0.20593739429E+04  0.25500000000E-02 0.  1.
    5000001    1    1    2    0    0 -0.21681446915E+03  0.37316363795E+02 -0.11486067701E+04  0.11810688114E+04  0.16500000000E+03 0.  0.
   -5000001    1    1    2    0    0  0.21681446915E+03 -0.37316363795E+02 -0.87340061036E+03  0.91567169401E+03  0.16500000000E+03 0.  0.
<mgrwt>
<rscale>  0 0.55480348E+03</rscale>
<asrwt>0</asrwt>
<pdfrwt beam="1">  1        2 0.29419621E+00 0.55480348E+03</pdfrwt>
<pdfrwt beam="2">  1       -2 0.53380817E-02 0.55480348E+03</pdfrwt>
<totfact> 0.14371009E+03</totfact>
</mgrwt>
</event>
<event>
 4    1  0.1049403E-004  0.4404883E+03  0.7818608E-02  0.1030597E+00
         -2   -1    0    0    0  501 -0.00000000000E+00  0.00000000000E+00  0.33128760337E+03  0.33128760338E+03  0.25500000000E-02 0. -1.
          2   -1    0    0  501    0  0.00000000000E+00 -0.00000000000E+00 -0.14642105883E+03  0.14642105885E+03  0.25500000000E-02 0.  1.
    5000001    1    1    2    0    0  0.12321548429E+03 -0.68418138438E+02  0.51575114991E+02  0.22304279796E+03  0.16500000000E+03 0.  0.
   -5000001    1    1    2    0    0 -0.12321548429E+03  0.68418138438E+02  0.13329142955E+03  0.25466586428E+03  0.16500000000E+03 0.  0.
<mgrwt>
<rscale>  0 0.44048828E+03</rscale>
<asrwt>0</asrwt>
<pdfrwt beam="1">  1        2 0.20917294E-01 0.44048828E+03</pdfrwt>
<pdfrwt beam="2">  1       -2 0.47326800E-01 0.44048828E+03</pdfrwt>
<totfact> 0.11398412E+03</totfact>
</mgrwt>
</event>
<event>
 4    1  0.1049403E-004  0.7464139E+03  0.7818608E-02  0.9640993E-01
          2   -1    0    0  501    0  0.00000000000E+00  0.00000000000E+00  0.13028770624E+04  0.13028770624E+04  0.25500000000E-02 0. -1.
         -2   -1    0    0    0  501 -0.00000000000E+00 -0.00000000000E+00 -0.10690450556E+03  0.10690450559E+03  0.25500000000E-02 0.  1.
    5000001    1    1    2    0    0 -0.17160390766E+03  0.28604750808E+03  0.65098386287E+03  0.74985069695E+03  0.16500000000E+03 0.  0.
   -5000001    1    1    2    0    0  0.17160390766E+03 -0.28604750808E+03  0.54498869395E+03  0.65993087103E+03  0.16500000000E+03 0.  0.
<mgrwt>
<rscale>  0 0.74641390E+03</rscale>
<asrwt>0</asrwt>
<pdfrwt beam="1">  1        2 0.18612529E+00 0.74641390E+03</pdfrwt>
<pdfrwt beam="2">  1       -2 0.15272072E-01 0.74641390E+03</pdfrwt>
<totfact> 0.63986658E+02</totfact>
</mgrwt>
</event>
<event>
 4    1  0.1049403E-004  0.6730847E+03  0.7818608E-02  0.9764401E-01
          2   -1    0    0  501    0  0.00000000000E+00  0.00000000000E+00  0.57861397764E+03  0.57861397764E+03  0.25500000000E-02 0.  1.
         -2   -1    0    0    0  501 -0.00000000000E+00 -0.00000000000E+00 -0.19574493901E+03  0.19574493902E+03  0.25500000000E-02 0. -1.
    5000001    1    1    2    0    0 -0.23314256044E+03  0.13804821383E+03  0.32069143256E+03  0.45108841456E+03  0.16500000000E+03 0.  0.
   -5000001    1    1    2    0    0  0.23314256044E+03 -0.13804821383E+03  0.62177606070E+02  0.32327050210E+03  0.16500000000E+03 0.  0.
<mgrwt>
<rscale>  0 0.67308471E+03</rscale>
<asrwt>0</asrwt>
<pdfrwt beam="1">  1        2 0.82659139E-01 0.67308471E+03</pdfrwt>
<pdfrwt beam="2">  1       -2 0.27963563E-01 0.67308471E+03</pdfrwt>
<totfact> 0.66423253E+02</totfact>
</mgrwt>
</event>
<event>
 4    1  0.1049403E-004  0.1430448E+04  0.7818608E-02  0.8932069E-01
          2   -1    0    0  501    0  0.00000000000E+00  0.00000000000E+00  0.19842098783E+04  0.19842098783E+04  0.25500000000E-02 0.  1.
         -2   -1    0    0    0  501 -0.00000000000E+00 -0.00000000000E+00 -0.25780809941E+03  0.25780809942E+03  0.25500000000E-02 0. -1.
    5000001    1    1    2    0    0  0.34763362689E+03  0.41450507390E+03  0.17703502404E+03  0.59264660175E+03  0.16500000000E+03 0.  0.
   -5000001    1    1    2    0    0 -0.34763362689E+03 -0.41450507390E+03  0.15493667548E+04  0.16493713759E+04  0.16500000000E+03 0.  0.
<mgrwt>
<rscale>  0 0.14304480E+04</rscale>
<asrwt>0</asrwt>
<pdfrwt beam="1">  1        2 0.28345855E+00 0.14304480E+04</pdfrwt>
<pdfrwt beam="2">  1       -2 0.36829730E-01 0.14304480E+04</pdfrwt>
<totfact> 0.55200752E+01</totfact>
</mgrwt>
</event>
<event>
 4    1  0.1049403E-004  0.4296614E+03  0.7818608E-02  0.1033967E+00
          2   -1    0    0  501    0  0.00000000000E+00  0.00000000000E+00  0.26020914947E+04  0.26020914947E+04  0.25500000000E-02 0.  1.
         -2   -1    0    0    0  501 -0.00000000000E+00 -0.00000000000E+00 -0.17736590423E+02  0.17736590607E+02  0.25500000000E-02 0. -1.
    5000001    1    1    2    0    0 -0.71238226580E+02  0.83807422023E+02  0.17960425405E+04  0.18069566614E+04  0.16500000000E+03 0.  0.
   -5000001    1    1    2    0    0  0.71238226580E+02 -0.83807422023E+02  0.78831236373E+03  0.81287142386E+03  0.16500000000E+03 0.  0.
<mgrwt>
<rscale>  0 0.42966141E+03</rscale>
<asrwt>0</asrwt>
<pdfrwt beam="1">  1        2 0.37172761E+00 0.42966141E+03</pdfrwt>
<pdfrwt beam="2">  1       -2 0.25337969E-02 0.42966141E+03</pdfrwt>
<totfact> 0.23999988E+03</totfact>
</mgrwt>
</event>
<event>
 4    1  0.1049403E-004  0.4068910E+03  0.7818608E-02  0.1041419E+00
          2   -1    0    0  501    0  0.00000000000E+00  0.00000000000E+00  0.23182836720E+03  0.23182836721E+03  0.25500000000E-02 0.  1.
         -2   -1    0    0    0  501 -0.00000000000E+00 -0.00000000000E+00 -0.17853751858E+03  0.17853751860E+03  0.25500000000E-02 0. -1.
    5000001    1    1    2    0    0 -0.65036920897E+02 -0.31546980409E+02 -0.68713897423E+02  0.19279941066E+03  0.16500000000E+03 0.  0.
   -5000001    1    1    2    0    0  0.65036920897E+02  0.31546980409E+02  0.12200474604E+03  0.21756647515E+03  0.16500000000E+03 0.  0.
<mgrwt>
<rscale>  0 0.40689095E+03</rscale>
<asrwt>0</asrwt>
<pdfrwt beam="1">  1        2 0.33118338E-01 0.40689095E+03</pdfrwt>
<pdfrwt beam="2">  1       -2 0.25505360E-01 0.40689095E+03</pdfrwt>
<totfact> 0.21727568E+03</totfact>
</mgrwt>
</event>
<event>
 4    1  0.1049403E-004  0.7765062E+03  0.7818608E-02  0.9594660E-01
          2   -1    0    0  501    0  0.00000000000E+00  0.00000000000E+00  0.20253853653E+04  0.20253853653E+04  0.25500000000E-02 0.  1.
         -2   -1    0    0    0  501 -0.00000000000E+00 -0.00000000000E+00 -0.74425569015E+02  0.74425569059E+02  0.25500000000E-02 0. -1.
    5000001    1    1    2    0    0  0.25583339903E+03  0.21740426114E+03  0.69445194387E+03  0.78879898781E+03  0.16500000000E+03 0.  0.
   -5000001    1    1    2    0    0 -0.25583339903E+03 -0.21740426114E+03  0.12565078525E+04  0.13110119466E+04  0.16500000000E+03 0.  0.
<mgrwt>
<rscale>  0 0.77650617E+03</rscale>
<asrwt>0</asrwt>
<pdfrwt beam="1">  1        2 0.28934080E+00 0.77650617E+03</pdfrwt>
<pdfrwt beam="2">  1       -2 0.10632223E-01 0.77650617E+03</pdfrwt>
<totfact> 0.49249824E+02</totfact>
</mgrwt>
</event>
<event>
 4    1  0.1049403E-004  0.5717391E+03  0.7818608E-02  0.9965838E-01
         -2   -1    0    0    0  501 -0.00000000000E+00  0.00000000000E+00  0.76500270545E+03  0.76500270546E+03  0.25500000000E-02 0. -1.
          2   -1    0    0  501    0  0.00000000000E+00 -0.00000000000E+00 -0.10682498264E+03  0.10682498268E+03  0.25500000000E-02 0.  1.
    5000001    1    1    2    0    0  0.49125542530E+02  0.31478741801E+02  0.67376398327E+03  0.69612293114E+03  0.16500000000E+03 0.  0.
   -5000001    1    1    2    0    0 -0.49125542530E+02 -0.31478741801E+02 -0.15586260458E+02  0.17570475699E+03  0.16500000000E+03 0.  0.
<mgrwt>
<rscale>  0 0.57173910E+03</rscale>
<asrwt>0</asrwt>
<pdfrwt beam="1">  1        2 0.15260711E-01 0.57173910E+03</pdfrwt>
<pdfrwt beam="2">  1       -2 0.10928610E+00 0.57173910E+03</pdfrwt>
<totfact> 0.26535402E+02</totfact>
</mgrwt>
</event>
<event>
 4    1  0.1049403E-004  0.5595955E+03  0.7818608E-02  0.9992970E-01
         -2   -1    0    0    0  501 -0.00000000000E+00  0.00000000000E+00  0.12813346386E+03  0.12813346388E+03  0.25500000000E-02 0. -1.
          2   -1    0    0  501    0  0.00000000000E+00 -0.00000000000E+00 -0.61097834028E+03  0.61097834029E+03  0.25500000000E-02 0.  1.
    5000001    1    1    2    0    0  0.58813339677E+02 -0.20397566806E+03 -0.34370267280E+03  0.43637324548E+03  0.16500000000E+03 0.  0.
   -5000001    1    1    2    0    0 -0.58813339677E+02  0.20397566806E+03 -0.13914220363E+03  0.30273855869E+03  0.16500000000E+03 0.  0.
<mgrwt>
<rscale>  0 0.55959546E+03</rscale>
<asrwt>0</asrwt>
<pdfrwt beam="1">  1        2 0.87282619E-01 0.55959546E+03</pdfrwt>
<pdfrwt beam="2">  1       -2 0.18304781E-01 0.55959546E+03</pdfrwt>
<totfact> 0.13227104E+03</totfact>
</mgrwt>
</event>
<event>
 4    1  0.1049403E-004  0.4113831E+03  0.7818608E-02  0.1039908E+00
          2   -1    0    0  501    0  0.00000000000E+00  0.00000000000E+00  0.42082140107E+03  0.42082140107E+03  0.25500000000E-02 0.  1.
         -2   -1    0    0    0  501 -0.00000000000E+00 -0.00000000000E+00 -0.10053913301E+03  0.10053913305E+03  0.25500000000E-02 0. -1.
    5000001    1    1    2    0    0 -0.10440265475E+03  0.61772987297E+02  0.13582272971E+03  0.24574098190E+03  0.16500000000E+03 0.  0.
   -5000001    1    1    2    0    0  0.10440265475E+03 -0.61772987297E+02  0.18445953834E+03  0.27561955222E+03  0.16500000000E+03 0.  0.
<mgrwt>
<rscale>  0 0.41138312E+03</rscale>
<asrwt>0</asrwt>
<pdfrwt beam="1">  1        2 0.60117343E-01 0.41138312E+03</pdfrwt>
<pdfrwt beam="2">  1       -2 0.14362733E-01 0.41138312E+03</pdfrwt>
<totfact> 0.30361007E+03</totfact>
</mgrwt>
</event>
<event>
 4    1  0.1049403E-004  0.3847525E+03  0.7818608E-02  0.1049191E+00
          2   -1    0    0  501    0  0.00000000000E+00  0.00000000000E+00  0.41555348770E+04  0.41555348770E+04  0.25500000000E-02 0.  1.
         -2   -1    0    0    0  501 -0.00000000000E+00 -0.00000000000E+00 -0.89058600968E+01  0.89058604619E+01  0.25500000000E-02 0. -1.
    5000001    1    1    2    0    0  0.34918581020E+01  0.57310781840E+02  0.29450679967E+04  0.29502452820E+04  0.16500000000E+03 0.  0.
   -5000001    1    1    2    0    0 -0.34918581020E+01 -0.57310781840E+02  0.12015610201E+04  0.12141954554E+04  0.16500000000E+03 0.  0.
<mgrwt>
<rscale>  0 0.38475246E+03</rscale>
<asrwt>0</asrwt>
<pdfrwt beam="1">  1        2 0.59364717E+00 0.38475246E+03</pdfrwt>
<pdfrwt beam="2">  1       -2 0.12722672E-02 0.38475246E+03</pdfrwt>
<totfact> 0.83754522E+02</totfact>
</mgrwt>
</event>
<event>
 4    1  0.1049403E-004  0.6855747E+03  0.7818608E-02  0.9742224E-01
         -2   -1    0    0    0  501 -0.00000000000E+00  0.00000000000E+00  0.87410983010E+02  0.87410983047E+02  0.25500000000E-02 0. -1.
          2   -1    0    0  501    0  0.00000000000E+00 -0.00000000000E+00 -0.13442607564E+04  0.13442607564E+04  0.25500000000E-02 0.  1.
    5000001    1    1    2    0    0  0.13461852703E+03  0.26581649720E+03 -0.54761098900E+03  0.64489018699E+03  0.16500000000E+03 0.  0.
   -5000001    1    1    2    0    0 -0.13461852703E+03 -0.26581649720E+03 -0.70923878441E+03  0.78678155248E+03  0.16500000000E+03 0.  0.
<mgrwt>
<rscale>  0 0.68557466E+03</rscale>
<asrwt>0</asrwt>
<pdfrwt beam="1">  1        2 0.19203724E+00 0.68557466E+03</pdfrwt>
<pdfrwt beam="2">  1       -2 0.12487284E-01 0.68557466E+03</pdfrwt>
<totfact> 0.85333969E+02</totfact>
</mgrwt>
</event>
<event>
 4    1  0.1049403E-004  0.3558756E+03  0.7818608E-02  0.1060229E+00
         -2   -1    0    0    0  501 -0.00000000000E+00  0.00000000000E+00  0.44214251520E+02  0.44214251594E+02  0.25500000000E-02 0. -1.
          2   -1    0    0  501    0  0.00000000000E+00 -0.00000000000E+00 -0.71610089712E+03  0.71610089712E+03  0.25500000000E-02 0.  1.
    5000001    1    1    2    0    0 -0.60642008111E+01  0.61058214229E+02 -0.39132616489E+03  0.42909911138E+03  0.16500000000E+03 0.  0.
   -5000001    1    1    2    0    0  0.60642008111E+01 -0.61058214229E+02 -0.28056048071E+03  0.33121603734E+03  0.16500000000E+03 0.  0.
<mgrwt>
<rscale>  0 0.35587563E+03</rscale>
<asrwt>0</asrwt>
<pdfrwt beam="1">  1        2 0.10230012E+00 0.35587563E+03</pdfrwt>
<pdfrwt beam="2">  1       -2 0.63163221E-02 0.35587563E+03</pdfrwt>
<totfact> 0.61359185E+03</totfact>
</mgrwt>
</event>
<event>
 4    1  0.1049403E-004  0.3954948E+03  0.7818608E-02  0.1045351E+00
         -2   -1    0    0    0  501 -0.00000000000E+00  0.00000000000E+00  0.16440101309E+03  0.16440101311E+03  0.25500000000E-02 0. -1.
          2   -1    0    0  501    0  0.00000000000E+00 -0.00000000000E+00 -0.23785767878E+03  0.23785767880E+03  0.25500000000E-02 0.  1.
    5000001    1    1    2    0    0 -0.10318765786E+03 -0.18057970556E+02 -0.67330441612E+02  0.20671761270E+03  0.16500000000E+03 0.  0.
   -5000001    1    1    2    0    0  0.10318765786E+03  0.18057970556E+02 -0.61262240839E+01  0.19554107920E+03  0.16500000000E+03 0.  0.
<mgrwt>
<rscale>  0 0.39549485E+03</rscale>
<asrwt>0</asrwt>
<pdfrwt beam="1">  1        2 0.33979668E-01 0.39549485E+03</pdfrwt>
<pdfrwt beam="2">  1       -2 0.23485859E-01 0.39549485E+03</pdfrwt>
<totfact> 0.24439449E+03</totfact>
</mgrwt>
</event>
<event>
 4    1  0.1049403E-004  0.6921611E+03  0.7818608E-02  0.9730733E-01
         -2   -1    0    0    0  501 -0.00000000000E+00  0.00000000000E+00  0.12287511558E+03  0.12287511561E+03  0.25500000000E-02 0. -1.
          2   -1    0    0  501    0  0.00000000000E+00 -0.00000000000E+00 -0.97474361531E+03  0.97474361531E+03  0.25500000000E-02 0.  1.
    5000001    1    1    2    0    0  0.14113739956E+03  0.26421881972E+03 -0.51007631681E+03  0.61411252977E+03  0.16500000000E+03 0.  0.
   -5000001    1    1    2    0    0 -0.14113739956E+03 -0.26421881972E+03 -0.34179218291E+03  0.48350620115E+03  0.16500000000E+03 0.  0.
<mgrwt>
<rscale>  0 0.69216106E+03</rscale>
<asrwt>0</asrwt>
<pdfrwt beam="1">  1        2 0.13924908E+00 0.69216106E+03</pdfrwt>
<pdfrwt beam="2">  1       -2 0.17553589E-01 0.69216106E+03</pdfrwt>
<totfact> 0.78311758E+02</totfact>
</mgrwt>
</event>
<event>
 4    1  0.1049403E-004  0.3893504E+03  0.7818608E-02  0.1047531E+00
          2   -1    0    0  501    0  0.00000000000E+00  0.00000000000E+00  0.14235748841E+03  0.14235748844E+03  0.25500000000E-02 0.  1.
         -2   -1    0    0    0  501 -0.00000000000E+00 -0.00000000000E+00 -0.26622012203E+03  0.26622012204E+03  0.25500000000E-02 0. -1.
    5000001    1    1    2    0    0 -0.70639594784E+02 -0.67486948570E+02 -0.26671625025E+02  0.19359962851E+03  0.16500000000E+03 0.  0.
   -5000001    1    1    2    0    0  0.70639594784E+02  0.67486948570E+02 -0.97191008586E+02  0.21497798196E+03  0.16500000000E+03 0.  0.
<mgrwt>
<rscale>  0 0.38935037E+03</rscale>
<asrwt>0</asrwt>
<pdfrwt beam="1">  1        2 0.20336784E-01 0.38935037E+03</pdfrwt>
<pdfrwt beam="2">  1       -2 0.38031446E-01 0.38935037E+03</pdfrwt>
<totfact> 0.18008864E+03</totfact>
</mgrwt>
</event>
<event>
 4    1  0.1049403E-004  0.5903929E+03  0.7818608E-02  0.9925541E-01
          2   -1    0    0  501    0  0.00000000000E+00  0.00000000000E+00  0.26209992710E+03  0.26209992711E+03  0.25500000000E-02 0.  1.
         -2   -1    0    0    0  501 -0.00000000000E+00 -0.00000000000E+00 -0.33247226635E+03  0.33247226636E+03  0.25500000000E-02 0. -1.
    5000001    1    1    2    0    0  0.55320959540E+02  0.23837556740E+03 -0.29432842151E+02  0.29660514475E+03  0.16500000000E+03 0.  0.
   -5000001    1    1    2    0    0 -0.55320959540E+02 -0.23837556740E+03 -0.40939497097E+02  0.29796704872E+03  0.16500000000E+03 0.  0.
<mgrwt>
<rscale>  0 0.59039294E+03</rscale>
<asrwt>0</asrwt>
<pdfrwt beam="1">  1        2 0.37442847E-01 0.59039294E+03</pdfrwt>
<pdfrwt beam="2">  1       -2 0.47496038E-01 0.59039294E+03</pdfrwt>
<totfact> 0.58665226E+02</totfact>
</mgrwt>
</event>
<event>
 4    1  0.1049403E-004  0.4420501E+03  0.7818608E-02  0.1030120E+00
          2   -1    0    0  501    0  0.00000000000E+00  0.00000000000E+00  0.21150098195E+04  0.21150098195E+04  0.25500000000E-02 0.  1.
         -2   -1    0    0    0  501 -0.00000000000E+00 -0.00000000000E+00 -0.23097801653E+02  0.23097801794E+02  0.25500000000E-02 0. -1.
    5000001    1    1    2    0    0  0.59072552513E+02  0.83835461827E+02  0.53615815810E+03  0.57027056878E+03  0.16500000000E+03 0.  0.
   -5000001    1    1    2    0    0 -0.59072552513E+02 -0.83835461827E+02  0.15557538597E+04  0.15678370525E+04  0.16500000000E+03 0.  0.
<mgrwt>
<rscale>  0 0.44205012E+03</rscale>
<asrwt>0</asrwt>
<pdfrwt beam="1">  1        2 0.30214408E+00 0.44205012E+03</pdfrwt>
<pdfrwt beam="2">  1       -2 0.32996879E-02 0.44205012E+03</pdfrwt>
<totfact> 0.28324007E+03</totfact>
</mgrwt>
</event>
<event>
 4    1  0.1049403E-004  0.7969522E+03  0.7818608E-02  0.9564439E-01
         -2   -1    0    0    0  501 -0.00000000000E+00  0.00000000000E+00  0.47888678701E+03  0.47888678702E+03  0.25500000000E-02 0. -1.
          2   -1    0    0  501    0  0.00000000000E+00 -0.00000000000E+00 -0.33156732754E+03  0.33156732755E+03  0.25500000000E-02 0.  1.
    5000001    1    1    2    0    0 -0.69035467610E+02 -0.33133656961E+03 -0.58966003580E+02  0.38111915162E+03  0.16500000000E+03 0.  0.
   -5000001    1    1    2    0    0  0.69035467610E+02  0.33133656961E+03  0.20628546305E+03  0.42933496296E+03  0.16500000000E+03 0.  0.
<mgrwt>
<rscale>  0 0.79695222E+03</rscale>
<asrwt>0</asrwt>
<pdfrwt beam="1">  1        2 0.47366761E-01 0.79695222E+03</pdfrwt>
<pdfrwt beam="2">  1       -2 0.68412398E-01 0.79695222E+03</pdfrwt>
<totfact> 0.21000880E+02</totfact>
</mgrwt>
</event>
<event>
 4    1  0.1049403E-004  0.4007093E+03  0.7818608E-02  0.1043534E+00
          2   -1    0    0  501    0  0.00000000000E+00  0.00000000000E+00  0.24092518190E+04  0.24092518190E+04  0.25500000000E-02 0.  1.
         -2   -1    0    0    0  501 -0.00000000000E+00 -0.00000000000E+00 -0.16661597931E+02  0.16661598127E+02  0.25500000000E-02 0. -1.
    5000001    1    1    2    0    0 -0.45651265591E+02  0.53773308621E+02  0.17357980647E+04  0.17450488613E+04  0.16500000000E+03 0.  0.
   -5000001    1    1    2    0    0  0.45651265591E+02 -0.53773308621E+02  0.65679215638E+03  0.68086455588E+03  0.16500000000E+03 0.  0.
<mgrwt>
<rscale>  0 0.40070930E+03</rscale>
<asrwt>0</asrwt>
<pdfrwt beam="1">  1        2 0.34417877E+00 0.40070930E+03</pdfrwt>
<pdfrwt beam="2">  1       -2 0.23802287E-02 0.40070930E+03</pdfrwt>
<totfact> 0.33059715E+03</totfact>
</mgrwt>
</event>
<event>
 4    1  0.1049403E-004  0.4008028E+03  0.7818608E-02  0.1043502E+00
         -2   -1    0    0    0  501 -0.00000000000E+00  0.00000000000E+00  0.59224230271E+02  0.59224230326E+02  0.25500000000E-02 0. -1.
          2   -1    0    0  501    0  0.00000000000E+00 -0.00000000000E+00 -0.67811285409E+03  0.67811285409E+03  0.25500000000E-02 0.  1.
    5000001    1    1    2    0    0 -0.60147321910E+02 -0.62739260625E+02 -0.44440243324E+03  0.48194650930E+03  0.16500000000E+03 0.  0.
   -5000001    1    1    2    0    0  0.60147321910E+02  0.62739260625E+02 -0.17448619057E+03  0.25539057512E+03  0.16500000000E+03 0.  0.
<mgrwt>
<rscale>  0 0.40080275E+03</rscale>
<asrwt>0</asrwt>
<pdfrwt beam="1">  1        2 0.96873260E-01 0.40080275E+03</pdfrwt>
<pdfrwt beam="2">  1       -2 0.84606047E-02 0.40080275E+03</pdfrwt>
<totfact> 0.41543290E+03</totfact>
</mgrwt>
</event>
<event>
 4    1  0.1049403E-004  0.1266492E+04  0.7818608E-02  0.9056567E-01
         -2   -1    0    0    0  501 -0.00000000000E+00  0.00000000000E+00  0.29417747661E+03  0.29417747662E+03  0.25500000000E-02 0. -1.
          2   -1    0    0  501    0  0.00000000000E+00 -0.00000000000E+00 -0.13631248220E+04  0.13631248221E+04  0.25500000000E-02 0.  1.
    5000001    1    1    2    0    0  0.52513627334E+03  0.34928683166E+02 -0.94158094027E+03  0.10912322326E+04  0.16500000000E+03 0.  0.
   -5000001    1    1    2    0    0 -0.52513627334E+03 -0.34928683166E+02 -0.12736640517E+03  0.56607006603E+03  0.16500000000E+03 0.  0.
<mgrwt>
<rscale>  0 0.12664922E+04</rscale>
<asrwt>0</asrwt>
<pdfrwt beam="1">  1        2 0.19473211E+00 0.12664922E+04</pdfrwt>
<pdfrwt beam="2">  1       -2 0.42025355E-01 0.12664922E+04</pdfrwt>
<totfact> 0.91329984E+01</totfact>
</mgrwt>
</event>
<event>
 4    1  0.1049403E-004  0.3959057E+03  0.7818608E-02  0.1045207E+00
         -2   -1    0    0    0  501 -0.00000000000E+00  0.00000000000E+00  0.32279367807E+02  0.32279367908E+02  0.25500000000E-02 0. -1.
          2   -1    0    0  501    0  0.00000000000E+00 -0.00000000000E+00 -0.12139432874E+04  0.12139432874E+04  0.25500000000E-02 0.  1.
    5000001    1    1    2    0    0 -0.82206190323E+02 -0.47831036411E+02 -0.42089118203E+03  0.46197408248E+03  0.16500000000E+03 0.  0.
   -5000001    1    1    2    0    0  0.82206190323E+02  0.47831036411E+02 -0.76077273760E+03  0.78424857287E+03  0.16500000000E+03 0.  0.
<mgrwt>
<rscale>  0 0.39590566E+03</rscale>
<asrwt>0</asrwt>
<pdfrwt beam="1">  1        2 0.17342044E+00 0.39590566E+03</pdfrwt>
<pdfrwt beam="2">  1       -2 0.46113390E-02 0.39590566E+03</pdfrwt>
<totfact> 0.49032280E+03</totfact>
</mgrwt>
</event>
<event>
 4    1  0.1049403E-004  0.5306349E+03  0.7818608E-02  0.1006078E+00
         -2   -1    0    0    0  501 -0.00000000000E+00  0.00000000000E+00  0.31583480443E+02  0.31583480546E+02  0.25500000000E-02 0. -1.
          2   -1    0    0  501    0  0.00000000000E+00 -0.00000000000E+00 -0.22288030359E+04  0.22288030359E+04  0.25500000000E-02 0.  1.
    5000001    1    1    2    0    0 -0.11869914809E+03  0.10778459129E+03 -0.53571684157E+03  0.58303047966E+03  0.16500000000E+03 0.  0.
   -5000001    1    1    2    0    0  0.11869914809E+03 -0.10778459129E+03 -0.16615027139E+04  0.16773560368E+04  0.16500000000E+03 0.  0.
<mgrwt>
<rscale>  0 0.53063493E+03</rscale>
<asrwt>0</asrwt>
<pdfrwt beam="1">  1        2 0.31840034E+00 0.53063493E+03</pdfrwt>
<pdfrwt beam="2">  1       -2 0.45119272E-02 0.53063493E+03</pdfrwt>
<totfact> 0.15348329E+03</totfact>
</mgrwt>
</event>
<event>
 4    1  0.1049403E-004  0.3816243E+03  0.7818608E-02  0.1050335E+00
          2   -1    0    0  501    0  0.00000000000E+00  0.00000000000E+00  0.39631203055E+04  0.39631203055E+04  0.25500000000E-02 0.  1.
         -2   -1    0    0    0  501 -0.00000000000E+00 -0.00000000000E+00 -0.91870223896E+01  0.91870227435E+01  0.25500000000E-02 0. -1.
    5000001    1    1    2    0    0 -0.92030003002E+02  0.24612636374E+02  0.18683078156E+04  0.18779974434E+04  0.16500000000E+03 0.  0.
   -5000001    1    1    2    0    0  0.92030003002E+02 -0.24612636374E+02  0.20856254675E+04  0.20943098849E+04  0.16500000000E+03 0.  0.
<mgrwt>
<rscale>  0 0.38162430E+03</rscale>
<asrwt>0</asrwt>
<pdfrwt beam="1">  1        2 0.56615914E+00 0.38162430E+03</pdfrwt>
<pdfrwt beam="2">  1       -2 0.13124339E-02 0.38162430E+03</pdfrwt>
<totfact> 0.10768075E+03</totfact>
</mgrwt>
</event>
<event>
 4    1  0.1049403E-004  0.4012512E+03  0.7818608E-02  0.1043347E+00
         -2   -1    0    0    0  501 -0.00000000000E+00  0.00000000000E+00  0.24778084088E+02  0.24778084219E+02  0.25500000000E-02 0. -1.
          2   -1    0    0  501    0  0.00000000000E+00 -0.00000000000E+00 -0.16244447870E+04  0.16244447870E+04  0.25500000000E-02 0.  1.
    5000001    1    1    2    0    0  0.90520856144E+02 -0.27380095521E+01 -0.10853106015E+04  0.11015106099E+04  0.16500000000E+03 0.  0.
   -5000001    1    1    2    0    0 -0.90520856144E+02  0.27380095521E+01 -0.51435610143E+03  0.54771226130E+03  0.16500000000E+03 0.  0.
<mgrwt>
<rscale>  0 0.40125119E+03</rscale>
<asrwt>0</asrwt>
<pdfrwt beam="1">  1        2 0.23206347E+00 0.40125119E+03</pdfrwt>
<pdfrwt beam="2">  1       -2 0.35397273E-02 0.40125119E+03</pdfrwt>
<totfact> 0.44741025E+03</totfact>
</mgrwt>
</event>
<event>
 4    1  0.1049403E-004  0.4218054E+03  0.7818608E-02  0.1036480E+00
         -2   -1    0    0    0  501 -0.00000000000E+00  0.00000000000E+00  0.20765053826E+02  0.20765053983E+02  0.25500000000E-02 0. -1.
          2   -1    0    0  501    0  0.00000000000E+00 -0.00000000000E+00 -0.21420581744E+04  0.21420581744E+04  0.25500000000E-02 0.  1.
    5000001    1    1    2    0    0 -0.24183204875E+02 -0.58011643159E+02 -0.16520892115E+04  0.16614974995E+04  0.16500000000E+03 0.  0.
   -5000001    1    1    2    0    0  0.24183204875E+02  0.58011643159E+02 -0.46920390914E+03  0.50132572893E+03  0.16500000000E+03 0.  0.
<mgrwt>
<rscale>  0 0.42180542E+03</rscale>
<asrwt>0</asrwt>
<pdfrwt beam="1">  1        2 0.30600817E+00 0.42180542E+03</pdfrwt>
<pdfrwt beam="2">  1       -2 0.29664376E-02 0.42180542E+03</pdfrwt>
<totfact> 0.32273016E+03</totfact>
</mgrwt>
</event>
<event>
 4    1  0.1049403E-004  0.5203250E+03  0.7818608E-02  0.1008606E+00
         -2   -1    0    0    0  501 -0.00000000000E+00  0.00000000000E+00  0.11184929965E+03  0.11184929968E+03  0.25500000000E-02 0. -1.
          2   -1    0    0  501    0  0.00000000000E+00 -0.00000000000E+00 -0.60514027254E+03  0.60514027254E+03  0.25500000000E-02 0.  1.
    5000001    1    1    2    0    0 -0.17800206766E+03  0.10601883862E+02 -0.11839565949E+03  0.27025852109E+03  0.16500000000E+03 0.  0.
   -5000001    1    1    2    0    0  0.17800206766E+03 -0.10601883862E+02 -0.37489531341E+03  0.44673105114E+03  0.16500000000E+03 0.  0.
<mgrwt>
<rscale>  0 0.52032496E+03</rscale>
<asrwt>0</asrwt>
<pdfrwt beam="1">  1        2 0.86448608E-01 0.52032496E+03</pdfrwt>
<pdfrwt beam="2">  1       -2 0.15978472E-01 0.52032496E+03</pdfrwt>
<totfact> 0.16865690E+03</totfact>
</mgrwt>
</event>
<event>
 4    1  0.1049403E-004  0.4626656E+03  0.7818608E-02  0.1024011E+00
          2   -1    0    0  501    0  0.00000000000E+00  0.00000000000E+00  0.22368193719E+04  0.22368193719E+04  0.25500000000E-02 0.  1.
         -2   -1    0    0    0  501 -0.00000000000E+00 -0.00000000000E+00 -0.23924536451E+02  0.23924536587E+02  0.25500000000E-02 0. -1.
    5000001    1    1    2    0    0 -0.29290947222E+02 -0.12661838254E+03  0.15801884146E+04  0.15940861332E+04  0.16500000000E+03 0.  0.
   -5000001    1    1    2    0    0  0.29290947222E+02  0.12661838254E+03  0.63270642089E+03  0.66665777534E+03  0.16500000000E+03 0.  0.
<mgrwt>
<rscale>  0 0.46266561E+03</rscale>
<asrwt>0</asrwt>
<pdfrwt beam="1">  1        2 0.31954536E+00 0.46266561E+03</pdfrwt>
<pdfrwt beam="2">  1       -2 0.34177938E-02 0.46266561E+03</pdfrwt>
<totfact> 0.23330264E+03</totfact>
</mgrwt>
</event>
<event>
 4    1  0.1049403E-004  0.8730117E+03  0.7818608E-02  0.9459961E-01
          2   -1    0    0  501    0  0.00000000000E+00  0.00000000000E+00  0.16566053562E+04  0.16566053562E+04  0.25500000000E-02 0.  1.
         -2   -1    0    0    0  501 -0.00000000000E+00 -0.00000000000E+00 -0.11501675344E+03  0.11501675347E+03  0.25500000000E-02 0. -1.
    5000001    1    1    2    0    0 -0.24347961723E+03 -0.24391275616E+03  0.11990563665E+04  0.12584661008E+04  0.16500000000E+03 0.  0.
   -5000001    1    1    2    0    0  0.24347961723E+03  0.24391275616E+03  0.34253223622E+03  0.51315600890E+03  0.16500000000E+03 0.  0.
<mgrwt>
<rscale>  0 0.87301173E+03</rscale>
<asrwt>0</asrwt>
<pdfrwt beam="1">  1        2 0.23665789E+00 0.87301173E+03</pdfrwt>
<pdfrwt beam="2">  1       -2 0.16430966E-01 0.87301173E+03</pdfrwt>
<totfact> 0.36461323E+02</totfact>
</mgrwt>
</event>
<event>
 4    1  0.1049403E-004  0.4722415E+03  0.7818608E-02  0.1021289E+00
         -2   -1    0    0    0  501 -0.00000000000E+00  0.00000000000E+00  0.18547626599E+02  0.18547626775E+02  0.25500000000E-02 0. -1.
          2   -1    0    0  501    0  0.00000000000E+00 -0.00000000000E+00 -0.30059371497E+04  0.30059371497E+04  0.25500000000E-02 0.  1.
    5000001    1    1    2    0    0  0.15832754575E+03 -0.23295050498E+02 -0.18396419143E+04  0.18539465051E+04  0.16500000000E+03 0.  0.
   -5000001    1    1    2    0    0 -0.15832754575E+03  0.23295050498E+02 -0.11477476088E+04  0.11705382713E+04  0.16500000000E+03 0.  0.
<mgrwt>
<rscale>  0 0.47224146E+03</rscale>
<asrwt>0</asrwt>
<pdfrwt beam="1">  1        2 0.42941928E+00 0.47224146E+03</pdfrwt>
<pdfrwt beam="2">  1       -2 0.26496629E-02 0.47224146E+03</pdfrwt>
<totfact> 0.13723360E+03</totfact>
</mgrwt>
</event>
<event>
 4    1  0.1049403E-004  0.4328741E+03  0.7818608E-02  0.1032956E+00
          2   -1    0    0  501    0  0.00000000000E+00  0.00000000000E+00  0.15446561122E+04  0.15446561122E+04  0.25500000000E-02 0.  1.
         -2   -1    0    0    0  501 -0.00000000000E+00 -0.00000000000E+00 -0.30327130013E+02  0.30327130120E+02  0.25500000000E-02 0. -1.
    5000001    1    1    2    0    0  0.34394798188E+02  0.12647952408E+03  0.57744230175E+03  0.61469072223E+03  0.16500000000E+03 0.  0.
   -5000001    1    1    2    0    0 -0.34394798188E+02 -0.12647952408E+03  0.93688668049E+03  0.96029252014E+03  0.16500000000E+03 0.  0.
<mgrwt>
<rscale>  0 0.43287405E+03</rscale>
<asrwt>0</asrwt>
<pdfrwt beam="1">  1        2 0.22066514E+00 0.43287405E+03</pdfrwt>
<pdfrwt beam="2">  1       -2 0.43324475E-02 0.43287405E+03</pdfrwt>
<totfact> 0.36117334E+03</totfact>
</mgrwt>
</event>
<event>
 4    1  0.1049403E-004  0.4356773E+03  0.7818608E-02  0.1032081E+00
         -2   -1    0    0    0  501 -0.00000000000E+00  0.00000000000E+00  0.26745223255E+02  0.26745223376E+02  0.25500000000E-02 0. -1.
          2   -1    0    0  501    0  0.00000000000E+00 -0.00000000000E+00 -0.17742861048E+04  0.17742861048E+04  0.25500000000E-02 0.  1.
    5000001    1    1    2    0    0 -0.26513328709E+02  0.11632538505E+03 -0.55371937614E+03  0.58997008341E+03  0.16500000000E+03 0.  0.
   -5000001    1    1    2    0    0  0.26513328709E+02 -0.11632538505E+03 -0.11938215054E+04  0.12110612447E+04  0.16500000000E+03 0.  0.
<mgrwt>
<rscale>  0 0.43567730E+03</rscale>
<asrwt>0</asrwt>
<pdfrwt beam="1">  1        2 0.25346937E+00 0.43567730E+03</pdfrwt>
<pdfrwt beam="2">  1       -2 0.38207473E-02 0.43567730E+03</pdfrwt>
<totfact> 0.33499899E+03</totfact>
</mgrwt>
</event>
<event>
 4    1  0.1049403E-004  0.1215232E+04  0.7818608E-02  0.9099627E-01
          2   -1    0    0  501    0  0.00000000000E+00  0.00000000000E+00  0.29205751644E+03  0.29205751645E+03  0.25500000000E-02 0.  1.
         -2   -1    0    0    0  501 -0.00000000000E+00 -0.00000000000E+00 -0.12641257207E+04  0.12641257207E+04  0.25500000000E-02 0. -1.
    5000001    1    1    2    0    0 -0.22432755799E+03 -0.47449763786E+03 -0.15580350053E+03  0.57181342445E+03  0.16500000000E+03 0.  0.
   -5000001    1    1    2    0    0  0.22432755799E+03  0.47449763786E+03 -0.81626470375E+03  0.98436981272E+03  0.16500000000E+03 0.  0.
<mgrwt>
<rscale>  0 0.12152324E+04</rscale>
<asrwt>0</asrwt>
<pdfrwt beam="1">  1        2 0.41722503E-01 0.12152324E+04</pdfrwt>
<pdfrwt beam="2">  1       -2 0.18058939E+00 0.12152324E+04</pdfrwt>
<totfact> 0.21763908E+01</totfact>
</mgrwt>
</event>
<event>
 4    1  0.1049403E-004  0.4071673E+03  0.7818608E-02  0.1041326E+00
          2   -1    0    0  501    0  0.00000000000E+00  0.00000000000E+00  0.32842933231E+04  0.32842933231E+04  0.25500000000E-02 0.  1.
         -2   -1    0    0    0  501 -0.00000000000E+00 -0.00000000000E+00 -0.12619550534E+02  0.12619550791E+02  0.25500000000E-02 0. -1.
    5000001    1    1    2    0    0  0.77927427866E+02 -0.82496408953E+02  0.19325705532E+04  0.19429184967E+04  0.16500000000E+03 0.  0.
   -5000001    1    1    2    0    0 -0.77927427866E+02  0.82496408953E+02  0.13391032194E+04  0.13539943773E+04  0.16500000000E+03 0.  0.
<mgrwt>
<rscale>  0 0.40716732E+03</rscale>
<asrwt>0</asrwt>
<pdfrwt beam="1">  1        2 0.46918502E+00 0.40716732E+03</pdfrwt>
<pdfrwt beam="2">  1       -2 0.18027920E-02 0.40716732E+03</pdfrwt>
<totfact> 0.17246552E+03</totfact>
</mgrwt>
</event>
<event>
 4    1  0.1049403E-004  0.4369902E+03  0.7818608E-02  0.1031674E+00
         -2   -1    0    0    0  501 -0.00000000000E+00  0.00000000000E+00  0.23434679086E+02  0.23434679224E+02  0.25500000000E-02 0. -1.
          2   -1    0    0  501    0  0.00000000000E+00 -0.00000000000E+00 -0.20371563393E+04  0.20371563393E+04  0.25500000000E-02 0.  1.
    5000001    1    1    2    0    0 -0.81121884862E+02  0.67656174943E+02 -0.55073135857E+03  0.58454097163E+03  0.16500000000E+03 0.  0.
   -5000001    1    1    2    0    0  0.81121884862E+02 -0.67656174943E+02 -0.14629903016E+04  0.14760500469E+04  0.16500000000E+03 0.  0.
<mgrwt>
<rscale>  0 0.43699018E+03</rscale>
<asrwt>0</asrwt>
<pdfrwt beam="1">  1        2 0.29102222E+00 0.43699018E+03</pdfrwt>
<pdfrwt beam="2">  1       -2 0.33478126E-02 0.43699018E+03</pdfrwt>
<totfact> 0.30295531E+03</totfact>
</mgrwt>
</event>
<event>
 4    1  0.1049403E-004  0.4901430E+03  0.7818608E-02  0.1016384E+00
         -2   -1    0    0    0  501 -0.00000000000E+00  0.00000000000E+00  0.90233352102E+02  0.90233352138E+02  0.25500000000E-02 0. -1.
          2   -1    0    0  501    0  0.00000000000E+00 -0.00000000000E+00 -0.66560792561E+03  0.66560792562E+03  0.25500000000E-02 0.  1.
    5000001    1    1    2    0    0  0.12518445516E+03 -0.68880095988E+02 -0.11583375575E+03  0.24709932094E+03  0.16500000000E+03 0.  0.
   -5000001    1    1    2    0    0 -0.12518445516E+03  0.68880095988E+02 -0.45954081776E+03  0.50874195682E+03  0.16500000000E+03 0.  0.
<mgrwt>
<rscale>  0 0.49014298E+03</rscale>
<asrwt>0</asrwt>
<pdfrwt beam="1">  1        2 0.95086843E-01 0.49014298E+03</pdfrwt>
<pdfrwt beam="2">  1       -2 0.12890479E-01 0.49014298E+03</pdfrwt>
<totfact> 0.21559400E+03</totfact>
</mgrwt>
</event>
<event>
 4    1  0.1049403E-004  0.6350670E+03  0.7818608E-02  0.9835211E-01
          2   -1    0    0  501    0  0.00000000000E+00  0.00000000000E+00  0.43839842074E+03  0.43839842074E+03  0.25500000000E-02 0.  1.
         -2   -1    0    0    0  501 -0.00000000000E+00 -0.00000000000E+00 -0.22999060172E+03  0.22999060173E+03  0.25500000000E-02 0. -1.
    5000001    1    1    2    0    0 -0.26252923980E+03  0.67781520598E+02  0.94410829055E+02  0.33114096836E+03  0.16500000000E+03 0.  0.
   -5000001    1    1    2    0    0  0.26252923980E+03 -0.67781520598E+02  0.11399698997E+03  0.33724805412E+03  0.16500000000E+03 0.  0.
<mgrwt>
<rscale>  0 0.63506698E+03</rscale>
<asrwt>0</asrwt>
<pdfrwt beam="1">  1        2 0.62628345E-01 0.63506698E+03</pdfrwt>
<pdfrwt beam="2">  1       -2 0.32855801E-01 0.63506698E+03</pdfrwt>
<totfact> 0.67721117E+02</totfact>
</mgrwt>
</event>
<event>
 4    1  0.1049403E-004  0.4025518E+03  0.7818608E-02  0.1042900E+00
         -2   -1    0    0    0  501 -0.00000000000E+00  0.00000000000E+00  0.34612575404E+02  0.34612575498E+02  0.25500000000E-02 0. -1.
          2   -1    0    0  501    0  0.00000000000E+00 -0.00000000000E+00 -0.11704411904E+04  0.11704411904E+04  0.25500000000E-02 0.  1.
    5000001    1    1    2    0    0  0.98351590104E+02  0.56694118350E+02 -0.62776452030E+03  0.65893895869E+03  0.16500000000E+03 0.  0.
   -5000001    1    1    2    0    0 -0.98351590104E+02 -0.56694118350E+02 -0.50806409465E+03  0.54611480716E+03  0.16500000000E+03 0.  0.
<mgrwt>
<rscale>  0 0.40255178E+03</rscale>
<asrwt>0</asrwt>
<pdfrwt beam="1">  1        2 0.16720586E+00 0.40255178E+03</pdfrwt>
<pdfrwt beam="2">  1       -2 0.49446544E-02 0.40255178E+03</pdfrwt>
<totfact> 0.46576694E+03</totfact>
</mgrwt>
</event>
<event>
 4    1  0.1049403E-004  0.5468818E+03  0.7818608E-02  0.1002218E+00
          2   -1    0    0  501    0  0.00000000000E+00  0.00000000000E+00  0.31571803430E+04  0.31571803430E+04  0.25500000000E-02 0.  1.
         -2   -1    0    0    0  501 -0.00000000000E+00 -0.00000000000E+00 -0.23682501386E+02  0.23682501523E+02  0.25500000000E-02 0. -1.
    5000001    1    1    2    0    0  0.20955212548E+03 -0.56705022276E+02  0.14479220120E+04  0.14733739192E+04  0.16500000000E+03 0.  0.
   -5000001    1    1    2    0    0 -0.20955212548E+03  0.56705022276E+02  0.16855758295E+04  0.17074889253E+04  0.16500000000E+03 0.  0.
<mgrwt>
<rscale>  0 0.54688181E+03</rscale>
<asrwt>0</asrwt>
<pdfrwt beam="1">  1        2 0.45102596E+00 0.54688181E+03</pdfrwt>
<pdfrwt beam="2">  1       -2 0.33832130E-02 0.54688181E+03</pdfrwt>
<totfact> 0.77752456E+02</totfact>
</mgrwt>
</event>
<event>
 4    1  0.1049403E-004  0.3855560E+03  0.7818608E-02  0.1048899E+00
         -2   -1    0    0    0  501 -0.00000000000E+00  0.00000000000E+00  0.23089471461E+02  0.23089471602E+02  0.25500000000E-02 0. -1.
          2   -1    0    0  501    0  0.00000000000E+00 -0.00000000000E+00 -0.16095368417E+04  0.16095368417E+04  0.25500000000E-02 0.  1.
    5000001    1    1    2    0    0 -0.42569649616E+02 -0.89401488775E+02 -0.74428779356E+03  0.76876142002E+03  0.16500000000E+03 0.  0.
   -5000001    1    1    2    0    0  0.42569649616E+02  0.89401488775E+02 -0.84215957670E+03  0.86386489330E+03  0.16500000000E+03 0.  0.
<mgrwt>
<rscale>  0 0.38555599E+03</rscale>
<asrwt>0</asrwt>
<pdfrwt beam="1">  1        2 0.22993376E+00 0.38555599E+03</pdfrwt>
<pdfrwt beam="2">  1       -2 0.32984970E-02 0.38555599E+03</pdfrwt>
<totfact> 0.50640254E+03</totfact>
</mgrwt>
</event>
<event>
 4    1  0.1049403E-004  0.3957571E+03  0.7818608E-02  0.1045259E+00
         -2   -1    0    0    0  501 -0.00000000000E+00  0.00000000000E+00  0.12515675035E+02  0.12515675295E+02  0.25500000000E-02 0. -1.
          2   -1    0    0  501    0  0.00000000000E+00 -0.00000000000E+00 -0.31285506834E+04  0.31285506834E+04  0.25500000000E-02 0.  1.
    5000001    1    1    2    0    0 -0.60177475870E+02 -0.78346807748E+02 -0.19278589808E+04  0.19374273665E+04  0.16500000000E+03 0.  0.
   -5000001    1    1    2    0    0  0.60177475870E+02  0.78346807748E+02 -0.11881760276E+04  0.12036389922E+04  0.16500000000E+03 0.  0.
<mgrwt>
<rscale>  0 0.39575712E+03</rscale>
<asrwt>0</asrwt>
<pdfrwt beam="1">  1        2 0.44693531E+00 0.39575712E+03</pdfrwt>
<pdfrwt beam="2">  1       -2 0.17879556E-02 0.39575712E+03</pdfrwt>
<totfact> 0.21330518E+03</totfact>
</mgrwt>
</event>
<event>
 4    1  0.1049403E-004  0.4482264E+03  0.7818608E-02  0.1028252E+00
         -2   -1    0    0    0  501 -0.00000000000E+00  0.00000000000E+00  0.53925815245E+03  0.53925815246E+03  0.25500000000E-02 0. -1.
          2   -1    0    0  501    0  0.00000000000E+00 -0.00000000000E+00 -0.93140416021E+02  0.93140416056E+02  0.25500000000E-02 0.  1.
    5000001    1    1    2    0    0  0.12543252409E+03  0.82766837732E+02  0.19421102558E+03  0.29584893102E+03  0.16500000000E+03 0.  0.
   -5000001    1    1    2    0    0 -0.12543252409E+03 -0.82766837732E+02  0.25190671085E+03  0.33654963750E+03  0.16500000000E+03 0.  0.
<mgrwt>
<rscale>  0 0.44822641E+03</rscale>
<asrwt>0</asrwt>
<pdfrwt beam="1">  1        2 0.13305774E-01 0.44822641E+03</pdfrwt>
<pdfrwt beam="2">  1       -2 0.77036880E-01 0.44822641E+03</pdfrwt>
<totfact> 0.70245104E+02</totfact>
</mgrwt>
</event>
<event>
 4    1  0.1049403E-004  0.5625236E+03  0.7818608E-02  0.9986361E-01
          2   -1    0    0  501    0  0.00000000000E+00  0.00000000000E+00  0.14318063698E+04  0.14318063698E+04  0.25500000000E-02 0.  1.
         -2   -1    0    0    0  501 -0.00000000000E+00 -0.00000000000E+00 -0.55250634186E+02  0.55250634245E+02  0.25500000000E-02 0. -1.
    5000001    1    1    2    0    0  0.16039221190E+02 -0.18101993413E+03  0.10512987666E+04  0.10795737908E+04  0.16500000000E+03 0.  0.
   -5000001    1    1    2    0    0 -0.16039221190E+02  0.18101993413E+03  0.32525696901E+03  0.40748321322E+03  0.16500000000E+03 0.  0.
<mgrwt>
<rscale>  0 0.56252364E+03</rscale>
<asrwt>0</asrwt>
<pdfrwt beam="1">  1        2 0.20454375E+00 0.56252364E+03</pdfrwt>
<pdfrwt beam="2">  1       -2 0.78929485E-02 0.56252364E+03</pdfrwt>
<totfact> 0.16196311E+03</totfact>
</mgrwt>
</event>
<event>
 4    1  0.1049403E-004  0.3977762E+03  0.7818608E-02  0.1044552E+00
          2   -1    0    0  501    0  0.00000000000E+00  0.00000000000E+00  0.66481242473E+03  0.66481242474E+03  0.25500000000E-02 0.  1.
         -2   -1    0    0    0  501 -0.00000000000E+00 -0.00000000000E+00 -0.59500192081E+02  0.59500192136E+02  0.25500000000E-02 0. -1.
    5000001    1    1    2    0    0  0.56555386991E+01 -0.59832212070E+02  0.13262230245E+03  0.22005806921E+03  0.16500000000E+03 0.  0.
   -5000001    1    1    2    0    0 -0.56555386991E+01  0.59832212070E+02  0.47268993020E+03  0.50425454766E+03  0.16500000000E+03 0.  0.
<mgrwt>
<rscale>  0 0.39777615E+03</rscale>
<asrwt>0</asrwt>
<pdfrwt beam="1">  1        2 0.94973197E-01 0.39777615E+03</pdfrwt>
<pdfrwt beam="2">  1       -2 0.85000281E-02 0.39777615E+03</pdfrwt>
<totfact> 0.42217534E+03</totfact>
</mgrwt>
</event>
<event>
 4    1  0.1049403E-004  0.4080007E+03  0.7818608E-02  0.1041044E+00
          2   -1    0    0  501    0  0.00000000000E+00  0.00000000000E+00  0.89952625854E+03  0.89952625854E+03  0.25500000000E-02 0.  1.
         -2   -1    0    0    0  501 -0.00000000000E+00 -0.00000000000E+00 -0.46264514138E+02  0.46264514208E+02  0.25500000000E-02 0. -1.
    5000001    1    1    2    0    0  0.11079648329E+03  0.31980216579E+02  0.50325311976E+03  0.54202149174E+03  0.16500000000E+03 0.  0.
   -5000001    1    1    2    0    0 -0.11079648329E+03 -0.31980216579E+02  0.35000862464E+03  0.40376928101E+03  0.16500000000E+03 0.  0.
<mgrwt>
<rscale>  0 0.40800071E+03</rscale>
<asrwt>0</asrwt>
<pdfrwt beam="1">  1        2 0.12850375E+00 0.40800071E+03</pdfrwt>
<pdfrwt beam="2">  1       -2 0.66092165E-02 0.40800071E+03</pdfrwt>
<totfact> 0.43023340E+03</totfact>
</mgrwt>
</event>
<event>
 4    1  0.1049403E-004  0.4961233E+03  0.7818608E-02  0.1014796E+00
          2   -1    0    0  501    0  0.00000000000E+00  0.00000000000E+00  0.25041128510E+03  0.25041128511E+03  0.25500000000E-02 0.  1.
         -2   -1    0    0    0  501 -0.00000000000E+00 -0.00000000000E+00 -0.24573403142E+03  0.24573403143E+03  0.25500000000E-02 0. -1.
    5000001    1    1    2    0    0 -0.95690956398E+02 -0.11222030018E+03 -0.10973517016E+03  0.24701611785E+03  0.16500000000E+03 0.  0.
   -5000001    1    1    2    0    0  0.95690956398E+02  0.11222030018E+03  0.11441242385E+03  0.24912919869E+03  0.16500000000E+03 0.  0.
<mgrwt>
<rscale>  0 0.49612327E+03</rscale>
<asrwt>0</asrwt>
<pdfrwt beam="1">  1        2 0.35773041E-01 0.49612327E+03</pdfrwt>
<pdfrwt beam="2">  1       -2 0.35104861E-01 0.49612327E+03</pdfrwt>
<totfact> 0.11116986E+03</totfact>
</mgrwt>
</event>
<event>
 4    1  0.1049403E-004  0.4923828E+03  0.7818608E-02  0.1015786E+00
         -2   -1    0    0    0  501 -0.00000000000E+00  0.00000000000E+00  0.38126348844E+02  0.38126348929E+02  0.25500000000E-02 0. -1.
          2   -1    0    0  501    0  0.00000000000E+00 -0.00000000000E+00 -0.15897198349E+04  0.15897198349E+04  0.25500000000E-02 0.  1.
    5000001    1    1    2    0    0 -0.34244726595E+01 -0.17951597069E+03 -0.88778880744E+03  0.92066914652E+03  0.16500000000E+03 0.  0.
   -5000001    1    1    2    0    0  0.34244726595E+01  0.17951597069E+03 -0.66380467866E+03  0.70717703735E+03  0.16500000000E+03 0.  0.
<mgrwt>
<rscale>  0 0.49238283E+03</rscale>
<asrwt>0</asrwt>
<pdfrwt beam="1">  1        2 0.22710279E+00 0.49238283E+03</pdfrwt>
<pdfrwt beam="2">  1       -2 0.54466223E-02 0.49238283E+03</pdfrwt>
<totfact> 0.24059429E+03</totfact>
</mgrwt>
</event>
<event>
 4    1  0.1049403E-004  0.5217084E+03  0.7818608E-02  0.1008263E+00
         -2   -1    0    0    0  501 -0.00000000000E+00  0.00000000000E+00  0.23505917687E+02  0.23505917826E+02  0.25500000000E-02 0. -1.
          2   -1    0    0  501    0  0.00000000000E+00 -0.00000000000E+00 -0.28947994273E+04  0.28947994273E+04  0.25500000000E-02 0.  1.
    5000001    1    1    2    0    0 -0.71684718501E+02  0.14035929921E+03 -0.21427744951E+04  0.21548890850E+04  0.16500000000E+03 0.  0.
   -5000001    1    1    2    0    0  0.71684718501E+02 -0.14035929921E+03 -0.72851901451E+03  0.76341626014E+03  0.16500000000E+03 0.  0.
<mgrwt>
<rscale>  0 0.52170841E+03</rscale>
<asrwt>0</asrwt>
<pdfrwt beam="1">  1        2 0.41354255E+00 0.52170841E+03</pdfrwt>
<pdfrwt beam="2">  1       -2 0.33579901E-02 0.52170841E+03</pdfrwt>
<totfact> 0.10953034E+03</totfact>
</mgrwt>
</event>
<event>
 4    1  0.1049403E-004  0.4880151E+03  0.7818608E-02  0.1016955E+00
          2   -1    0    0  501    0  0.00000000000E+00  0.00000000000E+00  0.19260304464E+03  0.19260304465E+03  0.25500000000E-02 0.  1.
         -2   -1    0    0    0  501 -0.00000000000E+00 -0.00000000000E+00 -0.30913155531E+03  0.30913155532E+03  0.25500000000E-02 0. -1.
    5000001    1    1    2    0    0  0.32753251199E+02 -0.16681904664E+03 -0.11833024167E+03  0.26481770311E+03  0.16500000000E+03 0.  0.
   -5000001    1    1    2    0    0 -0.32753251199E+02  0.16681904664E+03  0.18017309953E+01  0.23691689687E+03  0.16500000000E+03 0.  0.
<mgrwt>
<rscale>  0 0.48801508E+03</rscale>
<asrwt>0</asrwt>
<pdfrwt beam="1">  1        2 0.27514721E-01 0.48801508E+03</pdfrwt>
<pdfrwt beam="2">  1       -2 0.44161651E-01 0.48801508E+03</pdfrwt>
<totfact> 0.95673764E+02</totfact>
</mgrwt>
</event>
<event>
 4    1  0.1049403E-004  0.3919340E+03  0.7818608E-02  0.1046609E+00
          2   -1    0    0  501    0  0.00000000000E+00  0.00000000000E+00  0.69128895921E+02  0.69128895968E+02  0.25500000000E-02 0.  1.
         -2   -1    0    0    0  501 -0.00000000000E+00 -0.00000000000E+00 -0.55552833538E+03  0.55552833538E+03  0.25500000000E-02 0. -1.
    5000001    1    1    2    0    0  0.10364970329E+02  0.90022921855E+02 -0.33000599840E+03  0.37992172621E+03  0.16500000000E+03 0.  0.
   -5000001    1    1    2    0    0 -0.10364970329E+02 -0.90022921855E+02 -0.15639344106E+03  0.24473550514E+03  0.16500000000E+03 0.  0.
<mgrwt>
<rscale>  0 0.39193398E+03</rscale>
<asrwt>0</asrwt>
<pdfrwt beam="1">  1        2 0.98755569E-02 0.39193398E+03</pdfrwt>
<pdfrwt beam="2">  1       -2 0.79361188E-01 0.39193398E+03</pdfrwt>
<totfact> 0.95090369E+02</totfact>
</mgrwt>
</event>
<event>
 4    1  0.1049403E-004  0.5593908E+03  0.7818608E-02  0.9993434E-01
         -2   -1    0    0    0  501 -0.00000000000E+00  0.00000000000E+00  0.16870013344E+03  0.16870013346E+03  0.25500000000E-02 0. -1.
          2   -1    0    0  501    0  0.00000000000E+00 -0.00000000000E+00 -0.46371939119E+03  0.46371939120E+03  0.25500000000E-02 0.  1.
    5000001    1    1    2    0    0 -0.10636907856E+03 -0.14821954718E+03 -0.29800923733E+03  0.38641677057E+03  0.16500000000E+03 0.  0.
   -5000001    1    1    2    0    0  0.10636907856E+03  0.14821954718E+03  0.29899795770E+01  0.24600275409E+03  0.16500000000E+03 0.  0.
<mgrwt>
<rscale>  0 0.55939082E+03</rscale>
<asrwt>0</asrwt>
<pdfrwt beam="1">  1        2 0.66245627E-01 0.55939082E+03</pdfrwt>
<pdfrwt beam="2">  1       -2 0.24100019E-01 0.55939082E+03</pdfrwt>
<totfact> 0.11217189E+03</totfact>
</mgrwt>
</event>
<event>
 4    1  0.1049403E-004  0.9073127E+03  0.7818608E-02  0.9416486E-01
          2   -1    0    0  501    0  0.00000000000E+00  0.00000000000E+00  0.83500946864E+03  0.83500946865E+03  0.25500000000E-02 0.  1.
         -2   -1    0    0    0  501 -0.00000000000E+00 -0.00000000000E+00 -0.24646917327E+03  0.24646917328E+03  0.25500000000E-02 0. -1.
    5000001    1    1    2    0    0  0.22523636619E+03  0.35755328389E+03  0.29644263280E+03  0.54192158659E+03  0.16500000000E+03 0.  0.
   -5000001    1    1    2    0    0 -0.22523636619E+03 -0.35755328389E+03  0.29209766258E+03  0.53955705533E+03  0.16500000000E+03 0.  0.
<mgrwt>
<rscale>  0 0.90731272E+03</rscale>
<asrwt>0</asrwt>
<pdfrwt beam="1">  1        2 0.11928707E+00 0.90731272E+03</pdfrwt>
<pdfrwt beam="2">  1       -2 0.35209882E-01 0.90731272E+03</pdfrwt>
<totfact> 0.27227291E+02</totfact>
</mgrwt>
</event>
<event>
 4    1  0.1049403E-004  0.6239090E+03  0.7818608E-02  0.9857008E-01
         -2   -1    0    0    0  501 -0.00000000000E+00  0.00000000000E+00  0.29221683812E+03  0.29221683814E+03  0.25500000000E-02 0. -1.
          2   -1    0    0  501    0  0.00000000000E+00 -0.00000000000E+00 -0.33302528400E+03  0.33302528401E+03  0.25500000000E-02 0.  1.
    5000001    1    1    2    0    0  0.24409169166E+03  0.98243712950E+02  0.89502514831E+01  0.31070514652E+03  0.16500000000E+03 0.  0.
   -5000001    1    1    2    0    0 -0.24409169166E+03 -0.98243712950E+02 -0.49758697362E+02  0.31453697563E+03  0.16500000000E+03 0.  0.
<mgrwt>
<rscale>  0 0.62390895E+03</rscale>
<asrwt>0</asrwt>
<pdfrwt beam="1">  1        2 0.47575040E-01 0.62390895E+03</pdfrwt>
<pdfrwt beam="2">  1       -2 0.41745263E-01 0.62390895E+03</pdfrwt>
<totfact> 0.58107150E+02</totfact>
</mgrwt>
</event>
<event>
 4    1  0.1049403E-004  0.6387419E+03  0.7818608E-02  0.9828137E-01
         -2   -1    0    0    0  501 -0.00000000000E+00  0.00000000000E+00  0.90406173745E+02  0.90406173781E+02  0.25500000000E-02 0. -1.
          2   -1    0    0  501    0  0.00000000000E+00 -0.00000000000E+00 -0.11282171811E+04  0.11282171811E+04  0.25500000000E-02 0.  1.
    5000001    1    1    2    0    0 -0.11255490024E+03  0.24906412752E+03 -0.53500998298E+03  0.62302666642E+03  0.16500000000E+03 0.  0.
   -5000001    1    1    2    0    0  0.11255490024E+03 -0.24906412752E+03 -0.50280102436E+03  0.59559668844E+03  0.16500000000E+03 0.  0.
<mgrwt>
<rscale>  0 0.63874188E+03</rscale>
<asrwt>0</asrwt>
<pdfrwt beam="1">  1        2 0.16117387E+00 0.63874188E+03</pdfrwt>
<pdfrwt beam="2">  1       -2 0.12915168E-01 0.63874188E+03</pdfrwt>
<totfact> 0.10662068E+03</totfact>
</mgrwt>
</event>
<event>
 4    1  0.1049403E-004  0.8743773E+03  0.7818608E-02  0.9458190E-01
         -2   -1    0    0    0  501 -0.00000000000E+00  0.00000000000E+00  0.10330816084E+03  0.10330816087E+03  0.25500000000E-02 0. -1.
          2   -1    0    0  501    0  0.00000000000E+00 -0.00000000000E+00 -0.18501337627E+04  0.18501337627E+04  0.25500000000E-02 0.  1.
    5000001    1    1    2    0    0  0.82268333860E+02 -0.39619443889E+03 -0.84421494921E+03  0.95061137834E+03  0.16500000000E+03 0.  0.
   -5000001    1    1    2    0    0 -0.82268333860E+02  0.39619443889E+03 -0.90261065265E+03  0.10028305452E+04  0.16500000000E+03 0.  0.
<mgrwt>
<rscale>  0 0.87437730E+03</rscale>
<asrwt>0</asrwt>
<pdfrwt beam="1">  1        2 0.26430480E+00 0.87437730E+03</pdfrwt>
<pdfrwt beam="2">  1       -2 0.14758310E-01 0.87437730E+03</pdfrwt>
<totfact> 0.34820448E+02</totfact>
</mgrwt>
</event>
<event>
 4    1  0.1049403E-004  0.5883581E+03  0.7818608E-02  0.9929858E-01
          2   -1    0    0  501    0  0.00000000000E+00  0.00000000000E+00  0.11735907202E+04  0.11735907202E+04  0.25500000000E-02 0.  1.
         -2   -1    0    0    0  501 -0.00000000000E+00 -0.00000000000E+00 -0.73740630645E+02  0.73740630689E+02  0.25500000000E-02 0. -1.
    5000001    1    1    2    0    0 -0.15028532084E+03  0.10315953341E+03  0.20749903534E+03  0.32172723954E+03  0.16500000000E+03 0.  0.
   -5000001    1    1    2    0    0  0.15028532084E+03 -0.10315953341E+03  0.89235105422E+03  0.92560411136E+03  0.16500000000E+03 0.  0.
<mgrwt>
<rscale>  0 0.58835812E+03</rscale>
<asrwt>0</asrwt>
<pdfrwt beam="1">  1        2 0.16765580E+00 0.58835812E+03</pdfrwt>
<pdfrwt beam="2">  1       -2 0.10534377E-01 0.58835812E+03</pdfrwt>
<totfact> 0.14057798E+03</totfact>
</mgrwt>
</event>
<event>
 4    1  0.1049403E-004  0.7921144E+03  0.7818608E-02  0.9571502E-01
          2   -1    0    0  501    0  0.00000000000E+00  0.00000000000E+00  0.44595556171E+03  0.44595556171E+03  0.25500000000E-02 0.  1.
         -2   -1    0    0    0  501 -0.00000000000E+00 -0.00000000000E+00 -0.35174205009E+03  0.35174205010E+03  0.25500000000E-02 0. -1.
    5000001    1    1    2    0    0  0.32112436609E+03 -0.12124716981E+02  0.21063497641E+03  0.41816260061E+03  0.16500000000E+03 0.  0.
   -5000001    1    1    2    0    0 -0.32112436609E+03  0.12124716981E+02 -0.11642146480E+03  0.37953501120E+03  0.16500000000E+03 0.  0.
<mgrwt>
<rscale>  0 0.79211445E+03</rscale>
<asrwt>0</asrwt>
<pdfrwt beam="1">  1        2 0.63707938E-01 0.79211445E+03</pdfrwt>
<pdfrwt beam="2">  1       -2 0.50248864E-01 0.79211445E+03</pdfrwt>
<totfact> 0.28844570E+02</totfact>
</mgrwt>
</event>
<event>
 4    1  0.1049403E-004  0.4927452E+03  0.7818608E-02  0.1015690E+00
         -2   -1    0    0    0  501 -0.00000000000E+00  0.00000000000E+00  0.21502876285E+02  0.21502876437E+02  0.25500000000E-02 0. -1.
          2   -1    0    0  501    0  0.00000000000E+00 -0.00000000000E+00 -0.28228533665E+04  0.28228533665E+04  0.25500000000E-02 0.  1.
    5000001    1    1    2    0    0 -0.15077176353E+03 -0.10337677428E+03 -0.14437120013E+04  0.14645641757E+04  0.16500000000E+03 0.  0.
   -5000001    1    1    2    0    0  0.15077176353E+03  0.10337677428E+03 -0.13576384889E+04  0.13797920672E+04  0.16500000000E+03 0.  0.
<mgrwt>
<rscale>  0 0.49274524E+03</rscale>
<asrwt>0</asrwt>
<pdfrwt beam="1">  1        2 0.40326453E+00 0.49274524E+03</pdfrwt>
<pdfrwt beam="2">  1       -2 0.30718413E-02 0.49274524E+03</pdfrwt>
<totfact> 0.13723631E+03</totfact>
</mgrwt>
</event>
<event>
 4    1  0.1049403E-004  0.4308708E+03  0.7818608E-02  0.1033585E+00
          2   -1    0    0  501    0  0.00000000000E+00  0.00000000000E+00  0.18028835538E+04  0.18028835538E+04  0.25500000000E-02 0.  1.
         -2   -1    0    0    0  501 -0.00000000000E+00 -0.00000000000E+00 -0.25743433329E+02  0.25743433456E+02  0.25500000000E-02 0. -1.
    5000001    1    1    2    0    0  0.91837774211E+01 -0.86764245620E+02  0.13451735675E+04  0.13580608612E+04  0.16500000000E+03 0.  0.
   -5000001    1    1    2    0    0 -0.91837774211E+01  0.86764245620E+02  0.43196655298E+03  0.47056612604E+03  0.16500000000E+03 0.  0.
<mgrwt>
<rscale>  0 0.43087081E+03</rscale>
<asrwt>0</asrwt>
<pdfrwt beam="1">  1        2 0.25755478E+00 0.43087081E+03</pdfrwt>
<pdfrwt beam="2">  1       -2 0.36776335E-02 0.43087081E+03</pdfrwt>
<totfact> 0.34355869E+03</totfact>
</mgrwt>
</event>
<event>
 4    1  0.1049403E-004  0.1124431E+04  0.7818608E-02  0.9181702E-01
         -2   -1    0    0    0  501 -0.00000000000E+00  0.00000000000E+00  0.13271544278E+03  0.13271544281E+03  0.25500000000E-02 0. -1.
          2   -1    0    0  501    0  0.00000000000E+00 -0.00000000000E+00 -0.23816839450E+04  0.23816839450E+04  0.25500000000E-02 0.  1.
    5000001    1    1    2    0    0  0.25050809229E+02  0.49311140103E+03 -0.64973030770E+03  0.83256283223E+03  0.16500000000E+03 0.  0.
   -5000001    1    1    2    0    0 -0.25050809229E+02 -0.49311140103E+03 -0.15992381945E+04  0.16818365556E+04  0.16500000000E+03 0.  0.
<mgrwt>
<rscale>  0 0.11244309E+04</rscale>
<asrwt>0</asrwt>
<pdfrwt beam="1">  1        2 0.34024054E+00 0.11244309E+04</pdfrwt>
<pdfrwt beam="2">  1       -2 0.18959350E-01 0.11244309E+04</pdfrwt>
<totfact> 0.11892183E+02</totfact>
</mgrwt>
</event>
<event>
 4    1  0.1049403E-004  0.3802625E+03  0.7818608E-02  0.1050837E+00
         -2   -1    0    0    0  501 -0.00000000000E+00  0.00000000000E+00  0.19254110601E+02  0.19254110770E+02  0.25500000000E-02 0. -1.
          2   -1    0    0  501    0  0.00000000000E+00 -0.00000000000E+00 -0.18775158364E+04  0.18775158364E+04  0.25500000000E-02 0.  1.
    5000001    1    1    2    0    0 -0.57034117253E+02 -0.73548185397E+02 -0.10099729857E+04  0.10275858397E+04  0.16500000000E+03 0.  0.
   -5000001    1    1    2    0    0  0.57034117253E+02  0.73548185397E+02 -0.84828874012E+03  0.86918410749E+03  0.16500000000E+03 0.  0.
<mgrwt>
<rscale>  0 0.38026253E+03</rscale>
<asrwt>0</asrwt>
<pdfrwt beam="1">  1        2 0.26821643E+00 0.38026253E+03</pdfrwt>
<pdfrwt beam="2">  1       -2 0.27505884E-02 0.38026253E+03</pdfrwt>
<totfact> 0.48913006E+03</totfact>
</mgrwt>
</event>
<event>
 4    1  0.1049403E-004  0.8443918E+03  0.7818608E-02  0.9497895E-01
         -2   -1    0    0    0  501 -0.00000000000E+00  0.00000000000E+00  0.18007390848E+03  0.18007390850E+03  0.25500000000E-02 0. -1.
          2   -1    0    0  501    0  0.00000000000E+00 -0.00000000000E+00 -0.98986780399E+03  0.98986780399E+03  0.25500000000E-02 0.  1.
    5000001    1    1    2    0    0  0.60824191511E+02 -0.25530069039E+03 -0.77837298095E+01  0.31010258179E+03  0.16500000000E+03 0.  0.
   -5000001    1    1    2    0    0 -0.60824191511E+02  0.25530069039E+03 -0.80201016570E+03  0.85983913069E+03  0.16500000000E+03 0.  0.
<mgrwt>
<rscale>  0 0.84439177E+03</rscale>
<asrwt>0</asrwt>
<pdfrwt beam="1">  1        2 0.14140968E+00 0.84439177E+03</pdfrwt>
<pdfrwt beam="2">  1       -2 0.25724845E-01 0.84439177E+03</pdfrwt>
<totfact> 0.38831331E+02</totfact>
</mgrwt>
</event>
<event>
 4    1  0.1049403E-004  0.5919298E+03  0.7818608E-02  0.9922292E-01
          2   -1    0    0  501    0  0.00000000000E+00  0.00000000000E+00  0.35109187276E+03  0.35109187276E+03  0.25500000000E-02 0.  1.
         -2   -1    0    0    0  501 -0.00000000000E+00 -0.00000000000E+00 -0.24949369662E+03  0.24949369664E+03  0.25500000000E-02 0. -1.
    5000001    1    1    2    0    0  0.70684032162E+02 -0.19038329207E+03 -0.89528006267E+02  0.27655432415E+03  0.16500000000E+03 0.  0.
   -5000001    1    1    2    0    0 -0.70684032162E+02  0.19038329207E+03  0.19112618240E+03  0.32403124525E+03  0.16500000000E+03 0.  0.
<mgrwt>
<rscale>  0 0.59192976E+03</rscale>
<asrwt>0</asrwt>
<pdfrwt beam="1">  1        2 0.50155981E-01 0.59192976E+03</pdfrwt>
<pdfrwt beam="2">  1       -2 0.35641957E-01 0.59192976E+03</pdfrwt>
<totfact> 0.74387445E+02</totfact>
</mgrwt>
</event>
<event>
 4    1  0.1049403E-004  0.6175203E+03  0.7818608E-02  0.9869709E-01
          2   -1    0    0  501    0  0.00000000000E+00  0.00000000000E+00  0.11706954579E+04  0.11706954579E+04  0.25500000000E-02 0.  1.
         -2   -1    0    0    0  501 -0.00000000000E+00 -0.00000000000E+00 -0.81432653410E+02  0.81432653450E+02  0.25500000000E-02 0. -1.
    5000001    1    1    2    0    0  0.12661769380E+03  0.22780377076E+03  0.57192894208E+03  0.64981098263E+03  0.16500000000E+03 0.  0.
   -5000001    1    1    2    0    0 -0.12661769380E+03 -0.22780377076E+03  0.51733386240E+03  0.60231712872E+03  0.16500000000E+03 0.  0.
<mgrwt>
<rscale>  0 0.61752032E+03</rscale>
<asrwt>0</asrwt>
<pdfrwt beam="1">  1        2 0.16724222E+00 0.61752032E+03</pdfrwt>
<pdfrwt beam="2">  1       -2 0.11633236E-01 0.61752032E+03</pdfrwt>
<totfact> 0.11988973E+03</totfact>
</mgrwt>
</event>
<event>
 4    1  0.1049403E-004  0.4912486E+03  0.7818608E-02  0.1016089E+00
          2   -1    0    0  501    0  0.00000000000E+00  0.00000000000E+00  0.27704816888E+03  0.27704816890E+03  0.25500000000E-02 0.  1.
         -2   -1    0    0    0  501 -0.00000000000E+00 -0.00000000000E+00 -0.21776462813E+03  0.21776462814E+03  0.25500000000E-02 0. -1.
    5000001    1    1    2    0    0 -0.18041849452E+03 -0.17134759152E+02  0.13342325187E+02  0.24545356135E+03  0.16500000000E+03 0.  0.
   -5000001    1    1    2    0    0  0.18041849452E+03  0.17134759152E+02  0.45941215568E+02  0.24935923569E+03  0.16500000000E+03 0.  0.
<mgrwt>
<rscale>  0 0.49124858E+03</rscale>
<asrwt>0</asrwt>
<pdfrwt beam="1">  1        2 0.39578310E-01 0.49124858E+03</pdfrwt>
<pdfrwt beam="2">  1       -2 0.31109233E-01 0.49124858E+03</pdfrwt>
<totfact> 0.12464476E+03</totfact>
</mgrwt>
</event>
<event>
 4    1  0.1049403E-004  0.4980390E+03  0.7818608E-02  0.1014292E+00
          2   -1    0    0  501    0  0.00000000000E+00  0.00000000000E+00  0.52108793379E+03  0.52108793380E+03  0.25500000000E-02 0.  1.
         -2   -1    0    0    0  501 -0.00000000000E+00 -0.00000000000E+00 -0.11900240278E+03  0.11900240281E+03  0.25500000000E-02 0. -1.
    5000001    1    1    2    0    0  0.10515317488E+03  0.14696934841E+03  0.26033781908E+03  0.35729254065E+03  0.16500000000E+03 0.  0.
   -5000001    1    1    2    0    0 -0.10515317488E+03 -0.14696934841E+03  0.14174771193E+03  0.28279779596E+03  0.16500000000E+03 0.  0.
<mgrwt>
<rscale>  0 0.49803902E+03</rscale>
<asrwt>0</asrwt>
<pdfrwt beam="1">  1        2 0.74441132E-01 0.49803902E+03</pdfrwt>
<pdfrwt beam="2">  1       -2 0.17000344E-01 0.49803902E+03</pdfrwt>
<totfact> 0.18044179E+03</totfact>
</mgrwt>
</event>
<event>
 4    1  0.1049403E-004  0.4411621E+03  0.7818608E-02  0.1030391E+00
          2   -1    0    0  501    0  0.00000000000E+00  0.00000000000E+00  0.21411719035E+03  0.21411719037E+03  0.25500000000E-02 0.  1.
         -2   -1    0    0    0  501 -0.00000000000E+00 -0.00000000000E+00 -0.22724007825E+03  0.22724007827E+03  0.25500000000E-02 0. -1.
    5000001    1    1    2    0    0 -0.70315835001E+01 -0.11287945113E+03  0.86430159092E+02  0.21791371241E+03  0.16500000000E+03 0.  0.
   -5000001    1    1    2    0    0  0.70315835001E+01  0.11287945113E+03 -0.99553046988E+02  0.22344355623E+03  0.16500000000E+03 0.  0.
<mgrwt>
<rscale>  0 0.44116213E+03</rscale>
<asrwt>0</asrwt>
<pdfrwt beam="1">  1        2 0.30588170E-01 0.44116213E+03</pdfrwt>
<pdfrwt beam="2">  1       -2 0.32462868E-01 0.44116213E+03</pdfrwt>
<totfact> 0.15303069E+03</totfact>
</mgrwt>
</event>
<event>
 4    1  0.1049403E-004  0.5674719E+03  0.7818608E-02  0.9975289E-01
          2   -1    0    0  501    0  0.00000000000E+00  0.00000000000E+00  0.17436918601E+04  0.17436918601E+04  0.25500000000E-02 0.  1.
         -2   -1    0    0    0  501 -0.00000000000E+00 -0.00000000000E+00 -0.46169906272E+02  0.46169906342E+02  0.25500000000E-02 0. -1.
    5000001    1    1    2    0    0 -0.46810062652E+02  0.18489324777E+03  0.12588469758E+04  0.12838603520E+04  0.16500000000E+03 0.  0.
   -5000001    1    1    2    0    0  0.46810062652E+02 -0.18489324777E+03  0.43867497800E+03  0.50600141438E+03  0.16500000000E+03 0.  0.
<mgrwt>
<rscale>  0 0.56747190E+03</rscale>
<asrwt>0</asrwt>
<pdfrwt beam="1">  1        2 0.24909879E+00 0.56747190E+03</pdfrwt>
<pdfrwt beam="2">  1       -2 0.65957023E-02 0.56747190E+03</pdfrwt>
<totfact> 0.14866272E+03</totfact>
</mgrwt>
</event>
<event>
 4    1  0.1049403E-004  0.4031269E+03  0.7818608E-02  0.1042702E+00
          2   -1    0    0  501    0  0.00000000000E+00  0.00000000000E+00  0.12803310346E+04  0.12803310346E+04  0.25500000000E-02 0.  1.
         -2   -1    0    0    0  501 -0.00000000000E+00 -0.00000000000E+00 -0.31732283353E+02  0.31732283455E+02  0.25500000000E-02 0. -1.
    5000001    1    1    2    0    0  0.23811307210E+02 -0.79175739994E+02  0.36054589642E+03  0.40503594850E+03  0.16500000000E+03 0.  0.
   -5000001    1    1    2    0    0 -0.23811307210E+02  0.79175739994E+02  0.88805285484E+03  0.90702736956E+03  0.16500000000E+03 0.  0.
<mgrwt>
<rscale>  0 0.40312691E+03</rscale>
<asrwt>0</asrwt>
<pdfrwt beam="1">  1        2 0.18290439E+00 0.40312691E+03</pdfrwt>
<pdfrwt beam="2">  1       -2 0.45331843E-02 0.40312691E+03</pdfrwt>
<totfact> 0.46326774E+03</totfact>
</mgrwt>
</event>
<event>
 4    1  0.1049403E-004  0.5743070E+03  0.7818608E-02  0.9960193E-01
         -2   -1    0    0    0  501 -0.00000000000E+00  0.00000000000E+00  0.60269935283E+02  0.60269935337E+02  0.25500000000E-02 0. -1.
          2   -1    0    0  501    0  0.00000000000E+00 -0.00000000000E+00 -0.13681305358E+04  0.13681305358E+04  0.25500000000E-02 0.  1.
    5000001    1    1    2    0    0  0.67074388562E+02 -0.20866205966E+03 -0.44298480702E+03  0.52105601234E+03  0.16500000000E+03 0.  0.
   -5000001    1    1    2    0    0 -0.67074388562E+02  0.20866205966E+03 -0.86487579352E+03  0.90734445883E+03  0.16500000000E+03 0.  0.
<mgrwt>
<rscale>  0 0.57430702E+03</rscale>
<asrwt>0</asrwt>
<pdfrwt beam="1">  1        2 0.19544720E+00 0.57430702E+03</pdfrwt>
<pdfrwt beam="2">  1       -2 0.86099916E-02 0.57430702E+03</pdfrwt>
<totfact> 0.15232803E+03</totfact>
</mgrwt>
</event>
<event>
 4    1  0.1049403E-004  0.6546365E+03  0.7818608E-02  0.9798118E-01
          2   -1    0    0  501    0  0.00000000000E+00  0.00000000000E+00  0.41835347823E+03  0.41835347824E+03  0.25500000000E-02 0.  1.
         -2   -1    0    0    0  501 -0.00000000000E+00 -0.00000000000E+00 -0.25609261539E+03  0.25609261540E+03  0.25500000000E-02 0. -1.
    5000001    1    1    2    0    0 -0.18433314998E+02 -0.37609201641E+02  0.36915778847E+03  0.40651778797E+03  0.16500000000E+03 0.  0.
   -5000001    1    1    2    0    0  0.18433314998E+02  0.37609201641E+02 -0.20689692562E+03  0.26792830567E+03  0.16500000000E+03 0.  0.
<mgrwt>
<rscale>  0 0.65463650E+03</rscale>
<asrwt>0</asrwt>
<pdfrwt beam="1">  1        2 0.59764782E-01 0.65463650E+03</pdfrwt>
<pdfrwt beam="2">  1       -2 0.36584660E-01 0.65463650E+03</pdfrwt>
<totfact> 0.58190678E+02</totfact>
</mgrwt>
</event>
<event>
 4    1  0.1049403E-004  0.4559686E+03  0.7818608E-02  0.1025957E+00
         -2   -1    0    0    0  501 -0.00000000000E+00  0.00000000000E+00  0.48426650122E+02  0.48426650189E+02  0.25500000000E-02 0. -1.
          2   -1    0    0  501    0  0.00000000000E+00 -0.00000000000E+00 -0.10733108119E+04  0.10733108119E+04  0.25500000000E-02 0.  1.
    5000001    1    1    2    0    0  0.78083133315E+02  0.13159564260E+03 -0.42247235575E+03  0.47866719151E+03  0.16500000000E+03 0.  0.
   -5000001    1    1    2    0    0 -0.78083133315E+02 -0.13159564260E+03 -0.60241180604E+03  0.64307027059E+03  0.16500000000E+03 0.  0.
<mgrwt>
<rscale>  0 0.45596863E+03</rscale>
<asrwt>0</asrwt>
<pdfrwt beam="1">  1        2 0.15333010E+00 0.45596863E+03</pdfrwt>
<pdfrwt beam="2">  1       -2 0.69180935E-02 0.45596863E+03</pdfrwt>
<totfact> 0.31445548E+03</totfact>
</mgrwt>
</event>
<event>
 4    1  0.1049403E-004  0.7443847E+03  0.7818608E-02  0.9644201E-01
         -2   -1    0    0    0  501 -0.00000000000E+00  0.00000000000E+00  0.55720056549E+03  0.55720056550E+03  0.25500000000E-02 0. -1.
          2   -1    0    0  501    0  0.00000000000E+00 -0.00000000000E+00 -0.24861272737E+03  0.24861272738E+03  0.25500000000E-02 0.  1.
    5000001    1    1    2    0    0  0.26752118854E+03  0.16750187564E+03  0.37312898668E+02  0.35810852694E+03  0.16500000000E+03 0.  0.
   -5000001    1    1    2    0    0 -0.26752118854E+03 -0.16750187564E+03  0.27127493946E+03  0.44770476593E+03  0.16500000000E+03 0.  0.
<mgrwt>
<rscale>  0 0.74438472E+03</rscale>
<asrwt>0</asrwt>
<pdfrwt beam="1">  1        2 0.35516104E-01 0.74438472E+03</pdfrwt>
<pdfrwt beam="2">  1       -2 0.79600080E-01 0.74438472E+03</pdfrwt>
<totfact> 0.20747711E+02</totfact>
</mgrwt>
</event>
<event>
 4    1  0.1049403E-004  0.5712833E+03  0.7818608E-02  0.9966843E-01
          2   -1    0    0  501    0  0.00000000000E+00  0.00000000000E+00  0.77737900316E+03  0.77737900316E+03  0.25500000000E-02 0.  1.
         -2   -1    0    0    0  501 -0.00000000000E+00 -0.00000000000E+00 -0.10495670981E+03  0.10495670984E+03  0.25500000000E-02 0. -1.
    5000001    1    1    2    0    0  0.21470231127E+03  0.28084162927E+01  0.47659049050E+03  0.54815003905E+03  0.16500000000E+03 0.  0.
   -5000001    1    1    2    0    0 -0.21470231127E+03 -0.28084162927E+01  0.19583180285E+03  0.33418567395E+03  0.16500000000E+03 0.  0.
<mgrwt>
<rscale>  0 0.57128327E+03</rscale>
<asrwt>0</asrwt>
<pdfrwt beam="1">  1        2 0.11105415E+00 0.57128327E+03</pdfrwt>
<pdfrwt beam="2">  1       -2 0.14993815E-01 0.57128327E+03</pdfrwt>
<totfact> 0.13847462E+03</totfact>
</mgrwt>
</event>
<event>
 4    1  0.1049403E-004  0.5393392E+03  0.7818608E-02  0.1003992E+00
         -2   -1    0    0    0  501 -0.00000000000E+00  0.00000000000E+00  0.26943017671E+04  0.26943017672E+04  0.25500000000E-02 0. -1.
          2   -1    0    0  501    0  0.00000000000E+00 -0.00000000000E+00 -0.26990920593E+02  0.26990920713E+02  0.25500000000E-02 0.  1.
    5000001    1    1    2    0    0 -0.89384206879E+02 -0.19048483595E+03  0.11572268205E+04  0.11877175267E+04  0.16500000000E+03 0.  0.
   -5000001    1    1    2    0    0  0.89384206879E+02  0.19048483595E+03  0.15100840260E+04  0.15335751611E+04  0.16500000000E+03 0.  0.
<mgrwt>
<rscale>  0 0.53933917E+03</rscale>
<asrwt>0</asrwt>
<pdfrwt beam="1">  1        2 0.38558482E-02 0.53933917E+03</pdfrwt>
<pdfrwt beam="2">  1       -2 0.38490001E+00 0.53933917E+03</pdfrwt>
<totfact> 0.23945851E+01</totfact>
</mgrwt>
</event>
<event>
 4    1  0.1049403E-004  0.5377421E+03  0.7818608E-02  0.1004372E+00
          2   -1    0    0  501    0  0.00000000000E+00  0.00000000000E+00  0.33720803384E+04  0.33720803384E+04  0.25500000000E-02 0.  1.
         -2   -1    0    0    0  501 -0.00000000000E+00 -0.00000000000E+00 -0.21438294689E+02  0.21438294841E+02  0.25500000000E-02 0. -1.
    5000001    1    1    2    0    0  0.38930651155E+02  0.18048393602E+03  0.10141555044E+04  0.10439475245E+04  0.16500000000E+03 0.  0.
   -5000001    1    1    2    0    0 -0.38930651155E+02 -0.18048393602E+03  0.23364865392E+04  0.23495711087E+04  0.16500000000E+03 0.  0.
<mgrwt>
<rscale>  0 0.53774214E+03</rscale>
<asrwt>0</asrwt>
<pdfrwt beam="1">  1        2 0.48172609E+00 0.53774214E+03</pdfrwt>
<pdfrwt beam="2">  1       -2 0.30626114E-02 0.53774214E+03</pdfrwt>
<totfact> 0.68419668E+02</totfact>
</mgrwt>
</event>
<event>
 4    1  0.1049403E-004  0.6609391E+03  0.7818608E-02  0.9786467E-01
          2   -1    0    0  501    0  0.00000000000E+00  0.00000000000E+00  0.69745470348E+03  0.69745470349E+03  0.25500000000E-02 0.  1.
         -2   -1    0    0    0  501 -0.00000000000E+00 -0.00000000000E+00 -0.15658382377E+03  0.15658382379E+03  0.25500000000E-02 0. -1.
    5000001    1    1    2    0    0 -0.27841834486E+03  0.44127521920E+02  0.33531561874E+03  0.46810850998E+03  0.16500000000E+03 0.  0.
   -5000001    1    1    2    0    0  0.27841834486E+03 -0.44127521920E+02  0.20555526097E+03  0.38593001730E+03  0.16500000000E+03 0.  0.
<mgrwt>
<rscale>  0 0.66093910E+03</rscale>
<asrwt>0</asrwt>
<pdfrwt beam="1">  1        2 0.99636384E-01 0.66093910E+03</pdfrwt>
<pdfrwt beam="2">  1       -2 0.22369118E-01 0.66093910E+03</pdfrwt>
<totfact> 0.79390937E+02</totfact>
</mgrwt>
</event>
<event>
 4    1  0.1049403E-004  0.3870290E+03  0.7818608E-02  0.1048366E+00
          2   -1    0    0  501    0  0.00000000000E+00  0.00000000000E+00  0.18782647907E+04  0.18782647907E+04  0.25500000000E-02 0.  1.
         -2   -1    0    0    0  501 -0.00000000000E+00 -0.00000000000E+00 -0.19937476924E+02  0.19937477087E+02  0.25500000000E-02 0. -1.
    5000001    1    1    2    0    0  0.99099912220E+02  0.10196495467E+02  0.84448383431E+03  0.86620015442E+03  0.16500000000E+03 0.  0.
   -5000001    1    1    2    0    0 -0.99099912220E+02 -0.10196495467E+02  0.10138434795E+04  0.10320021134E+04  0.16500000000E+03 0.  0.
<mgrwt>
<rscale>  0 0.38702900E+03</rscale>
<asrwt>0</asrwt>
<pdfrwt beam="1">  1        2 0.26832344E+00 0.38702900E+03</pdfrwt>
<pdfrwt beam="2">  1       -2 0.28482121E-02 0.38702900E+03</pdfrwt>
<totfact> 0.46379701E+03</totfact>
</mgrwt>
</event>
<event>
 4    1  0.1049403E-004  0.3534301E+03  0.7818608E-02  0.1061216E+00
          2   -1    0    0  501    0  0.00000000000E+00  0.00000000000E+00  0.11285216196E+04  0.11285216196E+04  0.25500000000E-02 0.  1.
         -2   -1    0    0    0  501 -0.00000000000E+00 -0.00000000000E+00 -0.27671780710E+02  0.27671780827E+02  0.25500000000E-02 0. -1.
    5000001    1    1    2    0    0 -0.59408206895E+02  0.20704626258E+02  0.57241517007E+03  0.59903434252E+03  0.16500000000E+03 0.  0.
   -5000001    1    1    2    0    0  0.59408206895E+02 -0.20704626258E+02  0.52843466878E+03  0.55715905786E+03  0.16500000000E+03 0.  0.
<mgrwt>
<rscale>  0 0.35343007E+03</rscale>
<asrwt>0</asrwt>
<pdfrwt beam="1">  1        2 0.16121738E+00 0.35343007E+03</pdfrwt>
<pdfrwt beam="2">  1       -2 0.39531114E-02 0.35343007E+03</pdfrwt>
<totfact> 0.69030223E+03</totfact>
</mgrwt>
</event>
<event>
 4    1  0.1049403E-004  0.4131235E+03  0.7818608E-02  0.1039328E+00
          2   -1    0    0  501    0  0.00000000000E+00  0.00000000000E+00  0.10540713194E+04  0.10540713194E+04  0.25500000000E-02 0.  1.
         -2   -1    0    0    0  501 -0.00000000000E+00 -0.00000000000E+00 -0.40479011798E+02  0.40479011879E+02  0.25500000000E-02 0. -1.
    5000001    1    1    2    0    0 -0.96256131397E+02  0.76651772335E+02  0.55284085659E+03  0.58991418847E+03  0.16500000000E+03 0.  0.
   -5000001    1    1    2    0    0  0.96256131397E+02 -0.76651772335E+02  0.46075145105E+03  0.50463614285E+03  0.16500000000E+03 0.  0.
<mgrwt>
<rscale>  0 0.41312354E+03</rscale>
<asrwt>0</asrwt>
<pdfrwt beam="1">  1        2 0.15058161E+00 0.41312354E+03</pdfrwt>
<pdfrwt beam="2">  1       -2 0.57827164E-02 0.41312354E+03</pdfrwt>
<totfact> 0.42642581E+03</totfact>
</mgrwt>
</event>
<event>
 4    1  0.1049403E-004  0.4584673E+03  0.7818608E-02  0.1025227E+00
          2   -1    0    0  501    0  0.00000000000E+00  0.00000000000E+00  0.31734244439E+03  0.31734244440E+03  0.25500000000E-02 0.  1.
         -2   -1    0    0    0  501 -0.00000000000E+00 -0.00000000000E+00 -0.16558789976E+03  0.16558789978E+03  0.25500000000E-02 0. -1.
    5000001    1    1    2    0    0 -0.10235254272E+03  0.22658720086E+02 -0.50233993353E+02  0.20183635621E+03  0.16500000000E+03 0.  0.
   -5000001    1    1    2    0    0  0.10235254272E+03 -0.22658720086E+02  0.20198853798E+03  0.28109398797E+03  0.16500000000E+03 0.  0.
<mgrwt>
<rscale>  0 0.45846731E+03</rscale>
<asrwt>0</asrwt>
<pdfrwt beam="1">  1        2 0.45334636E-01 0.45846731E+03</pdfrwt>
<pdfrwt beam="2">  1       -2 0.23655414E-01 0.45846731E+03</pdfrwt>
<totfact> 0.17623954E+03</totfact>
</mgrwt>
</event>
<event>
 4    1  0.1049403E-004  0.4823580E+03  0.7818608E-02  0.1018489E+00
          2   -1    0    0  501    0  0.00000000000E+00  0.00000000000E+00  0.26821111288E+04  0.26821111288E+04  0.25500000000E-02 0.  1.
         -2   -1    0    0    0  501 -0.00000000000E+00 -0.00000000000E+00 -0.21687133853E+02  0.21687134003E+02  0.25500000000E-02 0. -1.
    5000001    1    1    2    0    0  0.91733063692E+02 -0.14825084923E+03  0.11988697509E+04  0.12226638741E+04  0.16500000000E+03 0.  0.
   -5000001    1    1    2    0    0 -0.91733063692E+02  0.14825084923E+03  0.14615542440E+04  0.14811343887E+04  0.16500000000E+03 0.  0.
<mgrwt>
<rscale>  0 0.48235797E+03</rscale>
<asrwt>0</asrwt>
<pdfrwt beam="1">  1        2 0.38315913E+00 0.48235797E+03</pdfrwt>
<pdfrwt beam="2">  1       -2 0.30981587E-02 0.48235797E+03</pdfrwt>
<totfact> 0.16063040E+03</totfact>
</mgrwt>
</event>
<event>
 4    1  0.1049403E-004  0.3688986E+03  0.7818608E-02  0.1055115E+00
         -2   -1    0    0    0  501 -0.00000000000E+00  0.00000000000E+00  0.56686997911E+02  0.56686997969E+02  0.25500000000E-02 0. -1.
          2   -1    0    0  501    0  0.00000000000E+00 -0.00000000000E+00 -0.60016475039E+03  0.60016475039E+03  0.25500000000E-02 0.  1.
    5000001    1    1    2    0    0 -0.10055588461E+01 -0.67982088939E+02 -0.35475957957E+03  0.39711702918E+03  0.16500000000E+03 0.  0.
   -5000001    1    1    2    0    0  0.10055588461E+01  0.67982088939E+02 -0.18871817290E+03  0.25973471918E+03  0.16500000000E+03 0.  0.
<mgrwt>
<rscale>  0 0.36889857E+03</rscale>
<asrwt>0</asrwt>
<pdfrwt beam="1">  1        2 0.85737818E-01 0.36889857E+03</pdfrwt>
<pdfrwt beam="2">  1       -2 0.80981429E-02 0.36889857E+03</pdfrwt>
<totfact> 0.51299191E+03</totfact>
</mgrwt>
</event>
<event>
 4    1  0.1049403E-004  0.3538285E+03  0.7818608E-02  0.1061055E+00
         -2   -1    0    0    0  501 -0.00000000000E+00  0.00000000000E+00  0.33016747238E+02  0.33016747336E+02  0.25500000000E-02 0. -1.
          2   -1    0    0  501    0  0.00000000000E+00 -0.00000000000E+00 -0.94796283586E+03  0.94796283586E+03  0.25500000000E-02 0.  1.
    5000001    1    1    2    0    0 -0.91469816566E+01 -0.58990295476E+02 -0.39485400548E+03  0.43208588021E+03  0.16500000000E+03 0.  0.
   -5000001    1    1    2    0    0  0.91469816566E+01  0.58990295476E+02 -0.52009208314E+03  0.54889370299E+03  0.16500000000E+03 0.  0.
<mgrwt>
<rscale>  0 0.35382849E+03</rscale>
<asrwt>0</asrwt>
<pdfrwt beam="1">  1        2 0.13542325E+00 0.35382849E+03</pdfrwt>
<pdfrwt beam="2">  1       -2 0.47166788E-02 0.35382849E+03</pdfrwt>
<totfact> 0.67350996E+03</totfact>
</mgrwt>
</event>
<event>
 4    1  0.1049403E-004  0.4907571E+03  0.7818608E-02  0.1016220E+00
          2   -1    0    0  501    0  0.00000000000E+00  0.00000000000E+00  0.44983008563E+03  0.44983008564E+03  0.25500000000E-02 0.  1.
         -2   -1    0    0    0  501 -0.00000000000E+00 -0.00000000000E+00 -0.13385194724E+03  0.13385194727E+03  0.25500000000E-02 0. -1.
    5000001    1    1    2    0    0 -0.11170178600E+03 -0.24409376983E+02 -0.98422133624E+01  0.20098501398E+03  0.16500000000E+03 0.  0.
   -5000001    1    1    2    0    0  0.11170178600E+03  0.24409376983E+02  0.32582035175E+03  0.38269701893E+03  0.16500000000E+03 0.  0.
<mgrwt>
<rscale>  0 0.49075710E+03</rscale>
<asrwt>0</asrwt>
<pdfrwt beam="1">  1        2 0.64261442E-01 0.49075710E+03</pdfrwt>
<pdfrwt beam="2">  1       -2 0.19121706E-01 0.49075710E+03</pdfrwt>
<totfact> 0.17410523E+03</totfact>
</mgrwt>
</event>
<event>
 4    1  0.1049403E-004  0.4205912E+03  0.7818608E-02  0.1036874E+00
          2   -1    0    0  501    0  0.00000000000E+00  0.00000000000E+00  0.62112591750E+03  0.62112591750E+03  0.25500000000E-02 0.  1.
         -2   -1    0    0    0  501 -0.00000000000E+00 -0.00000000000E+00 -0.71200128490E+02  0.71200128536E+02  0.25500000000E-02 0. -1.
    5000001    1    1    2    0    0 -0.47252732193E+02 -0.11066052590E+03  0.19231940076E+03  0.28051795771E+03  0.16500000000E+03 0.  0.
   -5000001    1    1    2    0    0  0.47252732193E+02  0.11066052590E+03  0.35760638825E+03  0.41180808832E+03  0.16500000000E+03 0.  0.
<mgrwt>
<rscale>  0 0.42059123E+03</rscale>
<asrwt>0</asrwt>
<pdfrwt beam="1">  1        2 0.88732273E-01 0.42059123E+03</pdfrwt>
<pdfrwt beam="2">  1       -2 0.10171447E-01 0.42059123E+03</pdfrwt>
<totfact> 0.34370567E+03</totfact>
</mgrwt>
</event>
<event>
 4    1  0.1049403E-004  0.6042093E+03  0.7818608E-02  0.9896711E-01
         -2   -1    0    0    0  501 -0.00000000000E+00  0.00000000000E+00  0.54250301926E+02  0.54250301986E+02  0.25500000000E-02 0. -1.
          2   -1    0    0  501    0  0.00000000000E+00 -0.00000000000E+00 -0.16823359504E+04  0.16823359504E+04  0.25500000000E-02 0.  1.
    5000001    1    1    2    0    0 -0.17502645317E+03  0.17773287111E+03 -0.93662443725E+03  0.98321593215E+03  0.16500000000E+03 0.  0.
   -5000001    1    1    2    0    0  0.17502645317E+03 -0.17773287111E+03 -0.69146121118E+03  0.75337032019E+03  0.16500000000E+03 0.  0.
<mgrwt>
<rscale>  0 0.60420935E+03</rscale>
<asrwt>0</asrwt>
<pdfrwt beam="1">  1        2 0.24033367E+00 0.60420935E+03</pdfrwt>
<pdfrwt beam="2">  1       -2 0.77500443E-02 0.60420935E+03</pdfrwt>
<totfact> 0.12356621E+03</totfact>
</mgrwt>
</event>
<event>
 4    1  0.1049403E-004  0.9296456E+03  0.7818608E-02  0.9389263E-01
         -2   -1    0    0    0  501 -0.00000000000E+00  0.00000000000E+00  0.15691456673E+03  0.15691456675E+03  0.25500000000E-02 0. -1.
          2   -1    0    0  501    0  0.00000000000E+00 -0.00000000000E+00 -0.13769291618E+04  0.13769291618E+04  0.25500000000E-02 0.  1.
    5000001    1    1    2    0    0  0.15766072029E+02  0.36845593913E+03 -0.23078730025E+03  0.46529144207E+03  0.16500000000E+03 0.  0.
   -5000001    1    1    2    0    0 -0.15766072029E+02 -0.36845593913E+03 -0.98922729481E+03  0.10685522865E+04  0.16500000000E+03 0.  0.
<mgrwt>
<rscale>  0 0.92964562E+03</rscale>
<asrwt>0</asrwt>
<pdfrwt beam="1">  1        2 0.19670416E+00 0.92964562E+03</pdfrwt>
<pdfrwt beam="2">  1       -2 0.22416367E-01 0.92964562E+03</pdfrwt>
<totfact> 0.29692534E+02</totfact>
</mgrwt>
</event>
<event>
 4    1  0.1049403E-004  0.4999917E+03  0.7818608E-02  0.1013781E+00
          2   -1    0    0  501    0  0.00000000000E+00  0.00000000000E+00  0.12458077891E+04  0.12458077891E+04  0.25500000000E-02 0.  1.
         -2   -1    0    0    0  501 -0.00000000000E+00 -0.00000000000E+00 -0.50166579259E+02  0.50166579324E+02  0.25500000000E-02 0. -1.
    5000001    1    1    2    0    0 -0.12152845431E+03 -0.14274198911E+03  0.56844125089E+03  0.62088235308E+03  0.16500000000E+03 0.  0.
   -5000001    1    1    2    0    0  0.12152845431E+03  0.14274198911E+03  0.62719995892E+03  0.67509201531E+03  0.16500000000E+03 0.  0.
<mgrwt>
<rscale>  0 0.49999166E+03</rscale>
<asrwt>0</asrwt>
<pdfrwt beam="1">  1        2 0.17797256E+00 0.49999166E+03</pdfrwt>
<pdfrwt beam="2">  1       -2 0.71666535E-02 0.49999166E+03</pdfrwt>
<totfact> 0.23774905E+03</totfact>
</mgrwt>
</event>
<event>
 4    1  0.1049403E-004  0.4657057E+03  0.7818608E-02  0.1023139E+00
         -2   -1    0    0    0  501 -0.00000000000E+00  0.00000000000E+00  0.38411580333E+02  0.38411580417E+02  0.25500000000E-02 0. -1.
          2   -1    0    0  501    0  0.00000000000E+00 -0.00000000000E+00 -0.14115654657E+04  0.14115654657E+04  0.25500000000E-02 0.  1.
    5000001    1    1    2    0    0 -0.11343441159E+03  0.11468737192E+03 -0.58936270760E+03  0.63292492455E+03  0.16500000000E+03 0.  0.
   -5000001    1    1    2    0    0  0.11343441159E+03 -0.11468737192E+03 -0.78379117774E+03  0.81705212154E+03  0.16500000000E+03 0.  0.
<mgrwt>
<rscale>  0 0.46570575E+03</rscale>
<asrwt>0</asrwt>
<pdfrwt beam="1">  1        2 0.20165218E+00 0.46570575E+03</pdfrwt>
<pdfrwt beam="2">  1       -2 0.54873695E-02 0.46570575E+03</pdfrwt>
<totfact> 0.29415285E+03</totfact>
</mgrwt>
</event>
<event>
 4    1  0.1049403E-004  0.9330500E+03  0.7818608E-02  0.9385185E-01
         -2   -1    0    0    0  501 -0.00000000000E+00  0.00000000000E+00  0.55358869901E+02  0.55358869959E+02  0.25500000000E-02 0. -1.
          2   -1    0    0  501    0  0.00000000000E+00 -0.00000000000E+00 -0.39315392180E+04  0.39315392180E+04  0.25500000000E-02 0.  1.
    5000001    1    1    2    0    0 -0.25412416979E+03 -0.31200476454E+03 -0.26593815771E+04  0.26947098990E+04  0.16500000000E+03 0.  0.
   -5000001    1    1    2    0    0  0.25412416979E+03  0.31200476454E+03 -0.12167987710E+04  0.12921881890E+04  0.16500000000E+03 0.  0.
<mgrwt>
<rscale>  0 0.93304998E+03</rscale>
<asrwt>0</asrwt>
<pdfrwt beam="1">  1        2 0.56164828E+00 0.93304998E+03</pdfrwt>
<pdfrwt beam="2">  1       -2 0.79084125E-02 0.93304998E+03</pdfrwt>
<totfact> 0.67204144E+01</totfact>
</mgrwt>
</event>
<event>
 4    1  0.1049403E-004  0.5034400E+03  0.7818608E-02  0.1012885E+00
          2   -1    0    0  501    0  0.00000000000E+00  0.00000000000E+00  0.47212497418E+03  0.47212497419E+03  0.25500000000E-02 0.  1.
         -2   -1    0    0    0  501 -0.00000000000E+00 -0.00000000000E+00 -0.13420801736E+03  0.13420801738E+03  0.25500000000E-02 0. -1.
    5000001    1    1    2    0    0  0.17839536023E+03  0.21898158594E+02  0.94388758133E+02  0.26160785837E+03  0.16500000000E+03 0.  0.
   -5000001    1    1    2    0    0 -0.17839536023E+03 -0.21898158594E+02  0.24352819870E+03  0.34472513320E+03  0.16500000000E+03 0.  0.
<mgrwt>
<rscale>  0 0.50343999E+03</rscale>
<asrwt>0</asrwt>
<pdfrwt beam="1">  1        2 0.67446425E-01 0.50343999E+03</pdfrwt>
<pdfrwt beam="2">  1       -2 0.19172574E-01 0.50343999E+03</pdfrwt>
<totfact> 0.16419432E+03</totfact>
</mgrwt>
</event>
<event>
 4    1  0.1049403E-004  0.6817310E+03  0.7818608E-02  0.9748995E-01
          2   -1    0    0  501    0  0.00000000000E+00  0.00000000000E+00  0.33508936279E+03  0.33508936280E+03  0.25500000000E-02 0.  1.
         -2   -1    0    0    0  501 -0.00000000000E+00 -0.00000000000E+00 -0.34674120545E+03  0.34674120546E+03  0.25500000000E-02 0. -1.
    5000001    1    1    2    0    0 -0.19016333610E+03  0.17386550699E+03 -0.15609093629E+03  0.34348317180E+03  0.16500000000E+03 0.  0.
   -5000001    1    1    2    0    0  0.19016333610E+03 -0.17386550699E+03  0.14443909363E+03  0.33834739645E+03  0.16500000000E+03 0.  0.
<mgrwt>
<rscale>  0 0.68173100E+03</rscale>
<asrwt>0</asrwt>
<pdfrwt beam="1">  1        2 0.47869909E-01 0.68173100E+03</pdfrwt>
<pdfrwt beam="2">  1       -2 0.49534458E-01 0.68173100E+03</pdfrwt>
<totfact> 0.40995641E+02</totfact>
</mgrwt>
</event>
<event>
 4    1  0.1049403E-004  0.5485048E+03  0.7818608E-02  0.1001841E+00
          2   -1    0    0  501    0  0.00000000000E+00  0.00000000000E+00  0.82176851863E+03  0.82176851863E+03  0.25500000000E-02 0.  1.
         -2   -1    0    0    0  501 -0.00000000000E+00 -0.00000000000E+00 -0.91527439104E+02  0.91527439139E+02  0.25500000000E-02 0. -1.
    5000001    1    1    2    0    0  0.14153220286E+03  0.95324753601E+02  0.13638648167E+03  0.27375983175E+03  0.16500000000E+03 0.  0.
   -5000001    1    1    2    0    0 -0.14153220286E+03 -0.95324753601E+02  0.59385459785E+03  0.63953612602E+03  0.16500000000E+03 0.  0.
<mgrwt>
<rscale>  0 0.54850476E+03</rscale>
<asrwt>0</asrwt>
<pdfrwt beam="1">  1        2 0.11739550E+00 0.54850476E+03</pdfrwt>
<pdfrwt beam="2">  1       -2 0.13075349E-01 0.54850476E+03</pdfrwt>
<totfact> 0.16217179E+03</totfact>
</mgrwt>
</event>
<event>
 4    1  0.1049403E-004  0.2976371E+04  0.7818608E-02  0.8250511E-01
          2   -1    0    0  501    0  0.00000000000E+00  0.00000000000E+00  0.91557655186E+03  0.91557655187E+03  0.25500000000E-02 0.  1.
         -2   -1    0    0    0  501 -0.00000000000E+00 -0.00000000000E+00 -0.24189081250E+04  0.24189081250E+04  0.25500000000E-02 0. -1.
    5000001    1    1    2    0    0  0.55198049256E+03  0.72341044033E+03  0.55458269064E+03  0.10783283777E+04  0.16500000000E+03 0.  0.
   -5000001    1    1    2    0    0 -0.55198049256E+03 -0.72341044033E+03 -0.20579142638E+04  0.22561562992E+04  0.16500000000E+03 0.  0.
<mgrwt>
<rscale>  0 0.29763706E+04</rscale>
<asrwt>0</asrwt>
<pdfrwt beam="1">  1        2 0.13079665E+00 0.29763706E+04</pdfrwt>
<pdfrwt beam="2">  1       -2 0.34555830E+00 0.29763706E+04</pdfrwt>
<totfact> 0.45478637E-01</totfact>
</mgrwt>
</event>
<event>
 4    1  0.1049403E-004  0.5113734E+03  0.7818608E-02  0.1010852E+00
         -2   -1    0    0    0  501 -0.00000000000E+00  0.00000000000E+00  0.36204390678E+02  0.36204390768E+02  0.25500000000E-02 0. -1.
          2   -1    0    0  501    0  0.00000000000E+00 -0.00000000000E+00 -0.18057389223E+04  0.18057389223E+04  0.25500000000E-02 0.  1.
    5000001    1    1    2    0    0 -0.35743350114E+02 -0.19172901542E+03 -0.92306927661E+03  0.95776797391E+03  0.16500000000E+03 0.  0.
   -5000001    1    1    2    0    0  0.35743350114E+02  0.19172901542E+03 -0.84646525506E+03  0.88417533920E+03  0.16500000000E+03 0.  0.
<mgrwt>
<rscale>  0 0.51137336E+03</rscale>
<asrwt>0</asrwt>
<pdfrwt beam="1">  1        2 0.25796265E+00 0.51137336E+03</pdfrwt>
<pdfrwt beam="2">  1       -2 0.51720570E-02 0.51137336E+03</pdfrwt>
<totfact> 0.20258444E+03</totfact>
</mgrwt>
</event>
<event>
 4    1  0.1049403E-004  0.6340569E+03  0.7818608E-02  0.9837164E-01
          2   -1    0    0  501    0  0.00000000000E+00  0.00000000000E+00  0.61636887556E+03  0.61636887557E+03  0.25500000000E-02 0.  1.
         -2   -1    0    0    0  501 -0.00000000000E+00 -0.00000000000E+00 -0.16306312174E+03  0.16306312176E+03  0.25500000000E-02 0. -1.
    5000001    1    1    2    0    0  0.41229901812E+02 -0.26696096902E+03  0.24843466588E+03  0.40238395469E+03  0.16500000000E+03 0.  0.
   -5000001    1    1    2    0    0 -0.41229901812E+02  0.26696096902E+03  0.20487108794E+03  0.37704804264E+03  0.16500000000E+03 0.  0.
<mgrwt>
<rscale>  0 0.63405688E+03</rscale>
<asrwt>0</asrwt>
<pdfrwt beam="1">  1        2 0.88052696E-01 0.63405688E+03</pdfrwt>
<pdfrwt beam="2">  1       -2 0.23294732E-01 0.63405688E+03</pdfrwt>
<totfact> 0.85792414E+02</totfact>
</mgrwt>
</event>
<event>
 4    1  0.1049403E-004  0.4565933E+03  0.7818608E-02  0.1025774E+00
          2   -1    0    0  501    0  0.00000000000E+00  0.00000000000E+00  0.68197746942E+03  0.68197746942E+03  0.25500000000E-02 0.  1.
         -2   -1    0    0    0  501 -0.00000000000E+00 -0.00000000000E+00 -0.76423879725E+02  0.76423879768E+02  0.25500000000E-02 0. -1.
    5000001    1    1    2    0    0 -0.11941604731E+03 -0.10215149780E+03  0.27933119411E+03  0.36048028637E+03  0.16500000000E+03 0.  0.
   -5000001    1    1    2    0    0  0.11941604731E+03  0.10215149780E+03  0.32622239558E+03  0.39792106282E+03  0.16500000000E+03 0.  0.
<mgrwt>
<rscale>  0 0.45659332E+03</rscale>
<asrwt>0</asrwt>
<pdfrwt beam="1">  1        2 0.97425353E-01 0.45659332E+03</pdfrwt>
<pdfrwt beam="2">  1       -2 0.10917697E-01 0.45659332E+03</pdfrwt>
<totfact> 0.27463192E+03</totfact>
</mgrwt>
</event>
<event>
 4    1  0.1049403E-004  0.4797739E+03  0.7818608E-02  0.1019197E+00
          2   -1    0    0  501    0  0.00000000000E+00  0.00000000000E+00  0.60613871668E+03  0.60613871668E+03  0.25500000000E-02 0.  1.
         -2   -1    0    0    0  501 -0.00000000000E+00 -0.00000000000E+00 -0.94938243990E+02  0.94938244024E+02  0.25500000000E-02 0. -1.
    5000001    1    1    2    0    0 -0.52532925918E+02 -0.16597713029E+03  0.25040723022E+03  0.34675192434E+03  0.16500000000E+03 0.  0.
   -5000001    1    1    2    0    0  0.52532925918E+02  0.16597713029E+03  0.26079324246E+03  0.35432503637E+03  0.16500000000E+03 0.  0.
<mgrwt>
<rscale>  0 0.47977389E+03</rscale>
<asrwt>0</asrwt>
<pdfrwt beam="1">  1        2 0.86591242E-01 0.47977389E+03</pdfrwt>
<pdfrwt beam="2">  1       -2 0.13562607E-01 0.47977389E+03</pdfrwt>
<totfact> 0.22140075E+03</totfact>
</mgrwt>
</event>
<event>
 4    1  0.1049403E-004  0.1268067E+04  0.7818608E-02  0.9055279E-01
          2   -1    0    0  501    0  0.00000000000E+00  0.00000000000E+00  0.14914488112E+04  0.14914488112E+04  0.25500000000E-02 0.  1.
         -2   -1    0    0    0  501 -0.00000000000E+00 -0.00000000000E+00 -0.26953536458E+03  0.26953536459E+03  0.25500000000E-02 0. -1.
    5000001    1    1    2    0    0  0.47502252878E+03  0.14719394337E+03  0.11067511273E+04  0.12245144007E+04  0.16500000000E+03 0.  0.
   -5000001    1    1    2    0    0 -0.47502252878E+03 -0.14719394337E+03  0.11516231938E+03  0.53646977512E+03  0.16500000000E+03 0.  0.
<mgrwt>
<rscale>  0 0.12680666E+04</rscale>
<asrwt>0</asrwt>
<pdfrwt beam="1">  1        2 0.21306413E+00 0.12680666E+04</pdfrwt>
<pdfrwt beam="2">  1       -2 0.38505050E-01 0.12680666E+04</pdfrwt>
<totfact> 0.92423401E+01</totfact>
</mgrwt>
</event>
<event>
 4    1  0.1049403E-004  0.3786758E+03  0.7818608E-02  0.1051424E+00
         -2   -1    0    0    0  501 -0.00000000000E+00  0.00000000000E+00  0.50228556249E+02  0.50228556313E+02  0.25500000000E-02 0. -1.
          2   -1    0    0  501    0  0.00000000000E+00 -0.00000000000E+00 -0.71371440266E+03  0.71371440266E+03  0.25500000000E-02 0.  1.
    5000001    1    1    2    0    0 -0.47563349373E+02  0.53843601108E+02 -0.45045212653E+03  0.48507063803E+03  0.16500000000E+03 0.  0.
   -5000001    1    1    2    0    0  0.47563349373E+02 -0.53843601108E+02 -0.21303371988E+03  0.27887232095E+03  0.16500000000E+03 0.  0.
<mgrwt>
<rscale>  0 0.37867582E+03</rscale>
<asrwt>0</asrwt>
<pdfrwt beam="1">  1        2 0.10195919E+00 0.37867582E+03</pdfrwt>
<pdfrwt beam="2">  1       -2 0.71755085E-02 0.37867582E+03</pdfrwt>
<totfact> 0.50578456E+03</totfact>
</mgrwt>
</event>
<event>
 4    1  0.1049403E-004  0.3800412E+03  0.7818608E-02  0.1050919E+00
         -2   -1    0    0    0  501 -0.00000000000E+00  0.00000000000E+00  0.23386675896E+02  0.23386676035E+02  0.25500000000E-02 0. -1.
          2   -1    0    0  501    0  0.00000000000E+00 -0.00000000000E+00 -0.15439484131E+04  0.15439484131E+04  0.25500000000E-02 0.  1.
    5000001    1    1    2    0    0  0.24188490537E+01  0.77610770804E+02 -0.53997650455E+03  0.56993763522E+03  0.16500000000E+03 0.  0.
   -5000001    1    1    2    0    0 -0.24188490537E+01 -0.77610770804E+02 -0.98058523261E+03  0.99739745387E+03  0.16500000000E+03 0.  0.
<mgrwt>
<rscale>  0 0.38004116E+03</rscale>
<asrwt>0</asrwt>
<pdfrwt beam="1">  1        2 0.22056399E+00 0.38004116E+03</pdfrwt>
<pdfrwt beam="2">  1       -2 0.33409547E-02 0.38004116E+03</pdfrwt>
<totfact> 0.53618127E+03</totfact>
</mgrwt>
</event>
<event>
 4    1  0.1049403E-004  0.6644023E+03  0.7818608E-02  0.9780123E-01
         -2   -1    0    0    0  501 -0.00000000000E+00  0.00000000000E+00  0.10086405265E+03  0.10086405268E+03  0.25500000000E-02 0. -1.
          2   -1    0    0  501    0  0.00000000000E+00 -0.00000000000E+00 -0.10941222948E+04  0.10941222948E+04  0.25500000000E-02 0.  1.
    5000001    1    1    2    0    0  0.27533692634E+03  0.16365406487E+02 -0.64769298640E+03  0.72305563698E+03  0.16500000000E+03 0.  0.
   -5000001    1    1    2    0    0 -0.27533692634E+03 -0.16365406487E+02 -0.34556525578E+03  0.47193071053E+03  0.16500000000E+03 0.  0.
<mgrwt>
<rscale>  0 0.66440231E+03</rscale>
<asrwt>0</asrwt>
<pdfrwt beam="1">  1        2 0.15630318E+00 0.66440231E+03</pdfrwt>
<pdfrwt beam="2">  1       -2 0.14409151E-01 0.66440231E+03</pdfrwt>
<totfact> 0.92879740E+02</totfact>
</mgrwt>
</event>
<event>
 4    1  0.1049403E-004  0.5576235E+03  0.7818608E-02  0.9997446E-01
         -2   -1    0    0    0  501 -0.00000000000E+00  0.00000000000E+00  0.60144786369E+03  0.60144786370E+03  0.25500000000E-02 0. -1.
          2   -1    0    0  501    0  0.00000000000E+00 -0.00000000000E+00 -0.12924808216E+03  0.12924808218E+03  0.25500000000E-02 0.  1.
    5000001    1    1    2    0    0 -0.65210274066E+02 -0.13769067859E+03  0.45260892598E+03  0.50526324099E+03  0.16500000000E+03 0.  0.
   -5000001    1    1    2    0    0  0.65210274066E+02  0.13769067859E+03  0.19590855549E+02  0.22543270489E+03  0.16500000000E+03 0.  0.
<mgrwt>
<rscale>  0 0.55762347E+03</rscale>
<asrwt>0</asrwt>
<pdfrwt beam="1">  1        2 0.18464012E-01 0.55762347E+03</pdfrwt>
<pdfrwt beam="2">  1       -2 0.85921124E-01 0.55762347E+03</pdfrwt>
<totfact> 0.37098174E+02</totfact>
</mgrwt>
</event>
<event>
 4    1  0.1049403E-004  0.6088688E+03  0.7818608E-02  0.9887175E-01
          2   -1    0    0  501    0  0.00000000000E+00  0.00000000000E+00  0.12214414224E+04  0.12214414224E+04  0.25500000000E-02 0.  1.
         -2   -1    0    0    0  501 -0.00000000000E+00 -0.00000000000E+00 -0.75877803761E+02  0.75877803804E+02  0.25500000000E-02 0. -1.
    5000001    1    1    2    0    0  0.23908687784E+03  0.70313025704E+02  0.44947981798E+03  0.53978103293E+03  0.16500000000E+03 0.  0.
   -5000001    1    1    2    0    0 -0.23908687784E+03 -0.70313025704E+02  0.69608380067E+03  0.75753819329E+03  0.16500000000E+03 0.  0.
<mgrwt>
<rscale>  0 0.60886876E+03</rscale>
<asrwt>0</asrwt>
<pdfrwt beam="1">  1        2 0.17449162E+00 0.60886876E+03</pdfrwt>
<pdfrwt beam="2">  1       -2 0.10839687E-01 0.60886876E+03</pdfrwt>
<totfact> 0.12607363E+03</totfact>
</mgrwt>
</event>
<event>
 4    1  0.1049403E-004  0.7158312E+03  0.7818608E-02  0.9690535E-01
         -2   -1    0    0    0  501 -0.00000000000E+00  0.00000000000E+00  0.10102048056E+03  0.10102048059E+03  0.25500000000E-02 0. -1.
          2   -1    0    0  501    0  0.00000000000E+00 -0.00000000000E+00 -0.12680950362E+04  0.12680950362E+04  0.25500000000E-02 0.  1.
    5000001    1    1    2    0    0 -0.17267911722E+03 -0.88404621722E+02 -0.10253960536E+03  0.27454111775E+03  0.16500000000E+03 0.  0.
   -5000001    1    1    2    0    0  0.17267911722E+03  0.88404621722E+02 -0.10645349503E+04  0.10945743990E+04  0.16500000000E+03 0.  0.
<mgrwt>
<rscale>  0 0.71583118E+03</rscale>
<asrwt>0</asrwt>
<pdfrwt beam="1">  1        2 0.18115642E+00 0.71583118E+03</pdfrwt>
<pdfrwt beam="2">  1       -2 0.14431498E-01 0.71583118E+03</pdfrwt>
<totfact> 0.73666719E+02</totfact>
</mgrwt>
</event>
<event>
 4    1  0.1049403E-004  0.7803635E+03  0.7818608E-02  0.9588883E-01
         -2   -1    0    0    0  501 -0.00000000000E+00  0.00000000000E+00  0.18900610359E+03  0.18900610361E+03  0.25500000000E-02 0. -1.
          2   -1    0    0  501    0  0.00000000000E+00 -0.00000000000E+00 -0.80548605263E+03  0.80548605263E+03  0.25500000000E-02 0.  1.
    5000001    1    1    2    0    0 -0.14550244286E+03 -0.28173114083E+03 -0.50760613695E+03  0.62083201179E+03  0.16500000000E+03 0.  0.
   -5000001    1    1    2    0    0  0.14550244286E+03  0.28173114083E+03 -0.10887381209E+03  0.37366014445E+03  0.16500000000E+03 0.  0.
<mgrwt>
<rscale>  0 0.78036345E+03</rscale>
<asrwt>0</asrwt>
<pdfrwt beam="1">  1        2 0.11506943E+00 0.78036345E+03</pdfrwt>
<pdfrwt beam="2">  1       -2 0.27000872E-01 0.78036345E+03</pdfrwt>
<totfact> 0.47066306E+02</totfact>
</mgrwt>
</event>
<event>
 4    1  0.1049403E-004  0.9720147E+03  0.7818608E-02  0.9339783E-01
          2   -1    0    0  501    0  0.00000000000E+00  0.00000000000E+00  0.13261266320E+04  0.13261266320E+04  0.25500000000E-02 0.  1.
         -2   -1    0    0    0  501 -0.00000000000E+00 -0.00000000000E+00 -0.17811508171E+03  0.17811508173E+03  0.25500000000E-02 0. -1.
    5000001    1    1    2    0    0 -0.16650991329E+02 -0.45672076654E+03  0.55799484777E+03  0.73990159092E+03  0.16500000000E+03 0.  0.
   -5000001    1    1    2    0    0  0.16650991329E+02  0.45672076654E+03  0.59001670257E+03  0.76434012286E+03  0.16500000000E+03 0.  0.
<mgrwt>
<rscale>  0 0.97201472E+03</rscale>
<asrwt>0</asrwt>
<pdfrwt beam="1">  1        2 0.18944666E+00 0.97201472E+03</pdfrwt>
<pdfrwt beam="2">  1       -2 0.25445012E-01 0.97201472E+03</pdfrwt>
<totfact> 0.25144068E+02</totfact>
</mgrwt>
</event>
<event>
 4    1  0.1049403E-004  0.6190807E+03  0.7818608E-02  0.9866592E-01
         -2   -1    0    0    0  501 -0.00000000000E+00  0.00000000000E+00  0.63998485871E+02  0.63998485921E+02  0.25500000000E-02 0. -1.
          2   -1    0    0  501    0  0.00000000000E+00 -0.00000000000E+00 -0.14971481466E+04  0.14971481466E+04  0.25500000000E-02 0.  1.
    5000001    1    1    2    0    0  0.16146820119E+03 -0.20571415528E+03 -0.75223024782E+03  0.81330537895E+03  0.16500000000E+03 0.  0.
   -5000001    1    1    2    0    0 -0.16146820119E+03  0.20571415528E+03 -0.68091941290E+03  0.74784125357E+03  0.16500000000E+03 0.  0.
<mgrwt>
<rscale>  0 0.61908066E+03</rscale>
<asrwt>0</asrwt>
<pdfrwt beam="1">  1        2 0.21387828E+00 0.61908066E+03</pdfrwt>
<pdfrwt beam="2">  1       -2 0.91426418E-02 0.61908066E+03</pdfrwt>
<totfact> 0.11808679E+03</totfact>
</mgrwt>
</event>
<event>
 4    1  0.1049403E-004  0.4451700E+03  0.7818608E-02  0.1029172E+00
         -2   -1    0    0    0  501 -0.00000000000E+00  0.00000000000E+00  0.52083055390E+03  0.52083055391E+03  0.25500000000E-02 0. -1.
          2   -1    0    0  501    0  0.00000000000E+00 -0.00000000000E+00 -0.95125131354E+02  0.95125131388E+02  0.25500000000E-02 0.  1.
    5000001    1    1    2    0    0 -0.14060112142E+03  0.49040150075E+02  0.22954055338E+03  0.31951131014E+03  0.16500000000E+03 0.  0.
   -5000001    1    1    2    0    0  0.14060112142E+03 -0.49040150075E+02  0.19616486917E+03  0.29644437515E+03  0.16500000000E+03 0.  0.
<mgrwt>
<rscale>  0 0.44516997E+03</rscale>
<asrwt>0</asrwt>
<pdfrwt beam="1">  1        2 0.13589305E-01 0.44516997E+03</pdfrwt>
<pdfrwt beam="2">  1       -2 0.74404363E-01 0.44516997E+03</pdfrwt>
<totfact> 0.73904337E+02</totfact>
</mgrwt>
</event>
<event>
 4    1  0.1049403E-004  0.8189078E+03  0.7818608E-02  0.9533045E-01
         -2   -1    0    0    0  501 -0.00000000000E+00  0.00000000000E+00  0.11154432230E+04  0.11154432230E+04  0.25500000000E-02 0.  1.
          2   -1    0    0  501    0  0.00000000000E+00 -0.00000000000E+00 -0.15030122195E+03  0.15030122198E+03  0.25500000000E-02 0. -1.
    5000001    1    1    2    0    0 -0.33125178671E+03  0.80543475894E+02  0.24206235242E+03  0.44948212442E+03  0.16500000000E+03 0.  0.
   -5000001    1    1    2    0    0  0.33125178671E+03 -0.80543475894E+02  0.72307964863E+03  0.81626232056E+03  0.16500000000E+03 0.  0.
<mgrwt>
<rscale>  0 0.81890776E+03</rscale>
<asrwt>0</asrwt>
<pdfrwt beam="1">  1        2 0.21471602E-01 0.81890776E+03</pdfrwt>
<pdfrwt beam="2">  1       -2 0.15934904E+00 0.81890776E+03</pdfrwt>
<totfact> 0.67161060E+01</totfact>
</mgrwt>
</event>
<event>
 4    1  0.1049403E-004  0.6001303E+03  0.7818608E-02  0.9905136E-01
         -2   -1    0    0    0  501 -0.00000000000E+00  0.00000000000E+00  0.20953803658E+04  0.20953803659E+04  0.25500000000E-02 0. -1.
          2   -1    0    0  501    0  0.00000000000E+00 -0.00000000000E+00 -0.42970284162E+02  0.42970284237E+02  0.25500000000E-02 0.  1.
    5000001    1    1    2    0    0  0.20115364835E+03  0.14898625258E+03  0.98193075366E+03  0.10266804268E+04  0.16500000000E+03 0.  0.
   -5000001    1    1    2    0    0 -0.20115364835E+03 -0.14898625258E+03  0.10704793280E+04  0.11116702233E+04  0.16500000000E+03 0.  0.
<mgrwt>
<rscale>  0 0.60013029E+03</rscale>
<asrwt>0</asrwt>
<pdfrwt beam="1">  1        2 0.61386088E-02 0.60013029E+03</pdfrwt>
<pdfrwt beam="2">  1       -2 0.29934021E+00 0.60013029E+03</pdfrwt>
<totfact> 0.42551222E+01</totfact>
</mgrwt>
</event>
<event>
 4    1  0.1049403E-004  0.7648408E+03  0.7818608E-02  0.9612351E-01
          2   -1    0    0  501    0  0.00000000000E+00  0.00000000000E+00  0.53664606130E+03  0.53664606130E+03  0.25500000000E-02 0. -1.
         -2   -1    0    0    0  501 -0.00000000000E+00 -0.00000000000E+00 -0.27251731563E+03  0.27251731564E+03  0.25500000000E-02 0.  1.
    5000001    1    1    2    0    0  0.25681471366E+02  0.30806480016E+03 -0.29967468615E+02  0.35169092715E+03  0.16500000000E+03 0.  0.
   -5000001    1    1    2    0    0 -0.25681471366E+02 -0.30806480016E+03  0.29409621428E+03  0.45747244979E+03  0.16500000000E+03 0.  0.
<mgrwt>
<rscale>  0 0.76484075E+03</rscale>
<asrwt>0</asrwt>
<pdfrwt beam="1">  1        2 0.76663723E-01 0.76484075E+03</pdfrwt>
<pdfrwt beam="2">  1       -2 0.38931045E-01 0.76484075E+03</pdfrwt>
<totfact> 0.38791452E+02</totfact>
</mgrwt>
</event>
<event>
 4    1  0.1049403E-004  0.4476059E+03  0.7818608E-02  0.1028438E+00
         -2   -1    0    0    0  501 -0.00000000000E+00  0.00000000000E+00  0.51435650248E+02  0.51435650311E+02  0.25500000000E-02 0. -1.
          2   -1    0    0  501    0  0.00000000000E+00 -0.00000000000E+00 -0.97379453660E+03  0.97379453660E+03  0.25500000000E-02 0.  1.
    5000001    1    1    2    0    0 -0.59662219567E+02  0.13400770968E+03 -0.54518427550E+03  0.58819090519E+03  0.16500000000E+03 0.  0.
   -5000001    1    1    2    0    0  0.59662219567E+02 -0.13400770968E+03 -0.37717461085E+03  0.43703928172E+03  0.16500000000E+03 0.  0.
<mgrwt>
<rscale>  0 0.44760588E+03</rscale>
<asrwt>0</asrwt>
<pdfrwt beam="1">  1        2 0.13911349E+00 0.44760588E+03</pdfrwt>
<pdfrwt beam="2">  1       -2 0.73479507E-02 0.44760588E+03</pdfrwt>
<totfact> 0.32786487E+03</totfact>
</mgrwt>
</event>
<event>
 4    1  0.1049403E-004  0.5072563E+03  0.7818608E-02  0.1011902E+00
         -2   -1    0    0    0  501 -0.00000000000E+00  0.00000000000E+00  0.39205069795E+02  0.39205069878E+02  0.25500000000E-02 0. -1.
          2   -1    0    0  501    0  0.00000000000E+00 -0.00000000000E+00 -0.16407887187E+04  0.16407887187E+04  0.25500000000E-02 0.  1.
    5000001    1    1    2    0    0 -0.77769193885E+02 -0.17395794522E+03 -0.70753768836E+03  0.75109519681E+03  0.16500000000E+03 0.  0.
   -5000001    1    1    2    0    0  0.77769193885E+02  0.17395794522E+03 -0.89404596049E+03  0.92889859172E+03  0.16500000000E+03 0.  0.
<mgrwt>
<rscale>  0 0.50725629E+03</rscale>
<asrwt>0</asrwt>
<pdfrwt beam="1">  1        2 0.23439835E+00 0.50725629E+03</pdfrwt>
<pdfrwt beam="2">  1       -2 0.56007253E-02 0.50725629E+03</pdfrwt>
<totfact> 0.21691621E+03</totfact>
</mgrwt>
</event>
<event>
 4    1  0.1049403E-004  0.4862847E+03  0.7818608E-02  0.1017422E+00
         -2   -1    0    0    0  501 -0.00000000000E+00  0.00000000000E+00  0.39269576790E+02  0.39269576873E+02  0.25500000000E-02 0. -1.
          2   -1    0    0  501    0  0.00000000000E+00 -0.00000000000E+00 -0.15054454005E+04  0.15054454005E+04  0.25500000000E-02 0.  1.
    5000001    1    1    2    0    0 -0.10089788093E+03  0.14711191623E+03 -0.75983631514E+03  0.79774590195E+03  0.16500000000E+03 0.  0.
   -5000001    1    1    2    0    0  0.10089788093E+03 -0.14711191623E+03 -0.70633950861E+03  0.74696907546E+03  0.16500000000E+03 0.  0.
<mgrwt>
<rscale>  0 0.48628471E+03</rscale>
<asrwt>0</asrwt>
<pdfrwt beam="1">  1        2 0.21506359E+00 0.48628471E+03</pdfrwt>
<pdfrwt beam="2">  1       -2 0.56099405E-02 0.48628471E+03</pdfrwt>
<totfact> 0.25393051E+03</totfact>
</mgrwt>
</event>
<event>
 4    1  0.1049403E-004  0.6146036E+03  0.7818608E-02  0.9875563E-01
         -2   -1    0    0    0  501 -0.00000000000E+00  0.00000000000E+00  0.19555886043E+03  0.19555886044E+03  0.25500000000E-02 0. -1.
          2   -1    0    0  501    0  0.00000000000E+00 -0.00000000000E+00 -0.48289506292E+03  0.48289506292E+03  0.25500000000E-02 0.  1.
    5000001    1    1    2    0    0  0.10288261277E+03 -0.20679572321E+03 -0.27362773905E+03  0.39426696885E+03  0.16500000000E+03 0.  0.
   -5000001    1    1    2    0    0 -0.10288261277E+03  0.20679572321E+03 -0.13708463446E+02  0.28418695452E+03  0.16500000000E+03 0.  0.
<mgrwt>
<rscale>  0 0.61460364E+03</rscale>
<asrwt>0</asrwt>
<pdfrwt beam="1">  1        2 0.68985009E-01 0.61460364E+03</pdfrwt>
<pdfrwt beam="2">  1       -2 0.27936980E-01 0.61460364E+03</pdfrwt>
<totfact> 0.82031467E+02</totfact>
</mgrwt>
</event>
<event>
 4    1  0.1049403E-004  0.4901475E+03  0.7818608E-02  0.1016383E+00
          2   -1    0    0  501    0  0.00000000000E+00  0.00000000000E+00  0.17675514342E+04  0.17675514342E+04  0.25500000000E-02 0.  1.
         -2   -1    0    0    0  501 -0.00000000000E+00 -0.00000000000E+00 -0.33979857360E+02  0.33979857456E+02  0.25500000000E-02 0. -1.
    5000001    1    1    2    0    0 -0.10396891438E+03 -0.14806760292E+03  0.90401460049E+03  0.93659006405E+03  0.16500000000E+03 0.  0.
   -5000001    1    1    2    0    0  0.10396891438E+03  0.14806760292E+03  0.82955697636E+03  0.86494122761E+03  0.16500000000E+03 0.  0.
<mgrwt>
<rscale>  0 0.49014751E+03</rscale>
<asrwt>0</asrwt>
<pdfrwt beam="1">  1        2 0.25250738E+00 0.49014751E+03</pdfrwt>
<pdfrwt beam="2">  1       -2 0.48542648E-02 0.49014751E+03</pdfrwt>
<totfact> 0.23368412E+03</totfact>
</mgrwt>
</event>
<event>
 4    1  0.1049403E-004  0.6079175E+03  0.7818608E-02  0.9889115E-01
         -2   -1    0    0    0  501 -0.00000000000E+00  0.00000000000E+00  0.11663113923E+03  0.11663113926E+03  0.25500000000E-02 0. -1.
          2   -1    0    0  501    0  0.00000000000E+00 -0.00000000000E+00 -0.79216328804E+03  0.79216328804E+03  0.25500000000E-02 0.  1.
    5000001    1    1    2    0    0  0.16598053824E+03 -0.56317439774E+02 -0.60317604343E+02  0.24816205691E+03  0.16500000000E+03 0.  0.
   -5000001    1    1    2    0    0 -0.16598053824E+03  0.56317439774E+02 -0.61521454446E+03  0.66063237039E+03  0.16500000000E+03 0.  0.
<mgrwt>
<rscale>  0 0.60791745E+03</rscale>
<asrwt>0</asrwt>
<pdfrwt beam="1">  1        2 0.11316618E+00 0.60791745E+03</pdfrwt>
<pdfrwt beam="2">  1       -2 0.16661592E-01 0.60791745E+03</pdfrwt>
<totfact> 0.11304631E+03</totfact>
</mgrwt>
</event>
<event>
 4    1  0.1049403E-004  0.5446670E+03  0.7818608E-02  0.1002736E+00
          2   -1    0    0  501    0  0.00000000000E+00  0.00000000000E+00  0.71605783865E+03  0.71605783865E+03  0.25500000000E-02 0.  1.
         -2   -1    0    0    0  501 -0.00000000000E+00 -0.00000000000E+00 -0.10357476833E+03  0.10357476836E+03  0.25500000000E-02 0. -1.
    5000001    1    1    2    0    0  0.14318569403E+03  0.16138142644E+03  0.27635565848E+03  0.38748362255E+03  0.16500000000E+03 0.  0.
   -5000001    1    1    2    0    0 -0.14318569403E+03 -0.16138142644E+03  0.33612741184E+03  0.43214898446E+03  0.16500000000E+03 0.  0.
<mgrwt>
<rscale>  0 0.54466696E+03</rscale>
<asrwt>0</asrwt>
<pdfrwt beam="1">  1        2 0.10229398E+00 0.54466696E+03</pdfrwt>
<pdfrwt beam="2">  1       -2 0.14796396E-01 0.54466696E+03</pdfrwt>
<totfact> 0.15687323E+03</totfact>
</mgrwt>
</event>
<event>
 4    1  0.1049403E-004  0.4016910E+03  0.7818608E-02  0.1043196E+00
          2   -1    0    0  501    0  0.00000000000E+00  0.00000000000E+00  0.88068735417E+03  0.88068735417E+03  0.25500000000E-02 0.  1.
         -2   -1    0    0    0  501 -0.00000000000E+00 -0.00000000000E+00 -0.45803887917E+02  0.45803887988E+02  0.25500000000E-02 0. -1.
    5000001    1    1    2    0    0  0.11322403072E+03  0.99896787557E+01  0.38528062528E+03  0.43426447590E+03  0.16500000000E+03 0.  0.
   -5000001    1    1    2    0    0 -0.11322403072E+03 -0.99896787557E+01  0.44960284097E+03  0.49222676626E+03  0.16500000000E+03 0.  0.
<mgrwt>
<rscale>  0 0.40169095E+03</rscale>
<asrwt>0</asrwt>
<pdfrwt beam="1">  1        2 0.12581247E+00 0.40169095E+03</pdfrwt>
<pdfrwt beam="2">  1       -2 0.65434129E-02 0.40169095E+03</pdfrwt>
<totfact> 0.44919830E+03</totfact>
</mgrwt>
</event>
<event>
 4    1  0.1049403E-004  0.5099666E+03  0.7818608E-02  0.1011210E+00
         -2   -1    0    0    0  501 -0.00000000000E+00  0.00000000000E+00  0.19217497751E+03  0.19217497752E+03  0.25500000000E-02 0. -1.
          2   -1    0    0  501    0  0.00000000000E+00 -0.00000000000E+00 -0.33831924994E+03  0.33831924995E+03  0.25500000000E-02 0.  1.
    5000001    1    1    2    0    0 -0.70744798768E+02 -0.18105632939E+03 -0.75460935829E+02  0.26590519702E+03  0.16500000000E+03 0.  0.
   -5000001    1    1    2    0    0  0.70744798768E+02  0.18105632939E+03 -0.70683336606E+02  0.26458903046E+03  0.16500000000E+03 0.  0.
<mgrwt>
<rscale>  0 0.50996664E+03</rscale>
<asrwt>0</asrwt>
<pdfrwt beam="1">  1        2 0.48331321E-01 0.50996664E+03</pdfrwt>
<pdfrwt beam="2">  1       -2 0.27453568E-01 0.50996664E+03</pdfrwt>
<totfact> 0.12587369E+03</totfact>
</mgrwt>
</event>
<event>
 4    1  0.1049403E-004  0.4822144E+03  0.7818608E-02  0.1018528E+00
         -2   -1    0    0    0  501 -0.00000000000E+00  0.00000000000E+00  0.64602823761E+02  0.64602823811E+02  0.25500000000E-02 0. -1.
          2   -1    0    0  501    0  0.00000000000E+00 -0.00000000000E+00 -0.89984738182E+03  0.89984738182E+03  0.25500000000E-02 0.  1.
    5000001    1    1    2    0    0 -0.15362951978E+03  0.51119984172E+02 -0.55462750550E+03  0.60087598720E+03  0.16500000000E+03 0.  0.
   -5000001    1    1    2    0    0  0.15362951978E+03 -0.51119984172E+02 -0.28061705256E+03  0.36357421844E+03  0.16500000000E+03 0.  0.
<mgrwt>
<rscale>  0 0.48221440E+03</rscale>
<asrwt>0</asrwt>
<pdfrwt beam="1">  1        2 0.12854962E+00 0.48221440E+03</pdfrwt>
<pdfrwt beam="2">  1       -2 0.92289754E-02 0.48221440E+03</pdfrwt>
<totfact> 0.25404766E+03</totfact>
</mgrwt>
</event>
<event>
 4    1  0.1049403E-004  0.5218837E+03  0.7818608E-02  0.1008220E+00
          2   -1    0    0  501    0  0.00000000000E+00  0.00000000000E+00  0.23022266471E+03  0.23022266473E+03  0.25500000000E-02 0.  1.
         -2   -1    0    0    0  501 -0.00000000000E+00 -0.00000000000E+00 -0.29575993924E+03  0.29575993925E+03  0.25500000000E-02 0. -1.
    5000001    1    1    2    0    0  0.29150356659E+02  0.93327565094E+02 -0.21109293293E+03  0.28521045569E+03  0.16500000000E+03 0.  0.
   -5000001    1    1    2    0    0 -0.29150356659E+02 -0.93327565094E+02  0.14555565840E+03  0.24077214829E+03  0.16500000000E+03 0.  0.
<mgrwt>
<rscale>  0 0.52188367E+03</rscale>
<asrwt>0</asrwt>
<pdfrwt beam="1">  1        2 0.32888952E-01 0.52188367E+03</pdfrwt>
<pdfrwt beam="2">  1       -2 0.42251420E-01 0.52188367E+03</pdfrwt>
<totfact> 0.85467212E+02</totfact>
</mgrwt>
</event>
<event>
 4    1  0.1049403E-004  0.3823955E+03  0.7818608E-02  0.1050052E+00
         -2   -1    0    0    0  501 -0.00000000000E+00  0.00000000000E+00  0.12007340799E+02  0.12007341070E+02  0.25500000000E-02 0. -1.
          2   -1    0    0  501    0  0.00000000000E+00 -0.00000000000E+00 -0.30445193674E+04  0.30445193674E+04  0.25500000000E-02 0.  1.
    5000001    1    1    2    0    0 -0.71120253351E+02 -0.63583285942E+02 -0.13948615027E+04  0.14078226225E+04  0.16500000000E+03 0.  0.
   -5000001    1    1    2    0    0  0.71120253351E+02  0.63583285942E+02 -0.16376505239E+04  0.16487040860E+04  0.16500000000E+03 0.  0.
<mgrwt>
<rscale>  0 0.38239551E+03</rscale>
<asrwt>0</asrwt>
<pdfrwt beam="1">  1        2 0.43493085E+00 0.38239551E+03</pdfrwt>
<pdfrwt beam="2">  1       -2 0.17153364E-02 0.38239551E+03</pdfrwt>
<totfact> 0.25228017E+03</totfact>
</mgrwt>
</event>
<event>
 4    1  0.1049403E-004  0.5289947E+03  0.7818608E-02  0.1006476E+00
          2   -1    0    0  501    0  0.00000000000E+00  0.00000000000E+00  0.90240390825E+03  0.90240390826E+03  0.25500000000E-02 0.  1.
         -2   -1    0    0    0  501 -0.00000000000E+00 -0.00000000000E+00 -0.77524972204E+02  0.77524972246E+02  0.25500000000E-02 0. -1.
    5000001    1    1    2    0    0  0.85310068513E+02 -0.89040764701E+02  0.10509259254E+03  0.23124774285E+03  0.16500000000E+03 0.  0.
   -5000001    1    1    2    0    0 -0.85310068513E+02  0.89040764701E+02  0.71978634351E+03  0.74868113765E+03  0.16500000000E+03 0.  0.
<mgrwt>
<rscale>  0 0.52899466E+03</rscale>
<asrwt>0</asrwt>
<pdfrwt beam="1">  1        2 0.12891484E+00 0.52899466E+03</pdfrwt>
<pdfrwt beam="2">  1       -2 0.11074996E-01 0.52899466E+03</pdfrwt>
<totfact> 0.18848919E+03</totfact>
</mgrwt>
</event>
<event>
 4    1  0.1049403E-004  0.5034344E+03  0.7818608E-02  0.1012886E+00
         -2   -1    0    0    0  501 -0.00000000000E+00  0.00000000000E+00  0.41735948211E+02  0.41735948289E+02  0.25500000000E-02 0. -1.
          2   -1    0    0  501    0  0.00000000000E+00 -0.00000000000E+00 -0.15181528239E+04  0.15181528239E+04  0.25500000000E-02 0.  1.
    5000001    1    1    2    0    0 -0.18936794799E+03  0.15809156237E+02 -0.72228852143E+03  0.76487636736E+03  0.16500000000E+03 0.  0.
   -5000001    1    1    2    0    0  0.18936794799E+03 -0.15809156237E+02 -0.75412835422E+03  0.79501240480E+03  0.16500000000E+03 0.  0.
<mgrwt>
<rscale>  0 0.50343440E+03</rscale>
<asrwt>0</asrwt>
<pdfrwt beam="1">  1        2 0.21687894E+00 0.50343440E+03</pdfrwt>
<pdfrwt beam="2">  1       -2 0.59622793E-02 0.50343440E+03</pdfrwt>
<totfact> 0.22743144E+03</totfact>
</mgrwt>
</event>
<event>
 4    1  0.1049403E-004  0.5847428E+03  0.7818608E-02  0.9937575E-01
          2   -1    0    0  501    0  0.00000000000E+00  0.00000000000E+00  0.38037339401E+03  0.38037339402E+03  0.25500000000E-02 0.  1.
         -2   -1    0    0    0  501 -0.00000000000E+00 -0.00000000000E+00 -0.22472924025E+03  0.22472924027E+03  0.25500000000E-02 0. -1.
    5000001    1    1    2    0    0 -0.21560587784E+03 -0.72594470684E+02  0.16125291736E+03  0.32401135025E+03  0.16500000000E+03 0.  0.
   -5000001    1    1    2    0    0  0.21560587784E+03  0.72594470684E+02 -0.56087635995E+01  0.28109128404E+03  0.16500000000E+03 0.  0.
<mgrwt>
<rscale>  0 0.58474276E+03</rscale>
<asrwt>0</asrwt>
<pdfrwt beam="1">  1        2 0.54339055E-01 0.58474276E+03</pdfrwt>
<pdfrwt beam="2">  1       -2 0.32104178E-01 0.58474276E+03</pdfrwt>
<totfact> 0.82899600E+02</totfact>
</mgrwt>
</event>
<event>
 4    1  0.1049403E-004  0.6240476E+03  0.7818608E-02  0.9856734E-01
          2   -1    0    0  501    0  0.00000000000E+00  0.00000000000E+00  0.62616531040E+03  0.62616531040E+03  0.25500000000E-02 0.  1.
         -2   -1    0    0    0  501 -0.00000000000E+00 -0.00000000000E+00 -0.15548428511E+03  0.15548428513E+03  0.25500000000E-02 0. -1.
    5000001    1    1    2    0    0  0.19878740990E+03  0.16996309560E+03  0.28743773645E+03  0.42219585566E+03  0.16500000000E+03 0.  0.
   -5000001    1    1    2    0    0 -0.19878740990E+03 -0.16996309560E+03  0.18324328884E+03  0.35945373987E+03  0.16500000000E+03 0.  0.
<mgrwt>
<rscale>  0 0.62404764E+03</rscale>
<asrwt>0</asrwt>
<pdfrwt beam="1">  1        2 0.89452186E-01 0.62404764E+03</pdfrwt>
<pdfrwt beam="2">  1       -2 0.22212041E-01 0.62404764E+03</pdfrwt>
<totfact> 0.91631776E+02</totfact>
</mgrwt>
</event>
<event>
 4    1  0.1049403E-004  0.6375889E+03  0.7818608E-02  0.9830351E-01
         -2   -1    0    0    0  501 -0.00000000000E+00  0.00000000000E+00  0.29309681396E+03  0.29309681397E+03  0.25500000000E-02 0. -1.
          2   -1    0    0  501    0  0.00000000000E+00 -0.00000000000E+00 -0.34674514454E+03  0.34674514455E+03  0.25500000000E-02 0.  1.
    5000001    1    1    2    0    0 -0.76387436001E+02  0.23644240484E+03  0.86111712857E+02  0.31045173260E+03  0.16500000000E+03 0.  0.
   -5000001    1    1    2    0    0  0.76387436001E+02 -0.23644240484E+03 -0.13976004344E+03  0.32939022591E+03  0.16500000000E+03 0.  0.
<mgrwt>
<rscale>  0 0.63758889E+03</rscale>
<asrwt>0</asrwt>
<pdfrwt beam="1">  1        2 0.49535021E-01 0.63758889E+03</pdfrwt>
<pdfrwt beam="2">  1       -2 0.41870973E-01 0.63758889E+03</pdfrwt>
<totfact> 0.55229059E+02</totfact>
</mgrwt>
</event>
<event>
 4    1  0.1049403E-004  0.1155213E+04  0.7818608E-02  0.9152988E-01
          2   -1    0    0  501    0  0.00000000000E+00  0.00000000000E+00  0.26634647112E+03  0.26634647113E+03  0.25500000000E-02 0.  1.
         -2   -1    0    0    0  501 -0.00000000000E+00 -0.00000000000E+00 -0.12526138320E+04  0.12526138320E+04  0.25500000000E-02 0. -1.
    5000001    1    1    2    0    0  0.20380456026E+03 -0.46732111511E+03 -0.77660720885E+03  0.94354071467E+03  0.16500000000E+03 0.  0.
   -5000001    1    1    2    0    0 -0.20380456026E+03  0.46732111511E+03 -0.20966015199E+03  0.57541958842E+03  0.16500000000E+03 0.  0.
<mgrwt>
<rscale>  0 0.11552130E+04</rscale>
<asrwt>0</asrwt>
<pdfrwt beam="1">  1        2 0.38049496E-01 0.11552130E+04</pdfrwt>
<pdfrwt beam="2">  1       -2 0.17894483E+00 0.11552130E+04</pdfrwt>
<totfact> 0.24858461E+01</totfact>
</mgrwt>
</event>
<event>
 4    1  0.1049403E-004  0.7228253E+03  0.7818608E-02  0.9678975E-01
         -2   -1    0    0    0  501 -0.00000000000E+00  0.00000000000E+00  0.60185565476E+03  0.60185565476E+03  0.25500000000E-02 0. -1.
          2   -1    0    0  501    0  0.00000000000E+00 -0.00000000000E+00 -0.21702730180E+03  0.21702730181E+03  0.25500000000E-02 0.  1.
    5000001    1    1    2    0    0 -0.11175982105E+03 -0.30133311228E+03  0.18096094303E+03  0.40405911084E+03  0.16500000000E+03 0.  0.
   -5000001    1    1    2    0    0  0.11175982105E+03  0.30133311228E+03  0.20386740993E+03  0.41482384573E+03  0.16500000000E+03 0.  0.
<mgrwt>
<rscale>  0 0.72282531E+03</rscale>
<asrwt>0</asrwt>
<pdfrwt beam="1">  1        2 0.31003900E-01 0.72282531E+03</pdfrwt>
<pdfrwt beam="2">  1       -2 0.85979381E-01 0.72282531E+03</pdfrwt>
<totfact> 0.20311934E+02</totfact>
</mgrwt>
</event>
<event>
 4    1  0.1049403E-004  0.1580280E+04  0.7818608E-02  0.8832755E-01
         -2   -1    0    0    0  501 -0.00000000000E+00  0.00000000000E+00  0.45925466764E+03  0.45925466764E+03  0.25500000000E-02 0. -1.
          2   -1    0    0  501    0  0.00000000000E+00 -0.00000000000E+00 -0.13594226278E+04  0.13594226278E+04  0.25500000000E-02 0.  1.
    5000001    1    1    2    0    0  0.56637505270E+03 -0.44660735136E+03 -0.13102986872E+03  0.75142042367E+03  0.16500000000E+03 0.  0.
   -5000001    1    1    2    0    0 -0.56637505270E+03  0.44660735136E+03 -0.76913809140E+03  0.10672568717E+04  0.16500000000E+03 0.  0.
<mgrwt>
<rscale>  0 0.15802800E+04</rscale>
<asrwt>0</asrwt>
<pdfrwt beam="1">  1        2 0.19420323E+00 0.15802800E+04</pdfrwt>
<pdfrwt beam="2">  1       -2 0.65607810E-01 0.15802800E+04</pdfrwt>
<totfact> 0.35848964E+01</totfact>
</mgrwt>
</event>
<event>
 4    1  0.1049403E-004  0.3387678E+03  0.7818608E-02  0.1067322E+00
          2   -1    0    0  501    0  0.00000000000E+00  0.00000000000E+00  0.60443094375E+03  0.60443094375E+03  0.25500000000E-02 0.  1.
         -2   -1    0    0    0  501 -0.00000000000E+00 -0.00000000000E+00 -0.47467643933E+02  0.47467644002E+02  0.25500000000E-02 0. -1.
    5000001    1    1    2    0    0  0.37977692863E+02 -0.18165282885E+01  0.26980982462E+03  0.31854033715E+03  0.16500000000E+03 0.  0.
   -5000001    1    1    2    0    0 -0.37977692863E+02  0.18165282885E+01  0.28715347519E+03  0.33335825060E+03  0.16500000000E+03 0.  0.
<mgrwt>
<rscale>  0 0.33876784E+03</rscale>
<asrwt>0</asrwt>
<pdfrwt beam="1">  1        2 0.86347282E-01 0.33876784E+03</pdfrwt>
<pdfrwt beam="2">  1       -2 0.67810917E-02 0.33876784E+03</pdfrwt>
<totfact> 0.67032677E+03</totfact>
</mgrwt>
</event>
<event>
 4    1  0.1049403E-004  0.7190803E+03  0.7818608E-02  0.9685147E-01
         -2   -1    0    0    0  501 -0.00000000000E+00  0.00000000000E+00  0.36079226545E+03  0.36079226546E+03  0.25500000000E-02 0. -1.
          2   -1    0    0  501    0  0.00000000000E+00 -0.00000000000E+00 -0.35829241426E+03  0.35829241427E+03  0.25500000000E-02 0.  1.
    5000001    1    1    2    0    0  0.38355240812E+02  0.29864030603E+03 -0.10546048897E+03  0.35917136804E+03  0.16500000000E+03 0.  0.
   -5000001    1    1    2    0    0 -0.38355240812E+02 -0.29864030603E+03  0.10796034016E+03  0.35991331169E+03  0.16500000000E+03 0.  0.
<mgrwt>
<rscale>  0 0.71908033E+03</rscale>
<asrwt>0</asrwt>
<pdfrwt beam="1">  1        2 0.51184631E-01 0.71908033E+03</pdfrwt>
<pdfrwt beam="2">  1       -2 0.51541752E-01 0.71908033E+03</pdfrwt>
<totfact> 0.35070072E+02</totfact>
</mgrwt>
</event>
<event>
 4    1  0.1049403E-004  0.4005704E+03  0.7818608E-02  0.1043582E+00
         -2   -1    0    0    0  501 -0.00000000000E+00  0.00000000000E+00  0.25047459754E+02  0.25047459883E+02  0.25500000000E-02 0. -1.
          2   -1    0    0  501    0  0.00000000000E+00 -0.00000000000E+00 -0.16015263170E+04  0.16015263170E+04  0.25500000000E-02 0.  1.
    5000001    1    1    2    0    0  0.56019962984E+02 -0.94087549527E+02 -0.66652419178E+03  0.69532021505E+03  0.16500000000E+03 0.  0.
   -5000001    1    1    2    0    0 -0.56019962984E+02  0.94087549527E+02 -0.90995466549E+03  0.93125356186E+03  0.16500000000E+03 0.  0.
<mgrwt>
<rscale>  0 0.40057042E+03</rscale>
<asrwt>0</asrwt>
<pdfrwt beam="1">  1        2 0.22878941E+00 0.40057042E+03</pdfrwt>
<pdfrwt beam="2">  1       -2 0.35782096E-02 0.40057042E+03</pdfrwt>
<totfact> 0.45203818E+03</totfact>
</mgrwt>
</event>
<event>
 4    1  0.1049403E-004  0.6613925E+03  0.7818608E-02  0.9785634E-01
          2   -1    0    0  501    0  0.00000000000E+00  0.00000000000E+00  0.51050893837E+03  0.51050893837E+03  0.25500000000E-02 0.  1.
         -2   -1    0    0    0  501 -0.00000000000E+00 -0.00000000000E+00 -0.21421760386E+03  0.21421760388E+03  0.25500000000E-02 0. -1.
    5000001    1    1    2    0    0 -0.10980329923E+03  0.26077293483E+03  0.98222903511E+02  0.34195325241E+03  0.16500000000E+03 0.  0.
   -5000001    1    1    2    0    0  0.10980329923E+03 -0.26077293483E+03  0.19806843099E+03  0.38277328984E+03  0.16500000000E+03 0.  0.
<mgrwt>
<rscale>  0 0.66139248E+03</rscale>
<asrwt>0</asrwt>
<pdfrwt beam="1">  1        2 0.72929848E-01 0.66139248E+03</pdfrwt>
<pdfrwt beam="2">  1       -2 0.30602515E-01 0.66139248E+03</pdfrwt>
<totfact> 0.65043503E+02</totfact>
</mgrwt>
</event>
<event>
 4    1  0.1049403E-004  0.4766914E+03  0.7818608E-02  0.1020048E+00
         -2   -1    0    0    0  501 -0.00000000000E+00  0.00000000000E+00  0.41790165056E+03  0.41790165057E+03  0.25500000000E-02 0. -1.
          2   -1    0    0  501    0  0.00000000000E+00 -0.00000000000E+00 -0.13593787868E+03  0.13593787870E+03  0.25500000000E-02 0.  1.
    5000001    1    1    2    0    0  0.80730758725E+02  0.87981464028E+02  0.28481324168E+03  0.35014536418E+03  0.16500000000E+03 0.  0.
   -5000001    1    1    2    0    0 -0.80730758725E+02 -0.87981464028E+02 -0.28494697937E+01  0.20369416510E+03  0.16500000000E+03 0.  0.
<mgrwt>
<rscale>  0 0.47669136E+03</rscale>
<asrwt>0</asrwt>
<pdfrwt beam="1">  1        2 0.19419697E-01 0.47669136E+03</pdfrwt>
<pdfrwt beam="2">  1       -2 0.59700237E-01 0.47669136E+03</pdfrwt>
<totfact> 0.77363236E+02</totfact>
</mgrwt>
</event>
<event>
 4    1  0.1049403E-004  0.6762262E+03  0.7818608E-02  0.9758775E-01
          2   -1    0    0  501    0  0.00000000000E+00  0.00000000000E+00  0.61760328770E+03  0.61760328770E+03  0.25500000000E-02 0.  1.
         -2   -1    0    0    0  501 -0.00000000000E+00 -0.00000000000E+00 -0.18510341507E+03  0.18510341509E+03  0.25500000000E-02 0. -1.
    5000001    1    1    2    0    0  0.36625450124E+02 -0.26492052402E+03  0.68125912012E+02  0.32154385009E+03  0.16500000000E+03 0.  0.
   -5000001    1    1    2    0    0 -0.36625450124E+02  0.26492052402E+03  0.36437396061E+03  0.48116285270E+03  0.16500000000E+03 0.  0.
<mgrwt>
<rscale>  0 0.67622623E+03</rscale>
<asrwt>0</asrwt>
<pdfrwt beam="1">  1        2 0.88229044E-01 0.67622623E+03</pdfrwt>
<pdfrwt beam="2">  1       -2 0.26443344E-01 0.67622623E+03</pdfrwt>
<totfact> 0.68094604E+02</totfact>
</mgrwt>
</event>
<event>
 4    1  0.1049403E-004  0.4952632E+03  0.7818608E-02  0.1015023E+00
         -2   -1    0    0    0  501 -0.00000000000E+00  0.00000000000E+00  0.71352427504E+02  0.71352427549E+02  0.25500000000E-02 0. -1.
          2   -1    0    0  501    0  0.00000000000E+00 -0.00000000000E+00 -0.85941578590E+03  0.85941578591E+03  0.25500000000E-02 0.  1.
    5000001    1    1    2    0    0  0.15390875408E+03 -0.10147594094E+03 -0.37421988004E+03  0.44860984139E+03  0.16500000000E+03 0.  0.
   -5000001    1    1    2    0    0 -0.15390875408E+03  0.10147594094E+03 -0.41384347836E+03  0.48215837206E+03  0.16500000000E+03 0.  0.
<mgrwt>
<rscale>  0 0.49526317E+03</rscale>
<asrwt>0</asrwt>
<pdfrwt beam="1">  1        2 0.12277368E+00 0.49526317E+03</pdfrwt>
<pdfrwt beam="2">  1       -2 0.10193204E-01 0.49526317E+03</pdfrwt>
<totfact> 0.23000848E+03</totfact>
</mgrwt>
</event>
<event>
 4    1  0.1049403E-004  0.4630771E+03  0.7818608E-02  0.1023893E+00
         -2   -1    0    0    0  501 -0.00000000000E+00  0.00000000000E+00  0.65218444113E+02  0.65218444163E+02  0.25500000000E-02 0. -1.
          2   -1    0    0  501    0  0.00000000000E+00 -0.00000000000E+00 -0.82200834157E+03  0.82200834157E+03  0.25500000000E-02 0.  1.
    5000001    1    1    2    0    0 -0.14441562085E+03  0.74221858382E+01 -0.52015029826E+03  0.56452838119E+03  0.16500000000E+03 0.  0.
   -5000001    1    1    2    0    0  0.14441562085E+03 -0.74221858382E+01 -0.23663959919E+03  0.32269840454E+03  0.16500000000E+03 0.  0.
<mgrwt>
<rscale>  0 0.46307712E+03</rscale>
<asrwt>0</asrwt>
<pdfrwt beam="1">  1        2 0.11742976E+00 0.46307712E+03</pdfrwt>
<pdfrwt beam="2">  1       -2 0.93169210E-02 0.46307712E+03</pdfrwt>
<totfact> 0.28143653E+03</totfact>
</mgrwt>
</event>
<event>
 4    1  0.1049403E-004  0.3676959E+03  0.7818608E-02  0.1055578E+00
          2   -1    0    0  501    0  0.00000000000E+00  0.00000000000E+00  0.27642264853E+04  0.27642264853E+04  0.25500000000E-02 0.  1.
         -2   -1    0    0    0  501 -0.00000000000E+00 -0.00000000000E+00 -0.12227673734E+02  0.12227674000E+02  0.25500000000E-02 0. -1.
    5000001    1    1    2    0    0  0.61437726256E+02  0.29556048726E+02  0.10445387302E+04  0.10596859502E+04  0.16500000000E+03 0.  0.
   -5000001    1    1    2    0    0 -0.61437726256E+02 -0.29556048726E+02  0.17074600814E+04  0.17167682091E+04  0.16500000000E+03 0.  0.
<mgrwt>
<rscale>  0 0.36769585E+03</rscale>
<asrwt>0</asrwt>
<pdfrwt beam="1">  1        2 0.39488946E+00 0.36769585E+03</pdfrwt>
<pdfrwt beam="2">  1       -2 0.17468107E-02 0.36769585E+03</pdfrwt>
<totfact> 0.34581515E+03</totfact>
</mgrwt>
</event>
<event>
 4    1  0.1049403E-004  0.5451649E+03  0.7818608E-02  0.1002619E+00
         -2   -1    0    0    0  501 -0.00000000000E+00  0.00000000000E+00  0.44022503215E+02  0.44022503289E+02  0.25500000000E-02 0. -1.
          2   -1    0    0  501    0  0.00000000000E+00 -0.00000000000E+00 -0.16878000056E+04  0.16878000056E+04  0.25500000000E-02 0.  1.
    5000001    1    1    2    0    0  0.72120234922E+02  0.19956921259E+03 -0.96561383600E+03  0.10023294265E+04  0.16500000000E+03 0.  0.
   -5000001    1    1    2    0    0 -0.72120234922E+02 -0.19956921259E+03 -0.67816366642E+03  0.72949308245E+03  0.16500000000E+03 0.  0.
<mgrwt>
<rscale>  0 0.54516486E+03</rscale>
<asrwt>0</asrwt>
<pdfrwt beam="1">  1        2 0.24111425E+00 0.54516486E+03</pdfrwt>
<pdfrwt beam="2">  1       -2 0.62889301E-02 0.54516486E+03</pdfrwt>
<totfact> 0.17114350E+03</totfact>
</mgrwt>
</event>
<event>
 4    1  0.1049403E-004  0.4059519E+03  0.7818608E-02  0.1041738E+00
          2   -1    0    0  501    0  0.00000000000E+00  0.00000000000E+00  0.15428284398E+04  0.15428284398E+04  0.25500000000E-02 0.  1.
         -2   -1    0    0    0  501 -0.00000000000E+00 -0.00000000000E+00 -0.26703710619E+02  0.26703710740E+02  0.25500000000E-02 0. -1.
    5000001    1    1    2    0    0  0.81256220619E+02 -0.40605249179E+02  0.46557770601E+03  0.50223396936E+03  0.16500000000E+03 0.  0.
   -5000001    1    1    2    0    0 -0.81256220619E+02  0.40605249179E+02  0.10505470232E+04  0.10672981812E+04  0.16500000000E+03 0.  0.
<mgrwt>
<rscale>  0 0.40595194E+03</rscale>
<asrwt>0</asrwt>
<pdfrwt beam="1">  1        2 0.22040418E+00 0.40595194E+03</pdfrwt>
<pdfrwt beam="2">  1       -2 0.38148137E-02 0.40595194E+03</pdfrwt>
<totfact> 0.43938075E+03</totfact>
</mgrwt>
</event>
<event>
 4    1  0.1049403E-004  0.3599796E+03  0.7818608E-02  0.1058592E+00
         -2   -1    0    0    0  501 -0.00000000000E+00  0.00000000000E+00  0.54763069789E+03  0.54763069790E+03  0.25500000000E-02 0. -1.
          2   -1    0    0  501    0  0.00000000000E+00 -0.00000000000E+00 -0.59157258194E+02  0.59157258249E+02  0.25500000000E-02 0.  1.
    5000001    1    1    2    0    0  0.61831399405E+02  0.35546260328E+02  0.22872610410E+03  0.29090769889E+03  0.16500000000E+03 0.  0.
   -5000001    1    1    2    0    0 -0.61831399405E+02 -0.35546260328E+02  0.25974733559E+03  0.31588025726E+03  0.16500000000E+03 0.  0.
<mgrwt>
<rscale>  0 0.35997961E+03</rscale>
<asrwt>0</asrwt>
<pdfrwt beam="1">  1        2 0.84510369E-02 0.35997961E+03</pdfrwt>
<pdfrwt beam="2">  1       -2 0.78232957E-01 0.35997961E+03</pdfrwt>
<totfact> 0.11942691E+03</totfact>
</mgrwt>
</event>
<event>
 4    1  0.1049403E-004  0.4566354E+03  0.7818608E-02  0.1025762E+00
         -2   -1    0    0    0  501 -0.00000000000E+00  0.00000000000E+00  0.22964142250E+02  0.22964142392E+02  0.25500000000E-02 0. -1.
          2   -1    0    0  501    0  0.00000000000E+00 -0.00000000000E+00 -0.22700161167E+04  0.22700161167E+04  0.25500000000E-02 0.  1.
    5000001    1    1    2    0    0 -0.10151806562E+03 -0.64710622018E+02 -0.61117399907E+03  0.64440052715E+03  0.16500000000E+03 0.  0.
   -5000001    1    1    2    0    0  0.10151806562E+03  0.64710622018E+02 -0.16358779754E+04  0.16485797320E+04  0.16500000000E+03 0.  0.
<mgrwt>
<rscale>  0 0.45663540E+03</rscale>
<asrwt>0</asrwt>
<pdfrwt beam="1">  1        2 0.32428787E+00 0.45663540E+03</pdfrwt>
<pdfrwt beam="2">  1       -2 0.32805932E-02 0.45663540E+03</pdfrwt>
<totfact> 0.23900995E+03</totfact>
</mgrwt>
</event>
<event>
 4    1  0.1049403E-004  0.4102209E+03  0.7818608E-02  0.1040297E+00
          2   -1    0    0  501    0  0.00000000000E+00  0.00000000000E+00  0.28001396792E+03  0.28001396793E+03  0.25500000000E-02 0.  1.
         -2   -1    0    0    0  501 -0.00000000000E+00 -0.00000000000E+00 -0.15024355116E+03  0.15024355118E+03  0.25500000000E-02 0. -1.
    5000001    1    1    2    0    0  0.10628634390E+03 -0.50416083894E+02  0.31606533446E+02  0.20509154388E+03  0.16500000000E+03 0.  0.
   -5000001    1    1    2    0    0 -0.10628634390E+03  0.50416083894E+02  0.98163883312E+02  0.22516597523E+03  0.16500000000E+03 0.  0.
<mgrwt>
<rscale>  0 0.41022088E+03</rscale>
<asrwt>0</asrwt>
<pdfrwt beam="1">  1        2 0.40001995E-01 0.41022088E+03</pdfrwt>
<pdfrwt beam="2">  1       -2 0.21463365E-01 0.41022088E+03</pdfrwt>
<totfact> 0.23943172E+03</totfact>
</mgrwt>
</event>
<event>
 4    1  0.1049403E-004  0.9013454E+03  0.7818608E-02  0.9423901E-01
          2   -1    0    0  501    0  0.00000000000E+00  0.00000000000E+00  0.19864364871E+04  0.19864364871E+04  0.25500000000E-02 0. -1.
         -2   -1    0    0    0  501 -0.00000000000E+00 -0.00000000000E+00 -0.10224634134E+03  0.10224634137E+03  0.25500000000E-02 0.  1.
    5000001    1    1    2    0    0  0.11629454291E+03  0.39323372414E+03  0.11457492978E+04  0.12280568537E+04  0.16500000000E+03 0.  0.
   -5000001    1    1    2    0    0 -0.11629454291E+03 -0.39323372414E+03  0.73844084800E+03  0.86062597480E+03  0.16500000000E+03 0.  0.
<mgrwt>
<rscale>  0 0.90134536E+03</rscale>
<asrwt>0</asrwt>
<pdfrwt beam="1">  1        2 0.28377663E+00 0.90134536E+03</pdfrwt>
<pdfrwt beam="2">  1       -2 0.14606621E-01 0.90134536E+03</pdfrwt>
<totfact> 0.30148130E+02</totfact>
</mgrwt>
</event>
<event>
 4    1  0.1049403E-004  0.5517139E+03  0.7818608E-02  0.1001098E+00
         -2   -1    0    0    0  501 -0.00000000000E+00  0.00000000000E+00  0.42659296845E+02  0.42659296922E+02  0.25500000000E-02 0. -1.
          2   -1    0    0  501    0  0.00000000000E+00 -0.00000000000E+00 -0.17838330218E+04  0.17838330218E+04  0.25500000000E-02 0.  1.
    5000001    1    1    2    0    0  0.85499840078E+02 -0.19886475263E+03 -0.10191816961E+04  0.10548998730E+04  0.16500000000E+03 0.  0.
   -5000001    1    1    2    0    0 -0.85499840078E+02  0.19886475263E+03 -0.72199202883E+03  0.77159244565E+03  0.16500000000E+03 0.  0.
<mgrwt>
<rscale>  0 0.55171392E+03</rscale>
<asrwt>0</asrwt>
<pdfrwt beam="1">  1        2 0.25483324E+00 0.55171392E+03</pdfrwt>
<pdfrwt beam="2">  1       -2 0.60941864E-02 0.55171392E+03</pdfrwt>
<totfact> 0.16072706E+03</totfact>
</mgrwt>
</event>
<event>
 4    1  0.1049403E-004  0.4101564E+03  0.7818608E-02  0.1040319E+00
         -2   -1    0    0    0  501 -0.00000000000E+00  0.00000000000E+00  0.65140993326E+02  0.65140993376E+02  0.25500000000E-02 0. -1.
          2   -1    0    0  501    0  0.00000000000E+00 -0.00000000000E+00 -0.64563128365E+03  0.64563128365E+03  0.25500000000E-02 0.  1.
    5000001    1    1    2    0    0  0.10909385235E+03 -0.19395348637E+02 -0.37782954135E+03  0.42691663178E+03  0.16500000000E+03 0.  0.
   -5000001    1    1    2    0    0 -0.10909385235E+03  0.19395348637E+02 -0.20266074897E+03  0.28385564525E+03  0.16500000000E+03 0.  0.
<mgrwt>
<rscale>  0 0.41015638E+03</rscale>
<asrwt>0</asrwt>
<pdfrwt beam="1">  1        2 0.92233037E-01 0.41015638E+03</pdfrwt>
<pdfrwt beam="2">  1       -2 0.93058566E-02 0.41015638E+03</pdfrwt>
<totfact> 0.37862048E+03</totfact>
</mgrwt>
</event>
<event>
 4    1  0.1049403E-004  0.7301874E+03  0.7818608E-02  0.9666956E-01
         -2   -1    0    0    0  501 -0.00000000000E+00  0.00000000000E+00  0.82439146373E+02  0.82439146413E+02  0.25500000000E-02 0. -1.
          2   -1    0    0  501    0  0.00000000000E+00 -0.00000000000E+00 -0.16168702669E+04  0.16168702669E+04  0.25500000000E-02 0.  1.
    5000001    1    1    2    0    0 -0.21489456865E+03  0.96657346007E+02 -0.12904326309E+04  0.13221057798E+04  0.16500000000E+03 0.  0.
   -5000001    1    1    2    0    0  0.21489456865E+03 -0.96657346007E+02 -0.24399848962E+03  0.37720363348E+03  0.16500000000E+03 0.  0.
<mgrwt>
<rscale>  0 0.73018739E+03</rscale>
<asrwt>0</asrwt>
<pdfrwt beam="1">  1        2 0.23098145E+00 0.73018739E+03</pdfrwt>
<pdfrwt beam="2">  1       -2 0.11777022E-01 0.73018739E+03</pdfrwt>
<totfact> 0.67402891E+02</totfact>
</mgrwt>
</event>
<event>
 4    1  0.1049403E-004  0.6509386E+03  0.7818608E-02  0.9805019E-01
         -2   -1    0    0    0  501 -0.00000000000E+00  0.00000000000E+00  0.17774529737E+03  0.17774529739E+03  0.25500000000E-02 0. -1.
          2   -1    0    0  501    0  0.00000000000E+00 -0.00000000000E+00 -0.59596668755E+03  0.59596668756E+03  0.25500000000E-02 0.  1.
    5000001    1    1    2    0    0  0.19498075809E+03  0.19457129108E+03 -0.14588165437E+03  0.35267823922E+03  0.16500000000E+03 0.  0.
   -5000001    1    1    2    0    0 -0.19498075809E+03 -0.19457129108E+03 -0.27233973581E+03  0.42103374572E+03  0.16500000000E+03 0.  0.
<mgrwt>
<rscale>  0 0.65093863E+03</rscale>
<asrwt>0</asrwt>
<pdfrwt beam="1">  1        2 0.85138097E-01 0.65093863E+03</pdfrwt>
<pdfrwt beam="2">  1       -2 0.25392186E-01 0.65093863E+03</pdfrwt>
<totfact> 0.76477409E+02</totfact>
</mgrwt>
</event>
<event>
 4    1  0.1049403E-004  0.3989685E+03  0.7818608E-02  0.1044137E+00
          2   -1    0    0  501    0  0.00000000000E+00  0.00000000000E+00  0.86056770365E+03  0.86056770365E+03  0.25500000000E-02 0.  1.
         -2   -1    0    0    0  501 -0.00000000000E+00 -0.00000000000E+00 -0.46241525157E+02  0.46241525227E+02  0.25500000000E-02 0. -1.
    5000001    1    1    2    0    0  0.32562133982E+01 -0.11062410232E+03  0.36646206926E+03  0.41685458273E+03  0.16500000000E+03 0.  0.
   -5000001    1    1    2    0    0 -0.32562133982E+01  0.11062410232E+03  0.44786410924E+03  0.48995464615E+03  0.16500000000E+03 0.  0.
<mgrwt>
<rscale>  0 0.39896849E+03</rscale>
<asrwt>0</asrwt>
<pdfrwt beam="1">  1        2 0.12293824E+00 0.39896849E+03</pdfrwt>
<pdfrwt beam="2">  1       -2 0.66059326E-02 0.39896849E+03</pdfrwt>
<totfact> 0.45603177E+03</totfact>
</mgrwt>
</event>
<event>
 4    1  0.1049403E-004  0.5916987E+03  0.7818608E-02  0.9922780E-01
         -2   -1    0    0    0  501 -0.00000000000E+00  0.00000000000E+00  0.41208955762E+02  0.41208955841E+02  0.25500000000E-02 0. -1.
          2   -1    0    0  501    0  0.00000000000E+00 -0.00000000000E+00 -0.21239764296E+04  0.21239764296E+04  0.25500000000E-02 0.  1.
    5000001    1    1    2    0    0  0.17527767801E+03  0.12678088911E+03 -0.61611749581E+03  0.67351423659E+03  0.16500000000E+03 0.  0.
   -5000001    1    1    2    0    0 -0.17527767801E+03 -0.12678088911E+03 -0.14666499781E+04  0.14916711489E+04  0.16500000000E+03 0.  0.
<mgrwt>
<rscale>  0 0.59169874E+03</rscale>
<asrwt>0</asrwt>
<pdfrwt beam="1">  1        2 0.30342513E+00 0.59169874E+03</pdfrwt>
<pdfrwt beam="2">  1       -2 0.58869950E-02 0.59169874E+03</pdfrwt>
<totfact> 0.11427017E+03</totfact>
</mgrwt>
</event>
<event>
 4    1  0.1049403E-004  0.4062651E+03  0.7818608E-02  0.1041632E+00
          2   -1    0    0  501    0  0.00000000000E+00  0.00000000000E+00  0.11036979824E+04  0.11036979824E+04  0.25500000000E-02 0.  1.
         -2   -1    0    0    0  501 -0.00000000000E+00 -0.00000000000E+00 -0.37385979017E+02  0.37385979104E+02  0.25500000000E-02 0. -1.
    5000001    1    1    2    0    0 -0.59121042591E+02 -0.68406689837E+02  0.74822120631E+03  0.77151457955E+03  0.16500000000E+03 0.  0.
   -5000001    1    1    2    0    0  0.59121042591E+02  0.68406689837E+02  0.31809079704E+03  0.36956938192E+03  0.16500000000E+03 0.  0.
<mgrwt>
<rscale>  0 0.40626508E+03</rscale>
<asrwt>0</asrwt>
<pdfrwt beam="1">  1        2 0.15767116E+00 0.40626508E+03</pdfrwt>
<pdfrwt beam="2">  1       -2 0.53408536E-02 0.40626508E+03</pdfrwt>
<totfact> 0.45122728E+03</totfact>
</mgrwt>
</event>
<event>
 4    1  0.1049403E-004  0.6152831E+03  0.7818608E-02  0.9874196E-01
          2   -1    0    0  501    0  0.00000000000E+00  0.00000000000E+00  0.22645003096E+03  0.22645003098E+03  0.25500000000E-02 0.  1.
         -2   -1    0    0    0  501 -0.00000000000E+00 -0.00000000000E+00 -0.41794346341E+03  0.41794346342E+03  0.25500000000E-02 0. -1.
    5000001    1    1    2    0    0  0.18745298497E+03  0.17546096635E+03 -0.13621605957E+03  0.33422296027E+03  0.16500000000E+03 0.  0.
   -5000001    1    1    2    0    0 -0.18745298497E+03 -0.17546096635E+03 -0.55277372876E+02  0.31017053413E+03  0.16500000000E+03 0.  0.
<mgrwt>
<rscale>  0 0.61528306E+03</rscale>
<asrwt>0</asrwt>
<pdfrwt beam="1">  1        2 0.32350005E-01 0.61528306E+03</pdfrwt>
<pdfrwt beam="2">  1       -2 0.59706208E-01 0.61528306E+03</pdfrwt>
<totfact> 0.43146173E+02</totfact>
</mgrwt>
</event>
<event>
 4    1  0.1049403E-004  0.4969575E+03  0.7818608E-02  0.1014576E+00
          2   -1    0    0  501    0  0.00000000000E+00  0.00000000000E+00  0.13568171501E+04  0.13568171501E+04  0.25500000000E-02 0.  1.
         -2   -1    0    0    0  501 -0.00000000000E+00 -0.00000000000E+00 -0.45504798503E+02  0.45504798575E+02  0.25500000000E-02 0. -1.
    5000001    1    1    2    0    0  0.10575147382E+03 -0.75438572605E+01  0.22514299994E+03  0.29858776669E+03  0.16500000000E+03 0.  0.
   -5000001    1    1    2    0    0 -0.10575147382E+03  0.75438572605E+01  0.10861693517E+04  0.11037341820E+04  0.16500000000E+03 0.  0.
<mgrwt>
<rscale>  0 0.49695751E+03</rscale>
<asrwt>0</asrwt>
<pdfrwt beam="1">  1        2 0.19383099E+00 0.49695751E+03</pdfrwt>
<pdfrwt beam="2">  1       -2 0.65006865E-02 0.49695751E+03</pdfrwt>
<totfact> 0.24139623E+03</totfact>
</mgrwt>
</event>
<event>
 4    1  0.1049403E-004  0.8220763E+03  0.7818608E-02  0.9528601E-01
         -2   -1    0    0    0  501 -0.00000000000E+00  0.00000000000E+00  0.72576642562E+03  0.72576642563E+03  0.25500000000E-02 0. -1.
          2   -1    0    0  501    0  0.00000000000E+00 -0.00000000000E+00 -0.23279163528E+03  0.23279163529E+03  0.25500000000E-02 0.  1.
    5000001    1    1    2    0    0  0.33612817833E+03  0.79989141926E+02  0.72180198877E+02  0.38963495249E+03  0.16500000000E+03 0.  0.
   -5000001    1    1    2    0    0 -0.33612817833E+03 -0.79989141926E+02  0.42079459147E+03  0.56892310843E+03  0.16500000000E+03 0.  0.
<mgrwt>
<rscale>  0 0.82207628E+03</rscale>
<asrwt>0</asrwt>
<pdfrwt beam="1">  1        2 0.33255948E-01 0.82207628E+03</pdfrwt>
<pdfrwt beam="2">  1       -2 0.10368092E+00 0.82207628E+03</pdfrwt>
<totfact> 0.12081713E+02</totfact>
</mgrwt>
</event>
<event>
 4    1  0.1049403E-004  0.4295389E+03  0.7818608E-02  0.1034006E+00
         -2   -1    0    0    0  501 -0.00000000000E+00  0.00000000000E+00  0.49934217699E+02  0.49934217764E+02  0.25500000000E-02 0. -1.
          2   -1    0    0  501    0  0.00000000000E+00 -0.00000000000E+00 -0.92373353964E+03  0.92373353964E+03  0.25500000000E-02 0.  1.
    5000001    1    1    2    0    0 -0.52536429555E+02  0.12301993806E+03 -0.50882931549E+03  0.55138575779E+03  0.16500000000E+03 0.  0.
   -5000001    1    1    2    0    0  0.52536429555E+02 -0.12301993806E+03 -0.36497000644E+03  0.42228199961E+03  0.16500000000E+03 0.  0.
<mgrwt>
<rscale>  0 0.42953888E+03</rscale>
<asrwt>0</asrwt>
<pdfrwt beam="1">  1        2 0.13196192E+00 0.42953888E+03</pdfrwt>
<pdfrwt beam="2">  1       -2 0.71334603E-02 0.42953888E+03</pdfrwt>
<totfact> 0.36879020E+03</totfact>
</mgrwt>
</event>
<event>
 4    1  0.1049403E-004  0.7796506E+03  0.7818608E-02  0.9589948E-01
          2   -1    0    0  501    0  0.00000000000E+00  0.00000000000E+00  0.13464802407E+04  0.13464802407E+04  0.25500000000E-02 0.  1.
         -2   -1    0    0    0  501 -0.00000000000E+00 -0.00000000000E+00 -0.11286000771E+03  0.11286000774E+03  0.25500000000E-02 0. -1.
    5000001    1    1    2    0    0 -0.35027563668E+03 -0.28523293027E+02  0.55110609754E+03  0.67412871964E+03  0.16500000000E+03 0.  0.
   -5000001    1    1    2    0    0  0.35027563668E+03  0.28523293027E+02  0.68251413548E+03  0.78521152884E+03  0.16500000000E+03 0.  0.
<mgrwt>
<rscale>  0 0.77965062E+03</rscale>
<asrwt>0</asrwt>
<pdfrwt beam="1">  1        2 0.19235431E+00 0.77965062E+03</pdfrwt>
<pdfrwt beam="2">  1       -2 0.16122859E-01 0.77965062E+03</pdfrwt>
<totfact> 0.55166338E+02</totfact>
</mgrwt>
</event>
<event>
 4    1  0.1049403E-004  0.3582839E+03  0.7818608E-02  0.1059265E+00
          2   -1    0    0  501    0  0.00000000000E+00  0.00000000000E+00  0.64228276361E+03  0.64228276361E+03  0.25500000000E-02 0.  1.
         -2   -1    0    0    0  501 -0.00000000000E+00 -0.00000000000E+00 -0.49965291551E+02  0.49965291616E+02  0.25500000000E-02 0. -1.
    5000001    1    1    2    0    0  0.26176164263E+01  0.57925233851E+02  0.37110564475E+03  0.41025185459E+03  0.16500000000E+03 0.  0.
   -5000001    1    1    2    0    0 -0.26176164263E+01 -0.57925233851E+02  0.22121182731E+03  0.28199620064E+03  0.16500000000E+03 0.  0.
<mgrwt>
<rscale>  0 0.35828394E+03</rscale>
<asrwt>0</asrwt>
<pdfrwt beam="1">  1        2 0.91754677E-01 0.35828394E+03</pdfrwt>
<pdfrwt beam="2">  1       -2 0.71378990E-02 0.35828394E+03</pdfrwt>
<totfact> 0.57746828E+03</totfact>
</mgrwt>
</event>
<event>
 4    1  0.1049403E-004  0.1062066E+04  0.7818608E-02  0.9242975E-01
         -2   -1    0    0    0  501 -0.00000000000E+00  0.00000000000E+00  0.12583759070E+03  0.12583759072E+03  0.25500000000E-02 0. -1.
          2   -1    0    0  501    0  0.00000000000E+00 -0.00000000000E+00 -0.22409505914E+04  0.22409505914E+04  0.25500000000E-02 0.  1.
    5000001    1    1    2    0    0  0.26569213569E+03 -0.33852568113E+03 -0.16453797529E+04  0.17087104726E+04  0.16500000000E+03 0.  0.
   -5000001    1    1    2    0    0 -0.26569213569E+03  0.33852568113E+03 -0.46973324778E+03  0.65807770956E+03  0.16500000000E+03 0.  0.
<mgrwt>
<rscale>  0 0.10620656E+04</rscale>
<asrwt>0</asrwt>
<pdfrwt beam="1">  1        2 0.32013577E+00 0.10620656E+04</pdfrwt>
<pdfrwt beam="2">  1       -2 0.17976800E-01 0.10620656E+04</pdfrwt>
<totfact> 0.15490135E+02</totfact>
</mgrwt>
</event>
<event>
 4    1  0.1049403E-004  0.4413235E+03  0.7818608E-02  0.1030342E+00
         -2   -1    0    0    0  501 -0.00000000000E+00  0.00000000000E+00  0.26009122381E+03  0.26009122382E+03  0.25500000000E-02 0. -1.
          2   -1    0    0  501    0  0.00000000000E+00 -0.00000000000E+00 -0.18720969276E+03  0.18720969277E+03  0.25500000000E-02 0.  1.
    5000001    1    1    2    0    0  0.10163280942E+03  0.10497981011E+03  0.47385619595E+02  0.22543377170E+03  0.16500000000E+03 0.  0.
   -5000001    1    1    2    0    0 -0.10163280942E+03 -0.10497981011E+03  0.25495911457E+02  0.22186714489E+03  0.16500000000E+03 0.  0.
<mgrwt>
<rscale>  0 0.44132346E+03</rscale>
<asrwt>0</asrwt>
<pdfrwt beam="1">  1        2 0.26744242E-01 0.44132346E+03</pdfrwt>
<pdfrwt beam="2">  1       -2 0.37155889E-01 0.44132346E+03</pdfrwt>
<totfact> 0.13794865E+03</totfact>
</mgrwt>
</event>
<event>
 4    1  0.1049403E-004  0.4700100E+03  0.7818608E-02  0.1021917E+00
          2   -1    0    0  501    0  0.00000000000E+00  0.00000000000E+00  0.91907767615E+03  0.91907767616E+03  0.25500000000E-02 0.  1.
         -2   -1    0    0    0  501 -0.00000000000E+00 -0.00000000000E+00 -0.60089965860E+02  0.60089965914E+02  0.25500000000E-02 0. -1.
    5000001    1    1    2    0    0 -0.15417211556E+03 -0.41169867001E+02  0.32453345694E+03  0.39750592931E+03  0.16500000000E+03 0.  0.
   -5000001    1    1    2    0    0  0.15417211556E+03  0.41169867001E+02  0.53445425335E+03  0.58166171276E+03  0.16500000000E+03 0.  0.
<mgrwt>
<rscale>  0 0.47000998E+03</rscale>
<asrwt>0</asrwt>
<pdfrwt beam="1">  1        2 0.13129681E+00 0.47000998E+03</pdfrwt>
<pdfrwt beam="2">  1       -2 0.85842806E-02 0.47000998E+03</pdfrwt>
<totfact> 0.27725700E+03</totfact>
</mgrwt>
</event>
<event>
 4    1  0.1049403E-004  0.5151342E+03  0.7818608E-02  0.1009902E+00
          2   -1    0    0  501    0  0.00000000000E+00  0.00000000000E+00  0.13612741734E+04  0.13612741734E+04  0.25500000000E-02 0.  1.
         -2   -1    0    0    0  501 -0.00000000000E+00 -0.00000000000E+00 -0.48734356881E+02  0.48734356947E+02  0.25500000000E-02 0. -1.
    5000001    1    1    2    0    0  0.65639650999E+01  0.19136376300E+03  0.79182591189E+03  0.83118977987E+03  0.16500000000E+03 0.  0.
   -5000001    1    1    2    0    0 -0.65639650999E+01 -0.19136376300E+03  0.52071390462E+03  0.57881875047E+03  0.16500000000E+03 0.  0.
<mgrwt>
<rscale>  0 0.51513424E+03</rscale>
<asrwt>0</asrwt>
<pdfrwt beam="1">  1        2 0.19446770E+00 0.51513424E+03</pdfrwt>
<pdfrwt beam="2">  1       -2 0.69620522E-02 0.51513424E+03</pdfrwt>
<totfact> 0.21550986E+03</totfact>
</mgrwt>
</event>
<event>
 4    1  0.1049403E-004  0.5110288E+03  0.7818608E-02  0.1010940E+00
         -2   -1    0    0    0  501 -0.00000000000E+00  0.00000000000E+00  0.28324829025E+02  0.28324829140E+02  0.25500000000E-02 0. -1.
          2   -1    0    0  501    0  0.00000000000E+00 -0.00000000000E+00 -0.23049604111E+04  0.23049604111E+04  0.25500000000E-02 0.  1.
    5000001    1    1    2    0    0  0.13472061542E+02  0.16400014525E+03 -0.65977169080E+03  0.69971510493E+03  0.16500000000E+03 0.  0.
   -5000001    1    1    2    0    0 -0.13472061542E+02 -0.16400014525E+03 -0.16168638913E+04  0.16335701353E+04  0.16500000000E+03 0.  0.
<mgrwt>
<rscale>  0 0.51102880E+03</rscale>
<asrwt>0</asrwt>
<pdfrwt beam="1">  1        2 0.32927994E+00 0.51102880E+03</pdfrwt>
<pdfrwt beam="2">  1       -2 0.40464056E-02 0.51102880E+03</pdfrwt>
<totfact> 0.16629035E+03</totfact>
</mgrwt>
</event>
<event>
 4    1  0.1049403E-004  0.5390004E+03  0.7818608E-02  0.1004072E+00
          2   -1    0    0  501    0  0.00000000000E+00  0.00000000000E+00  0.12762198553E+04  0.12762198553E+04  0.25500000000E-02 0.  1.
         -2   -1    0    0    0  501 -0.00000000000E+00 -0.00000000000E+00 -0.56910532272E+02  0.56910532329E+02  0.25500000000E-02 0. -1.
    5000001    1    1    2    0    0  0.19831463419E+03  0.23416351230E+01  0.41693771906E+03  0.49030219148E+03  0.16500000000E+03 0.  0.
   -5000001    1    1    2    0    0 -0.19831463419E+03 -0.23416351230E+01  0.80237160395E+03  0.84282819615E+03  0.16500000000E+03 0.  0.
<mgrwt>
<rscale>  0 0.53900038E+03</rscale>
<asrwt>0</asrwt>
<pdfrwt beam="1">  1        2 0.18231710E+00 0.53900038E+03</pdfrwt>
<pdfrwt beam="2">  1       -2 0.81300770E-02 0.53900038E+03</pdfrwt>
<totfact> 0.18727218E+03</totfact>
</mgrwt>
</event>
<event>
 4    1  0.1049403E-004  0.4360057E+03  0.7818608E-02  0.1031979E+00
          2   -1    0    0  501    0  0.00000000000E+00  0.00000000000E+00  0.10709879222E+04  0.10709879222E+04  0.25500000000E-02 0.  1.
         -2   -1    0    0    0  501 -0.00000000000E+00 -0.00000000000E+00 -0.44375136040E+02  0.44375136113E+02  0.25500000000E-02 0. -1.
    5000001    1    1    2    0    0  0.97611117801E+02  0.10327814902E+03  0.48697763694E+03  0.53344777182E+03  0.16500000000E+03 0.  0.
   -5000001    1    1    2    0    0 -0.97611117801E+02 -0.10327814902E+03  0.53963514923E+03  0.58191528650E+03  0.16500000000E+03 0.  0.
<mgrwt>
<rscale>  0 0.43600566E+03</rscale>
<asrwt>0</asrwt>
<pdfrwt beam="1">  1        2 0.15299828E+00 0.43600566E+03</pdfrwt>
<pdfrwt beam="2">  1       -2 0.63393050E-02 0.43600566E+03</pdfrwt>
<totfact> 0.36153950E+03</totfact>
</mgrwt>
</event>
<event>
 4    1  0.1049403E-004  0.6178680E+03  0.7818608E-02  0.9869014E-01
         -2   -1    0    0    0  501 -0.00000000000E+00  0.00000000000E+00  0.77956869920E+02  0.77956869962E+02  0.25500000000E-02 0. -1.
          2   -1    0    0  501    0  0.00000000000E+00 -0.00000000000E+00 -0.12242694784E+04  0.12242694784E+04  0.25500000000E-02 0.  1.
    5000001    1    1    2    0    0  0.23022064614E+03 -0.12218756957E+03 -0.60866619401E+03  0.68237151450E+03  0.16500000000E+03 0.  0.
   -5000001    1    1    2    0    0 -0.23022064614E+03  0.12218756957E+03 -0.53764641443E+03  0.61985483383E+03  0.16500000000E+03 0.  0.
<mgrwt>
<rscale>  0 0.61786800E+03</rscale>
<asrwt>0</asrwt>
<pdfrwt beam="1">  1        2 0.17489563E+00 0.61786800E+03</pdfrwt>
<pdfrwt beam="2">  1       -2 0.11136696E-01 0.61786800E+03</pdfrwt>
<totfact> 0.12015744E+03</totfact>
</mgrwt>
</event>
<event>
 4    1  0.1049403E-004  0.9689590E+03  0.7818608E-02  0.9343261E-01
         -2   -1    0    0    0  501 -0.00000000000E+00  0.00000000000E+00  0.14761972599E+03  0.14761972602E+03  0.25500000000E-02 0. -1.
          2   -1    0    0  501    0  0.00000000000E+00 -0.00000000000E+00 -0.15900341568E+04  0.15900341568E+04  0.25500000000E-02 0.  1.
    5000001    1    1    2    0    0  0.15399301007E+02 -0.34953021881E+03 -0.12443126006E+04  0.13030530919E+04  0.16500000000E+03 0.  0.
   -5000001    1    1    2    0    0 -0.15399301007E+02  0.34953021881E+03 -0.19810183021E+03  0.43460079091E+03  0.16500000000E+03 0.  0.
<mgrwt>
<rscale>  0 0.96895904E+03</rscale>
<asrwt>0</asrwt>
<pdfrwt beam="1">  1        2 0.22714773E+00 0.96895904E+03</pdfrwt>
<pdfrwt beam="2">  1       -2 0.21088533E-01 0.96895904E+03</pdfrwt>
<totfact> 0.25443065E+02</totfact>
</mgrwt>
</event>
<event>
 4    1  0.1049403E-004  0.7140607E+03  0.7818608E-02  0.9693484E-01
          2   -1    0    0  501    0  0.00000000000E+00  0.00000000000E+00  0.89508350840E+03  0.89508350841E+03  0.25500000000E-02 0.  1.
         -2   -1    0    0    0  501 -0.00000000000E+00 -0.00000000000E+00 -0.14241205389E+03  0.14241205391E+03  0.25500000000E-02 0. -1.
    5000001    1    1    2    0    0 -0.31375848318E+03  0.18430489052E+02  0.43188356686E+03  0.55904604821E+03  0.16500000000E+03 0.  0.
   -5000001    1    1    2    0    0  0.31375848318E+03 -0.18430489052E+02  0.32078788765E+03  0.47844951411E+03  0.16500000000E+03 0.  0.
<mgrwt>
<rscale>  0 0.71406073E+03</rscale>
<asrwt>0</asrwt>
<pdfrwt beam="1">  1        2 0.12786907E+00 0.71406073E+03</pdfrwt>
<pdfrwt beam="2">  1       -2 0.20344579E-01 0.71406073E+03</pdfrwt>
<totfact> 0.68079595E+02</totfact>
</mgrwt>
</event>
<event>
 4    1  0.1049403E-004  0.8919867E+03  0.7818608E-02  0.9435654E-01
         -2   -1    0    0    0  501 -0.00000000000E+00  0.00000000000E+00  0.59511255831E+02  0.59511255886E+02  0.25500000000E-02 0. -1.
          2   -1    0    0  501    0  0.00000000000E+00 -0.00000000000E+00 -0.33423942308E+04  0.33423942308E+04  0.25500000000E-02 0.  1.
    5000001    1    1    2    0    0 -0.12115701221E+03  0.34612542403E+03 -0.90582021502E+03  0.99106866195E+03  0.16500000000E+03 0.  0.
   -5000001    1    1    2    0    0  0.12115701221E+03 -0.34612542403E+03 -0.23770627599E+04  0.24108368247E+04  0.16500000000E+03 0.  0.
<mgrwt>
<rscale>  0 0.89198672E+03</rscale>
<asrwt>0</asrwt>
<pdfrwt beam="1">  1        2 0.47748477E+00 0.89198672E+03</pdfrwt>
<pdfrwt beam="2">  1       -2 0.85016101E-02 0.89198672E+03</pdfrwt>
<totfact> 0.13926809E+02</totfact>
</mgrwt>
</event>
<event>
 4    1  0.1049403E-004  0.4109692E+03  0.7818608E-02  0.1040046E+00
         -2   -1    0    0    0  501 -0.00000000000E+00  0.00000000000E+00  0.81644102121E+02  0.81644102161E+02  0.25500000000E-02 0. -1.
          2   -1    0    0  501    0  0.00000000000E+00 -0.00000000000E+00 -0.51717053900E+03  0.51717053901E+03  0.25500000000E-02 0.  1.
    5000001    1    1    2    0    0  0.11214596616E+03 -0.34531816314E+02 -0.16666646076E+03  0.26224391929E+03  0.16500000000E+03 0.  0.
   -5000001    1    1    2    0    0 -0.11214596616E+03  0.34531816314E+02 -0.26885997612E+03  0.33657072187E+03  0.16500000000E+03 0.  0.
<mgrwt>
<rscale>  0 0.41096922E+03</rscale>
<asrwt>0</asrwt>
<pdfrwt beam="1">  1        2 0.73881504E-01 0.41096922E+03</pdfrwt>
<pdfrwt beam="2">  1       -2 0.11663443E-01 0.41096922E+03</pdfrwt>
<totfact> 0.33978743E+03</totfact>
</mgrwt>
</event>
<event>
 4    1  0.1049403E-004  0.7350592E+03  0.7818608E-02  0.9659086E-01
         -2   -1    0    0    0  501 -0.00000000000E+00  0.00000000000E+00  0.59102933042E+02  0.59102933097E+02  0.25500000000E-02 0. -1.
          2   -1    0    0  501    0  0.00000000000E+00 -0.00000000000E+00 -0.22854705018E+04  0.22854705018E+04  0.25500000000E-02 0.  1.
    5000001    1    1    2    0    0 -0.13235833715E+03 -0.87346016546E+02 -0.20304750952E+04  0.20433311450E+04  0.16500000000E+03 0.  0.
   -5000001    1    1    2    0    0  0.13235833715E+03  0.87346016546E+02 -0.19589247362E+03  0.30124228993E+03  0.16500000000E+03 0.  0.
<mgrwt>
<rscale>  0 0.73505921E+03</rscale>
<asrwt>0</asrwt>
<pdfrwt beam="1">  1        2 0.32649573E+00 0.73505921E+03</pdfrwt>
<pdfrwt beam="2">  1       -2 0.84432776E-02 0.73505921E+03</pdfrwt>
<totfact> 0.52971706E+02</totfact>
</mgrwt>
</event>
<event>
 4    1  0.1049403E-004  0.4878154E+03  0.7818608E-02  0.1017009E+00
          2   -1    0    0  501    0  0.00000000000E+00  0.00000000000E+00  0.56231459182E+03  0.56231459182E+03  0.25500000000E-02 0.  1.
         -2   -1    0    0    0  501 -0.00000000000E+00 -0.00000000000E+00 -0.10579658774E+03  0.10579658777E+03  0.25500000000E-02 0. -1.
    5000001    1    1    2    0    0 -0.70255373867E+02 -0.14274211607E+03  0.11404044299E+03  0.25601045270E+03  0.16500000000E+03 0.  0.
   -5000001    1    1    2    0    0  0.70255373867E+02  0.14274211607E+03  0.34247756109E+03  0.41210072690E+03  0.16500000000E+03 0.  0.
<mgrwt>
<rscale>  0 0.48781540E+03</rscale>
<asrwt>0</asrwt>
<pdfrwt beam="1">  1        2 0.80330657E-01 0.48781540E+03</pdfrwt>
<pdfrwt beam="2">  1       -2 0.15113798E-01 0.48781540E+03</pdfrwt>
<totfact> 0.20167785E+03</totfact>
</mgrwt>
</event>
<event>
 4    1  0.1049403E-004  0.1260431E+04  0.7818608E-02  0.9061546E-01
         -2   -1    0    0    0  501 -0.00000000000E+00  0.00000000000E+00  0.15353231910E+03  0.15353231913E+03  0.25500000000E-02 0. -1.
          2   -1    0    0  501    0  0.00000000000E+00 -0.00000000000E+00 -0.25868937158E+04  0.25868937158E+04  0.25500000000E-02 0.  1.
    5000001    1    1    2    0    0  0.30635536202E+03  0.22957036320E+03 -0.18906348687E+03  0.45774027741E+03  0.16500000000E+03 0.  0.
   -5000001    1    1    2    0    0 -0.30635536202E+03 -0.22957036320E+03 -0.22442979099E+04  0.22826857576E+04  0.16500000000E+03 0.  0.
<mgrwt>
<rscale>  0 0.12604313E+04</rscale>
<asrwt>0</asrwt>
<pdfrwt beam="1">  1        2 0.36955622E+00 0.12604313E+04</pdfrwt>
<pdfrwt beam="2">  1       -2 0.21933190E-01 0.12604313E+04</pdfrwt>
<totfact> 0.71075482E+01</totfact>
</mgrwt>
</event>
<event>
 4    1  0.1049403E-004  0.6578944E+03  0.7818608E-02  0.9792078E-01
          2   -1    0    0  501    0  0.00000000000E+00  0.00000000000E+00  0.90358682191E+03  0.90358682191E+03  0.25500000000E-02 0.  1.
         -2   -1    0    0    0  501 -0.00000000000E+00 -0.00000000000E+00 -0.11975193983E+03  0.11975193986E+03  0.25500000000E-02 0. -1.
    5000001    1    1    2    0    0 -0.25737257825E+03 -0.11182912713E+03  0.46545175118E+03  0.56799360065E+03  0.16500000000E+03 0.  0.
   -5000001    1    1    2    0    0  0.25737257825E+03  0.11182912713E+03  0.31838313090E+03  0.45534516111E+03  0.16500000000E+03 0.  0.
<mgrwt>
<rscale>  0 0.65789444E+03</rscale>
<asrwt>0</asrwt>
<pdfrwt beam="1">  1        2 0.12908383E+00 0.65789444E+03</pdfrwt>
<pdfrwt beam="2">  1       -2 0.17107420E-01 0.65789444E+03</pdfrwt>
<totfact> 0.90878102E+02</totfact>
</mgrwt>
</event>
<event>
 4    1  0.1049403E-004  0.6299846E+03  0.7818608E-02  0.9845079E-01
          2   -1    0    0  501    0  0.00000000000E+00  0.00000000000E+00  0.38036332490E+03  0.38036332491E+03  0.25500000000E-02 0.  1.
         -2   -1    0    0    0  501 -0.00000000000E+00 -0.00000000000E+00 -0.26085621239E+03  0.26085621240E+03  0.25500000000E-02 0. -1.
    5000001    1    1    2    0    0 -0.54578203802E+00  0.26632656768E+03  0.92969850915E+02  0.32680044631E+03  0.16500000000E+03 0.  0.
   -5000001    1    1    2    0    0  0.54578203802E+00 -0.26632656768E+03  0.26537261596E+02  0.31441909100E+03  0.16500000000E+03 0.  0.
<mgrwt>
<rscale>  0 0.62998456E+03</rscale>
<asrwt>0</asrwt>
<pdfrwt beam="1">  1        2 0.54337618E-01 0.62998456E+03</pdfrwt>
<pdfrwt beam="2">  1       -2 0.37265173E-01 0.62998456E+03</pdfrwt>
<totfact> 0.62486507E+02</totfact>
</mgrwt>
</event>
<event>
 4    1  0.1049403E-004  0.4211674E+03  0.7818608E-02  0.1036687E+00
         -2   -1    0    0    0  501 -0.00000000000E+00  0.00000000000E+00  0.14713690144E+03  0.14713690146E+03  0.25500000000E-02 0. -1.
          2   -1    0    0  501    0  0.00000000000E+00 -0.00000000000E+00 -0.30138940096E+03  0.30138940097E+03  0.25500000000E-02 0.  1.
    5000001    1    1    2    0    0  0.83209838510E+02 -0.89768783172E+02 -0.12637059548E+03  0.24119875427E+03  0.16500000000E+03 0.  0.
   -5000001    1    1    2    0    0 -0.83209838510E+02  0.89768783172E+02 -0.27881904040E+02  0.20732754817E+03  0.16500000000E+03 0.  0.
<mgrwt>
<rscale>  0 0.42116744E+03</rscale>
<asrwt>0</asrwt>
<pdfrwt beam="1">  1        2 0.43055628E-01 0.42116744E+03</pdfrwt>
<pdfrwt beam="2">  1       -2 0.21019558E-01 0.42116744E+03</pdfrwt>
<totfact> 0.22921647E+03</totfact>
</mgrwt>
</event>
<event>
 4    1  0.1049403E-004  0.3461905E+03  0.7818608E-02  0.1064190E+00
         -2   -1    0    0    0  501 -0.00000000000E+00  0.00000000000E+00  0.48683371485E+02  0.48683371552E+02  0.25500000000E-02 0. -1.
          2   -1    0    0  501    0  0.00000000000E+00 -0.00000000000E+00 -0.61544548750E+03  0.61544548750E+03  0.25500000000E-02 0.  1.
    5000001    1    1    2    0    0  0.41644925820E+02  0.22046507973E+02 -0.32698441091E+03  0.36927517292E+03  0.16500000000E+03 0.  0.
   -5000001    1    1    2    0    0 -0.41644925820E+02 -0.22046507973E+02 -0.23977770510E+03  0.29485368613E+03  0.16500000000E+03 0.  0.
<mgrwt>
<rscale>  0 0.34619048E+03</rscale>
<asrwt>0</asrwt>
<pdfrwt beam="1">  1        2 0.87920779E-01 0.34619048E+03</pdfrwt>
<pdfrwt beam="2">  1       -2 0.69547677E-02 0.34619048E+03</pdfrwt>
<totfact> 0.63150443E+03</totfact>
</mgrwt>
</event>
<event>
 4    1  0.1049403E-004  0.5736810E+03  0.7818608E-02  0.9961566E-01
         -2   -1    0    0    0  501 -0.00000000000E+00  0.00000000000E+00  0.35363565256E+02  0.35363565348E+02  0.25500000000E-02 0. -1.
          2   -1    0    0  501    0  0.00000000000E+00 -0.00000000000E+00 -0.23266167103E+04  0.23266167103E+04  0.25500000000E-02 0.  1.
    5000001    1    1    2    0    0 -0.18003463635E+03 -0.10879762783E+03 -0.71769002373E+03  0.76586771982E+03  0.16500000000E+03 0.  0.
   -5000001    1    1    2    0    0  0.18003463635E+03  0.10879762783E+03 -0.15735631213E+04  0.15961125558E+04  0.16500000000E+03 0.  0.
<mgrwt>
<rscale>  0 0.57368096E+03</rscale>
<asrwt>0</asrwt>
<pdfrwt beam="1">  1        2 0.33237372E+00 0.57368096E+03</pdfrwt>
<pdfrwt beam="2">  1       -2 0.50519394E-02 0.57368096E+03</pdfrwt>
<totfact> 0.11474839E+03</totfact>
</mgrwt>
</event>
<event>
 4    1  0.1049403E-004  0.6449660E+03  0.7818608E-02  0.9816271E-01
         -2   -1    0    0    0  501 -0.00000000000E+00  0.00000000000E+00  0.92551192038E+03  0.92551192038E+03  0.25500000000E-02 0. -1.
          2   -1    0    0  501    0  0.00000000000E+00 -0.00000000000E+00 -0.11236516407E+03  0.11236516410E+03  0.25500000000E-02 0.  1.
    5000001    1    1    2    0    0 -0.24698835070E+03 -0.11860098384E+03  0.47293902992E+03  0.57093411597E+03  0.16500000000E+03 0.  0.
   -5000001    1    1    2    0    0  0.24698835070E+03  0.11860098384E+03  0.34020772639E+03  0.46694296851E+03  0.16500000000E+03 0.  0.
<mgrwt>
<rscale>  0 0.64496604E+03</rscale>
<asrwt>0</asrwt>
<pdfrwt beam="1">  1        2 0.16052167E-01 0.64496604E+03</pdfrwt>
<pdfrwt beam="2">  1       -2 0.13221598E+00 0.64496604E+03</pdfrwt>
<totfact> 0.15572175E+02</totfact>
</mgrwt>
</event>
<event>
 4    1  0.1049403E-004  0.4688981E+03  0.7818608E-02  0.1022232E+00
         -2   -1    0    0    0  501 -0.00000000000E+00  0.00000000000E+00  0.22340760842E+03  0.22340760844E+03  0.25500000000E-02 0. -1.
          2   -1    0    0  501    0  0.00000000000E+00 -0.00000000000E+00 -0.24603616739E+03  0.24603616741E+03  0.25500000000E-02 0.  1.
    5000001    1    1    2    0    0 -0.12498007965E+03 -0.61610239365E+02  0.80036141403E+02  0.23031853124E+03  0.16500000000E+03 0.  0.
   -5000001    1    1    2    0    0  0.12498007965E+03  0.61610239365E+02 -0.10266470037E+03  0.23912524460E+03  0.16500000000E+03 0.  0.
<mgrwt>
<rscale>  0 0.46889808E+03</rscale>
<asrwt>0</asrwt>
<pdfrwt beam="1">  1        2 0.35148024E-01 0.46889808E+03</pdfrwt>
<pdfrwt beam="2">  1       -2 0.31915373E-01 0.46889808E+03</pdfrwt>
<totfact> 0.13545992E+03</totfact>
</mgrwt>
</event>
<event>
 4    1  0.1049403E-004  0.4634019E+03  0.7818608E-02  0.1023799E+00
          2   -1    0    0  501    0  0.00000000000E+00  0.00000000000E+00  0.31127342091E+04  0.31127342091E+04  0.25500000000E-02 0.  1.
         -2   -1    0    0    0  501 -0.00000000000E+00 -0.00000000000E+00 -0.17247001312E+02  0.17247001501E+02  0.25500000000E-02 0. -1.
    5000001    1    1    2    0    0 -0.96753696397E+02  0.11383877188E+03  0.19823268129E+04  0.19947844838E+04  0.16500000000E+03 0.  0.
   -5000001    1    1    2    0    0  0.96753696397E+02 -0.11383877188E+03  0.11131603949E+04  0.11351967268E+04  0.16500000000E+03 0.  0.
<mgrwt>
<rscale>  0 0.46340190E+03</rscale>
<asrwt>0</asrwt>
<pdfrwt beam="1">  1        2 0.44467650E+00 0.46340190E+03</pdfrwt>
<pdfrwt beam="2">  1       -2 0.24638563E-02 0.46340190E+03</pdfrwt>
<totfact> 0.13400696E+03</totfact>
</mgrwt>
</event>
<event>
 4    1  0.1049403E-004  0.4921827E+03  0.7818608E-02  0.1015840E+00
          2   -1    0    0  501    0  0.00000000000E+00  0.00000000000E+00  0.28662183936E+04  0.28662183936E+04  0.25500000000E-02 0.  1.
         -2   -1    0    0    0  501 -0.00000000000E+00 -0.00000000000E+00 -0.21129214609E+02  0.21129214763E+02  0.25500000000E-02 0. -1.
    5000001    1    1    2    0    0 -0.16043468582E+03  0.58319210403E+02  0.18025291220E+04  0.18180969871E+04  0.16500000000E+03 0.  0.
   -5000001    1    1    2    0    0  0.16043468582E+03 -0.58319210403E+02  0.10425600569E+04  0.10692506212E+04  0.16500000000E+03 0.  0.
<mgrwt>
<rscale>  0 0.49218266E+03</rscale>
<asrwt>0</asrwt>
<pdfrwt beam="1">  1        2 0.40945951E+00 0.49218266E+03</pdfrwt>
<pdfrwt beam="2">  1       -2 0.30184612E-02 0.49218266E+03</pdfrwt>
<totfact> 0.13368074E+03</totfact>
</mgrwt>
</event>
<event>
 4    1  0.1049403E-004  0.5635267E+03  0.7818608E-02  0.9984106E-01
          2   -1    0    0  501    0  0.00000000000E+00  0.00000000000E+00  0.17342124124E+03  0.17342124126E+03  0.25500000000E-02 0.  1.
         -2   -1    0    0    0  501 -0.00000000000E+00 -0.00000000000E+00 -0.45779039244E+03  0.45779039245E+03  0.25500000000E-02 0. -1.
    5000001    1    1    2    0    0 -0.18603536638E+03  0.10899013936E+03 -0.22658444379E+03  0.35362906864E+03  0.16500000000E+03 0.  0.
   -5000001    1    1    2    0    0  0.18603536638E+03 -0.10899013936E+03 -0.57784707408E+02  0.27758256507E+03  0.16500000000E+03 0.  0.
<mgrwt>
<rscale>  0 0.56352667E+03</rscale>
<asrwt>0</asrwt>
<pdfrwt beam="1">  1        2 0.24774463E-01 0.56352667E+03</pdfrwt>
<pdfrwt beam="2">  1       -2 0.65398627E-01 0.56352667E+03</pdfrwt>
<totfact> 0.48125157E+02</totfact>
</mgrwt>
</event>
<event>
 4    1  0.1049403E-004  0.6078068E+03  0.7818608E-02  0.9889340E-01
         -2   -1    0    0    0  501 -0.00000000000E+00  0.00000000000E+00  0.79770948618E+02  0.79770948658E+02  0.25500000000E-02 0. -1.
          2   -1    0    0  501    0  0.00000000000E+00 -0.00000000000E+00 -0.11577809442E+04  0.11577809442E+04  0.25500000000E-02 0.  1.
    5000001    1    1    2    0    0 -0.20233335842E+03  0.14094098966E+03 -0.40503783882E+03  0.50207947714E+03  0.16500000000E+03 0.  0.
   -5000001    1    1    2    0    0  0.20233335842E+03 -0.14094098966E+03 -0.67297215676E+03  0.73547241571E+03  0.16500000000E+03 0.  0.
<mgrwt>
<rscale>  0 0.60780683E+03</rscale>
<asrwt>0</asrwt>
<pdfrwt beam="1">  1        2 0.16539727E+00 0.60780683E+03</pdfrwt>
<pdfrwt beam="2">  1       -2 0.11395851E-01 0.60780683E+03</pdfrwt>
<totfact> 0.12616041E+03</totfact>
</mgrwt>
</event>
<event>
 4    1  0.1049403E-004  0.4762672E+03  0.7818608E-02  0.1020166E+00
          2   -1    0    0  501    0  0.00000000000E+00  0.00000000000E+00  0.89382385447E+02  0.89382385483E+02  0.25500000000E-02 0.  1.
         -2   -1    0    0    0  501 -0.00000000000E+00 -0.00000000000E+00 -0.63443841543E+03  0.63443841543E+03  0.25500000000E-02 0. -1.
    5000001    1    1    2    0    0 -0.93633834217E+02 -0.74550102385E+02 -0.45963744216E+03  0.50280870210E+03  0.16500000000E+03 0.  0.
   -5000001    1    1    2    0    0  0.93633834217E+02  0.74550102385E+02 -0.85418587819E+02  0.22101209881E+03  0.16500000000E+03 0.  0.
<mgrwt>
<rscale>  0 0.47626723E+03</rscale>
<asrwt>0</asrwt>
<pdfrwt beam="1">  1        2 0.12768913E-01 0.47626723E+03</pdfrwt>
<pdfrwt beam="2">  1       -2 0.90634057E-01 0.47626723E+03</pdfrwt>
<totfact> 0.51255406E+02</totfact>
</mgrwt>
</event>
<event>
 4    1  0.1049403E-004  0.4068603E+03  0.7818608E-02  0.1041430E+00
          2   -1    0    0  501    0  0.00000000000E+00  0.00000000000E+00  0.65646399906E+03  0.65646399907E+03  0.25500000000E-02 0.  1.
         -2   -1    0    0    0  501 -0.00000000000E+00 -0.00000000000E+00 -0.63040520411E+02  0.63040520463E+02  0.25500000000E-02 0. -1.
    5000001    1    1    2    0    0 -0.11541758075E+03 -0.49125582709E+01  0.24627327217E+03  0.31815228391E+03  0.16500000000E+03 0.  0.
   -5000001    1    1    2    0    0  0.11541758075E+03  0.49125582709E+01  0.34715020648E+03  0.40135223562E+03  0.16500000000E+03 0.  0.
<mgrwt>
<rscale>  0 0.40686033E+03</rscale>
<asrwt>0</asrwt>
<pdfrwt beam="1">  1        2 0.93780571E-01 0.40686033E+03</pdfrwt>
<pdfrwt beam="2">  1       -2 0.90057887E-02 0.40686033E+03</pdfrwt>
<totfact> 0.39111333E+03</totfact>
</mgrwt>
</event>
<event>
 4    1  0.1049403E-004  0.5593292E+03  0.7818608E-02  0.9993574E-01
         -2   -1    0    0    0  501 -0.00000000000E+00  0.00000000000E+00  0.13100718649E+03  0.13100718652E+03  0.25500000000E-02 0. -1.
          2   -1    0    0  501    0  0.00000000000E+00 -0.00000000000E+00 -0.59700754345E+03  0.59700754345E+03  0.25500000000E-02 0.  1.
    5000001    1    1    2    0    0 -0.14294022885E+03  0.15357597561E+03 -0.12433696962E+03  0.29445232436E+03  0.16500000000E+03 0.  0.
   -5000001    1    1    2    0    0  0.14294022885E+03 -0.15357597561E+03 -0.34166338734E+03  0.43356240561E+03  0.16500000000E+03 0.  0.
<mgrwt>
<rscale>  0 0.55932916E+03</rscale>
<asrwt>0</asrwt>
<pdfrwt beam="1">  1        2 0.85286790E-01 0.55932916E+03</pdfrwt>
<pdfrwt beam="2">  1       -2 0.18715313E-01 0.55932916E+03</pdfrwt>
<totfact> 0.13082539E+03</totfact>
</mgrwt>
</event>
<event>
 4    1  0.1049403E-004  0.6574888E+03  0.7818608E-02  0.9792828E-01
         -2   -1    0    0    0  501 -0.00000000000E+00  0.00000000000E+00  0.62194559318E+02  0.62194559371E+02  0.25500000000E-02 0. -1.
          2   -1    0    0  501    0  0.00000000000E+00 -0.00000000000E+00 -0.17376581034E+04  0.17376581034E+04  0.25500000000E-02 0.  1.
    5000001    1    1    2    0    0  0.26675274489E+03  0.94604697844E+02 -0.76322421306E+03  0.83056804367E+03  0.16500000000E+03 0.  0.
   -5000001    1    1    2    0    0 -0.26675274489E+03 -0.94604697844E+02 -0.91223933098E+03  0.96928461906E+03  0.16500000000E+03 0.  0.
<mgrwt>
<rscale>  0 0.65748880E+03</rscale>
<asrwt>0</asrwt>
<pdfrwt beam="1">  1        2 0.24823684E+00 0.65748880E+03</pdfrwt>
<pdfrwt beam="2">  1       -2 0.88849381E-02 0.65748880E+03</pdfrwt>
<totfact> 0.92837901E+02</totfact>
</mgrwt>
</event>
<event>
 4    1  0.1049403E-004  0.1126564E+04  0.7818608E-02  0.9179681E-01
         -2   -1    0    0    0  501 -0.00000000000E+00  0.00000000000E+00  0.46699554465E+03  0.46699554466E+03  0.25500000000E-02 0. -1.
          2   -1    0    0  501    0  0.00000000000E+00 -0.00000000000E+00 -0.67942111409E+03  0.67942111410E+03  0.25500000000E-02 0.  1.
    5000001    1    1    2    0    0 -0.36252382565E+03  0.39537456088E+03 -0.57228612178E+02  0.56413179454E+03  0.16500000000E+03 0.  0.
   -5000001    1    1    2    0    0  0.36252382565E+03 -0.39537456088E+03 -0.15519695726E+03  0.58228486422E+03  0.16500000000E+03 0.  0.
<mgrwt>
<rscale>  0 0.11265640E+04</rscale>
<asrwt>0</asrwt>
<pdfrwt beam="1">  1        2 0.97060159E-01 0.11265640E+04</pdfrwt>
<pdfrwt beam="2">  1       -2 0.66713649E-01 0.11265640E+04</pdfrwt>
<totfact> 0.95629019E+01</totfact>
</mgrwt>
</event>
<event>
 4    1  0.1049403E-004  0.5139895E+03  0.7818608E-02  0.1010191E+00
          2   -1    0    0  501    0  0.00000000000E+00  0.00000000000E+00  0.39770428026E+03  0.39770428027E+03  0.25500000000E-02 0.  1.
         -2   -1    0    0    0  501 -0.00000000000E+00 -0.00000000000E+00 -0.16606884608E+03  0.16606884610E+03  0.25500000000E-02 0. -1.
    5000001    1    1    2    0    0  0.12986825774E+03 -0.45273484429E+02 -0.38935751661E+02  0.21830356277E+03  0.16500000000E+03 0.  0.
   -5000001    1    1    2    0    0 -0.12986825774E+03  0.45273484429E+02  0.27057118584E+03  0.34546956359E+03  0.16500000000E+03 0.  0.
<mgrwt>
<rscale>  0 0.51398946E+03</rscale>
<asrwt>0</asrwt>
<pdfrwt beam="1">  1        2 0.56814897E-01 0.51398946E+03</pdfrwt>
<pdfrwt beam="2">  1       -2 0.23724121E-01 0.51398946E+03</pdfrwt>
<totfact> 0.13688414E+03</totfact>
</mgrwt>
</event>
<event>
 4    1  0.1049403E-004  0.4236323E+03  0.7818608E-02  0.1035891E+00
          2   -1    0    0  501    0  0.00000000000E+00  0.00000000000E+00  0.59924463342E+03  0.59924463343E+03  0.25500000000E-02 0.  1.
         -2   -1    0    0    0  501 -0.00000000000E+00 -0.00000000000E+00 -0.74871077832E+02  0.74871077876E+02  0.25500000000E-02 0. -1.
    5000001    1    1    2    0    0  0.84448336639E+02 -0.98218516624E+02  0.21544841659E+03  0.30070154436E+03  0.16500000000E+03 0.  0.
   -5000001    1    1    2    0    0 -0.84448336639E+02  0.98218516624E+02  0.30892513900E+03  0.37341416695E+03  0.16500000000E+03 0.  0.
<mgrwt>
<rscale>  0 0.42363235E+03</rscale>
<asrwt>0</asrwt>
<pdfrwt beam="1">  1        2 0.85606371E-01 0.42363235E+03</pdfrwt>
<pdfrwt beam="2">  1       -2 0.10695869E-01 0.42363235E+03</pdfrwt>
<totfact> 0.33050311E+03</totfact>
</mgrwt>
</event>
<event>
 4    1  0.1049403E-004  0.3998827E+03  0.7818608E-02  0.1043820E+00
          2   -1    0    0  501    0  0.00000000000E+00  0.00000000000E+00  0.10921985792E+04  0.10921985792E+04  0.25500000000E-02 0.  1.
         -2   -1    0    0    0  501 -0.00000000000E+00 -0.00000000000E+00 -0.36601897125E+02  0.36601897214E+02  0.25500000000E-02 0. -1.
    5000001    1    1    2    0    0 -0.40772713981E+02  0.77553325567E+02  0.72888618529E+03  0.75244734276E+03  0.16500000000E+03 0.  0.
   -5000001    1    1    2    0    0  0.40772713981E+02 -0.77553325567E+02  0.32671049683E+03  0.37635313371E+03  0.16500000000E+03 0.  0.
<mgrwt>
<rscale>  0 0.39988268E+03</rscale>
<asrwt>0</asrwt>
<pdfrwt beam="1">  1        2 0.15602834E+00 0.39988268E+03</pdfrwt>
<pdfrwt beam="2">  1       -2 0.52288434E-02 0.39988268E+03</pdfrwt>
<totfact> 0.47324630E+03</totfact>
</mgrwt>
</event>
<event>
 4    1  0.1049403E-004  0.3603403E+03  0.7818608E-02  0.1058449E+00
          2   -1    0    0  501    0  0.00000000000E+00  0.00000000000E+00  0.12105953842E+04  0.12105953842E+04  0.25500000000E-02 0.  1.
         -2   -1    0    0    0  501 -0.00000000000E+00 -0.00000000000E+00 -0.26814317763E+02  0.26814317885E+02  0.25500000000E-02 0. -1.
    5000001    1    1    2    0    0  0.20171886954E+02 -0.24719940879E+02  0.36885717319E+03  0.40533763052E+03  0.16500000000E+03 0.  0.
   -5000001    1    1    2    0    0 -0.20171886954E+02  0.24719940879E+02  0.81492389322E+03  0.83207207155E+03  0.16500000000E+03 0.  0.
<mgrwt>
<rscale>  0 0.36034034E+03</rscale>
<asrwt>0</asrwt>
<pdfrwt beam="1">  1        2 0.17294222E+00 0.36034034E+03</pdfrwt>
<pdfrwt beam="2">  1       -2 0.38306164E-02 0.36034034E+03</pdfrwt>
<totfact> 0.65213726E+03</totfact>
</mgrwt>
</event>
<event>
 4    1  0.1049403E-004  0.3806857E+03  0.7818608E-02  0.1050681E+00
         -2   -1    0    0    0  501 -0.00000000000E+00  0.00000000000E+00  0.14957660194E+02  0.14957660411E+02  0.25500000000E-02 0. -1.
          2   -1    0    0  501    0  0.00000000000E+00 -0.00000000000E+00 -0.24221974521E+04  0.24221974521E+04  0.25500000000E-02 0.  1.
    5000001    1    1    2    0    0  0.93365152599E+02 -0.13802416235E+02 -0.11402922812E+04  0.11560272683E+04  0.16500000000E+03 0.  0.
   -5000001    1    1    2    0    0 -0.93365152599E+02  0.13802416235E+02 -0.12669475106E+04  0.12811278442E+04  0.16500000000E+03 0.  0.
<mgrwt>
<rscale>  0 0.38068573E+03</rscale>
<asrwt>0</asrwt>
<pdfrwt beam="1">  1        2 0.34602796E+00 0.38068573E+03</pdfrwt>
<pdfrwt beam="2">  1       -2 0.21368102E-02 0.38068573E+03</pdfrwt>
<totfact> 0.38284622E+03</totfact>
</mgrwt>
</event>
<event>
 4    1  0.1049403E-004  0.5203716E+03  0.7818608E-02  0.1008594E+00
         -2   -1    0    0    0  501 -0.00000000000E+00  0.00000000000E+00  0.15796830062E+03  0.15796830064E+03  0.25500000000E-02 0. -1.
          2   -1    0    0  501    0  0.00000000000E+00 -0.00000000000E+00 -0.42854584739E+03  0.42854584739E+03  0.25500000000E-02 0.  1.
    5000001    1    1    2    0    0  0.99744778994E+02  0.17134199545E+03 -0.17375199089E+03  0.31100137408E+03  0.16500000000E+03 0.  0.
   -5000001    1    1    2    0    0 -0.99744778994E+02 -0.17134199545E+03 -0.96825555882E+02  0.27551277396E+03  0.16500000000E+03 0.  0.
<mgrwt>
<rscale>  0 0.52037163E+03</rscale>
<asrwt>0</asrwt>
<pdfrwt beam="1">  1        2 0.61220835E-01 0.52037163E+03</pdfrwt>
<pdfrwt beam="2">  1       -2 0.22566900E-01 0.52037163E+03</pdfrwt>
<totfact> 0.13767265E+03</totfact>
</mgrwt>
</event>
<event>
 4    1  0.1049403E-004  0.6074672E+03  0.7818608E-02  0.9890034E-01
          2   -1    0    0  501    0  0.00000000000E+00  0.00000000000E+00  0.63661481095E+03  0.63661481096E+03  0.25500000000E-02 0.  1.
         -2   -1    0    0    0  501 -0.00000000000E+00 -0.00000000000E+00 -0.14491354873E+03  0.14491354875E+03  0.25500000000E-02 0. -1.
    5000001    1    1    2    0    0  0.72890150635E+02  0.24111220320E+03  0.19469497003E+03  0.35857941930E+03  0.16500000000E+03 0.  0.
   -5000001    1    1    2    0    0 -0.72890150635E+02 -0.24111220320E+03  0.29700629220E+03  0.42294894041E+03  0.16500000000E+03 0.  0.
<mgrwt>
<rscale>  0 0.60746724E+03</rscale>
<asrwt>0</asrwt>
<pdfrwt beam="1">  1        2 0.90944974E-01 0.60746724E+03</pdfrwt>
<pdfrwt beam="2">  1       -2 0.20701935E-01 0.60746724E+03</pdfrwt>
<totfact> 0.10171193E+03</totfact>
</mgrwt>
</event>
<event>
 4    1  0.1049403E-004  0.4488611E+03  0.7818608E-02  0.1028062E+00
          2   -1    0    0  501    0  0.00000000000E+00  0.00000000000E+00  0.43633530454E+04  0.43633530454E+04  0.25500000000E-02 0.  1.
         -2   -1    0    0    0  501 -0.00000000000E+00 -0.00000000000E+00 -0.11543661371E+02  0.11543661653E+02  0.25500000000E-02 0. -1.
    5000001    1    1    2    0    0 -0.22078543610E+02 -0.14418063462E+03  0.17545880982E+04  0.17683551430E+04  0.16500000000E+03 0.  0.
   -5000001    1    1    2    0    0  0.22078543610E+02  0.14418063462E+03  0.25972212858E+04  0.26065415640E+04  0.16500000000E+03 0.  0.
<mgrwt>
<rscale>  0 0.44886109E+03</rscale>
<asrwt>0</asrwt>
<pdfrwt beam="1">  1        2 0.62333436E+00 0.44886109E+03</pdfrwt>
<pdfrwt beam="2">  1       -2 0.16490992E-02 0.44886109E+03</pdfrwt>
<totfact> 0.40155182E+02</totfact>
</mgrwt>
</event>
<event>
 4    1  0.1049403E-004  0.3801545E+03  0.7818608E-02  0.1050877E+00
         -2   -1    0    0    0  501 -0.00000000000E+00  0.00000000000E+00  0.41271137211E+02  0.41271137289E+02  0.25500000000E-02 0.  1.
          2   -1    0    0  501    0  0.00000000000E+00 -0.00000000000E+00 -0.87541449324E+03  0.87541449324E+03  0.25500000000E-02 0. -1.
    5000001    1    1    2    0    0 -0.71760968633E+02  0.38330351316E+02 -0.30179249619E+03  0.35344386147E+03  0.16500000000E+03 0.  0.
   -5000001    1    1    2    0    0  0.71760968633E+02 -0.38330351316E+02 -0.53235085984E+03  0.56324176907E+03  0.16500000000E+03 0.  0.
<mgrwt>
<rscale>  0 0.38015445E+03</rscale>
<asrwt>0</asrwt>
<pdfrwt beam="1">  1        2 0.12505920E+00 0.38015445E+03</pdfrwt>
<pdfrwt beam="2">  1       -2 0.58958773E-02 0.38015445E+03</pdfrwt>
<totfact> 0.53173557E+03</totfact>
</mgrwt>
</event>
<event>
 4    1  0.1049403E-004  0.3652169E+03  0.7818608E-02  0.1056537E+00
         -2   -1    0    0    0  501 -0.00000000000E+00  0.00000000000E+00  0.12079763305E+03  0.12079763308E+03  0.25500000000E-02 0. -1.
          2   -1    0    0  501    0  0.00000000000E+00 -0.00000000000E+00 -0.27604723863E+03  0.27604723864E+03  0.25500000000E-02 0.  1.
    5000001    1    1    2    0    0  0.28952426319E+02 -0.72402691944E+02 -0.84536491350E+02  0.20112635620E+03  0.16500000000E+03 0.  0.
   -5000001    1    1    2    0    0 -0.28952426319E+02  0.72402691944E+02 -0.70713114225E+02  0.19571851551E+03  0.16500000000E+03 0.  0.
<mgrwt>
<rscale>  0 0.36521694E+03</rscale>
<asrwt>0</asrwt>
<pdfrwt beam="1">  1        2 0.39435320E-01 0.36521694E+03</pdfrwt>
<pdfrwt beam="2">  1       -2 0.17256805E-01 0.36521694E+03</pdfrwt>
<totfact> 0.35283628E+03</totfact>
</mgrwt>
</event>
<event>
 4    1  0.1049403E-004  0.4214194E+03  0.7818608E-02  0.1036605E+00
         -2   -1    0    0    0  501 -0.00000000000E+00  0.00000000000E+00  0.24808735534E+02  0.24808735665E+02  0.25500000000E-02 0.  1.
          2   -1    0    0  501    0  0.00000000000E+00 -0.00000000000E+00 -0.17896344779E+04  0.17896344779E+04  0.25500000000E-02 0. -1.
    5000001    1    1    2    0    0 -0.25322188447E+02 -0.12723064915E+03 -0.96235218632E+03  0.98497491431E+03  0.16500000000E+03 0.  0.
   -5000001    1    1    2    0    0  0.25322188447E+02  0.12723064915E+03 -0.80247355602E+03  0.82946829923E+03  0.16500000000E+03 0.  0.
<mgrwt>
<rscale>  0 0.42141936E+03</rscale>
<asrwt>0</asrwt>
<pdfrwt beam="1">  1        2 0.25566199E+00 0.42141936E+03</pdfrwt>
<pdfrwt beam="2">  1       -2 0.35441062E-02 0.42141936E+03</pdfrwt>
<totfact> 0.36901010E+03</totfact>
</mgrwt>
</event>
<event>
 4    1  0.1049403E-004  0.3822935E+03  0.7818608E-02  0.1050089E+00
          2   -1    0    0  501    0  0.00000000000E+00  0.00000000000E+00  0.47321300655E+03  0.47321300655E+03  0.25500000000E-02 0.  1.
         -2   -1    0    0    0  501 -0.00000000000E+00 -0.00000000000E+00 -0.77210623860E+02  0.77210623902E+02  0.25500000000E-02 0. -1.
    5000001    1    1    2    0    0  0.67330551199E+02 -0.34830249535E+02  0.28397412994E+03  0.33706506180E+03  0.16500000000E+03 0.  0.
   -5000001    1    1    2    0    0 -0.67330551199E+02  0.34830249535E+02  0.11202825275E+03  0.21335856866E+03  0.16500000000E+03 0.  0.
<mgrwt>
<rscale>  0 0.38229346E+03</rscale>
<asrwt>0</asrwt>
<pdfrwt beam="1">  1        2 0.67601858E-01 0.38229346E+03</pdfrwt>
<pdfrwt beam="2">  1       -2 0.11030089E-01 0.38229346E+03</pdfrwt>
<totfact> 0.41034630E+03</totfact>
</mgrwt>
</event>
<event>
 4    1  0.1049403E-004  0.5263412E+03  0.7818608E-02  0.1007123E+00
          2   -1    0    0  501    0  0.00000000000E+00  0.00000000000E+00  0.10563634072E+04  0.10563634072E+04  0.25500000000E-02 0.  1.
         -2   -1    0    0    0  501 -0.00000000000E+00 -0.00000000000E+00 -0.65563378141E+02  0.65563378191E+02  0.25500000000E-02 0. -1.
    5000001    1    1    2    0    0  0.17727789793E+03 -0.19919943206E+02  0.28002300437E+03  0.37075887071E+03  0.16500000000E+03 0.  0.
   -5000001    1    1    2    0    0 -0.17727789793E+03  0.19919943206E+02  0.71077702468E+03  0.75116791468E+03  0.16500000000E+03 0.  0.
<mgrwt>
<rscale>  0 0.52634116E+03</rscale>
<asrwt>0</asrwt>
<pdfrwt beam="1">  1        2 0.15090903E+00 0.52634116E+03</pdfrwt>
<pdfrwt beam="2">  1       -2 0.93661984E-02 0.52634116E+03</pdfrwt>
<totfact> 0.19887032E+03</totfact>
</mgrwt>
</event>
<event>
 4    1  0.1049403E-004  0.4653272E+03  0.7818608E-02  0.1023247E+00
          2   -1    0    0  501    0  0.00000000000E+00  0.00000000000E+00  0.14852096349E+04  0.14852096349E+04  0.25500000000E-02 0.  1.
         -2   -1    0    0    0  501 -0.00000000000E+00 -0.00000000000E+00 -0.36447614662E+02  0.36447614751E+02  0.25500000000E-02 0. -1.
    5000001    1    1    2    0    0 -0.69718035472E+02 -0.14349164401E+03  0.59956447774E+03  0.64199144803E+03  0.16500000000E+03 0.  0.
   -5000001    1    1    2    0    0  0.69718035472E+02  0.14349164401E+03  0.84919754251E+03  0.87966580164E+03  0.16500000000E+03 0.  0.
<mgrwt>
<rscale>  0 0.46532719E+03</rscale>
<asrwt>0</asrwt>
<pdfrwt beam="1">  1        2 0.21217285E+00 0.46532719E+03</pdfrwt>
<pdfrwt beam="2">  1       -2 0.52068010E-02 0.46532719E+03</pdfrwt>
<totfact> 0.29205742E+03</totfact>
</mgrwt>
</event>
<event>
 4    1  0.1049403E-004  0.5416863E+03  0.7818608E-02  0.1003437E+00
          2   -1    0    0  501    0  0.00000000000E+00  0.00000000000E+00  0.35493922146E+04  0.35493922146E+04  0.25500000000E-02 0.  1.
         -2   -1    0    0    0  501 -0.00000000000E+00 -0.00000000000E+00 -0.20667203256E+02  0.20667203413E+02  0.25500000000E-02 0. -1.
    5000001    1    1    2    0    0  0.80741239023E+02 -0.16521318229E+03  0.24957889803E+04  0.25079876749E+04  0.16500000000E+03 0.  0.
   -5000001    1    1    2    0    0 -0.80741239023E+02  0.16521318229E+03  0.10329360310E+04  0.10620717431E+04  0.16500000000E+03 0.  0.
<mgrwt>
<rscale>  0 0.54168630E+03</rscale>
<asrwt>0</asrwt>
<pdfrwt beam="1">  1        2 0.50705617E+00 0.54168630E+03</pdfrwt>
<pdfrwt beam="2">  1       -2 0.29524568E-02 0.54168630E+03</pdfrwt>
<totfact> 0.56878947E+02</totfact>
</mgrwt>
</event>
<event>
 4    1  0.1049403E-004  0.6668774E+03  0.7818608E-02  0.9775615E-01
          2   -1    0    0  501    0  0.00000000000E+00  0.00000000000E+00  0.52318938265E+03  0.52318938265E+03  0.25500000000E-02 0.  1.
         -2   -1    0    0    0  501 -0.00000000000E+00 -0.00000000000E+00 -0.21250693991E+03  0.21250693992E+03  0.25500000000E-02 0. -1.
    5000001    1    1    2    0    0  0.19667292237E+03  0.21244492984E+03  0.14213563670E+03  0.36227148083E+03  0.16500000000E+03 0.  0.
   -5000001    1    1    2    0    0 -0.19667292237E+03 -0.21244492984E+03  0.16854680604E+03  0.37342484175E+03  0.16500000000E+03 0.  0.
<mgrwt>
<rscale>  0 0.66687742E+03</rscale>
<asrwt>0</asrwt>
<pdfrwt beam="1">  1        2 0.74741340E-01 0.66687742E+03</pdfrwt>
<pdfrwt beam="2">  1       -2 0.30358135E-01 0.66687742E+03</pdfrwt>
<totfact> 0.64178119E+02</totfact>
</mgrwt>
</event>
<event>
 4    1  0.1049403E-004  0.5103933E+03  0.7818608E-02  0.1011101E+00
          2   -1    0    0  501    0  0.00000000000E+00  0.00000000000E+00  0.48194843631E+03  0.48194843632E+03  0.25500000000E-02 0.  1.
         -2   -1    0    0    0  501 -0.00000000000E+00 -0.00000000000E+00 -0.13512922455E+03  0.13512922458E+03  0.25500000000E-02 0. -1.
    5000001    1    1    2    0    0 -0.16964836329E+03  0.94855360066E+02  0.18677530841E+03  0.31605082239E+03  0.16500000000E+03 0.  0.
   -5000001    1    1    2    0    0  0.16964836329E+03 -0.94855360066E+02  0.16004390335E+03  0.30102683850E+03  0.16500000000E+03 0.  0.
<mgrwt>
<rscale>  0 0.51039325E+03</rscale>
<asrwt>0</asrwt>
<pdfrwt beam="1">  1        2 0.68849777E-01 0.51039325E+03</pdfrwt>
<pdfrwt beam="2">  1       -2 0.19304175E-01 0.51039325E+03</pdfrwt>
<totfact> 0.15855718E+03</totfact>
</mgrwt>
</event>
<event>
 4    1  0.1049403E-004  0.6849152E+03  0.7818608E-02  0.9743383E-01
         -2   -1    0    0    0  501 -0.00000000000E+00  0.00000000000E+00  0.77914632123E+02  0.77914632165E+02  0.25500000000E-02 0. -1.
          2   -1    0    0  501    0  0.00000000000E+00 -0.00000000000E+00 -0.15052011099E+04  0.15052011099E+04  0.25500000000E-02 0.  1.
    5000001    1    1    2    0    0  0.19098380668E+03 -0.14037691815E+03 -0.11390401908E+04  0.11750821460E+04  0.16500000000E+03 0.  0.
   -5000001    1    1    2    0    0 -0.19098380668E+03  0.14037691815E+03 -0.28824628693E+03  0.40803359604E+03  0.16500000000E+03 0.  0.
<mgrwt>
<rscale>  0 0.68491515E+03</rscale>
<asrwt>0</asrwt>
<pdfrwt beam="1">  1        2 0.21502871E+00 0.68491515E+03</pdfrwt>
<pdfrwt beam="2">  1       -2 0.11130663E-01 0.68491515E+03</pdfrwt>
<totfact> 0.84714835E+02</totfact>
</mgrwt>
</event>
<event>
 4    1  0.1049403E-004  0.8956101E+03  0.7818608E-02  0.9431086E-01
         -2   -1    0    0    0  501 -0.00000000000E+00  0.00000000000E+00  0.65657405358E+03  0.65657405359E+03  0.25500000000E-02 0. -1.
          2   -1    0    0  501    0  0.00000000000E+00 -0.00000000000E+00 -0.30541775165E+03  0.30541775166E+03  0.25500000000E-02 0.  1.
    5000001    1    1    2    0    0 -0.36029176961E+03  0.81506960729E+02  0.38177214076E+03  0.55626298759E+03  0.16500000000E+03 0.  0.
   -5000001    1    1    2    0    0  0.36029176961E+03 -0.81506960729E+02 -0.30615838828E+02  0.40572881767E+03  0.16500000000E+03 0.  0.
<mgrwt>
<rscale>  0 0.89561012E+03</rscale>
<asrwt>0</asrwt>
<pdfrwt beam="1">  1        2 0.43631107E-01 0.89561012E+03</pdfrwt>
<pdfrwt beam="2">  1       -2 0.93796293E-01 0.89561012E+03</pdfrwt>
<totfact> 0.11268197E+02</totfact>
</mgrwt>
</event>
<event>
 4    1  0.1049403E-004  0.7351372E+03  0.7818608E-02  0.9658961E-01
         -2   -1    0    0    0  501 -0.00000000000E+00  0.00000000000E+00  0.14118853863E+03  0.14118853865E+03  0.25500000000E-02 0. -1.
          2   -1    0    0  501    0  0.00000000000E+00 -0.00000000000E+00 -0.95692371638E+03  0.95692371639E+03  0.25500000000E-02 0.  1.
    5000001    1    1    2    0    0  0.16425555321E+03 -0.23345800663E+03 -0.65056950104E+03  0.72934779310E+03  0.16500000000E+03 0.  0.
   -5000001    1    1    2    0    0 -0.16425555321E+03  0.23345800663E+03 -0.16516567671E+03  0.36876446193E+03  0.16500000000E+03 0.  0.
<mgrwt>
<rscale>  0 0.73513716E+03</rscale>
<asrwt>0</asrwt>
<pdfrwt beam="1">  1        2 0.13670338E+00 0.73513716E+03</pdfrwt>
<pdfrwt beam="2">  1       -2 0.20169792E-01 0.73513716E+03</pdfrwt>
<totfact> 0.63057032E+02</totfact>
</mgrwt>
</event>
<event>
 4    1  0.1049403E-004  0.4302520E+03  0.7818608E-02  0.1033780E+00
          2   -1    0    0  501    0  0.00000000000E+00  0.00000000000E+00  0.13464518700E+04  0.13464518700E+04  0.25500000000E-02 0.  1.
         -2   -1    0    0    0  501 -0.00000000000E+00 -0.00000000000E+00 -0.34371223942E+02  0.34371224037E+02  0.25500000000E-02 0. -1.
    5000001    1    1    2    0    0 -0.12849570258E+03 -0.46478264051E-01  0.81788285780E+03  0.84419696565E+03  0.16500000000E+03 0.  0.
   -5000001    1    1    2    0    0  0.12849570258E+03  0.46478264051E-01  0.49419778823E+03  0.53662612836E+03  0.16500000000E+03 0.  0.
<mgrwt>
<rscale>  0 0.43025201E+03</rscale>
<asrwt>0</asrwt>
<pdfrwt beam="1">  1        2 0.19235024E+00 0.43025201E+03</pdfrwt>
<pdfrwt beam="2">  1       -2 0.49101755E-02 0.43025201E+03</pdfrwt>
<totfact> 0.37795384E+03</totfact>
</mgrwt>
</event>
<event>
 4    1  0.1049403E-004  0.1155957E+04  0.7818608E-02  0.9152306E-01
          2   -1    0    0  501    0  0.00000000000E+00  0.00000000000E+00  0.82724380343E+03  0.82724380343E+03  0.25500000000E-02 0.  1.
         -2   -1    0    0    0  501 -0.00000000000E+00 -0.00000000000E+00 -0.40382172594E+03  0.40382172594E+03  0.25500000000E-02 0. -1.
    5000001    1    1    2    0    0  0.29121801713E+03 -0.42929151276E+03  0.41858750229E+03  0.68668743508E+03  0.16500000000E+03 0.  0.
   -5000001    1    1    2    0    0 -0.29121801713E+03  0.42929151276E+03  0.48345752026E+01  0.54437809429E+03  0.16500000000E+03 0.  0.
<mgrwt>
<rscale>  0 0.11559568E+04</rscale>
<asrwt>0</asrwt>
<pdfrwt beam="1">  1        2 0.11817769E+00 0.11559568E+04</pdfrwt>
<pdfrwt beam="2">  1       -2 0.57688818E-01 0.11559568E+04</pdfrwt>
<totfact> 0.10136232E+02</totfact>
</mgrwt>
</event>
<event>
 4    1  0.1049403E-004  0.8116811E+03  0.7818608E-02  0.9543261E-01
          2   -1    0    0  501    0  0.00000000000E+00  0.00000000000E+00  0.15240730226E+04  0.15240730226E+04  0.25500000000E-02 0.  1.
         -2   -1    0    0    0  501 -0.00000000000E+00 -0.00000000000E+00 -0.10806999342E+03  0.10806999345E+03  0.25500000000E-02 0. -1.
    5000001    1    1    2    0    0 -0.35544681832E+03  0.57290963783E+02  0.52976468508E+03  0.66143806720E+03  0.16500000000E+03 0.  0.
   -5000001    1    1    2    0    0  0.35544681832E+03 -0.57290963783E+02  0.88623834409E+03  0.97070494885E+03  0.16500000000E+03 0.  0.
<mgrwt>
<rscale>  0 0.81168112E+03</rscale>
<asrwt>0</asrwt>
<pdfrwt beam="1">  1        2 0.21772472E+00 0.81168112E+03</pdfrwt>
<pdfrwt beam="2">  1       -2 0.15438570E-01 0.81168112E+03</pdfrwt>
<totfact> 0.47689221E+02</totfact>
</mgrwt>
</event>
<event>
 4    1  0.1049403E-004  0.7338175E+03  0.7818608E-02  0.9661086E-01
         -2   -1    0    0    0  501 -0.00000000000E+00  0.00000000000E+00  0.27949445475E+03  0.27949445476E+03  0.25500000000E-02 0. -1.
          2   -1    0    0  501    0  0.00000000000E+00 -0.00000000000E+00 -0.48166262055E+03  0.48166262056E+03  0.25500000000E-02 0.  1.
    5000001    1    1    2    0    0 -0.25941658135E+03 -0.19676106359E+03 -0.62479839316E+02  0.37032500475E+03  0.16500000000E+03 0.  0.
   -5000001    1    1    2    0    0  0.25941658135E+03  0.19676106359E+03 -0.13968832648E+03  0.39083207056E+03  0.16500000000E+03 0.  0.
<mgrwt>
<rscale>  0 0.73381750E+03</rscale>
<asrwt>0</asrwt>
<pdfrwt beam="1">  1        2 0.68808945E-01 0.73381750E+03</pdfrwt>
<pdfrwt beam="2">  1       -2 0.39927779E-01 0.73381750E+03</pdfrwt>
<totfact> 0.41853186E+02</totfact>
</mgrwt>
</event>
<event>
 4    1  0.1049403E-004  0.4024326E+03  0.7818608E-02  0.1042941E+00
         -2   -1    0    0    0  501 -0.00000000000E+00  0.00000000000E+00  0.23334274798E+02  0.23334274937E+02  0.25500000000E-02 0. -1.
          2   -1    0    0  501    0  0.00000000000E+00 -0.00000000000E+00 -0.17351295567E+04  0.17351295567E+04  0.25500000000E-02 0.  1.
    5000001    1    1    2    0    0  0.92056392588E+02  0.63848871754E+02 -0.97248719582E+03  0.99272725553E+03  0.16500000000E+03 0.  0.
   -5000001    1    1    2    0    0 -0.92056392588E+02 -0.63848871754E+02 -0.73930808604E+03  0.76573657607E+03  0.16500000000E+03 0.  0.
<mgrwt>
<rscale>  0 0.40243255E+03</rscale>
<asrwt>0</asrwt>
<pdfrwt beam="1">  1        2 0.24787557E+00 0.40243255E+03</pdfrwt>
<pdfrwt beam="2">  1       -2 0.33334689E-02 0.40243255E+03</pdfrwt>
<totfact> 0.43109639E+03</totfact>
</mgrwt>
</event>
<event>
 4    1  0.1049403E-004  0.4977085E+03  0.7818608E-02  0.1014379E+00
          2   -1    0    0  501    0  0.00000000000E+00  0.00000000000E+00  0.12157035910E+04  0.12157035910E+04  0.25500000000E-02 0.  1.
         -2   -1    0    0    0  501 -0.00000000000E+00 -0.00000000000E+00 -0.50940411760E+02  0.50940411824E+02  0.25500000000E-02 0. -1.
    5000001    1    1    2    0    0  0.11431963257E+03  0.85076373890E+02  0.27702481117E+03  0.35252618879E+03  0.16500000000E+03 0.  0.
   -5000001    1    1    2    0    0 -0.11431963257E+03 -0.85076373890E+02  0.88773836810E+03  0.91411781406E+03  0.16500000000E+03 0.  0.
<mgrwt>
<rscale>  0 0.49770852E+03</rscale>
<asrwt>0</asrwt>
<pdfrwt beam="1">  1        2 0.17367191E+00 0.49770852E+03</pdfrwt>
<pdfrwt beam="2">  1       -2 0.72772031E-02 0.49770852E+03</pdfrwt>
<totfact> 0.24112151E+03</totfact>
</mgrwt>
</event>
<event>
 4    1  0.1049403E-004  0.1081004E+04  0.7818608E-02  0.9223907E-01
         -2   -1    0    0    0  501 -0.00000000000E+00  0.00000000000E+00  0.27389823457E+03  0.27389823458E+03  0.25500000000E-02 0. -1.
          2   -1    0    0  501    0  0.00000000000E+00 -0.00000000000E+00 -0.10666098696E+04  0.10666098696E+04  0.25500000000E-02 0.  1.
    5000001    1    1    2    0    0  0.10610879475E+03 -0.46201530850E+03 -0.14772389475E+03  0.52322516252E+03  0.16500000000E+03 0.  0.
   -5000001    1    1    2    0    0 -0.10610879475E+03  0.46201530850E+03 -0.64498774025E+03  0.81728294163E+03  0.16500000000E+03 0.  0.
<mgrwt>
<rscale>  0 0.10810043E+04</rscale>
<asrwt>0</asrwt>
<pdfrwt beam="1">  1        2 0.15237284E+00 0.10810043E+04</pdfrwt>
<pdfrwt beam="2">  1       -2 0.39128320E-01 0.10810043E+04</pdfrwt>
<totfact> 0.15676716E+02</totfact>
</mgrwt>
</event>
<event>
 4    1  0.1049403E-004  0.4775070E+03  0.7818608E-02  0.1019823E+00
          2   -1    0    0  501    0  0.00000000000E+00  0.00000000000E+00  0.40095934513E+04  0.40095934513E+04  0.25500000000E-02 0.  1.
         -2   -1    0    0    0  501 -0.00000000000E+00 -0.00000000000E+00 -0.14216712004E+02  0.14216712233E+02  0.25500000000E-02 0. -1.
    5000001    1    1    2    0    0 -0.10757780818E+03  0.98898951087E+02  0.27711224716E+04  0.27798738712E+04  0.16500000000E+03 0.  0.
   -5000001    1    1    2    0    0  0.10757780818E+03 -0.98898951087E+02  0.12242542677E+04  0.12439362923E+04  0.16500000000E+03 0.  0.
<mgrwt>
<rscale>  0 0.47750701E+03</rscale>
<asrwt>0</asrwt>
<pdfrwt beam="1">  1        2 0.57279913E+00 0.47750701E+03</pdfrwt>
<pdfrwt beam="2">  1       -2 0.20309586E-02 0.47750701E+03</pdfrwt>
<totfact> 0.51727223E+02</totfact>
</mgrwt>
</event>
<event>
 4    1  0.1049403E-004  0.8564958E+03  0.7818608E-02  0.9481660E-01
         -2   -1    0    0    0  501 -0.00000000000E+00  0.00000000000E+00  0.79436691789E+02  0.79436691830E+02  0.25500000000E-02 0. -1.
          2   -1    0    0  501    0  0.00000000000E+00 -0.00000000000E+00 -0.23087095296E+04  0.23087095296E+04  0.25500000000E-02 0.  1.
    5000001    1    1    2    0    0 -0.39687196736E+02  0.38518529946E+03 -0.89458407601E+03  0.98865993019E+03  0.16500000000E+03 0.  0.
   -5000001    1    1    2    0    0  0.39687196736E+02 -0.38518529946E+03 -0.13346887618E+04  0.13994862913E+04  0.16500000000E+03 0.  0.
<mgrwt>
<rscale>  0 0.85649576E+03</rscale>
<asrwt>0</asrwt>
<pdfrwt beam="1">  1        2 0.32981561E+00 0.85649576E+03</pdfrwt>
<pdfrwt beam="2">  1       -2 0.11348100E-01 0.85649576E+03</pdfrwt>
<totfact> 0.31578547E+02</totfact>
</mgrwt>
</event>
<event>
 4    1  0.1049403E-004  0.4593358E+03  0.7818608E-02  0.1024974E+00
         -2   -1    0    0    0  501 -0.00000000000E+00  0.00000000000E+00  0.29815268773E+02  0.29815268883E+02  0.25500000000E-02 0. -1.
          2   -1    0    0  501    0  0.00000000000E+00 -0.00000000000E+00 -0.17691383338E+04  0.17691383338E+04  0.25500000000E-02 0.  1.
    5000001    1    1    2    0    0 -0.14195570478E+03  0.70546127648E+02 -0.79190727066E+03  0.82429988692E+03  0.16500000000E+03 0.  0.
   -5000001    1    1    2    0    0  0.14195570478E+03 -0.70546127648E+02 -0.94741579435E+03  0.97465371576E+03  0.16500000000E+03 0.  0.
<mgrwt>
<rscale>  0 0.45933576E+03</rscale>
<asrwt>0</asrwt>
<pdfrwt beam="1">  1        2 0.25273398E+00 0.45933576E+03</pdfrwt>
<pdfrwt beam="2">  1       -2 0.42593252E-02 0.45933576E+03</pdfrwt>
<totfact> 0.28537388E+03</totfact>
</mgrwt>
</event>
<event>
 4    1  0.1049403E-004  0.7326924E+03  0.7818608E-02  0.9662901E-01
          2   -1    0    0  501    0  0.00000000000E+00  0.00000000000E+00  0.12673947759E+04  0.12673947759E+04  0.25500000000E-02 0.  1.
         -2   -1    0    0    0  501 -0.00000000000E+00 -0.00000000000E+00 -0.10589401666E+03  0.10589401670E+03  0.25500000000E-02 0. -1.
    5000001    1    1    2    0    0 -0.22623067819E+03 -0.15924513571E+03  0.25371136842E+03  0.41004120704E+03  0.16500000000E+03 0.  0.
   -5000001    1    1    2    0    0  0.22623067819E+03  0.15924513571E+03  0.90778939077E+03  0.96324758551E+03  0.16500000000E+03 0.  0.
<mgrwt>
<rscale>  0 0.73269236E+03</rscale>
<asrwt>0</asrwt>
<pdfrwt beam="1">  1        2 0.18105640E+00 0.73269236E+03</pdfrwt>
<pdfrwt beam="2">  1       -2 0.15127716E-01 0.73269236E+03</pdfrwt>
<totfact> 0.68052076E+02</totfact>
</mgrwt>
</event>
<event>
 4    1  0.1049403E-004  0.4749055E+03  0.7818608E-02  0.1020545E+00
          2   -1    0    0  501    0  0.00000000000E+00  0.00000000000E+00  0.86250472562E+03  0.86250472562E+03  0.25500000000E-02 0.  1.
         -2   -1    0    0    0  501 -0.00000000000E+00 -0.00000000000E+00 -0.65372167919E+02  0.65372167968E+02  0.25500000000E-02 0. -1.
    5000001    1    1    2    0    0 -0.16592365705E+03 -0.20876551961E+02  0.46603125781E+03  0.52189713895E+03  0.16500000000E+03 0.  0.
   -5000001    1    1    2    0    0  0.16592365705E+03  0.20876551961E+02  0.33110129989E+03  0.40597975464E+03  0.16500000000E+03 0.  0.
<mgrwt>
<rscale>  0 0.47490548E+03</rscale>
<asrwt>0</asrwt>
<pdfrwt beam="1">  1        2 0.12321495E+00 0.47490548E+03</pdfrwt>
<pdfrwt beam="2">  1       -2 0.93388817E-02 0.47490548E+03</pdfrwt>
<totfact> 0.26354250E+03</totfact>
</mgrwt>
</event>
<event>
 4    1  0.1049403E-004  0.6927143E+03  0.7818608E-02  0.9729773E-01
         -2   -1    0    0    0  501 -0.00000000000E+00  0.00000000000E+00  0.72595514232E+02  0.72595514277E+02  0.25500000000E-02 0. -1.
          2   -1    0    0  501    0  0.00000000000E+00 -0.00000000000E+00 -0.16524887596E+04  0.16524887596E+04  0.25500000000E-02 0.  1.
    5000001    1    1    2    0    0  0.16062832355E+03  0.27983408660E+02 -0.14304676291E+04  0.14491539489E+04  0.16500000000E+03 0.  0.
   -5000001    1    1    2    0    0 -0.16062832355E+03 -0.27983408660E+02 -0.14942561626E+03  0.27593032505E+03  0.16500000000E+03 0.  0.
<mgrwt>
<rscale>  0 0.69271429E+03</rscale>
<asrwt>0</asrwt>
<pdfrwt beam="1">  1        2 0.23606980E+00 0.69271429E+03</pdfrwt>
<pdfrwt beam="2">  1       -2 0.10370789E-01 0.69271429E+03</pdfrwt>
<totfact> 0.79747284E+02</totfact>
</mgrwt>
</event>
<event>
 4    1  0.1049403E-004  0.5796800E+03  0.7818608E-02  0.9948484E-01
         -2   -1    0    0    0  501 -0.00000000000E+00  0.00000000000E+00  0.67019314141E+02  0.67019314190E+02  0.25500000000E-02 0. -1.
          2   -1    0    0  501    0  0.00000000000E+00 -0.00000000000E+00 -0.12534779068E+04  0.12534779068E+04  0.25500000000E-02 0.  1.
    5000001    1    1    2    0    0 -0.18409066665E+03 -0.13279870181E+03 -0.75840001533E+03  0.80865348079E+03  0.16500000000E+03 0.  0.
   -5000001    1    1    2    0    0  0.18409066665E+03  0.13279870181E+03 -0.42805857729E+03  0.51184374016E+03  0.16500000000E+03 0.  0.
<mgrwt>
<rscale>  0 0.57968001E+03</rscale>
<asrwt>0</asrwt>
<pdfrwt beam="1">  1        2 0.17906826E+00 0.57968001E+03</pdfrwt>
<pdfrwt beam="2">  1       -2 0.95741885E-02 0.57968001E+03</pdfrwt>
<totfact> 0.14816086E+03</totfact>
</mgrwt>
</event>
<event>
 4    1  0.1049403E-004  0.4200458E+03  0.7818608E-02  0.1037051E+00
          2   -1    0    0  501    0  0.00000000000E+00  0.00000000000E+00  0.33877899266E+04  0.33877899266E+04  0.25500000000E-02 0.  1.
         -2   -1    0    0    0  501 -0.00000000000E+00 -0.00000000000E+00 -0.13020173872E+02  0.13020174122E+02  0.25500000000E-02 0. -1.
    5000001    1    1    2    0    0 -0.54566325598E+02  0.18570925731E+02  0.74451524668E+03  0.76475506910E+03  0.16500000000E+03 0.  0.
   -5000001    1    1    2    0    0  0.54566325598E+02 -0.18570925731E+02  0.26302545061E+04  0.26360550317E+04  0.16500000000E+03 0.  0.
<mgrwt>
<rscale>  0 0.42004578E+03</rscale>
<asrwt>0</asrwt>
<pdfrwt beam="1">  1        2 0.48397045E+00 0.42004578E+03</pdfrwt>
<pdfrwt beam="2">  1       -2 0.18600231E-02 0.42004578E+03</pdfrwt>
<totfact> 0.14357753E+03</totfact>
</mgrwt>
</event>
<event>
 4    1  0.1049403E-004  0.7156795E+03  0.7818608E-02  0.9690788E-01
          2   -1    0    0  501    0  0.00000000000E+00  0.00000000000E+00  0.15681095463E+04  0.15681095463E+04  0.25500000000E-02 0.  1.
         -2   -1    0    0    0  501 -0.00000000000E+00 -0.00000000000E+00 -0.81658371091E+02  0.81658371130E+02  0.25500000000E-02 0. -1.
    5000001    1    1    2    0    0 -0.27124051588E+03  0.15927826839E+03  0.84326302590E+03  0.91501831407E+03  0.16500000000E+03 0.  0.
   -5000001    1    1    2    0    0  0.27124051588E+03 -0.15927826839E+03  0.64318814934E+03  0.73474960339E+03  0.16500000000E+03 0.  0.
<mgrwt>
<rscale>  0 0.71567946E+03</rscale>
<asrwt>0</asrwt>
<pdfrwt beam="1">  1        2 0.22401564E+00 0.71567946E+03</pdfrwt>
<pdfrwt beam="2">  1       -2 0.11665482E-01 0.71567946E+03</pdfrwt>
<totfact> 0.72619200E+02</totfact>
</mgrwt>
</event>
<event>
 4    1  0.1049403E-004  0.5182631E+03  0.7818608E-02  0.1009119E+00
         -2   -1    0    0    0  501 -0.00000000000E+00  0.00000000000E+00  0.40208010054E+02  0.40208010135E+02  0.25500000000E-02 0. -1.
          2   -1    0    0  501    0  0.00000000000E+00 -0.00000000000E+00 -0.16700446478E+04  0.16700446478E+04  0.25500000000E-02 0.  1.
    5000001    1    1    2    0    0 -0.31148986681E+02  0.19399216218E+03 -0.93485547438E+03  0.96942404361E+03  0.16500000000E+03 0.  0.
   -5000001    1    1    2    0    0  0.31148986681E+02 -0.19399216218E+03 -0.69498116332E+03  0.74082861428E+03  0.16500000000E+03 0.  0.
<mgrwt>
<rscale>  0 0.51826315E+03</rscale>
<asrwt>0</asrwt>
<pdfrwt beam="1">  1        2 0.23857776E+00 0.51826315E+03</pdfrwt>
<pdfrwt beam="2">  1       -2 0.57440025E-02 0.51826315E+03</pdfrwt>
<totfact> 0.20148017E+03</totfact>
</mgrwt>
</event>
<event>
 4    1  0.1049403E-004  0.4955349E+03  0.7818608E-02  0.1014951E+00
          2   -1    0    0  501    0  0.00000000000E+00  0.00000000000E+00  0.19356117345E+04  0.19356117345E+04  0.25500000000E-02 0.  1.
         -2   -1    0    0    0  501 -0.00000000000E+00 -0.00000000000E+00 -0.31715402460E+02  0.31715402563E+02  0.25500000000E-02 0. -1.
    5000001    1    1    2    0    0  0.12759165969E+03  0.10805256375E+03  0.12647744864E+04  0.12864037040E+04  0.16500000000E+03 0.  0.
   -5000001    1    1    2    0    0 -0.12759165969E+03 -0.10805256375E+03  0.63912184567E+03  0.68092343312E+03  0.16500000000E+03 0.  0.
<mgrwt>
<rscale>  0 0.49553488E+03</rscale>
<asrwt>0</asrwt>
<pdfrwt beam="1">  1        2 0.27651592E+00 0.49553488E+03</pdfrwt>
<pdfrwt beam="2">  1       -2 0.45307725E-02 0.49553488E+03</pdfrwt>
<totfact> 0.21407771E+03</totfact>
</mgrwt>
</event>
<event>
 4    1  0.1049403E-004  0.4552505E+03  0.7818608E-02  0.1026168E+00
          2   -1    0    0  501    0  0.00000000000E+00  0.00000000000E+00  0.33006139923E+04  0.33006139923E+04  0.25500000000E-02 0.  1.
         -2   -1    0    0    0  501 -0.00000000000E+00 -0.00000000000E+00 -0.15698068435E+02  0.15698068642E+02  0.25500000000E-02 0. -1.
    5000001    1    1    2    0    0  0.35934062667E+01 -0.12667235816E+03  0.23152267451E+04  0.23245555876E+04  0.16500000000E+03 0.  0.
   -5000001    1    1    2    0    0 -0.35934062667E+01  0.12667235816E+03  0.96968917882E+03  0.99175647334E+03  0.16500000000E+03 0.  0.
<mgrwt>
<rscale>  0 0.45525054E+03</rscale>
<asrwt>0</asrwt>
<pdfrwt beam="1">  1        2 0.47151615E+00 0.45525054E+03</pdfrwt>
<pdfrwt beam="2">  1       -2 0.22425819E-02 0.45525054E+03</pdfrwt>
<totfact> 0.12133615E+03</totfact>
</mgrwt>
</event>
<event>
 4    1  0.1049403E-004  0.9763578E+03  0.7818608E-02  0.9334862E-01
          2   -1    0    0  501    0  0.00000000000E+00  0.00000000000E+00  0.33397290836E+03  0.33397290837E+03  0.25500000000E-02 0.  1.
         -2   -1    0    0    0  501 -0.00000000000E+00 -0.00000000000E+00 -0.71358671977E+03  0.71358671977E+03  0.25500000000E-02 0. -1.
    5000001    1    1    2    0    0  0.30404170948E+03 -0.27952292183E+03  0.26166475877E+02  0.44551555461E+03  0.16500000000E+03 0.  0.
   -5000001    1    1    2    0    0 -0.30404170948E+03  0.27952292183E+03 -0.40578028728E+03  0.60204407354E+03  0.16500000000E+03 0.  0.
<mgrwt>
<rscale>  0 0.97635779E+03</rscale>
<asrwt>0</asrwt>
<pdfrwt beam="1">  1        2 0.47710416E-01 0.97635779E+03</pdfrwt>
<pdfrwt beam="2">  1       -2 0.10194096E+00 0.97635779E+03</pdfrwt>
<totfact> 0.83504795E+01</totfact>
</mgrwt>
</event>
<event>
 4    1  0.1049403E-004  0.5761565E+03  0.7818608E-02  0.9956147E-01
         -2   -1    0    0    0  501 -0.00000000000E+00  0.00000000000E+00  0.19508753542E+03  0.19508753543E+03  0.25500000000E-02 0. -1.
          2   -1    0    0  501    0  0.00000000000E+00 -0.00000000000E+00 -0.42539411904E+03  0.42539411905E+03  0.25500000000E-02 0.  1.
    5000001    1    1    2    0    0 -0.12736758194E+02  0.23124914052E+03 -0.16480560221E+03  0.32867046798E+03  0.16500000000E+03 0.  0.
   -5000001    1    1    2    0    0  0.12736758194E+02 -0.23124914052E+03 -0.65500981411E+02  0.29181118650E+03  0.16500000000E+03 0.  0.
<mgrwt>
<rscale>  0 0.57615654E+03</rscale>
<asrwt>0</asrwt>
<pdfrwt beam="1">  1        2 0.60770588E-01 0.57615654E+03</pdfrwt>
<pdfrwt beam="2">  1       -2 0.27869648E-01 0.57615654E+03</pdfrwt>
<totfact> 0.95050964E+02</totfact>
</mgrwt>
</event>
<event>
 4    1  0.1049403E-004  0.4457331E+03  0.7818608E-02  0.1029002E+00
          2   -1    0    0  501    0  0.00000000000E+00  0.00000000000E+00  0.51688966663E+02  0.51688966726E+02  0.25500000000E-02 0. -1.
         -2   -1    0    0    0  501 -0.00000000000E+00 -0.00000000000E+00 -0.96093058526E+03  0.96093058526E+03  0.25500000000E-02 0.  1.
    5000001    1    1    2    0    0  0.26367812705E+02  0.11604576709E+03 -0.24786608486E+03  0.32066256038E+03  0.16500000000E+03 0.  0.
   -5000001    1    1    2    0    0 -0.26367812705E+02 -0.11604576709E+03 -0.66137553374E+03  0.69195699161E+03  0.16500000000E+03 0.  0.
<mgrwt>
<rscale>  0 0.44573314E+03</rscale>
<asrwt>0</asrwt>
<pdfrwt beam="1">  1        2 0.73841387E-02 0.44573314E+03</pdfrwt>
<pdfrwt beam="2">  1       -2 0.13727579E+00 0.44573314E+03</pdfrwt>
<totfact> 0.37667122E+02</totfact>
</mgrwt>
</event>
<event>
 4    1  0.1049403E-004  0.3851471E+03  0.7818608E-02  0.1049048E+00
         -2   -1    0    0    0  501 -0.00000000000E+00  0.00000000000E+00  0.64854996638E+03  0.64854996638E+03  0.25500000000E-02 0. -1.
          2   -1    0    0  501    0  0.00000000000E+00 -0.00000000000E+00 -0.57180756357E+02  0.57180756414E+02  0.25500000000E-02 0.  1.
    5000001    1    1    2    0    0  0.10821059130E+02  0.92413069397E+02  0.23214858112E+03  0.29962515654E+03  0.16500000000E+03 0.  0.
   -5000001    1    1    2    0    0 -0.10821059130E+02 -0.92413069397E+02  0.35922062890E+03  0.40610556625E+03  0.16500000000E+03 0.  0.
<mgrwt>
<rscale>  0 0.38514713E+03</rscale>
<asrwt>0</asrwt>
<pdfrwt beam="1">  1        2 0.81686794E-02 0.38514713E+03</pdfrwt>
<pdfrwt beam="2">  1       -2 0.92649997E-01 0.38514713E+03</pdfrwt>
<totfact> 0.85327175E+02</totfact>
</mgrwt>
</event>
<event>
 4    1  0.1049403E-004  0.3782627E+03  0.7818608E-02  0.1051578E+00
         -2   -1    0    0    0  501 -0.00000000000E+00  0.00000000000E+00  0.19846463162E+02  0.19846463326E+02  0.25500000000E-02 0. -1.
          2   -1    0    0  501    0  0.00000000000E+00 -0.00000000000E+00 -0.18023698023E+04  0.18023698023E+04  0.25500000000E-02 0.  1.
    5000001    1    1    2    0    0 -0.40339765704E+02 -0.81379327892E+02 -0.80841278795E+03  0.83006392972E+03  0.16500000000E+03 0.  0.
   -5000001    1    1    2    0    0  0.40339765704E+02  0.81379327892E+02 -0.97411055116E+03  0.99215233588E+03  0.16500000000E+03 0.  0.
<mgrwt>
<rscale>  0 0.37826269E+03</rscale>
<asrwt>0</asrwt>
<pdfrwt beam="1">  1        2 0.25748130E+00 0.37826269E+03</pdfrwt>
<pdfrwt beam="2">  1       -2 0.28352102E-02 0.37826269E+03</pdfrwt>
<totfact> 0.50924588E+03</totfact>
</mgrwt>
</event>
<event>
 4    1  0.1049403E-004  0.6124523E+03  0.7818608E-02  0.9879903E-01
         -2   -1    0    0    0  501 -0.00000000000E+00  0.00000000000E+00  0.71506215475E+02  0.71506215521E+02  0.25500000000E-02 0. -1.
          2   -1    0    0  501    0  0.00000000000E+00 -0.00000000000E+00 -0.13114169225E+04  0.13114169225E+04  0.25500000000E-02 0.  1.
    5000001    1    1    2    0    0 -0.15337796691E+03 -0.16446297939E+03 -0.90536443437E+03  0.94735559920E+03  0.16500000000E+03 0.  0.
   -5000001    1    1    2    0    0  0.15337796691E+03  0.16446297939E+03 -0.33454627265E+03  0.43556753881E+03  0.16500000000E+03 0.  0.
<mgrwt>
<rscale>  0 0.61245232E+03</rscale>
<asrwt>0</asrwt>
<pdfrwt beam="1">  1        2 0.18734526E+00 0.61245232E+03</pdfrwt>
<pdfrwt beam="2">  1       -2 0.10215174E-01 0.61245232E+03</pdfrwt>
<totfact> 0.12390831E+03</totfact>
</mgrwt>
</event>
<event>
 4    1  0.1049403E-004  0.7805026E+03  0.7818608E-02  0.9588676E-01
          2   -1    0    0  501    0  0.00000000000E+00  0.00000000000E+00  0.27034890144E+04  0.27034890144E+04  0.25500000000E-02 0.  1.
         -2   -1    0    0    0  501 -0.00000000000E+00 -0.00000000000E+00 -0.56333155330E+02  0.56333155388E+02  0.25500000000E-02 0. -1.
    5000001    1    1    2    0    0 -0.22783257146E+03  0.17561107990E+03  0.59613185675E+03  0.68216209410E+03  0.16500000000E+03 0.  0.
   -5000001    1    1    2    0    0  0.22783257146E+03 -0.17561107990E+03  0.20510240024E+04  0.20776600757E+04  0.16500000000E+03 0.  0.
<mgrwt>
<rscale>  0 0.78050257E+03</rscale>
<asrwt>0</asrwt>
<pdfrwt beam="1">  1        2 0.38621274E+00 0.78050257E+03</pdfrwt>
<pdfrwt beam="2">  1       -2 0.80475931E-02 0.78050257E+03</pdfrwt>
<totfact> 0.34652525E+02</totfact>
</mgrwt>
</event>
<event>
 4    1  0.1049403E-004  0.5363644E+03  0.7818608E-02  0.1004700E+00
         -2   -1    0    0    0  501 -0.00000000000E+00  0.00000000000E+00  0.33787548208E+02  0.33787548305E+02  0.25500000000E-02 0. -1.
          2   -1    0    0  501    0  0.00000000000E+00 -0.00000000000E+00 -0.21286446843E+04  0.21286446843E+04  0.25500000000E-02 0.  1.
    5000001    1    1    2    0    0 -0.16339975164E+03  0.37688425538E+02 -0.52835037387E+03  0.57835889707E+03  0.16500000000E+03 0.  0.
   -5000001    1    1    2    0    0  0.16339975164E+03 -0.37688425538E+02 -0.15665067622E+04  0.15840733355E+04  0.16500000000E+03 0.  0.
<mgrwt>
<rscale>  0 0.53636437E+03</rscale>
<asrwt>0</asrwt>
<pdfrwt beam="1">  1        2 0.30409201E+00 0.53636437E+03</pdfrwt>
<pdfrwt beam="2">  1       -2 0.48267940E-02 0.53636437E+03</pdfrwt>
<totfact> 0.15522475E+03</totfact>
</mgrwt>
</event>
<event>
 4    1  0.1049403E-004  0.4289611E+03  0.7818608E-02  0.1034189E+00
          2   -1    0    0  501    0  0.00000000000E+00  0.00000000000E+00  0.56655250416E+03  0.56655250417E+03  0.25500000000E-02 0.  1.
         -2   -1    0    0    0  501 -0.00000000000E+00 -0.00000000000E+00 -0.81196176725E+02  0.81196176765E+02  0.25500000000E-02 0. -1.
    5000001    1    1    2    0    0  0.12262456828E+03 -0.15106206443E+02  0.33216531246E+03  0.39092681799E+03  0.16500000000E+03 0.  0.
   -5000001    1    1    2    0    0 -0.12262456828E+03  0.15106206443E+02  0.15319101497E+03  0.25682186295E+03  0.16500000000E+03 0.  0.
<mgrwt>
<rscale>  0 0.42896106E+03</rscale>
<asrwt>0</asrwt>
<pdfrwt beam="1">  1        2 0.80936075E-01 0.42896106E+03</pdfrwt>
<pdfrwt beam="2">  1       -2 0.11599453E-01 0.42896106E+03</pdfrwt>
<totfact> 0.30920883E+03</totfact>
</mgrwt>
</event>
<event>
 4    1  0.1049403E-004  0.3939481E+03  0.7818608E-02  0.1045896E+00
         -2   -1    0    0    0  501 -0.00000000000E+00  0.00000000000E+00  0.98197757935E+02  0.98197757968E+02  0.25500000000E-02 0. -1.
          2   -1    0    0  501    0  0.00000000000E+00 -0.00000000000E+00 -0.39510857805E+03  0.39510857806E+03  0.25500000000E-02 0.  1.
    5000001    1    1    2    0    0 -0.65910449749E+02 -0.67472239549E+02 -0.21324553920E+03  0.28564899875E+03  0.16500000000E+03 0.  0.
   -5000001    1    1    2    0    0  0.65910449749E+02  0.67472239549E+02 -0.83665280914E+02  0.20765733728E+03  0.16500000000E+03 0.  0.
<mgrwt>
<rscale>  0 0.39394810E+03</rscale>
<asrwt>0</asrwt>
<pdfrwt beam="1">  1        2 0.56444082E-01 0.39394810E+03</pdfrwt>
<pdfrwt beam="2">  1       -2 0.14028251E-01 0.39394810E+03</pdfrwt>
<totfact> 0.33808243E+03</totfact>
</mgrwt>
</event>
<event>
 4    1  0.1049403E-004  0.5214757E+03  0.7818608E-02  0.1008321E+00
         -2   -1    0    0    0  501 -0.00000000000E+00  0.00000000000E+00  0.34843778113E+02  0.34843778206E+02  0.25500000000E-02 0. -1.
          2   -1    0    0  501    0  0.00000000000E+00 -0.00000000000E+00 -0.19511154791E+04  0.19511154791E+04  0.25500000000E-02 0.  1.
    5000001    1    1    2    0    0 -0.82766767551E+02 -0.17121572569E+03 -0.70000783137E+03  0.74390935369E+03  0.16500000000E+03 0.  0.
   -5000001    1    1    2    0    0  0.82766767551E+02  0.17121572569E+03 -0.12162638696E+04  0.12420499036E+04  0.16500000000E+03 0.  0.
<mgrwt>
<rscale>  0 0.52147573E+03</rscale>
<asrwt>0</asrwt>
<pdfrwt beam="1">  1        2 0.27873071E+00 0.52147573E+03</pdfrwt>
<pdfrwt beam="2">  1       -2 0.49776838E-02 0.52147573E+03</pdfrwt>
<totfact> 0.18171173E+03</totfact>
</mgrwt>
</event>
<event>
 4    1  0.1049403E-004  0.4358360E+03  0.7818608E-02  0.1032032E+00
         -2   -1    0    0    0  501 -0.00000000000E+00  0.00000000000E+00  0.58156996524E+02  0.58156996580E+02  0.25500000000E-02 0. -1.
          2   -1    0    0  501    0  0.00000000000E+00 -0.00000000000E+00 -0.81655259221E+03  0.81655259221E+03  0.25500000000E-02 0.  1.
    5000001    1    1    2    0    0 -0.11493924906E+02  0.68593335138E+02 -0.12992851665E+03  0.22123194926E+03  0.16500000000E+03 0.  0.
   -5000001    1    1    2    0    0  0.11493924906E+02 -0.68593335138E+02 -0.62846707903E+03  0.65347763953E+03  0.16500000000E+03 0.  0.
<mgrwt>
<rscale>  0 0.43583596E+03</rscale>
<asrwt>0</asrwt>
<pdfrwt beam="1">  1        2 0.11665036E+00 0.43583596E+03</pdfrwt>
<pdfrwt beam="2">  1       -2 0.83081429E-02 0.43583596E+03</pdfrwt>
<totfact> 0.34054619E+03</totfact>
</mgrwt>
</event>
<event>
 4    1  0.1049403E-004  0.5135941E+03  0.7818608E-02  0.1010290E+00
          2   -1    0    0  501    0  0.00000000000E+00  0.00000000000E+00  0.20006562086E+04  0.20006562086E+04  0.25500000000E-02 0.  1.
         -2   -1    0    0    0  501 -0.00000000000E+00 -0.00000000000E+00 -0.32961551220E+02  0.32961551319E+02  0.25500000000E-02 0. -1.
    5000001    1    1    2    0    0  0.16907353077E+03 -0.71222992540E+02  0.12655391609E+04  0.12893692028E+04  0.16500000000E+03 0.  0.
   -5000001    1    1    2    0    0 -0.16907353077E+03  0.71222992540E+02  0.70215549647E+03  0.74424855707E+03  0.16500000000E+03 0.  0.
<mgrwt>
<rscale>  0 0.51359413E+03</rscale>
<asrwt>0</asrwt>
<pdfrwt beam="1">  1        2 0.28580806E+00 0.51359413E+03</pdfrwt>
<pdfrwt beam="2">  1       -2 0.47087926E-02 0.51359413E+03</pdfrwt>
<totfact> 0.18707393E+03</totfact>
</mgrwt>
</event>
<event>
 4    1  0.1049403E-004  0.4056293E+03  0.7818608E-02  0.1041848E+00
          2   -1    0    0  501    0  0.00000000000E+00  0.00000000000E+00  0.31819324971E+03  0.31819324973E+03  0.25500000000E-02 0.  1.
         -2   -1    0    0    0  501 -0.00000000000E+00 -0.00000000000E+00 -0.12927293244E+03  0.12927293246E+03  0.25500000000E-02 0. -1.
    5000001    1    1    2    0    0 -0.47346067016E+02 -0.91115917914E+02  0.15845196568E+03  0.25075044563E+03  0.16500000000E+03 0.  0.
   -5000001    1    1    2    0    0  0.47346067016E+02  0.91115917914E+02  0.30468351601E+02  0.19671573655E+03  0.16500000000E+03 0.  0.
<mgrwt>
<rscale>  0 0.40562926E+03</rscale>
<asrwt>0</asrwt>
<pdfrwt beam="1">  1        2 0.45456178E-01 0.40562926E+03</pdfrwt>
<pdfrwt beam="2">  1       -2 0.18467562E-01 0.40562926E+03</pdfrwt>
<totfact> 0.26991256E+03</totfact>
</mgrwt>
</event>
<event>
 4    1  0.1049403E-004  0.6276420E+03  0.7818608E-02  0.9849661E-01
          2   -1    0    0  501    0  0.00000000000E+00  0.00000000000E+00  0.71727394155E+03  0.71727394155E+03  0.25500000000E-02 0.  1.
         -2   -1    0    0    0  501 -0.00000000000E+00 -0.00000000000E+00 -0.13730267455E+03  0.13730267457E+03  0.25500000000E-02 0. -1.
    5000001    1    1    2    0    0 -0.19273459956E+03  0.18297338628E+03  0.32423505282E+03  0.45053219134E+03  0.16500000000E+03 0.  0.
   -5000001    1    1    2    0    0  0.19273459956E+03 -0.18297338628E+03  0.25573621418E+03  0.40404442478E+03  0.16500000000E+03 0.  0.
<mgrwt>
<rscale>  0 0.62764203E+03</rscale>
<asrwt>0</asrwt>
<pdfrwt beam="1">  1        2 0.10246771E+00 0.62764203E+03</pdfrwt>
<pdfrwt beam="2">  1       -2 0.19614668E-01 0.62764203E+03</pdfrwt>
<totfact> 0.96657559E+02</totfact>
</mgrwt>
</event>
<event>
 4    1  0.1049403E-004  0.5607395E+03  0.7818608E-02  0.9990383E-01
         -2   -1    0    0    0  501 -0.00000000000E+00  0.00000000000E+00  0.90457847985E+02  0.90457848021E+02  0.25500000000E-02 0. -1.
          2   -1    0    0  501    0  0.00000000000E+00 -0.00000000000E+00 -0.86899255674E+03  0.86899255674E+03  0.25500000000E-02 0.  1.
    5000001    1    1    2    0    0  0.19892840997E+02 -0.22104625202E+03 -0.46814310415E+03  0.54372799874E+03  0.16500000000E+03 0.  0.
   -5000001    1    1    2    0    0 -0.19892840997E+02  0.22104625202E+03 -0.31039160461E+03  0.41572240602E+03  0.16500000000E+03 0.  0.
<mgrwt>
<rscale>  0 0.56073950E+03</rscale>
<asrwt>0</asrwt>
<pdfrwt beam="1">  1        2 0.12414179E+00 0.56073950E+03</pdfrwt>
<pdfrwt beam="2">  1       -2 0.12922550E-01 0.56073950E+03</pdfrwt>
<totfact> 0.15375261E+03</totfact>
</mgrwt>
</event>
<event>
 4    1  0.1049403E-004  0.4746605E+03  0.7818608E-02  0.1020613E+00
         -2   -1    0    0    0  501 -0.00000000000E+00  0.00000000000E+00  0.29079953625E+02  0.29079953736E+02  0.25500000000E-02 0. -1.
          2   -1    0    0  501    0  0.00000000000E+00 -0.00000000000E+00 -0.19369237453E+04  0.19369237453E+04  0.25500000000E-02 0.  1.
    5000001    1    1    2    0    0 -0.12215750567E+03 -0.10141144419E+03 -0.69546121456E+03  0.73218716061E+03  0.16500000000E+03 0.  0.
   -5000001    1    1    2    0    0  0.12215750567E+03  0.10141144419E+03 -0.12123825771E+04  0.12338165384E+04  0.16500000000E+03 0.  0.
<mgrwt>
<rscale>  0 0.47466052E+03</rscale>
<asrwt>0</asrwt>
<pdfrwt beam="1">  1        2 0.27670331E+00 0.47466052E+03</pdfrwt>
<pdfrwt beam="2">  1       -2 0.41542803E-02 0.47466052E+03</pdfrwt>
<totfact> 0.24436421E+03</totfact>
</mgrwt>
</event>
<event>
 4    1  0.1049403E-004  0.6232674E+03  0.7818608E-02  0.9858276E-01
         -2   -1    0    0    0  501 -0.00000000000E+00  0.00000000000E+00  0.71141684325E+02  0.71141684371E+02  0.25500000000E-02 0. -1.
          2   -1    0    0  501    0  0.00000000000E+00 -0.00000000000E+00 -0.13651008767E+04  0.13651008767E+04  0.25500000000E-02 0.  1.
    5000001    1    1    2    0    0  0.22040909723E+03  0.26942921400E+02 -0.97759520252E+03  0.10159839916E+04  0.16500000000E+03 0.  0.
   -5000001    1    1    2    0    0 -0.22040909723E+03 -0.26942921400E+02 -0.31636398986E+03  0.42025856950E+03  0.16500000000E+03 0.  0.
<mgrwt>
<rscale>  0 0.62326744E+03</rscale>
<asrwt>0</asrwt>
<pdfrwt beam="1">  1        2 0.19501439E+00 0.62326744E+03</pdfrwt>
<pdfrwt beam="2">  1       -2 0.10163099E-01 0.62326744E+03</pdfrwt>
<totfact> 0.11684354E+03</totfact>
</mgrwt>
</event>
<event>
 4    1  0.1049403E-004  0.6753269E+03  0.7818608E-02  0.9760382E-01
         -2   -1    0    0    0  501 -0.00000000000E+00  0.00000000000E+00  0.72145892307E+02  0.72145892352E+02  0.25500000000E-02 0. -1.
          2   -1    0    0  501    0  0.00000000000E+00 -0.00000000000E+00 -0.15803618744E+04  0.15803618744E+04  0.25500000000E-02 0.  1.
    5000001    1    1    2    0    0  0.17546856035E+03 -0.21270281904E+03 -0.10079326502E+04  0.10579153710E+04  0.16500000000E+03 0.  0.
   -5000001    1    1    2    0    0 -0.17546856035E+03  0.21270281904E+03 -0.50028333188E+03  0.59459239572E+03  0.16500000000E+03 0.  0.
<mgrwt>
<rscale>  0 0.67532694E+03</rscale>
<asrwt>0</asrwt>
<pdfrwt beam="1">  1        2 0.22576596E+00 0.67532694E+03</pdfrwt>
<pdfrwt beam="2">  1       -2 0.10306557E-01 0.67532694E+03</pdfrwt>
<totfact> 0.87829862E+02</totfact>
</mgrwt>
</event>
<event>
 4    1  0.1049403E-004  0.4676759E+03  0.7818608E-02  0.1022578E+00
          2   -1    0    0  501    0  0.00000000000E+00  0.00000000000E+00  0.45610533249E+03  0.45610533250E+03  0.25500000000E-02 0.  1.
         -2   -1    0    0    0  501 -0.00000000000E+00 -0.00000000000E+00 -0.11988498608E+03  0.11988498611E+03  0.25500000000E-02 0. -1.
    5000001    1    1    2    0    0  0.15523887027E+03  0.28038403113E+02  0.23054547748E+03  0.32444025040E+03  0.16500000000E+03 0.  0.
   -5000001    1    1    2    0    0 -0.15523887027E+03 -0.28038403113E+02  0.10567486893E+03  0.25155006821E+03  0.16500000000E+03 0.  0.
<mgrwt>
<rscale>  0 0.46767588E+03</rscale>
<asrwt>0</asrwt>
<pdfrwt beam="1">  1        2 0.65157905E-01 0.46767588E+03</pdfrwt>
<pdfrwt beam="2">  1       -2 0.17126427E-01 0.46767588E+03</pdfrwt>
<totfact> 0.20694043E+03</totfact>
</mgrwt>
</event>
<event>
 4    1  0.1049403E-004  0.6641826E+03  0.7818608E-02  0.9780525E-01
          2   -1    0    0  501    0  0.00000000000E+00  0.00000000000E+00  0.13298379773E+04  0.13298379773E+04  0.25500000000E-02 0.  1.
         -2   -1    0    0    0  501 -0.00000000000E+00 -0.00000000000E+00 -0.82930881540E+02  0.82930881579E+02  0.25500000000E-02 0. -1.
    5000001    1    1    2    0    0 -0.23490449621E+03  0.15308590089E+03  0.76525523739E+03  0.83153832969E+03  0.16500000000E+03 0.  0.
   -5000001    1    1    2    0    0  0.23490449621E+03 -0.15308590089E+03  0.48165185835E+03  0.58123052917E+03  0.16500000000E+03 0.  0.
<mgrwt>
<rscale>  0 0.66418261E+03</rscale>
<asrwt>0</asrwt>
<pdfrwt beam="1">  1        2 0.18997684E+00 0.66418261E+03</pdfrwt>
<pdfrwt beam="2">  1       -2 0.11847270E-01 0.66418261E+03</pdfrwt>
<totfact> 0.94849104E+02</totfact>
</mgrwt>
</event>
<event>
 4    1  0.1049403E-004  0.5540764E+03  0.7818608E-02  0.1000555E+00
         -2   -1    0    0    0  501 -0.00000000000E+00  0.00000000000E+00  0.37401417110E+02  0.37401417197E+02  0.25500000000E-02 0. -1.
          2   -1    0    0  501    0  0.00000000000E+00 -0.00000000000E+00 -0.20520657776E+04  0.20520657776E+04  0.25500000000E-02 0.  1.
    5000001    1    1    2    0    0  0.18596296464E+03  0.44565901813E+02 -0.14365869990E+04  0.14586211124E+04  0.16500000000E+03 0.  0.
   -5000001    1    1    2    0    0 -0.18596296464E+03 -0.44565901813E+02 -0.57807736153E+03  0.63084608245E+03  0.16500000000E+03 0.  0.
<mgrwt>
<rscale>  0 0.55407641E+03</rscale>
<asrwt>0</asrwt>
<pdfrwt beam="1">  1        2 0.29315218E+00 0.55407641E+03</pdfrwt>
<pdfrwt beam="2">  1       -2 0.53430609E-02 0.55407641E+03</pdfrwt>
<totfact> 0.14472200E+03</totfact>
</mgrwt>
</event>
<event>
 4    1  0.1049403E-004  0.5332499E+03  0.7818608E-02  0.1005447E+00
         -2   -1    0    0    0  501 -0.00000000000E+00  0.00000000000E+00  0.92510243872E+02  0.92510243907E+02  0.25500000000E-02 0. -1.
          2   -1    0    0  501    0  0.00000000000E+00 -0.00000000000E+00 -0.76844324313E+03  0.76844324313E+03  0.25500000000E-02 0.  1.
    5000001    1    1    2    0    0  0.13047407016E+03 -0.16126941054E+03 -0.38455280184E+03  0.46705156371E+03  0.16500000000E+03 0.  0.
   -5000001    1    1    2    0    0 -0.13047407016E+03  0.16126941054E+03 -0.29138019741E+03  0.39390192333E+03  0.16500000000E+03 0.  0.
<mgrwt>
<rscale>  0 0.53324993E+03</rscale>
<asrwt>0</asrwt>
<pdfrwt beam="1">  1        2 0.10977760E+00 0.53324993E+03</pdfrwt>
<pdfrwt beam="2">  1       -2 0.13215750E-01 0.53324993E+03</pdfrwt>
<totfact> 0.17351168E+03</totfact>
</mgrwt>
</event>
<event>
 4    1  0.1049403E-004  0.8763084E+03  0.7818608E-02  0.9455691E-01
         -2   -1    0    0    0  501 -0.00000000000E+00  0.00000000000E+00  0.16836857916E+03  0.16836857918E+03  0.25500000000E-02 0. -1.
          2   -1    0    0  501    0  0.00000000000E+00 -0.00000000000E+00 -0.11402312235E+04  0.11402312235E+04  0.25500000000E-02 0.  1.
    5000001    1    1    2    0    0 -0.40283752149E+03 -0.36466692024E+02 -0.53648867962E+03  0.69184752056E+03  0.16500000000E+03 0.  0.
   -5000001    1    1    2    0    0  0.40283752149E+03  0.36466692024E+02 -0.43537396474E+03  0.61675228214E+03  0.16500000000E+03 0.  0.
<mgrwt>
<rscale>  0 0.87630842E+03</rscale>
<asrwt>0</asrwt>
<pdfrwt beam="1">  1        2 0.16289017E+00 0.87630842E+03</pdfrwt>
<pdfrwt beam="2">  1       -2 0.24052655E-01 0.87630842E+03</pdfrwt>
<totfact> 0.35587453E+02</totfact>
</mgrwt>
</event>
<event>
 4    1  0.1049403E-004  0.6621191E+03  0.7818608E-02  0.9784301E-01
         -2   -1    0    0    0  501 -0.00000000000E+00  0.00000000000E+00  0.27328150422E+03  0.27328150423E+03  0.25500000000E-02 0. -1.
          2   -1    0    0  501    0  0.00000000000E+00 -0.00000000000E+00 -0.40105321120E+03  0.40105321121E+03  0.25500000000E-02 0.  1.
    5000001    1    1    2    0    0  0.25557644648E+03 -0.73199419664E+02  0.46266626777E+02  0.31629586748E+03  0.16500000000E+03 0.  0.
   -5000001    1    1    2    0    0 -0.25557644648E+03  0.73199419664E+02 -0.17403833375E+03  0.35803884796E+03  0.16500000000E+03 0.  0.
<mgrwt>
<rscale>  0 0.66211910E+03</rscale>
<asrwt>0</asrwt>
<pdfrwt beam="1">  1        2 0.57293316E-01 0.66211910E+03</pdfrwt>
<pdfrwt beam="2">  1       -2 0.39040215E-01 0.66211910E+03</pdfrwt>
<totfact> 0.53822548E+02</totfact>
</mgrwt>
</event>
<event>
 4    1  0.1049403E-004  0.3924164E+03  0.7818608E-02  0.1046438E+00
          2   -1    0    0  501    0  0.00000000000E+00  0.00000000000E+00  0.11030151092E+04  0.11030151092E+04  0.25500000000E-02 0.  1.
         -2   -1    0    0    0  501 -0.00000000000E+00 -0.00000000000E+00 -0.34902209455E+02  0.34902209548E+02  0.25500000000E-02 0. -1.
    5000001    1    1    2    0    0 -0.33745440964E+02 -0.53184871298E+02  0.78190245713E+03  0.80160079703E+03  0.16500000000E+03 0.  0.
   -5000001    1    1    2    0    0  0.33745440964E+02  0.53184871298E+02  0.28621044256E+03  0.33631652168E+03  0.16500000000E+03 0.  0.
<mgrwt>
<rscale>  0 0.39241643E+03</rscale>
<asrwt>0</asrwt>
<pdfrwt beam="1">  1        2 0.15757359E+00 0.39241643E+03</pdfrwt>
<pdfrwt beam="2">  1       -2 0.49860298E-02 0.39241643E+03</pdfrwt>
<totfact> 0.50179608E+03</totfact>
</mgrwt>
</event>
<event>
 4    1  0.1049403E-004  0.4541109E+03  0.7818608E-02  0.1026503E+00
         -2   -1    0    0    0  501 -0.00000000000E+00  0.00000000000E+00  0.46411007336E+02  0.46411007406E+02  0.25500000000E-02 0. -1.
          2   -1    0    0  501    0  0.00000000000E+00 -0.00000000000E+00 -0.11108180456E+04  0.11108180456E+04  0.25500000000E-02 0.  1.
    5000001    1    1    2    0    0  0.86860648132E+02  0.76679039145E+02 -0.79831583546E+03  0.82338181932E+03  0.16500000000E+03 0.  0.
   -5000001    1    1    2    0    0 -0.86860648132E+02 -0.76679039145E+02 -0.26609120284E+03  0.33384723373E+03  0.16500000000E+03 0.  0.
<mgrwt>
<rscale>  0 0.45411093E+03</rscale>
<asrwt>0</asrwt>
<pdfrwt beam="1">  1        2 0.15868828E+00 0.45411093E+03</pdfrwt>
<pdfrwt beam="2">  1       -2 0.66301446E-02 0.45411093E+03</pdfrwt>
<totfact> 0.31975541E+03</totfact>
</mgrwt>
</event>
<event>
 4    1  0.1049403E-004  0.6251927E+03  0.7818608E-02  0.9854475E-01
          2   -1    0    0  501    0  0.00000000000E+00  0.00000000000E+00  0.50804478274E+03  0.50804478275E+03  0.25500000000E-02 0.  1.
         -2   -1    0    0    0  501 -0.00000000000E+00 -0.00000000000E+00 -0.19233829090E+03  0.19233829092E+03  0.25500000000E-02 0. -1.
    5000001    1    1    2    0    0  0.26540542824E+03  0.62158492028E+01  0.15384727437E+03  0.34838579470E+03  0.16500000000E+03 0.  0.
   -5000001    1    1    2    0    0 -0.26540542824E+03 -0.62158492028E+01  0.16185921747E+03  0.35199727897E+03  0.16500000000E+03 0.  0.
<mgrwt>
<rscale>  0 0.62519266E+03</rscale>
<asrwt>0</asrwt>
<pdfrwt beam="1">  1        2 0.72577825E-01 0.62519266E+03</pdfrwt>
<pdfrwt beam="2">  1       -2 0.27476899E-01 0.62519266E+03</pdfrwt>
<totfact> 0.79796637E+02</totfact>
</mgrwt>
</event>
<event>
 4    1  0.1049403E-004  0.5226989E+03  0.7818608E-02  0.1008018E+00
          2   -1    0    0  501    0  0.00000000000E+00  0.00000000000E+00  0.59651133449E+02  0.59651133503E+02  0.25500000000E-02 0.  1.
         -2   -1    0    0    0  501 -0.00000000000E+00 -0.00000000000E+00 -0.11450499172E+04  0.11450499172E+04  0.25500000000E-02 0. -1.
    5000001    1    1    2    0    0 -0.32116146847E+02  0.18982522846E+03 -0.68871096089E+03  0.73390248119E+03  0.16500000000E+03 0.  0.
   -5000001    1    1    2    0    0  0.32116146847E+02 -0.18982522846E+03 -0.39668782283E+03  0.47079856948E+03  0.16500000000E+03 0.  0.
<mgrwt>
<rscale>  0 0.52269886E+03</rscale>
<asrwt>0</asrwt>
<pdfrwt beam="1">  1        2 0.85215912E-02 0.52269886E+03</pdfrwt>
<pdfrwt beam="2">  1       -2 0.16357855E+00 0.52269886E+03</pdfrwt>
<totfact> 0.19730265E+02</totfact>
</mgrwt>
</event>
<event>
 4    1  0.1049403E-004  0.6457181E+03  0.7818608E-02  0.9814847E-01
         -2   -1    0    0    0  501 -0.00000000000E+00  0.00000000000E+00  0.69737199615E+02  0.69737199661E+02  0.25500000000E-02 0. -1.
          2   -1    0    0  501    0  0.00000000000E+00 -0.00000000000E+00 -0.14947255043E+04  0.14947255043E+04  0.25500000000E-02 0.  1.
    5000001    1    1    2    0    0  0.24023829817E+03 -0.75997203827E+02 -0.43074795595E+03  0.52560328809E+03  0.16500000000E+03 0.  0.
   -5000001    1    1    2    0    0 -0.24023829817E+03  0.75997203827E+02 -0.99424034877E+03  0.10388594159E+04  0.16500000000E+03 0.  0.
<mgrwt>
<rscale>  0 0.64571811E+03</rscale>
<asrwt>0</asrwt>
<pdfrwt beam="1">  1        2 0.21353220E+00 0.64571811E+03</pdfrwt>
<pdfrwt beam="2">  1       -2 0.99624580E-02 0.64571811E+03</pdfrwt>
<totfact> 0.10297067E+03</totfact>
</mgrwt>
</event>
<event>
 4    1  0.1049403E-004  0.4327530E+03  0.7818608E-02  0.1032994E+00
          2   -1    0    0  501    0  0.00000000000E+00  0.00000000000E+00  0.13846955212E+03  0.13846955215E+03  0.25500000000E-02 0.  1.
         -2   -1    0    0    0  501 -0.00000000000E+00 -0.00000000000E+00 -0.33811613673E+03  0.33811613674E+03  0.25500000000E-02 0. -1.
    5000001    1    1    2    0    0 -0.13840441867E+03  0.20288594734E+02 -0.94166932644E+02  0.23592333794E+03  0.16500000000E+03 0.  0.
   -5000001    1    1    2    0    0  0.13840441867E+03 -0.20288594734E+02 -0.10547965196E+03  0.24066235094E+03  0.16500000000E+03 0.  0.
<mgrwt>
<rscale>  0 0.43275300E+03</rscale>
<asrwt>0</asrwt>
<pdfrwt beam="1">  1        2 0.19781365E-01 0.43275300E+03</pdfrwt>
<pdfrwt beam="2">  1       -2 0.48302305E-01 0.43275300E+03</pdfrwt>
<totfact> 0.11673735E+03</totfact>
</mgrwt>
</event>
<event>
 4    1  0.1049403E-004  0.6379934E+03  0.7818608E-02  0.9829573E-01
         -2   -1    0    0    0  501 -0.00000000000E+00  0.00000000000E+00  0.73039145304E+03  0.73039145305E+03  0.25500000000E-02 0. -1.
          2   -1    0    0  501    0  0.00000000000E+00 -0.00000000000E+00 -0.13932103994E+03  0.13932103996E+03  0.25500000000E-02 0.  1.
    5000001    1    1    2    0    0  0.23709539090E+03 -0.66910747573E+02  0.13514836555E+03  0.32585480392E+03  0.16500000000E+03 0.  0.
   -5000001    1    1    2    0    0 -0.23709539090E+03  0.66910747573E+02  0.45592204756E+03  0.54385768909E+03  0.16500000000E+03 0.  0.
<mgrwt>
<rscale>  0 0.63799341E+03</rscale>
<asrwt>0</asrwt>
<pdfrwt beam="1">  1        2 0.19903006E-01 0.63799341E+03</pdfrwt>
<pdfrwt beam="2">  1       -2 0.10434164E+00 0.63799341E+03</pdfrwt>
<totfact> 0.21572272E+02</totfact>
</mgrwt>
</event>
<event>
 4    1  0.1049403E-004  0.5830756E+03  0.7818608E-02  0.9941154E-01
          2   -1    0    0  501    0  0.00000000000E+00  0.00000000000E+00  0.22942451984E+03  0.22942451985E+03  0.25500000000E-02 0.  1.
         -2   -1    0    0    0  501 -0.00000000000E+00 -0.00000000000E+00 -0.37046735116E+03  0.37046735117E+03  0.25500000000E-02 0. -1.
    5000001    1    1    2    0    0 -0.13357656113E+02  0.14597322600E+03 -0.26649511987E+03  0.34602204930E+03  0.16500000000E+03 0.  0.
   -5000001    1    1    2    0    0  0.13357656113E+02 -0.14597322600E+03  0.12545228855E+03  0.25386982173E+03  0.16500000000E+03 0.  0.
<mgrwt>
<rscale>  0 0.58307562E+03</rscale>
<asrwt>0</asrwt>
<pdfrwt beam="1">  1        2 0.32774932E-01 0.58307562E+03</pdfrwt>
<pdfrwt beam="2">  1       -2 0.52923907E-01 0.58307562E+03</pdfrwt>
<totfact> 0.54638522E+02</totfact>
</mgrwt>
</event>
<event>
 4    1  0.1049403E-004  0.9141585E+03  0.7818608E-02  0.9408054E-01
          2   -1    0    0  501    0  0.00000000000E+00  0.00000000000E+00  0.10711223519E+04  0.10711223519E+04  0.25500000000E-02 0.  1.
         -2   -1    0    0    0  501 -0.00000000000E+00 -0.00000000000E+00 -0.19504908021E+03  0.19504908023E+03  0.25500000000E-02 0. -1.
    5000001    1    1    2    0    0  0.16496200066E+03  0.39086486626E+03  0.49528911487E+03  0.67269912490E+03  0.16500000000E+03 0.  0.
   -5000001    1    1    2    0    0 -0.16496200066E+03 -0.39086486626E+03  0.38078415678E+03  0.59347230718E+03  0.16500000000E+03 0.  0.
<mgrwt>
<rscale>  0 0.91415848E+03</rscale>
<asrwt>0</asrwt>
<pdfrwt beam="1">  1        2 0.15301748E+00 0.91415848E+03</pdfrwt>
<pdfrwt beam="2">  1       -2 0.27864154E-01 0.91415848E+03</pdfrwt>
<totfact> 0.29860647E+02</totfact>
</mgrwt>
</event>
<event>
 4    1  0.1049403E-004  0.4358619E+03  0.7818608E-02  0.1032024E+00
          2   -1    0    0  501    0  0.00000000000E+00  0.00000000000E+00  0.14019939900E+04  0.14019939900E+04  0.25500000000E-02 0.  1.
         -2   -1    0    0    0  501 -0.00000000000E+00 -0.00000000000E+00 -0.33875965637E+02  0.33875965733E+02  0.25500000000E-02 0. -1.
    5000001    1    1    2    0    0 -0.81825198758E+02 -0.11203277329E+03  0.78938439346E+03  0.81829055113E+03  0.16500000000E+03 0.  0.
   -5000001    1    1    2    0    0  0.81825198758E+02  0.11203277329E+03  0.57873363088E+03  0.61757940457E+03  0.16500000000E+03 0.  0.
<mgrwt>
<rscale>  0 0.43586191E+03</rscale>
<asrwt>0</asrwt>
<pdfrwt beam="1">  1        2 0.20028492E+00 0.43586191E+03</pdfrwt>
<pdfrwt beam="2">  1       -2 0.48394222E-02 0.43586191E+03</pdfrwt>
<totfact> 0.36127979E+03</totfact>
</mgrwt>
</event>
<event>
 4    1  0.1049403E-004  0.3541679E+03  0.7818608E-02  0.1060917E+00
          2   -1    0    0  501    0  0.00000000000E+00  0.00000000000E+00  0.22831850487E+04  0.22831850487E+04  0.25500000000E-02 0.  1.
         -2   -1    0    0    0  501 -0.00000000000E+00 -0.00000000000E+00 -0.13734643684E+02  0.13734643920E+02  0.25500000000E-02 0. -1.
    5000001    1    1    2    0    0 -0.57135811483E+02 -0.16026591822E+02  0.12952149655E+04  0.13070302826E+04  0.16500000000E+03 0.  0.
   -5000001    1    1    2    0    0  0.57135811483E+02  0.16026591822E+02  0.97423543949E+03  0.98988941006E+03  0.16500000000E+03 0.  0.
<mgrwt>
<rscale>  0 0.35416795E+03</rscale>
<asrwt>0</asrwt>
<pdfrwt beam="1">  1        2 0.32616933E+00 0.35416795E+03</pdfrwt>
<pdfrwt beam="2">  1       -2 0.19620918E-02 0.35416795E+03</pdfrwt>
<totfact> 0.51015718E+03</totfact>
</mgrwt>
</event>
<event>
 4    1  0.1049403E-004  0.5462973E+03  0.7818608E-02  0.1002355E+00
         -2   -1    0    0    0  501 -0.00000000000E+00  0.00000000000E+00  0.70621493577E+02  0.70621493623E+02  0.25500000000E-02 0. -1.
          2   -1    0    0  501    0  0.00000000000E+00 -0.00000000000E+00 -0.10564798086E+04  0.10564798086E+04  0.25500000000E-02 0.  1.
    5000001    1    1    2    0    0  0.20806071755E+03 -0.59836085596E+02 -0.44608292633E+03  0.52257496734E+03  0.16500000000E+03 0.  0.
   -5000001    1    1    2    0    0 -0.20806071755E+03  0.59836085596E+02 -0.53977538866E+03  0.60452633486E+03  0.16500000000E+03 0.  0.
<mgrwt>
<rscale>  0 0.54629729E+03</rscale>
<asrwt>0</asrwt>
<pdfrwt beam="1">  1        2 0.15092568E+00 0.54629729E+03</pdfrwt>
<pdfrwt beam="2">  1       -2 0.10088785E-01 0.54629729E+03</pdfrwt>
<totfact> 0.17633215E+03</totfact>
</mgrwt>
</event>
<event>
 4    1  0.1049403E-004  0.4328349E+03  0.7818608E-02  0.1032968E+00
         -2   -1    0    0    0  501 -0.00000000000E+00  0.00000000000E+00  0.14355219497E+03  0.14355219499E+03  0.25500000000E-02 0. -1.
          2   -1    0    0  501    0  0.00000000000E+00 -0.00000000000E+00 -0.32626820575E+03  0.32626820576E+03  0.25500000000E-02 0.  1.
    5000001    1    1    2    0    0  0.11472036910E+03  0.75943629451E+02 -0.11973205840E+03  0.24594504213E+03  0.16500000000E+03 0.  0.
   -5000001    1    1    2    0    0 -0.11472036910E+03 -0.75943629451E+02 -0.62983952379E+02  0.22387535862E+03  0.16500000000E+03 0.  0.
<mgrwt>
<rscale>  0 0.43283492E+03</rscale>
<asrwt>0</asrwt>
<pdfrwt beam="1">  1        2 0.46609744E-01 0.43283492E+03</pdfrwt>
<pdfrwt beam="2">  1       -2 0.20507456E-01 0.43283492E+03</pdfrwt>
<totfact> 0.21947239E+03</totfact>
</mgrwt>
</event>
<event>
 4    1  0.1049403E-004  0.4272264E+03  0.7818608E-02  0.1034740E+00
         -2   -1    0    0    0  501 -0.00000000000E+00  0.00000000000E+00  0.16288306297E+03  0.16288306299E+03  0.25500000000E-02 0. -1.
          2   -1    0    0  501    0  0.00000000000E+00 -0.00000000000E+00 -0.28014332053E+03  0.28014332054E+03  0.25500000000E-02 0.  1.
    5000001    1    1    2    0    0  0.85146754141E+02 -0.61252605742E+02 -0.14785735402E+03  0.24512986066E+03  0.16500000000E+03 0.  0.
   -5000001    1    1    2    0    0 -0.85146754141E+02  0.61252605742E+02  0.30597096458E+02  0.19789652287E+03  0.16500000000E+03 0.  0.
<mgrwt>
<rscale>  0 0.42722641E+03</rscale>
<asrwt>0</asrwt>
<pdfrwt beam="1">  1        2 0.40020474E-01 0.42722641E+03</pdfrwt>
<pdfrwt beam="2">  1       -2 0.23269009E-01 0.42722641E+03</pdfrwt>
<totfact> 0.20781064E+03</totfact>
</mgrwt>
</event>
<event>
 4    1  0.1049403E-004  0.9874768E+03  0.7818608E-02  0.9322388E-01
          2   -1    0    0  501    0  0.00000000000E+00  0.00000000000E+00  0.14111180024E+04  0.14111180024E+04  0.25500000000E-02 0.  1.
         -2   -1    0    0    0  501 -0.00000000000E+00 -0.00000000000E+00 -0.17275493796E+03  0.17275493798E+03  0.25500000000E-02 0. -1.
    5000001    1    1    2    0    0  0.29668271480E+03  0.35009208252E+03  0.74308680347E+03  0.88881274574E+03  0.16500000000E+03 0.  0.
   -5000001    1    1    2    0    0 -0.29668271480E+03 -0.35009208252E+03  0.49527626102E+03  0.69506019468E+03  0.16500000000E+03 0.  0.
<mgrwt>
<rscale>  0 0.98747679E+03</rscale>
<asrwt>0</asrwt>
<pdfrwt beam="1">  1        2 0.20158828E+00 0.98747679E+03</pdfrwt>
<pdfrwt beam="2">  1       -2 0.24679277E-01 0.98747679E+03</pdfrwt>
<totfact> 0.23873183E+02</totfact>
</mgrwt>
</event>
<event>
 4    1  0.1049403E-004  0.5477727E+03  0.7818608E-02  0.1002011E+00
          2   -1    0    0  501    0  0.00000000000E+00  0.00000000000E+00  0.21492939166E+03  0.21492939168E+03  0.25500000000E-02 0.  1.
         -2   -1    0    0    0  501 -0.00000000000E+00 -0.00000000000E+00 -0.34901566696E+03  0.34901566697E+03  0.25500000000E-02 0. -1.
    5000001    1    1    2    0    0  0.19109845305E+03 -0.90985010160E+02 -0.10730587906E+02  0.26858338807E+03  0.16500000000E+03 0.  0.
   -5000001    1    1    2    0    0 -0.19109845305E+03  0.90985010160E+02 -0.12335568739E+03  0.29536167057E+03  0.16500000000E+03 0.  0.
<mgrwt>
<rscale>  0 0.54777267E+03</rscale>
<asrwt>0</asrwt>
<pdfrwt beam="1">  1        2 0.30704199E-01 0.54777267E+03</pdfrwt>
<pdfrwt beam="2">  1       -2 0.49859381E-01 0.54777267E+03</pdfrwt>
<totfact> 0.66384759E+02</totfact>
</mgrwt>
</event>
<event>
 4    1  0.1049403E-004  0.8290674E+03  0.7818608E-02  0.9518871E-01
          2   -1    0    0  501    0  0.00000000000E+00  0.00000000000E+00  0.58097267537E+03  0.58097267537E+03  0.25500000000E-02 0.  1.
         -2   -1    0    0    0  501 -0.00000000000E+00 -0.00000000000E+00 -0.29577667950E+03  0.29577667952E+03  0.25500000000E-02 0. -1.
    5000001    1    1    2    0    0 -0.35592615619E+03 -0.93879139111E+02  0.24356941618E+03  0.47121946258E+03  0.16500000000E+03 0.  0.
   -5000001    1    1    2    0    0  0.35592615619E+03  0.93879139111E+02  0.41626579679E+02  0.40552989230E+03  0.16500000000E+03 0.  0.
<mgrwt>
<rscale>  0 0.82906735E+03</rscale>
<asrwt>0</asrwt>
<pdfrwt beam="1">  1        2 0.82996097E-01 0.82906735E+03</pdfrwt>
<pdfrwt beam="2">  1       -2 0.42253811E-01 0.82906735E+03</pdfrwt>
<totfact> 0.30057461E+02</totfact>
</mgrwt>
</event>
<event>
 4    1  0.1049403E-004  0.8084186E+03  0.7818608E-02  0.9547911E-01
         -2   -1    0    0    0  501 -0.00000000000E+00  0.00000000000E+00  0.20756707246E+03  0.20756707248E+03  0.25500000000E-02 0. -1.
          2   -1    0    0  501    0  0.00000000000E+00 -0.00000000000E+00 -0.78714393595E+03  0.78714393595E+03  0.25500000000E-02 0.  1.
    5000001    1    1    2    0    0 -0.23252823098E+03 -0.12364829597E+03  0.28231964333E+02  0.31205820468E+03  0.16500000000E+03 0.  0.
   -5000001    1    1    2    0    0  0.23252823098E+03  0.12364829597E+03 -0.60780882782E+03  0.68265280375E+03  0.16500000000E+03 0.  0.
<mgrwt>
<rscale>  0 0.80841861E+03</rscale>
<asrwt>0</asrwt>
<pdfrwt beam="1">  1        2 0.11244913E+00 0.80841861E+03</pdfrwt>
<pdfrwt beam="2">  1       -2 0.29652439E-01 0.80841861E+03</pdfrwt>
<totfact> 0.40768701E+02</totfact>
</mgrwt>
</event>
<event>
 4    1  0.1049403E-004  0.1989276E+04  0.7818608E-02  0.8611651E-01
          2   -1    0    0  501    0  0.00000000000E+00  0.00000000000E+00  0.12801889867E+04  0.12801889867E+04  0.25500000000E-02 0.  1.
         -2   -1    0    0    0  501 -0.00000000000E+00 -0.00000000000E+00 -0.77278028596E+03  0.77278028596E+03  0.25500000000E-02 0. -1.
    5000001    1    1    2    0    0 -0.53515449404E+03  0.79667911929E+03  0.44757319967E+02  0.97484161242E+03  0.16500000000E+03 0.  0.
   -5000001    1    1    2    0    0  0.53515449404E+03 -0.79667911929E+03  0.46265138073E+03  0.10781276602E+04  0.16500000000E+03 0.  0.
<mgrwt>
<rscale>  0 0.19892761E+04</rscale>
<asrwt>0</asrwt>
<pdfrwt beam="1">  1        2 0.18288414E+00 0.19892761E+04</pdfrwt>
<pdfrwt beam="2">  1       -2 0.11039718E+00 0.19892761E+04</pdfrwt>
<totfact> 0.11710075E+01</totfact>
</mgrwt>
</event>
<event>
 4    1  0.1049403E-004  0.5065192E+03  0.7818608E-02  0.1012091E+00
         -2   -1    0    0    0  501 -0.00000000000E+00  0.00000000000E+00  0.26197866691E+02  0.26197866815E+02  0.25500000000E-02 0. -1.
          2   -1    0    0  501    0  0.00000000000E+00 -0.00000000000E+00 -0.24483070250E+04  0.24483070250E+04  0.25500000000E-02 0.  1.
    5000001    1    1    2    0    0 -0.14410210357E+03  0.10665161394E+03 -0.15486519315E+04  0.15677014346E+04  0.16500000000E+03 0.  0.
   -5000001    1    1    2    0    0  0.14410210357E+03 -0.10665161394E+03 -0.87345722676E+03  0.90680345720E+03  0.16500000000E+03 0.  0.
<mgrwt>
<rscale>  0 0.50651919E+03</rscale>
<asrwt>0</asrwt>
<pdfrwt beam="1">  1        2 0.34975800E+00 0.50651919E+03</pdfrwt>
<pdfrwt beam="2">  1       -2 0.37425539E-02 0.50651919E+03</pdfrwt>
<totfact> 0.15860646E+03</totfact>
</mgrwt>
</event>
<event>
 4    1  0.1049403E-004  0.4582604E+03  0.7818608E-02  0.1025287E+00
         -2   -1    0    0    0  501 -0.00000000000E+00  0.00000000000E+00  0.16793313114E+02  0.16793313308E+02  0.25500000000E-02 0.  1.
          2   -1    0    0  501    0  0.00000000000E+00 -0.00000000000E+00 -0.31262834986E+04  0.31262834986E+04  0.25500000000E-02 0. -1.
    5000001    1    1    2    0    0  0.41493433434E+01 -0.65497373199E+02 -0.56156805395E+03  0.58897436460E+03  0.16500000000E+03 0.  0.
   -5000001    1    1    2    0    0 -0.41493433434E+01  0.65497373199E+02 -0.25479221316E+04  0.25541024473E+04  0.16500000000E+03 0.  0.
<mgrwt>
<rscale>  0 0.45826044E+03</rscale>
<asrwt>0</asrwt>
<pdfrwt beam="1">  1        2 0.44661156E+00 0.45826044E+03</pdfrwt>
<pdfrwt beam="2">  1       -2 0.23990467E-02 0.45826044E+03</pdfrwt>
<totfact> 0.13717519E+03</totfact>
</mgrwt>
</event>
<event>
 4    1  0.1049403E-004  0.5765028E+03  0.7818608E-02  0.9955391E-01
          2   -1    0    0  501    0  0.00000000000E+00  0.00000000000E+00  0.81576289115E+03  0.81576289116E+03  0.25500000000E-02 0.  1.
         -2   -1    0    0    0  501 -0.00000000000E+00 -0.00000000000E+00 -0.10185420469E+03  0.10185420472E+03  0.25500000000E-02 0. -1.
    5000001    1    1    2    0    0  0.12222911831E+03 -0.30070865358E+02  0.38536953590E+02  0.21107892149E+03  0.16500000000E+03 0.  0.
   -5000001    1    1    2    0    0 -0.12222911831E+03  0.30070865358E+02  0.67537173287E+03  0.70653817439E+03  0.16500000000E+03 0.  0.
<mgrwt>
<rscale>  0 0.57650284E+03</rscale>
<asrwt>0</asrwt>
<pdfrwt beam="1">  1        2 0.11653756E+00 0.57650284E+03</pdfrwt>
<pdfrwt beam="2">  1       -2 0.14550600E-01 0.57650284E+03</pdfrwt>
<totfact> 0.13695219E+03</totfact>
</mgrwt>
</event>
<event>
 4    1  0.1049403E-004  0.4116791E+03  0.7818608E-02  0.1039809E+00
          2   -1    0    0  501    0  0.00000000000E+00  0.00000000000E+00  0.43222983461E+02  0.43222983536E+02  0.25500000000E-02 0.  1.
         -2   -1    0    0    0  501 -0.00000000000E+00 -0.00000000000E+00 -0.98026379905E+03  0.98026379906E+03  0.25500000000E-02 0. -1.
    5000001    1    1    2    0    0 -0.99555184314E+02  0.72309212504E+02 -0.46292298849E+03  0.50661874245E+03  0.16500000000E+03 0.  0.
   -5000001    1    1    2    0    0  0.99555184314E+02 -0.72309212504E+02 -0.47411782711E+03  0.51686804014E+03  0.16500000000E+03 0.  0.
<mgrwt>
<rscale>  0 0.41167913E+03</rscale>
<asrwt>0</asrwt>
<pdfrwt beam="1">  1        2 0.61747126E-02 0.41167913E+03</pdfrwt>
<pdfrwt beam="2">  1       -2 0.14003767E+00 0.41167913E+03</pdfrwt>
<totfact> 0.45243410E+02</totfact>
</mgrwt>
</event>
<event>
 4    1  0.1049403E-004  0.5172208E+03  0.7818608E-02  0.1009379E+00
          2   -1    0    0  501    0  0.00000000000E+00  0.00000000000E+00  0.47607476267E+03  0.47607476268E+03  0.25500000000E-02 0.  1.
         -2   -1    0    0    0  501 -0.00000000000E+00 -0.00000000000E+00 -0.14048074090E+03  0.14048074092E+03  0.25500000000E-02 0. -1.
    5000001    1    1    2    0    0  0.16816928751E+03  0.10489859394E+03  0.19071768917E+03  0.32075358335E+03  0.16500000000E+03 0.  0.
   -5000001    1    1    2    0    0 -0.16816928751E+03 -0.10489859394E+03  0.14487633260E+03  0.29580192024E+03  0.16500000000E+03 0.  0.
<mgrwt>
<rscale>  0 0.51722079E+03</rscale>
<asrwt>0</asrwt>
<pdfrwt beam="1">  1        2 0.68010680E-01 0.51722079E+03</pdfrwt>
<pdfrwt beam="2">  1       -2 0.20068677E-01 0.51722079E+03</pdfrwt>
<totfact> 0.15030306E+03</totfact>
</mgrwt>
</event>
<event>
 4    1  0.1049403E-004  0.5213571E+03  0.7818608E-02  0.1008350E+00
         -2   -1    0    0    0  501 -0.00000000000E+00  0.00000000000E+00  0.37686200857E+03  0.37686200858E+03  0.25500000000E-02 0. -1.
          2   -1    0    0  501    0  0.00000000000E+00 -0.00000000000E+00 -0.18031346221E+03  0.18031346223E+03  0.25500000000E-02 0.  1.
    5000001    1    1    2    0    0  0.17528055466E+03  0.92356655956E+02  0.13932230302E+03  0.29306778885E+03  0.16500000000E+03 0.  0.
   -5000001    1    1    2    0    0 -0.17528055466E+03 -0.92356655956E+02  0.57226243329E+02  0.26410768196E+03  0.16500000000E+03 0.  0.
<mgrwt>
<rscale>  0 0.52135705E+03</rscale>
<asrwt>0</asrwt>
<pdfrwt beam="1">  1        2 0.25759066E-01 0.52135705E+03</pdfrwt>
<pdfrwt beam="2">  1       -2 0.53837429E-01 0.52135705E+03</pdfrwt>
<totfact> 0.69217936E+02</totfact>
</mgrwt>
</event>
<event>
 4    1  0.1049403E-004  0.4689894E+03  0.7818608E-02  0.1022206E+00
          2   -1    0    0  501    0  0.00000000000E+00  0.00000000000E+00  0.86008518401E+03  0.86008518401E+03  0.25500000000E-02 0.  1.
         -2   -1    0    0    0  501 -0.00000000000E+00 -0.00000000000E+00 -0.63932919944E+02  0.63932919995E+02  0.25500000000E-02 0. -1.
    5000001    1    1    2    0    0 -0.14930373813E+03 -0.32356080132E+02  0.52912599756E+03  0.57492420669E+03  0.16500000000E+03 0.  0.
   -5000001    1    1    2    0    0  0.14930373813E+03  0.32356080132E+02  0.26702626651E+03  0.34909389732E+03  0.16500000000E+03 0.  0.
<mgrwt>
<rscale>  0 0.46898937E+03</rscale>
<asrwt>0</asrwt>
<pdfrwt beam="1">  1        2 0.12286931E+00 0.46898937E+03</pdfrwt>
<pdfrwt beam="2">  1       -2 0.91332744E-02 0.46898937E+03</pdfrwt>
<totfact> 0.27409452E+03</totfact>
</mgrwt>
</event>
<event>
 4    1  0.1049403E-004  0.4470866E+03  0.7818608E-02  0.1028594E+00
          2   -1    0    0  501    0  0.00000000000E+00  0.00000000000E+00  0.66760840001E+03  0.66760840002E+03  0.25500000000E-02 0.  1.
         -2   -1    0    0    0  501 -0.00000000000E+00 -0.00000000000E+00 -0.74851678243E+02  0.74851678287E+02  0.25500000000E-02 0. -1.
    5000001    1    1    2    0    0  0.12042956514E+03 -0.20484682952E+02  0.44326683735E+03  0.48850116836E+03  0.16500000000E+03 0.  0.
   -5000001    1    1    2    0    0 -0.12042956514E+03  0.20484682952E+02  0.14948988442E+03  0.25395890995E+03  0.16500000000E+03 0.  0.
<mgrwt>
<rscale>  0 0.44708661E+03</rscale>
<asrwt>0</asrwt>
<pdfrwt beam="1">  1        2 0.95372626E-01 0.44708661E+03</pdfrwt>
<pdfrwt beam="2">  1       -2 0.10693097E-01 0.44708661E+03</pdfrwt>
<totfact> 0.29132670E+03</totfact>
</mgrwt>
</event>
<event>
 4    1  0.1049403E-004  0.4294610E+03  0.7818608E-02  0.1034030E+00
         -2   -1    0    0    0  501 -0.00000000000E+00  0.00000000000E+00  0.19654470371E+02  0.19654470536E+02  0.25500000000E-02 0. -1.
          2   -1    0    0  501    0  0.00000000000E+00 -0.00000000000E+00 -0.23459898446E+04  0.23459898446E+04  0.25500000000E-02 0.  1.
    5000001    1    1    2    0    0 -0.10390364303E+03 -0.34738279789E+01 -0.66814170017E+03  0.69602181432E+03  0.16500000000E+03 0.  0.
   -5000001    1    1    2    0    0  0.10390364303E+03  0.34738279789E+01 -0.16581936740E+04  0.16696225008E+04  0.16500000000E+03 0.  0.
<mgrwt>
<rscale>  0 0.42946100E+03</rscale>
<asrwt>0</asrwt>
<pdfrwt beam="1">  1        2 0.33514123E+00 0.42946100E+03</pdfrwt>
<pdfrwt beam="2">  1       -2 0.28077830E-02 0.42946100E+03</pdfrwt>
<totfact> 0.27729158E+03</totfact>
</mgrwt>
</event>
<event>
 4    1  0.1049403E-004  0.4662824E+03  0.7818608E-02  0.1022975E+00
          2   -1    0    0  501    0  0.00000000000E+00  0.00000000000E+00  0.22241127242E+03  0.22241127243E+03  0.25500000000E-02 0.  1.
         -2   -1    0    0    0  501 -0.00000000000E+00 -0.00000000000E+00 -0.24438878949E+03  0.24438878950E+03  0.25500000000E-02 0. -1.
    5000001    1    1    2    0    0 -0.48335356569E+02 -0.15427708717E+03 -0.42521270769E+02  0.23488462016E+03  0.16500000000E+03 0.  0.
   -5000001    1    1    2    0    0  0.48335356569E+02  0.15427708717E+03  0.20543753696E+02  0.23191544178E+03  0.16500000000E+03 0.  0.
<mgrwt>
<rscale>  0 0.46628241E+03</rscale>
<asrwt>0</asrwt>
<pdfrwt beam="1">  1        2 0.31773039E-01 0.46628241E+03</pdfrwt>
<pdfrwt beam="2">  1       -2 0.34912684E-01 0.46628241E+03</pdfrwt>
<totfact> 0.12806798E+03</totfact>
</mgrwt>
</event>
<event>
 4    1  0.1049403E-004  0.3962410E+03  0.7818608E-02  0.1045089E+00
          2   -1    0    0  501    0  0.00000000000E+00  0.00000000000E+00  0.99661315357E+03  0.99661315357E+03  0.25500000000E-02 0.  1.
         -2   -1    0    0    0  501 -0.00000000000E+00 -0.00000000000E+00 -0.39385132223E+02  0.39385132305E+02  0.25500000000E-02 0. -1.
    5000001    1    1    2    0    0  0.44423985235E+02 -0.99843928219E+02  0.45458838330E+03  0.49580026089E+03  0.16500000000E+03 0.  0.
   -5000001    1    1    2    0    0 -0.44423985235E+02  0.99843928219E+02  0.50263963804E+03  0.54019802499E+03  0.16500000000E+03 0.  0.
<mgrwt>
<rscale>  0 0.39624104E+03</rscale>
<asrwt>0</asrwt>
<pdfrwt beam="1">  1        2 0.14237331E+00 0.39624104E+03</pdfrwt>
<pdfrwt beam="2">  1       -2 0.56264475E-02 0.39624104E+03</pdfrwt>
<totfact> 0.48092058E+03</totfact>
</mgrwt>
</event>
<event>
 4    1  0.1049403E-004  0.5337187E+03  0.7818608E-02  0.1005334E+00
          2   -1    0    0  501    0  0.00000000000E+00  0.00000000000E+00  0.22619190651E+03  0.22619190653E+03  0.25500000000E-02 0.  1.
         -2   -1    0    0    0  501 -0.00000000000E+00 -0.00000000000E+00 -0.31483849106E+03  0.31483849107E+03  0.25500000000E-02 0. -1.
    5000001    1    1    2    0    0  0.90705870902E+02  0.17728957609E+03 -0.11102571821E+03  0.28144423766E+03  0.16500000000E+03 0.  0.
   -5000001    1    1    2    0    0 -0.90705870902E+02 -0.17728957609E+03  0.22379133672E+02  0.25958615994E+03  0.16500000000E+03 0.  0.
<mgrwt>
<rscale>  0 0.53371872E+03</rscale>
<asrwt>0</asrwt>
<pdfrwt beam="1">  1        2 0.32313129E-01 0.53371872E+03</pdfrwt>
<pdfrwt beam="2">  1       -2 0.44976927E-01 0.53371872E+03</pdfrwt>
<totfact> 0.77070664E+02</totfact>
</mgrwt>
</event>
<event>
 4    1  0.1049403E-004  0.4562556E+03  0.7818608E-02  0.1025873E+00
         -2   -1    0    0    0  501 -0.00000000000E+00  0.00000000000E+00  0.21291773079E+03  0.21291773080E+03  0.25500000000E-02 0. -1.
          2   -1    0    0  501    0  0.00000000000E+00 -0.00000000000E+00 -0.24442438692E+03  0.24442438693E+03  0.25500000000E-02 0.  1.
    5000001    1    1    2    0    0  0.14237734777E+03 -0.45301054946E+02  0.34303468669E+02  0.22522260699E+03  0.16500000000E+03 0.  0.
   -5000001    1    1    2    0    0 -0.14237734777E+03  0.45301054946E+02 -0.65810124801E+02  0.23211951074E+03  0.16500000000E+03 0.  0.
<mgrwt>
<rscale>  0 0.45625557E+03</rscale>
<asrwt>0</asrwt>
<pdfrwt beam="1">  1        2 0.34917769E-01 0.45625557E+03</pdfrwt>
<pdfrwt beam="2">  1       -2 0.30416819E-01 0.45625557E+03</pdfrwt>
<totfact> 0.14910706E+03</totfact>
</mgrwt>
</event>
<event>
 4    1  0.1049403E-004  0.5990442E+03  0.7818608E-02  0.9907391E-01
          2   -1    0    0  501    0  0.00000000000E+00  0.00000000000E+00  0.95639764015E+03  0.95639764016E+03  0.25500000000E-02 0.  1.
         -2   -1    0    0    0  501 -0.00000000000E+00 -0.00000000000E+00 -0.93803539839E+02  0.93803539873E+02  0.25500000000E-02 0. -1.
    5000001    1    1    2    0    0 -0.59019174667E+02 -0.21913697375E+03  0.61503464072E+03  0.67601544770E+03  0.16500000000E+03 0.  0.
   -5000001    1    1    2    0    0  0.59019174667E+02  0.21913697375E+03  0.24755945959E+03  0.37418573233E+03  0.16500000000E+03 0.  0.
<mgrwt>
<rscale>  0 0.59904419E+03</rscale>
<asrwt>0</asrwt>
<pdfrwt beam="1">  1        2 0.13662824E+00 0.59904419E+03</pdfrwt>
<pdfrwt beam="2">  1       -2 0.13400505E-01 0.59904419E+03</pdfrwt>
<totfact> 0.12719082E+03</totfact>
</mgrwt>
</event>
<event>
 4    1  0.1049403E-004  0.4097001E+03  0.7818608E-02  0.1040472E+00
          2   -1    0    0  501    0  0.00000000000E+00  0.00000000000E+00  0.17199530447E+03  0.17199530449E+03  0.25500000000E-02 0. -1.
         -2   -1    0    0    0  501 -0.00000000000E+00 -0.00000000000E+00 -0.24398079706E+03  0.24398079707E+03  0.25500000000E-02 0.  1.
    5000001    1    1    2    0    0 -0.95243800263E+02 -0.28752456445E+02 -0.10663196129E+03  0.22021230758E+03  0.16500000000E+03 0.  0.
   -5000001    1    1    2    0    0  0.95243800263E+02  0.28752456445E+02  0.34646468703E+02  0.19576379398E+03  0.16500000000E+03 0.  0.
<mgrwt>
<rscale>  0 0.40970014E+03</rscale>
<asrwt>0</asrwt>
<pdfrwt beam="1">  1        2 0.24570758E-01 0.40970014E+03</pdfrwt>
<pdfrwt beam="2">  1       -2 0.34854400E-01 0.40970014E+03</pdfrwt>
<totfact> 0.17121455E+03</totfact>
</mgrwt>
</event>
<event>
 4    1  0.1049403E-004  0.5416534E+03  0.7818608E-02  0.1003445E+00
         -2   -1    0    0    0  501 -0.00000000000E+00  0.00000000000E+00  0.74966340182E+02  0.74966340225E+02  0.25500000000E-02 0. -1.
          2   -1    0    0  501    0  0.00000000000E+00 -0.00000000000E+00 -0.97840040110E+03  0.97840040110E+03  0.25500000000E-02 0.  1.
    5000001    1    1    2    0    0 -0.10050824019E+03  0.16189880879E+03 -0.25911104890E+03  0.36149227696E+03  0.16500000000E+03 0.  0.
   -5000001    1    1    2    0    0  0.10050824019E+03 -0.16189880879E+03 -0.64432301201E+03  0.69187446437E+03  0.16500000000E+03 0.  0.
<mgrwt>
<rscale>  0 0.54165338E+03</rscale>
<asrwt>0</asrwt>
<pdfrwt beam="1">  1        2 0.13977148E+00 0.54165338E+03</pdfrwt>
<pdfrwt beam="2">  1       -2 0.10709478E-01 0.54165338E+03</pdfrwt>
<totfact> 0.17835940E+03</totfact>
</mgrwt>
</event>
<event>
 4    1  0.1049403E-004  0.3920695E+03  0.7818608E-02  0.1046561E+00
          2   -1    0    0  501    0  0.00000000000E+00  0.00000000000E+00  0.34071221646E+03  0.34071221647E+03  0.25500000000E-02 0.  1.
         -2   -1    0    0    0  501 -0.00000000000E+00 -0.00000000000E+00 -0.11279205789E+03  0.11279205792E+03  0.25500000000E-02 0. -1.
    5000001    1    1    2    0    0  0.10040090909E+03  0.22271280429E+02  0.84966973095E+02  0.21218091100E+03  0.16500000000E+03 0.  0.
   -5000001    1    1    2    0    0 -0.10040090909E+03 -0.22271280429E+02  0.14295318547E+03  0.24132336338E+03  0.16500000000E+03 0.  0.
<mgrwt>
<rscale>  0 0.39206955E+03</rscale>
<asrwt>0</asrwt>
<pdfrwt beam="1">  1        2 0.48673174E-01 0.39206955E+03</pdfrwt>
<pdfrwt beam="2">  1       -2 0.16113151E-01 0.39206955E+03</pdfrwt>
<totfact> 0.31544396E+03</totfact>
</mgrwt>
</event>
<event>
 4    1  0.1049403E-004  0.4984197E+03  0.7818608E-02  0.1014192E+00
         -2   -1    0    0    0  501 -0.00000000000E+00  0.00000000000E+00  0.84400184300E+02  0.84400184338E+02  0.25500000000E-02 0. -1.
          2   -1    0    0  501    0  0.00000000000E+00 -0.00000000000E+00 -0.73584613387E+03  0.73584613388E+03  0.25500000000E-02 0.  1.
    5000001    1    1    2    0    0 -0.16048534572E+03  0.76142312728E+02 -0.42065186893E+03  0.48551641869E+03  0.16500000000E+03 0.  0.
   -5000001    1    1    2    0    0  0.16048534572E+03 -0.76142312728E+02 -0.23079408064E+03  0.33472989953E+03  0.16500000000E+03 0.  0.
<mgrwt>
<rscale>  0 0.49841970E+03</rscale>
<asrwt>0</asrwt>
<pdfrwt beam="1">  1        2 0.10512087E+00 0.49841970E+03</pdfrwt>
<pdfrwt beam="2">  1       -2 0.12057170E-01 0.49841970E+03</pdfrwt>
<totfact> 0.21302918E+03</totfact>
</mgrwt>
</event>
<event>
 4    1  0.1049403E-004  0.3838636E+03  0.7818608E-02  0.1049515E+00
          2   -1    0    0  501    0  0.00000000000E+00  0.00000000000E+00  0.41996605593E+03  0.41996605594E+03  0.25500000000E-02 0.  1.
         -2   -1    0    0    0  501 -0.00000000000E+00 -0.00000000000E+00 -0.87716167152E+02  0.87716167189E+02  0.25500000000E-02 0. -1.
    5000001    1    1    2    0    0 -0.91893336010E+02  0.27434679388E+02  0.13915751846E+03  0.23619242532E+03  0.16500000000E+03 0.  0.
   -5000001    1    1    2    0    0  0.91893336010E+02 -0.27434679388E+02  0.19309237032E+03  0.27148979780E+03  0.16500000000E+03 0.  0.
<mgrwt>
<rscale>  0 0.38386358E+03</rscale>
<asrwt>0</asrwt>
<pdfrwt beam="1">  1        2 0.59995150E-01 0.38386358E+03</pdfrwt>
<pdfrwt beam="2">  1       -2 0.12530881E-01 0.38386358E+03</pdfrwt>
<totfact> 0.38053305E+03</totfact>
</mgrwt>
</event>
<event>
 4    1  0.1049403E-004  0.5203335E+03  0.7818608E-02  0.1008604E+00
         -2   -1    0    0    0  501 -0.00000000000E+00  0.00000000000E+00  0.10790099316E+03  0.10790099319E+03  0.25500000000E-02 0. -1.
          2   -1    0    0  501    0  0.00000000000E+00 -0.00000000000E+00 -0.62730413859E+03  0.62730413860E+03  0.25500000000E-02 0.  1.
    5000001    1    1    2    0    0  0.11794965320E+02  0.19556075542E+03 -0.32412045288E+03  0.41311281539E+03  0.16500000000E+03 0.  0.
   -5000001    1    1    2    0    0 -0.11794965320E+02 -0.19556075542E+03 -0.19528269256E+03  0.32209231639E+03  0.16500000000E+03 0.  0.
<mgrwt>
<rscale>  0 0.52033351E+03</rscale>
<asrwt>0</asrwt>
<pdfrwt beam="1">  1        2 0.89614875E-01 0.52033351E+03</pdfrwt>
<pdfrwt beam="2">  1       -2 0.15414428E-01 0.52033351E+03</pdfrwt>
<totfact> 0.17176094E+03</totfact>
</mgrwt>
</event>
<event>
 4    1  0.1049403E-004  0.4401740E+03  0.7818608E-02  0.1030693E+00
          2   -1    0    0  501    0  0.00000000000E+00  0.00000000000E+00  0.16750606434E+04  0.16750606434E+04  0.25500000000E-02 0.  1.
         -2   -1    0    0    0  501 -0.00000000000E+00 -0.00000000000E+00 -0.28917332433E+02  0.28917332546E+02  0.25500000000E-02 0. -1.
    5000001    1    1    2    0    0  0.74218674909E+01  0.52824467203E+02  0.13477195089E+04  0.13588297844E+04  0.16500000000E+03 0.  0.
   -5000001    1    1    2    0    0 -0.74218674909E+01 -0.52824467203E+02  0.29842380208E+03  0.34514819151E+03  0.16500000000E+03 0.  0.
<mgrwt>
<rscale>  0 0.44017399E+03</rscale>
<asrwt>0</asrwt>
<pdfrwt beam="1">  1        2 0.23929433E+00 0.44017399E+03</pdfrwt>
<pdfrwt beam="2">  1       -2 0.41310483E-02 0.44017399E+03</pdfrwt>
<totfact> 0.33351757E+03</totfact>
</mgrwt>
</event>
<event>
 4    1  0.1049403E-004  0.7276796E+03  0.7818608E-02  0.9671033E-01
          2   -1    0    0  501    0  0.00000000000E+00  0.00000000000E+00  0.30361483830E+04  0.30361483830E+04  0.25500000000E-02 0.  1.
         -2   -1    0    0    0  501 -0.00000000000E+00 -0.00000000000E+00 -0.43601097672E+02  0.43601097746E+02  0.25500000000E-02 0. -1.
    5000001    1    1    2    0    0 -0.55665478203E+02  0.29530525224E+03  0.20120324742E+04  0.20410300132E+04  0.16500000000E+03 0.  0.
   -5000001    1    1    2    0    0  0.55665478203E+02 -0.29530525224E+03  0.98051481111E+03  0.10387194676E+04  0.16500000000E+03 0.  0.
<mgrwt>
<rscale>  0 0.72767961E+03</rscale>
<asrwt>0</asrwt>
<pdfrwt beam="1">  1        2 0.43373555E+00 0.72767961E+03</pdfrwt>
<pdfrwt beam="2">  1       -2 0.62287273E-02 0.72767961E+03</pdfrwt>
<totfact> 0.34636663E+02</totfact>
</mgrwt>
</event>
<event>
 4    1  0.1049403E-004  0.8823054E+03  0.7818608E-02  0.9447975E-01
          2   -1    0    0  501    0  0.00000000000E+00  0.00000000000E+00  0.28875507220E+03  0.28875507221E+03  0.25500000000E-02 0.  1.
         -2   -1    0    0    0  501 -0.00000000000E+00 -0.00000000000E+00 -0.67398193333E+03  0.67398193333E+03  0.25500000000E-02 0. -1.
    5000001    1    1    2    0    0 -0.28057258282E+03 -0.38255373850E+02 -0.51484088996E+03  0.61030368656E+03  0.16500000000E+03 0.  0.
   -5000001    1    1    2    0    0  0.28057258282E+03  0.38255373850E+02  0.12961402883E+03  0.35243331898E+03  0.16500000000E+03 0.  0.
<mgrwt>
<rscale>  0 0.88230539E+03</rscale>
<asrwt>0</asrwt>
<pdfrwt beam="1">  1        2 0.41250725E-01 0.88230539E+03</pdfrwt>
<pdfrwt beam="2">  1       -2 0.96283133E-01 0.88230539E+03</pdfrwt>
<totfact> 0.11288593E+02</totfact>
</mgrwt>
</event>
<event>
 4    1  0.1049403E-004  0.4306178E+03  0.7818608E-02  0.1033665E+00
         -2   -1    0    0    0  501 -0.00000000000E+00  0.00000000000E+00  0.40841531357E+02  0.40841531436E+02  0.25500000000E-02 0. -1.
          2   -1    0    0  501    0  0.00000000000E+00 -0.00000000000E+00 -0.11350682833E+04  0.11350682833E+04  0.25500000000E-02 0.  1.
    5000001    1    1    2    0    0 -0.83707949326E+02  0.95092208521E+02 -0.69874696102E+03  0.72905546047E+03  0.16500000000E+03 0.  0.
   -5000001    1    1    2    0    0  0.83707949326E+02 -0.95092208521E+02 -0.39547979091E+03  0.44685435426E+03  0.16500000000E+03 0.  0.
<mgrwt>
<rscale>  0 0.43061782E+03</rscale>
<asrwt>0</asrwt>
<pdfrwt beam="1">  1        2 0.16215259E+00 0.43061782E+03</pdfrwt>
<pdfrwt beam="2">  1       -2 0.58345052E-02 0.43061782E+03</pdfrwt>
<totfact> 0.37790467E+03</totfact>
</mgrwt>
</event>
<event>
 4    1  0.1049403E-004  0.5301230E+03  0.7818608E-02  0.1006202E+00
          2   -1    0    0  501    0  0.00000000000E+00  0.00000000000E+00  0.60450775013E+03  0.60450775013E+03  0.25500000000E-02 0.  1.
         -2   -1    0    0    0  501 -0.00000000000E+00 -0.00000000000E+00 -0.11622284464E+03  0.11622284466E+03  0.25500000000E-02 0. -1.
    5000001    1    1    2    0    0 -0.69250810504E+02  0.18714916995E+03  0.16708894555E+03  0.30816262313E+03  0.16500000000E+03 0.  0.
   -5000001    1    1    2    0    0  0.69250810504E+02 -0.18714916995E+03  0.32119595994E+03  0.41256797167E+03  0.16500000000E+03 0.  0.
<mgrwt>
<rscale>  0 0.53012304E+03</rscale>
<asrwt>0</asrwt>
<pdfrwt beam="1">  1        2 0.86358250E-01 0.53012304E+03</pdfrwt>
<pdfrwt beam="2">  1       -2 0.16603264E-01 0.53012304E+03</pdfrwt>
<totfact> 0.15824340E+03</totfact>
</mgrwt>
</event>
<event>
 4    1  0.1049403E-004  0.6118169E+03  0.7818608E-02  0.9881189E-01
         -2   -1    0    0    0  501 -0.00000000000E+00  0.00000000000E+00  0.32841767603E+03  0.32841767604E+03  0.25500000000E-02 0.  1.
          2   -1    0    0  501    0  0.00000000000E+00 -0.00000000000E+00 -0.28494197489E+03  0.28494197491E+03  0.25500000000E-02 0. -1.
    5000001    1    1    2    0    0  0.17073816510E+03 -0.63956417517E+02  0.20416658141E+03  0.31961060266E+03  0.16500000000E+03 0.  0.
   -5000001    1    1    2    0    0 -0.17073816510E+03  0.63956417517E+02 -0.16069088028E+03  0.29374904829E+03  0.16500000000E+03 0.  0.
<mgrwt>
<rscale>  0 0.61181690E+03</rscale>
<asrwt>0</asrwt>
<pdfrwt beam="1">  1        2 0.40705996E-01 0.61181690E+03</pdfrwt>
<pdfrwt beam="2">  1       -2 0.46916811E-01 0.61181690E+03</pdfrwt>
<totfact> 0.54793801E+02</totfact>
</mgrwt>
</event>
<event>
 4    1  0.1049403E-004  0.7227565E+03  0.7818608E-02  0.9679088E-01
          2   -1    0    0  501    0  0.00000000000E+00  0.00000000000E+00  0.43400328324E+03  0.43400328325E+03  0.25500000000E-02 0.  1.
         -2   -1    0    0    0  501 -0.00000000000E+00 -0.00000000000E+00 -0.30090611618E+03  0.30090611619E+03  0.25500000000E-02 0. -1.
    5000001    1    1    2    0    0  0.14313765406E+03  0.22207206378E+03 -0.11973910974E+03  0.33371671208E+03  0.16500000000E+03 0.  0.
   -5000001    1    1    2    0    0 -0.14313765406E+03 -0.22207206378E+03  0.25283627680E+03  0.40119268736E+03  0.16500000000E+03 0.  0.
<mgrwt>
<rscale>  0 0.72275651E+03</rscale>
<asrwt>0</asrwt>
<pdfrwt beam="1">  1        2 0.62000469E-01 0.72275651E+03</pdfrwt>
<pdfrwt beam="2">  1       -2 0.42986588E-01 0.72275651E+03</pdfrwt>
<totfact> 0.40757613E+02</totfact>
</mgrwt>
</event>
<event>
 4    1  0.1049403E-004  0.3585193E+03  0.7818608E-02  0.1059172E+00
          2   -1    0    0  501    0  0.00000000000E+00  0.00000000000E+00  0.12932969390E+04  0.12932969390E+04  0.25500000000E-02 0.  1.
         -2   -1    0    0    0  501 -0.00000000000E+00 -0.00000000000E+00 -0.24846586730E+02  0.24846586861E+02  0.25500000000E-02 0. -1.
    5000001    1    1    2    0    0  0.68565842658E+02  0.14907537144E+01  0.68693294593E+03  0.70979248329E+03  0.16500000000E+03 0.  0.
   -5000001    1    1    2    0    0 -0.68565842658E+02 -0.14907537144E+01  0.58151740629E+03  0.60835104252E+03  0.16500000000E+03 0.  0.
<mgrwt>
<rscale>  0 0.35851926E+03</rscale>
<asrwt>0</asrwt>
<pdfrwt beam="1">  1        2 0.18475673E+00 0.35851926E+03</pdfrwt>
<pdfrwt beam="2">  1       -2 0.35495119E-02 0.35851926E+03</pdfrwt>
<totfact> 0.66015120E+03</totfact>
</mgrwt>
</event>
<event>
 4    1  0.1049403E-004  0.9089588E+03  0.7818608E-02  0.9414451E-01
          2   -1    0    0  501    0  0.00000000000E+00  0.00000000000E+00  0.11530059070E+04  0.11530059070E+04  0.25500000000E-02 0.  1.
         -2   -1    0    0    0  501 -0.00000000000E+00 -0.00000000000E+00 -0.17914179299E+03  0.17914179301E+03  0.25500000000E-02 0. -1.
    5000001    1    1    2    0    0  0.29125651875E+03 -0.29387046360E+03  0.61912936401E+03  0.76271644696E+03  0.16500000000E+03 0.  0.
   -5000001    1    1    2    0    0 -0.29125651875E+03  0.29387046360E+03  0.35473475000E+03  0.56943125305E+03  0.16500000000E+03 0.  0.
<mgrwt>
<rscale>  0 0.90895885E+03</rscale>
<asrwt>0</asrwt>
<pdfrwt beam="1">  1        2 0.16471513E+00 0.90895885E+03</pdfrwt>
<pdfrwt beam="2">  1       -2 0.25591684E-01 0.90895885E+03</pdfrwt>
<totfact> 0.31232169E+02</totfact>
</mgrwt>
</event>
<event>
 4    1  0.1049403E-004  0.7918066E+03  0.7818608E-02  0.9571953E-01
         -2   -1    0    0    0  501 -0.00000000000E+00  0.00000000000E+00  0.69089866738E+02  0.69089866785E+02  0.25500000000E-02 0. -1.
          2   -1    0    0  501    0  0.00000000000E+00 -0.00000000000E+00 -0.22686313677E+04  0.22686313677E+04  0.25500000000E-02 0.  1.
    5000001    1    1    2    0    0  0.28561933056E+03 -0.17587824807E+03 -0.14847477752E+04  0.15310821389E+04  0.16500000000E+03 0.  0.
   -5000001    1    1    2    0    0 -0.28561933056E+03  0.17587824807E+03 -0.71479372582E+03  0.80663909564E+03  0.16500000000E+03 0.  0.
<mgrwt>
<rscale>  0 0.79180664E+03</rscale>
<asrwt>0</asrwt>
<pdfrwt beam="1">  1        2 0.32409015E+00 0.79180664E+03</pdfrwt>
<pdfrwt beam="2">  1       -2 0.98699824E-02 0.79180664E+03</pdfrwt>
<totfact> 0.41804225E+02</totfact>
</mgrwt>
</event>
<event>
 4    1  0.1049403E-004  0.4026607E+03  0.7818608E-02  0.1042862E+00
         -2   -1    0    0    0  501 -0.00000000000E+00  0.00000000000E+00  0.10954810873E+03  0.10954810876E+03  0.25500000000E-02 0. -1.
          2   -1    0    0  501    0  0.00000000000E+00 -0.00000000000E+00 -0.37001004280E+03  0.37001004281E+03  0.25500000000E-02 0.  1.
    5000001    1    1    2    0    0 -0.67893654936E+02 -0.19172482149E+01 -0.19171965848E+02  0.17945971274E+03  0.16500000000E+03 0.  0.
   -5000001    1    1    2    0    0  0.67893654936E+02  0.19172482149E+01 -0.24128996822E+03  0.30009843883E+03  0.16500000000E+03 0.  0.
<mgrwt>
<rscale>  0 0.40266065E+03</rscale>
<asrwt>0</asrwt>
<pdfrwt beam="1">  1        2 0.52858577E-01 0.40266065E+03</pdfrwt>
<pdfrwt beam="2">  1       -2 0.15649730E-01 0.40266065E+03</pdfrwt>
<totfact> 0.30289849E+03</totfact>
</mgrwt>
</event>
<event>
 4    1  0.1049403E-004  0.6389110E+03  0.7818608E-02  0.9827812E-01
         -2   -1    0    0    0  501 -0.00000000000E+00  0.00000000000E+00  0.99952980793E+03  0.99952980793E+03  0.25500000000E-02 0. -1.
          2   -1    0    0  501    0  0.00000000000E+00 -0.00000000000E+00 -0.10209983203E+03  0.10209983207E+03  0.25500000000E-02 0.  1.
    5000001    1    1    2    0    0 -0.13002322775E+03  0.23646180819E+03  0.37147796471E+03  0.48789456315E+03  0.16500000000E+03 0.  0.
   -5000001    1    1    2    0    0  0.13002322775E+03 -0.23646180819E+03  0.52595201118E+03  0.61373507684E+03  0.16500000000E+03 0.  0.
<mgrwt>
<rscale>  0 0.63891103E+03</rscale>
<asrwt>0</asrwt>
<pdfrwt beam="1">  1        2 0.14585690E-01 0.63891103E+03</pdfrwt>
<pdfrwt beam="2">  1       -2 0.14278997E+00 0.63891103E+03</pdfrwt>
<totfact> 0.14361021E+02</totfact>
</mgrwt>
</event>
<event>
 4    1  0.1049403E-004  0.5350821E+03  0.7818608E-02  0.1005007E+00
          2   -1    0    0  501    0  0.00000000000E+00  0.00000000000E+00  0.57503811717E+03  0.57503811718E+03  0.25500000000E-02 0.  1.
         -2   -1    0    0    0  501 -0.00000000000E+00 -0.00000000000E+00 -0.12447561579E+03  0.12447561582E+03  0.25500000000E-02 0. -1.
    5000001    1    1    2    0    0  0.17133725290E+03  0.59945182001E+02  0.85679161846E+02  0.25983802233E+03  0.16500000000E+03 0.  0.
   -5000001    1    1    2    0    0 -0.17133725290E+03 -0.59945182001E+02  0.36488333954E+03  0.43967571066E+03  0.16500000000E+03 0.  0.
<mgrwt>
<rscale>  0 0.53508214E+03</rscale>
<asrwt>0</asrwt>
<pdfrwt beam="1">  1        2 0.82148305E-01 0.53508214E+03</pdfrwt>
<pdfrwt beam="2">  1       -2 0.17782230E-01 0.53508214E+03</pdfrwt>
<totfact> 0.14923825E+03</totfact>
</mgrwt>
</event>
<event>
 4    1  0.1049403E-004  0.6381188E+03  0.7818608E-02  0.9829332E-01
         -2   -1    0    0    0  501 -0.00000000000E+00  0.00000000000E+00  0.80349998970E+02  0.80349999011E+02  0.25500000000E-02 0. -1.
          2   -1    0    0  501    0  0.00000000000E+00 -0.00000000000E+00 -0.12669435717E+04  0.12669435717E+04  0.25500000000E-02 0.  1.
    5000001    1    1    2    0    0  0.21674769407E+03 -0.16240720895E+03 -0.51960332907E+03  0.60874320036E+03  0.16500000000E+03 0.  0.
   -5000001    1    1    2    0    0 -0.21674769407E+03  0.16240720895E+03 -0.66699024363E+03  0.73855037033E+03  0.16500000000E+03 0.  0.
<mgrwt>
<rscale>  0 0.63811884E+03</rscale>
<asrwt>0</asrwt>
<pdfrwt beam="1">  1        2 0.18099193E+00 0.63811884E+03</pdfrwt>
<pdfrwt beam="2">  1       -2 0.11478572E-01 0.63811884E+03</pdfrwt>
<totfact> 0.10822823E+03</totfact>
</mgrwt>
</event>
<event>
 4    1  0.1049403E-004  0.4605077E+03  0.7818608E-02  0.1024634E+00
         -2   -1    0    0    0  501 -0.00000000000E+00  0.00000000000E+00  0.22402260816E+02  0.22402260961E+02  0.25500000000E-02 0. -1.
          2   -1    0    0  501    0  0.00000000000E+00 -0.00000000000E+00 -0.23665845892E+04  0.23665845892E+04  0.25500000000E-02 0.  1.
    5000001    1    1    2    0    0 -0.10269448874E+03  0.71351188387E+01 -0.53261554078E+03  0.56701091896E+03  0.16500000000E+03 0.  0.
   -5000001    1    1    2    0    0  0.10269448874E+03 -0.71351188387E+01 -0.18115667876E+04  0.18219759312E+04  0.16500000000E+03 0.  0.
<mgrwt>
<rscale>  0 0.46050774E+03</rscale>
<asrwt>0</asrwt>
<pdfrwt beam="1">  1        2 0.33808335E+00 0.46050774E+03</pdfrwt>
<pdfrwt beam="2">  1       -2 0.32003245E-02 0.46050774E+03</pdfrwt>
<totfact> 0.22189787E+03</totfact>
</mgrwt>
</event>
<event>
 4    1  0.1049403E-004  0.7479208E+03  0.7818608E-02  0.9638618E-01
          2   -1    0    0  501    0  0.00000000000E+00  0.00000000000E+00  0.12017629513E+04  0.12017629513E+04  0.25500000000E-02 0.  1.
         -2   -1    0    0    0  501 -0.00000000000E+00 -0.00000000000E+00 -0.11636768288E+03  0.11636768291E+03  0.25500000000E-02 0. -1.
    5000001    1    1    2    0    0  0.28726639794E+02 -0.30742694599E+03  0.31099267556E+03  0.46827127950E+03  0.16500000000E+03 0.  0.
   -5000001    1    1    2    0    0 -0.28726639794E+02  0.30742694599E+03  0.77440259282E+03  0.84985935466E+03  0.16500000000E+03 0.  0.
<mgrwt>
<rscale>  0 0.74792077E+03</rscale>
<asrwt>0</asrwt>
<pdfrwt beam="1">  1        2 0.17168043E+00 0.74792077E+03</pdfrwt>
<pdfrwt beam="2">  1       -2 0.16623954E-01 0.74792077E+03</pdfrwt>
<totfact> 0.63032597E+02</totfact>
</mgrwt>
</event>
<event>
 4    1  0.1049403E-004  0.6533077E+03  0.7818608E-02  0.9800592E-01
          2   -1    0    0  501    0  0.00000000000E+00  0.00000000000E+00  0.26966325329E+03  0.26966325330E+03  0.25500000000E-02 0.  1.
         -2   -1    0    0    0  501 -0.00000000000E+00 -0.00000000000E+00 -0.39568886639E+03  0.39568886640E+03  0.25500000000E-02 0. -1.
    5000001    1    1    2    0    0  0.21558525673E+03 -0.11059063602E+03 -0.20978938431E+03  0.36047729119E+03  0.16500000000E+03 0.  0.
   -5000001    1    1    2    0    0 -0.21558525673E+03  0.11059063602E+03  0.83763771201E+02  0.30487482851E+03  0.16500000000E+03 0.  0.
<mgrwt>
<rscale>  0 0.65330773E+03</rscale>
<asrwt>0</asrwt>
<pdfrwt beam="1">  1        2 0.38523322E-01 0.65330773E+03</pdfrwt>
<pdfrwt beam="2">  1       -2 0.56526981E-01 0.65330773E+03</pdfrwt>
<totfact> 0.39788557E+02</totfact>
</mgrwt>
</event>
<event>
 4    1  0.1049403E-004  0.8737719E+03  0.7818608E-02  0.9458975E-01
          2   -1    0    0  501    0  0.00000000000E+00  0.00000000000E+00  0.25049241464E+04  0.25049241464E+04  0.25500000000E-02 0.  1.
         -2   -1    0    0    0  501 -0.00000000000E+00 -0.00000000000E+00 -0.76197653869E+02  0.76197653912E+02  0.25500000000E-02 0. -1.
    5000001    1    1    2    0    0 -0.29058147197E+03  0.88451378604E+02  0.42512498541E+03  0.54792106316E+03  0.16500000000E+03 0.  0.
   -5000001    1    1    2    0    0  0.29058147197E+03 -0.88451378604E+02  0.20036015071E+04  0.20332007371E+04  0.16500000000E+03 0.  0.
<mgrwt>
<rscale>  0 0.87377192E+03</rscale>
<asrwt>0</asrwt>
<pdfrwt beam="1">  1        2 0.35784621E+00 0.87377192E+03</pdfrwt>
<pdfrwt beam="2">  1       -2 0.10885382E-01 0.87377192E+03</pdfrwt>
<totfact> 0.26757351E+02</totfact>
</mgrwt>
</event>
<event>
 4    1  0.1049403E-004  0.7010521E+03  0.7818608E-02  0.9715435E-01
          2   -1    0    0  501    0  0.00000000000E+00  0.00000000000E+00  0.54287408173E+03  0.54287408173E+03  0.25500000000E-02 0.  1.
         -2   -1    0    0    0  501 -0.00000000000E+00 -0.00000000000E+00 -0.22632966996E+03  0.22632966998E+03  0.25500000000E-02 0. -1.
    5000001    1    1    2    0    0 -0.25686478040E+03  0.14720525341E+03  0.60167524281E+02  0.34422962252E+03  0.16500000000E+03 0.  0.
   -5000001    1    1    2    0    0  0.25686478040E+03 -0.14720525341E+03  0.25637688749E+03  0.42497412919E+03  0.16500000000E+03 0.  0.
<mgrwt>
<rscale>  0 0.70105210E+03</rscale>
<asrwt>0</asrwt>
<pdfrwt beam="1">  1        2 0.77553440E-01 0.70105210E+03</pdfrwt>
<pdfrwt beam="2">  1       -2 0.32332810E-01 0.70105210E+03</pdfrwt>
<totfact> 0.54637466E+02</totfact>
</mgrwt>
</event>
<event>
 4    1  0.1049403E-004  0.6365868E+03  0.7818608E-02  0.9832279E-01
          2   -1    0    0  501    0  0.00000000000E+00  0.00000000000E+00  0.12381297702E+04  0.12381297702E+04  0.25500000000E-02 0.  1.
         -2   -1    0    0    0  501 -0.00000000000E+00 -0.00000000000E+00 -0.81825587281E+02  0.81825587321E+02  0.25500000000E-02 0. -1.
    5000001    1    1    2    0    0  0.21092985400E+03  0.66024691649E+02  0.24876730816E+03  0.37143079682E+03  0.16500000000E+03 0.  0.
   -5000001    1    1    2    0    0 -0.21092985400E+03 -0.66024691649E+02  0.90753687476E+03  0.94852456071E+03  0.16500000000E+03 0.  0.
<mgrwt>
<rscale>  0 0.63658682E+03</rscale>
<asrwt>0</asrwt>
<pdfrwt beam="1">  1        2 0.17687568E+00 0.63658682E+03</pdfrwt>
<pdfrwt beam="2">  1       -2 0.11689369E-01 0.63658682E+03</pdfrwt>
<totfact> 0.10896674E+03</totfact>
</mgrwt>
</event>
<event>
 4    1  0.1049403E-004  0.4984251E+03  0.7818608E-02  0.1014191E+00
          2   -1    0    0  501    0  0.00000000000E+00  0.00000000000E+00  0.10707869748E+04  0.10707869749E+04  0.25500000000E-02 0.  1.
         -2   -1    0    0    0  501 -0.00000000000E+00 -0.00000000000E+00 -0.58001158779E+02  0.58001158835E+02  0.25500000000E-02 0. -1.
    5000001    1    1    2    0    0  0.13405818962E+02  0.18016532034E+03  0.61364136765E+03  0.66062091000E+03  0.16500000000E+03 0.  0.
   -5000001    1    1    2    0    0 -0.13405818962E+02 -0.18016532034E+03  0.39914444842E+03  0.46816722369E+03  0.16500000000E+03 0.  0.
<mgrwt>
<rscale>  0 0.49842506E+03</rscale>
<asrwt>0</asrwt>
<pdfrwt beam="1">  1        2 0.15296956E+00 0.49842506E+03</pdfrwt>
<pdfrwt beam="2">  1       -2 0.82858802E-02 0.49842506E+03</pdfrwt>
<totfact> 0.23730304E+03</totfact>
</mgrwt>
</event>
<event>
 4    1  0.1049403E-004  0.4591765E+03  0.7818608E-02  0.1025020E+00
         -2   -1    0    0    0  501 -0.00000000000E+00  0.00000000000E+00  0.16636561431E+03  0.16636561433E+03  0.25500000000E-02 0. -1.
          2   -1    0    0  501    0  0.00000000000E+00 -0.00000000000E+00 -0.31683691823E+03  0.31683691824E+03  0.25500000000E-02 0.  1.
    5000001    1    1    2    0    0 -0.11239843521E+03 -0.10479126551E+03 -0.29715474398E+02  0.22742609126E+03  0.16500000000E+03 0.  0.
   -5000001    1    1    2    0    0  0.11239843521E+03  0.10479126551E+03 -0.12075582953E+03  0.25577644131E+03  0.16500000000E+03 0.  0.
<mgrwt>
<rscale>  0 0.45917652E+03</rscale>
<asrwt>0</asrwt>
<pdfrwt beam="1">  1        2 0.45262416E-01 0.45917652E+03</pdfrwt>
<pdfrwt beam="2">  1       -2 0.23766517E-01 0.45917652E+03</pdfrwt>
<totfact> 0.17509001E+03</totfact>
</mgrwt>
</event>
<event>
 4    1  0.1049403E-004  0.4985548E+03  0.7818608E-02  0.1014157E+00
          2   -1    0    0  501    0  0.00000000000E+00  0.00000000000E+00  0.22226286260E+04  0.22226286260E+04  0.25500000000E-02 0.  1.
         -2   -1    0    0    0  501 -0.00000000000E+00 -0.00000000000E+00 -0.27957540467E+02  0.27957540583E+02  0.25500000000E-02 0. -1.
    5000001    1    1    2    0    0  0.16120051804E+03  0.19435421222E+02  0.67990107443E+03  0.71822963850E+03  0.16500000000E+03 0.  0.
   -5000001    1    1    2    0    0 -0.16120051804E+03 -0.19435421222E+02  0.15147700111E+04  0.15323565281E+04  0.16500000000E+03 0.  0.
<mgrwt>
<rscale>  0 0.49855483E+03</rscale>
<asrwt>0</asrwt>
<pdfrwt beam="1">  1        2 0.31751850E+00 0.49855483E+03</pdfrwt>
<pdfrwt beam="2">  1       -2 0.39939328E-02 0.49855483E+03</pdfrwt>
<totfact> 0.18671441E+03</totfact>
</mgrwt>
</event>
<event>
 4    1  0.1049403E-004  0.5539200E+03  0.7818608E-02  0.1000591E+00
         -2   -1    0    0    0  501 -0.00000000000E+00  0.00000000000E+00  0.13830942205E+03  0.13830942207E+03  0.25500000000E-02 0. -1.
          2   -1    0    0  501    0  0.00000000000E+00 -0.00000000000E+00 -0.55460319851E+03  0.55460319852E+03  0.25500000000E-02 0.  1.
    5000001    1    1    2    0    0  0.17868510392E+03 -0.46139899827E+02 -0.36350653969E+03  0.43979456695E+03  0.16500000000E+03 0.  0.
   -5000001    1    1    2    0    0 -0.17868510392E+03  0.46139899827E+02 -0.52787236774E+02  0.25311805365E+03  0.16500000000E+03 0.  0.
<mgrwt>
<rscale>  0 0.55392002E+03</rscale>
<asrwt>0</asrwt>
<pdfrwt beam="1">  1        2 0.79229027E-01 0.55392002E+03</pdfrwt>
<pdfrwt beam="2">  1       -2 0.19758489E-01 0.55392002E+03</pdfrwt>
<totfact> 0.12976960E+03</totfact>
</mgrwt>
</event>
<event>
 4    1  0.1049403E-004  0.7118918E+03  0.7818608E-02  0.9697109E-01
         -2   -1    0    0    0  501 -0.00000000000E+00  0.00000000000E+00  0.87992334225E+03  0.87992334226E+03  0.25500000000E-02 0. -1.
          2   -1    0    0  501    0  0.00000000000E+00 -0.00000000000E+00 -0.14398696145E+03  0.14398696147E+03  0.25500000000E-02 0.  1.
    5000001    1    1    2    0    0 -0.28243157426E+03  0.76180605560E+02  0.53754924603E+03  0.63384167638E+03  0.16500000000E+03 0.  0.
   -5000001    1    1    2    0    0  0.28243157426E+03 -0.76180605560E+02  0.19838713477E+03  0.39006862735E+03  0.16500000000E+03 0.  0.
<mgrwt>
<rscale>  0 0.71189181E+03</rscale>
<asrwt>0</asrwt>
<pdfrwt beam="1">  1        2 0.20569566E-01 0.71189181E+03</pdfrwt>
<pdfrwt beam="2">  1       -2 0.12570333E+00 0.71189181E+03</pdfrwt>
<totfact> 0.13139111E+02</totfact>
</mgrwt>
</event>
<event>
 4    1  0.1049403E-004  0.6885527E+03  0.7818608E-02  0.9737011E-01
          2   -1    0    0  501    0  0.00000000000E+00  0.00000000000E+00  0.68594883639E+03  0.68594883640E+03  0.25500000000E-02 0.  1.
         -2   -1    0    0    0  501 -0.00000000000E+00 -0.00000000000E+00 -0.17279159624E+03  0.17279159625E+03  0.25500000000E-02 0. -1.
    5000001    1    1    2    0    0  0.92706679764E+02  0.15869572200E+03  0.55569692733E+03  0.60811424559E+03  0.16500000000E+03 0.  0.
   -5000001    1    1    2    0    0 -0.92706679764E+02 -0.15869572200E+03 -0.42539687170E+02  0.25062618706E+03  0.16500000000E+03 0.  0.
<mgrwt>
<rscale>  0 0.68855267E+03</rscale>
<asrwt>0</asrwt>
<pdfrwt beam="1">  1        2 0.97992692E-01 0.68855267E+03</pdfrwt>
<pdfrwt beam="2">  1       -2 0.24684513E-01 0.68855267E+03</pdfrwt>
<totfact> 0.67925194E+02</totfact>
</mgrwt>
</event>
<event>
 4    1  0.1049403E-004  0.3639503E+03  0.7818608E-02  0.1057031E+00
         -2   -1    0    0    0  501 -0.00000000000E+00  0.00000000000E+00  0.20805975663E+03  0.20805975665E+03  0.25500000000E-02 0. -1.
          2   -1    0    0  501    0  0.00000000000E+00 -0.00000000000E+00 -0.15916079975E+03  0.15916079977E+03  0.25500000000E-02 0.  1.
    5000001    1    1    2    0    0  0.47817258025E+02  0.11832130536E+02 -0.34930558800E+02  0.17570325386E+03  0.16500000000E+03 0.  0.
   -5000001    1    1    2    0    0 -0.47817258025E+02 -0.11832130536E+02  0.83829515685E+02  0.19151730256E+03  0.16500000000E+03 0.  0.
<mgrwt>
<rscale>  0 0.36395031E+03</rscale>
<asrwt>0</asrwt>
<pdfrwt beam="1">  1        2 0.22737257E-01 0.36395031E+03</pdfrwt>
<pdfrwt beam="2">  1       -2 0.29722823E-01 0.36395031E+03</pdfrwt>
<totfact> 0.25064585E+03</totfact>
</mgrwt>
</event>
<event>
 4    1  0.1049403E-004  0.5274889E+03  0.7818608E-02  0.1006843E+00
          2   -1    0    0  501    0  0.00000000000E+00  0.00000000000E+00  0.12866309313E+04  0.12866309313E+04  0.25500000000E-02 0.  1.
         -2   -1    0    0    0  501 -0.00000000000E+00 -0.00000000000E+00 -0.54064553610E+02  0.54064553670E+02  0.25500000000E-02 0. -1.
    5000001    1    1    2    0    0 -0.34354875609E+02  0.20085221368E+03  0.68880987011E+03  0.73702503783E+03  0.16500000000E+03 0.  0.
   -5000001    1    1    2    0    0  0.34354875609E+02 -0.20085221368E+03  0.54375650754E+03  0.60367044711E+03  0.16500000000E+03 0.  0.
<mgrwt>
<rscale>  0 0.52748887E+03</rscale>
<asrwt>0</asrwt>
<pdfrwt beam="1">  1        2 0.18380441E+00 0.52748887E+03</pdfrwt>
<pdfrwt beam="2">  1       -2 0.77235082E-02 0.52748887E+03</pdfrwt>
<totfact> 0.20058340E+03</totfact>
</mgrwt>
</event>
<event>
 4    1  0.1049403E-004  0.6221723E+03  0.7818608E-02  0.9860444E-01
          2   -1    0    0  501    0  0.00000000000E+00  0.00000000000E+00  0.14010821551E+04  0.14010821551E+04  0.25500000000E-02 0.  1.
         -2   -1    0    0    0  501 -0.00000000000E+00 -0.00000000000E+00 -0.69071319273E+02  0.69071319320E+02  0.25500000000E-02 0. -1.
    5000001    1    1    2    0    0 -0.22082849417E+03  0.13855139529E+03  0.57184663602E+03  0.64976556396E+03  0.16500000000E+03 0.  0.
   -5000001    1    1    2    0    0  0.22082849417E+03 -0.13855139529E+03  0.76016419980E+03  0.82038791047E+03  0.16500000000E+03 0.  0.
<mgrwt>
<rscale>  0 0.62217230E+03</rscale>
<asrwt>0</asrwt>
<pdfrwt beam="1">  1        2 0.20015462E+00 0.62217230E+03</pdfrwt>
<pdfrwt beam="2">  1       -2 0.98673302E-02 0.62217230E+03</pdfrwt>
<totfact> 0.11728061E+03</totfact>
</mgrwt>
</event>
<event>
 4    1  0.1049403E-004  0.3623068E+03  0.7818608E-02  0.1057674E+00
         -2   -1    0    0    0  501 -0.00000000000E+00  0.00000000000E+00  0.20235510877E+02  0.20235511038E+02  0.25500000000E-02 0. -1.
          2   -1    0    0  501    0  0.00000000000E+00 -0.00000000000E+00 -0.16217305669E+04  0.16217305669E+04  0.25500000000E-02 0.  1.
    5000001    1    1    2    0    0  0.54436179354E+02  0.45884847487E+01 -0.56934159452E+03  0.59528077666E+03  0.16500000000E+03 0.  0.
   -5000001    1    1    2    0    0 -0.54436179354E+02 -0.45884847487E+01 -0.10321534615E+04  0.10466853012E+04  0.16500000000E+03 0.  0.
<mgrwt>
<rscale>  0 0.36230676E+03</rscale>
<asrwt>0</asrwt>
<pdfrwt beam="1">  1        2 0.23167571E+00 0.36230676E+03</pdfrwt>
<pdfrwt beam="2">  1       -2 0.28907883E-02 0.36230676E+03</pdfrwt>
<totfact> 0.60861552E+03</totfact>
</mgrwt>
</event>
<event>
 4    1  0.1049403E-004  0.3501142E+03  0.7818608E-02  0.1062568E+00
          2   -1    0    0  501    0  0.00000000000E+00  0.00000000000E+00  0.27939601206E+03  0.27939601207E+03  0.25500000000E-02 0.  1.
         -2   -1    0    0    0  501 -0.00000000000E+00 -0.00000000000E+00 -0.10968298899E+03  0.10968298902E+03  0.25500000000E-02 0. -1.
    5000001    1    1    2    0    0  0.68547461800E+01  0.57702340505E+02  0.77531921151E+02  0.19134457516E+03  0.16500000000E+03 0.  0.
   -5000001    1    1    2    0    0 -0.68547461800E+01 -0.57702340505E+02  0.92181101921E+02  0.19773442593E+03  0.16500000000E+03 0.  0.
<mgrwt>
<rscale>  0 0.35011421E+03</rscale>
<asrwt>0</asrwt>
<pdfrwt beam="1">  1        2 0.39913715E-01 0.35011421E+03</pdfrwt>
<pdfrwt beam="2">  1       -2 0.15668999E-01 0.35011421E+03</pdfrwt>
<totfact> 0.40914837E+03</totfact>
</mgrwt>
</event>
<event>
 4    1  0.1049403E-004  0.6015526E+03  0.7818608E-02  0.9902190E-01
          2   -1    0    0  501    0  0.00000000000E+00  0.00000000000E+00  0.20143475056E+04  0.20143475056E+04  0.25500000000E-02 0.  1.
         -2   -1    0    0    0  501 -0.00000000000E+00 -0.00000000000E+00 -0.44911006248E+02  0.44911006320E+02  0.25500000000E-02 0. -1.
    5000001    1    1    2    0    0 -0.86933585210E+02  0.22359402665E+03  0.12429321062E+04  0.12765801806E+04  0.16500000000E+03 0.  0.
   -5000001    1    1    2    0    0  0.86933585210E+02 -0.22359402665E+03  0.72650439322E+03  0.78267833134E+03  0.16500000000E+03 0.  0.
<mgrwt>
<rscale>  0 0.60155257E+03</rscale>
<asrwt>0</asrwt>
<pdfrwt beam="1">  1        2 0.28776398E+00 0.60155257E+03</pdfrwt>
<pdfrwt beam="2">  1       -2 0.64158569E-02 0.60155257E+03</pdfrwt>
<totfact> 0.11328357E+03</totfact>
</mgrwt>
</event>
<event>
 4    1  0.1049403E-004  0.8841220E+03  0.7818608E-02  0.9445650E-01
          2   -1    0    0  501    0  0.00000000000E+00  0.00000000000E+00  0.23985386356E+04  0.23985386356E+04  0.25500000000E-02 0. -1.
         -2   -1    0    0    0  501 -0.00000000000E+00 -0.00000000000E+00 -0.81473744094E+02  0.81473744134E+02  0.25500000000E-02 0.  1.
    5000001    1    1    2    0    0 -0.36884198987E+03  0.14149915105E+03  0.14674263860E+04  0.15286044686E+04  0.16500000000E+03 0.  0.
   -5000001    1    1    2    0    0  0.36884198987E+03 -0.14149915105E+03  0.84963850549E+03  0.95140791108E+03  0.16500000000E+03 0.  0.
<mgrwt>
<rscale>  0 0.88412199E+03</rscale>
<asrwt>0</asrwt>
<pdfrwt beam="1">  1        2 0.34264835E+00 0.88412199E+03</pdfrwt>
<pdfrwt beam="2">  1       -2 0.11639107E-01 0.88412199E+03</pdfrwt>
<totfact> 0.27176606E+02</totfact>
</mgrwt>
</event>
<event>
 4    1  0.1049403E-004  0.5661051E+03  0.7818608E-02  0.9978335E-01
         -2   -1    0    0    0  501 -0.00000000000E+00  0.00000000000E+00  0.39929374941E+02  0.39929375023E+02  0.25500000000E-02 0. -1.
          2   -1    0    0  501    0  0.00000000000E+00 -0.00000000000E+00 -0.20065111222E+04  0.20065111222E+04  0.25500000000E-02 0.  1.
    5000001    1    1    2    0    0  0.11622768271E+03  0.17563129168E+03 -0.64925498178E+03  0.70221952138E+03  0.16500000000E+03 0.  0.
   -5000001    1    1    2    0    0 -0.11622768271E+03 -0.17563129168E+03 -0.13173267655E+04  0.13442209759E+04  0.16500000000E+03 0.  0.
<mgrwt>
<rscale>  0 0.56610506E+03</rscale>
<asrwt>0</asrwt>
<pdfrwt beam="1">  1        2 0.28664438E+00 0.56610506E+03</pdfrwt>
<pdfrwt beam="2">  1       -2 0.57041977E-02 0.56610506E+03</pdfrwt>
<totfact> 0.13767965E+03</totfact>
</mgrwt>
</event>
<event>
 4    1  0.1049403E-004  0.3992991E+03  0.7818608E-02  0.1044023E+00
          2   -1    0    0  501    0  0.00000000000E+00  0.00000000000E+00  0.35244050133E+04  0.35244050133E+04  0.25500000000E-02 0.  1.
         -2   -1    0    0    0  501 -0.00000000000E+00 -0.00000000000E+00 -0.11309696158E+02  0.11309696446E+02  0.25500000000E-02 0. -1.
    5000001    1    1    2    0    0 -0.65111062059E+02 -0.91620312288E+02  0.17467739360E+04  0.17581461588E+04  0.16500000000E+03 0.  0.
   -5000001    1    1    2    0    0  0.65111062059E+02  0.91620312288E+02  0.17663213811E+04  0.17775685509E+04  0.16500000000E+03 0.  0.
<mgrwt>
<rscale>  0 0.39929914E+03</rscale>
<asrwt>0</asrwt>
<pdfrwt beam="1">  1        2 0.50348637E+00 0.39929914E+03</pdfrwt>
<pdfrwt beam="2">  1       -2 0.16156711E-02 0.39929914E+03</pdfrwt>
<totfact> 0.14769786E+03</totfact>
</mgrwt>
</event>
<event>
 4    1  0.1049403E-004  0.3734112E+03  0.7818608E-02  0.1053396E+00
         -2   -1    0    0    0  501 -0.00000000000E+00  0.00000000000E+00  0.77569643785E+02  0.77569643827E+02  0.25500000000E-02 0. -1.
          2   -1    0    0  501    0  0.00000000000E+00 -0.00000000000E+00 -0.44938938750E+03  0.44938938751E+03  0.25500000000E-02 0.  1.
    5000001    1    1    2    0    0  0.83261549196E+02  0.22803997121E+02 -0.20492013888E+03  0.27689306813E+03  0.16500000000E+03 0.  0.
   -5000001    1    1    2    0    0 -0.83261549196E+02 -0.22803997121E+02 -0.16689960483E+03  0.25006596320E+03  0.16500000000E+03 0.  0.
<mgrwt>
<rscale>  0 0.37341117E+03</rscale>
<asrwt>0</asrwt>
<pdfrwt beam="1">  1        2 0.64198482E-01 0.37341117E+03</pdfrwt>
<pdfrwt beam="2">  1       -2 0.11081378E-01 0.37341117E+03</pdfrwt>
<totfact> 0.43105351E+03</totfact>
</mgrwt>
</event>
<event>
 4    1  0.1049403E-004  0.3860293E+03  0.7818608E-02  0.1048728E+00
          2   -1    0    0  501    0  0.00000000000E+00  0.00000000000E+00  0.39404649796E+03  0.39404649797E+03  0.25500000000E-02 0.  1.
         -2   -1    0    0    0  501 -0.00000000000E+00 -0.00000000000E+00 -0.94543809458E+02  0.94543809493E+02  0.25500000000E-02 0. -1.
    5000001    1    1    2    0    0  0.88641177950E+02  0.12419226679E+02  0.92891912405E+02  0.20944069091E+03  0.16500000000E+03 0.  0.
   -5000001    1    1    2    0    0 -0.88641177950E+02 -0.12419226679E+02  0.20661077609E+03  0.27914961655E+03  0.16500000000E+03 0.  0.
<mgrwt>
<rscale>  0 0.38602931E+03</rscale>
<asrwt>0</asrwt>
<pdfrwt beam="1">  1        2 0.56292356E-01 0.38602931E+03</pdfrwt>
<pdfrwt beam="2">  1       -2 0.13506259E-01 0.38602931E+03</pdfrwt>
<totfact> 0.36085458E+03</totfact>
</mgrwt>
</event>
<event>
 4    1  0.1049403E-004  0.3493841E+03  0.7818608E-02  0.1062868E+00
         -2   -1    0    0    0  501 -0.00000000000E+00  0.00000000000E+00  0.11063970561E+03  0.11063970564E+03  0.25500000000E-02 0. -1.
          2   -1    0    0  501    0  0.00000000000E+00 -0.00000000000E+00 -0.27582605303E+03  0.27582605304E+03  0.25500000000E-02 0.  1.
    5000001    1    1    2    0    0 -0.36447777817E+02  0.10155583388E+02 -0.13030767248E+03  0.21362739967E+03  0.16500000000E+03 0.  0.
   -5000001    1    1    2    0    0  0.36447777817E+02 -0.10155583388E+02 -0.34878674941E+02  0.17283835902E+03  0.16500000000E+03 0.  0.
<mgrwt>
<rscale>  0 0.34938411E+03</rscale>
<asrwt>0</asrwt>
<pdfrwt beam="1">  1        2 0.39403722E-01 0.34938411E+03</pdfrwt>
<pdfrwt beam="2">  1       -2 0.15805672E-01 0.34938411E+03</pdfrwt>
<totfact> 0.40891053E+03</totfact>
</mgrwt>
</event>
<event>
 4    1  0.1049403E-004  0.4632304E+03  0.7818608E-02  0.1023848E+00
         -2   -1    0    0    0  501 -0.00000000000E+00  0.00000000000E+00  0.30803094869E+03  0.30803094870E+03  0.25500000000E-02 0. -1.
          2   -1    0    0  501    0  0.00000000000E+00 -0.00000000000E+00 -0.17415651465E+03  0.17415651467E+03  0.25500000000E-02 0.  1.
    5000001    1    1    2    0    0  0.14959916475E+03  0.32051884621E+02  0.97966417942E+01  0.22522923343E+03  0.16500000000E+03 0.  0.
   -5000001    1    1    2    0    0 -0.14959916475E+03 -0.32051884621E+02  0.12407779225E+03  0.25695822994E+03  0.16500000000E+03 0.  0.
<mgrwt>
<rscale>  0 0.46323038E+03</rscale>
<asrwt>0</asrwt>
<pdfrwt beam="1">  1        2 0.24879502E-01 0.46323038E+03</pdfrwt>
<pdfrwt beam="2">  1       -2 0.44004421E-01 0.46323038E+03</pdfrwt>
<totfact> 0.10795094E+03</totfact>
</mgrwt>
</event>
<event>
 4    1  0.1049403E-004  0.4761482E+03  0.7818608E-02  0.1020199E+00
         -2   -1    0    0    0  501 -0.00000000000E+00  0.00000000000E+00  0.62588542568E+02  0.62588542620E+02  0.25500000000E-02 0. -1.
          2   -1    0    0  501    0  0.00000000000E+00 -0.00000000000E+00 -0.90558556332E+03  0.90558556333E+03  0.25500000000E-02 0.  1.
    5000001    1    1    2    0    0  0.10606626529E+03  0.13112428434E+03 -0.48614005107E+03  0.54037096502E+03  0.16500000000E+03 0.  0.
   -5000001    1    1    2    0    0 -0.10606626529E+03 -0.13112428434E+03 -0.35685696968E+03  0.42780314093E+03  0.16500000000E+03 0.  0.
<mgrwt>
<rscale>  0 0.47614821E+03</rscale>
<asrwt>0</asrwt>
<pdfrwt beam="1">  1        2 0.12936936E+00 0.47614821E+03</pdfrwt>
<pdfrwt beam="2">  1       -2 0.89412209E-02 0.47614821E+03</pdfrwt>
<totfact> 0.26500056E+03</totfact>
</mgrwt>
</event>
<event>
 4    1  0.1049403E-004  0.7320445E+03  0.7818608E-02  0.9663948E-01
          2   -1    0    0  501    0  0.00000000000E+00  0.00000000000E+00  0.14890169949E+04  0.14890169949E+04  0.25500000000E-02 0.  1.
         -2   -1    0    0    0  501 -0.00000000000E+00 -0.00000000000E+00 -0.89973652133E+02  0.89973652169E+02  0.25500000000E-02 0. -1.
    5000001    1    1    2    0    0 -0.22390944631E+02 -0.13598871665E+03  0.60562548795E+02  0.22335422041E+03  0.16500000000E+03 0.  0.
   -5000001    1    1    2    0    0  0.22390944631E+02  0.13598871665E+03  0.13384807940E+04  0.13556364267E+04  0.16500000000E+03 0.  0.
<mgrwt>
<rscale>  0 0.73204453E+03</rscale>
<asrwt>0</asrwt>
<pdfrwt beam="1">  1        2 0.21271671E+00 0.73204453E+03</pdfrwt>
<pdfrwt beam="2">  1       -2 0.12853379E-01 0.73204453E+03</pdfrwt>
<totfact> 0.67969886E+02</totfact>
</mgrwt>
</event>
<event>
 4    1  0.1049403E-004  0.4552669E+03  0.7818608E-02  0.1026163E+00
         -2   -1    0    0    0  501 -0.00000000000E+00  0.00000000000E+00  0.10606683156E+04  0.10606683156E+04  0.25500000000E-02 0. -1.
          2   -1    0    0  501    0  0.00000000000E+00 -0.00000000000E+00 -0.48853143854E+02  0.48853143921E+02  0.25500000000E-02 0.  1.
    5000001    1    1    2    0    0  0.46500102868E+02  0.14416326595E+03  0.60480241941E+03  0.64494672132E+03  0.16500000000E+03 0.  0.
   -5000001    1    1    2    0    0 -0.46500102868E+02 -0.14416326595E+03  0.40701275234E+03  0.46457473821E+03  0.16500000000E+03 0.  0.
<mgrwt>
<rscale>  0 0.45526687E+03</rscale>
<asrwt>0</asrwt>
<pdfrwt beam="1">  1        2 0.69790208E-02 0.45526687E+03</pdfrwt>
<pdfrwt beam="2">  1       -2 0.15152404E+00 0.45526687E+03</pdfrwt>
<totfact> 0.31402961E+02</totfact>
</mgrwt>
</event>
<event>
 4    1  0.1049403E-004  0.4095579E+03  0.7818608E-02  0.1040519E+00
          2   -1    0    0  501    0  0.00000000000E+00  0.00000000000E+00  0.41127829820E+04  0.41127829820E+04  0.25500000000E-02 0.  1.
         -2   -1    0    0    0  501 -0.00000000000E+00 -0.00000000000E+00 -0.10196116971E+02  0.10196117290E+02  0.25500000000E-02 0. -1.
    5000001    1    1    2    0    0 -0.11925727208E+03 -0.18856527258E+02  0.19358302136E+04  0.19465974113E+04  0.16500000000E+03 0.  0.
   -5000001    1    1    2    0    0  0.11925727208E+03  0.18856527258E+02  0.21667566514E+04  0.21763816880E+04  0.16500000000E+03 0.  0.
<mgrwt>
<rscale>  0 0.40955789E+03</rscale>
<asrwt>0</asrwt>
<pdfrwt beam="1">  1        2 0.58754102E+00 0.40955789E+03</pdfrwt>
<pdfrwt beam="2">  1       -2 0.14565867E-02 0.40955789E+03</pdfrwt>
<totfact> 0.73056762E+02</totfact>
</mgrwt>
</event>
<event>
 4    1  0.1049403E-004  0.4553021E+03  0.7818608E-02  0.1026153E+00
          2   -1    0    0  501    0  0.00000000000E+00  0.00000000000E+00  0.32231117268E+03  0.32231117269E+03  0.25500000000E-02 0.  1.
         -2   -1    0    0    0  501 -0.00000000000E+00 -0.00000000000E+00 -0.16079178627E+03  0.16079178629E+03  0.25500000000E-02 0. -1.
    5000001    1    1    2    0    0  0.12663976656E+03  0.79405825745E+02  0.13116925806E+03  0.25840528225E+03  0.16500000000E+03 0.  0.
   -5000001    1    1    2    0    0 -0.12663976656E+03 -0.79405825745E+02  0.30350128350E+02  0.22469767673E+03  0.16500000000E+03 0.  0.
<mgrwt>
<rscale>  0 0.45530205E+03</rscale>
<asrwt>0</asrwt>
<pdfrwt beam="1">  1        2 0.46044453E-01 0.45530205E+03</pdfrwt>
<pdfrwt beam="2">  1       -2 0.22970255E-01 0.45530205E+03</pdfrwt>
<totfact> 0.18249574E+03</totfact>
</mgrwt>
</event>
<event>
 4    1  0.1049403E-004  0.4800302E+03  0.7818608E-02  0.1019127E+00
         -2   -1    0    0    0  501 -0.00000000000E+00  0.00000000000E+00  0.60128783922E+02  0.60128783976E+02  0.25500000000E-02 0. -1.
          2   -1    0    0  501    0  0.00000000000E+00 -0.00000000000E+00 -0.95806458617E+03  0.95806458617E+03  0.25500000000E-02 0.  1.
    5000001    1    1    2    0    0  0.14078712663E+02 -0.15206235539E+03 -0.27073105424E+03  0.35191117318E+03  0.16500000000E+03 0.  0.
   -5000001    1    1    2    0    0 -0.14078712663E+02  0.15206235539E+03 -0.62720474800E+03  0.66628219697E+03  0.16500000000E+03 0.  0.
<mgrwt>
<rscale>  0 0.48003024E+03</rscale>
<asrwt>0</asrwt>
<pdfrwt beam="1">  1        2 0.13686636E+00 0.48003024E+03</pdfrwt>
<pdfrwt beam="2">  1       -2 0.85898269E-02 0.48003024E+03</pdfrwt>
<totfact> 0.26188069E+03</totfact>
</mgrwt>
</event>
<event>
 4    1  0.1049403E-004  0.3752362E+03  0.7818608E-02  0.1052709E+00
          2   -1    0    0  501    0  0.00000000000E+00  0.00000000000E+00  0.13936841540E+04  0.13936841540E+04  0.25500000000E-02 0.  1.
         -2   -1    0    0    0  501 -0.00000000000E+00 -0.00000000000E+00 -0.25257189508E+02  0.25257189637E+02  0.25500000000E-02 0. -1.
    5000001    1    1    2    0    0  0.80344684577E+02 -0.34683982010E+02  0.75157213289E+03  0.77443135131E+03  0.16500000000E+03 0.  0.
   -5000001    1    1    2    0    0 -0.80344684577E+02  0.34683982010E+02  0.61685483162E+03  0.64450999235E+03  0.16500000000E+03 0.  0.
<mgrwt>
<rscale>  0 0.37523617E+03</rscale>
<asrwt>0</asrwt>
<pdfrwt beam="1">  1        2 0.19909773E+00 0.37523617E+03</pdfrwt>
<pdfrwt beam="2">  1       -2 0.36081700E-02 0.37523617E+03</pdfrwt>
<totfact> 0.57038943E+03</totfact>
</mgrwt>
</event>
<event>
 4    1  0.1049403E-004  0.3914328E+03  0.7818608E-02  0.1046787E+00
         -2   -1    0    0    0  501 -0.00000000000E+00  0.00000000000E+00  0.19733101973E+02  0.19733102137E+02  0.25500000000E-02 0. -1.
          2   -1    0    0  501    0  0.00000000000E+00 -0.00000000000E+00 -0.19411495343E+04  0.19411495343E+04  0.25500000000E-02 0.  1.
    5000001    1    1    2    0    0 -0.10158801962E+03 -0.23328308828E+02 -0.10342585598E+04  0.10525113321E+04  0.16500000000E+03 0.  0.
   -5000001    1    1    2    0    0  0.10158801962E+03  0.23328308828E+02 -0.88715787254E+03  0.90837130433E+03  0.16500000000E+03 0.  0.
<mgrwt>
<rscale>  0 0.39143276E+03</rscale>
<asrwt>0</asrwt>
<pdfrwt beam="1">  1        2 0.27730695E+00 0.39143276E+03</pdfrwt>
<pdfrwt beam="2">  1       -2 0.28190158E-02 0.39143276E+03</pdfrwt>
<totfact> 0.43844346E+03</totfact>
</mgrwt>
</event>
<event>
 4    1  0.1049403E-004  0.1307369E+04  0.7818608E-02  0.9023742E-01
         -2   -1    0    0    0  501 -0.00000000000E+00  0.00000000000E+00  0.16237922859E+03  0.16237922861E+03  0.25500000000E-02 0. -1.
          2   -1    0    0  501    0  0.00000000000E+00 -0.00000000000E+00 -0.26315136010E+04  0.26315136010E+04  0.25500000000E-02 0.  1.
    5000001    1    1    2    0    0  0.18660067230E+02 -0.59736396856E+03 -0.79200868819E+03  0.10058303392E+04  0.16500000000E+03 0.  0.
   -5000001    1    1    2    0    0 -0.18660067230E+02  0.59736396856E+03 -0.16771256843E+04  0.17880624905E+04  0.16500000000E+03 0.  0.
<mgrwt>
<rscale>  0 0.13073686E+04</rscale>
<asrwt>0</asrwt>
<pdfrwt beam="1">  1        2 0.37593049E+00 0.13073686E+04</pdfrwt>
<pdfrwt beam="2">  1       -2 0.23197034E-01 0.13073686E+04</pdfrwt>
<totfact> 0.60668818E+01</totfact>
</mgrwt>
</event>
<event>
 4    1  0.1049403E-004  0.4516157E+03  0.7818608E-02  0.1027241E+00
          2   -1    0    0  501    0  0.00000000000E+00  0.00000000000E+00  0.32713644876E+03  0.32713644877E+03  0.25500000000E-02 0.  1.
         -2   -1    0    0    0  501 -0.00000000000E+00 -0.00000000000E+00 -0.15586520019E+03  0.15586520021E+03  0.25500000000E-02 0. -1.
    5000001    1    1    2    0    0  0.13180760193E+03 -0.74119975218E+02  0.11767011107E+03  0.25286017814E+03  0.16500000000E+03 0.  0.
   -5000001    1    1    2    0    0 -0.13180760193E+03  0.74119975218E+02  0.53601137504E+02  0.23014147083E+03  0.16500000000E+03 0.  0.
<mgrwt>
<rscale>  0 0.45161571E+03</rscale>
<asrwt>0</asrwt>
<pdfrwt beam="1">  1        2 0.46733777E-01 0.45161571E+03</pdfrwt>
<pdfrwt beam="2">  1       -2 0.22266458E-01 0.45161571E+03</pdfrwt>
<totfact> 0.18964418E+03</totfact>
</mgrwt>
</event>
<event>
 4    1  0.1049403E-004  0.3580158E+03  0.7818608E-02  0.1059372E+00
          2   -1    0    0  501    0  0.00000000000E+00  0.00000000000E+00  0.50449644428E+04  0.50449644428E+04  0.25500000000E-02 0. -1.
         -2   -1    0    0    0  501 -0.00000000000E+00 -0.00000000000E+00 -0.63516466009E+01  0.63516471127E+01  0.25500000000E-02 0.  1.
    5000001    1    1    2    0    0 -0.54741914533E+02 -0.41829975935E+02  0.23992467779E+04  0.24059003565E+04  0.16500000000E+03 0.  0.
   -5000001    1    1    2    0    0  0.54741914533E+02  0.41829975935E+02  0.26393660183E+04  0.26454157334E+04  0.16500000000E+03 0.  0.
<mgrwt>
<rscale>  0 0.35801582E+03</rscale>
<asrwt>0</asrwt>
<pdfrwt beam="1">  1        2 0.72070800E+00 0.35801582E+03</pdfrwt>
<pdfrwt beam="2">  1       -2 0.90737964E-03 0.35801582E+03</pdfrwt>
<totfact> 0.26885463E+02</totfact>
</mgrwt>
</event>
<event>
 4    1  0.1049403E-004  0.4003731E+03  0.7818608E-02  0.1043651E+00
          2   -1    0    0  501    0  0.00000000000E+00  0.00000000000E+00  0.29925175004E+04  0.29925175004E+04  0.25500000000E-02 0.  1.
         -2   -1    0    0    0  501 -0.00000000000E+00 -0.00000000000E+00 -0.13391620389E+02  0.13391620632E+02  0.25500000000E-02 0. -1.
    5000001    1    1    2    0    0  0.10084293895E+03 -0.29647822619E+02  0.11709143234E+04  0.11871451657E+04  0.16500000000E+03 0.  0.
   -5000001    1    1    2    0    0 -0.10084293895E+03  0.29647822619E+02  0.18082115567E+04  0.18187639554E+04  0.16500000000E+03 0.  0.
<mgrwt>
<rscale>  0 0.40037312E+03</rscale>
<asrwt>0</asrwt>
<pdfrwt beam="1">  1        2 0.42750262E+00 0.40037312E+03</pdfrwt>
<pdfrwt beam="2">  1       -2 0.19130881E-02 0.40037312E+03</pdfrwt>
<totfact> 0.22852387E+03</totfact>
</mgrwt>
</event>
<event>
 4    1  0.1049403E-004  0.3723349E+03  0.7818608E-02  0.1053804E+00
         -2   -1    0    0    0  501 -0.00000000000E+00  0.00000000000E+00  0.94174873518E+02  0.94174873552E+02  0.25500000000E-02 0. -1.
          2   -1    0    0  501    0  0.00000000000E+00 -0.00000000000E+00 -0.36802082803E+03  0.36802082804E+03  0.25500000000E-02 0.  1.
    5000001    1    1    2    0    0 -0.26863051255E+01  0.70765466373E+02 -0.19796817931E+03  0.26726647280E+03  0.16500000000E+03 0.  0.
   -5000001    1    1    2    0    0  0.26863051255E+01 -0.70765466373E+02 -0.75877775207E+02  0.19492922879E+03  0.16500000000E+03 0.  0.
<mgrwt>
<rscale>  0 0.37233488E+03</rscale>
<asrwt>0</asrwt>
<pdfrwt beam="1">  1        2 0.52574403E-01 0.37233488E+03</pdfrwt>
<pdfrwt beam="2">  1       -2 0.13453554E-01 0.37233488E+03</pdfrwt>
<totfact> 0.39104484E+03</totfact>
</mgrwt>
</event>
<event>
 4    1  0.1049403E-004  0.3994650E+03  0.7818608E-02  0.1043965E+00
         -2   -1    0    0    0  501 -0.00000000000E+00  0.00000000000E+00  0.15135498804E+03  0.15135498806E+03  0.25500000000E-02 0. -1.
          2   -1    0    0  501    0  0.00000000000E+00 -0.00000000000E+00 -0.26357288422E+03  0.26357288423E+03  0.25500000000E-02 0.  1.
    5000001    1    1    2    0    0 -0.11115765825E+03 -0.15014292902E+02 -0.65776018030E+02  0.21007841043E+03  0.16500000000E+03 0.  0.
   -5000001    1    1    2    0    0  0.11115765825E+03  0.15014292902E+02 -0.46441878150E+02  0.20484946186E+03  0.16500000000E+03 0.  0.
<mgrwt>
<rscale>  0 0.39946500E+03</rscale>
<asrwt>0</asrwt>
<pdfrwt beam="1">  1        2 0.37653269E-01 0.39946500E+03</pdfrwt>
<pdfrwt beam="2">  1       -2 0.21622141E-01 0.39946500E+03</pdfrwt>
<totfact> 0.25244844E+03</totfact>
</mgrwt>
</event>
<event>
 4    1  0.1049403E-004  0.3797122E+03  0.7818608E-02  0.1051040E+00
          2   -1    0    0  501    0  0.00000000000E+00  0.00000000000E+00  0.48535965989E+03  0.48535965990E+03  0.25500000000E-02 0.  1.
         -2   -1    0    0    0  501 -0.00000000000E+00 -0.00000000000E+00 -0.74265229173E+02  0.74265229217E+02  0.25500000000E-02 0. -1.
    5000001    1    1    2    0    0  0.20551300050E+01  0.92759562779E+02  0.18409898834E+03  0.26405680744E+03  0.16500000000E+03 0.  0.
   -5000001    1    1    2    0    0 -0.20551300050E+01 -0.92759562779E+02  0.22699544238E+03  0.29556808168E+03  0.16500000000E+03 0.  0.
<mgrwt>
<rscale>  0 0.37971224E+03</rscale>
<asrwt>0</asrwt>
<pdfrwt beam="1">  1        2 0.69337095E-01 0.37971224E+03</pdfrwt>
<pdfrwt beam="2">  1       -2 0.10609318E-01 0.37971224E+03</pdfrwt>
<totfact> 0.42470385E+03</totfact>
</mgrwt>
</event>
<event>
 4    1  0.1049403E-004  0.5804532E+03  0.7818608E-02  0.9946810E-01
         -2   -1    0    0    0  501 -0.00000000000E+00  0.00000000000E+00  0.66110381713E+02  0.66110381762E+02  0.25500000000E-02 0. -1.
          2   -1    0    0  501    0  0.00000000000E+00 -0.00000000000E+00 -0.12741034487E+04  0.12741034487E+04  0.25500000000E-02 0.  1.
    5000001    1    1    2    0    0  0.14699083691E+03 -0.12786564772E+03 -0.28531234675E+03  0.38286298491E+03  0.16500000000E+03 0.  0.
   -5000001    1    1    2    0    0 -0.14699083691E+03  0.12786564772E+03 -0.92268072026E+03  0.95735084559E+03  0.16500000000E+03 0.  0.
<mgrwt>
<rscale>  0 0.58045315E+03</rscale>
<asrwt>0</asrwt>
<pdfrwt beam="1">  1        2 0.18201476E+00 0.58045315E+03</pdfrwt>
<pdfrwt beam="2">  1       -2 0.94443410E-02 0.58045315E+03</pdfrwt>
<totfact> 0.14756219E+03</totfact>
</mgrwt>
</event>
<event>
 4    1  0.1049403E-004  0.7730314E+03  0.7818608E-02  0.9599895E-01
          2   -1    0    0  501    0  0.00000000000E+00  0.00000000000E+00  0.44551116895E+03  0.44551116896E+03  0.25500000000E-02 0.  1.
         -2   -1    0    0    0  501 -0.00000000000E+00 -0.00000000000E+00 -0.33533248502E+03  0.33533248503E+03  0.25500000000E-02 0. -1.
    5000001    1    1    2    0    0 -0.29997364440E+03 -0.13924122423E+03 -0.59177995174E+02  0.37429846509E+03  0.16500000000E+03 0.  0.
   -5000001    1    1    2    0    0  0.29997364440E+03  0.13924122423E+03  0.16935667910E+03  0.40654518890E+03  0.16500000000E+03 0.  0.
<mgrwt>
<rscale>  0 0.77303135E+03</rscale>
<asrwt>0</asrwt>
<pdfrwt beam="1">  1        2 0.63644453E-01 0.77303135E+03</pdfrwt>
<pdfrwt beam="2">  1       -2 0.47904641E-01 0.77303135E+03</pdfrwt>
<totfact> 0.31833327E+02</totfact>
</mgrwt>
</event>
<event>
 4    1  0.1049403E-004  0.4159943E+03  0.7818608E-02  0.1038378E+00
         -2   -1    0    0    0  501 -0.00000000000E+00  0.00000000000E+00  0.15525750005E+03  0.15525750007E+03  0.25500000000E-02 0. -1.
          2   -1    0    0  501    0  0.00000000000E+00 -0.00000000000E+00 -0.27865201106E+03  0.27865201107E+03  0.25500000000E-02 0.  1.
    5000001    1    1    2    0    0 -0.19851719732E+02 -0.12501333109E+03 -0.57605178233E+02  0.21579105701E+03  0.16500000000E+03 0.  0.
   -5000001    1    1    2    0    0  0.19851719732E+02  0.12501333109E+03 -0.65789332774E+02  0.21811845413E+03  0.16500000000E+03 0.  0.
<mgrwt>
<rscale>  0 0.41599430E+03</rscale>
<asrwt>0</asrwt>
<pdfrwt beam="1">  1        2 0.39807430E-01 0.41599430E+03</pdfrwt>
<pdfrwt beam="2">  1       -2 0.22179643E-01 0.41599430E+03</pdfrwt>
<totfact> 0.22733437E+03</totfact>
</mgrwt>
</event>
<event>
 4    1  0.1049403E-004  0.3615720E+03  0.7818608E-02  0.1057963E+00
          2   -1    0    0  501    0  0.00000000000E+00  0.00000000000E+00  0.30175242662E+04  0.30175242662E+04  0.25500000000E-02 0.  1.
         -2   -1    0    0    0  501 -0.00000000000E+00 -0.00000000000E+00 -0.10831258210E+02  0.10831258510E+02  0.25500000000E-02 0. -1.
    5000001    1    1    2    0    0  0.63544284104E+02  0.25223317813E+02  0.12687580713E+04  0.12812673942E+04  0.16500000000E+03 0.  0.
   -5000001    1    1    2    0    0 -0.63544284104E+02 -0.25223317813E+02  0.17379349367E+04  0.17470881305E+04  0.16500000000E+03 0.  0.
<mgrwt>
<rscale>  0 0.36157204E+03</rscale>
<asrwt>0</asrwt>
<pdfrwt beam="1">  1        2 0.43107514E+00 0.36157204E+03</pdfrwt>
<pdfrwt beam="2">  1       -2 0.15473217E-02 0.36157204E+03</pdfrwt>
<totfact> 0.30427489E+03</totfact>
</mgrwt>
</event>
<event>
 4    1  0.1049403E-004  0.5457763E+03  0.7818608E-02  0.1002476E+00
         -2   -1    0    0    0  501 -0.00000000000E+00  0.00000000000E+00  0.47167819595E+02  0.47167819664E+02  0.25500000000E-02 0. -1.
          2   -1    0    0  501    0  0.00000000000E+00 -0.00000000000E+00 -0.15787870864E+04  0.15787870864E+04  0.25500000000E-02 0.  1.
    5000001    1    1    2    0    0 -0.19363537195E+03 -0.85618377655E+02 -0.91229770717E+03  0.95096649277E+03  0.16500000000E+03 0.  0.
   -5000001    1    1    2    0    0  0.19363537195E+03  0.85618377655E+02 -0.61932155967E+03  0.67498841333E+03  0.16500000000E+03 0.  0.
<mgrwt>
<rscale>  0 0.54577631E+03</rscale>
<asrwt>0</asrwt>
<pdfrwt beam="1">  1        2 0.22554098E+00 0.54577631E+03</pdfrwt>
<pdfrwt beam="2">  1       -2 0.67382609E-02 0.54577631E+03</pdfrwt>
<totfact> 0.17454939E+03</totfact>
</mgrwt>
</event>
<event>
 4    1  0.1049403E-004  0.5336882E+03  0.7818608E-02  0.1005342E+00
          2   -1    0    0  501    0  0.00000000000E+00  0.00000000000E+00  0.54894757582E+02  0.54894757642E+02  0.25500000000E-02 0.  1.
         -2   -1    0    0    0  501 -0.00000000000E+00 -0.00000000000E+00 -0.12971323198E+04  0.12971323198E+04  0.25500000000E-02 0. -1.
    5000001    1    1    2    0    0 -0.18281372300E+03  0.10171903185E+03 -0.58413290301E+03  0.64203104842E+03  0.16500000000E+03 0.  0.
   -5000001    1    1    2    0    0  0.18281372300E+03 -0.10171903185E+03 -0.65810465923E+03  0.70999602904E+03  0.16500000000E+03 0.  0.
<mgrwt>
<rscale>  0 0.53368816E+03</rscale>
<asrwt>0</asrwt>
<pdfrwt beam="1">  1        2 0.78421090E-02 0.53368816E+03</pdfrwt>
<pdfrwt beam="2">  1       -2 0.18530460E+00 0.53368816E+03</pdfrwt>
<totfact> 0.15528289E+02</totfact>
</mgrwt>
</event>
<event>
 4    1  0.1049403E-004  0.4483709E+03  0.7818608E-02  0.1028209E+00
         -2   -1    0    0    0  501 -0.00000000000E+00  0.00000000000E+00  0.14760159299E+03  0.14760159301E+03  0.25500000000E-02 0.  1.
          2   -1    0    0  501    0  0.00000000000E+00 -0.00000000000E+00 -0.34050522694E+03  0.34050522695E+03  0.25500000000E-02 0. -1.
    5000001    1    1    2    0    0 -0.84686860683E+02 -0.50182955364E+02 -0.22220505889E+03  0.29375207502E+03  0.16500000000E+03 0.  0.
   -5000001    1    1    2    0    0  0.84686860683E+02  0.50182955364E+02  0.29301424930E+02  0.19435474495E+03  0.16500000000E+03 0.  0.
<mgrwt>
<rscale>  0 0.44837089E+03</rscale>
<asrwt>0</asrwt>
<pdfrwt beam="1">  1        2 0.48643603E-01 0.44837089E+03</pdfrwt>
<pdfrwt beam="2">  1       -2 0.21085942E-01 0.44837089E+03</pdfrwt>
<totfact> 0.19964286E+03</totfact>
</mgrwt>
</event>
<event>
 4    1  0.1049403E-004  0.1054561E+04  0.7818608E-02  0.9250648E-01
         -2   -1    0    0    0  501 -0.00000000000E+00  0.00000000000E+00  0.50859637284E+03  0.50859637285E+03  0.25500000000E-02 0. -1.
          2   -1    0    0  501    0  0.00000000000E+00 -0.00000000000E+00 -0.54665112494E+03  0.54665112495E+03  0.25500000000E-02 0.  1.
    5000001    1    1    2    0    0  0.23491059539E+02 -0.49190452058E+03 -0.11006951743E+03  0.53090694656E+03  0.16500000000E+03 0.  0.
   -5000001    1    1    2    0    0 -0.23491059539E+02  0.49190452058E+03  0.72014765327E+02  0.52434055123E+03  0.16500000000E+03 0.  0.
<mgrwt>
<rscale>  0 0.10545611E+04</rscale>
<asrwt>0</asrwt>
<pdfrwt beam="1">  1        2 0.78093018E-01 0.10545611E+04</pdfrwt>
<pdfrwt beam="2">  1       -2 0.72656625E-01 0.10545611E+04</pdfrwt>
<totfact> 0.10335999E+02</totfact>
</mgrwt>
</event>
<event>
 4    1  0.1049403E-004  0.4272039E+03  0.7818608E-02  0.1034747E+00
          2   -1    0    0  501    0  0.00000000000E+00  0.00000000000E+00  0.12393682497E+03  0.12393682499E+03  0.25500000000E-02 0.  1.
         -2   -1    0    0    0  501 -0.00000000000E+00 -0.00000000000E+00 -0.36813754205E+03  0.36813754206E+03  0.25500000000E-02 0. -1.
    5000001    1    1    2    0    0 -0.38147839776E+02 -0.11338837640E+03 -0.48448501740E+02  0.20948613058E+03  0.16500000000E+03 0.  0.
   -5000001    1    1    2    0    0  0.38147839776E+02  0.11338837640E+03 -0.19575221535E+03  0.28258823648E+03  0.16500000000E+03 0.  0.
<mgrwt>
<rscale>  0 0.42720392E+03</rscale>
<asrwt>0</asrwt>
<pdfrwt beam="1">  1        2 0.17705261E-01 0.42720392E+03</pdfrwt>
<pdfrwt beam="2">  1       -2 0.52591077E-01 0.42720392E+03</pdfrwt>
<totfact> 0.11194423E+03</totfact>
</mgrwt>
</event>
<event>
 4    1  0.1049403E-004  0.5437837E+03  0.7818608E-02  0.1002943E+00
         -2   -1    0    0    0  501 -0.00000000000E+00  0.00000000000E+00  0.11414124209E+03  0.11414124212E+03  0.25500000000E-02 0. -1.
          2   -1    0    0  501    0  0.00000000000E+00 -0.00000000000E+00 -0.64766406945E+03  0.64766406945E+03  0.25500000000E-02 0.  1.
    5000001    1    1    2    0    0 -0.17156984576E+03  0.80428947757E+02 -0.41231811922E+03  0.48284185718E+03  0.16500000000E+03 0.  0.
   -5000001    1    1    2    0    0  0.17156984576E+03 -0.80428947757E+02 -0.12120470814E+03  0.27896345439E+03  0.16500000000E+03 0.  0.
<mgrwt>
<rscale>  0 0.54378371E+03</rscale>
<asrwt>0</asrwt>
<pdfrwt beam="1">  1        2 0.92523437E-01 0.54378371E+03</pdfrwt>
<pdfrwt beam="2">  1       -2 0.16305892E-01 0.54378371E+03</pdfrwt>
<totfact> 0.15037782E+03</totfact>
</mgrwt>
</event>
<event>
 4    1  0.1049403E-004  0.4242279E+03  0.7818608E-02  0.1035699E+00
          2   -1    0    0  501    0  0.00000000000E+00  0.00000000000E+00  0.51355622430E+03  0.51355622430E+03  0.25500000000E-02 0.  1.
         -2   -1    0    0    0  501 -0.00000000000E+00 -0.00000000000E+00 -0.87609360194E+02  0.87609360231E+02  0.25500000000E-02 0. -1.
    5000001    1    1    2    0    0 -0.60036726659E+02  0.84762436332E+02  0.94596189436E+02  0.21670837136E+03  0.16500000000E+03 0.  0.
   -5000001    1    1    2    0    0  0.60036726659E+02 -0.84762436332E+02  0.33135067467E+03  0.38445721317E+03  0.16500000000E+03 0.  0.
<mgrwt>
<rscale>  0 0.42422792E+03</rscale>
<asrwt>0</asrwt>
<pdfrwt beam="1">  1        2 0.73365175E-01 0.42422792E+03</pdfrwt>
<pdfrwt beam="2">  1       -2 0.12515623E-01 0.42422792E+03</pdfrwt>
<totfact> 0.30536899E+03</totfact>
</mgrwt>
</event>
<event>
 4    1  0.1049403E-004  0.4916411E+03  0.7818608E-02  0.1015984E+00
         -2   -1    0    0    0  501 -0.00000000000E+00  0.00000000000E+00  0.31461499888E+02  0.31461499991E+02  0.25500000000E-02 0. -1.
          2   -1    0    0  501    0  0.00000000000E+00 -0.00000000000E+00 -0.19206887821E+04  0.19206887821E+04  0.25500000000E-02 0.  1.
    5000001    1    1    2    0    0 -0.35310196080E+01  0.16794747120E+03 -0.66429566044E+03  0.70479255505E+03  0.16500000000E+03 0.  0.
   -5000001    1    1    2    0    0  0.35310196080E+01 -0.16794747120E+03 -0.12249316218E+04  0.12473577271E+04  0.16500000000E+03 0.  0.
<mgrwt>
<rscale>  0 0.49164113E+03</rscale>
<asrwt>0</asrwt>
<pdfrwt beam="1">  1        2 0.27438404E+00 0.49164113E+03</pdfrwt>
<pdfrwt beam="2">  1       -2 0.44945012E-02 0.49164113E+03</pdfrwt>
<totfact> 0.22052059E+03</totfact>
</mgrwt>
</event>
<event>
 4    1  0.1049403E-004  0.4758119E+03  0.7818608E-02  0.1020293E+00
          2   -1    0    0  501    0  0.00000000000E+00  0.00000000000E+00  0.11593644503E+04  0.11593644503E+04  0.25500000000E-02 0.  1.
         -2   -1    0    0    0  501 -0.00000000000E+00 -0.00000000000E+00 -0.48819199543E+02  0.48819199610E+02  0.25500000000E-02 0. -1.
    5000001    1    1    2    0    0  0.12193942597E+03 -0.25386362319E+02  0.85421530850E+03  0.87887569330E+03  0.16500000000E+03 0.  0.
   -5000001    1    1    2    0    0 -0.12193942597E+03  0.25386362319E+02  0.25632994230E+03  0.32930795666E+03  0.16500000000E+03 0.  0.
<mgrwt>
<rscale>  0 0.47581191E+03</rscale>
<asrwt>0</asrwt>
<pdfrwt beam="1">  1        2 0.16562348E+00 0.47581191E+03</pdfrwt>
<pdfrwt beam="2">  1       -2 0.69741718E-02 0.47581191E+03</pdfrwt>
<totfact> 0.27721697E+03</totfact>
</mgrwt>
</event>
<event>
 4    1  0.1049403E-004  0.6657016E+03  0.7818608E-02  0.9777754E-01
          2   -1    0    0  501    0  0.00000000000E+00  0.00000000000E+00  0.13960545763E+04  0.13960545763E+04  0.25500000000E-02 0.  1.
         -2   -1    0    0    0  501 -0.00000000000E+00 -0.00000000000E+00 -0.79359120049E+02  0.79359120090E+02  0.25500000000E-02 0. -1.
    5000001    1    1    2    0    0  0.21254895055E+03  0.13617021830E+03  0.97056921565E+03  0.10163409797E+04  0.16500000000E+03 0.  0.
   -5000001    1    1    2    0    0 -0.21254895055E+03 -0.13617021830E+03  0.34612624057E+03  0.45907271662E+03  0.16500000000E+03 0.  0.
<mgrwt>
<rscale>  0 0.66570162E+03</rscale>
<asrwt>0</asrwt>
<pdfrwt beam="1">  1        2 0.19943635E+00 0.66570162E+03</pdfrwt>
<pdfrwt beam="2">  1       -2 0.11337018E-01 0.66570162E+03</pdfrwt>
<totfact> 0.93942599E+02</totfact>
</mgrwt>
</event>
<event>
 4    1  0.1049403E-004  0.5650581E+03  0.7818608E-02  0.9980674E-01
          2   -1    0    0  501    0  0.00000000000E+00  0.00000000000E+00  0.30620843819E+03  0.30620843820E+03  0.25500000000E-02 0.  1.
         -2   -1    0    0    0  501 -0.00000000000E+00 -0.00000000000E+00 -0.26068077137E+03  0.26068077138E+03  0.25500000000E-02 0. -1.
    5000001    1    1    2    0    0  0.21154420633E+03 -0.84656692015E+02 -0.33964265290E+01  0.28134363765E+03  0.16500000000E+03 0.  0.
   -5000001    1    1    2    0    0 -0.21154420633E+03  0.84656692015E+02  0.48924093350E+02  0.28554557192E+03  0.16500000000E+03 0.  0.
<mgrwt>
<rscale>  0 0.56505806E+03</rscale>
<asrwt>0</asrwt>
<pdfrwt beam="1">  1        2 0.43744063E-01 0.56505806E+03</pdfrwt>
<pdfrwt beam="2">  1       -2 0.37240110E-01 0.56505806E+03</pdfrwt>
<totfact> 0.79578315E+02</totfact>
</mgrwt>
</event>
<event>
 4    1  0.1049403E-004  0.6192200E+03  0.7818608E-02  0.9866314E-01
          2   -1    0    0  501    0  0.00000000000E+00  0.00000000000E+00  0.13021687138E+04  0.13021687138E+04  0.25500000000E-02 0.  1.
         -2   -1    0    0    0  501 -0.00000000000E+00 -0.00000000000E+00 -0.73614385541E+02  0.73614385585E+02  0.25500000000E-02 0. -1.
    5000001    1    1    2    0    0  0.11176689761E+03 -0.23581712286E+03  0.56304094232E+03  0.64213834769E+03  0.16500000000E+03 0.  0.
   -5000001    1    1    2    0    0 -0.11176689761E+03  0.23581712286E+03  0.66551338593E+03  0.73364475169E+03  0.16500000000E+03 0.  0.
<mgrwt>
<rscale>  0 0.61921999E+03</rscale>
<asrwt>0</asrwt>
<pdfrwt beam="1">  1        2 0.18602409E+00 0.61921999E+03</pdfrwt>
<pdfrwt beam="2">  1       -2 0.10516341E-01 0.61921999E+03</pdfrwt>
<totfact> 0.11953860E+03</totfact>
</mgrwt>
</event>
<event>
 4    1  0.1049403E-004  0.7542836E+03  0.7818608E-02  0.9628654E-01
          2   -1    0    0  501    0  0.00000000000E+00  0.00000000000E+00  0.81227383080E+03  0.81227383081E+03  0.25500000000E-02 0.  1.
         -2   -1    0    0    0  501 -0.00000000000E+00 -0.00000000000E+00 -0.17510836897E+03  0.17510836898E+03  0.25500000000E-02 0. -1.
    5000001    1    1    2    0    0  0.18664803140E+03  0.26004552958E+01 -0.52053275117E+02  0.25451678421E+03  0.16500000000E+03 0.  0.
   -5000001    1    1    2    0    0 -0.18664803140E+03 -0.26004552958E+01  0.68921873695E+03  0.73286541558E+03  0.16500000000E+03 0.  0.
<mgrwt>
<rscale>  0 0.75428362E+03</rscale>
<asrwt>0</asrwt>
<pdfrwt beam="1">  1        2 0.11603912E+00 0.75428362E+03</pdfrwt>
<pdfrwt beam="2">  1       -2 0.25015481E-01 0.75428362E+03</pdfrwt>
<totfact> 0.53523535E+02</totfact>
</mgrwt>
</event>
<event>
 4    1  0.1049403E-004  0.6365301E+03  0.7818608E-02  0.9832388E-01
          2   -1    0    0  501    0  0.00000000000E+00  0.00000000000E+00  0.11666586421E+03  0.11666586424E+03  0.25500000000E-02 0.  1.
         -2   -1    0    0    0  501 -0.00000000000E+00 -0.00000000000E+00 -0.86822850258E+03  0.86822850258E+03  0.25500000000E-02 0. -1.
    5000001    1    1    2    0    0  0.24317012991E+03  0.55379504221E+02 -0.20721209170E+03  0.36381376075E+03  0.16500000000E+03 0.  0.
   -5000001    1    1    2    0    0 -0.24317012991E+03 -0.55379504221E+02 -0.54435054667E+03  0.62108060606E+03  0.16500000000E+03 0.  0.
<mgrwt>
<rscale>  0 0.63653006E+03</rscale>
<asrwt>0</asrwt>
<pdfrwt beam="1">  1        2 0.16666553E-01 0.63653006E+03</pdfrwt>
<pdfrwt beam="2">  1       -2 0.12403264E+00 0.63653006E+03</pdfrwt>
<totfact> 0.17480998E+02</totfact>
</mgrwt>
</event>
<event>
 4    1  0.1049403E-004  0.3617518E+03  0.7818608E-02  0.1057892E+00
          2   -1    0    0  501    0  0.00000000000E+00  0.00000000000E+00  0.71310575686E+03  0.71310575686E+03  0.25500000000E-02 0.  1.
         -2   -1    0    0    0  501 -0.00000000000E+00 -0.00000000000E+00 -0.45878310564E+02  0.45878310635E+02  0.25500000000E-02 0. -1.
    5000001    1    1    2    0    0  0.44438569102E+02  0.15360236051E+02  0.21344733409E+03  0.27385304034E+03  0.16500000000E+03 0.  0.
   -5000001    1    1    2    0    0 -0.44438569102E+02 -0.15360236051E+02  0.45378011221E+03  0.48513102716E+03  0.16500000000E+03 0.  0.
<mgrwt>
<rscale>  0 0.36175178E+03</rscale>
<asrwt>0</asrwt>
<pdfrwt beam="1">  1        2 0.10187225E+00 0.36175178E+03</pdfrwt>
<pdfrwt beam="2">  1       -2 0.65540443E-02 0.36175178E+03</pdfrwt>
<totfact> 0.58255636E+03</totfact>
</mgrwt>
</event>
<event>
 4    1  0.1049403E-004  0.9736503E+03  0.7818608E-02  0.9337926E-01
         -2   -1    0    0    0  501 -0.00000000000E+00  0.00000000000E+00  0.60697047971E+03  0.60697047971E+03  0.25500000000E-02 0. -1.
          2   -1    0    0  501    0  0.00000000000E+00 -0.00000000000E+00 -0.39046171325E+03  0.39046171326E+03  0.25500000000E-02 0.  1.
    5000001    1    1    2    0    0  0.42961169951E+03 -0.15864688403E+03  0.11462621439E+03  0.50009920535E+03  0.16500000000E+03 0.  0.
   -5000001    1    1    2    0    0 -0.42961169951E+03  0.15864688403E+03  0.10188255206E+03  0.49733298762E+03  0.16500000000E+03 0.  0.
<mgrwt>
<rscale>  0 0.97365031E+03</rscale>
<asrwt>0</asrwt>
<pdfrwt beam="1">  1        2 0.55780245E-01 0.97365031E+03</pdfrwt>
<pdfrwt beam="2">  1       -2 0.86710069E-01 0.97365031E+03</pdfrwt>
<totfact> 0.10235874E+02</totfact>
</mgrwt>
</event>
<event>
 4    1  0.1049403E-004  0.4218698E+03  0.7818608E-02  0.1036459E+00
          2   -1    0    0  501    0  0.00000000000E+00  0.00000000000E+00  0.13866670574E+04  0.13866670574E+04  0.25500000000E-02 0.  1.
         -2   -1    0    0    0  501 -0.00000000000E+00 -0.00000000000E+00 -0.32086668017E+02  0.32086668119E+02  0.25500000000E-02 0. -1.
    5000001    1    1    2    0    0  0.11305277098E+03  0.23069537694E+02  0.46578383546E+03  0.50743739907E+03  0.16500000000E+03 0.  0.
   -5000001    1    1    2    0    0 -0.11305277098E+03 -0.23069537694E+02  0.88879655396E+03  0.91131632649E+03  0.16500000000E+03 0.  0.
<mgrwt>
<rscale>  0 0.42186977E+03</rscale>
<asrwt>0</asrwt>
<pdfrwt beam="1">  1        2 0.19809532E+00 0.42186977E+03</pdfrwt>
<pdfrwt beam="2">  1       -2 0.45838092E-02 0.42186977E+03</pdfrwt>
<totfact> 0.39997166E+03</totfact>
</mgrwt>
</event>
<event>
 4    1  0.1049403E-004  0.3953096E+03  0.7818608E-02  0.1045416E+00
         -2   -1    0    0    0  501 -0.00000000000E+00  0.00000000000E+00  0.29817782279E+02  0.29817782388E+02  0.25500000000E-02 0. -1.
          2   -1    0    0  501    0  0.00000000000E+00 -0.00000000000E+00 -0.13102052673E+04  0.13102052673E+04  0.25500000000E-02 0.  1.
    5000001    1    1    2    0    0  0.74951970569E+02 -0.58499191972E-01 -0.90763669043E+03  0.92555235570E+03  0.16500000000E+03 0.  0.
   -5000001    1    1    2    0    0 -0.74951970569E+02  0.58499191972E-01 -0.37275079459E+03  0.41447069399E+03  0.16500000000E+03 0.  0.
<mgrwt>
<rscale>  0 0.39530958E+03</rscale>
<asrwt>0</asrwt>
<pdfrwt beam="1">  1        2 0.18717215E+00 0.39530958E+03</pdfrwt>
<pdfrwt beam="2">  1       -2 0.42596840E-02 0.39530958E+03</pdfrwt>
<totfact> 0.49092145E+03</totfact>
</mgrwt>
</event>
<event>
 4    1  0.1049403E-004  0.4688033E+03  0.7818608E-02  0.1022259E+00
         -2   -1    0    0    0  501 -0.00000000000E+00  0.00000000000E+00  0.45755905531E+02  0.45755905602E+02  0.25500000000E-02 0. -1.
          2   -1    0    0  501    0  0.00000000000E+00 -0.00000000000E+00 -0.12008095666E+04  0.12008095666E+04  0.25500000000E-02 0.  1.
    5000001    1    1    2    0    0 -0.12860050857E+03 -0.42145807964E+02 -0.31965819524E+03  0.38434453518E+03  0.16500000000E+03 0.  0.
   -5000001    1    1    2    0    0  0.12860050857E+03  0.42145807964E+02 -0.83539546580E+03  0.86222093701E+03  0.16500000000E+03 0.  0.
<mgrwt>
<rscale>  0 0.46880328E+03</rscale>
<asrwt>0</asrwt>
<pdfrwt beam="1">  1        2 0.17154420E+00 0.46880328E+03</pdfrwt>
<pdfrwt beam="2">  1       -2 0.65365587E-02 0.46880328E+03</pdfrwt>
<totfact> 0.29092091E+03</totfact>
</mgrwt>
</event>
<event>
 4    1  0.1049403E-004  0.6761206E+03  0.7818608E-02  0.9758964E-01
          2   -1    0    0  501    0  0.00000000000E+00  0.00000000000E+00  0.68990196223E+03  0.68990196223E+03  0.25500000000E-02 0.  1.
         -2   -1    0    0    0  501 -0.00000000000E+00 -0.00000000000E+00 -0.16565361316E+03  0.16565361318E+03  0.25500000000E-02 0. -1.
    5000001    1    1    2    0    0  0.28672642640E+03 -0.40432209987E+02  0.33385003526E+03  0.47172836807E+03  0.16500000000E+03 0.  0.
   -5000001    1    1    2    0    0 -0.28672642640E+03  0.40432209987E+02  0.19039831380E+03  0.38382720734E+03  0.16500000000E+03 0.  0.
<mgrwt>
<rscale>  0 0.67612056E+03</rscale>
<asrwt>0</asrwt>
<pdfrwt beam="1">  1        2 0.98557422E-01 0.67612056E+03</pdfrwt>
<pdfrwt beam="2">  1       -2 0.23664802E-01 0.67612056E+03</pdfrwt>
<totfact> 0.72765809E+02</totfact>
</mgrwt>
</event>
<event>
 4    1  0.1049403E-004  0.6498067E+03  0.7818608E-02  0.9807142E-01
         -2   -1    0    0    0  501 -0.00000000000E+00  0.00000000000E+00  0.39176973298E+03  0.39176973299E+03  0.25500000000E-02 0. -1.
          2   -1    0    0  501    0  0.00000000000E+00 -0.00000000000E+00 -0.26944958915E+03  0.26944958916E+03  0.25500000000E-02 0.  1.
    5000001    1    1    2    0    0  0.26516134920E+03  0.85576137335E+02  0.88147126194E+02  0.33560204446E+03  0.16500000000E+03 0.  0.
   -5000001    1    1    2    0    0 -0.26516134920E+03 -0.85576137335E+02  0.34173017631E+02  0.32561727768E+03  0.16500000000E+03 0.  0.
<mgrwt>
<rscale>  0 0.64980672E+03</rscale>
<asrwt>0</asrwt>
<pdfrwt beam="1">  1        2 0.38492799E-01 0.64980672E+03</pdfrwt>
<pdfrwt beam="2">  1       -2 0.55967104E-01 0.64980672E+03</pdfrwt>
<totfact> 0.40659206E+02</totfact>
</mgrwt>
</event>
<event>
 4    1  0.1049403E-004  0.5941791E+03  0.7818608E-02  0.9917557E-01
          2   -1    0    0  501    0  0.00000000000E+00  0.00000000000E+00  0.28194216400E+03  0.28194216401E+03  0.25500000000E-02 0.  1.
         -2   -1    0    0    0  501 -0.00000000000E+00 -0.00000000000E+00 -0.31305068703E+03  0.31305068704E+03  0.25500000000E-02 0. -1.
    5000001    1    1    2    0    0 -0.20637997129E+03  0.13563171267E+03 -0.22530446510E+02  0.29786116741E+03  0.16500000000E+03 0.  0.
   -5000001    1    1    2    0    0  0.20637997129E+03 -0.13563171267E+03 -0.85780765238E+01  0.29713168365E+03  0.16500000000E+03 0.  0.
<mgrwt>
<rscale>  0 0.59417906E+03</rscale>
<asrwt>0</asrwt>
<pdfrwt beam="1">  1        2 0.40277452E-01 0.59417906E+03</pdfrwt>
<pdfrwt beam="2">  1       -2 0.44721527E-01 0.59417906E+03</pdfrwt>
<totfact> 0.61007900E+02</totfact>
</mgrwt>
</event>
<event>
 4    1  0.1049403E-004  0.4204808E+03  0.7818608E-02  0.1036910E+00
         -2   -1    0    0    0  501 -0.00000000000E+00  0.00000000000E+00  0.56498072515E+03  0.56498072515E+03  0.25500000000E-02 0. -1.
          2   -1    0    0  501    0  0.00000000000E+00 -0.00000000000E+00 -0.78234567640E+02  0.78234567682E+02  0.25500000000E-02 0.  1.
    5000001    1    1    2    0    0 -0.11164849253E+03 -0.25050100659E+02  0.14804932526E+03  0.24947243562E+03  0.16500000000E+03 0.  0.
   -5000001    1    1    2    0    0  0.11164849253E+03  0.25050100659E+02  0.33869683225E+03  0.39374285721E+03  0.16500000000E+03 0.  0.
<mgrwt>
<rscale>  0 0.42048079E+03</rscale>
<asrwt>0</asrwt>
<pdfrwt beam="1">  1        2 0.11176367E-01 0.42048079E+03</pdfrwt>
<pdfrwt beam="2">  1       -2 0.80711531E-01 0.42048079E+03</pdfrwt>
<totfact> 0.78505116E+02</totfact>
</mgrwt>
</event>
<event>
 4    1  0.1049403E-004  0.5366529E+03  0.7818608E-02  0.1004631E+00
          2   -1    0    0  501    0  0.00000000000E+00  0.00000000000E+00  0.88118706292E+03  0.88118706292E+03  0.25500000000E-02 0.  1.
         -2   -1    0    0    0  501 -0.00000000000E+00 -0.00000000000E+00 -0.81706910671E+02  0.81706910711E+02  0.25500000000E-02 0. -1.
    5000001    1    1    2    0    0  0.19179500928E+03 -0.88572001258E+02  0.42125230549E+03  0.49930835150E+03  0.16500000000E+03 0.  0.
   -5000001    1    1    2    0    0 -0.19179500928E+03  0.88572001258E+02  0.37822784676E+03  0.46358562214E+03  0.16500000000E+03 0.  0.
<mgrwt>
<rscale>  0 0.53665286E+03</rscale>
<asrwt>0</asrwt>
<pdfrwt beam="1">  1        2 0.12588386E+00 0.53665286E+03</pdfrwt>
<pdfrwt beam="2">  1       -2 0.11672416E-01 0.53665286E+03</pdfrwt>
<totfact> 0.17852219E+03</totfact>
</mgrwt>
</event>
<event>
 4    1  0.1049403E-004  0.5380819E+03  0.7818608E-02  0.1004291E+00
         -2   -1    0    0    0  501 -0.00000000000E+00  0.00000000000E+00  0.44446399779E+02  0.44446399852E+02  0.25500000000E-02 0. -1.
          2   -1    0    0  501    0  0.00000000000E+00 -0.00000000000E+00 -0.16285463203E+04  0.16285463203E+04  0.25500000000E-02 0.  1.
    5000001    1    1    2    0    0 -0.94547622317E+02 -0.17928940967E+03 -0.59359578364E+03  0.64858684821E+03  0.16500000000E+03 0.  0.
   -5000001    1    1    2    0    0  0.94547622317E+02  0.17928940967E+03 -0.99050413687E+03  0.10244058719E+04  0.16500000000E+03 0.  0.
<mgrwt>
<rscale>  0 0.53808186E+03</rscale>
<asrwt>0</asrwt>
<pdfrwt beam="1">  1        2 0.23264944E+00 0.53808186E+03</pdfrwt>
<pdfrwt beam="2">  1       -2 0.63494867E-02 0.53808186E+03</pdfrwt>
<totfact> 0.18075368E+03</totfact>
</mgrwt>
</event>
<event>
 4    1  0.1049403E-004  0.9338923E+03  0.7818608E-02  0.9384179E-01
         -2   -1    0    0    0  501 -0.00000000000E+00  0.00000000000E+00  0.13546452521E+03  0.13546452524E+03  0.25500000000E-02 0. -1.
          2   -1    0    0  501    0  0.00000000000E+00 -0.00000000000E+00 -0.16095629960E+04  0.16095629960E+04  0.25500000000E-02 0.  1.
    5000001    1    1    2    0    0 -0.32133150482E+03 -0.28834891137E+03 -0.61289716696E+03  0.76763726326E+03  0.16500000000E+03 0.  0.
   -5000001    1    1    2    0    0  0.32133150482E+03  0.28834891137E+03 -0.86120130383E+03  0.97739025799E+03  0.16500000000E+03 0.  0.
<mgrwt>
<rscale>  0 0.93389226E+03</rscale>
<asrwt>0</asrwt>
<pdfrwt beam="1">  1        2 0.22993756E+00 0.93389226E+03</pdfrwt>
<pdfrwt beam="2">  1       -2 0.19352076E-01 0.93389226E+03</pdfrwt>
<totfact> 0.28963840E+02</totfact>
</mgrwt>
</event>
<event>
 4    1  0.1049403E-004  0.6347137E+03  0.7818608E-02  0.9835893E-01
         -2   -1    0    0    0  501 -0.00000000000E+00  0.00000000000E+00  0.42919926917E+02  0.42919926992E+02  0.25500000000E-02 0. -1.
          2   -1    0    0  501    0  0.00000000000E+00 -0.00000000000E+00 -0.23465875111E+04  0.23465875111E+04  0.25500000000E-02 0.  1.
    5000001    1    1    2    0    0 -0.17503771767E+03 -0.16732790220E+03 -0.16106570667E+04  0.16370943821E+04  0.16500000000E+03 0.  0.
   -5000001    1    1    2    0    0  0.17503771767E+03  0.16732790220E+03 -0.69301051752E+03  0.75241305601E+03  0.16500000000E+03 0.  0.
<mgrwt>
<rscale>  0 0.63471368E+03</rscale>
<asrwt>0</asrwt>
<pdfrwt beam="1">  1        2 0.33522671E+00 0.63471368E+03</pdfrwt>
<pdfrwt beam="2">  1       -2 0.61314196E-02 0.63471368E+03</pdfrwt>
<totfact> 0.82534545E+02</totfact>
</mgrwt>
</event>
<event>
 4    1  0.1049403E-004  0.1319472E+04  0.7818608E-02  0.9014265E-01
         -2   -1    0    0    0  501 -0.00000000000E+00  0.00000000000E+00  0.15522880349E+03  0.15522880351E+03  0.25500000000E-02 0. -1.
          2   -1    0    0  501    0  0.00000000000E+00 -0.00000000000E+00 -0.28039361703E+04  0.28039361703E+04  0.25500000000E-02 0.  1.
    5000001    1    1    2    0    0  0.28773011663E+03 -0.52557461804E+03 -0.18208413573E+04  0.19239816911E+04  0.16500000000E+03 0.  0.
   -5000001    1    1    2    0    0 -0.28773011663E+03  0.52557461804E+03 -0.82786600950E+03  0.10351832827E+04  0.16500000000E+03 0.  0.
<mgrwt>
<rscale>  0 0.13194721E+04</rscale>
<asrwt>0</asrwt>
<pdfrwt beam="1">  1        2 0.40056228E+00 0.13194721E+04</pdfrwt>
<pdfrwt beam="2">  1       -2 0.22175545E-01 0.13194721E+04</pdfrwt>
<totfact> 0.53106739E+01</totfact>
</mgrwt>
</event>
<event>
 4    1  0.1049403E-004  0.7472650E+03  0.7818608E-02  0.9639651E-01
          2   -1    0    0  501    0  0.00000000000E+00  0.00000000000E+00  0.24463443288E+04  0.24463443288E+04  0.25500000000E-02 0.  1.
         -2   -1    0    0    0  501 -0.00000000000E+00 -0.00000000000E+00 -0.57065244677E+02  0.57065244734E+02  0.25500000000E-02 0. -1.
    5000001    1    1    2    0    0  0.12911336629E+03  0.16804967577E+03  0.20647962078E+04  0.20821909938E+04  0.16500000000E+03 0.  0.
   -5000001    1    1    2    0    0 -0.12911336629E+03 -0.16804967577E+03  0.32448287625E+03  0.42121857967E+03  0.16500000000E+03 0.  0.
<mgrwt>
<rscale>  0 0.74726498E+03</rscale>
<asrwt>0</asrwt>
<pdfrwt beam="1">  1        2 0.34947771E+00 0.74726498E+03</pdfrwt>
<pdfrwt beam="2">  1       -2 0.81521791E-02 0.74726498E+03</pdfrwt>
<totfact> 0.46323903E+02</totfact>
</mgrwt>
</event>
<event>
 4    1  0.1049403E-004  0.4941168E+03  0.7818608E-02  0.1015326E+00
          2   -1    0    0  501    0  0.00000000000E+00  0.00000000000E+00  0.72006346007E+03  0.72006346007E+03  0.25500000000E-02 0.  1.
         -2   -1    0    0    0  501 -0.00000000000E+00 -0.00000000000E+00 -0.84767308358E+02  0.84767308397E+02  0.25500000000E-02 0. -1.
    5000001    1    1    2    0    0  0.17722254268E+03 -0.41736139512E+02  0.35959176265E+03  0.43552378895E+03  0.16500000000E+03 0.  0.
   -5000001    1    1    2    0    0 -0.17722254268E+03  0.41736139512E+02  0.27570438906E+03  0.36930697952E+03  0.16500000000E+03 0.  0.
<mgrwt>
<rscale>  0 0.49411675E+03</rscale>
<asrwt>0</asrwt>
<pdfrwt beam="1">  1        2 0.10286621E+00 0.49411675E+03</pdfrwt>
<pdfrwt beam="2">  1       -2 0.12109616E-01 0.49411675E+03</pdfrwt>
<totfact> 0.21722960E+03</totfact>
</mgrwt>
</event>
<event>
 4    1  0.1049403E-004  0.4608766E+03  0.7818608E-02  0.1024527E+00
          2   -1    0    0  501    0  0.00000000000E+00  0.00000000000E+00  0.19216602550E+04  0.19216602550E+04  0.25500000000E-02 0.  1.
         -2   -1    0    0    0  501 -0.00000000000E+00 -0.00000000000E+00 -0.27633298588E+02  0.27633298705E+02  0.25500000000E-02 0. -1.
    5000001    1    1    2    0    0 -0.14518963770E+03 -0.58212002034E+02  0.11057277797E+04  0.11288611920E+04  0.16500000000E+03 0.  0.
   -5000001    1    1    2    0    0  0.14518963770E+03  0.58212002034E+02  0.78829917669E+03  0.82043236166E+03  0.16500000000E+03 0.  0.
<mgrwt>
<rscale>  0 0.46087661E+03</rscale>
<asrwt>0</asrwt>
<pdfrwt beam="1">  1        2 0.27452293E+00 0.46087661E+03</pdfrwt>
<pdfrwt beam="2">  1       -2 0.39476136E-02 0.46087661E+03</pdfrwt>
<totfact> 0.26896155E+03</totfact>
</mgrwt>
</event>
<event>
 4    1  0.1049403E-004  0.1344391E+04  0.7818608E-02  0.8995085E-01
         -2   -1    0    0    0  501 -0.00000000000E+00  0.00000000000E+00  0.17301188179E+03  0.17301188181E+03  0.25500000000E-02 0. -1.
          2   -1    0    0  501    0  0.00000000000E+00 -0.00000000000E+00 -0.26116507691E+04  0.26116507691E+04  0.25500000000E-02 0.  1.
    5000001    1    1    2    0    0  0.47852904406E+03 -0.43478657285E+03 -0.13874948188E+04  0.15396091329E+04  0.16500000000E+03 0.  0.
   -5000001    1    1    2    0    0 -0.47852904406E+03  0.43478657285E+03 -0.10511440685E+04  0.12450535180E+04  0.16500000000E+03 0.  0.
<mgrwt>
<rscale>  0 0.13443907E+04</rscale>
<asrwt>0</asrwt>
<pdfrwt beam="1">  1        2 0.37309294E+00 0.13443907E+04</pdfrwt>
<pdfrwt beam="2">  1       -2 0.24715985E-01 0.13443907E+04</pdfrwt>
<totfact> 0.55277786E+01</totfact>
</mgrwt>
</event>
<event>
 4    1  0.1049403E-004  0.5067516E+03  0.7818608E-02  0.1012032E+00
         -2   -1    0    0    0  501 -0.00000000000E+00  0.00000000000E+00  0.56777759288E+02  0.56777759345E+02  0.25500000000E-02 0. -1.
          2   -1    0    0  501    0  0.00000000000E+00 -0.00000000000E+00 -0.11307119666E+04  0.11307119666E+04  0.25500000000E-02 0.  1.
    5000001    1    1    2    0    0  0.16203780042E+03  0.99320472872E+02 -0.46850769381E+03  0.53183198875E+03  0.16500000000E+03 0.  0.
   -5000001    1    1    2    0    0 -0.16203780042E+03 -0.99320472872E+02 -0.60542651350E+03  0.65565773720E+03  0.16500000000E+03 0.  0.
<mgrwt>
<rscale>  0 0.50675158E+03</rscale>
<asrwt>0</asrwt>
<pdfrwt beam="1">  1        2 0.16153027E+00 0.50675158E+03</pdfrwt>
<pdfrwt beam="2">  1       -2 0.81111091E-02 0.50675158E+03</pdfrwt>
<totfact> 0.22666020E+03</totfact>
</mgrwt>
</event>
<event>
 4    1  0.1049403E-004  0.5740435E+03  0.7818608E-02  0.9960771E-01
         -2   -1    0    0    0  501 -0.00000000000E+00  0.00000000000E+00  0.45357027664E+02  0.45357027736E+02  0.25500000000E-02 0. -1.
          2   -1    0    0  501    0  0.00000000000E+00 -0.00000000000E+00 -0.18162892375E+04  0.18162892375E+04  0.25500000000E-02 0.  1.
    5000001    1    1    2    0    0  0.18643019836E+03  0.45463729354E+02 -0.44635660720E+03  0.51311050500E+03  0.16500000000E+03 0.  0.
   -5000001    1    1    2    0    0 -0.18643019836E+03 -0.45463729354E+02 -0.13245756027E+04  0.13485357603E+04  0.16500000000E+03 0.  0.
<mgrwt>
<rscale>  0 0.57404349E+03</rscale>
<asrwt>0</asrwt>
<pdfrwt beam="1">  1        2 0.25946985E+00 0.57404349E+03</pdfrwt>
<pdfrwt beam="2">  1       -2 0.64795765E-02 0.57404349E+03</pdfrwt>
<totfact> 0.14046319E+03</totfact>
</mgrwt>
</event>
<event>
 4    1  0.1049403E-004  0.5004116E+03  0.7818608E-02  0.1013672E+00
         -2   -1    0    0    0  501 -0.00000000000E+00  0.00000000000E+00  0.16153387902E+02  0.16153388103E+02  0.25500000000E-02 0. -1.
          2   -1    0    0  501    0  0.00000000000E+00 -0.00000000000E+00 -0.38755301299E+04  0.38755301299E+04  0.25500000000E-02 0.  1.
    5000001    1    1    2    0    0  0.10930987136E+03 -0.83649609783E+02 -0.93277861437E+03  0.95720783982E+03  0.16500000000E+03 0.  0.
   -5000001    1    1    2    0    0 -0.10930987136E+03  0.83649609783E+02 -0.29265981276E+04  0.29344756782E+04  0.16500000000E+03 0.  0.
<mgrwt>
<rscale>  0 0.50041160E+03</rscale>
<asrwt>0</asrwt>
<pdfrwt beam="1">  1        2 0.55364657E+00 0.50041160E+03</pdfrwt>
<pdfrwt beam="2">  1       -2 0.23076293E-02 0.50041160E+03</pdfrwt>
<totfact> 0.52082868E+02</totfact>
</mgrwt>
</event>
<event>
 4    1  0.1049403E-004  0.3863536E+03  0.7818608E-02  0.1048610E+00
          2   -1    0    0  501    0  0.00000000000E+00  0.00000000000E+00  0.14073213323E+03  0.14073213325E+03  0.25500000000E-02 0.  1.
         -2   -1    0    0    0  501 -0.00000000000E+00 -0.00000000000E+00 -0.26516533968E+03  0.26516533970E+03  0.25500000000E-02 0. -1.
    5000001    1    1    2    0    0  0.91526322322E+02  0.53859706467E+01 -0.19075936316E+02  0.18972339788E+03  0.16500000000E+03 0.  0.
   -5000001    1    1    2    0    0 -0.91526322322E+02 -0.53859706467E+01 -0.10535727014E+03  0.21617407506E+03  0.16500000000E+03 0.  0.
<mgrwt>
<rscale>  0 0.38635364E+03</rscale>
<asrwt>0</asrwt>
<pdfrwt beam="1">  1        2 0.20104590E-01 0.38635364E+03</pdfrwt>
<pdfrwt beam="2">  1       -2 0.37880763E-01 0.38635364E+03</pdfrwt>
<totfact> 0.18385932E+03</totfact>
</mgrwt>
</event>
<event>
 4    1  0.1049403E-004  0.4185139E+03  0.7818608E-02  0.1037551E+00
          2   -1    0    0  501    0  0.00000000000E+00  0.00000000000E+00  0.22886456883E+04  0.22886456883E+04  0.25500000000E-02 0.  1.
         -2   -1    0    0    0  501 -0.00000000000E+00 -0.00000000000E+00 -0.19132916773E+02  0.19132916943E+02  0.25500000000E-02 0. -1.
    5000001    1    1    2    0    0 -0.81333381876E+02  0.34956327722E+02  0.16498686932E+04  0.16604604086E+04  0.16500000000E+03 0.  0.
   -5000001    1    1    2    0    0  0.81333381876E+02 -0.34956327722E+02  0.61964407839E+03  0.64731819667E+03  0.16500000000E+03 0.  0.
<mgrwt>
<rscale>  0 0.41851388E+03</rscale>
<asrwt>0</asrwt>
<pdfrwt beam="1">  1        2 0.32694943E+00 0.41851388E+03</pdfrwt>
<pdfrwt beam="2">  1       -2 0.27332734E-02 0.41851388E+03</pdfrwt>
<totfact> 0.30859705E+03</totfact>
</mgrwt>
</event>
<event>
 4    1  0.1049403E-004  0.3952740E+03  0.7818608E-02  0.1045429E+00
         -2   -1    0    0    0  501 -0.00000000000E+00  0.00000000000E+00  0.99476535284E+02  0.99476535317E+02  0.25500000000E-02 0. -1.
          2   -1    0    0  501    0  0.00000000000E+00 -0.00000000000E+00 -0.39265926896E+03  0.39265926897E+03  0.25500000000E-02 0.  1.
    5000001    1    1    2    0    0  0.59221908555E+02  0.72914475584E+02 -0.78265144688E+02  0.20536355099E+03  0.16500000000E+03 0.  0.
   -5000001    1    1    2    0    0 -0.59221908555E+02 -0.72914475584E+02 -0.21491758899E+03  0.28677225329E+03  0.16500000000E+03 0.  0.
<mgrwt>
<rscale>  0 0.39527400E+03</rscale>
<asrwt>0</asrwt>
<pdfrwt beam="1">  1        2 0.56094181E-01 0.39527400E+03</pdfrwt>
<pdfrwt beam="2">  1       -2 0.14210934E-01 0.39527400E+03</pdfrwt>
<totfact> 0.33319842E+03</totfact>
</mgrwt>
</event>
<event>
 4    1  0.1049403E-004  0.4667249E+03  0.7818608E-02  0.1022849E+00
          2   -1    0    0  501    0  0.00000000000E+00  0.00000000000E+00  0.18956363473E+04  0.18956363473E+04  0.25500000000E-02 0.  1.
         -2   -1    0    0    0  501 -0.00000000000E+00 -0.00000000000E+00 -0.28728101965E+02  0.28728102078E+02  0.25500000000E-02 0. -1.
    5000001    1    1    2    0    0  0.76225922138E+02 -0.28346974951E+02  0.15255078489E+04  0.15365588629E+04  0.16500000000E+03 0.  0.
   -5000001    1    1    2    0    0 -0.76225922138E+02  0.28346974951E+02  0.34140039643E+03  0.38780558644E+03  0.16500000000E+03 0.  0.
<mgrwt>
<rscale>  0 0.46672491E+03</rscale>
<asrwt>0</asrwt>
<pdfrwt beam="1">  1        2 0.27080520E+00 0.46672491E+03</pdfrwt>
<pdfrwt beam="2">  1       -2 0.41040145E-02 0.46672491E+03</pdfrwt>
<totfact> 0.26110138E+03</totfact>
</mgrwt>
</event>
<event>
 4    1  0.1049403E-004  0.7108533E+03  0.7818608E-02  0.9698850E-01
          2   -1    0    0  501    0  0.00000000000E+00  0.00000000000E+00  0.21708721196E+04  0.21708721196E+04  0.25500000000E-02 0. -1.
         -2   -1    0    0    0  501 -0.00000000000E+00 -0.00000000000E+00 -0.58192323501E+02  0.58192323557E+02  0.25500000000E-02 0.  1.
    5000001    1    1    2    0    0 -0.29462407141E+03 -0.60961961167E+02  0.13468572291E+04  0.13898809660E+04  0.16500000000E+03 0.  0.
   -5000001    1    1    2    0    0  0.29462407141E+03  0.60961961167E+02  0.76582256706E+03  0.83918347719E+03  0.16500000000E+03 0.  0.
<mgrwt>
<rscale>  0 0.71085327E+03</rscale>
<asrwt>0</asrwt>
<pdfrwt beam="1">  1        2 0.31012455E+00 0.71085327E+03</pdfrwt>
<pdfrwt beam="2">  1       -2 0.83131901E-02 0.71085327E+03</pdfrwt>
<totfact> 0.62193992E+02</totfact>
</mgrwt>
</event>
<event>
 4    1  0.1049403E-004  0.4438862E+03  0.7818608E-02  0.1029561E+00
          2   -1    0    0  501    0  0.00000000000E+00  0.00000000000E+00  0.97736778155E+03  0.97736778155E+03  0.25500000000E-02 0.  1.
         -2   -1    0    0    0  501 -0.00000000000E+00 -0.00000000000E+00 -0.50399399122E+02  0.50399399187E+02  0.25500000000E-02 0. -1.
    5000001    1    1    2    0    0 -0.14344572999E+03  0.16958507831E+02  0.54266493091E+03  0.58529863803E+03  0.16500000000E+03 0.  0.
   -5000001    1    1    2    0    0  0.14344572999E+03 -0.16958507831E+02  0.38430345151E+03  0.44246854270E+03  0.16500000000E+03 0.  0.
<mgrwt>
<rscale>  0 0.44388624E+03</rscale>
<asrwt>0</asrwt>
<pdfrwt beam="1">  1        2 0.13962395E+00 0.44388624E+03</pdfrwt>
<pdfrwt beam="2">  1       -2 0.71999151E-02 0.44388624E+03</pdfrwt>
<totfact> 0.33681574E+03</totfact>
</mgrwt>
</event>
<event>
 4    1  0.1049403E-004  0.5964856E+03  0.7818608E-02  0.9912724E-01
         -2   -1    0    0    0  501 -0.00000000000E+00  0.00000000000E+00  0.45875274937E+02  0.45875275008E+02  0.25500000000E-02 0.  1.
          2   -1    0    0  501    0  0.00000000000E+00 -0.00000000000E+00 -0.19389263899E+04  0.19389263899E+04  0.25500000000E-02 0. -1.
    5000001    1    1    2    0    0  0.10477508873E+03  0.19194467766E+03 -0.55417475288E+03  0.61818705521E+03  0.16500000000E+03 0.  0.
   -5000001    1    1    2    0    0 -0.10477508873E+03 -0.19194467766E+03 -0.13388763621E+04  0.13666146097E+04  0.16500000000E+03 0.  0.
<mgrwt>
<rscale>  0 0.59648565E+03</rscale>
<asrwt>0</asrwt>
<pdfrwt beam="1">  1        2 0.27698943E+00 0.59648565E+03</pdfrwt>
<pdfrwt beam="2">  1       -2 0.65536119E-02 0.59648565E+03</pdfrwt>
<totfact> 0.11957736E+03</totfact>
</mgrwt>
</event>
<event>
 4    1  0.1049403E-004  0.4167241E+03  0.7818608E-02  0.1038138E+00
          2   -1    0    0  501    0  0.00000000000E+00  0.00000000000E+00  0.22776296272E+03  0.22776296274E+03  0.25500000000E-02 0.  1.
         -2   -1    0    0    0  501 -0.00000000000E+00 -0.00000000000E+00 -0.19061367357E+03  0.19061367358E+03  0.25500000000E-02 0. -1.
    5000001    1    1    2    0    0 -0.63646277313E+02  0.98424903760E+02 -0.31133566410E+02  0.20477453273E+03  0.16500000000E+03 0.  0.
   -5000001    1    1    2    0    0  0.63646277313E+02 -0.98424903760E+02  0.68282855564E+02  0.21360210359E+03  0.16500000000E+03 0.  0.
<mgrwt>
<rscale>  0 0.41672406E+03</rscale>
<asrwt>0</asrwt>
<pdfrwt beam="1">  1        2 0.32537566E-01 0.41672406E+03</pdfrwt>
<pdfrwt beam="2">  1       -2 0.27230525E-01 0.41672406E+03</pdfrwt>
<totfact> 0.19706506E+03</totfact>
</mgrwt>
</event>
<event>
 4    1  0.1049403E-004  0.6196545E+03  0.7818608E-02  0.9865448E-01
          2   -1    0    0  501    0  0.00000000000E+00  0.00000000000E+00  0.19239967020E+04  0.19239967020E+04  0.25500000000E-02 0.  1.
         -2   -1    0    0    0  501 -0.00000000000E+00 -0.00000000000E+00 -0.49892457829E+02  0.49892457894E+02  0.25500000000E-02 0. -1.
    5000001    1    1    2    0    0  0.21574482781E+02  0.18727420131E+03  0.35636283738E+03  0.43561055617E+03  0.16500000000E+03 0.  0.
   -5000001    1    1    2    0    0 -0.21574482781E+02 -0.18727420131E+03  0.15177414068E+04  0.15382786038E+04  0.16500000000E+03 0.  0.
<mgrwt>
<rscale>  0 0.61965450E+03</rscale>
<asrwt>0</asrwt>
<pdfrwt beam="1">  1        2 0.27485668E+00 0.61965450E+03</pdfrwt>
<pdfrwt beam="2">  1       -2 0.71274938E-02 0.61965450E+03</pdfrwt>
<totfact> 0.10643579E+03</totfact>
</mgrwt>
</event>
<event>
 4    1  0.1049403E-004  0.4843331E+03  0.7818608E-02  0.1017951E+00
          2   -1    0    0  501    0  0.00000000000E+00  0.00000000000E+00  0.37779435236E+03  0.37779435237E+03  0.25500000000E-02 0.  1.
         -2   -1    0    0    0  501 -0.00000000000E+00 -0.00000000000E+00 -0.15522900922E+03  0.15522900924E+03  0.25500000000E-02 0. -1.
    5000001    1    1    2    0    0 -0.99471459713E+02  0.14664380818E+03  0.11628557711E+03  0.26860065752E+03  0.16500000000E+03 0.  0.
   -5000001    1    1    2    0    0  0.99471459713E+02 -0.14664380818E+03  0.10627976603E+03  0.26442270410E+03  0.16500000000E+03 0.  0.
<mgrwt>
<rscale>  0 0.48433312E+03</rscale>
<asrwt>0</asrwt>
<pdfrwt beam="1">  1        2 0.53970621E-01 0.48433312E+03</pdfrwt>
<pdfrwt beam="2">  1       -2 0.22175573E-01 0.48433312E+03</pdfrwt>
<totfact> 0.16318719E+03</totfact>
</mgrwt>
</event>
<event>
 4    1  0.1049403E-004  0.5944153E+03  0.7818608E-02  0.9917061E-01
          2   -1    0    0  501    0  0.00000000000E+00  0.00000000000E+00  0.16546813224E+04  0.16546813224E+04  0.25500000000E-02 0.  1.
         -2   -1    0    0    0  501 -0.00000000000E+00 -0.00000000000E+00 -0.53383323416E+02  0.53383323477E+02  0.25500000000E-02 0. -1.
    5000001    1    1    2    0    0  0.15779973529E+03  0.18489862620E+03  0.92976986902E+03  0.97508218513E+03  0.16500000000E+03 0.  0.
   -5000001    1    1    2    0    0 -0.15779973529E+03 -0.18489862620E+03  0.67152812996E+03  0.73298246074E+03  0.16500000000E+03 0.  0.
<mgrwt>
<rscale>  0 0.59441530E+03</rscale>
<asrwt>0</asrwt>
<pdfrwt beam="1">  1        2 0.23638303E+00 0.59441530E+03</pdfrwt>
<pdfrwt beam="2">  1       -2 0.76261897E-02 0.59441530E+03</pdfrwt>
<totfact> 0.13101051E+03</totfact>
</mgrwt>
</event>
<event>
 4    1  0.1049403E-004  0.6764789E+03  0.7818608E-02  0.9758324E-01
         -2   -1    0    0    0  501 -0.00000000000E+00  0.00000000000E+00  0.92786880442E+02  0.92786880477E+02  0.25500000000E-02 0. -1.
          2   -1    0    0  501    0  0.00000000000E+00 -0.00000000000E+00 -0.12329969457E+04  0.12329969457E+04  0.25500000000E-02 0.  1.
    5000001    1    1    2    0    0 -0.26559980458E+03 -0.10634678636E+03 -0.71315981391E+03  0.78592290674E+03  0.16500000000E+03 0.  0.
   -5000001    1    1    2    0    0  0.26559980458E+03  0.10634678636E+03 -0.42705025133E+03  0.53986091943E+03  0.16500000000E+03 0.  0.
<mgrwt>
<rscale>  0 0.67647894E+03</rscale>
<asrwt>0</asrwt>
<pdfrwt beam="1">  1        2 0.17614241E+00 0.67647894E+03</pdfrwt>
<pdfrwt beam="2">  1       -2 0.13255269E-01 0.67647894E+03</pdfrwt>
<totfact> 0.88961331E+02</totfact>
</mgrwt>
</event>
<event>
 4    1  0.1049403E-004  0.1051110E+04  0.7818608E-02  0.9254199E-01
         -2   -1    0    0    0  501 -0.00000000000E+00  0.00000000000E+00  0.59229248931E+03  0.59229248931E+03  0.25500000000E-02 0. -1.
          2   -1    0    0  501    0  0.00000000000E+00 -0.00000000000E+00 -0.46633741498E+03  0.46633741499E+03  0.25500000000E-02 0.  1.
    5000001    1    1    2    0    0 -0.10720969680E+03 -0.47397465381E+03 -0.51134651232E+02  0.51573796069E+03  0.16500000000E+03 0.  0.
   -5000001    1    1    2    0    0  0.10720969680E+03  0.47397465381E+03  0.17708972556E+03  0.54289194361E+03  0.16500000000E+03 0.  0.
<mgrwt>
<rscale>  0 0.10511102E+04</rscale>
<asrwt>0</asrwt>
<pdfrwt beam="1">  1        2 0.66619631E-01 0.10511102E+04</pdfrwt>
<pdfrwt beam="2">  1       -2 0.84613213E-01 0.10511102E+04</pdfrwt>
<totfact> 0.88240152E+01</totfact>
</mgrwt>
</event>
<event>
 4    1  0.1049403E-004  0.6782427E+03  0.7818608E-02  0.9755181E-01
         -2   -1    0    0    0  501 -0.00000000000E+00  0.00000000000E+00  0.29938717266E+02  0.29938717374E+02  0.25500000000E-02 0. -1.
          2   -1    0    0  501    0  0.00000000000E+00 -0.00000000000E+00 -0.38412903181E+04  0.38412903181E+04  0.25500000000E-02 0.  1.
    5000001    1    1    2    0    0 -0.88750977228E+02 -0.22858827650E+03 -0.95659501741E+03  0.10012134455E+04  0.16500000000E+03 0.  0.
   -5000001    1    1    2    0    0  0.88750977228E+02  0.22858827650E+03 -0.28547565834E+04  0.28700155900E+04  0.16500000000E+03 0.  0.
<mgrwt>
<rscale>  0 0.67824274E+03</rscale>
<asrwt>0</asrwt>
<pdfrwt beam="1">  1        2 0.54875545E+00 0.67824274E+03</pdfrwt>
<pdfrwt beam="2">  1       -2 0.42769620E-02 0.67824274E+03</pdfrwt>
<totfact> 0.20904446E+02</totfact>
</mgrwt>
</event>
<event>
 4    1  0.1049403E-004  0.7532026E+03  0.7818608E-02  0.9630339E-01
          2   -1    0    0  501    0  0.00000000000E+00  0.00000000000E+00  0.27663896132E+04  0.27663896132E+04  0.25500000000E-02 0.  1.
         -2   -1    0    0    0  501 -0.00000000000E+00 -0.00000000000E+00 -0.51268454650E+02  0.51268454713E+02  0.25500000000E-02 0. -1.
    5000001    1    1    2    0    0  0.19717309716E+03  0.21930597386E+03  0.73572405995E+03  0.80962166028E+03  0.16500000000E+03 0.  0.
   -5000001    1    1    2    0    0 -0.19717309716E+03 -0.21930597386E+03  0.19793970986E+04  0.20080364076E+04  0.16500000000E+03 0.  0.
<mgrwt>
<rscale>  0 0.75320255E+03</rscale>
<asrwt>0</asrwt>
<pdfrwt beam="1">  1        2 0.39519856E+00 0.75320255E+03</pdfrwt>
<pdfrwt beam="2">  1       -2 0.73240642E-02 0.75320255E+03</pdfrwt>
<totfact> 0.37394641E+02</totfact>
</mgrwt>
</event>
<event>
 4    1  0.1049403E-004  0.7106498E+03  0.7818608E-02  0.9699191E-01
          2   -1    0    0  501    0  0.00000000000E+00  0.00000000000E+00  0.12192231811E+04  0.12192231811E+04  0.25500000000E-02 0.  1.
         -2   -1    0    0    0  501 -0.00000000000E+00 -0.00000000000E+00 -0.10355428513E+03  0.10355428516E+03  0.25500000000E-02 0. -1.
    5000001    1    1    2    0    0 -0.24270546145E+03 -0.19931742694E+03  0.59494086738E+03  0.69268536392E+03  0.16500000000E+03 0.  0.
   -5000001    1    1    2    0    0  0.24270546145E+03  0.19931742694E+03  0.52072802863E+03  0.63009210239E+03  0.16500000000E+03 0.  0.
<mgrwt>
<rscale>  0 0.71064980E+03</rscale>
<asrwt>0</asrwt>
<pdfrwt beam="1">  1        2 0.17417473E+00 0.71064980E+03</pdfrwt>
<pdfrwt beam="2">  1       -2 0.14793470E-01 0.71064980E+03</pdfrwt>
<totfact> 0.75233795E+02</totfact>
</mgrwt>
</event>
<event>
 4    1  0.1049403E-004  0.4141272E+03  0.7818608E-02  0.1038995E+00
          2   -1    0    0  501    0  0.00000000000E+00  0.00000000000E+00  0.26178265762E+03  0.26178265763E+03  0.25500000000E-02 0.  1.
         -2   -1    0    0    0  501 -0.00000000000E+00 -0.00000000000E+00 -0.16378214387E+03  0.16378214389E+03  0.25500000000E-02 0. -1.
    5000001    1    1    2    0    0 -0.71971565815E+02  0.51668061034E+02  0.13976191088E+03  0.23368330396E+03  0.16500000000E+03 0.  0.
   -5000001    1    1    2    0    0  0.71971565815E+02 -0.51668061034E+02 -0.41761397134E+02  0.19188149756E+03  0.16500000000E+03 0.  0.
<mgrwt>
<rscale>  0 0.41412715E+03</rscale>
<asrwt>0</asrwt>
<pdfrwt beam="1">  1        2 0.37397523E-01 0.41412715E+03</pdfrwt>
<pdfrwt beam="2">  1       -2 0.23397449E-01 0.41412715E+03</pdfrwt>
<totfact> 0.22158921E+03</totfact>
</mgrwt>
</event>
<event>
 4    1  0.1049403E-004  0.4518368E+03  0.7818608E-02  0.1027176E+00
         -2   -1    0    0    0  501 -0.00000000000E+00  0.00000000000E+00  0.11119305220E+02  0.11119305513E+02  0.25500000000E-02 0. -1.
          2   -1    0    0  501    0  0.00000000000E+00 -0.00000000000E+00 -0.45901369485E+04  0.45901369485E+04  0.25500000000E-02 0.  1.
    5000001    1    1    2    0    0  0.11064882508E+03 -0.25624675068E+02 -0.12256263043E+04  0.12418875248E+04  0.16500000000E+03 0.  0.
   -5000001    1    1    2    0    0 -0.11064882508E+03  0.25624675068E+02 -0.33533913390E+04  0.33593687293E+04  0.16500000000E+03 0.  0.
<mgrwt>
<rscale>  0 0.45183685E+03</rscale>
<asrwt>0</asrwt>
<pdfrwt beam="1">  1        2 0.65573264E+00 0.45183685E+03</pdfrwt>
<pdfrwt beam="2">  1       -2 0.15884751E-02 0.45183685E+03</pdfrwt>
<totfact> 0.28484599E+02</totfact>
</mgrwt>
</event>
<event>
 4    1  0.1049403E-004  0.3620861E+03  0.7818608E-02  0.1057761E+00
          2   -1    0    0  501    0  0.00000000000E+00  0.00000000000E+00  0.94850257693E+03  0.94850257694E+03  0.25500000000E-02 0.  1.
         -2   -1    0    0    0  501 -0.00000000000E+00 -0.00000000000E+00 -0.34556136244E+02  0.34556136338E+02  0.25500000000E-02 0. -1.
    5000001    1    1    2    0    0 -0.48163937559E+02  0.56849062255E+02  0.45713530325E+03  0.49168004458E+03  0.16500000000E+03 0.  0.
   -5000001    1    1    2    0    0  0.48163937559E+02 -0.56849062255E+02  0.45681113745E+03  0.49137866870E+03  0.16500000000E+03 0.  0.
<mgrwt>
<rscale>  0 0.36208609E+03</rscale>
<asrwt>0</asrwt>
<pdfrwt beam="1">  1        2 0.13550035E+00 0.36208609E+03</pdfrwt>
<pdfrwt beam="2">  1       -2 0.49365915E-02 0.36208609E+03</pdfrwt>
<totfact> 0.62801167E+03</totfact>
</mgrwt>
</event>
<event>
 4    1  0.1049403E-004  0.4785400E+03  0.7818608E-02  0.1019537E+00
          2   -1    0    0  501    0  0.00000000000E+00  0.00000000000E+00  0.12722353811E+04  0.12722353811E+04  0.25500000000E-02 0.  1.
         -2   -1    0    0    0  501 -0.00000000000E+00 -0.00000000000E+00 -0.44999631996E+02  0.44999632068E+02  0.25500000000E-02 0. -1.
    5000001    1    1    2    0    0 -0.16629145528E+03  0.36420626204E+02  0.70263473214E+03  0.74155234267E+03  0.16500000000E+03 0.  0.
   -5000001    1    1    2    0    0  0.16629145528E+03 -0.36420626204E+02  0.52460101697E+03  0.57568267051E+03  0.16500000000E+03 0.  0.
<mgrwt>
<rscale>  0 0.47853996E+03</rscale>
<asrwt>0</asrwt>
<pdfrwt beam="1">  1        2 0.18174790E+00 0.47853996E+03</pdfrwt>
<pdfrwt beam="2">  1       -2 0.64285193E-02 0.47853996E+03</pdfrwt>
<totfact> 0.27281820E+03</totfact>
</mgrwt>
</event>
<event>
 4    1  0.1049403E-004  0.4222797E+03  0.7818608E-02  0.1036327E+00
          2   -1    0    0  501    0  0.00000000000E+00  0.00000000000E+00  0.29061070309E+03  0.29061070310E+03  0.25500000000E-02 0.  1.
         -2   -1    0    0    0  501 -0.00000000000E+00 -0.00000000000E+00 -0.15340125543E+03  0.15340125545E+03  0.25500000000E-02 0. -1.
    5000001    1    1    2    0    0  0.30794638945E+02  0.10933507958E+03 -0.15569829401E+01  0.20032447082E+03  0.16500000000E+03 0.  0.
   -5000001    1    1    2    0    0 -0.30794638945E+02 -0.10933507958E+03  0.13876643060E+03  0.24368748773E+03  0.16500000000E+03 0.  0.
<mgrwt>
<rscale>  0 0.42227975E+03</rscale>
<asrwt>0</asrwt>
<pdfrwt beam="1">  1        2 0.41515815E-01 0.42227975E+03</pdfrwt>
<pdfrwt beam="2">  1       -2 0.21914465E-01 0.42227975E+03</pdfrwt>
<totfact> 0.22179331E+03</totfact>
</mgrwt>
</event>
<event>
 4    1  0.1049403E-004  0.4568177E+03  0.7818608E-02  0.1025708E+00
          2   -1    0    0  501    0  0.00000000000E+00  0.00000000000E+00  0.61751077153E+03  0.61751077153E+03  0.25500000000E-02 0.  1.
         -2   -1    0    0    0  501 -0.00000000000E+00 -0.00000000000E+00 -0.84485343958E+02  0.84485343997E+02  0.25500000000E-02 0. -1.
    5000001    1    1    2    0    0  0.63806043817E+02 -0.12154206096E+03  0.14647292315E+03  0.25985188286E+03  0.16500000000E+03 0.  0.
   -5000001    1    1    2    0    0 -0.63806043817E+02  0.12154206096E+03  0.38655250442E+03  0.44214423267E+03  0.16500000000E+03 0.  0.
<mgrwt>
<rscale>  0 0.45681773E+03</rscale>
<asrwt>0</asrwt>
<pdfrwt beam="1">  1        2 0.88215824E-01 0.45681773E+03</pdfrwt>
<pdfrwt beam="2">  1       -2 0.12069335E-01 0.45681773E+03</pdfrwt>
<totfact> 0.26241659E+03</totfact>
</mgrwt>
</event>
<event>
 4    1  0.1049403E-004  0.6765361E+03  0.7818608E-02  0.9758222E-01
         -2   -1    0    0    0  501 -0.00000000000E+00  0.00000000000E+00  0.78440004435E+02  0.78440004477E+02  0.25500000000E-02 0. -1.
          2   -1    0    0  501    0  0.00000000000E+00 -0.00000000000E+00 -0.14587618169E+04  0.14587618169E+04  0.25500000000E-02 0.  1.
    5000001    1    1    2    0    0 -0.12530861777E+03  0.13720458455E+03 -0.12116361052E+04  0.12368566607E+04  0.16500000000E+03 0.  0.
   -5000001    1    1    2    0    0  0.12530861777E+03 -0.13720458455E+03 -0.16868570728E+03  0.30034516069E+03  0.16500000000E+03 0.  0.
<mgrwt>
<rscale>  0 0.67653613E+03</rscale>
<asrwt>0</asrwt>
<pdfrwt beam="1">  1        2 0.20839453E+00 0.67653613E+03</pdfrwt>
<pdfrwt beam="2">  1       -2 0.11205716E-01 0.67653613E+03</pdfrwt>
<totfact> 0.88658442E+02</totfact>
</mgrwt>
</event>
<event>
 4    1  0.1049403E-004  0.7020762E+03  0.7818608E-02  0.9713688E-01
         -2   -1    0    0    0  501 -0.00000000000E+00  0.00000000000E+00  0.62236166187E+02  0.62236166240E+02  0.25500000000E-02 0. -1.
          2   -1    0    0  501    0  0.00000000000E+00 -0.00000000000E+00 -0.19800023922E+04  0.19800023922E+04  0.25500000000E-02 0.  1.
    5000001    1    1    2    0    0  0.49771586640E+02 -0.29326281342E+03 -0.70659172981E+03  0.78420479545E+03  0.16500000000E+03 0.  0.
   -5000001    1    1    2    0    0 -0.49771586640E+02  0.29326281342E+03 -0.12111744962E+04  0.12580337630E+04  0.16500000000E+03 0.  0.
<mgrwt>
<rscale>  0 0.70207623E+03</rscale>
<asrwt>0</asrwt>
<pdfrwt beam="1">  1        2 0.28285745E+00 0.70207623E+03</pdfrwt>
<pdfrwt beam="2">  1       -2 0.88908821E-02 0.70207623E+03</pdfrwt>
<totfact> 0.69746953E+02</totfact>
</mgrwt>
</event>
<event>
 4    1  0.1049403E-004  0.5541843E+03  0.7818608E-02  0.1000530E+00
          2   -1    0    0  501    0  0.00000000000E+00  0.00000000000E+00  0.17920576557E+04  0.17920576557E+04  0.25500000000E-02 0.  1.
         -2   -1    0    0    0  501 -0.00000000000E+00 -0.00000000000E+00 -0.42844638836E+02  0.42844638912E+02  0.25500000000E-02 0. -1.
    5000001    1    1    2    0    0 -0.15951476436E+03  0.15207708180E+03  0.77081512674E+03  0.81850678584E+03  0.16500000000E+03 0.  0.
   -5000001    1    1    2    0    0  0.15951476436E+03 -0.15207708180E+03  0.97839789014E+03  0.10163955088E+04  0.16500000000E+03 0.  0.
<mgrwt>
<rscale>  0 0.55418431E+03</rscale>
<asrwt>0</asrwt>
<pdfrwt beam="1">  1        2 0.25600824E+00 0.55418431E+03</pdfrwt>
<pdfrwt beam="2">  1       -2 0.61206625E-02 0.55418431E+03</pdfrwt>
<totfact> 0.15810843E+03</totfact>
</mgrwt>
</event>
<event>
 4    1  0.1049403E-004  0.4030597E+03  0.7818608E-02  0.1042725E+00
          2   -1    0    0  501    0  0.00000000000E+00  0.00000000000E+00  0.67524977839E+02  0.67524977887E+02  0.25500000000E-02 0.  1.
         -2   -1    0    0    0  501 -0.00000000000E+00 -0.00000000000E+00 -0.60147034936E+03  0.60147034936E+03  0.25500000000E-02 0. -1.
    5000001    1    1    2    0    0  0.75544427675E+02 -0.48934315397E+02 -0.14627777083E+03  0.23816740754E+03  0.16500000000E+03 0.  0.
   -5000001    1    1    2    0    0 -0.75544427675E+02  0.48934315397E+02 -0.38766760069E+03  0.43082791971E+03  0.16500000000E+03 0.  0.
<mgrwt>
<rscale>  0 0.40305966E+03</rscale>
<asrwt>0</asrwt>
<pdfrwt beam="1">  1        2 0.96464257E-02 0.40305966E+03</pdfrwt>
<pdfrwt beam="2">  1       -2 0.85924333E-01 0.40305966E+03</pdfrwt>
<totfact> 0.82015430E+02</totfact>
</mgrwt>
</event>
<event>
 4    1  0.1049403E-004  0.3685527E+03  0.7818608E-02  0.1055248E+00
          2   -1    0    0  501    0  0.00000000000E+00  0.00000000000E+00  0.15184216271E+04  0.15184216271E+04  0.25500000000E-02 0.  1.
         -2   -1    0    0    0  501 -0.00000000000E+00 -0.00000000000E+00 -0.22363865744E+02  0.22363865890E+02  0.25500000000E-02 0. -1.
    5000001    1    1    2    0    0 -0.50545053315E+02  0.63336615865E+02  0.80196529985E+03  0.82276343592E+03  0.16500000000E+03 0.  0.
   -5000001    1    1    2    0    0  0.50545053315E+02 -0.63336615865E+02  0.69409246153E+03  0.71802205710E+03  0.16500000000E+03 0.  0.
<mgrwt>
<rscale>  0 0.36855272E+03</rscale>
<asrwt>0</asrwt>
<pdfrwt beam="1">  1        2 0.21691734E+00 0.36855272E+03</pdfrwt>
<pdfrwt beam="2">  1       -2 0.31948385E-02 0.36855272E+03</pdfrwt>
<totfact> 0.59083523E+03</totfact>
</mgrwt>
</event>
<event>
 4    1  0.1049403E-004  0.4675383E+03  0.7818608E-02  0.1022617E+00
         -2   -1    0    0    0  501 -0.00000000000E+00  0.00000000000E+00  0.35529409398E+04  0.35529409398E+04  0.25500000000E-02 0. -1.
          2   -1    0    0  501    0  0.00000000000E+00 -0.00000000000E+00 -0.15381066809E+02  0.15381067021E+02  0.25500000000E-02 0.  1.
    5000001    1    1    2    0    0  0.64459082809E+02  0.14591301863E+03  0.21081694920E+04  0.21206247168E+04  0.16500000000E+03 0.  0.
   -5000001    1    1    2    0    0 -0.64459082809E+02 -0.14591301863E+03  0.14293903809E+04  0.14476972900E+04  0.16500000000E+03 0.  0.
<mgrwt>
<rscale>  0 0.46753833E+03</rscale>
<asrwt>0</asrwt>
<pdfrwt beam="1">  1        2 0.21972955E-02 0.46753833E+03</pdfrwt>
<pdfrwt beam="2">  1       -2 0.50756294E+00 0.46753833E+03</pdfrwt>
<totfact> 0.83941282E+00</totfact>
</mgrwt>
</event>
<event>
 4    1  0.1049403E-004  0.5228013E+03  0.7818608E-02  0.1007993E+00
          2   -1    0    0  501    0  0.00000000000E+00  0.00000000000E+00  0.29420693356E+04  0.29420693356E+04  0.25500000000E-02 0.  1.
         -2   -1    0    0    0  501 -0.00000000000E+00 -0.00000000000E+00 -0.23225248374E+02  0.23225248514E+02  0.25500000000E-02 0. -1.
    5000001    1    1    2    0    0  0.18333957102E+03 -0.86414217131E+02  0.14313611323E+04  0.14550259469E+04  0.16500000000E+03 0.  0.
   -5000001    1    1    2    0    0 -0.18333957102E+03  0.86414217131E+02  0.14874829550E+04  0.15102686372E+04  0.16500000000E+03 0.  0.
<mgrwt>
<rscale>  0 0.52280127E+03</rscale>
<asrwt>0</asrwt>
<pdfrwt beam="1">  1        2 0.42029586E+00 0.52280127E+03</pdfrwt>
<pdfrwt beam="2">  1       -2 0.33178908E-02 0.52280127E+03</pdfrwt>
<totfact> 0.10522455E+03</totfact>
</mgrwt>
</event>
<event>
 4    1  0.1049403E-004  0.5571989E+03  0.7818608E-02  0.9998413E-01
          2   -1    0    0  501    0  0.00000000000E+00  0.00000000000E+00  0.16459839601E+04  0.16459839601E+04  0.25500000000E-02 0.  1.
         -2   -1    0    0    0  501 -0.00000000000E+00 -0.00000000000E+00 -0.47155774063E+02  0.47155774132E+02  0.25500000000E-02 0. -1.
    5000001    1    1    2    0    0 -0.28097572400E+02  0.21501961673E+03  0.97580682078E+03  0.10131371381E+04  0.16500000000E+03 0.  0.
   -5000001    1    1    2    0    0  0.28097572400E+02 -0.21501961673E+03  0.62302136523E+03  0.68000259609E+03  0.16500000000E+03 0.  0.
<mgrwt>
<rscale>  0 0.55719888E+03</rscale>
<asrwt>0</asrwt>
<pdfrwt beam="1">  1        2 0.23514067E+00 0.55719888E+03</pdfrwt>
<pdfrwt beam="2">  1       -2 0.67365363E-02 0.55719888E+03</pdfrwt>
<totfact> 0.16126737E+03</totfact>
</mgrwt>
</event>
<event>
 4    1  0.1049403E-004  0.4082486E+03  0.7818608E-02  0.1040960E+00
         -2   -1    0    0    0  501 -0.00000000000E+00  0.00000000000E+00  0.25503749289E+02  0.25503749417E+02  0.25500000000E-02 0. -1.
          2   -1    0    0  501    0  0.00000000000E+00 -0.00000000000E+00 -0.16337490155E+04  0.16337490155E+04  0.25500000000E-02 0.  1.
    5000001    1    1    2    0    0  0.11807186914E+01  0.11411388164E+03 -0.95718910916E+03  0.97798740420E+03  0.16500000000E+03 0.  0.
   -5000001    1    1    2    0    0 -0.11807186914E+01 -0.11411388164E+03 -0.65105615705E+03  0.68126536071E+03  0.16500000000E+03 0.  0.
<mgrwt>
<rscale>  0 0.40824858E+03</rscale>
<asrwt>0</asrwt>
<pdfrwt beam="1">  1        2 0.23339265E+00 0.40824858E+03</pdfrwt>
<pdfrwt beam="2">  1       -2 0.36433938E-02 0.40824858E+03</pdfrwt>
<totfact> 0.42366893E+03</totfact>
</mgrwt>
</event>
<event>
 4    1  0.1049403E-004  0.6011277E+03  0.7818608E-02  0.9903069E-01
         -2   -1    0    0    0  501 -0.00000000000E+00  0.00000000000E+00  0.12816715720E+03  0.12816715722E+03  0.25500000000E-02 0. -1.
          2   -1    0    0  501    0  0.00000000000E+00 -0.00000000000E+00 -0.70485003035E+03  0.70485003035E+03  0.25500000000E-02 0.  1.
    5000001    1    1    2    0    0 -0.21200684072E+03 -0.29616660015E+02 -0.10612841042E+03  0.29036578063E+03  0.16500000000E+03 0.  0.
   -5000001    1    1    2    0    0  0.21200684072E+03  0.29616660015E+02 -0.47055446273E+03  0.54265140695E+03  0.16500000000E+03 0.  0.
<mgrwt>
<rscale>  0 0.60112769E+03</rscale>
<asrwt>0</asrwt>
<pdfrwt beam="1">  1        2 0.10069286E+00 0.60112769E+03</pdfrwt>
<pdfrwt beam="2">  1       -2 0.18309594E-01 0.60112769E+03</pdfrwt>
<totfact> 0.11130585E+03</totfact>
</mgrwt>
</event>
<event>
 4    1  0.1049403E-004  0.5110775E+03  0.7818608E-02  0.1010927E+00
          2   -1    0    0  501    0  0.00000000000E+00  0.00000000000E+00  0.31358155178E+04  0.31358155178E+04  0.25500000000E-02 0.  1.
         -2   -1    0    0    0  501 -0.00000000000E+00 -0.00000000000E+00 -0.20823943711E+02  0.20823943867E+02  0.25500000000E-02 0. -1.
    5000001    1    1    2    0    0 -0.66031589662E+02 -0.13695959607E+03  0.23128656954E+04  0.23237234833E+04  0.16500000000E+03 0.  0.
   -5000001    1    1    2    0    0  0.66031589662E+02  0.13695959607E+03  0.80212587866E+03  0.83291597836E+03  0.16500000000E+03 0.  0.
<mgrwt>
<rscale>  0 0.51107747E+03</rscale>
<asrwt>0</asrwt>
<pdfrwt beam="1">  1        2 0.44797426E+00 0.51107747E+03</pdfrwt>
<pdfrwt beam="2">  1       -2 0.29748450E-02 0.51107747E+03</pdfrwt>
<totfact> 0.97489146E+02</totfact>
</mgrwt>
</event>
<event>
 4    1  0.1049403E-004  0.3987395E+03  0.7818608E-02  0.1044217E+00
         -2   -1    0    0    0  501 -0.00000000000E+00  0.00000000000E+00  0.97394425141E+03  0.97394425141E+03  0.25500000000E-02 0. -1.
          2   -1    0    0  501    0  0.00000000000E+00 -0.00000000000E+00 -0.40811677463E+02  0.40811677543E+02  0.25500000000E-02 0.  1.
    5000001    1    1    2    0    0  0.91483941550E+02  0.64313033848E+02  0.47730954714E+03  0.51725707504E+03  0.16500000000E+03 0.  0.
   -5000001    1    1    2    0    0 -0.91483941550E+02 -0.64313033848E+02  0.45582302680E+03  0.49749885391E+03  0.16500000000E+03 0.  0.
<mgrwt>
<rscale>  0 0.39873951E+03</rscale>
<asrwt>0</asrwt>
<pdfrwt beam="1">  1        2 0.58302394E-02 0.39873951E+03</pdfrwt>
<pdfrwt beam="2">  1       -2 0.13913490E+00 0.39873951E+03</pdfrwt>
<totfact> 0.49612863E+02</totfact>
</mgrwt>
</event>
<event>
 4    1  0.1049403E-004  0.5807423E+03  0.7818608E-02  0.9946185E-01
          2   -1    0    0  501    0  0.00000000000E+00  0.00000000000E+00  0.95860133441E+03  0.95860133442E+03  0.25500000000E-02 0.  1.
         -2   -1    0    0    0  501 -0.00000000000E+00 -0.00000000000E+00 -0.87956688958E+02  0.87956688995E+02  0.25500000000E-02 0. -1.
    5000001    1    1    2    0    0 -0.23213194311E+03 -0.10006779961E+02  0.53574051512E+03  0.60681815579E+03  0.16500000000E+03 0.  0.
   -5000001    1    1    2    0    0  0.23213194311E+03  0.10006779961E+02  0.33490413034E+03  0.43973986762E+03  0.16500000000E+03 0.  0.
<mgrwt>
<rscale>  0 0.58074228E+03</rscale>
<asrwt>0</asrwt>
<pdfrwt beam="1">  1        2 0.13694305E+00 0.58074228E+03</pdfrwt>
<pdfrwt beam="2">  1       -2 0.12565241E-01 0.58074228E+03</pdfrwt>
<totfact> 0.14111283E+03</totfact>
</mgrwt>
</event>
<event>
 4    1  0.1049403E-004  0.7501224E+03  0.7818608E-02  0.9635158E-01
          2   -1    0    0  501    0  0.00000000000E+00  0.00000000000E+00  0.51306235745E+03  0.51306235746E+03  0.25500000000E-02 0.  1.
         -2   -1    0    0    0  501 -0.00000000000E+00 -0.00000000000E+00 -0.27417897693E+03  0.27417897694E+03  0.25500000000E-02 0. -1.
    5000001    1    1    2    0    0 -0.10018133455E+03  0.17071784389E+03 -0.16655955387E+03  0.30683540702E+03  0.16500000000E+03 0.  0.
   -5000001    1    1    2    0    0  0.10018133455E+03 -0.17071784389E+03  0.40544293439E+03  0.48040592738E+03  0.16500000000E+03 0.  0.
<mgrwt>
<rscale>  0 0.75012242E+03</rscale>
<asrwt>0</asrwt>
<pdfrwt beam="1">  1        2 0.73294622E-01 0.75012242E+03</pdfrwt>
<pdfrwt beam="2">  1       -2 0.39168426E-01 0.75012242E+03</pdfrwt>
<totfact> 0.40396835E+02</totfact>
</mgrwt>
</event>
<event>
 4    1  0.1049403E-004  0.1158867E+04  0.7818608E-02  0.9149642E-01
         -2   -1    0    0    0  501 -0.00000000000E+00  0.00000000000E+00  0.89715461920E+03  0.89715461920E+03  0.25500000000E-02 0. -1.
          2   -1    0    0  501    0  0.00000000000E+00 -0.00000000000E+00 -0.37423125894E+03  0.37423125895E+03  0.25500000000E-02 0.  1.
    5000001    1    1    2    0    0 -0.55115043995E+03 -0.59098985792E+02  0.30038617135E+03  0.65170265422E+03  0.16500000000E+03 0.  0.
   -5000001    1    1    2    0    0  0.55115043995E+03  0.59098985792E+02  0.22253718891E+03  0.61968322393E+03  0.16500000000E+03 0.  0.
<mgrwt>
<rscale>  0 0.11588672E+04</rscale>
<asrwt>0</asrwt>
<pdfrwt beam="1">  1        2 0.53461608E-01 0.11588672E+04</pdfrwt>
<pdfrwt beam="2">  1       -2 0.12816495E+00 0.11588672E+04</pdfrwt>
<totfact> 0.41520434E+01</totfact>
</mgrwt>
</event>
<event>
 4    1  0.1049403E-004  0.6460667E+03  0.7818608E-02  0.9814188E-01
          2   -1    0    0  501    0  0.00000000000E+00  0.00000000000E+00  0.22217274025E+04  0.22217274025E+04  0.25500000000E-02 0.  1.
         -2   -1    0    0    0  501 -0.00000000000E+00 -0.00000000000E+00 -0.46968209667E+02  0.46968209736E+02  0.25500000000E-02 0. -1.
    5000001    1    1    2    0    0  0.96171218388E+02  0.25406560007E+02  0.17687078040E+03  0.26153904010E+03  0.16500000000E+03 0.  0.
   -5000001    1    1    2    0    0 -0.96171218388E+02 -0.25406560007E+02  0.19978884125E+04  0.20071565722E+04  0.16500000000E+03 0.  0.
<mgrwt>
<rscale>  0 0.64606674E+03</rscale>
<asrwt>0</asrwt>
<pdfrwt beam="1">  1        2 0.31738973E+00 0.64606674E+03</pdfrwt>
<pdfrwt beam="2">  1       -2 0.67097421E-02 0.64606674E+03</pdfrwt>
<totfact> 0.82785192E+02</totfact>
</mgrwt>
</event>
<event>
 4    1  0.1049403E-004  0.5285844E+03  0.7818608E-02  0.1006576E+00
          2   -1    0    0  501    0  0.00000000000E+00  0.00000000000E+00  0.21766827564E+03  0.21766827565E+03  0.25500000000E-02 0.  1.
         -2   -1    0    0    0  501 -0.00000000000E+00 -0.00000000000E+00 -0.32090288853E+03  0.32090288854E+03  0.25500000000E-02 0. -1.
    5000001    1    1    2    0    0 -0.24991438764E+02 -0.19925528418E+03 -0.27726810959E+01  0.25992292712E+03  0.16500000000E+03 0.  0.
   -5000001    1    1    2    0    0  0.24991438764E+02  0.19925528418E+03 -0.10046193180E+03  0.27864823707E+03  0.16500000000E+03 0.  0.
<mgrwt>
<rscale>  0 0.52858444E+03</rscale>
<asrwt>0</asrwt>
<pdfrwt beam="1">  1        2 0.31095468E-01 0.52858444E+03</pdfrwt>
<pdfrwt beam="2">  1       -2 0.45843270E-01 0.52858444E+03</pdfrwt>
<totfact> 0.77460168E+02</totfact>
</mgrwt>
</event>
<event>
 4    1  0.1049403E-004  0.4448987E+03  0.7818608E-02  0.1029254E+00
          2   -1    0    0  501    0  0.00000000000E+00  0.00000000000E+00  0.14065858463E+04  0.14065858463E+04  0.25500000000E-02 0.  1.
         -2   -1    0    0    0  501 -0.00000000000E+00 -0.00000000000E+00 -0.35180013098E+02  0.35180013191E+02  0.25500000000E-02 0. -1.
    5000001    1    1    2    0    0 -0.55839862520E+02  0.78575202689E+02  0.31668628623E+03  0.36987478504E+03  0.16500000000E+03 0.  0.
   -5000001    1    1    2    0    0  0.55839862520E+02 -0.78575202689E+02  0.10547195470E+04  0.10718910745E+04  0.16500000000E+03 0.  0.
<mgrwt>
<rscale>  0 0.44489868E+03</rscale>
<asrwt>0</asrwt>
<pdfrwt beam="1">  1        2 0.20094079E+00 0.44489868E+03</pdfrwt>
<pdfrwt beam="2">  1       -2 0.50257174E-02 0.44489868E+03</pdfrwt>
<totfact> 0.33899301E+03</totfact>
</mgrwt>
</event>
<event>
 4    1  0.1049403E-004  0.8166895E+03  0.7818608E-02  0.9536169E-01
         -2   -1    0    0    0  501 -0.00000000000E+00  0.00000000000E+00  0.10034464325E+03  0.10034464328E+03  0.25500000000E-02 0. -1.
          2   -1    0    0  501    0  0.00000000000E+00 -0.00000000000E+00 -0.16617272245E+04  0.16617272245E+04  0.25500000000E-02 0.  1.
    5000001    1    1    2    0    0 -0.29622797248E+03 -0.21444434390E+03 -0.61661544466E+03  0.73564733052E+03  0.16500000000E+03 0.  0.
   -5000001    1    1    2    0    0  0.29622797248E+03  0.21444434390E+03 -0.94476713663E+03  0.10264245373E+04  0.16500000000E+03 0.  0.
<mgrwt>
<rscale>  0 0.81668948E+03</rscale>
<asrwt>0</asrwt>
<pdfrwt beam="1">  1        2 0.23738959E+00 0.81668948E+03</pdfrwt>
<pdfrwt beam="2">  1       -2 0.14334950E-01 0.81668948E+03</pdfrwt>
<totfact> 0.45837779E+02</totfact>
</mgrwt>
</event>
<event>
 4    1  0.1049403E-004  0.5538607E+03  0.7818608E-02  0.1000604E+00
          2   -1    0    0  501    0  0.00000000000E+00  0.00000000000E+00  0.23118404460E+03  0.23118404461E+03  0.25500000000E-02 0.  1.
         -2   -1    0    0    0  501 -0.00000000000E+00 -0.00000000000E+00 -0.33172886997E+03  0.33172886998E+03  0.25500000000E-02 0. -1.
    5000001    1    1    2    0    0 -0.97274167582E+02  0.88277256957E+02  0.13213308810E+03  0.24887605499E+03  0.16500000000E+03 0.  0.
   -5000001    1    1    2    0    0  0.97274167582E+02 -0.88277256957E+02 -0.23267791347E+03  0.31403685960E+03  0.16500000000E+03 0.  0.
<mgrwt>
<rscale>  0 0.55386071E+03</rscale>
<asrwt>0</asrwt>
<pdfrwt beam="1">  1        2 0.33026292E-01 0.55386071E+03</pdfrwt>
<pdfrwt beam="2">  1       -2 0.47389838E-01 0.55386071E+03</pdfrwt>
<totfact> 0.67775672E+02</totfact>
</mgrwt>
</event>
<event>
 4    1  0.1049403E-004  0.6627422E+03  0.7818608E-02  0.9783159E-01
         -2   -1    0    0    0  501 -0.00000000000E+00  0.00000000000E+00  0.84586635398E+02  0.84586635436E+02  0.25500000000E-02 0. -1.
          2   -1    0    0  501    0  0.00000000000E+00 -0.00000000000E+00 -0.12981577646E+04  0.12981577646E+04  0.25500000000E-02 0.  1.
    5000001    1    1    2    0    0 -0.10032799640E+03 -0.20265307313E+03 -0.97677778321E+03  0.10160973441E+04  0.16500000000E+03 0.  0.
   -5000001    1    1    2    0    0  0.10032799640E+03  0.20265307313E+03 -0.23679334595E+03  0.36664705590E+03  0.16500000000E+03 0.  0.
<mgrwt>
<rscale>  0 0.66274217E+03</rscale>
<asrwt>0</asrwt>
<pdfrwt beam="1">  1        2 0.18545110E+00 0.66274217E+03</pdfrwt>
<pdfrwt beam="2">  1       -2 0.12083806E-01 0.66274217E+03</pdfrwt>
<totfact> 0.95527229E+02</totfact>
</mgrwt>
</event>
<event>
 4    1  0.1049403E-004  0.7297715E+03  0.7818608E-02  0.9667631E-01
         -2   -1    0    0    0  501 -0.00000000000E+00  0.00000000000E+00  0.11850955632E+03  0.11850955634E+03  0.25500000000E-02 0. -1.
          2   -1    0    0  501    0  0.00000000000E+00 -0.00000000000E+00 -0.11234671726E+04  0.11234671726E+04  0.25500000000E-02 0.  1.
    5000001    1    1    2    0    0  0.28992007767E+03  0.90454505591E+02 -0.30341864828E+03  0.45991688939E+03  0.16500000000E+03 0.  0.
   -5000001    1    1    2    0    0 -0.28992007767E+03 -0.90454505591E+02 -0.70153896798E+03  0.78205983953E+03  0.16500000000E+03 0.  0.
<mgrwt>
<rscale>  0 0.72977146E+03</rscale>
<asrwt>0</asrwt>
<pdfrwt beam="1">  1        2 0.16049530E+00 0.72977146E+03</pdfrwt>
<pdfrwt beam="2">  1       -2 0.16929937E-01 0.72977146E+03</pdfrwt>
<totfact> 0.67781489E+02</totfact>
</mgrwt>
</event>
<event>
 4    1  0.1049403E-004  0.6493207E+03  0.7818608E-02  0.9808055E-01
          2   -1    0    0  501    0  0.00000000000E+00  0.00000000000E+00  0.15671195968E+04  0.15671195968E+04  0.25500000000E-02 0.  1.
         -2   -1    0    0    0  501 -0.00000000000E+00 -0.00000000000E+00 -0.67259913956E+02  0.67259914004E+02  0.25500000000E-02 0. -1.
    5000001    1    1    2    0    0  0.19289416354E+02  0.20985970370E+03  0.12124540594E+04  0.12416452887E+04  0.16500000000E+03 0.  0.
   -5000001    1    1    2    0    0 -0.19289416354E+02 -0.20985970370E+03  0.28740562346E+03  0.39273422211E+03  0.16500000000E+03 0.  0.
<mgrwt>
<rscale>  0 0.64932066E+03</rscale>
<asrwt>0</asrwt>
<pdfrwt beam="1">  1        2 0.22387420E+00 0.64932066E+03</pdfrwt>
<pdfrwt beam="2">  1       -2 0.96085603E-02 0.64932066E+03</pdfrwt>
<totfact> 0.10010265E+03</totfact>
</mgrwt>
</event>
<event>
 4    1  0.1049403E-004  0.7879103E+03  0.7818608E-02  0.9577683E-01
          2   -1    0    0  501    0  0.00000000000E+00  0.00000000000E+00  0.23916488186E+04  0.23916488186E+04  0.25500000000E-02 0. -1.
         -2   -1    0    0    0  501 -0.00000000000E+00 -0.00000000000E+00 -0.64892751072E+02  0.64892751122E+02  0.25500000000E-02 0.  1.
    5000001    1    1    2    0    0 -0.12590706481E+02 -0.33606699607E+03  0.15436481147E+04  0.15884502050E+04  0.16500000000E+03 0.  0.
   -5000001    1    1    2    0    0  0.12590706481E+02  0.33606699607E+03  0.78310795289E+03  0.86809136479E+03  0.16500000000E+03 0.  0.
<mgrwt>
<rscale>  0 0.78791033E+03</rscale>
<asrwt>0</asrwt>
<pdfrwt beam="1">  1        2 0.34166414E+00 0.78791033E+03</pdfrwt>
<pdfrwt beam="2">  1       -2 0.92703924E-02 0.78791033E+03</pdfrwt>
<totfact> 0.40052497E+02</totfact>
</mgrwt>
</event>
<event>
 4    1  0.1049403E-004  0.6841188E+03  0.7818608E-02  0.9744783E-01
         -2   -1    0    0    0  501 -0.00000000000E+00  0.00000000000E+00  0.16791537000E+03  0.16791537002E+03  0.25500000000E-02 0. -1.
          2   -1    0    0  501    0  0.00000000000E+00 -0.00000000000E+00 -0.69680708009E+03  0.69680708010E+03  0.25500000000E-02 0.  1.
    5000001    1    1    2    0    0  0.25289898886E+03 -0.78851708638E+02 -0.87467969344E+02  0.32411593016E+03  0.16500000000E+03 0.  0.
   -5000001    1    1    2    0    0 -0.25289898886E+03  0.78851708638E+02 -0.44142374075E+03  0.54060651996E+03  0.16500000000E+03 0.  0.
<mgrwt>
<rscale>  0 0.68411876E+03</rscale>
<asrwt>0</asrwt>
<pdfrwt beam="1">  1        2 0.99543867E-01 0.68411876E+03</pdfrwt>
<pdfrwt beam="2">  1       -2 0.23987910E-01 0.68411876E+03</pdfrwt>
<totfact> 0.70148080E+02</totfact>
</mgrwt>
</event>
<event>
 4    1  0.1049403E-004  0.3967796E+03  0.7818608E-02  0.1044901E+00
         -2   -1    0    0    0  501 -0.00000000000E+00  0.00000000000E+00  0.22969946529E+03  0.22969946530E+03  0.25500000000E-02 0. -1.
          2   -1    0    0  501    0  0.00000000000E+00 -0.00000000000E+00 -0.17134782998E+03  0.17134783000E+03  0.25500000000E-02 0.  1.
    5000001    1    1    2    0    0 -0.34109035224E+02  0.56745528575E+02 -0.59805291121E+02  0.18757706188E+03  0.16500000000E+03 0.  0.
   -5000001    1    1    2    0    0  0.34109035224E+02 -0.56745528575E+02  0.11815692643E+03  0.21347023343E+03  0.16500000000E+03 0.  0.
<mgrwt>
<rscale>  0 0.39677956E+03</rscale>
<asrwt>0</asrwt>
<pdfrwt beam="1">  1        2 0.24478261E-01 0.39677956E+03</pdfrwt>
<pdfrwt beam="2">  1       -2 0.32814209E-01 0.39677956E+03</pdfrwt>
<totfact> 0.19238077E+03</totfact>
</mgrwt>
</event>
<event>
 4    1  0.1049403E-004  0.4083330E+03  0.7818608E-02  0.1040932E+00
          2   -1    0    0  501    0  0.00000000000E+00  0.00000000000E+00  0.33801482167E+03  0.33801482168E+03  0.25500000000E-02 0.  1.
         -2   -1    0    0    0  501 -0.00000000000E+00 -0.00000000000E+00 -0.12331993727E+03  0.12331993730E+03  0.25500000000E-02 0. -1.
    5000001    1    1    2    0    0  0.33994431680E+02  0.11269622118E+03  0.79606142043E+02  0.21775719851E+03  0.16500000000E+03 0.  0.
   -5000001    1    1    2    0    0 -0.33994431680E+02 -0.11269622118E+03  0.13508874235E+03  0.24357756047E+03  0.16500000000E+03 0.  0.
<mgrwt>
<rscale>  0 0.40833303E+03</rscale>
<asrwt>0</asrwt>
<pdfrwt beam="1">  1        2 0.48287833E-01 0.40833303E+03</pdfrwt>
<pdfrwt beam="2">  1       -2 0.17617133E-01 0.40833303E+03</pdfrwt>
<totfact> 0.27386303E+03</totfact>
</mgrwt>
</event>
<event>
 4    1  0.1049403E-004  0.4090947E+03  0.7818608E-02  0.1040675E+00
         -2   -1    0    0    0  501 -0.00000000000E+00  0.00000000000E+00  0.13689305414E+02  0.13689305651E+02  0.25500000000E-02 0. -1.
          2   -1    0    0  501    0  0.00000000000E+00 -0.00000000000E+00 -0.30563719068E+04  0.30563719068E+04  0.25500000000E-02 0.  1.
    5000001    1    1    2    0    0 -0.11911649076E+03  0.19128407762E+02 -0.14632238496E+04  0.14774314429E+04  0.16500000000E+03 0.  0.
   -5000001    1    1    2    0    0  0.11911649076E+03 -0.19128407762E+02 -0.15794587518E+04  0.15926297696E+04  0.16500000000E+03 0.  0.
<mgrwt>
<rscale>  0 0.40909465E+03</rscale>
<asrwt>0</asrwt>
<pdfrwt beam="1">  1        2 0.43662412E+00 0.40909465E+03</pdfrwt>
<pdfrwt beam="2">  1       -2 0.19556170E-02 0.40909465E+03</pdfrwt>
<totfact> 0.20416149E+03</totfact>
</mgrwt>
</event>
<event>
 4    1  0.1049403E-004  0.5880912E+03  0.7818608E-02  0.9930426E-01
         -2   -1    0    0    0  501 -0.00000000000E+00  0.00000000000E+00  0.15750063547E+03  0.15750063549E+03  0.25500000000E-02 0. -1.
          2   -1    0    0  501    0  0.00000000000E+00 -0.00000000000E+00 -0.54896795120E+03  0.54896795121E+03  0.25500000000E-02 0.  1.
    5000001    1    1    2    0    0  0.15205396293E+03 -0.62268293773E+02  0.19964324923E+02  0.23371205001E+03  0.16500000000E+03 0.  0.
   -5000001    1    1    2    0    0 -0.15205396293E+03  0.62268293773E+02 -0.41143164065E+03  0.47275653669E+03  0.16500000000E+03 0.  0.
<mgrwt>
<rscale>  0 0.58809115E+03</rscale>
<asrwt>0</asrwt>
<pdfrwt beam="1">  1        2 0.78423992E-01 0.58809115E+03</pdfrwt>
<pdfrwt beam="2">  1       -2 0.22500091E-01 0.58809115E+03</pdfrwt>
<totfact> 0.10455007E+03</totfact>
</mgrwt>
</event>
<event>
 4    1  0.1049403E-004  0.4791246E+03  0.7818608E-02  0.1019376E+00
          2   -1    0    0  501    0  0.00000000000E+00  0.00000000000E+00  0.30899058057E+03  0.30899058058E+03  0.25500000000E-02 0.  1.
         -2   -1    0    0    0  501 -0.00000000000E+00 -0.00000000000E+00 -0.18573409845E+03  0.18573409847E+03  0.25500000000E-02 0. -1.
    5000001    1    1    2    0    0  0.16444079573E+03 -0.26152860832E+02  0.10620010035E+02  0.23465406888E+03  0.16500000000E+03 0.  0.
   -5000001    1    1    2    0    0 -0.16444079573E+03  0.26152860832E+02  0.11263647209E+03  0.26007061017E+03  0.16500000000E+03 0.  0.
<mgrwt>
<rscale>  0 0.47912456E+03</rscale>
<asrwt>0</asrwt>
<pdfrwt beam="1">  1        2 0.44141511E-01 0.47912456E+03</pdfrwt>
<pdfrwt beam="2">  1       -2 0.26533443E-01 0.47912456E+03</pdfrwt>
<totfact> 0.14785431E+03</totfact>
</mgrwt>
</event>
<event>
 4    1  0.1049403E-004  0.6490998E+03  0.7818608E-02  0.9808470E-01
         -2   -1    0    0    0  501 -0.00000000000E+00  0.00000000000E+00  0.48842049894E+02  0.48842049961E+02  0.25500000000E-02 0. -1.
          2   -1    0    0  501    0  0.00000000000E+00 -0.00000000000E+00 -0.21565976124E+04  0.21565976124E+04  0.25500000000E-02 0.  1.
    5000001    1    1    2    0    0 -0.25197604886E+03 -0.10126664857E+03 -0.82950714558E+03  0.88828709766E+03  0.16500000000E+03 0.  0.
   -5000001    1    1    2    0    0  0.25197604886E+03  0.10126664857E+03 -0.12782484169E+04  0.13171525647E+04  0.16500000000E+03 0.  0.
<mgrwt>
<rscale>  0 0.64909983E+03</rscale>
<asrwt>0</asrwt>
<pdfrwt beam="1">  1        2 0.30808531E+00 0.64909983E+03</pdfrwt>
<pdfrwt beam="2">  1       -2 0.69774371E-02 0.64909983E+03</pdfrwt>
<totfact> 0.83926008E+02</totfact>
</mgrwt>
</event>
<event>
 4    1  0.1049403E-004  0.7934085E+03  0.7818608E-02  0.9569607E-01
         -2   -1    0    0    0  501 -0.00000000000E+00  0.00000000000E+00  0.20174264694E+03  0.20174264696E+03  0.25500000000E-02 0. -1.
          2   -1    0    0  501    0  0.00000000000E+00 -0.00000000000E+00 -0.78007424771E+03  0.78007424772E+03  0.25500000000E-02 0.  1.
    5000001    1    1    2    0    0  0.18388072599E+03 -0.26867617156E+03 -0.96859117816E+02  0.37763169261E+03  0.16500000000E+03 0.  0.
   -5000001    1    1    2    0    0 -0.18388072599E+03  0.26867617156E+03 -0.48147248295E+03  0.60418520207E+03  0.16500000000E+03 0.  0.
<mgrwt>
<rscale>  0 0.79340845E+03</rscale>
<asrwt>0</asrwt>
<pdfrwt beam="1">  1        2 0.11143918E+00 0.79340845E+03</pdfrwt>
<pdfrwt beam="2">  1       -2 0.28820378E-01 0.79340845E+03</pdfrwt>
<totfact> 0.43494052E+02</totfact>
</mgrwt>
</event>
<event>
 4    1  0.1049403E-004  0.4238045E+03  0.7818608E-02  0.1035835E+00
         -2   -1    0    0    0  501 -0.00000000000E+00  0.00000000000E+00  0.39633263670E+02  0.39633263752E+02  0.25500000000E-02 0. -1.
          2   -1    0    0  501    0  0.00000000000E+00 -0.00000000000E+00 -0.11329514720E+04  0.11329514720E+04  0.25500000000E-02 0.  1.
    5000001    1    1    2    0    0 -0.91048233682E+02  0.83948258252E+02 -0.41280535607E+03  0.46148711025E+03  0.16500000000E+03 0.  0.
   -5000001    1    1    2    0    0  0.91048233682E+02 -0.83948258252E+02 -0.68051285229E+03  0.71109762554E+03  0.16500000000E+03 0.  0.
<mgrwt>
<rscale>  0 0.42380450E+03</rscale>
<asrwt>0</asrwt>
<pdfrwt beam="1">  1        2 0.16185019E+00 0.42380450E+03</pdfrwt>
<pdfrwt beam="2">  1       -2 0.56618955E-02 0.42380450E+03</pdfrwt>
<totfact> 0.39695695E+03</totfact>
</mgrwt>
</event>
<event>
 4    1  0.1049403E-004  0.5113352E+03  0.7818608E-02  0.1010862E+00
         -2   -1    0    0    0  501 -0.00000000000E+00  0.00000000000E+00  0.26084203399E+03  0.26084203400E+03  0.25500000000E-02 0. -1.
          2   -1    0    0  501    0  0.00000000000E+00 -0.00000000000E+00 -0.25059576472E+03  0.25059576474E+03  0.25500000000E-02 0.  1.
    5000001    1    1    2    0    0 -0.49156546694E+02  0.18787925420E+03 -0.15519049565E+02  0.25530534883E+03  0.16500000000E+03 0.  0.
   -5000001    1    1    2    0    0  0.49156546694E+02 -0.18787925420E+03  0.25765318833E+02  0.25613244991E+03  0.16500000000E+03 0.  0.
<mgrwt>
<rscale>  0 0.51133515E+03</rscale>
<asrwt>0</asrwt>
<pdfrwt beam="1">  1        2 0.35799395E-01 0.51133515E+03</pdfrwt>
<pdfrwt beam="2">  1       -2 0.37263148E-01 0.51133515E+03</pdfrwt>
<totfact> 0.99177690E+02</totfact>
</mgrwt>
</event>
<event>
 4    1  0.1049403E-004  0.8667713E+03  0.7818608E-02  0.9468100E-01
         -2   -1    0    0    0  501 -0.00000000000E+00  0.00000000000E+00  0.90607845189E+02  0.90607845225E+02  0.25500000000E-02 0. -1.
          2   -1    0    0  501    0  0.00000000000E+00 -0.00000000000E+00 -0.20729233527E+04  0.20729233528E+04  0.25500000000E-02 0.  1.
    5000001    1    1    2    0    0  0.27668274462E+03 -0.25524998181E+03 -0.13342415327E+04  0.13961129475E+04  0.16500000000E+03 0.  0.
   -5000001    1    1    2    0    0 -0.27668274462E+03  0.25524998181E+03 -0.64807397481E+03  0.76741825051E+03  0.16500000000E+03 0.  0.
<mgrwt>
<rscale>  0 0.86677129E+03</rscale>
<asrwt>0</asrwt>
<pdfrwt beam="1">  1        2 0.29613188E+00 0.86677129E+03</pdfrwt>
<pdfrwt beam="2">  1       -2 0.12943979E-01 0.86677129E+03</pdfrwt>
<totfact> 0.33455303E+02</totfact>
</mgrwt>
</event>
<event>
 4    1  0.1049403E-004  0.3828566E+03  0.7818608E-02  0.1049883E+00
          2   -1    0    0  501    0  0.00000000000E+00  0.00000000000E+00  0.45984397001E+03  0.45984397002E+03  0.25500000000E-02 0.  1.
         -2   -1    0    0    0  501 -0.00000000000E+00 -0.00000000000E+00 -0.79689611238E+02  0.79689611279E+02  0.25500000000E-02 0. -1.
    5000001    1    1    2    0    0  0.94531231688E+02 -0.18903223381E+02  0.20591468569E+03  0.28092586816E+03  0.16500000000E+03 0.  0.
   -5000001    1    1    2    0    0 -0.94531231688E+02  0.18903223381E+02  0.17423967308E+03  0.25860771314E+03  0.16500000000E+03 0.  0.
<mgrwt>
<rscale>  0 0.38285656E+03</rscale>
<asrwt>0</asrwt>
<pdfrwt beam="1">  1        2 0.65691995E-01 0.38285656E+03</pdfrwt>
<pdfrwt beam="2">  1       -2 0.11384230E-01 0.38285656E+03</pdfrwt>
<totfact> 0.40249864E+03</totfact>
</mgrwt>
</event>
<event>
 4    1  0.1049403E-004  0.6583528E+03  0.7818608E-02  0.9791231E-01
         -2   -1    0    0    0  501 -0.00000000000E+00  0.00000000000E+00  0.87570189915E+02  0.87570189952E+02  0.25500000000E-02 0. -1.
          2   -1    0    0  501    0  0.00000000000E+00 -0.00000000000E+00 -0.12373743077E+04  0.12373743077E+04  0.25500000000E-02 0.  1.
    5000001    1    1    2    0    0  0.13652647539E-01  0.24483336176E+03 -0.28195345034E+03  0.40824762507E+03  0.16500000000E+03 0.  0.
   -5000001    1    1    2    0    0 -0.13652647539E-01 -0.24483336176E+03 -0.86785066741E+03  0.91669687255E+03  0.16500000000E+03 0.  0.
<mgrwt>
<rscale>  0 0.65835280E+03</rscale>
<asrwt>0</asrwt>
<pdfrwt beam="1">  1        2 0.17676775E+00 0.65835280E+03</pdfrwt>
<pdfrwt beam="2">  1       -2 0.12510028E-01 0.65835280E+03</pdfrwt>
<totfact> 0.97449979E+02</totfact>
</mgrwt>
</event>
<event>
 4    1  0.1049403E-004  0.5444944E+03  0.7818608E-02  0.1002776E+00
         -2   -1    0    0    0  501 -0.00000000000E+00  0.00000000000E+00  0.47029138111E+03  0.47029138112E+03  0.25500000000E-02 0. -1.
          2   -1    0    0  501    0  0.00000000000E+00 -0.00000000000E+00 -0.15760128699E+03  0.15760128701E+03  0.25500000000E-02 0.  1.
    5000001    1    1    2    0    0  0.20310623213E+03 -0.72200264714E+02  0.13247402156E+03  0.30205858065E+03  0.16500000000E+03 0.  0.
   -5000001    1    1    2    0    0 -0.20310623213E+03  0.72200264714E+02  0.18021607256E+03  0.32583408748E+03  0.16500000000E+03 0.  0.
<mgrwt>
<rscale>  0 0.54449436E+03</rscale>
<asrwt>0</asrwt>
<pdfrwt beam="1">  1        2 0.22514469E-01 0.54449436E+03</pdfrwt>
<pdfrwt beam="2">  1       -2 0.67184484E-01 0.54449436E+03</pdfrwt>
<totfact> 0.50707312E+02</totfact>
</mgrwt>
</event>
<event>
 4    1  0.1049403E-004  0.4895257E+03  0.7818608E-02  0.1016550E+00
          2   -1    0    0  501    0  0.00000000000E+00  0.00000000000E+00  0.13950828169E+04  0.13950828169E+04  0.25500000000E-02 0. -1.
         -2   -1    0    0    0  501 -0.00000000000E+00 -0.00000000000E+00 -0.42942859503E+02  0.42942859578E+02  0.25500000000E-02 0.  1.
    5000001    1    1    2    0    0  0.36221134936E+02 -0.31680514906E+02  0.11879884933E+04  0.12003571493E+04  0.16500000000E+03 0.  0.
   -5000001    1    1    2    0    0 -0.36221134936E+02  0.31680514906E+02  0.16415146402E+03  0.23766852712E+03  0.16500000000E+03 0.  0.
<mgrwt>
<rscale>  0 0.48952567E+03</rscale>
<asrwt>0</asrwt>
<pdfrwt beam="1">  1        2 0.19929748E+00 0.48952567E+03</pdfrwt>
<pdfrwt beam="2">  1       -2 0.61346962E-02 0.48952567E+03</pdfrwt>
<totfact> 0.25225870E+03</totfact>
</mgrwt>
</event>
<event>
 4    1  0.1049403E-004  0.4180722E+03  0.7818608E-02  0.1037696E+00
          2   -1    0    0  501    0  0.00000000000E+00  0.00000000000E+00  0.34366606765E+03  0.34366606766E+03  0.25500000000E-02 0.  1.
         -2   -1    0    0    0  501 -0.00000000000E+00 -0.00000000000E+00 -0.12714693686E+03  0.12714693689E+03  0.25500000000E-02 0. -1.
    5000001    1    1    2    0    0 -0.23433051153E+02  0.12485555667E+03  0.12881207537E+03  0.24485826242E+03  0.16500000000E+03 0.  0.
   -5000001    1    1    2    0    0  0.23433051153E+02 -0.12485555667E+03  0.87707055422E+02  0.22595474212E+03  0.16500000000E+03 0.  0.
<mgrwt>
<rscale>  0 0.41807218E+03</rscale>
<asrwt>0</asrwt>
<pdfrwt beam="1">  1        2 0.49095152E-01 0.41807218E+03</pdfrwt>
<pdfrwt beam="2">  1       -2 0.18163848E-01 0.41807218E+03</pdfrwt>
<totfact> 0.25540074E+03</totfact>
</mgrwt>
</event>
<event>
 4    1  0.1049403E-004  0.5957209E+03  0.7818608E-02  0.9914324E-01
         -2   -1    0    0    0  501 -0.00000000000E+00  0.00000000000E+00  0.53889649093E+03  0.53889649093E+03  0.25500000000E-02 0. -1.
          2   -1    0    0  501    0  0.00000000000E+00 -0.00000000000E+00 -0.16463430006E+03  0.16463430008E+03  0.25500000000E-02 0.  1.
    5000001    1    1    2    0    0  0.17905648044E+03 -0.17142977672E+03  0.17908181928E+03  0.34748336583E+03  0.16500000000E+03 0.  0.
   -5000001    1    1    2    0    0 -0.17905648044E+03  0.17142977672E+03  0.19518037159E+03  0.35604742519E+03  0.16500000000E+03 0.  0.
<mgrwt>
<rscale>  0 0.59572090E+03</rscale>
<asrwt>0</asrwt>
<pdfrwt beam="1">  1        2 0.23519186E-01 0.59572090E+03</pdfrwt>
<pdfrwt beam="2">  1       -2 0.76985211E-01 0.59572090E+03</pdfrwt>
<totfact> 0.35784391E+02</totfact>
</mgrwt>
</event>
<event>
 4    1  0.1049403E-004  0.5159723E+03  0.7818608E-02  0.1009692E+00
         -2   -1    0    0    0  501 -0.00000000000E+00  0.00000000000E+00  0.80525212900E+02  0.80525212940E+02  0.25500000000E-02 0. -1.
          2   -1    0    0  501    0  0.00000000000E+00 -0.00000000000E+00 -0.82653442583E+03  0.82653442584E+03  0.25500000000E-02 0.  1.
    5000001    1    1    2    0    0  0.97158810408E+02  0.17260400998E+02 -0.70583543254E+02  0.20480427842E+03  0.16500000000E+03 0.  0.
   -5000001    1    1    2    0    0 -0.97158810408E+02 -0.17260400998E+02 -0.67542566968E+03  0.70225536035E+03  0.16500000000E+03 0.  0.
<mgrwt>
<rscale>  0 0.51597233E+03</rscale>
<asrwt>0</asrwt>
<pdfrwt beam="1">  1        2 0.11807634E+00 0.51597233E+03</pdfrwt>
<pdfrwt beam="2">  1       -2 0.11503602E-01 0.51597233E+03</pdfrwt>
<totfact> 0.19875525E+03</totfact>
</mgrwt>
</event>
<event>
 4    1  0.1049403E-004  0.5154720E+03  0.7818608E-02  0.1009818E+00
         -2   -1    0    0    0  501 -0.00000000000E+00  0.00000000000E+00  0.21670355107E+02  0.21670355257E+02  0.25500000000E-02 0. -1.
          2   -1    0    0  501    0  0.00000000000E+00 -0.00000000000E+00 -0.30653784596E+04  0.30653784596E+04  0.25500000000E-02 0.  1.
    5000001    1    1    2    0    0  0.87575964523E+02  0.15319584406E+03 -0.20596560539E+04  0.20737759224E+04  0.16500000000E+03 0.  0.
   -5000001    1    1    2    0    0 -0.87575964523E+02 -0.15319584406E+03 -0.98405205064E+03  0.10132728924E+04  0.16500000000E+03 0.  0.
<mgrwt>
<rscale>  0 0.51547198E+03</rscale>
<asrwt>0</asrwt>
<pdfrwt beam="1">  1        2 0.43791093E+00 0.51547198E+03</pdfrwt>
<pdfrwt beam="2">  1       -2 0.30957670E-02 0.51547198E+03</pdfrwt>
<totfact> 0.10029607E+03</totfact>
</mgrwt>
</event>
<event>
 4    1  0.1049403E-004  0.8240195E+03  0.7818608E-02  0.9525886E-01
         -2   -1    0    0    0  501 -0.00000000000E+00  0.00000000000E+00  0.21619259848E+03  0.21619259849E+03  0.25500000000E-02 0. -1.
          2   -1    0    0  501    0  0.00000000000E+00 -0.00000000000E+00 -0.78518897560E+03  0.78518897560E+03  0.25500000000E-02 0.  1.
    5000001    1    1    2    0    0  0.35069290449E+03  0.10146426251E+03 -0.40135434683E+03  0.56708978261E+03  0.16500000000E+03 0.  0.
   -5000001    1    1    2    0    0 -0.35069290449E+03 -0.10146426251E+03 -0.16764203029E+03  0.43429179148E+03  0.16500000000E+03 0.  0.
<mgrwt>
<rscale>  0 0.82401953E+03</rscale>
<asrwt>0</asrwt>
<pdfrwt beam="1">  1        2 0.11216985E+00 0.82401953E+03</pdfrwt>
<pdfrwt beam="2">  1       -2 0.30884657E-01 0.82401953E+03</pdfrwt>
<totfact> 0.37894814E+02</totfact>
</mgrwt>
</event>
<event>
 4    1  0.1049403E-004  0.4880302E+03  0.7818608E-02  0.1016951E+00
         -2   -1    0    0    0  501 -0.00000000000E+00  0.00000000000E+00  0.18160900643E+02  0.18160900822E+02  0.25500000000E-02 0. -1.
          2   -1    0    0  501    0  0.00000000000E+00 -0.00000000000E+00 -0.32786569453E+04  0.32786569453E+04  0.25500000000E-02 0.  1.
    5000001    1    1    2    0    0 -0.11743713601E+03 -0.13362884386E+03 -0.18051340785E+04  0.18213682193E+04  0.16500000000E+03 0.  0.
   -5000001    1    1    2    0    0  0.11743713601E+03  0.13362884386E+03 -0.14553619661E+04  0.14754496268E+04  0.16500000000E+03 0.  0.
<mgrwt>
<rscale>  0 0.48803018E+03</rscale>
<asrwt>0</asrwt>
<pdfrwt beam="1">  1        2 0.46837919E+00 0.48803018E+03</pdfrwt>
<pdfrwt beam="2">  1       -2 0.25944165E-02 0.48803018E+03</pdfrwt>
<totfact> 0.99961728E+02</totfact>
</mgrwt>
</event>
<event>
 4    1  0.1049403E-004  0.4665016E+03  0.7818608E-02  0.1022912E+00
         -2   -1    0    0    0  501 -0.00000000000E+00  0.00000000000E+00  0.32367538073E+02  0.32367538173E+02  0.25500000000E-02 0. -1.
          2   -1    0    0  501    0  0.00000000000E+00 -0.00000000000E+00 -0.16808794223E+04  0.16808794223E+04  0.25500000000E-02 0.  1.
    5000001    1    1    2    0    0  0.51028114301E+02 -0.14114586678E+03 -0.57368987660E+03  0.61552505934E+03  0.16500000000E+03 0.  0.
   -5000001    1    1    2    0    0 -0.51028114301E+02  0.14114586678E+03 -0.10748220076E+04  0.10977219012E+04  0.16500000000E+03 0.  0.
<mgrwt>
<rscale>  0 0.46650157E+03</rscale>
<asrwt>0</asrwt>
<pdfrwt beam="1">  1        2 0.24012558E+00 0.46650157E+03</pdfrwt>
<pdfrwt beam="2">  1       -2 0.46239351E-02 0.46650157E+03</pdfrwt>
<totfact> 0.27862377E+03</totfact>
</mgrwt>
</event>
<event>
 4    1  0.1049403E-004  0.5355328E+03  0.7818608E-02  0.1004899E+00
         -2   -1    0    0    0  501 -0.00000000000E+00  0.00000000000E+00  0.20611348123E+03  0.20611348125E+03  0.25500000000E-02 0. -1.
          2   -1    0    0  501    0  0.00000000000E+00 -0.00000000000E+00 -0.34786100524E+03  0.34786100525E+03  0.25500000000E-02 0.  1.
    5000001    1    1    2    0    0 -0.18890644864E+03  0.89776852513E+02 -0.98790378697E+02  0.28413037238E+03  0.16500000000E+03 0.  0.
   -5000001    1    1    2    0    0  0.18890644864E+03 -0.89776852513E+02 -0.42957145310E+02  0.26984411411E+03  0.16500000000E+03 0.  0.
<mgrwt>
<rscale>  0 0.53553279E+03</rscale>
<asrwt>0</asrwt>
<pdfrwt beam="1">  1        2 0.49694429E-01 0.53553279E+03</pdfrwt>
<pdfrwt beam="2">  1       -2 0.29444783E-01 0.53553279E+03</pdfrwt>
<totfact> 0.10742444E+03</totfact>
</mgrwt>
</event>
<event>
 4    1  0.1049403E-004  0.1640220E+04  0.7818608E-02  0.8796213E-01
         -2   -1    0    0    0  501 -0.00000000000E+00  0.00000000000E+00  0.33571201241E+03  0.33571201242E+03  0.25500000000E-02 0. -1.
          2   -1    0    0  501    0  0.00000000000E+00 -0.00000000000E+00 -0.20034439765E+04  0.20034439765E+04  0.25500000000E-02 0.  1.
    5000001    1    1    2    0    0 -0.63824375461E+03 -0.48336625085E+03 -0.73972901253E+03  0.11024618065E+04  0.16500000000E+03 0.  0.
   -5000001    1    1    2    0    0  0.63824375461E+03  0.48336625085E+03 -0.92800295152E+03  0.12366941824E+04  0.16500000000E+03 0.  0.
<mgrwt>
<rscale>  0 0.16402198E+04</rscale>
<asrwt>0</asrwt>
<pdfrwt beam="1">  1        2 0.28620628E+00 0.16402198E+04</pdfrwt>
<pdfrwt beam="2">  1       -2 0.47958860E-01 0.16402198E+04</pdfrwt>
<totfact> 0.31528982E+01</totfact>
</mgrwt>
</event>
<event>
 4    1  0.1049403E-004  0.5852369E+03  0.7818608E-02  0.9936517E-01
          2   -1    0    0  501    0  0.00000000000E+00  0.00000000000E+00  0.45778215572E+03  0.45778215572E+03  0.25500000000E-02 0.  1.
         -2   -1    0    0    0  501 -0.00000000000E+00 -0.00000000000E+00 -0.18704433584E+03  0.18704433585E+03  0.25500000000E-02 0. -1.
    5000001    1    1    2    0    0  0.33787031622E+02  0.15736671740E+03  0.33398641008E+03  0.40580508790E+03  0.16500000000E+03 0.  0.
   -5000001    1    1    2    0    0 -0.33787031622E+02 -0.15736671740E+03 -0.63248590196E+02  0.23902140367E+03  0.16500000000E+03 0.  0.
<mgrwt>
<rscale>  0 0.58523691E+03</rscale>
<asrwt>0</asrwt>
<pdfrwt beam="1">  1        2 0.65397449E-01 0.58523691E+03</pdfrwt>
<pdfrwt beam="2">  1       -2 0.26720620E-01 0.58523691E+03</pdfrwt>
<totfact> 0.94515477E+02</totfact>
</mgrwt>
</event>
<event>
 4    1  0.1049403E-004  0.3972197E+03  0.7818608E-02  0.1044747E+00
         -2   -1    0    0    0  501 -0.00000000000E+00  0.00000000000E+00  0.61841678640E+02  0.61841678693E+02  0.25500000000E-02 0. -1.
          2   -1    0    0  501    0  0.00000000000E+00 -0.00000000000E+00 -0.63785255195E+03  0.63785255195E+03  0.25500000000E-02 0.  1.
    5000001    1    1    2    0    0  0.88565194670E+02  0.55721761656E+02 -0.35083283648E+03  0.40156865861E+03  0.16500000000E+03 0.  0.
   -5000001    1    1    2    0    0 -0.88565194670E+02 -0.55721761656E+02 -0.22517803683E+03  0.29812557203E+03  0.16500000000E+03 0.  0.
<mgrwt>
<rscale>  0 0.39721970E+03</rscale>
<asrwt>0</asrwt>
<pdfrwt beam="1">  1        2 0.91121789E-01 0.39721970E+03</pdfrwt>
<pdfrwt beam="2">  1       -2 0.88345259E-02 0.39721970E+03</pdfrwt>
<totfact> 0.41699275E+03</totfact>
</mgrwt>
</event>
<event>
 4    1  0.1049403E-004  0.8813515E+03  0.7818608E-02  0.9449198E-01
          2   -1    0    0  501    0  0.00000000000E+00  0.00000000000E+00  0.24702362197E+04  0.24702362197E+04  0.25500000000E-02 0.  1.
         -2   -1    0    0    0  501 -0.00000000000E+00 -0.00000000000E+00 -0.78613994234E+02  0.78613994275E+02  0.25500000000E-02 0. -1.
    5000001    1    1    2    0    0 -0.24772754134E+02  0.39456516427E+03  0.89701525920E+03  0.99406072925E+03  0.16500000000E+03 0.  0.
   -5000001    1    1    2    0    0  0.24772754134E+02 -0.39456516427E+03  0.14946069662E+04  0.15547894847E+04  0.16500000000E+03 0.  0.
<mgrwt>
<rscale>  0 0.88135154E+03</rscale>
<asrwt>0</asrwt>
<pdfrwt beam="1">  1        2 0.35289090E+00 0.88135154E+03</pdfrwt>
<pdfrwt beam="2">  1       -2 0.11230570E-01 0.88135154E+03</pdfrwt>
<totfact> 0.26476638E+02</totfact>
</mgrwt>
</event>
<event>
 4    1  0.1049403E-004  0.5678087E+03  0.7818608E-02  0.9974539E-01
          2   -1    0    0  501    0  0.00000000000E+00  0.00000000000E+00  0.11304887963E+03  0.11304887966E+03  0.25500000000E-02 0.  1.
         -2   -1    0    0    0  501 -0.00000000000E+00 -0.00000000000E+00 -0.71298088518E+03  0.71298088519E+03  0.25500000000E-02 0. -1.
    5000001    1    1    2    0    0 -0.13368430940E+03  0.12952134272E+03 -0.10087310782E+03  0.26841694559E+03  0.16500000000E+03 0.  0.
   -5000001    1    1    2    0    0  0.13368430940E+03 -0.12952134272E+03 -0.49905889773E+03  0.55761281926E+03  0.16500000000E+03 0.  0.
<mgrwt>
<rscale>  0 0.56780874E+03</rscale>
<asrwt>0</asrwt>
<pdfrwt beam="1">  1        2 0.16149840E-01 0.56780874E+03</pdfrwt>
<pdfrwt beam="2">  1       -2 0.10185441E+00 0.56780874E+03</pdfrwt>
<totfact> 0.29330356E+02</totfact>
</mgrwt>
</event>
<event>
 4    1  0.1049403E-004  0.8393432E+03  0.7818608E-02  0.9504753E-01
         -2   -1    0    0    0  501 -0.00000000000E+00  0.00000000000E+00  0.12854626596E+03  0.12854626599E+03  0.25500000000E-02 0. -1.
          2   -1    0    0  501    0  0.00000000000E+00 -0.00000000000E+00 -0.13701234560E+04  0.13701234560E+04  0.25500000000E-02 0.  1.
    5000001    1    1    2    0    0  0.30823738380E+03 -0.88230463462E+02 -0.10041755470E+04  0.10669528708E+04  0.16500000000E+03 0.  0.
   -5000001    1    1    2    0    0 -0.30823738380E+03  0.88230463462E+02 -0.23740164311E+03  0.43171685119E+03  0.16500000000E+03 0.  0.
<mgrwt>
<rscale>  0 0.83934321E+03</rscale>
<asrwt>0</asrwt>
<pdfrwt beam="1">  1        2 0.19573191E+00 0.83934321E+03</pdfrwt>
<pdfrwt beam="2">  1       -2 0.18363753E-01 0.83934321E+03</pdfrwt>
<totfact> 0.42706326E+02</totfact>
</mgrwt>
</event>
<event>
 4    1  0.1049403E-004  0.5068330E+03  0.7818608E-02  0.1012011E+00
         -2   -1    0    0    0  501 -0.00000000000E+00  0.00000000000E+00  0.11100478085E+03  0.11100478088E+03  0.25500000000E-02 0. -1.
          2   -1    0    0  501    0  0.00000000000E+00 -0.00000000000E+00 -0.57853296774E+03  0.57853296774E+03  0.25500000000E-02 0.  1.
    5000001    1    1    2    0    0 -0.18795512756E+03  0.33620347968E+02 -0.20222354277E+03  0.32338339324E+03  0.16500000000E+03 0.  0.
   -5000001    1    1    2    0    0  0.18795512756E+03 -0.33620347968E+02 -0.26530464412E+03  0.36615435538E+03  0.16500000000E+03 0.  0.
<mgrwt>
<rscale>  0 0.50683301E+03</rscale>
<asrwt>0</asrwt>
<pdfrwt beam="1">  1        2 0.82647565E-01 0.50683301E+03</pdfrwt>
<pdfrwt beam="2">  1       -2 0.15857826E-01 0.50683301E+03</pdfrwt>
<totfact> 0.18002340E+03</totfact>
</mgrwt>
</event>
<event>
 4    1  0.1049403E-004  0.4701935E+03  0.7818608E-02  0.1021866E+00
         -2   -1    0    0    0  501 -0.00000000000E+00  0.00000000000E+00  0.22037755579E+03  0.22037755580E+03  0.25500000000E-02 0. -1.
          2   -1    0    0  501    0  0.00000000000E+00 -0.00000000000E+00 -0.25079904771E+03  0.25079904772E+03  0.25500000000E-02 0.  1.
    5000001    1    1    2    0    0  0.22503469960E+02 -0.14079576927E+03  0.72811549949E+02  0.22990514699E+03  0.16500000000E+03 0.  0.
   -5000001    1    1    2    0    0 -0.22503469960E+02  0.14079576927E+03 -0.10323304187E+03  0.24127145654E+03  0.16500000000E+03 0.  0.
<mgrwt>
<rscale>  0 0.47019350E+03</rscale>
<asrwt>0</asrwt>
<pdfrwt beam="1">  1        2 0.35828435E-01 0.47019350E+03</pdfrwt>
<pdfrwt beam="2">  1       -2 0.31482508E-01 0.47019350E+03</pdfrwt>
<totfact> 0.13602628E+03</totfact>
</mgrwt>
</event>
<event>
 4    1  0.1049403E-004  0.3988947E+03  0.7818608E-02  0.1044163E+00
          2   -1    0    0  501    0  0.00000000000E+00  0.00000000000E+00  0.12471435718E+04  0.12471435718E+04  0.25500000000E-02 0.  1.
         -2   -1    0    0    0  501 -0.00000000000E+00 -0.00000000000E+00 -0.31896289607E+02  0.31896289709E+02  0.25500000000E-02 0. -1.
    5000001    1    1    2    0    0  0.51502309943E+02 -0.91958066117E+02  0.48571580243E+03  0.52369228998E+03  0.16500000000E+03 0.  0.
   -5000001    1    1    2    0    0 -0.51502309943E+02  0.91958066117E+02  0.72953147974E+03  0.75534757151E+03  0.16500000000E+03 0.  0.
<mgrwt>
<rscale>  0 0.39889474E+03</rscale>
<asrwt>0</asrwt>
<pdfrwt beam="1">  1        2 0.17816339E+00 0.39889474E+03</pdfrwt>
<pdfrwt beam="2">  1       -2 0.45566122E-02 0.39889474E+03</pdfrwt>
<totfact> 0.47897876E+03</totfact>
</mgrwt>
</event>
<event>
 4    1  0.1049403E-004  0.4312616E+03  0.7818608E-02  0.1033462E+00
         -2   -1    0    0    0  501 -0.00000000000E+00  0.00000000000E+00  0.39182649145E+02  0.39182649228E+02  0.25500000000E-02 0.  1.
          2   -1    0    0  501    0  0.00000000000E+00 -0.00000000000E+00 -0.11866642879E+04  0.11866642879E+04  0.25500000000E-02 0. -1.
    5000001    1    1    2    0    0 -0.10433714656E+03  0.77369961135E+02 -0.43450927367E+03  0.48259264390E+03  0.16500000000E+03 0.  0.
   -5000001    1    1    2    0    0  0.10433714656E+03 -0.77369961135E+02 -0.71297236512E+03  0.74325429327E+03  0.16500000000E+03 0.  0.
<mgrwt>
<rscale>  0 0.43126164E+03</rscale>
<asrwt>0</asrwt>
<pdfrwt beam="1">  1        2 0.16952345E+00 0.43126164E+03</pdfrwt>
<pdfrwt beam="2">  1       -2 0.55975221E-02 0.43126164E+03</pdfrwt>
<totfact> 0.37699995E+03</totfact>
</mgrwt>
</event>
<event>
 4    1  0.1049403E-004  0.6433201E+03  0.7818608E-02  0.9819395E-01
          2   -1    0    0  501    0  0.00000000000E+00  0.00000000000E+00  0.15445223086E+04  0.15445223086E+04  0.25500000000E-02 0.  1.
         -2   -1    0    0    0  501 -0.00000000000E+00 -0.00000000000E+00 -0.66988475120E+02  0.66988475169E+02  0.25500000000E-02 0. -1.
    5000001    1    1    2    0    0 -0.73473148118E+02  0.22174242366E+03  0.11075385142E+04  0.11438682470E+04  0.16500000000E+03 0.  0.
   -5000001    1    1    2    0    0  0.73473148118E+02 -0.22174242366E+03  0.36999531922E+03  0.46764253676E+03  0.16500000000E+03 0.  0.
<mgrwt>
<rscale>  0 0.64332012E+03</rscale>
<asrwt>0</asrwt>
<pdfrwt beam="1">  1        2 0.22064600E+00 0.64332012E+03</pdfrwt>
<pdfrwt beam="2">  1       -2 0.95697839E-02 0.64332012E+03</pdfrwt>
<totfact> 0.10354046E+03</totfact>
</mgrwt>
</event>
<event>
 4    1  0.1049403E-004  0.4880941E+03  0.7818608E-02  0.1016934E+00
          2   -1    0    0  501    0  0.00000000000E+00  0.00000000000E+00  0.35774455666E+03  0.35774455667E+03  0.25500000000E-02 0.  1.
         -2   -1    0    0    0  501 -0.00000000000E+00 -0.00000000000E+00 -0.16648457941E+03  0.16648457943E+03  0.25500000000E-02 0. -1.
    5000001    1    1    2    0    0  0.79272597016E+02 -0.14016281603E+03  0.96792087631E+01  0.23075624958E+03  0.16500000000E+03 0.  0.
   -5000001    1    1    2    0    0 -0.79272597016E+02  0.14016281603E+03  0.18158076849E+03  0.29347288652E+03  0.16500000000E+03 0.  0.
<mgrwt>
<rscale>  0 0.48809406E+03</rscale>
<asrwt>0</asrwt>
<pdfrwt beam="1">  1        2 0.51106366E-01 0.48809406E+03</pdfrwt>
<pdfrwt beam="2">  1       -2 0.23783511E-01 0.48809406E+03</pdfrwt>
<totfact> 0.15313354E+03</totfact>
</mgrwt>
</event>
<event>
 4    1  0.1049403E-004  0.3496860E+03  0.7818608E-02  0.1062744E+00
         -2   -1    0    0    0  501 -0.00000000000E+00  0.00000000000E+00  0.36823623419E+02  0.36823623507E+02  0.25500000000E-02 0. -1.
          2   -1    0    0  501    0  0.00000000000E+00 -0.00000000000E+00 -0.83017548581E+03  0.83017548582E+03  0.25500000000E-02 0.  1.
    5000001    1    1    2    0    0 -0.24358113786E+02  0.39040103632E+02 -0.30980533702E+03  0.35400818386E+03  0.16500000000E+03 0.  0.
   -5000001    1    1    2    0    0  0.24358113786E+02 -0.39040103632E+02 -0.48354652538E+03  0.51299092546E+03  0.16500000000E+03 0.  0.
<mgrwt>
<rscale>  0 0.34968597E+03</rscale>
<asrwt>0</asrwt>
<pdfrwt beam="1">  1        2 0.11859649E+00 0.34968597E+03</pdfrwt>
<pdfrwt beam="2">  1       -2 0.52605182E-02 0.34968597E+03</pdfrwt>
<totfact> 0.67730920E+03</totfact>
</mgrwt>
</event>
<event>
 4    1  0.1049403E-004  0.4591355E+03  0.7818608E-02  0.1025032E+00
          2   -1    0    0  501    0  0.00000000000E+00  0.00000000000E+00  0.11956709987E+04  0.11956709987E+04  0.25500000000E-02 0.  1.
         -2   -1    0    0    0  501 -0.00000000000E+00 -0.00000000000E+00 -0.44076792978E+02  0.44076793051E+02  0.25500000000E-02 0. -1.
    5000001    1    1    2    0    0  0.13355460384E+03 -0.75403767235E+02  0.45644484269E+03  0.50900830517E+03  0.16500000000E+03 0.  0.
   -5000001    1    1    2    0    0 -0.13355460384E+03  0.75403767235E+02  0.69514936300E+03  0.73073948655E+03  0.16500000000E+03 0.  0.
<mgrwt>
<rscale>  0 0.45913546E+03</rscale>
<asrwt>0</asrwt>
<pdfrwt beam="1">  1        2 0.17081015E+00 0.45913546E+03</pdfrwt>
<pdfrwt beam="2">  1       -2 0.62966843E-02 0.45913546E+03</pdfrwt>
<totfact> 0.31045254E+03</totfact>
</mgrwt>
</event>
<event>
 4    1  0.1049403E-004  0.7010179E+03  0.7818608E-02  0.9715493E-01
          2   -1    0    0  501    0  0.00000000000E+00  0.00000000000E+00  0.38180246103E+04  0.38180246103E+04  0.25500000000E-02 0.  1.
         -2   -1    0    0    0  501 -0.00000000000E+00 -0.00000000000E+00 -0.32178031388E+02  0.32178031489E+02  0.25500000000E-02 0. -1.
    5000001    1    1    2    0    0  0.21683166285E+03 -0.21237582376E+03  0.22184114337E+04  0.22451489370E+04  0.16500000000E+03 0.  0.
   -5000001    1    1    2    0    0 -0.21683166285E+03  0.21237582376E+03  0.15674351452E+04  0.16050537047E+04  0.16500000000E+03 0.  0.
<mgrwt>
<rscale>  0 0.70101788E+03</rscale>
<asrwt>0</asrwt>
<pdfrwt beam="1">  1        2 0.54543226E+00 0.70101788E+03</pdfrwt>
<pdfrwt beam="2">  1       -2 0.45968602E-02 0.70101788E+03</pdfrwt>
<totfact> 0.19291548E+02</totfact>
</mgrwt>
</event>
<event>
 4    1  0.1049403E-004  0.4933180E+03  0.7818608E-02  0.1015538E+00
         -2   -1    0    0    0  501 -0.00000000000E+00  0.00000000000E+00  0.35611446642E+02  0.35611446734E+02  0.25500000000E-02 0. -1.
          2   -1    0    0  501    0  0.00000000000E+00 -0.00000000000E+00 -0.17084582681E+04  0.17084582681E+04  0.25500000000E-02 0.  1.
    5000001    1    1    2    0    0 -0.12643853954E+02  0.18285583932E+03 -0.85205346509E+03  0.88702662439E+03  0.16500000000E+03 0.  0.
   -5000001    1    1    2    0    0  0.12643853954E+02 -0.18285583932E+03 -0.82079335640E+03  0.85704309047E+03  0.16500000000E+03 0.  0.
<mgrwt>
<rscale>  0 0.49331803E+03</rscale>
<asrwt>0</asrwt>
<pdfrwt beam="1">  1        2 0.24406541E+00 0.49331803E+03</pdfrwt>
<pdfrwt beam="2">  1       -2 0.50873506E-02 0.49331803E+03</pdfrwt>
<totfact> 0.23275285E+03</totfact>
</mgrwt>
</event>
<event>
 4    1  0.1049403E-004  0.4076892E+03  0.7818608E-02  0.1041149E+00
         -2   -1    0    0    0  501 -0.00000000000E+00  0.00000000000E+00  0.20563431683E+03  0.20563431685E+03  0.25500000000E-02 0. -1.
          2   -1    0    0  501    0  0.00000000000E+00 -0.00000000000E+00 -0.20207048601E+03  0.20207048602E+03  0.25500000000E-02 0.  1.
    5000001    1    1    2    0    0  0.35646708559E+02 -0.10997324388E+03 -0.29248677895E+02  0.20358115669E+03  0.16500000000E+03 0.  0.
   -5000001    1    1    2    0    0 -0.35646708559E+02  0.10997324388E+03  0.32812508723E+02  0.20412364618E+03  0.16500000000E+03 0.  0.
<mgrwt>
<rscale>  0 0.40768923E+03</rscale>
<asrwt>0</asrwt>
<pdfrwt beam="1">  1        2 0.28867212E-01 0.40768923E+03</pdfrwt>
<pdfrwt beam="2">  1       -2 0.29376331E-01 0.40768923E+03</pdfrwt>
<totfact> 0.19605988E+03</totfact>
</mgrwt>
</event>
<event>
 4    1  0.1049403E-004  0.4176032E+03  0.7818608E-02  0.1037849E+00
         -2   -1    0    0    0  501 -0.00000000000E+00  0.00000000000E+00  0.54343146267E+02  0.54343146327E+02  0.25500000000E-02 0. -1.
          2   -1    0    0  501    0  0.00000000000E+00 -0.00000000000E+00 -0.80227446435E+03  0.80227446435E+03  0.25500000000E-02 0.  1.
    5000001    1    1    2    0    0 -0.36872610341E+02 -0.10477698121E+03 -0.24366045405E+03  0.31453651942E+03  0.16500000000E+03 0.  0.
   -5000001    1    1    2    0    0  0.36872610341E+02  0.10477698121E+03 -0.50427086403E+03  0.54208109125E+03  0.16500000000E+03 0.  0.
<mgrwt>
<rscale>  0 0.41760325E+03</rscale>
<asrwt>0</asrwt>
<pdfrwt beam="1">  1        2 0.11461063E+00 0.41760325E+03</pdfrwt>
<pdfrwt beam="2">  1       -2 0.77633071E-02 0.41760325E+03</pdfrwt>
<totfact> 0.38748374E+03</totfact>
</mgrwt>
</event>
<event>
 4    1  0.1049403E-004  0.3808566E+03  0.7818608E-02  0.1050618E+00
         -2   -1    0    0    0  501 -0.00000000000E+00  0.00000000000E+00  0.20200862572E+02  0.20200862733E+02  0.25500000000E-02 0. -1.
          2   -1    0    0  501    0  0.00000000000E+00 -0.00000000000E+00 -0.17951181054E+04  0.17951181054E+04  0.25500000000E-02 0.  1.
    5000001    1    1    2    0    0  0.53535405542E+02 -0.70354774392E+02 -0.72083179754E+03  0.74474110553E+03  0.16500000000E+03 0.  0.
   -5000001    1    1    2    0    0 -0.53535405542E+02  0.70354774392E+02 -0.10540854453E+04  0.10705778626E+04  0.16500000000E+03 0.  0.
<mgrwt>
<rscale>  0 0.38085658E+03</rscale>
<asrwt>0</asrwt>
<pdfrwt beam="1">  1        2 0.25644534E+00 0.38085658E+03</pdfrwt>
<pdfrwt beam="2">  1       -2 0.28858387E-02 0.38085658E+03</pdfrwt>
<totfact> 0.50003316E+03</totfact>
</mgrwt>
</event>
<event>
 4    1  0.1049403E-004  0.4329963E+03  0.7818608E-02  0.1032918E+00
          2   -1    0    0  501    0  0.00000000000E+00  0.00000000000E+00  0.12105268813E+04  0.12105268813E+04  0.25500000000E-02 0.  1.
         -2   -1    0    0    0  501 -0.00000000000E+00 -0.00000000000E+00 -0.38719866649E+02  0.38719866733E+02  0.25500000000E-02 0. -1.
    5000001    1    1    2    0    0  0.11714992928E+03  0.40827258853E+02  0.39769563931E+03  0.44808235016E+03  0.16500000000E+03 0.  0.
   -5000001    1    1    2    0    0 -0.11714992928E+03 -0.40827258853E+02  0.77411137537E+03  0.80116439791E+03  0.16500000000E+03 0.  0.
<mgrwt>
<rscale>  0 0.43299626E+03</rscale>
<asrwt>0</asrwt>
<pdfrwt beam="1">  1        2 0.17293239E+00 0.43299626E+03</pdfrwt>
<pdfrwt beam="2">  1       -2 0.55314101E-02 0.43299626E+03</pdfrwt>
<totfact> 0.37249610E+03</totfact>
</mgrwt>
</event>
<event>
 4    1  0.1049403E-004  0.4059383E+03  0.7818608E-02  0.1041743E+00
         -2   -1    0    0    0  501 -0.00000000000E+00  0.00000000000E+00  0.74782639198E+02  0.74782639242E+02  0.25500000000E-02 0. -1.
          2   -1    0    0  501    0  0.00000000000E+00 -0.00000000000E+00 -0.55088288926E+03  0.55088288926E+03  0.25500000000E-02 0.  1.
    5000001    1    1    2    0    0  0.10026560427E+03 -0.60225098703E+02 -0.21174777086E+03  0.29281798506E+03  0.16500000000E+03 0.  0.
   -5000001    1    1    2    0    0 -0.10026560427E+03  0.60225098703E+02 -0.26435247920E+03  0.33284754344E+03  0.16500000000E+03 0.  0.
<mgrwt>
<rscale>  0 0.40593830E+03</rscale>
<asrwt>0</asrwt>
<pdfrwt beam="1">  1        2 0.78697553E-01 0.40593830E+03</pdfrwt>
<pdfrwt beam="2">  1       -2 0.10683234E-01 0.40593830E+03</pdfrwt>
<totfact> 0.36457576E+03</totfact>
</mgrwt>
</event>
<event>
 4    1  0.1049403E-004  0.4230699E+03  0.7818608E-02  0.1036072E+00
         -2   -1    0    0    0  501 -0.00000000000E+00  0.00000000000E+00  0.15450992696E+03  0.15450992698E+03  0.25500000000E-02 0. -1.
          2   -1    0    0  501    0  0.00000000000E+00 -0.00000000000E+00 -0.28960616676E+03  0.28960616678E+03  0.25500000000E-02 0.  1.
    5000001    1    1    2    0    0  0.93947715649E+02 -0.60206337039E+02  0.72057060297E+01  0.19931858542E+03  0.16500000000E+03 0.  0.
   -5000001    1    1    2    0    0 -0.93947715649E+02  0.60206337039E+02 -0.14230194584E+03  0.24479750833E+03  0.16500000000E+03 0.  0.
<mgrwt>
<rscale>  0 0.42306987E+03</rscale>
<asrwt>0</asrwt>
<pdfrwt beam="1">  1        2 0.41372309E-01 0.42306987E+03</pdfrwt>
<pdfrwt beam="2">  1       -2 0.22072847E-01 0.42306987E+03</pdfrwt>
<totfact> 0.21985071E+03</totfact>
</mgrwt>
</event>
<event>
 4    1  0.1049403E-004  0.4408623E+03  0.7818608E-02  0.1030483E+00
          2   -1    0    0  501    0  0.00000000000E+00  0.00000000000E+00  0.40574644914E+02  0.40574644994E+02  0.25500000000E-02 0.  1.
         -2   -1    0    0    0  501 -0.00000000000E+00 -0.00000000000E+00 -0.11975434474E+04  0.11975434474E+04  0.25500000000E-02 0. -1.
    5000001    1    1    2    0    0  0.13580156549E+03 -0.44186438078E+02 -0.66596929224E+03  0.70080996333E+03  0.16500000000E+03 0.  0.
   -5000001    1    1    2    0    0 -0.13580156549E+03  0.44186438078E+02 -0.49099951026E+03  0.53730812908E+03  0.16500000000E+03 0.  0.
<mgrwt>
<rscale>  0 0.44086234E+03</rscale>
<asrwt>0</asrwt>
<pdfrwt beam="1">  1        2 0.57963786E-02 0.44086234E+03</pdfrwt>
<pdfrwt beam="2">  1       -2 0.17107761E+00 0.44086234E+03</pdfrwt>
<totfact> 0.28961330E+02</totfact>
</mgrwt>
</event>
<event>
 4    1  0.1049403E-004  0.4916990E+03  0.7818608E-02  0.1015969E+00
          2   -1    0    0  501    0  0.00000000000E+00  0.00000000000E+00  0.20090584601E+04  0.20090584601E+04  0.25500000000E-02 0.  1.
         -2   -1    0    0    0  501 -0.00000000000E+00 -0.00000000000E+00 -0.30084732941E+02  0.30084733049E+02  0.25500000000E-02 0. -1.
    5000001    1    1    2    0    0 -0.15883826196E+03 -0.13461667315E+02  0.13558970752E+04  0.13751700580E+04  0.16500000000E+03 0.  0.
   -5000001    1    1    2    0    0  0.15883826196E+03  0.13461667315E+02  0.62307665195E+03  0.66397313512E+03  0.16500000000E+03 0.  0.
<mgrwt>
<rscale>  0 0.49169904E+03</rscale>
<asrwt>0</asrwt>
<pdfrwt beam="1">  1        2 0.28700836E+00 0.49169904E+03</pdfrwt>
<pdfrwt beam="2">  1       -2 0.42978189E-02 0.49169904E+03</pdfrwt>
<totfact> 0.21340601E+03</totfact>
</mgrwt>
</event>
<event>
 4    1  0.1049403E-004  0.3479231E+03  0.7818608E-02  0.1063471E+00
          2   -1    0    0  501    0  0.00000000000E+00  0.00000000000E+00  0.14888390606E+03  0.14888390608E+03  0.25500000000E-02 0.  1.
         -2   -1    0    0    0  501 -0.00000000000E+00 -0.00000000000E+00 -0.20326322297E+03  0.20326322299E+03  0.25500000000E-02 0. -1.
    5000001    1    1    2    0    0 -0.40694765520E+02 -0.36988368341E+02 -0.30897364319E+02  0.17664611644E+03  0.16500000000E+03 0.  0.
   -5000001    1    1    2    0    0  0.40694765520E+02  0.36988368341E+02 -0.23481952593E+02  0.17550101262E+03  0.16500000000E+03 0.  0.
<mgrwt>
<rscale>  0 0.34792311E+03</rscale>
<asrwt>0</asrwt>
<pdfrwt beam="1">  1        2 0.21269130E-01 0.34792311E+03</pdfrwt>
<pdfrwt beam="2">  1       -2 0.29037603E-01 0.34792311E+03</pdfrwt>
<totfact> 0.28197870E+03</totfact>
</mgrwt>
</event>
<event>
 4    1  0.1049403E-004  0.4401396E+03  0.7818608E-02  0.1030704E+00
          2   -1    0    0  501    0  0.00000000000E+00  0.00000000000E+00  0.13138853534E+04  0.13138853534E+04  0.25500000000E-02 0.  1.
         -2   -1    0    0    0  501 -0.00000000000E+00 -0.00000000000E+00 -0.36860692036E+02  0.36860692125E+02  0.25500000000E-02 0. -1.
    5000001    1    1    2    0    0  0.13164916759E+03  0.57303059018E+02  0.71309233958E+03  0.74588258370E+03  0.16500000000E+03 0.  0.
   -5000001    1    1    2    0    0 -0.13164916759E+03 -0.57303059018E+02  0.56393232178E+03  0.60486346182E+03  0.16500000000E+03 0.  0.
<mgrwt>
<rscale>  0 0.44013963E+03</rscale>
<asrwt>0</asrwt>
<pdfrwt beam="1">  1        2 0.18769791E+00 0.44013963E+03</pdfrwt>
<pdfrwt beam="2">  1       -2 0.52658132E-02 0.44013963E+03</pdfrwt>
<totfact> 0.35320839E+03</totfact>
</mgrwt>
</event>
<event>
 4    1  0.1049403E-004  0.4643056E+03  0.7818608E-02  0.1023540E+00
         -2   -1    0    0    0  501 -0.00000000000E+00  0.00000000000E+00  0.17359425976E+02  0.17359426164E+02  0.25500000000E-02 0.  1.
          2   -1    0    0  501    0  0.00000000000E+00 -0.00000000000E+00 -0.31046486087E+04  0.31046486087E+04  0.25500000000E-02 0. -1.
    5000001    1    1    2    0    0 -0.15517698928E+03 -0.27932030485E+02 -0.18296985781E+04  0.18438768894E+04  0.16500000000E+03 0.  0.
   -5000001    1    1    2    0    0  0.15517698928E+03  0.27932030485E+02 -0.12575906046E+04  0.12781311455E+04  0.16500000000E+03 0.  0.
<mgrwt>
<rscale>  0 0.46430558E+03</rscale>
<asrwt>0</asrwt>
<pdfrwt beam="1">  1        2 0.44352088E+00 0.46430558E+03</pdfrwt>
<pdfrwt beam="2">  1       -2 0.24799200E-02 0.46430558E+03</pdfrwt>
<totfact> 0.13405708E+03</totfact>
</mgrwt>
</event>
<event>
 4    1  0.1049403E-004  0.7325121E+03  0.7818608E-02  0.9663193E-01
          2   -1    0    0  501    0  0.00000000000E+00  0.00000000000E+00  0.14481378823E+04  0.14481378823E+04  0.25500000000E-02 0.  1.
         -2   -1    0    0    0  501 -0.00000000000E+00 -0.00000000000E+00 -0.92631725461E+02  0.92631725496E+02  0.25500000000E-02 0. -1.
    5000001    1    1    2    0    0  0.40274398443E+02  0.29072605911E+03  0.98092692910E+03  0.10371047724E+04  0.16500000000E+03 0.  0.
   -5000001    1    1    2    0    0 -0.40274398443E+02 -0.29072605911E+03  0.37457922776E+03  0.50366483547E+03  0.16500000000E+03 0.  0.
<mgrwt>
<rscale>  0 0.73251215E+03</rscale>
<asrwt>0</asrwt>
<pdfrwt beam="1">  1        2 0.20687685E+00 0.73251215E+03</pdfrwt>
<pdfrwt beam="2">  1       -2 0.13233103E-01 0.73251215E+03</pdfrwt>
<totfact> 0.68047650E+02</totfact>
</mgrwt>
</event>
<event>
 4    1  0.1049403E-004  0.4356334E+03  0.7818608E-02  0.1032095E+00
          2   -1    0    0  501    0  0.00000000000E+00  0.00000000000E+00  0.21581934746E+04  0.21581934746E+04  0.25500000000E-02 0.  1.
         -2   -1    0    0    0  501 -0.00000000000E+00 -0.00000000000E+00 -0.21983251780E+02  0.21983251928E+02  0.25500000000E-02 0. -1.
    5000001    1    1    2    0    0  0.11247615506E+03  0.56182881015E+02  0.73569518541E+03  0.76438197743E+03  0.16500000000E+03 0.  0.
   -5000001    1    1    2    0    0 -0.11247615506E+03 -0.56182881015E+02  0.14005150374E+04  0.14157947491E+04  0.16500000000E+03 0.  0.
<mgrwt>
<rscale>  0 0.43563338E+03</rscale>
<asrwt>0</asrwt>
<pdfrwt beam="1">  1        2 0.30831326E+00 0.43563338E+03</pdfrwt>
<pdfrwt beam="2">  1       -2 0.31404655E-02 0.43563338E+03</pdfrwt>
<totfact> 0.29057899E+03</totfact>
</mgrwt>
</event>
<event>
 4    1  0.1049403E-004  0.6407536E+03  0.7818608E-02  0.9824286E-01
          2   -1    0    0  501    0  0.00000000000E+00  0.00000000000E+00  0.34347764847E+04  0.34347764847E+04  0.25500000000E-02 0.  1.
         -2   -1    0    0    0  501 -0.00000000000E+00 -0.00000000000E+00 -0.29882964817E+02  0.29882964926E+02  0.25500000000E-02 0. -1.
    5000001    1    1    2    0    0 -0.99439745033E+02  0.19521598053E+03  0.80709559219E+03  0.85242350793E+03  0.16500000000E+03 0.  0.
   -5000001    1    1    2    0    0  0.99439745033E+02 -0.19521598053E+03  0.25977979276E+04  0.26122359416E+04  0.16500000000E+03 0.  0.
<mgrwt>
<rscale>  0 0.64075363E+03</rscale>
<asrwt>0</asrwt>
<pdfrwt beam="1">  1        2 0.49068203E+00 0.64075363E+03</pdfrwt>
<pdfrwt beam="2">  1       -2 0.42689978E-02 0.64075363E+03</pdfrwt>
<totfact> 0.37406822E+02</totfact>
</mgrwt>
</event>
<event>
 4    1  0.1049403E-004  0.4594649E+03  0.7818608E-02  0.1024937E+00
          2   -1    0    0  501    0  0.00000000000E+00  0.00000000000E+00  0.37566855155E+04  0.37566855155E+04  0.25500000000E-02 0. -1.
         -2   -1    0    0    0  501 -0.00000000000E+00 -0.00000000000E+00 -0.14048819823E+02  0.14048820054E+02  0.25500000000E-02 0.  1.
    5000001    1    1    2    0    0 -0.76906052281E+02 -0.52098192182E+02  0.80370179090E+03  0.82570595928E+03  0.16500000000E+03 0.  0.
   -5000001    1    1    2    0    0  0.76906052281E+02  0.52098192182E+02  0.29389349048E+04  0.29450283763E+04  0.16500000000E+03 0.  0.
<mgrwt>
<rscale>  0 0.45946490E+03</rscale>
<asrwt>0</asrwt>
<pdfrwt beam="1">  1        2 0.53666981E+00 0.45946490E+03</pdfrwt>
<pdfrwt beam="2">  1       -2 0.20069726E-02 0.45946490E+03</pdfrwt>
<totfact> 0.76780095E+02</totfact>
</mgrwt>
</event>
<event>
 4    1  0.1049403E-004  0.1087348E+04  0.7818608E-02  0.9217612E-01
         -2   -1    0    0    0  501 -0.00000000000E+00  0.00000000000E+00  0.24766573937E+03  0.24766573938E+03  0.25500000000E-02 0. -1.
          2   -1    0    0  501    0  0.00000000000E+00 -0.00000000000E+00 -0.11934680785E+04  0.11934680785E+04  0.25500000000E-02 0.  1.
    5000001    1    1    2    0    0 -0.38300887476E+03  0.92760176202E+02 -0.27262806513E+02  0.42809871415E+03  0.16500000000E+03 0.  0.
   -5000001    1    1    2    0    0  0.38300887476E+03 -0.92760176202E+02 -0.91853953264E+03  0.10130351038E+04  0.16500000000E+03 0.  0.
<mgrwt>
<rscale>  0 0.10873475E+04</rscale>
<asrwt>0</asrwt>
<pdfrwt beam="1">  1        2 0.17049544E+00 0.10873475E+04</pdfrwt>
<pdfrwt beam="2">  1       -2 0.35380821E-01 0.10873475E+04</pdfrwt>
<totfact> 0.16042782E+02</totfact>
</mgrwt>
</event>
<event>
 4    1  0.1049403E-004  0.4085331E+03  0.7818608E-02  0.1040864E+00
          2   -1    0    0  501    0  0.00000000000E+00  0.00000000000E+00  0.19248170044E+04  0.19248170044E+04  0.25500000000E-02 0.  1.
         -2   -1    0    0    0  501 -0.00000000000E+00 -0.00000000000E+00 -0.21677298260E+02  0.21677298410E+02  0.25500000000E-02 0. -1.
    5000001    1    1    2    0    0  0.18473332575E+02  0.98421710567E+02  0.63295656422E+03  0.66173039020E+03  0.16500000000E+03 0.  0.
   -5000001    1    1    2    0    0 -0.18473332575E+02 -0.98421710567E+02  0.12701831419E+04  0.12847639126E+04  0.16500000000E+03 0.  0.
<mgrwt>
<rscale>  0 0.40853314E+03</rscale>
<asrwt>0</asrwt>
<pdfrwt beam="1">  1        2 0.27497370E+00 0.40853314E+03</pdfrwt>
<pdfrwt beam="2">  1       -2 0.30967587E-02 0.40853314E+03</pdfrwt>
<totfact> 0.38771615E+03</totfact>
</mgrwt>
</event>
<event>
 4    1  0.1049403E-004  0.7024693E+03  0.7818608E-02  0.9713019E-01
          2   -1    0    0  501    0  0.00000000000E+00  0.00000000000E+00  0.38418733455E+03  0.38418733455E+03  0.25500000000E-02 0.  1.
         -2   -1    0    0    0  501 -0.00000000000E+00 -0.00000000000E+00 -0.32110836387E+03  0.32110836388E+03  0.25500000000E-02 0. -1.
    5000001    1    1    2    0    0  0.81066286523E+02  0.29205154589E+03  0.97185416200E+02  0.35851897215E+03  0.16500000000E+03 0.  0.
   -5000001    1    1    2    0    0 -0.81066286523E+02 -0.29205154589E+03 -0.34106445528E+02  0.34677672629E+03  0.16500000000E+03 0.  0.
<mgrwt>
<rscale>  0 0.70246926E+03</rscale>
<asrwt>0</asrwt>
<pdfrwt beam="1">  1        2 0.54883905E-01 0.70246926E+03</pdfrwt>
<pdfrwt beam="2">  1       -2 0.45872623E-01 0.70246926E+03</pdfrwt>
<totfact> 0.41082199E+02</totfact>
</mgrwt>
</event>
<event>
 4    1  0.1049403E-004  0.4293635E+03  0.7818608E-02  0.1034061E+00
          2   -1    0    0  501    0  0.00000000000E+00  0.00000000000E+00  0.17997658048E+04  0.17997658048E+04  0.25500000000E-02 0.  1.
         -2   -1    0    0    0  501 -0.00000000000E+00 -0.00000000000E+00 -0.25607913281E+02  0.25607913408E+02  0.25500000000E-02 0. -1.
    5000001    1    1    2    0    0  0.94034034110E+02  0.68714218231E+02  0.57759936553E+03  0.61189057062E+03  0.16500000000E+03 0.  0.
   -5000001    1    1    2    0    0 -0.94034034110E+02 -0.68714218231E+02  0.11965585260E+04  0.12134831476E+04  0.16500000000E+03 0.  0.
<mgrwt>
<rscale>  0 0.42936347E+03</rscale>
<asrwt>0</asrwt>
<pdfrwt beam="1">  1        2 0.25710936E+00 0.42936347E+03</pdfrwt>
<pdfrwt beam="2">  1       -2 0.36582739E-02 0.42936347E+03</pdfrwt>
<totfact> 0.34757413E+03</totfact>
</mgrwt>
</event>
<event>
 4    1  0.1049403E-004  0.3898700E+03  0.7818608E-02  0.1047345E+00
          2   -1    0    0  501    0  0.00000000000E+00  0.00000000000E+00  0.97056371153E+03  0.97056371153E+03  0.25500000000E-02 0.  1.
         -2   -1    0    0    0  501 -0.00000000000E+00 -0.00000000000E+00 -0.39152144768E+02  0.39152144851E+02  0.25500000000E-02 0. -1.
    5000001    1    1    2    0    0 -0.44804048701E+02 -0.13939628626E+02  0.22590856489E+03  0.28365717992E+03  0.16500000000E+03 0.  0.
   -5000001    1    1    2    0    0  0.44804048701E+02  0.13939628626E+02  0.70550300187E+03  0.72605867647E+03  0.16500000000E+03 0.  0.
<mgrwt>
<rscale>  0 0.38986998E+03</rscale>
<asrwt>0</asrwt>
<pdfrwt beam="1">  1        2 0.13865195E+00 0.38986998E+03</pdfrwt>
<pdfrwt beam="2">  1       -2 0.55931640E-02 0.38986998E+03</pdfrwt>
<totfact> 0.50315048E+03</totfact>
</mgrwt>
</event>
<event>
 4    1  0.1049403E-004  0.4645550E+03  0.7818608E-02  0.1023468E+00
         -2   -1    0    0    0  501 -0.00000000000E+00  0.00000000000E+00  0.40312451764E+02  0.40312451844E+02  0.25500000000E-02 0. -1.
          2   -1    0    0  501    0  0.00000000000E+00 -0.00000000000E+00 -0.13383666127E+04  0.13383666127E+04  0.25500000000E-02 0.  1.
    5000001    1    1    2    0    0 -0.13701770865E+03 -0.87488501267E+02 -0.59764578224E+03  0.64096300312E+03  0.16500000000E+03 0.  0.
   -5000001    1    1    2    0    0  0.13701770865E+03  0.87488501267E+02 -0.70040837866E+03  0.73771606139E+03  0.16500000000E+03 0.  0.
<mgrwt>
<rscale>  0 0.46455501E+03</rscale>
<asrwt>0</asrwt>
<pdfrwt beam="1">  1        2 0.19119520E+00 0.46455501E+03</pdfrwt>
<pdfrwt beam="2">  1       -2 0.57589225E-02 0.46455501E+03</pdfrwt>
<totfact> 0.29836834E+03</totfact>
</mgrwt>
</event>
<event>
 4    1  0.1049403E-004  0.6063521E+03  0.7818608E-02  0.9892314E-01
         -2   -1    0    0    0  501 -0.00000000000E+00  0.00000000000E+00  0.23065358354E+03  0.23065358356E+03  0.25500000000E-02 0. -1.
          2   -1    0    0  501    0  0.00000000000E+00 -0.00000000000E+00 -0.39850108906E+03  0.39850108906E+03  0.25500000000E-02 0.  1.
    5000001    1    1    2    0    0 -0.38862628649E+02 -0.24100764014E+03 -0.15799254324E+03  0.33433759918E+03  0.16500000000E+03 0.  0.
   -5000001    1    1    2    0    0  0.38862628649E+02  0.24100764014E+03 -0.98549622736E+01  0.29481707344E+03  0.16500000000E+03 0.  0.
<mgrwt>
<rscale>  0 0.60635206E+03</rscale>
<asrwt>0</asrwt>
<pdfrwt beam="1">  1        2 0.56928727E-01 0.60635206E+03</pdfrwt>
<pdfrwt beam="2">  1       -2 0.32950512E-01 0.60635206E+03</pdfrwt>
<totfact> 0.74960609E+02</totfact>
</mgrwt>
</event>
<event>
 4    1  0.1049403E-004  0.1008753E+04  0.7818608E-02  0.9298996E-01
          2   -1    0    0  501    0  0.00000000000E+00  0.00000000000E+00  0.90242216305E+03  0.90242216305E+03  0.25500000000E-02 0.  1.
         -2   -1    0    0    0  501 -0.00000000000E+00 -0.00000000000E+00 -0.28190313246E+03  0.28190313247E+03  0.25500000000E-02 0. -1.
    5000001    1    1    2    0    0 -0.19543180005E+02  0.44056949102E+03  0.52252295148E+03  0.70337660405E+03  0.16500000000E+03 0.  0.
   -5000001    1    1    2    0    0  0.19543180005E+02 -0.44056949102E+03  0.97996079112E+02  0.48094869147E+03  0.16500000000E+03 0.  0.
<mgrwt>
<rscale>  0 0.10087530E+04</rscale>
<asrwt>0</asrwt>
<pdfrwt beam="1">  1        2 0.12891745E+00 0.10087530E+04</pdfrwt>
<pdfrwt beam="2">  1       -2 0.40271876E-01 0.10087530E+04</pdfrwt>
<totfact> 0.18841731E+02</totfact>
</mgrwt>
</event>
<event>
 4    1  0.1049403E-004  0.1263721E+04  0.7818608E-02  0.9058840E-01
         -2   -1    0    0    0  501 -0.00000000000E+00  0.00000000000E+00  0.14577608438E+04  0.14577608438E+04  0.25500000000E-02 0. -1.
          2   -1    0    0  501    0  0.00000000000E+00 -0.00000000000E+00 -0.27387748858E+03  0.27387748860E+03  0.25500000000E-02 0.  1.
    5000001    1    1    2    0    0 -0.47277587498E+03 -0.38535210626E+03  0.59618843299E+03  0.86872258022E+03  0.16500000000E+03 0.  0.
   -5000001    1    1    2    0    0  0.47277587498E+03  0.38535210626E+03  0.58769492226E+03  0.86291575221E+03  0.16500000000E+03 0.  0.
<mgrwt>
<rscale>  0 0.12637213E+04</rscale>
<asrwt>0</asrwt>
<pdfrwt beam="1">  1        2 0.39125356E-01 0.12637213E+04</pdfrwt>
<pdfrwt beam="2">  1       -2 0.20825154E+00 0.12637213E+04</pdfrwt>
<totfact> 0.15260787E+01</totfact>
</mgrwt>
</event>
<event>
 4    1  0.1049403E-004  0.5939404E+03  0.7818608E-02  0.9918058E-01
          2   -1    0    0  501    0  0.00000000000E+00  0.00000000000E+00  0.10269959480E+04  0.10269959480E+04  0.25500000000E-02 0.  1.
         -2   -1    0    0    0  501 -0.00000000000E+00 -0.00000000000E+00 -0.85873068695E+02  0.85873068733E+02  0.25500000000E-02 0. -1.
    5000001    1    1    2    0    0  0.11708482871E+03 -0.21671174477E+03  0.43846381979E+03  0.52929042945E+03  0.16500000000E+03 0.  0.
   -5000001    1    1    2    0    0 -0.11708482871E+03  0.21671174477E+03  0.50265905953E+03  0.58357858731E+03  0.16500000000E+03 0.  0.
<mgrwt>
<rscale>  0 0.59394038E+03</rscale>
<asrwt>0</asrwt>
<pdfrwt beam="1">  1        2 0.14671370E+00 0.59394038E+03</pdfrwt>
<pdfrwt beam="2">  1       -2 0.12267582E-01 0.59394038E+03</pdfrwt>
<totfact> 0.13330055E+03</totfact>
</mgrwt>
</event>
<event>
 4    1  0.1049403E-004  0.7666554E+03  0.7818608E-02  0.9609577E-01
         -2   -1    0    0    0  501 -0.00000000000E+00  0.00000000000E+00  0.71515989640E+02  0.71515989685E+02  0.25500000000E-02 0. -1.
          2   -1    0    0  501    0  0.00000000000E+00 -0.00000000000E+00 -0.20546470099E+04  0.20546470099E+04  0.25500000000E-02 0.  1.
    5000001    1    1    2    0    0 -0.23064242866E+03  0.18784469042E+03 -0.14816907804E+04  0.15202348918E+04  0.16500000000E+03 0.  0.
   -5000001    1    1    2    0    0  0.23064242866E+03 -0.18784469042E+03 -0.50144023986E+03  0.60592810775E+03  0.16500000000E+03 0.  0.
<mgrwt>
<rscale>  0 0.76665537E+03</rscale>
<asrwt>0</asrwt>
<pdfrwt beam="1">  1        2 0.29352097E+00 0.76665537E+03</pdfrwt>
<pdfrwt beam="2">  1       -2 0.10216571E-01 0.76665537E+03</pdfrwt>
<totfact> 0.50835787E+02</totfact>
</mgrwt>
</event>
<event>
 4    1  0.1049403E-004  0.7449252E+03  0.7818608E-02  0.9643346E-01
          2   -1    0    0  501    0  0.00000000000E+00  0.00000000000E+00  0.30015443719E+03  0.30015443720E+03  0.25500000000E-02 0.  1.
         -2   -1    0    0    0  501 -0.00000000000E+00 -0.00000000000E+00 -0.46218999382E+03  0.46218999383E+03  0.25500000000E-02 0. -1.
    5000001    1    1    2    0    0 -0.43044006585E+02  0.31971190653E+03 -0.16925986966E+03  0.39992798497E+03  0.16500000000E+03 0.  0.
   -5000001    1    1    2    0    0  0.43044006585E+02 -0.31971190653E+03  0.72243130257E+01  0.36241644607E+03  0.16500000000E+03 0.  0.
<mgrwt>
<rscale>  0 0.74492517E+03</rscale>
<asrwt>0</asrwt>
<pdfrwt beam="1">  1        2 0.42879206E-01 0.74492517E+03</pdfrwt>
<pdfrwt beam="2">  1       -2 0.66027141E-01 0.74492517E+03</pdfrwt>
<totfact> 0.25369953E+02</totfact>
</mgrwt>
</event>
<event>
 4    1  0.1049403E-004  0.4707851E+03  0.7818608E-02  0.1021699E+00
          2   -1    0    0  501    0  0.00000000000E+00  0.00000000000E+00  0.98298073951E+03  0.98298073952E+03  0.25500000000E-02 0.  1.
         -2   -1    0    0    0  501 -0.00000000000E+00 -0.00000000000E+00 -0.56369016013E+02  0.56369016070E+02  0.25500000000E-02 0. -1.
    5000001    1    1    2    0    0  0.12239479260E+03 -0.25773694559E+02  0.21608459426E+03  0.29926964508E+03  0.16500000000E+03 0.  0.
   -5000001    1    1    2    0    0 -0.12239479260E+03  0.25773694559E+02  0.71052712924E+03  0.74008011051E+03  0.16500000000E+03 0.  0.
<mgrwt>
<rscale>  0 0.47078512E+03</rscale>
<asrwt>0</asrwt>
<pdfrwt beam="1">  1        2 0.14042581E+00 0.47078512E+03</pdfrwt>
<pdfrwt beam="2">  1       -2 0.80527172E-02 0.47078512E+03</pdfrwt>
<totfact> 0.28013042E+03</totfact>
</mgrwt>
</event>
<event>
 4    1  0.1049403E-004  0.9887092E+03  0.7818608E-02  0.9321016E-01
         -2   -1    0    0    0  501 -0.00000000000E+00  0.00000000000E+00  0.43769853149E+03  0.43769853150E+03  0.25500000000E-02 0. -1.
          2   -1    0    0  501    0  0.00000000000E+00 -0.00000000000E+00 -0.55834424297E+03  0.55834424298E+03  0.25500000000E-02 0.  1.
    5000001    1    1    2    0    0 -0.32982140872E+02  0.46138219098E+03 -0.33337675501E+01  0.49111858219E+03  0.16500000000E+03 0.  0.
   -5000001    1    1    2    0    0  0.32982140872E+02 -0.46138219098E+03 -0.11731194393E+03  0.50492419229E+03  0.16500000000E+03 0.  0.
<mgrwt>
<rscale>  0 0.98870917E+03</rscale>
<asrwt>0</asrwt>
<pdfrwt beam="1">  1        2 0.79763463E-01 0.98870917E+03</pdfrwt>
<pdfrwt beam="2">  1       -2 0.62528362E-01 0.98870917E+03</pdfrwt>
<totfact> 0.14008673E+02</totfact>
</mgrwt>
</event>
<event>
 4    1  0.1049403E-004  0.5172753E+03  0.7818608E-02  0.1009366E+00
          2   -1    0    0  501    0  0.00000000000E+00  0.00000000000E+00  0.15872520506E+04  0.15872520506E+04  0.25500000000E-02 0.  1.
         -2   -1    0    0    0  501 -0.00000000000E+00 -0.00000000000E+00 -0.42144179328E+02  0.42144179405E+02  0.25500000000E-02 0. -1.
    5000001    1    1    2    0    0  0.13569845834E+03 -0.12573206523E+03  0.54010034625E+03  0.59426930583E+03  0.16500000000E+03 0.  0.
   -5000001    1    1    2    0    0 -0.13569845834E+03  0.12573206523E+03  0.10050075250E+04  0.10351269242E+04  0.16500000000E+03 0.  0.
<mgrwt>
<rscale>  0 0.51727530E+03</rscale>
<asrwt>0</asrwt>
<pdfrwt beam="1">  1        2 0.22675029E+00 0.51727530E+03</pdfrwt>
<pdfrwt beam="2">  1       -2 0.60205972E-02 0.51727530E+03</pdfrwt>
<totfact> 0.20634196E+03</totfact>
</mgrwt>
</event>
<event>
 4    1  0.1049403E-004  0.6308347E+03  0.7818608E-02  0.9843421E-01
         -2   -1    0    0    0  501 -0.00000000000E+00  0.00000000000E+00  0.24414284345E+03  0.24414284346E+03  0.25500000000E-02 0. -1.
          2   -1    0    0  501    0  0.00000000000E+00 -0.00000000000E+00 -0.40749953876E+03  0.40749953877E+03  0.25500000000E-02 0.  1.
    5000001    1    1    2    0    0  0.24191795783E+03  0.59646925707E+02 -0.18590766236E+03  0.35194987284E+03  0.16500000000E+03 0.  0.
   -5000001    1    1    2    0    0 -0.24191795783E+03 -0.59646925707E+02  0.22550967057E+02  0.29969250939E+03  0.16500000000E+03 0.  0.
<mgrwt>
<rscale>  0 0.63083467E+03</rscale>
<asrwt>0</asrwt>
<pdfrwt beam="1">  1        2 0.58214220E-01 0.63083467E+03</pdfrwt>
<pdfrwt beam="2">  1       -2 0.34877549E-01 0.63083467E+03</pdfrwt>
<totfact> 0.65661598E+02</totfact>
</mgrwt>
</event>
<event>
 4    1  0.1049403E-004  0.7355645E+03  0.7818608E-02  0.9658274E-01
          2   -1    0    0  501    0  0.00000000000E+00  0.00000000000E+00  0.38658191250E+03  0.38658191251E+03  0.25500000000E-02 0.  1.
         -2   -1    0    0    0  501 -0.00000000000E+00 -0.00000000000E+00 -0.34989679224E+03  0.34989679225E+03  0.25500000000E-02 0. -1.
    5000001    1    1    2    0    0  0.62532691195E+02 -0.31182880691E+03 -0.64774043500E+02  0.36409918841E+03  0.16500000000E+03 0.  0.
   -5000001    1    1    2    0    0 -0.62532691195E+02  0.31182880691E+03  0.10145916376E+03  0.37237951635E+03  0.16500000000E+03 0.  0.
<mgrwt>
<rscale>  0 0.73556447E+03</rscale>
<asrwt>0</asrwt>
<pdfrwt beam="1">  1        2 0.55225987E-01 0.73556447E+03</pdfrwt>
<pdfrwt beam="2">  1       -2 0.49985256E-01 0.73556447E+03</pdfrwt>
<totfact> 0.34285920E+02</totfact>
</mgrwt>
</event>
<event>
 4    1  0.1049403E-004  0.4021140E+03  0.7818608E-02  0.1043050E+00
          2   -1    0    0  501    0  0.00000000000E+00  0.00000000000E+00  0.17804810870E+03  0.17804810872E+03  0.25500000000E-02 0.  1.
         -2   -1    0    0    0  501 -0.00000000000E+00 -0.00000000000E+00 -0.22703928909E+03  0.22703928911E+03  0.25500000000E-02 0. -1.
    5000001    1    1    2    0    0 -0.62423461180E+02 -0.79743834183E+02  0.30156355520E+02  0.19593410467E+03  0.16500000000E+03 0.  0.
   -5000001    1    1    2    0    0  0.62423461180E+02  0.79743834183E+02 -0.79147535912E+02  0.20915329315E+03  0.16500000000E+03 0.  0.
<mgrwt>
<rscale>  0 0.40211399E+03</rscale>
<asrwt>0</asrwt>
<pdfrwt beam="1">  1        2 0.25435444E-01 0.40211399E+03</pdfrwt>
<pdfrwt beam="2">  1       -2 0.32434184E-01 0.40211399E+03</pdfrwt>
<totfact> 0.18827956E+03</totfact>
</mgrwt>
</event>
<event>
 4    1  0.1049403E-004  0.6301044E+03  0.7818608E-02  0.9844845E-01
          2   -1    0    0  501    0  0.00000000000E+00  0.00000000000E+00  0.20030769970E+04  0.20030769970E+04  0.25500000000E-02 0.  1.
         -2   -1    0    0    0  501 -0.00000000000E+00 -0.00000000000E+00 -0.49552706439E+02  0.49552706504E+02  0.25500000000E-02 0. -1.
    5000001    1    1    2    0    0  0.45443913133E+02  0.22216345983E+03  0.14444424155E+04  0.14714145044E+04  0.16500000000E+03 0.  0.
   -5000001    1    1    2    0    0 -0.45443913133E+02 -0.22216345983E+03  0.50908187503E+03  0.58121519905E+03  0.16500000000E+03 0.  0.
<mgrwt>
<rscale>  0 0.63010439E+03</rscale>
<asrwt>0</asrwt>
<pdfrwt beam="1">  1        2 0.28615383E+00 0.63010439E+03</pdfrwt>
<pdfrwt beam="2">  1       -2 0.70789586E-02 0.63010439E+03</pdfrwt>
<totfact> 0.98119979E+02</totfact>
</mgrwt>
</event>
<event>
 4    1  0.1049403E-004  0.5770123E+03  0.7818608E-02  0.9954280E-01
          2   -1    0    0  501    0  0.00000000000E+00  0.00000000000E+00  0.83678205116E+02  0.83678205155E+02  0.25500000000E-02 0.  1.
         -2   -1    0    0    0  501 -0.00000000000E+00 -0.00000000000E+00 -0.99471311046E+03  0.99471311046E+03  0.25500000000E-02 0. -1.
    5000001    1    1    2    0    0  0.13941210255E+03 -0.18224021760E+03 -0.56390813234E+03  0.63076510126E+03  0.16500000000E+03 0.  0.
   -5000001    1    1    2    0    0 -0.13941210255E+03  0.18224021760E+03 -0.34712677301E+03  0.44762621436E+03  0.16500000000E+03 0.  0.
<mgrwt>
<rscale>  0 0.57701233E+03</rscale>
<asrwt>0</asrwt>
<pdfrwt beam="1">  1        2 0.11954030E-01 0.57701233E+03</pdfrwt>
<pdfrwt beam="2">  1       -2 0.14210187E+00 0.57701233E+03</pdfrwt>
<totfact> 0.18617880E+02</totfact>
</mgrwt>
</event>
<event>
 4    1  0.1049403E-004  0.7932350E+03  0.7818608E-02  0.9569861E-01
          2   -1    0    0  501    0  0.00000000000E+00  0.00000000000E+00  0.10236207112E+04  0.10236207112E+04  0.25500000000E-02 0. -1.
         -2   -1    0    0    0  501 -0.00000000000E+00 -0.00000000000E+00 -0.15367551450E+03  0.15367551453E+03  0.25500000000E-02 0.  1.
    5000001    1    1    2    0    0 -0.22068655477E+03  0.26300196794E+03  0.59895734680E+03  0.70982215652E+03  0.16500000000E+03 0.  0.
   -5000001    1    1    2    0    0  0.22068655477E+03 -0.26300196794E+03  0.27098784989E+03  0.46747406921E+03  0.16500000000E+03 0.  0.
<mgrwt>
<rscale>  0 0.79323500E+03</rscale>
<asrwt>0</asrwt>
<pdfrwt beam="1">  1        2 0.14623153E+00 0.79323500E+03</pdfrwt>
<pdfrwt beam="2">  1       -2 0.21953645E-01 0.79323500E+03</pdfrwt>
<totfact> 0.49292277E+02</totfact>
</mgrwt>
</event>
<event>
 4    1  0.1049403E-004  0.4183339E+03  0.7818608E-02  0.1037610E+00
         -2   -1    0    0    0  501 -0.00000000000E+00  0.00000000000E+00  0.10927855799E+03  0.10927855802E+03  0.25500000000E-02 0. -1.
          2   -1    0    0  501    0  0.00000000000E+00 -0.00000000000E+00 -0.40036049288E+03  0.40036049289E+03  0.25500000000E-02 0.  1.
    5000001    1    1    2    0    0  0.53113153372E+02  0.11623704313E+03 -0.16249885626E+03  0.26450507659E+03  0.16500000000E+03 0.  0.
   -5000001    1    1    2    0    0 -0.53113153372E+02 -0.11623704313E+03 -0.12858307863E+03  0.24513397432E+03  0.16500000000E+03 0.  0.
<mgrwt>
<rscale>  0 0.41833392E+03</rscale>
<asrwt>0</asrwt>
<pdfrwt beam="1">  1        2 0.57194355E-01 0.41833392E+03</pdfrwt>
<pdfrwt beam="2">  1       -2 0.15611223E-01 0.41833392E+03</pdfrwt>
<totfact> 0.27913271E+03</totfact>
</mgrwt>
</event>
<event>
 4    1  0.1049403E-004  0.9193093E+03  0.7818608E-02  0.9401761E-01
         -2   -1    0    0    0  501 -0.00000000000E+00  0.00000000000E+00  0.80510444580E+02  0.80510444621E+02  0.25500000000E-02 0. -1.
          2   -1    0    0  501    0  0.00000000000E+00 -0.00000000000E+00 -0.26242853981E+04  0.26242853981E+04  0.25500000000E-02 0.  1.
    5000001    1    1    2    0    0  0.69957751233E+02  0.29183196452E+03 -0.36983713674E+03  0.50404810305E+03  0.16500000000E+03 0.  0.
   -5000001    1    1    2    0    0 -0.69957751233E+02 -0.29183196452E+03 -0.21739378167E+04  0.22007477396E+04  0.16500000000E+03 0.  0.
<mgrwt>
<rscale>  0 0.91930927E+03</rscale>
<asrwt>0</asrwt>
<pdfrwt beam="1">  1        2 0.37489786E+00 0.91930927E+03</pdfrwt>
<pdfrwt beam="2">  1       -2 0.11501494E-01 0.91930927E+03</pdfrwt>
<totfact> 0.21090485E+02</totfact>
</mgrwt>
</event>
<event>
 4    1  0.1049403E-004  0.1574816E+04  0.7818608E-02  0.8836171E-01
         -2   -1    0    0    0  501 -0.00000000000E+00  0.00000000000E+00  0.38068247068E+03  0.38068247069E+03  0.25500000000E-02 0. -1.
          2   -1    0    0  501    0  0.00000000000E+00 -0.00000000000E+00 -0.16286833741E+04  0.16286833741E+04  0.25500000000E-02 0.  1.
    5000001    1    1    2    0    0  0.75288953470E+03 -0.16067846835E+03 -0.63832219531E+03  0.10135780417E+04  0.16500000000E+03 0.  0.
   -5000001    1    1    2    0    0 -0.75288953470E+03  0.16067846835E+03 -0.60967870815E+03  0.99578780311E+03  0.16500000000E+03 0.  0.
<mgrwt>
<rscale>  0 0.15748158E+04</rscale>
<asrwt>0</asrwt>
<pdfrwt beam="1">  1        2 0.23266905E+00 0.15748158E+04</pdfrwt>
<pdfrwt beam="2">  1       -2 0.54383211E-01 0.15748158E+04</pdfrwt>
<totfact> 0.38285435E+01</totfact>
</mgrwt>
</event>
<event>
 4    1  0.1049403E-004  0.5224921E+03  0.7818608E-02  0.1008069E+00
          2   -1    0    0  501    0  0.00000000000E+00  0.00000000000E+00  0.11825379412E+04  0.11825379412E+04  0.25500000000E-02 0.  1.
         -2   -1    0    0    0  501 -0.00000000000E+00 -0.00000000000E+00 -0.57714435556E+02  0.57714435613E+02  0.25500000000E-02 0. -1.
    5000001    1    1    2    0    0 -0.18372376042E+03  0.85072423032E+02  0.54882282125E+03  0.60780196316E+03  0.16500000000E+03 0.  0.
   -5000001    1    1    2    0    0  0.18372376042E+03 -0.85072423032E+02  0.57600068443E+03  0.63245041368E+03  0.16500000000E+03 0.  0.
<mgrwt>
<rscale>  0 0.52249214E+03</rscale>
<asrwt>0</asrwt>
<pdfrwt beam="1">  1        2 0.16893399E+00 0.52249214E+03</pdfrwt>
<pdfrwt beam="2">  1       -2 0.82449195E-02 0.52249214E+03</pdfrwt>
<totfact> 0.20638277E+03</totfact>
</mgrwt>
</event>
<event>
 4    1  0.1049403E-004  0.4724036E+03  0.7818608E-02  0.1021244E+00
         -2   -1    0    0    0  501 -0.00000000000E+00  0.00000000000E+00  0.14565075567E+02  0.14565075791E+02  0.25500000000E-02 0. -1.
          2   -1    0    0  501    0  0.00000000000E+00 -0.00000000000E+00 -0.38304844312E+04  0.38304844312E+04  0.25500000000E-02 0.  1.
    5000001    1    1    2    0    0 -0.14577922929E+03  0.60702068921E+02 -0.23983481817E+04  0.24091980669E+04  0.16500000000E+03 0.  0.
   -5000001    1    1    2    0    0  0.14577922929E+03 -0.60702068921E+02 -0.14175711740E+04  0.14358514401E+04  0.16500000000E+03 0.  0.
<mgrwt>
<rscale>  0 0.47240362E+03</rscale>
<asrwt>0</asrwt>
<pdfrwt beam="1">  1        2 0.54721142E+00 0.47240362E+03</pdfrwt>
<pdfrwt beam="2">  1       -2 0.20807276E-02 0.47240362E+03</pdfrwt>
<totfact> 0.65255482E+02</totfact>
</mgrwt>
</event>
<event>
 4    1  0.1049403E-004  0.5486107E+03  0.7818608E-02  0.1001816E+00
         -2   -1    0    0    0  501 -0.00000000000E+00  0.00000000000E+00  0.64448774392E+02  0.64448774443E+02  0.25500000000E-02 0. -1.
          2   -1    0    0  501    0  0.00000000000E+00 -0.00000000000E+00 -0.11674920241E+04  0.11674920241E+04  0.25500000000E-02 0.  1.
    5000001    1    1    2    0    0 -0.14861853852E+03  0.15508800729E+03 -0.45419070868E+03  0.52882318392E+03  0.16500000000E+03 0.  0.
   -5000001    1    1    2    0    0  0.14861853852E+03 -0.15508800729E+03 -0.64885254098E+03  0.70311761458E+03  0.16500000000E+03 0.  0.
<mgrwt>
<rscale>  0 0.54861072E+03</rscale>
<asrwt>0</asrwt>
<pdfrwt beam="1">  1        2 0.16678456E+00 0.54861072E+03</pdfrwt>
<pdfrwt beam="2">  1       -2 0.92069685E-02 0.54861072E+03</pdfrwt>
<totfact> 0.17632044E+03</totfact>
</mgrwt>
</event>
<event>
 4    1  0.1049403E-004  0.4377337E+03  0.7818608E-02  0.1031444E+00
         -2   -1    0    0    0  501 -0.00000000000E+00  0.00000000000E+00  0.65044105316E+02  0.65044105366E+02  0.25500000000E-02 0. -1.
          2   -1    0    0  501    0  0.00000000000E+00 -0.00000000000E+00 -0.73646501545E+03  0.73646501546E+03  0.25500000000E-02 0.  1.
    5000001    1    1    2    0    0 -0.13131009545E+03 -0.57045436788E+01 -0.44252201352E+03  0.49023016577E+03  0.16500000000E+03 0.  0.
   -5000001    1    1    2    0    0  0.13131009545E+03  0.57045436788E+01 -0.22889889662E+03  0.31127895505E+03  0.16500000000E+03 0.  0.
<mgrwt>
<rscale>  0 0.43773375E+03</rscale>
<asrwt>0</asrwt>
<pdfrwt beam="1">  1        2 0.10520928E+00 0.43773375E+03</pdfrwt>
<pdfrwt beam="2">  1       -2 0.92920155E-02 0.43773375E+03</pdfrwt>
<totfact> 0.32418537E+03</totfact>
</mgrwt>
</event>
<event>
 4    1  0.1049403E-004  0.4233095E+03  0.7818608E-02  0.1035995E+00
          2   -1    0    0  501    0  0.00000000000E+00  0.00000000000E+00  0.15836183330E+04  0.15836183330E+04  0.25500000000E-02 0.  1.
         -2   -1    0    0    0  501 -0.00000000000E+00 -0.00000000000E+00 -0.28288206707E+02  0.28288206822E+02  0.25500000000E-02 0. -1.
    5000001    1    1    2    0    0  0.12209203628E+03 -0.50043042141E+02  0.82612404842E+03  0.85271139007E+03  0.16500000000E+03 0.  0.
   -5000001    1    1    2    0    0 -0.12209203628E+03  0.50043042141E+02  0.72920607785E+03  0.75919514973E+03  0.16500000000E+03 0.  0.
<mgrwt>
<rscale>  0 0.42330945E+03</rscale>
<asrwt>0</asrwt>
<pdfrwt beam="1">  1        2 0.22623123E+00 0.42330945E+03</pdfrwt>
<pdfrwt beam="2">  1       -2 0.40411718E-02 0.42330945E+03</pdfrwt>
<totfact> 0.38371257E+03</totfact>
</mgrwt>
</event>
<event>
 4    1  0.1049403E-004  0.4944957E+03  0.7818608E-02  0.1015226E+00
         -2   -1    0    0    0  501 -0.00000000000E+00  0.00000000000E+00  0.14932397906E+03  0.14932397908E+03  0.25500000000E-02 0. -1.
          2   -1    0    0  501    0  0.00000000000E+00 -0.00000000000E+00 -0.40938832167E+03  0.40938832168E+03  0.25500000000E-02 0.  1.
    5000001    1    1    2    0    0  0.17889477139E+03  0.88946395514E+01 -0.81777114006E+02  0.25689482326E+03  0.16500000000E+03 0.  0.
   -5000001    1    1    2    0    0 -0.17889477139E+03 -0.88946395514E+01 -0.17828722860E+03  0.30181747750E+03  0.16500000000E+03 0.  0.
<mgrwt>
<rscale>  0 0.49449568E+03</rscale>
<asrwt>0</asrwt>
<pdfrwt beam="1">  1        2 0.58484046E-01 0.49449568E+03</pdfrwt>
<pdfrwt beam="2">  1       -2 0.21331997E-01 0.49449568E+03</pdfrwt>
<totfact> 0.15986816E+03</totfact>
</mgrwt>
</event>
<event>
 4    1  0.1049403E-004  0.5208165E+03  0.7818608E-02  0.1008484E+00
         -2   -1    0    0    0  501 -0.00000000000E+00  0.00000000000E+00  0.54805891549E+02  0.54805891608E+02  0.25500000000E-02 0. -1.
          2   -1    0    0  501    0  0.00000000000E+00 -0.00000000000E+00 -0.12373206997E+04  0.12373206997E+04  0.25500000000E-02 0.  1.
    5000001    1    1    2    0    0  0.11704505719E+03  0.15092708149E+03 -0.43222525435E+03  0.50052192743E+03  0.16500000000E+03 0.  0.
   -5000001    1    1    2    0    0 -0.11704505719E+03 -0.15092708149E+03 -0.75028955382E+03  0.79160466390E+03  0.16500000000E+03 0.  0.
<mgrwt>
<rscale>  0 0.52081653E+03</rscale>
<asrwt>0</asrwt>
<pdfrwt beam="1">  1        2 0.17676008E+00 0.52081653E+03</pdfrwt>
<pdfrwt beam="2">  1       -2 0.78294138E-02 0.52081653E+03</pdfrwt>
<totfact> 0.20889631E+03</totfact>
</mgrwt>
</event>
<event>
 4    1  0.1049403E-004  0.4303814E+03  0.7818608E-02  0.1033740E+00
          2   -1    0    0  501    0  0.00000000000E+00  0.00000000000E+00  0.36200110500E+03  0.36200110501E+03  0.25500000000E-02 0.  1.
         -2   -1    0    0    0  501 -0.00000000000E+00 -0.00000000000E+00 -0.12791958170E+03  0.12791958173E+03  0.25500000000E-02 0. -1.
    5000001    1    1    2    0    0 -0.59481711212E+02 -0.12069559090E+03  0.15261332661E+03  0.26195672752E+03  0.16500000000E+03 0.  0.
   -5000001    1    1    2    0    0  0.59481711212E+02  0.12069559090E+03  0.81468196681E+02  0.22796395922E+03  0.16500000000E+03 0.  0.
<mgrwt>
<rscale>  0 0.43038137E+03</rscale>
<asrwt>0</asrwt>
<pdfrwt beam="1">  1        2 0.51714444E-01 0.43038137E+03</pdfrwt>
<pdfrwt beam="2">  1       -2 0.18274226E-01 0.43038137E+03</pdfrwt>
<totfact> 0.23889400E+03</totfact>
</mgrwt>
</event>
<event>
 4    1  0.1049403E-004  0.5133244E+03  0.7818608E-02  0.1010358E+00
          2   -1    0    0  501    0  0.00000000000E+00  0.00000000000E+00  0.20343110820E+04  0.20343110820E+04  0.25500000000E-02 0.  1.
         -2   -1    0    0    0  501 -0.00000000000E+00 -0.00000000000E+00 -0.32382213906E+02  0.32382214006E+02  0.25500000000E-02 0. -1.
    5000001    1    1    2    0    0 -0.11574129556E+03 -0.90656181980E+02  0.15264571490E+04  0.15423718807E+04  0.16500000000E+03 0.  0.
   -5000001    1    1    2    0    0  0.11574129556E+03  0.90656181980E+02  0.47547171911E+03  0.52432141526E+03  0.16500000000E+03 0.  0.
<mgrwt>
<rscale>  0 0.51332445E+03</rscale>
<asrwt>0</asrwt>
<pdfrwt beam="1">  1        2 0.29061587E+00 0.51332445E+03</pdfrwt>
<pdfrwt beam="2">  1       -2 0.46260305E-02 0.51332445E+03</pdfrwt>
<totfact> 0.18496099E+03</totfact>
</mgrwt>
</event>
<event>
 4    1  0.1049403E-004  0.5003787E+03  0.7818608E-02  0.1013680E+00
          2   -1    0    0  501    0  0.00000000000E+00  0.00000000000E+00  0.36987197830E+04  0.36987197830E+04  0.25500000000E-02 0.  1.
         -2   -1    0    0    0  501 -0.00000000000E+00 -0.00000000000E+00 -0.16923348141E+02  0.16923348333E+02  0.25500000000E-02 0. -1.
    5000001    1    1    2    0    0 -0.78969275354E+02 -0.16981968196E+03  0.19684061623E+04  0.19841680096E+04  0.16500000000E+03 0.  0.
   -5000001    1    1    2    0    0  0.78969275354E+02  0.16981968196E+03  0.17133902726E+04  0.17314751217E+04  0.16500000000E+03 0.  0.
<mgrwt>
<rscale>  0 0.50037875E+03</rscale>
<asrwt>0</asrwt>
<pdfrwt beam="1">  1        2 0.52838835E+00 0.50037875E+03</pdfrwt>
<pdfrwt beam="2">  1       -2 0.24176220E-02 0.50037875E+03</pdfrwt>
<totfact> 0.62745155E+02</totfact>
</mgrwt>
</event>
<event>
 4    1  0.1049403E-004  0.4143541E+03  0.7818608E-02  0.1038920E+00
         -2   -1    0    0    0  501 -0.00000000000E+00  0.00000000000E+00  0.17094168200E+03  0.17094168202E+03  0.25500000000E-02 0. -1.
          2   -1    0    0  501    0  0.00000000000E+00 -0.00000000000E+00 -0.25109345142E+03  0.25109345143E+03  0.25500000000E-02 0.  1.
    5000001    1    1    2    0    0  0.10795179200E+03 -0.19051820898E+02  0.21718157484E+02  0.19928180961E+03  0.16500000000E+03 0.  0.
   -5000001    1    1    2    0    0 -0.10795179200E+03  0.19051820898E+02 -0.10186992690E+03  0.22275332384E+03  0.16500000000E+03 0.  0.
<mgrwt>
<rscale>  0 0.41435413E+03</rscale>
<asrwt>0</asrwt>
<pdfrwt beam="1">  1        2 0.35870493E-01 0.41435413E+03</pdfrwt>
<pdfrwt beam="2">  1       -2 0.24420240E-01 0.41435413E+03</pdfrwt>
<totfact> 0.21505585E+03</totfact>
</mgrwt>
</event>
<event>
 4    1  0.1049403E-004  0.4205969E+03  0.7818608E-02  0.1036872E+00
         -2   -1    0    0    0  501 -0.00000000000E+00  0.00000000000E+00  0.17384536241E+02  0.17384536428E+02  0.25500000000E-02 0. -1.
          2   -1    0    0  501    0  0.00000000000E+00 -0.00000000000E+00 -0.25439525164E+04  0.25439525164E+04  0.25500000000E-02 0.  1.
    5000001    1    1    2    0    0  0.10123336036E+03 -0.60230145042E+02 -0.92287901229E+03  0.94488440295E+03  0.16500000000E+03 0.  0.
   -5000001    1    1    2    0    0 -0.10123336036E+03  0.60230145042E+02 -0.16036889678E+04  0.16164526498E+04  0.16500000000E+03 0.  0.
<mgrwt>
<rscale>  0 0.42059689E+03</rscale>
<asrwt>0</asrwt>
<pdfrwt beam="1">  1        2 0.36342155E+00 0.42059689E+03</pdfrwt>
<pdfrwt beam="2">  1       -2 0.24835068E-02 0.42059689E+03</pdfrwt>
<totfact> 0.26495451E+03</totfact>
</mgrwt>
</event>
<event>
 4    1  0.1049403E-004  0.5062424E+03  0.7818608E-02  0.1012162E+00
         -2   -1    0    0    0  501 -0.00000000000E+00  0.00000000000E+00  0.32930814292E+03  0.32930814293E+03  0.25500000000E-02 0. -1.
          2   -1    0    0  501    0  0.00000000000E+00 -0.00000000000E+00 -0.19456046500E+03  0.19456046502E+03  0.25500000000E-02 0.  1.
    5000001    1    1    2    0    0  0.27440507599E+02  0.18930882356E+03  0.83883423369E+02  0.26618084238E+03  0.16500000000E+03 0.  0.
   -5000001    1    1    2    0    0 -0.27440507599E+02 -0.18930882356E+03  0.50864254544E+02  0.25768776557E+03  0.16500000000E+03 0.  0.
<mgrwt>
<rscale>  0 0.50624241E+03</rscale>
<asrwt>0</asrwt>
<pdfrwt beam="1">  1        2 0.27794352E-01 0.50624241E+03</pdfrwt>
<pdfrwt beam="2">  1       -2 0.47044020E-01 0.50624241E+03</pdfrwt>
<totfact> 0.83447116E+02</totfact>
</mgrwt>
</event>
<event>
 4    1  0.1049403E-004  0.5430774E+03  0.7818608E-02  0.1003109E+00
         -2   -1    0    0    0  501 -0.00000000000E+00  0.00000000000E+00  0.29637098264E+02  0.29637098374E+02  0.25500000000E-02 0. -1.
          2   -1    0    0  501    0  0.00000000000E+00 -0.00000000000E+00 -0.24878704691E+04  0.24878704691E+04  0.25500000000E-02 0.  1.
    5000001    1    1    2    0    0 -0.98583772285E+02 -0.15370024182E+03 -0.69721464405E+03  0.73937526627E+03  0.16500000000E+03 0.  0.
   -5000001    1    1    2    0    0  0.98583772285E+02  0.15370024182E+03 -0.17610187268E+04  0.17781323012E+04  0.16500000000E+03 0.  0.
<mgrwt>
<rscale>  0 0.54307739E+03</rscale>
<asrwt>0</asrwt>
<pdfrwt beam="1">  1        2 0.35540994E+00 0.54307739E+03</pdfrwt>
<pdfrwt beam="2">  1       -2 0.42338728E-02 0.54307739E+03</pdfrwt>
<totfact> 0.12505216E+03</totfact>
</mgrwt>
</event>
<event>
 4    1  0.1049403E-004  0.5035052E+03  0.7818608E-02  0.1012868E+00
         -2   -1    0    0    0  501 -0.00000000000E+00  0.00000000000E+00  0.58168290907E+02  0.58168290963E+02  0.25500000000E-02 0. -1.
          2   -1    0    0  501    0  0.00000000000E+00 -0.00000000000E+00 -0.10895862257E+04  0.10895862257E+04  0.25500000000E-02 0.  1.
    5000001    1    1    2    0    0 -0.17246274856E+03  0.40697253322E+02 -0.35852554683E+03  0.43262597449E+03  0.16500000000E+03 0.  0.
   -5000001    1    1    2    0    0  0.17246274856E+03 -0.40697253322E+02 -0.67289238800E+03  0.71512854222E+03  0.16500000000E+03 0.  0.
<mgrwt>
<rscale>  0 0.50350519E+03</rscale>
<asrwt>0</asrwt>
<pdfrwt beam="1">  1        2 0.15565516E+00 0.50350519E+03</pdfrwt>
<pdfrwt beam="2">  1       -2 0.83097565E-02 0.50350519E+03</pdfrwt>
<totfact> 0.23032843E+03</totfact>
</mgrwt>
</event>
<event>
 4    1  0.1049403E-004  0.4041469E+03  0.7818608E-02  0.1042353E+00
          2   -1    0    0  501    0  0.00000000000E+00  0.00000000000E+00  0.17107675630E+04  0.17107675630E+04  0.25500000000E-02 0.  1.
         -2   -1    0    0    0  501 -0.00000000000E+00 -0.00000000000E+00 -0.23868631298E+02  0.23868631434E+02  0.25500000000E-02 0. -1.
    5000001    1    1    2    0    0 -0.93139567002E+02 -0.65913220508E+02  0.73927012093E+03  0.76600577235E+03  0.16500000000E+03 0.  0.
   -5000001    1    1    2    0    0  0.93139567002E+02  0.65913220508E+02  0.94762881078E+03  0.96863042209E+03  0.16500000000E+03 0.  0.
<mgrwt>
<rscale>  0 0.40414691E+03</rscale>
<asrwt>0</asrwt>
<pdfrwt beam="1">  1        2 0.24439539E+00 0.40414691E+03</pdfrwt>
<pdfrwt beam="2">  1       -2 0.34098042E-02 0.40414691E+03</pdfrwt>
<totfact> 0.42844538E+03</totfact>
</mgrwt>
</event>
<event>
 4    1  0.1049403E-004  0.4979577E+03  0.7818608E-02  0.1014313E+00
         -2   -1    0    0    0  501 -0.00000000000E+00  0.00000000000E+00  0.80293760981E+02  0.80293761022E+02  0.25500000000E-02 0. -1.
          2   -1    0    0  501    0  0.00000000000E+00 -0.00000000000E+00 -0.77204590349E+03  0.77204590350E+03  0.25500000000E-02 0.  1.
    5000001    1    1    2    0    0 -0.14329981151E+03  0.11077102169E+03 -0.27008917121E+03  0.36466178252E+03  0.16500000000E+03 0.  0.
   -5000001    1    1    2    0    0  0.14329981151E+03 -0.11077102169E+03 -0.42166297130E+03  0.48767788200E+03  0.16500000000E+03 0.  0.
<mgrwt>
<rscale>  0 0.49795771E+03</rscale>
<asrwt>0</asrwt>
<pdfrwt beam="1">  1        2 0.11029227E+00 0.49795771E+03</pdfrwt>
<pdfrwt beam="2">  1       -2 0.11470538E-01 0.49795771E+03</pdfrwt>
<totfact> 0.21774399E+03</totfact>
</mgrwt>
</event>
<event>
 4    1  0.1049403E-004  0.5670753E+03  0.7818608E-02  0.9976172E-01
          2   -1    0    0  501    0  0.00000000000E+00  0.00000000000E+00  0.12835098707E+04  0.12835098707E+04  0.25500000000E-02 0.  1.
         -2   -1    0    0    0  501 -0.00000000000E+00 -0.00000000000E+00 -0.62635739877E+02  0.62635739929E+02  0.25500000000E-02 0. -1.
    5000001    1    1    2    0    0  0.23032387349E+03  0.44440651768E+01  0.63414624418E+03  0.69457562254E+03  0.16500000000E+03 0.  0.
   -5000001    1    1    2    0    0 -0.23032387349E+03 -0.44440651768E+01  0.58672788662E+03  0.65156998807E+03  0.16500000000E+03 0.  0.
<mgrwt>
<rscale>  0 0.56707527E+03</rscale>
<asrwt>0</asrwt>
<pdfrwt beam="1">  1        2 0.18335856E+00 0.56707527E+03</pdfrwt>
<pdfrwt beam="2">  1       -2 0.89479627E-02 0.56707527E+03</pdfrwt>
<totfact> 0.15911252E+03</totfact>
</mgrwt>
</event>
<event>
 4    1  0.1049403E-004  0.5597155E+03  0.7818608E-02  0.9992699E-01
          2   -1    0    0  501    0  0.00000000000E+00  0.00000000000E+00  0.41486335832E+04  0.41486335832E+04  0.25500000000E-02 0.  1.
         -2   -1    0    0    0  501 -0.00000000000E+00 -0.00000000000E+00 -0.18878591959E+02  0.18878592131E+02  0.25500000000E-02 0. -1.
    5000001    1    1    2    0    0 -0.22231481621E+03 -0.31006897420E+02  0.22632839390E+04  0.22803649914E+04  0.16500000000E+03 0.  0.
   -5000001    1    1    2    0    0  0.22231481621E+03  0.31006897420E+02  0.18664710522E+04  0.18871471839E+04  0.16500000000E+03 0.  0.
<mgrwt>
<rscale>  0 0.55971550E+03</rscale>
<asrwt>0</asrwt>
<pdfrwt beam="1">  1        2 0.59266240E+00 0.55971550E+03</pdfrwt>
<pdfrwt beam="2">  1       -2 0.26969396E-02 0.55971550E+03</pdfrwt>
<totfact> 0.26827523E+02</totfact>
</mgrwt>
</event>
<event>
 4    1  0.1049403E-004  0.8614531E+03  0.7818608E-02  0.9475093E-01
          2   -1    0    0  501    0  0.00000000000E+00  0.00000000000E+00  0.16166895849E+04  0.16166895849E+04  0.25500000000E-02 0.  1.
         -2   -1    0    0    0  501 -0.00000000000E+00 -0.00000000000E+00 -0.11475633497E+03  0.11475633500E+03  0.25500000000E-02 0. -1.
    5000001    1    1    2    0    0  0.42884063371E+02  0.38750438266E+03  0.91051982778E+03  0.10041265091E+04  0.16500000000E+03 0.  0.
   -5000001    1    1    2    0    0 -0.42884063371E+02 -0.38750438266E+03  0.59141342218E+03  0.72731941085E+03  0.16500000000E+03 0.  0.
<mgrwt>
<rscale>  0 0.86145312E+03</rscale>
<asrwt>0</asrwt>
<pdfrwt beam="1">  1        2 0.23095566E+00 0.86145312E+03</pdfrwt>
<pdfrwt beam="2">  1       -2 0.16393762E-01 0.86145312E+03</pdfrwt>
<totfact> 0.38413489E+02</totfact>
</mgrwt>
</event>
<event>
 4    1  0.1049403E-004  0.5276492E+03  0.7818608E-02  0.1006804E+00
         -2   -1    0    0    0  501 -0.00000000000E+00  0.00000000000E+00  0.18889510563E+02  0.18889510736E+02  0.25500000000E-02 0. -1.
          2   -1    0    0  501    0  0.00000000000E+00 -0.00000000000E+00 -0.36847651454E+04  0.36847651454E+04  0.25500000000E-02 0.  1.
    5000001    1    1    2    0    0  0.20133080749E+03  0.28794357817E+02 -0.16092917188E+04  0.16304625250E+04  0.16500000000E+03 0.  0.
   -5000001    1    1    2    0    0 -0.20133080749E+03 -0.28794357817E+02 -0.20565839160E+04  0.20731921311E+04  0.16500000000E+03 0.  0.
<mgrwt>
<rscale>  0 0.52764917E+03</rscale>
<asrwt>0</asrwt>
<pdfrwt beam="1">  1        2 0.52639456E+00 0.52764917E+03</pdfrwt>
<pdfrwt beam="2">  1       -2 0.26985039E-02 0.52764917E+03</pdfrwt>
<totfact> 0.54038856E+02</totfact>
</mgrwt>
</event>
<event>
 4    1  0.1049403E-004  0.6438753E+03  0.7818608E-02  0.9818340E-01
         -2   -1    0    0    0  501 -0.00000000000E+00  0.00000000000E+00  0.74191956853E+02  0.74191956897E+02  0.25500000000E-02 0. -1.
          2   -1    0    0  501    0  0.00000000000E+00 -0.00000000000E+00 -0.13969689517E+04  0.13969689517E+04  0.25500000000E-02 0.  1.
    5000001    1    1    2    0    0 -0.18242541384E+03 -0.78430154677E+02 -0.22195619130E+03  0.34047007451E+03  0.16500000000E+03 0.  0.
   -5000001    1    1    2    0    0  0.18242541384E+03  0.78430154677E+02 -0.11008208036E+04  0.11306908341E+04  0.16500000000E+03 0.  0.
<mgrwt>
<rscale>  0 0.64387533E+03</rscale>
<asrwt>0</asrwt>
<pdfrwt beam="1">  1        2 0.19956698E+00 0.64387533E+03</pdfrwt>
<pdfrwt beam="2">  1       -2 0.10598852E-01 0.64387533E+03</pdfrwt>
<totfact> 0.10485286E+03</totfact>
</mgrwt>
</event>
<event>
 4    1  0.1049403E-004  0.5861843E+03  0.7818608E-02  0.9934491E-01
          2   -1    0    0  501    0  0.00000000000E+00  0.00000000000E+00  0.79062193912E+03  0.79062193913E+03  0.25500000000E-02 0.  1.
         -2   -1    0    0    0  501 -0.00000000000E+00 -0.00000000000E+00 -0.10865244702E+03  0.10865244705E+03  0.25500000000E-02 0. -1.
    5000001    1    1    2    0    0  0.11237814878E+03  0.62446830065E+02  0.26025378036E+02  0.21078608875E+03  0.16500000000E+03 0.  0.
   -5000001    1    1    2    0    0 -0.11237814878E+03 -0.62446830065E+02  0.65594411407E+03  0.68848829742E+03  0.16500000000E+03 0.  0.
<mgrwt>
<rscale>  0 0.58618430E+03</rscale>
<asrwt>0</asrwt>
<pdfrwt beam="1">  1        2 0.11294599E+00 0.58618430E+03</pdfrwt>
<pdfrwt beam="2">  1       -2 0.15521778E-01 0.58618430E+03</pdfrwt>
<totfact> 0.12784192E+03</totfact>
</mgrwt>
</event>
<event>
 4    1  0.1049403E-004  0.6443230E+03  0.7818608E-02  0.9817490E-01
          2   -1    0    0  501    0  0.00000000000E+00  0.00000000000E+00  0.14173546183E+04  0.14173546183E+04  0.25500000000E-02 0.  1.
         -2   -1    0    0    0  501 -0.00000000000E+00 -0.00000000000E+00 -0.73226590030E+02  0.73226590074E+02  0.25500000000E-02 0. -1.
    5000001    1    1    2    0    0  0.11567573963E+03  0.17821353561E+03  0.10821449822E+04  0.11150801332E+04  0.16500000000E+03 0.  0.
   -5000001    1    1    2    0    0 -0.11567573963E+03 -0.17821353561E+03  0.26198304607E+03  0.37550107516E+03  0.16500000000E+03 0.  0.
<mgrwt>
<rscale>  0 0.64432304E+03</rscale>
<asrwt>0</asrwt>
<pdfrwt beam="1">  1        2 0.20247921E+00 0.64432304E+03</pdfrwt>
<pdfrwt beam="2">  1       -2 0.10460942E-01 0.64432304E+03</pdfrwt>
<totfact> 0.10447381E+03</totfact>
</mgrwt>
</event>
<event>
 4    1  0.1049403E-004  0.6721252E+03  0.7818608E-02  0.9766126E-01
          2   -1    0    0  501    0  0.00000000000E+00  0.00000000000E+00  0.20852493179E+04  0.20852493179E+04  0.25500000000E-02 0.  1.
         -2   -1    0    0    0  501 -0.00000000000E+00 -0.00000000000E+00 -0.54160464304E+02  0.54160464364E+02  0.25500000000E-02 0. -1.
    5000001    1    1    2    0    0 -0.25493969309E+03 -0.18803331215E+02  0.14697879736E+04  0.15009495327E+04  0.16500000000E+03 0.  0.
   -5000001    1    1    2    0    0  0.25493969309E+03  0.18803331215E+02  0.56130087993E+03  0.63846024950E+03  0.16500000000E+03 0.  0.
<mgrwt>
<rscale>  0 0.67212520E+03</rscale>
<asrwt>0</asrwt>
<pdfrwt beam="1">  1        2 0.29789283E+00 0.67212520E+03</pdfrwt>
<pdfrwt beam="2">  1       -2 0.77372074E-02 0.67212520E+03</pdfrwt>
<totfact> 0.77259360E+02</totfact>
</mgrwt>
</event>
<event>
 4    1  0.1049403E-004  0.7686243E+03  0.7818608E-02  0.9606576E-01
         -2   -1    0    0    0  501 -0.00000000000E+00  0.00000000000E+00  0.77437862983E+02  0.77437863025E+02  0.25500000000E-02 0. -1.
          2   -1    0    0  501    0  0.00000000000E+00 -0.00000000000E+00 -0.19072819997E+04  0.19072819997E+04  0.25500000000E-02 0.  1.
    5000001    1    1    2    0    0 -0.43924439970E+02  0.34223741590E+03 -0.10120555540E+04  0.10819136978E+04  0.16500000000E+03 0.  0.
   -5000001    1    1    2    0    0  0.43924439970E+02 -0.34223741590E+03 -0.81778858276E+03  0.90280616489E+03  0.16500000000E+03 0.  0.
<mgrwt>
<rscale>  0 0.76862434E+03</rscale>
<asrwt>0</asrwt>
<pdfrwt beam="1">  1        2 0.27246883E+00 0.76862434E+03</pdfrwt>
<pdfrwt beam="2">  1       -2 0.11062553E-01 0.76862434E+03</pdfrwt>
<totfact> 0.52990094E+02</totfact>
</mgrwt>
</event>
<event>
 4    1  0.1049403E-004  0.4851735E+03  0.7818608E-02  0.1017723E+00
         -2   -1    0    0    0  501 -0.00000000000E+00  0.00000000000E+00  0.99309064079E+02  0.99309064112E+02  0.25500000000E-02 0. -1.
          2   -1    0    0  501    0  0.00000000000E+00 -0.00000000000E+00 -0.59257771496E+03  0.59257771496E+03  0.25500000000E-02 0.  1.
    5000001    1    1    2    0    0  0.19274960673E+02 -0.12860110138E+03 -0.73653893445E+02  0.22261999776E+03  0.16500000000E+03 0.  0.
   -5000001    1    1    2    0    0 -0.19274960673E+02  0.12860110138E+03 -0.41961475743E+03  0.46926678131E+03  0.16500000000E+03 0.  0.
<mgrwt>
<rscale>  0 0.48517353E+03</rscale>
<asrwt>0</asrwt>
<pdfrwt beam="1">  1        2 0.84653957E-01 0.48517353E+03</pdfrwt>
<pdfrwt beam="2">  1       -2 0.14187010E-01 0.48517353E+03</pdfrwt>
<totfact> 0.21095871E+03</totfact>
</mgrwt>
</event>
<event>
 4    1  0.1049403E-004  0.4419915E+03  0.7818608E-02  0.1030138E+00
          2   -1    0    0  501    0  0.00000000000E+00  0.00000000000E+00  0.59022978438E+02  0.59022978493E+02  0.25500000000E-02 0.  1.
         -2   -1    0    0    0  501 -0.00000000000E+00 -0.00000000000E+00 -0.82745945906E+03  0.82745945906E+03  0.25500000000E-02 0. -1.
    5000001    1    1    2    0    0  0.11024855114E+03 -0.41262974601E+02 -0.56086106259E+03  0.59636189318E+03  0.16500000000E+03 0.  0.
   -5000001    1    1    2    0    0 -0.11024855114E+03  0.41262974601E+02 -0.20757541802E+03  0.29012054438E+03  0.16500000000E+03 0.  0.
<mgrwt>
<rscale>  0 0.44199150E+03</rscale>
<asrwt>0</asrwt>
<pdfrwt beam="1">  1        2 0.84318545E-02 0.44199150E+03</pdfrwt>
<pdfrwt beam="2">  1       -2 0.11820849E+00 0.44199150E+03</pdfrwt>
<totfact> 0.46064438E+02</totfact>
</mgrwt>
</event>
<event>
 4    1  0.1049403E-004  0.4173261E+03  0.7818608E-02  0.1037940E+00
         -2   -1    0    0    0  501 -0.00000000000E+00  0.00000000000E+00  0.66667370797E+03  0.66667370797E+03  0.25500000000E-02 0.  1.
          2   -1    0    0  501    0  0.00000000000E+00 -0.00000000000E+00 -0.65309706270E+02  0.65309706320E+02  0.25500000000E-02 0. -1.
    5000001    1    1    2    0    0  0.12664728487E+03 -0.16480079627E+02  0.29711477607E+03  0.36306103887E+03  0.16500000000E+03 0.  0.
   -5000001    1    1    2    0    0 -0.12664728487E+03  0.16480079627E+02  0.30424922563E+03  0.36892237542E+03  0.16500000000E+03 0.  0.
<mgrwt>
<rscale>  0 0.41732608E+03</rscale>
<asrwt>0</asrwt>
<pdfrwt beam="1">  1        2 0.93299581E-02 0.41732608E+03</pdfrwt>
<pdfrwt beam="2">  1       -2 0.95239100E-01 0.41732608E+03</pdfrwt>
<totfact> 0.67639508E+02</totfact>
</mgrwt>
</event>
<event>
 4    1  0.1049403E-004  0.6932325E+03  0.7818608E-02  0.9728876E-01
         -2   -1    0    0    0  501 -0.00000000000E+00  0.00000000000E+00  0.88663425730E+02  0.88663425766E+02  0.25500000000E-02 0. -1.
          2   -1    0    0  501    0  0.00000000000E+00 -0.00000000000E+00 -0.13550439312E+04  0.13550439312E+04  0.25500000000E-02 0.  1.
    5000001    1    1    2    0    0  0.11597949098E+03  0.26952631104E+03 -0.80520324730E+03  0.87273876053E+03  0.16500000000E+03 0.  0.
   -5000001    1    1    2    0    0 -0.11597949098E+03 -0.26952631104E+03 -0.46117725817E+03  0.57096859644E+03  0.16500000000E+03 0.  0.
<mgrwt>
<rscale>  0 0.69323254E+03</rscale>
<asrwt>0</asrwt>
<pdfrwt beam="1">  1        2 0.19357769E+00 0.69323254E+03</pdfrwt>
<pdfrwt beam="2">  1       -2 0.12666205E-01 0.69323254E+03</pdfrwt>
<totfact> 0.82210128E+02</totfact>
</mgrwt>
</event>
<event>
 4    1  0.1049403E-004  0.8180953E+03  0.7818608E-02  0.9534188E-01
          2   -1    0    0  501    0  0.00000000000E+00  0.00000000000E+00  0.10643512921E+04  0.10643512921E+04  0.25500000000E-02 0.  1.
         -2   -1    0    0    0  501 -0.00000000000E+00 -0.00000000000E+00 -0.15720371144E+03  0.15720371146E+03  0.25500000000E-02 0. -1.
    5000001    1    1    2    0    0 -0.36873793466E+03  0.54822219800E+02  0.50358568134E+03  0.64791718506E+03  0.16500000000E+03 0.  0.
   -5000001    1    1    2    0    0  0.36873793466E+03 -0.54822219800E+02  0.40356189936E+03  0.57363781854E+03  0.16500000000E+03 0.  0.
<mgrwt>
<rscale>  0 0.81809528E+03</rscale>
<asrwt>0</asrwt>
<pdfrwt beam="1">  1        2 0.15205019E+00 0.81809528E+03</pdfrwt>
<pdfrwt beam="2">  1       -2 0.22457673E-01 0.81809528E+03</pdfrwt>
<totfact> 0.44699744E+02</totfact>
</mgrwt>
</event>
<event>
 4    1  0.1049403E-004  0.4304252E+03  0.7818608E-02  0.1033726E+00
         -2   -1    0    0    0  501 -0.00000000000E+00  0.00000000000E+00  0.58173326898E+02  0.58173326954E+02  0.25500000000E-02 0. -1.
          2   -1    0    0  501    0  0.00000000000E+00 -0.00000000000E+00 -0.79618050238E+03  0.79618050239E+03  0.25500000000E-02 0.  1.
    5000001    1    1    2    0    0  0.22214918815E+02 -0.13143927016E+03 -0.44116481668E+03  0.48951116416E+03  0.16500000000E+03 0.  0.
   -5000001    1    1    2    0    0 -0.22214918815E+02  0.13143927016E+03 -0.29684235880E+03  0.36484266518E+03  0.16500000000E+03 0.  0.
<mgrwt>
<rscale>  0 0.43042523E+03</rscale>
<asrwt>0</asrwt>
<pdfrwt beam="1">  1        2 0.11374006E+00 0.43042523E+03</pdfrwt>
<pdfrwt beam="2">  1       -2 0.83104758E-02 0.43042523E+03</pdfrwt>
<totfact> 0.35140919E+03</totfact>
</mgrwt>
</event>
<event>
 4    1  0.1049403E-004  0.8573788E+03  0.7818608E-02  0.9480487E-01
         -2   -1    0    0    0  501 -0.00000000000E+00  0.00000000000E+00  0.14856592128E+03  0.14856592131E+03  0.25500000000E-02 0. -1.
          2   -1    0    0  501    0  0.00000000000E+00 -0.00000000000E+00 -0.12369901955E+04  0.12369901956E+04  0.25500000000E-02 0.  1.
    5000001    1    1    2    0    0 -0.11412257834E+03  0.34173312120E+03 -0.27993147804E+03  0.48517225952E+03  0.16500000000E+03 0.  0.
   -5000001    1    1    2    0    0  0.11412257834E+03 -0.34173312120E+03 -0.80849279623E+03  0.90038385734E+03  0.16500000000E+03 0.  0.
<mgrwt>
<rscale>  0 0.85737877E+03</rscale>
<asrwt>0</asrwt>
<pdfrwt beam="1">  1        2 0.17671288E+00 0.85737877E+03</pdfrwt>
<pdfrwt beam="2">  1       -2 0.21223704E-01 0.85737877E+03</pdfrwt>
<totfact> 0.39206803E+02</totfact>
</mgrwt>
</event>
<event>
 4    1  0.1049403E-004  0.4017626E+03  0.7818608E-02  0.1043171E+00
          2   -1    0    0  501    0  0.00000000000E+00  0.00000000000E+00  0.13036263552E+04  0.13036263552E+04  0.25500000000E-02 0.  1.
         -2   -1    0    0    0  501 -0.00000000000E+00 -0.00000000000E+00 -0.30954646721E+02  0.30954646826E+02  0.25500000000E-02 0. -1.
    5000001    1    1    2    0    0 -0.11064637513E+03 -0.21460538946E+01  0.53773514572E+03  0.57326373757E+03  0.16500000000E+03 0.  0.
   -5000001    1    1    2    0    0  0.11064637513E+03  0.21460538946E+01  0.73493656280E+03  0.76131726449E+03  0.16500000000E+03 0.  0.
<mgrwt>
<rscale>  0 0.40176258E+03</rscale>
<asrwt>0</asrwt>
<pdfrwt beam="1">  1        2 0.18623233E+00 0.40176258E+03</pdfrwt>
<pdfrwt beam="2">  1       -2 0.44220926E-02 0.40176258E+03</pdfrwt>
<totfact> 0.46750742E+03</totfact>
</mgrwt>
</event>
<event>
 4    1  0.1049403E-004  0.1037056E+04  0.7818608E-02  0.9268810E-01
         -2   -1    0    0    0  501 -0.00000000000E+00  0.00000000000E+00  0.18735677035E+03  0.18735677037E+03  0.25500000000E-02 0. -1.
          2   -1    0    0  501    0  0.00000000000E+00 -0.00000000000E+00 -0.14350773461E+04  0.14350773461E+04  0.25500000000E-02 0.  1.
    5000001    1    1    2    0    0 -0.37835019945E+03  0.30941686702E+03 -0.54168831528E+03  0.74802332980E+03  0.16500000000E+03 0.  0.
   -5000001    1    1    2    0    0  0.37835019945E+03 -0.30941686702E+03 -0.70603226045E+03  0.87441078665E+03  0.16500000000E+03 0.  0.
<mgrwt>
<rscale>  0 0.10370563E+04</rscale>
<asrwt>0</asrwt>
<pdfrwt beam="1">  1        2 0.20501104E+00 0.10370563E+04</pdfrwt>
<pdfrwt beam="2">  1       -2 0.26765254E-01 0.10370563E+04</pdfrwt>
<totfact> 0.19942028E+02</totfact>
</mgrwt>
</event>
<event>
 4    1  0.1049403E-004  0.7314483E+03  0.7818608E-02  0.9664913E-01
          2   -1    0    0  501    0  0.00000000000E+00  0.00000000000E+00  0.16677800366E+04  0.16677800366E+04  0.25500000000E-02 0.  1.
         -2   -1    0    0    0  501 -0.00000000000E+00 -0.00000000000E+00 -0.80198923597E+02  0.80198923638E+02  0.25500000000E-02 0. -1.
    5000001    1    1    2    0    0 -0.20289879259E+03  0.23900312185E+03  0.57687871995E+03  0.67698188293E+03  0.16500000000E+03 0.  0.
   -5000001    1    1    2    0    0  0.20289879259E+03 -0.23900312185E+03  0.10107023931E+04  0.10709970773E+04  0.16500000000E+03 0.  0.
<mgrwt>
<rscale>  0 0.73144833E+03</rscale>
<asrwt>0</asrwt>
<pdfrwt beam="1">  1        2 0.23825427E+00 0.73144833E+03</pdfrwt>
<pdfrwt beam="2">  1       -2 0.11456990E-01 0.73144833E+03</pdfrwt>
<totfact> 0.66397000E+02</totfact>
</mgrwt>
</event>
<event>
 4    1  0.1049403E-004  0.8334687E+03  0.7818608E-02  0.9512797E-01
         -2   -1    0    0    0  501 -0.00000000000E+00  0.00000000000E+00  0.56763649067E+02  0.56763649125E+02  0.25500000000E-02 0.  1.
          2   -1    0    0  501    0  0.00000000000E+00 -0.00000000000E+00 -0.30594846052E+04  0.30594846052E+04  0.25500000000E-02 0. -1.
    5000001    1    1    2    0    0 -0.45170494364E+02 -0.35553693831E+03 -0.99979665959E+03  0.10748326607E+04  0.16500000000E+03 0.  0.
   -5000001    1    1    2    0    0  0.45170494364E+02  0.35553693831E+03 -0.20029242965E+04  0.20414155936E+04  0.16500000000E+03 0.  0.
<mgrwt>
<rscale>  0 0.83346868E+03</rscale>
<asrwt>0</asrwt>
<pdfrwt beam="1">  1        2 0.43706913E+00 0.83346868E+03</pdfrwt>
<pdfrwt beam="2">  1       -2 0.81090947E-02 0.83346868E+03</pdfrwt>
<totfact> 0.21879358E+02</totfact>
</mgrwt>
</event>
<event>
 4    1  0.1049403E-004  0.5777041E+03  0.7818608E-02  0.9952774E-01
         -2   -1    0    0    0  501 -0.00000000000E+00  0.00000000000E+00  0.15784608596E+03  0.15784608598E+03  0.25500000000E-02 0. -1.
          2   -1    0    0  501    0  0.00000000000E+00 -0.00000000000E+00 -0.52858766666E+03  0.52858766666E+03  0.25500000000E-02 0.  1.
    5000001    1    1    2    0    0 -0.19798885539E+03  0.56558372866E+01 -0.34019833628E+03  0.42683894312E+03  0.16500000000E+03 0.  0.
   -5000001    1    1    2    0    0  0.19798885539E+03 -0.56558372866E+01 -0.30543244417E+02  0.25959480953E+03  0.16500000000E+03 0.  0.
<mgrwt>
<rscale>  0 0.57770406E+03</rscale>
<asrwt>0</asrwt>
<pdfrwt beam="1">  1        2 0.75512523E-01 0.57770406E+03</pdfrwt>
<pdfrwt beam="2">  1       -2 0.22549441E-01 0.57770406E+03</pdfrwt>
<totfact> 0.10879076E+03</totfact>
</mgrwt>
</event>
<event>
 4    1  0.1049403E-004  0.5058840E+03  0.7818608E-02  0.1012254E+00
          2   -1    0    0  501    0  0.00000000000E+00  0.00000000000E+00  0.18328706564E+04  0.18328706564E+04  0.25500000000E-02 0.  1.
         -2   -1    0    0    0  501 -0.00000000000E+00 -0.00000000000E+00 -0.34906802273E+02  0.34906802367E+02  0.25500000000E-02 0. -1.
    5000001    1    1    2    0    0  0.16603191286E+03 -0.78461672251E+02  0.11022766732E+04  0.11295847442E+04  0.16500000000E+03 0.  0.
   -5000001    1    1    2    0    0 -0.16603191286E+03  0.78461672251E+02  0.69568718093E+03  0.73819271455E+03  0.16500000000E+03 0.  0.
<mgrwt>
<rscale>  0 0.50588399E+03</rscale>
<asrwt>0</asrwt>
<pdfrwt beam="1">  1        2 0.26183866E+00 0.50588399E+03</pdfrwt>
<pdfrwt beam="2">  1       -2 0.49866861E-02 0.50588399E+03</pdfrwt>
<totfact> 0.20777712E+03</totfact>
</mgrwt>
</event>
<event>
 4    1  0.1049403E-004  0.5007711E+03  0.7818608E-02  0.1013578E+00
         -2   -1    0    0    0  501 -0.00000000000E+00  0.00000000000E+00  0.62564323301E+02  0.62564323353E+02  0.25500000000E-02 0. -1.
          2   -1    0    0  501    0  0.00000000000E+00 -0.00000000000E+00 -0.10020556296E+04  0.10020556296E+04  0.25500000000E-02 0.  1.
    5000001    1    1    2    0    0 -0.50095670776E+02 -0.18106682564E+03 -0.49772129990E+03  0.55699754394E+03  0.16500000000E+03 0.  0.
   -5000001    1    1    2    0    0  0.50095670776E+02  0.18106682564E+03 -0.44177000635E+03  0.50762240897E+03  0.16500000000E+03 0.  0.
<mgrwt>
<rscale>  0 0.50077113E+03</rscale>
<asrwt>0</asrwt>
<pdfrwt beam="1">  1        2 0.14315079E+00 0.50077113E+03</pdfrwt>
<pdfrwt beam="2">  1       -2 0.89377611E-02 0.50077113E+03</pdfrwt>
<totfact> 0.23104324E+03</totfact>
</mgrwt>
</event>
<event>
 4    1  0.1049403E-004  0.7015348E+03  0.7818608E-02  0.9714611E-01
          2   -1    0    0  501    0  0.00000000000E+00  0.00000000000E+00  0.20192554344E+04  0.20192554344E+04  0.25500000000E-02 0.  1.
         -2   -1    0    0    0  501 -0.00000000000E+00 -0.00000000000E+00 -0.60932251589E+02  0.60932251643E+02  0.25500000000E-02 0. -1.
    5000001    1    1    2    0    0 -0.19061070989E+03  0.24156609204E+03  0.10786685516E+04  0.11337713455E+04  0.16500000000E+03 0.  0.
   -5000001    1    1    2    0    0  0.19061070989E+03 -0.24156609204E+03  0.87965463124E+03  0.94641634063E+03  0.16500000000E+03 0.  0.
<mgrwt>
<rscale>  0 0.70153483E+03</rscale>
<asrwt>0</asrwt>
<pdfrwt beam="1">  1        2 0.28846508E+00 0.70153483E+03</pdfrwt>
<pdfrwt beam="2">  1       -2 0.87046067E-02 0.70153483E+03</pdfrwt>
<totfact> 0.68948727E+02</totfact>
</mgrwt>
</event>
<event>
 4    1  0.1049403E-004  0.3729367E+03  0.7818608E-02  0.1053576E+00
         -2   -1    0    0    0  501 -0.00000000000E+00  0.00000000000E+00  0.16740151960E+03  0.16740151962E+03  0.25500000000E-02 0. -1.
          2   -1    0    0  501    0  0.00000000000E+00 -0.00000000000E+00 -0.20770692279E+03  0.20770692281E+03  0.25500000000E-02 0.  1.
    5000001    1    1    2    0    0  0.67701361075E+02  0.82523087970E+01  0.33955349311E+02  0.18174031099E+03  0.16500000000E+03 0.  0.
   -5000001    1    1    2    0    0 -0.67701361075E+02 -0.82523087970E+01 -0.74260752504E+02  0.19336813143E+03  0.16500000000E+03 0.  0.
<mgrwt>
<rscale>  0 0.37293675E+03</rscale>
<asrwt>0</asrwt>
<pdfrwt beam="1">  1        2 0.29672417E-01 0.37293675E+03</pdfrwt>
<pdfrwt beam="2">  1       -2 0.23914503E-01 0.37293675E+03</pdfrwt>
<totfact> 0.27467070E+03</totfact>
</mgrwt>
</event>
<event>
 4    1  0.1049403E-004  0.9220067E+03  0.7818608E-02  0.9398483E-01
          2   -1    0    0  501    0  0.00000000000E+00  0.00000000000E+00  0.21024445664E+03  0.21024445665E+03  0.25500000000E-02 0.  1.
         -2   -1    0    0    0  501 -0.00000000000E+00 -0.00000000000E+00 -0.10108427815E+04  0.10108427815E+04  0.25500000000E-02 0. -1.
    5000001    1    1    2    0    0 -0.31359151323E+03  0.14579566173E+03 -0.60825977938E+02  0.38797011708E+03  0.16500000000E+03 0.  0.
   -5000001    1    1    2    0    0  0.31359151323E+03 -0.14579566173E+03 -0.73977234692E+03  0.83311712107E+03  0.16500000000E+03 0.  0.
<mgrwt>
<rscale>  0 0.92200671E+03</rscale>
<asrwt>0</asrwt>
<pdfrwt beam="1">  1        2 0.30034923E-01 0.92200671E+03</pdfrwt>
<pdfrwt beam="2">  1       -2 0.14440611E+00 0.92200671E+03</pdfrwt>
<totfact> 0.59011269E+01</totfact>
</mgrwt>
</event>
<event>
 4    1  0.1049403E-004  0.1076955E+04  0.7818608E-02  0.9227949E-01
          2   -1    0    0  501    0  0.00000000000E+00  0.00000000000E+00  0.18324184741E+04  0.18324184741E+04  0.25500000000E-02 0.  1.
         -2   -1    0    0    0  501 -0.00000000000E+00 -0.00000000000E+00 -0.15823789572E+03  0.15823789574E+03  0.25500000000E-02 0. -1.
    5000001    1    1    2    0    0  0.16171255517E+03  0.41156517718E+03  0.35794075299E+03  0.59235414088E+03  0.16500000000E+03 0.  0.
   -5000001    1    1    2    0    0 -0.16171255517E+03 -0.41156517718E+03  0.13162398254E+04  0.13983022290E+04  0.16500000000E+03 0.  0.
<mgrwt>
<rscale>  0 0.10769550E+04</rscale>
<asrwt>0</asrwt>
<pdfrwt beam="1">  1        2 0.26177406E+00 0.10769550E+04</pdfrwt>
<pdfrwt beam="2">  1       -2 0.22605415E-01 0.10769550E+04</pdfrwt>
<totfact> 0.16737056E+02</totfact>
</mgrwt>
</event>
<event>
 4    1  0.1049403E-004  0.3944503E+03  0.7818608E-02  0.1045718E+00
         -2   -1    0    0    0  501 -0.00000000000E+00  0.00000000000E+00  0.42668941263E+02  0.42668941339E+02  0.25500000000E-02 0. -1.
          2   -1    0    0  501    0  0.00000000000E+00 -0.00000000000E+00 -0.91161751726E+03  0.91161751726E+03  0.25500000000E-02 0.  1.
    5000001    1    1    2    0    0  0.30390665607E+02  0.99190417922E+02 -0.50747179982E+03  0.54361287620E+03  0.16500000000E+03 0.  0.
   -5000001    1    1    2    0    0 -0.30390665607E+02 -0.99190417922E+02 -0.36147677618E+03  0.41067358240E+03  0.16500000000E+03 0.  0.
<mgrwt>
<rscale>  0 0.39445027E+03</rscale>
<asrwt>0</asrwt>
<pdfrwt beam="1">  1        2 0.13023106E+00 0.39445027E+03</pdfrwt>
<pdfrwt beam="2">  1       -2 0.60955636E-02 0.39445027E+03</pdfrwt>
<totfact> 0.47916820E+03</totfact>
</mgrwt>
</event>
<event>
 4    1  0.1049403E-004  0.4936568E+03  0.7818608E-02  0.1015448E+00
         -2   -1    0    0    0  501 -0.00000000000E+00  0.00000000000E+00  0.82841102701E+02  0.82841102740E+02  0.25500000000E-02 0. -1.
          2   -1    0    0  501    0  0.00000000000E+00 -0.00000000000E+00 -0.73543509148E+03  0.73543509148E+03  0.25500000000E-02 0.  1.
    5000001    1    1    2    0    0 -0.15886895504E+03  0.36065925806E+02 -0.46654793647E+03  0.52099143266E+03  0.16500000000E+03 0.  0.
   -5000001    1    1    2    0    0  0.15886895504E+03 -0.36065925806E+02 -0.18604605231E+03  0.29728476156E+03  0.16500000000E+03 0.  0.
<mgrwt>
<rscale>  0 0.49365678E+03</rscale>
<asrwt>0</asrwt>
<pdfrwt beam="1">  1        2 0.10506215E+00 0.49365678E+03</pdfrwt>
<pdfrwt beam="2">  1       -2 0.11834444E-01 0.49365678E+03</pdfrwt>
<totfact> 0.21978376E+03</totfact>
</mgrwt>
</event>
<event>
 4    1  0.1049403E-004  0.9677519E+03  0.7818608E-02  0.9344639E-01
          2   -1    0    0  501    0  0.00000000000E+00  0.00000000000E+00  0.90685865682E+03  0.90685865683E+03  0.25500000000E-02 0.  1.
         -2   -1    0    0    0  501 -0.00000000000E+00 -0.00000000000E+00 -0.25818346841E+03  0.25818346843E+03  0.25500000000E-02 0. -1.
    5000001    1    1    2    0    0 -0.95355998994E+01  0.45413316469E+03  0.35340673350E+03  0.59870625370E+03  0.16500000000E+03 0.  0.
   -5000001    1    1    2    0    0  0.95355998994E+01 -0.45413316469E+03  0.29526845491E+03  0.56633587155E+03  0.16500000000E+03 0.  0.
<mgrwt>
<rscale>  0 0.96775186E+03</rscale>
<asrwt>0</asrwt>
<pdfrwt beam="1">  1        2 0.12955124E+00 0.96775186E+03</pdfrwt>
<pdfrwt beam="2">  1       -2 0.36883352E-01 0.96775186E+03</pdfrwt>
<totfact> 0.22243083E+02</totfact>
</mgrwt>
</event>
<event>
 4    1  0.1049403E-004  0.1126143E+04  0.7818608E-02  0.9180079E-01
         -2   -1    0    0    0  501 -0.00000000000E+00  0.00000000000E+00  0.12060695240E+04  0.12060695240E+04  0.25500000000E-02 0. -1.
          2   -1    0    0  501    0  0.00000000000E+00 -0.00000000000E+00 -0.26287853266E+03  0.26287853268E+03  0.25500000000E-02 0.  1.
    5000001    1    1    2    0    0  0.26878366536E+03  0.39926768699E+03  0.78618572318E+03  0.93646801118E+03  0.16500000000E+03 0.  0.
   -5000001    1    1    2    0    0 -0.26878366536E+03 -0.39926768699E+03  0.15700526817E+03  0.53248004551E+03  0.16500000000E+03 0.  0.
<mgrwt>
<rscale>  0 0.11261435E+04</rscale>
<asrwt>0</asrwt>
<pdfrwt beam="1">  1        2 0.37554075E-01 0.11261435E+04</pdfrwt>
<pdfrwt beam="2">  1       -2 0.17229565E+00 0.11261435E+04</pdfrwt>
<totfact> 0.28129694E+01</totfact>
</mgrwt>
</event>
<event>
 4    1  0.1049403E-004  0.3427284E+03  0.7818608E-02  0.1065640E+00
          2   -1    0    0  501    0  0.00000000000E+00  0.00000000000E+00  0.10430635774E+04  0.10430635774E+04  0.25500000000E-02 0.  1.
         -2   -1    0    0    0  501 -0.00000000000E+00 -0.00000000000E+00 -0.28153314387E+02  0.28153314502E+02  0.25500000000E-02 0. -1.
    5000001    1    1    2    0    0  0.39531081287E+02  0.63141504492E+01  0.57996007771E+03  0.60430229739E+03  0.16500000000E+03 0.  0.
   -5000001    1    1    2    0    0 -0.39531081287E+02 -0.63141504492E+01  0.43495018531E+03  0.46691459453E+03  0.16500000000E+03 0.  0.
<mgrwt>
<rscale>  0 0.34272845E+03</rscale>
<asrwt>0</asrwt>
<pdfrwt beam="1">  1        2 0.14900911E+00 0.34272845E+03</pdfrwt>
<pdfrwt beam="2">  1       -2 0.40219013E-02 0.34272845E+03</pdfrwt>
<totfact> 0.75228214E+03</totfact>
</mgrwt>
</event>
<event>
 4    1  0.1049403E-004  0.3850435E+03  0.7818608E-02  0.1049085E+00
         -2   -1    0    0    0  501 -0.00000000000E+00  0.00000000000E+00  0.26398914418E+02  0.26398914541E+02  0.25500000000E-02 0. -1.
          2   -1    0    0  501    0  0.00000000000E+00 -0.00000000000E+00 -0.14040206955E+04  0.14040206955E+04  0.25500000000E-02 0.  1.
    5000001    1    1    2    0    0  0.69200228479E+02 -0.41984242028E+02 -0.90183937339E+03  0.92037525152E+03  0.16500000000E+03 0.  0.
   -5000001    1    1    2    0    0 -0.69200228479E+02  0.41984242028E+02 -0.47578240770E+03  0.51004435854E+03  0.16500000000E+03 0.  0.
<mgrwt>
<rscale>  0 0.38504349E+03</rscale>
<asrwt>0</asrwt>
<pdfrwt beam="1">  1        2 0.20057434E+00 0.38504349E+03</pdfrwt>
<pdfrwt beam="2">  1       -2 0.37712744E-02 0.38504349E+03</pdfrwt>
<totfact> 0.52701133E+03</totfact>
</mgrwt>
</event>
<event>
 4    1  0.1049403E-004  0.9834287E+03  0.7818608E-02  0.9326909E-01
         -2   -1    0    0    0  501 -0.00000000000E+00  0.00000000000E+00  0.18167081258E+03  0.18167081260E+03  0.25500000000E-02 0. -1.
          2   -1    0    0  501    0  0.00000000000E+00 -0.00000000000E+00 -0.13308851111E+04  0.13308851111E+04  0.25500000000E-02 0.  1.
    5000001    1    1    2    0    0  0.95556967972E+02 -0.41523257173E+03 -0.29517062760E+03  0.54396683920E+03  0.16500000000E+03 0.  0.
   -5000001    1    1    2    0    0 -0.95556967972E+02  0.41523257173E+03 -0.85404367089E+03  0.96858908446E+03  0.16500000000E+03 0.  0.
<mgrwt>
<rscale>  0 0.98342865E+03</rscale>
<asrwt>0</asrwt>
<pdfrwt beam="1">  1        2 0.19012644E+00 0.98342865E+03</pdfrwt>
<pdfrwt beam="2">  1       -2 0.25952974E-01 0.98342865E+03</pdfrwt>
<totfact> 0.24097050E+02</totfact>
</mgrwt>
</event>
<event>
 4    1  0.1049403E-004  0.4016680E+03  0.7818608E-02  0.1043204E+00
         -2   -1    0    0    0  501 -0.00000000000E+00  0.00000000000E+00  0.26439740602E+02  0.26439740725E+02  0.25500000000E-02 0. -1.
          2   -1    0    0  501    0  0.00000000000E+00 -0.00000000000E+00 -0.15255175843E+04  0.15255175844E+04  0.25500000000E-02 0.  1.
    5000001    1    1    2    0    0 -0.56569322672E+01 -0.93433047149E+02 -0.49477667306E+03  0.52989686863E+03  0.16500000000E+03 0.  0.
   -5000001    1    1    2    0    0  0.56569322672E+01  0.93433047149E+02 -0.10043011707E+04  0.10220604564E+04  0.16500000000E+03 0.  0.
<mgrwt>
<rscale>  0 0.40166797E+03</rscale>
<asrwt>0</asrwt>
<pdfrwt beam="1">  1        2 0.21793103E+00 0.40166797E+03</pdfrwt>
<pdfrwt beam="2">  1       -2 0.37771068E-02 0.40166797E+03</pdfrwt>
<totfact> 0.45521484E+03</totfact>
</mgrwt>
</event>
<event>
 4    1  0.1049403E-004  0.1633830E+04  0.7818608E-02  0.8800030E-01
         -2   -1    0    0    0  501 -0.00000000000E+00  0.00000000000E+00  0.29782569671E+03  0.29782569672E+03  0.25500000000E-02 0. -1.
          2   -1    0    0  501    0  0.00000000000E+00 -0.00000000000E+00 -0.22407411001E+04  0.22407411001E+04  0.25500000000E-02 0.  1.
    5000001    1    1    2    0    0 -0.31889115122E+03  0.53337910443E+03 -0.17544321936E+04  0.18685401139E+04  0.16500000000E+03 0.  0.
   -5000001    1    1    2    0    0  0.31889115122E+03 -0.53337910443E+03 -0.18848320972E+03  0.67002668284E+03  0.16500000000E+03 0.  0.
<mgrwt>
<rscale>  0 0.16338302E+04</rscale>
<asrwt>0</asrwt>
<pdfrwt beam="1">  1        2 0.32010586E+00 0.16338302E+04</pdfrwt>
<pdfrwt beam="2">  1       -2 0.42546529E-01 0.16338302E+04</pdfrwt>
<totfact> 0.30243043E+01</totfact>
</mgrwt>
</event>
<event>
 4    1  0.1049403E-004  0.7527919E+03  0.7818608E-02  0.9630980E-01
          2   -1    0    0  501    0  0.00000000000E+00  0.00000000000E+00  0.12058925558E+04  0.12058925558E+04  0.25500000000E-02 0.  1.
         -2   -1    0    0    0  501 -0.00000000000E+00 -0.00000000000E+00 -0.11748467981E+03  0.11748467983E+03  0.25500000000E-02 0. -1.
    5000001    1    1    2    0    0  0.29177221213E+03 -0.14077363369E+03  0.71555454677E+03  0.80261544286E+03  0.16500000000E+03 0.  0.
   -5000001    1    1    2    0    0 -0.29177221213E+03  0.14077363369E+03  0.37285332925E+03  0.52076179280E+03  0.16500000000E+03 0.  0.
<mgrwt>
<rscale>  0 0.75279187E+03</rscale>
<asrwt>0</asrwt>
<pdfrwt beam="1">  1        2 0.17227035E+00 0.75279187E+03</pdfrwt>
<pdfrwt beam="2">  1       -2 0.16783527E-01 0.75279187E+03</pdfrwt>
<totfact> 0.61666876E+02</totfact>
</mgrwt>
</event>
<event>
 4    1  0.1049403E-004  0.5595846E+03  0.7818608E-02  0.9992995E-01
          2   -1    0    0  501    0  0.00000000000E+00  0.00000000000E+00  0.77749117480E+03  0.77749117480E+03  0.25500000000E-02 0.  1.
         -2   -1    0    0    0  501 -0.00000000000E+00 -0.00000000000E+00 -0.10068760249E+03  0.10068760252E+03  0.25500000000E-02 0. -1.
    5000001    1    1    2    0    0  0.14203656187E+03  0.18596642925E+02  0.61264827435E+03  0.65044840541E+03  0.16500000000E+03 0.  0.
   -5000001    1    1    2    0    0 -0.14203656187E+03 -0.18596642925E+02  0.64155297965E+02  0.22773037192E+03  0.16500000000E+03 0.  0.
<mgrwt>
<rscale>  0 0.55958457E+03</rscale>
<asrwt>0</asrwt>
<pdfrwt beam="1">  1        2 0.11107016E+00 0.55958457E+03</pdfrwt>
<pdfrwt beam="2">  1       -2 0.14383944E-01 0.55958457E+03</pdfrwt>
<totfact> 0.14845439E+03</totfact>
</mgrwt>
</event>
<event>
 4    1  0.1049403E-004  0.5060118E+03  0.7818608E-02  0.1012222E+00
         -2   -1    0    0    0  501 -0.00000000000E+00  0.00000000000E+00  0.49748867745E+02  0.49748867810E+02  0.25500000000E-02 0.  1.
          2   -1    0    0  501    0  0.00000000000E+00 -0.00000000000E+00 -0.12867022583E+04  0.12867022583E+04  0.25500000000E-02 0. -1.
    5000001    1    1    2    0    0  0.11022573215E+03 -0.13117749447E+03 -0.39082071165E+03  0.45751838841E+03  0.16500000000E+03 0.  0.
   -5000001    1    1    2    0    0 -0.11022573215E+03  0.13117749447E+03 -0.84613267888E+03  0.87893273767E+03  0.16500000000E+03 0.  0.
<mgrwt>
<rscale>  0 0.50601178E+03</rscale>
<asrwt>0</asrwt>
<pdfrwt beam="1">  1        2 0.18381459E+00 0.50601178E+03</pdfrwt>
<pdfrwt beam="2">  1       -2 0.71069819E-02 0.50601178E+03</pdfrwt>
<totfact> 0.22882615E+03</totfact>
</mgrwt>
</event>
<event>
 4    1  0.1049403E-004  0.5702866E+03  0.7818608E-02  0.9969045E-01
          2   -1    0    0  501    0  0.00000000000E+00  0.00000000000E+00  0.68424486279E+03  0.68424486279E+03  0.25500000000E-02 0.  1.
         -2   -1    0    0    0  501 -0.00000000000E+00 -0.00000000000E+00 -0.11882690095E+03  0.11882690098E+03  0.25500000000E-02 0. -1.
    5000001    1    1    2    0    0 -0.17852813446E+03  0.14899278703E+03  0.27813481944E+03  0.39831535643E+03  0.16500000000E+03 0.  0.
   -5000001    1    1    2    0    0  0.17852813446E+03 -0.14899278703E+03  0.28728314240E+03  0.40475640735E+03  0.16500000000E+03 0.  0.
<mgrwt>
<rscale>  0 0.57028658E+03</rscale>
<asrwt>0</asrwt>
<pdfrwt beam="1">  1        2 0.97749265E-01 0.57028658E+03</pdfrwt>
<pdfrwt beam="2">  1       -2 0.16975272E-01 0.57028658E+03</pdfrwt>
<totfact> 0.13142830E+03</totfact>
</mgrwt>
</event>
<event>
 4    1  0.1049403E-004  0.4390652E+03  0.7818608E-02  0.1031034E+00
          2   -1    0    0  501    0  0.00000000000E+00  0.00000000000E+00  0.24503336843E+04  0.24503336843E+04  0.25500000000E-02 0.  1.
         -2   -1    0    0    0  501 -0.00000000000E+00 -0.00000000000E+00 -0.19668566956E+02  0.19668567121E+02  0.25500000000E-02 0. -1.
    5000001    1    1    2    0    0  0.13167992825E+03 -0.60123956715E+02  0.11935021647E+04  0.12135184015E+04  0.16500000000E+03 0.  0.
   -5000001    1    1    2    0    0 -0.13167992825E+03  0.60123956715E+02  0.12371629527E+04  0.12564838499E+04  0.16500000000E+03 0.  0.
<mgrwt>
<rscale>  0 0.43906515E+03</rscale>
<asrwt>0</asrwt>
<pdfrwt beam="1">  1        2 0.35004791E+00 0.43906515E+03</pdfrwt>
<pdfrwt beam="2">  1       -2 0.28097933E-02 0.43906515E+03</pdfrwt>
<totfact> 0.24531400E+03</totfact>
</mgrwt>
</event>
<event>
 4    1  0.1049403E-004  0.3933714E+03  0.7818608E-02  0.1046099E+00
          2   -1    0    0  501    0  0.00000000000E+00  0.00000000000E+00  0.23644415398E+03  0.23644415399E+03  0.25500000000E-02 0.  1.
         -2   -1    0    0    0  501 -0.00000000000E+00 -0.00000000000E+00 -0.16361273117E+03  0.16361273119E+03  0.25500000000E-02 0. -1.
    5000001    1    1    2    0    0 -0.46042712892E+02  0.95962628743E+02  0.48078668528E+02  0.20215171504E+03  0.16500000000E+03 0.  0.
   -5000001    1    1    2    0    0  0.46042712892E+02 -0.95962628743E+02  0.24752754283E+02  0.19790517015E+03  0.16500000000E+03 0.  0.
<mgrwt>
<rscale>  0 0.39337145E+03</rscale>
<asrwt>0</asrwt>
<pdfrwt beam="1">  1        2 0.33777736E-01 0.39337145E+03</pdfrwt>
<pdfrwt beam="2">  1       -2 0.23373247E-01 0.39337145E+03</pdfrwt>
<totfact> 0.24807393E+03</totfact>
</mgrwt>
</event>
<event>
 4    1  0.1049403E-004  0.1419647E+04  0.7818608E-02  0.8939718E-01
         -2   -1    0    0    0  501 -0.00000000000E+00  0.00000000000E+00  0.10524692217E+04  0.10524692217E+04  0.25500000000E-02 0. -1.
          2   -1    0    0  501    0  0.00000000000E+00 -0.00000000000E+00 -0.47873108470E+03  0.47873108471E+03  0.25500000000E-02 0.  1.
    5000001    1    1    2    0    0  0.35448510129E+03  0.34591616508E+03  0.80560452317E+03  0.95996944120E+03  0.16500000000E+03 0.  0.
   -5000001    1    1    2    0    0 -0.35448510129E+03 -0.34591616508E+03 -0.23186638619E+03  0.57123086519E+03  0.16500000000E+03 0.  0.
<mgrwt>
<rscale>  0 0.14196475E+04</rscale>
<asrwt>0</asrwt>
<pdfrwt beam="1">  1        2 0.68390156E-01 0.14196475E+04</pdfrwt>
<pdfrwt beam="2">  1       -2 0.15035274E+00 0.14196475E+04</pdfrwt>
<totfact> 0.20442089E+01</totfact>
</mgrwt>
</event>
<event>
 4    1  0.1049403E-004  0.3824316E+03  0.7818608E-02  0.1050039E+00
          2   -1    0    0  501    0  0.00000000000E+00  0.00000000000E+00  0.16187748036E+03  0.16187748038E+03  0.25500000000E-02 0.  1.
         -2   -1    0    0    0  501 -0.00000000000E+00 -0.00000000000E+00 -0.22587135026E+03  0.22587135027E+03  0.25500000000E-02 0. -1.
    5000001    1    1    2    0    0 -0.56143231516E+02 -0.24567323052E+02  0.43760530793E+02  0.18137144169E+03  0.16500000000E+03 0.  0.
   -5000001    1    1    2    0    0  0.56143231516E+02  0.24567323052E+02 -0.10775440069E+03  0.20637738896E+03  0.16500000000E+03 0.  0.
<mgrwt>
<rscale>  0 0.38243162E+03</rscale>
<asrwt>0</asrwt>
<pdfrwt beam="1">  1        2 0.23125354E-01 0.38243162E+03</pdfrwt>
<pdfrwt beam="2">  1       -2 0.32267336E-01 0.38243162E+03</pdfrwt>
<totfact> 0.21158814E+03</totfact>
</mgrwt>
</event>
<event>
 4    1  0.1049403E-004  0.5088580E+03  0.7818608E-02  0.1011492E+00
         -2   -1    0    0    0  501 -0.00000000000E+00  0.00000000000E+00  0.58706702748E+02  0.58706702804E+02  0.25500000000E-02 0. -1.
          2   -1    0    0  501    0  0.00000000000E+00 -0.00000000000E+00 -0.11026701336E+04  0.11026701336E+04  0.25500000000E-02 0.  1.
    5000001    1    1    2    0    0  0.93394690000E+02  0.14222506154E+03 -0.73312518995E+03  0.77048561336E+03  0.16500000000E+03 0.  0.
   -5000001    1    1    2    0    0 -0.93394690000E+02 -0.14222506154E+03 -0.31083824089E+03  0.39089122303E+03  0.16500000000E+03 0.  0.
<mgrwt>
<rscale>  0 0.50885805E+03</rscale>
<asrwt>0</asrwt>
<pdfrwt beam="1">  1        2 0.15752429E+00 0.50885805E+03</pdfrwt>
<pdfrwt beam="2">  1       -2 0.83866725E-02 0.50885805E+03</pdfrwt>
<totfact> 0.22304052E+03</totfact>
</mgrwt>
</event>
<event>
 4    1  0.1049403E-004  0.5371507E+03  0.7818608E-02  0.1004513E+00
          2   -1    0    0  501    0  0.00000000000E+00  0.00000000000E+00  0.44502374314E+03  0.44502374315E+03  0.25500000000E-02 0.  1.
         -2   -1    0    0    0  501 -0.00000000000E+00 -0.00000000000E+00 -0.16208737775E+03  0.16208737777E+03  0.25500000000E-02 0. -1.
    5000001    1    1    2    0    0  0.16730280736E+03 -0.12094025168E+03  0.19556609964E+03  0.32876720207E+03  0.16500000000E+03 0.  0.
   -5000001    1    1    2    0    0 -0.16730280736E+03  0.12094025168E+03  0.87370265747E+02  0.27834391885E+03  0.16500000000E+03 0.  0.
<mgrwt>
<rscale>  0 0.53715075E+03</rscale>
<asrwt>0</asrwt>
<pdfrwt beam="1">  1        2 0.63574820E-01 0.53715075E+03</pdfrwt>
<pdfrwt beam="2">  1       -2 0.23155340E-01 0.53715075E+03</pdfrwt>
<totfact> 0.12612941E+03</totfact>
</mgrwt>
</event>
<event>
 4    1  0.1049403E-004  0.3736226E+03  0.7818608E-02  0.1053316E+00
          2   -1    0    0  501    0  0.00000000000E+00  0.00000000000E+00  0.21613918926E+04  0.21613918926E+04  0.25500000000E-02 0.  1.
         -2   -1    0    0    0  501 -0.00000000000E+00 -0.00000000000E+00 -0.16146291352E+02  0.16146291553E+02  0.25500000000E-02 0. -1.
    5000001    1    1    2    0    0 -0.36226859268E+02  0.69460402760E+02  0.13010642808E+04  0.13138228175E+04  0.16500000000E+03 0.  0.
   -5000001    1    1    2    0    0  0.36226859268E+02 -0.69460402760E+02  0.84418132045E+03  0.86371536671E+03  0.16500000000E+03 0.  0.
<mgrwt>
<rscale>  0 0.37362261E+03</rscale>
<asrwt>0</asrwt>
<pdfrwt beam="1">  1        2 0.30877002E+00 0.37362261E+03</pdfrwt>
<pdfrwt beam="2">  1       -2 0.23066150E-02 0.37362261E+03</pdfrwt>
<totfact> 0.46076392E+03</totfact>
</mgrwt>
</event>
<event>
 4    1  0.1049403E-004  0.4946255E+03  0.7818608E-02  0.1015191E+00
         -2   -1    0    0    0  501 -0.00000000000E+00  0.00000000000E+00  0.63065578893E+02  0.63065578944E+02  0.25500000000E-02 0. -1.
          2   -1    0    0  501    0  0.00000000000E+00 -0.00000000000E+00 -0.96984135878E+03  0.96984135878E+03  0.25500000000E-02 0.  1.
    5000001    1    1    2    0    0  0.15469386270E+03  0.87027205547E+02 -0.55642785350E+03  0.60691093401E+03  0.16500000000E+03 0.  0.
   -5000001    1    1    2    0    0 -0.15469386270E+03 -0.87027205547E+02 -0.35034792639E+03  0.42599600372E+03  0.16500000000E+03 0.  0.
<mgrwt>
<rscale>  0 0.49462554E+03</rscale>
<asrwt>0</asrwt>
<pdfrwt beam="1">  1        2 0.13854876E+00 0.49462554E+03</pdfrwt>
<pdfrwt beam="2">  1       -2 0.90093690E-02 0.49462554E+03</pdfrwt>
<totfact> 0.23866667E+03</totfact>
</mgrwt>
</event>
<event>
 4    1  0.1049403E-004  0.7520568E+03  0.7818608E-02  0.9632129E-01
          2   -1    0    0  501    0  0.00000000000E+00  0.00000000000E+00  0.10206541265E+04  0.10206541265E+04  0.25500000000E-02 0.  1.
         -2   -1    0    0    0  501 -0.00000000000E+00 -0.00000000000E+00 -0.13853600667E+03  0.13853600669E+03  0.25500000000E-02 0. -1.
    5000001    1    1    2    0    0 -0.26897932037E+02 -0.25524705305E+03  0.77979999305E+03  0.83736944415E+03  0.16500000000E+03 0.  0.
   -5000001    1    1    2    0    0  0.26897932037E+02  0.25524705305E+03  0.10231812681E+03  0.32182068907E+03  0.16500000000E+03 0.  0.
<mgrwt>
<rscale>  0 0.75205677E+03</rscale>
<asrwt>0</asrwt>
<pdfrwt beam="1">  1        2 0.14580773E+00 0.75205677E+03</pdfrwt>
<pdfrwt beam="2">  1       -2 0.19790858E-01 0.75205677E+03</pdfrwt>
<totfact> 0.59498950E+02</totfact>
</mgrwt>
</event>
<event>
 4    1  0.1049403E-004  0.6458500E+03  0.7818608E-02  0.9814598E-01
         -2   -1    0    0    0  501 -0.00000000000E+00  0.00000000000E+00  0.38217128957E+02  0.38217129042E+02  0.25500000000E-02 0. -1.
          2   -1    0    0  501    0  0.00000000000E+00 -0.00000000000E+00 -0.27286341917E+04  0.27286341917E+04  0.25500000000E-02 0.  1.
    5000001    1    1    2    0    0  0.11789803854E+03  0.98667726269E+02 -0.23353728891E+04  0.23462367312E+04  0.16500000000E+03 0.  0.
   -5000001    1    1    2    0    0 -0.11789803854E+03 -0.98667726269E+02 -0.35504417366E+03  0.42061458956E+03  0.16500000000E+03 0.  0.
<mgrwt>
<rscale>  0 0.64585003E+03</rscale>
<asrwt>0</asrwt>
<pdfrwt beam="1">  1        2 0.38980476E+00 0.64585003E+03</pdfrwt>
<pdfrwt beam="2">  1       -2 0.54595916E-02 0.64585003E+03</pdfrwt>
<totfact> 0.62786531E+02</totfact>
</mgrwt>
</event>
<event>
 4    1  0.1049403E-004  0.5084811E+03  0.7818608E-02  0.1011589E+00
         -2   -1    0    0    0  501 -0.00000000000E+00  0.00000000000E+00  0.11558514330E+03  0.11558514333E+03  0.25500000000E-02 0. -1.
          2   -1    0    0  501    0  0.00000000000E+00 -0.00000000000E+00 -0.55922638206E+03  0.55922638207E+03  0.25500000000E-02 0.  1.
    5000001    1    1    2    0    0 -0.16119515768E+03  0.10536192307E+03 -0.19777651569E+03  0.32159845126E+03  0.16500000000E+03 0.  0.
   -5000001    1    1    2    0    0  0.16119515768E+03 -0.10536192307E+03 -0.24586472307E+03  0.35321307414E+03  0.16500000000E+03 0.  0.
<mgrwt>
<rscale>  0 0.50848112E+03</rscale>
<asrwt>0</asrwt>
<pdfrwt beam="1">  1        2 0.79889481E-01 0.50848112E+03</pdfrwt>
<pdfrwt beam="2">  1       -2 0.16512164E-01 0.50848112E+03</pdfrwt>
<totfact> 0.17486125E+03</totfact>
</mgrwt>
</event>
<event>
 4    1  0.1049403E-004  0.1890398E+04  0.7818608E-02  0.8659651E-01
          2   -1    0    0  501    0  0.00000000000E+00  0.00000000000E+00  0.20425887451E+04  0.20425887451E+04  0.25500000000E-02 0.  1.
         -2   -1    0    0    0  501 -0.00000000000E+00 -0.00000000000E+00 -0.43738670100E+03  0.43738670100E+03  0.25500000000E-02 0. -1.
    5000001    1    1    2    0    0  0.41239206742E+03 -0.82248184344E+03  0.61878535832E+03  0.11210102228E+04  0.16500000000E+03 0.  0.
   -5000001    1    1    2    0    0 -0.41239206742E+03  0.82248184344E+03  0.98641668581E+03  0.13589652233E+04  0.16500000000E+03 0.  0.
<mgrwt>
<rscale>  0 0.18903980E+04</rscale>
<asrwt>0</asrwt>
<pdfrwt beam="1">  1        2 0.29179838E+00 0.18903980E+04</pdfrwt>
<pdfrwt beam="2">  1       -2 0.62483816E-01 0.18903980E+04</pdfrwt>
<totfact> 0.17039360E+01</totfact>
</mgrwt>
</event>
<event>
 4    1  0.1049403E-004  0.5916749E+03  0.7818608E-02  0.9922830E-01
          2   -1    0    0  501    0  0.00000000000E+00  0.00000000000E+00  0.21825353179E+04  0.21825353179E+04  0.25500000000E-02 0.  1.
         -2   -1    0    0    0  501 -0.00000000000E+00 -0.00000000000E+00 -0.40100062014E+02  0.40100062095E+02  0.25500000000E-02 0. -1.
    5000001    1    1    2    0    0 -0.17458017198E+03  0.16857173728E+03  0.12117802869E+04  0.12468083778E+04  0.16500000000E+03 0.  0.
   -5000001    1    1    2    0    0  0.17458017198E+03 -0.16857173728E+03  0.93065496899E+03  0.97582700228E+03  0.16500000000E+03 0.  0.
<mgrwt>
<rscale>  0 0.59167492E+03</rscale>
<asrwt>0</asrwt>
<pdfrwt beam="1">  1        2 0.31179084E+00 0.59167492E+03</pdfrwt>
<pdfrwt beam="2">  1       -2 0.57285788E-02 0.59167492E+03</pdfrwt>
<totfact> 0.11142942E+03</totfact>
</mgrwt>
</event>
<event>
 4    1  0.1049403E-004  0.5986466E+03  0.7818608E-02  0.9908218E-01
         -2   -1    0    0    0  501 -0.00000000000E+00  0.00000000000E+00  0.36026995193E+02  0.36026995283E+02  0.25500000000E-02 0. -1.
          2   -1    0    0  501    0  0.00000000000E+00 -0.00000000000E+00 -0.24868697744E+04  0.24868697744E+04  0.25500000000E-02 0.  1.
    5000001    1    1    2    0    0  0.67990878387E+02  0.22636449749E+03 -0.88549936521E+03  0.93123454138E+03  0.16500000000E+03 0.  0.
   -5000001    1    1    2    0    0 -0.67990878387E+02 -0.22636449749E+03 -0.15653434140E+04  0.15916622283E+04  0.16500000000E+03 0.  0.
<mgrwt>
<rscale>  0 0.59864663E+03</rscale>
<asrwt>0</asrwt>
<pdfrwt beam="1">  1        2 0.35526700E+00 0.59864663E+03</pdfrwt>
<pdfrwt beam="2">  1       -2 0.51467152E-02 0.59864663E+03</pdfrwt>
<totfact> 0.92228288E+02</totfact>
</mgrwt>
</event>
<event>
 4    1  0.1049403E-004  0.4416846E+03  0.7818608E-02  0.1030231E+00
         -2   -1    0    0    0  501 -0.00000000000E+00  0.00000000000E+00  0.64222771828E+02  0.64222771879E+02  0.25500000000E-02 0. -1.
          2   -1    0    0  501    0  0.00000000000E+00 -0.00000000000E+00 -0.75940853363E+03  0.75940853363E+03  0.25500000000E-02 0.  1.
    5000001    1    1    2    0    0  0.12258286317E+02  0.70787748897E+02 -0.58628924372E+03  0.61328724777E+03  0.16500000000E+03 0.  0.
   -5000001    1    1    2    0    0 -0.12258286317E+02 -0.70787748897E+02 -0.10889651809E+03  0.21034405774E+03  0.16500000000E+03 0.  0.
<mgrwt>
<rscale>  0 0.44168460E+03</rscale>
<asrwt>0</asrwt>
<pdfrwt beam="1">  1        2 0.10848693E+00 0.44168460E+03</pdfrwt>
<pdfrwt beam="2">  1       -2 0.91746821E-02 0.44168460E+03</pdfrwt>
<totfact> 0.31857421E+03</totfact>
</mgrwt>
</event>
<event>
 4    1  0.1049403E-004  0.5990522E+03  0.7818608E-02  0.9907374E-01
          2   -1    0    0  501    0  0.00000000000E+00  0.00000000000E+00  0.81707748168E+03  0.81707748169E+03  0.25500000000E-02 0. -1.
         -2   -1    0    0    0  501 -0.00000000000E+00 -0.00000000000E+00 -0.10980095323E+03  0.10980095326E+03  0.25500000000E-02 0.  1.
    5000001    1    1    2    0    0 -0.24060381807E+03  0.58171686868E+02  0.40760892090E+03  0.50462280450E+03  0.16500000000E+03 0.  0.
   -5000001    1    1    2    0    0  0.24060381807E+03 -0.58171686868E+02  0.29966760756E+03  0.42225563045E+03  0.16500000000E+03 0.  0.
<mgrwt>
<rscale>  0 0.59905221E+03</rscale>
<asrwt>0</asrwt>
<pdfrwt beam="1">  1        2 0.11672535E+00 0.59905221E+03</pdfrwt>
<pdfrwt beam="2">  1       -2 0.15685851E-01 0.59905221E+03</pdfrwt>
<totfact> 0.12038961E+03</totfact>
</mgrwt>
</event>
<event>
 4    1  0.1049403E-004  0.7584460E+03  0.7818608E-02  0.9622192E-01
          2   -1    0    0  501    0  0.00000000000E+00  0.00000000000E+00  0.41744312122E+03  0.41744312122E+03  0.25500000000E-02 0.  1.
         -2   -1    0    0    0  501 -0.00000000000E+00 -0.00000000000E+00 -0.34450217950E+03  0.34450217951E+03  0.25500000000E-02 0. -1.
    5000001    1    1    2    0    0  0.76017328343E+02  0.30355942036E+03 -0.10075444492E+03  0.36783612393E+03  0.16500000000E+03 0.  0.
   -5000001    1    1    2    0    0 -0.76017328343E+02 -0.30355942036E+03  0.17369538663E+03  0.39410917680E+03  0.16500000000E+03 0.  0.
<mgrwt>
<rscale>  0 0.75844595E+03</rscale>
<asrwt>0</asrwt>
<pdfrwt beam="1">  1        2 0.59634731E-01 0.75844595E+03</pdfrwt>
<pdfrwt beam="2">  1       -2 0.49214597E-01 0.75844595E+03</pdfrwt>
<totfact> 0.32448411E+02</totfact>
</mgrwt>
</event>
<event>
 4    1  0.1049403E-004  0.8415052E+03  0.7818608E-02  0.9501810E-01
          2   -1    0    0  501    0  0.00000000000E+00  0.00000000000E+00  0.15126728569E+04  0.15126728569E+04  0.25500000000E-02 0.  1.
         -2   -1    0    0    0  501 -0.00000000000E+00 -0.00000000000E+00 -0.11703306756E+03  0.11703306758E+03  0.25500000000E-02 0. -1.
    5000001    1    1    2    0    0  0.32558981838E+03  0.94188494130E+02  0.33587999494E+03  0.50489659660E+03  0.16500000000E+03 0.  0.
   -5000001    1    1    2    0    0 -0.32558981838E+03 -0.94188494130E+02  0.10597597944E+04  0.11248093279E+04  0.16500000000E+03 0.  0.
<mgrwt>
<rscale>  0 0.84150519E+03</rscale>
<asrwt>0</asrwt>
<pdfrwt beam="1">  1        2 0.21609610E+00 0.84150519E+03</pdfrwt>
<pdfrwt beam="2">  1       -2 0.16719012E-01 0.84150519E+03</pdfrwt>
<totfact> 0.42140134E+02</totfact>
</mgrwt>
</event>
<event>
 4    1  0.1049403E-004  0.5031090E+03  0.7818608E-02  0.1012971E+00
         -2   -1    0    0    0  501 -0.00000000000E+00  0.00000000000E+00  0.10176634130E+04  0.10176634130E+04  0.25500000000E-02 0. -1.
          2   -1    0    0  501    0  0.00000000000E+00 -0.00000000000E+00 -0.62181325532E+02  0.62181325585E+02  0.25500000000E-02 0.  1.
    5000001    1    1    2    0    0  0.16460057495E+03  0.51626690423E+02  0.64804763594E+03  0.69061523505E+03  0.16500000000E+03 0.  0.
   -5000001    1    1    2    0    0 -0.16460057495E+03 -0.51626690423E+02  0.30743445153E+03  0.38922950354E+03  0.16500000000E+03 0.  0.
<mgrwt>
<rscale>  0 0.50310897E+03</rscale>
<asrwt>0</asrwt>
<pdfrwt beam="1">  1        2 0.88830471E-02 0.50310897E+03</pdfrwt>
<pdfrwt beam="2">  1       -2 0.14538048E+00 0.50310897E+03</pdfrwt>
<totfact> 0.25581601E+02</totfact>
</mgrwt>
</event>
<event>
 4    1  0.1049403E-004  0.5168066E+03  0.7818608E-02  0.1009483E+00
         -2   -1    0    0    0  501 -0.00000000000E+00  0.00000000000E+00  0.10727101227E+03  0.10727101230E+03  0.25500000000E-02 0. -1.
          2   -1    0    0  501    0  0.00000000000E+00 -0.00000000000E+00 -0.62246329008E+03  0.62246329009E+03  0.25500000000E-02 0.  1.
    5000001    1    1    2    0    0 -0.13645524457E+03 -0.12628726523E+02 -0.46108067704E+03  0.50852719617E+03  0.16500000000E+03 0.  0.
   -5000001    1    1    2    0    0  0.13645524457E+03  0.12628726523E+02 -0.54111600768E+02  0.22120710622E+03  0.16500000000E+03 0.  0.
<mgrwt>
<rscale>  0 0.51680661E+03</rscale>
<asrwt>0</asrwt>
<pdfrwt beam="1">  1        2 0.88923325E-01 0.51680661E+03</pdfrwt>
<pdfrwt beam="2">  1       -2 0.15324431E-01 0.51680661E+03</pdfrwt>
<totfact> 0.17505556E+03</totfact>
</mgrwt>
</event>
<event>
 4    1  0.1049403E-004  0.8603782E+03  0.7818608E-02  0.9476513E-01
         -2   -1    0    0    0  501 -0.00000000000E+00  0.00000000000E+00  0.23075378477E+03  0.23075378478E+03  0.25500000000E-02 0. -1.
          2   -1    0    0  501    0  0.00000000000E+00 -0.00000000000E+00 -0.80199182899E+03  0.80199182899E+03  0.25500000000E-02 0.  1.
    5000001    1    1    2    0    0 -0.38120320228E+03 -0.14585119295E+02 -0.15244604288E+03  0.44271142195E+03  0.16500000000E+03 0.  0.
   -5000001    1    1    2    0    0  0.38120320228E+03  0.14585119295E+02 -0.41879200134E+03  0.59003419182E+03  0.16500000000E+03 0.  0.
<mgrwt>
<rscale>  0 0.86037817E+03</rscale>
<asrwt>0</asrwt>
<pdfrwt beam="1">  1        2 0.11457026E+00 0.86037817E+03</pdfrwt>
<pdfrwt beam="2">  1       -2 0.32964827E-01 0.86037817E+03</pdfrwt>
<totfact> 0.32584597E+02</totfact>
</mgrwt>
</event>
<event>
 4    1  0.1049403E-004  0.1310683E+04  0.7818608E-02  0.9021136E-01
          2   -1    0    0  501    0  0.00000000000E+00  0.00000000000E+00  0.69213620331E+03  0.69213620331E+03  0.25500000000E-02 0.  1.
         -2   -1    0    0    0  501 -0.00000000000E+00 -0.00000000000E+00 -0.62050243599E+03  0.62050243600E+03  0.25500000000E-02 0. -1.
    5000001    1    1    2    0    0 -0.60251815983E+03 -0.11841893959E+03 -0.12315255826E+03  0.64764398459E+03  0.16500000000E+03 0.  0.
   -5000001    1    1    2    0    0  0.60251815983E+03  0.11841893959E+03  0.19478632557E+03  0.66499465472E+03  0.16500000000E+03 0.  0.
<mgrwt>
<rscale>  0 0.13106826E+04</rscale>
<asrwt>0</asrwt>
<pdfrwt beam="1">  1        2 0.98876600E-01 0.13106826E+04</pdfrwt>
<pdfrwt beam="2">  1       -2 0.88643205E-01 0.13106826E+04</pdfrwt>
<totfact> 0.49008882E+01</totfact>
</mgrwt>
</event>
<event>
 4    1  0.1049403E-004  0.6040703E+03  0.7818608E-02  0.9896997E-01
          2   -1    0    0  501    0  0.00000000000E+00  0.00000000000E+00  0.23033336570E+04  0.23033336570E+04  0.25500000000E-02 0.  1.
         -2   -1    0    0    0  501 -0.00000000000E+00 -0.00000000000E+00 -0.39605742104E+02  0.39605742186E+02  0.25500000000E-02 0. -1.
    5000001    1    1    2    0    0 -0.89338128572E+01 -0.24832852133E+03  0.94774863109E+03  0.99357905334E+03  0.16500000000E+03 0.  0.
   -5000001    1    1    2    0    0  0.89338128572E+01  0.24832852133E+03  0.13159792838E+04  0.13493603458E+04  0.16500000000E+03 0.  0.
<mgrwt>
<rscale>  0 0.60407032E+03</rscale>
<asrwt>0</asrwt>
<pdfrwt beam="1">  1        2 0.32904778E+00 0.60407032E+03</pdfrwt>
<pdfrwt beam="2">  1       -2 0.56579611E-02 0.60407032E+03</pdfrwt>
<totfact> 0.98652232E+02</totfact>
</mgrwt>
</event>
<event>
 4    1  0.1049403E-004  0.8558168E+03  0.7818608E-02  0.9482563E-01
          2   -1    0    0  501    0  0.00000000000E+00  0.00000000000E+00  0.21243386747E+04  0.21243386747E+04  0.25500000000E-02 0.  1.
         -2   -1    0    0    0  501 -0.00000000000E+00 -0.00000000000E+00 -0.86194165337E+02  0.86194165375E+02  0.25500000000E-02 0. -1.
    5000001    1    1    2    0    0 -0.30633195470E+03 -0.21308628486E+03  0.68592596799E+03  0.79810053554E+03  0.16500000000E+03 0.  0.
   -5000001    1    1    2    0    0  0.30633195470E+03  0.21308628486E+03  0.13522185413E+04  0.14124323045E+04  0.16500000000E+03 0.  0.
<mgrwt>
<rscale>  0 0.85581680E+03</rscale>
<asrwt>0</asrwt>
<pdfrwt beam="1">  1        2 0.30347699E+00 0.85581680E+03</pdfrwt>
<pdfrwt beam="2">  1       -2 0.12313451E-01 0.85581680E+03</pdfrwt>
<totfact> 0.34258252E+02</totfact>
</mgrwt>
</event>
<event>
 4    1  0.1049403E-004  0.9414119E+03  0.7818608E-02  0.9375245E-01
          2   -1    0    0  501    0  0.00000000000E+00  0.00000000000E+00  0.13131084935E+04  0.13131084935E+04  0.25500000000E-02 0.  1.
         -2   -1    0    0    0  501 -0.00000000000E+00 -0.00000000000E+00 -0.16873251485E+03  0.16873251487E+03  0.25500000000E-02 0. -1.
    5000001    1    1    2    0    0  0.38797253369E+03  0.12680557583E+03  0.31003804919E+03  0.53847092113E+03  0.16500000000E+03 0.  0.
   -5000001    1    1    2    0    0 -0.38797253369E+03 -0.12680557583E+03  0.83433792945E+03  0.94337008723E+03  0.16500000000E+03 0.  0.
<mgrwt>
<rscale>  0 0.94141191E+03</rscale>
<asrwt>0</asrwt>
<pdfrwt beam="1">  1        2 0.18758693E+00 0.94141191E+03</pdfrwt>
<pdfrwt beam="2">  1       -2 0.24104645E-01 0.94141191E+03</pdfrwt>
<totfact> 0.28232436E+02</totfact>
</mgrwt>
</event>
<event>
 4    1  0.1049403E-004  0.4538771E+03  0.7818608E-02  0.1026572E+00
         -2   -1    0    0    0  501 -0.00000000000E+00  0.00000000000E+00  0.84149228235E+03  0.84149228235E+03  0.25500000000E-02 0. -1.
          2   -1    0    0  501    0  0.00000000000E+00 -0.00000000000E+00 -0.61202124223E+02  0.61202124276E+02  0.25500000000E-02 0.  1.
    5000001    1    1    2    0    0 -0.13188694235E+03  0.82363423824E+02  0.40985540137E+03  0.46838483022E+03  0.16500000000E+03 0.  0.
   -5000001    1    1    2    0    0  0.13188694235E+03 -0.82363423824E+02  0.37043475675E+03  0.43430957641E+03  0.16500000000E+03 0.  0.
<mgrwt>
<rscale>  0 0.45387714E+03</rscale>
<asrwt>0</asrwt>
<pdfrwt beam="1">  1        2 0.87431612E-02 0.45387714E+03</pdfrwt>
<pdfrwt beam="2">  1       -2 0.12021317E+00 0.45387714E+03</pdfrwt>
<totfact> 0.42195827E+02</totfact>
</mgrwt>
</event>
<event>
 4    1  0.1049403E-004  0.8276666E+03  0.7818608E-02  0.9520812E-01
         -2   -1    0    0    0  501 -0.00000000000E+00  0.00000000000E+00  0.10223882368E+03  0.10223882371E+03  0.25500000000E-02 0. -1.
          2   -1    0    0  501    0  0.00000000000E+00 -0.00000000000E+00 -0.16750780660E+04  0.16750780660E+04  0.25500000000E-02 0.  1.
    5000001    1    1    2    0    0 -0.71314988614E+02 -0.35096171758E+03 -0.10561111781E+04  0.11273223919E+04  0.16500000000E+03 0.  0.
   -5000001    1    1    2    0    0  0.71314988614E+02  0.35096171758E+03 -0.51672806418E+03  0.64999449776E+03  0.16500000000E+03 0.  0.
<mgrwt>
<rscale>  0 0.82766663E+03</rscale>
<asrwt>0</asrwt>
<pdfrwt beam="1">  1        2 0.23929685E+00 0.82766663E+03</pdfrwt>
<pdfrwt beam="2">  1       -2 0.14605547E-01 0.82766663E+03</pdfrwt>
<totfact> 0.43688924E+02</totfact>
</mgrwt>
</event>
<event>
 4    1  0.1049403E-004  0.4461171E+03  0.7818608E-02  0.1028886E+00
         -2   -1    0    0    0  501 -0.00000000000E+00  0.00000000000E+00  0.79754495871E+02  0.79754495912E+02  0.25500000000E-02 0. -1.
          2   -1    0    0  501    0  0.00000000000E+00 -0.00000000000E+00 -0.62385350498E+03  0.62385350498E+03  0.25500000000E-02 0.  1.
    5000001    1    1    2    0    0  0.14412642686E+03  0.30371530328E+02 -0.22646743642E+03  0.31655545570E+03  0.16500000000E+03 0.  0.
   -5000001    1    1    2    0    0 -0.14412642686E+03 -0.30371530328E+02 -0.31763157269E+03  0.38705254519E+03  0.16500000000E+03 0.  0.
<mgrwt>
<rscale>  0 0.44611712E+03</rscale>
<asrwt>0</asrwt>
<pdfrwt beam="1">  1        2 0.89121927E-01 0.44611712E+03</pdfrwt>
<pdfrwt beam="2">  1       -2 0.11393500E-01 0.44611712E+03</pdfrwt>
<totfact> 0.28478909E+03</totfact>
</mgrwt>
</event>
<event>
 4    1  0.1049403E-004  0.3983007E+03  0.7818608E-02  0.1044370E+00
         -2   -1    0    0    0  501 -0.00000000000E+00  0.00000000000E+00  0.86305124877E+02  0.86305124915E+02  0.25500000000E-02 0. -1.
          2   -1    0    0  501    0  0.00000000000E+00 -0.00000000000E+00 -0.45954231584E+03  0.45954231584E+03  0.25500000000E-02 0.  1.
    5000001    1    1    2    0    0 -0.84086738464E+02 -0.63764136238E+02 -0.13721782478E+03  0.23914467607E+03  0.16500000000E+03 0.  0.
   -5000001    1    1    2    0    0  0.84086738464E+02  0.63764136238E+02 -0.23601936618E+03  0.30670276469E+03  0.16500000000E+03 0.  0.
<mgrwt>
<rscale>  0 0.39830068E+03</rscale>
<asrwt>0</asrwt>
<pdfrwt beam="1">  1        2 0.65648901E-01 0.39830068E+03</pdfrwt>
<pdfrwt beam="2">  1       -2 0.12329304E-01 0.39830068E+03</pdfrwt>
<totfact> 0.35404014E+03</totfact>
</mgrwt>
</event>
<event>
 4    1  0.1049403E-004  0.8028278E+03  0.7818608E-02  0.9555933E-01
         -2   -1    0    0    0  501 -0.00000000000E+00  0.00000000000E+00  0.14952640447E+03  0.14952640449E+03  0.25500000000E-02 0. -1.
          2   -1    0    0  501    0  0.00000000000E+00 -0.00000000000E+00 -0.10776232518E+04  0.10776232518E+04  0.25500000000E-02 0.  1.
    5000001    1    1    2    0    0 -0.21692189985E+03 -0.28078261485E+03 -0.60088545725E+03  0.71706507388E+03  0.16500000000E+03 0.  0.
   -5000001    1    1    2    0    0  0.21692189985E+03  0.28078261485E+03 -0.32721139012E+03  0.51008458246E+03  0.16500000000E+03 0.  0.
<mgrwt>
<rscale>  0 0.80282783E+03</rscale>
<asrwt>0</asrwt>
<pdfrwt beam="1">  1        2 0.15394617E+00 0.80282783E+03</pdfrwt>
<pdfrwt beam="2">  1       -2 0.21360916E-01 0.80282783E+03</pdfrwt>
<totfact> 0.47997391E+02</totfact>
</mgrwt>
</event>
<event>
 4    1  0.1049403E-004  0.4170456E+03  0.7818608E-02  0.1038032E+00
          2   -1    0    0  501    0  0.00000000000E+00  0.00000000000E+00  0.35201906684E+04  0.35201906684E+04  0.25500000000E-02 0.  1.
         -2   -1    0    0    0  501 -0.00000000000E+00 -0.00000000000E+00 -0.12352103194E+02  0.12352103457E+02  0.25500000000E-02 0. -1.
    5000001    1    1    2    0    0 -0.10841281077E+03 -0.66587618372E+02  0.16832991065E+04  0.16961450794E+04  0.16500000000E+03 0.  0.
   -5000001    1    1    2    0    0  0.10841281077E+03  0.66587618372E+02  0.18245394587E+04  0.18363976925E+04  0.16500000000E+03 0.  0.
<mgrwt>
<rscale>  0 0.41704560E+03</rscale>
<asrwt>0</asrwt>
<pdfrwt beam="1">  1        2 0.50288460E+00 0.41704560E+03</pdfrwt>
<pdfrwt beam="2">  1       -2 0.17645854E-02 0.41704560E+03</pdfrwt>
<totfact> 0.13006374E+03</totfact>
</mgrwt>
</event>
<event>
 4    1  0.1049403E-004  0.1244577E+04  0.7818608E-02  0.9074709E-01
         -2   -1    0    0    0  501 -0.00000000000E+00  0.00000000000E+00  0.57913385261E+03  0.57913385261E+03  0.25500000000E-02 0. -1.
          2   -1    0    0  501    0  0.00000000000E+00 -0.00000000000E+00 -0.66865858310E+03  0.66865858310E+03  0.25500000000E-02 0.  1.
    5000001    1    1    2    0    0  0.58619670566E+03  0.10092267406E+03 -0.12374317151E+03  0.62956281367E+03  0.16500000000E+03 0.  0.
   -5000001    1    1    2    0    0 -0.58619670566E+03 -0.10092267406E+03  0.34218441018E+02  0.61822962204E+03  0.16500000000E+03 0.  0.
<mgrwt>
<rscale>  0 0.12445767E+04</rscale>
<asrwt>0</asrwt>
<pdfrwt beam="1">  1        2 0.95522655E-01 0.12445767E+04</pdfrwt>
<pdfrwt beam="2">  1       -2 0.82733408E-01 0.12445767E+04</pdfrwt>
<totfact> 0.60114927E+01</totfact>
</mgrwt>
</event>
<event>
 4    1  0.1049403E-004  0.6955103E+03  0.7818608E-02  0.9724941E-01
         -2   -1    0    0    0  501 -0.00000000000E+00  0.00000000000E+00  0.71009416990E+03  0.71009416991E+03  0.25500000000E-02 0. -1.
          2   -1    0    0  501    0  0.00000000000E+00 -0.00000000000E+00 -0.17030651168E+03  0.17030651170E+03  0.25500000000E-02 0.  1.
    5000001    1    1    2    0    0  0.12027852386E+03  0.21450668764E+03  0.50063915810E+03  0.58167397137E+03  0.16500000000E+03 0.  0.
   -5000001    1    1    2    0    0 -0.12027852386E+03 -0.21450668764E+03  0.39148500121E+02  0.29872671023E+03  0.16500000000E+03 0.  0.
<mgrwt>
<rscale>  0 0.69551035E+03</rscale>
<asrwt>0</asrwt>
<pdfrwt beam="1">  1        2 0.24329502E-01 0.69551035E+03</pdfrwt>
<pdfrwt beam="2">  1       -2 0.10144202E+00 0.69551035E+03</pdfrwt>
<totfact> 0.18237357E+02</totfact>
</mgrwt>
</event>
<event>
 4    1  0.1049403E-004  0.5585194E+03  0.7818608E-02  0.9995410E-01
         -2   -1    0    0    0  501 -0.00000000000E+00  0.00000000000E+00  0.10376057145E+03  0.10376057148E+03  0.25500000000E-02 0. -1.
          2   -1    0    0  501    0  0.00000000000E+00 -0.00000000000E+00 -0.75159542915E+03  0.75159542915E+03  0.25500000000E-02 0.  1.
    5000001    1    1    2    0    0 -0.20968712387E+03  0.76014964209E+02 -0.37268476648E+03  0.46461371037E+03  0.16500000000E+03 0.  0.
   -5000001    1    1    2    0    0  0.20968712387E+03 -0.76014964209E+02 -0.27515009121E+03  0.39074229026E+03  0.16500000000E+03 0.  0.
<mgrwt>
<rscale>  0 0.55851937E+03</rscale>
<asrwt>0</asrwt>
<pdfrwt beam="1">  1        2 0.10737077E+00 0.55851937E+03</pdfrwt>
<pdfrwt beam="2">  1       -2 0.14822939E-01 0.55851937E+03</pdfrwt>
<totfact> 0.14728880E+03</totfact>
</mgrwt>
</event>
<event>
 4    1  0.1049403E-004  0.4962007E+03  0.7818608E-02  0.1014775E+00
         -2   -1    0    0    0  501 -0.00000000000E+00  0.00000000000E+00  0.93284376285E+03  0.93284376285E+03  0.25500000000E-02 0. -1.
          2   -1    0    0  501    0  0.00000000000E+00 -0.00000000000E+00 -0.65985106328E+02  0.65985106377E+02  0.25500000000E-02 0.  1.
    5000001    1    1    2    0    0 -0.14601348873E+03 -0.89047646470E+02  0.28996672307E+03  0.37490681872E+03  0.16500000000E+03 0.  0.
   -5000001    1    1    2    0    0  0.14601348873E+03  0.89047646470E+02  0.57689193345E+03  0.62392205051E+03  0.16500000000E+03 0.  0.
<mgrwt>
<rscale>  0 0.49620075E+03</rscale>
<asrwt>0</asrwt>
<pdfrwt beam="1">  1        2 0.94264432E-02 0.49620075E+03</pdfrwt>
<pdfrwt beam="2">  1       -2 0.13326340E+00 0.49620075E+03</pdfrwt>
<totfact> 0.29641857E+02</totfact>
</mgrwt>
</event>
<event>
 4    1  0.1049403E-004  0.5370467E+03  0.7818608E-02  0.1004537E+00
         -2   -1    0    0    0  501 -0.00000000000E+00  0.00000000000E+00  0.36390990889E+02  0.36390990978E+02  0.25500000000E-02 0. -1.
          2   -1    0    0  501    0  0.00000000000E+00 -0.00000000000E+00 -0.19813914173E+04  0.19813914173E+04  0.25500000000E-02 0.  1.
    5000001    1    1    2    0    0  0.44968653333E+02  0.18607222392E+03 -0.13134475705E+04  0.13375404939E+04  0.16500000000E+03 0.  0.
   -5000001    1    1    2    0    0 -0.44968653333E+02 -0.18607222392E+03 -0.63155285582E+03  0.68024191432E+03  0.16500000000E+03 0.  0.
<mgrwt>
<rscale>  0 0.53704673E+03</rscale>
<asrwt>0</asrwt>
<pdfrwt beam="1">  1        2 0.28305585E+00 0.53704673E+03</pdfrwt>
<pdfrwt beam="2">  1       -2 0.51987142E-02 0.53704673E+03</pdfrwt>
<totfact> 0.16395598E+03</totfact>
</mgrwt>
</event>
<event>
 4    1  0.1049403E-004  0.5964103E+03  0.7818608E-02  0.9912882E-01
          2   -1    0    0  501    0  0.00000000000E+00  0.00000000000E+00  0.94494945447E+03  0.94494945448E+03  0.25500000000E-02 0.  1.
         -2   -1    0    0    0  501 -0.00000000000E+00 -0.00000000000E+00 -0.94106953151E+02  0.94106953186E+02  0.25500000000E-02 0. -1.
    5000001    1    1    2    0    0  0.63100507849E+02 -0.13475650350E+03  0.77193774134E+03  0.80327695463E+03  0.16500000000E+03 0.  0.
   -5000001    1    1    2    0    0 -0.63100507849E+02  0.13475650350E+03  0.78904759982E+02  0.23577945304E+03  0.16500000000E+03 0.  0.
<mgrwt>
<rscale>  0 0.59641031E+03</rscale>
<asrwt>0</asrwt>
<pdfrwt beam="1">  1        2 0.13499279E+00 0.59641031E+03</pdfrwt>
<pdfrwt beam="2">  1       -2 0.13443850E-01 0.59641031E+03</pdfrwt>
<totfact> 0.12862041E+03</totfact>
</mgrwt>
</event>
<event>
 4    1  0.1049403E-004  0.1050013E+04  0.7818608E-02  0.9255330E-01
          2   -1    0    0  501    0  0.00000000000E+00  0.00000000000E+00  0.89396987751E+03  0.89396987751E+03  0.25500000000E-02 0.  1.
         -2   -1    0    0    0  501 -0.00000000000E+00 -0.00000000000E+00 -0.30832361310E+03  0.30832361311E+03  0.25500000000E-02 0. -1.
    5000001    1    1    2    0    0  0.46391530899E+03  0.14905620527E+03  0.41276083363E+03  0.65956930798E+03  0.16500000000E+03 0.  0.
   -5000001    1    1    2    0    0 -0.46391530899E+03 -0.14905620527E+03  0.17288543078E+03  0.54272418264E+03  0.16500000000E+03 0.  0.
<mgrwt>
<rscale>  0 0.10500134E+04</rscale>
<asrwt>0</asrwt>
<pdfrwt beam="1">  1        2 0.12770998E+00 0.10500134E+04</pdfrwt>
<pdfrwt beam="2">  1       -2 0.44046231E-01 0.10500134E+04</pdfrwt>
<totfact> 0.15957552E+02</totfact>
</mgrwt>
</event>
<event>
 4    1  0.1049403E-004  0.4199513E+03  0.7818608E-02  0.1037082E+00
         -2   -1    0    0    0  501 -0.00000000000E+00  0.00000000000E+00  0.10331497483E+03  0.10331497486E+03  0.25500000000E-02 0. -1.
          2   -1    0    0  501    0  0.00000000000E+00 -0.00000000000E+00 -0.42675096862E+03  0.42675096863E+03  0.25500000000E-02 0.  1.
    5000001    1    1    2    0    0  0.10040967525E+03  0.74485874512E+02 -0.11736943055E+03  0.23797233372E+03  0.16500000000E+03 0.  0.
   -5000001    1    1    2    0    0 -0.10040967525E+03 -0.74485874512E+02 -0.20606656324E+03  0.29209360977E+03  0.16500000000E+03 0.  0.
<mgrwt>
<rscale>  0 0.41995126E+03</rscale>
<asrwt>0</asrwt>
<pdfrwt beam="1">  1        2 0.60964423E-01 0.41995126E+03</pdfrwt>
<pdfrwt beam="2">  1       -2 0.14759282E-01 0.41995126E+03</pdfrwt>
<totfact> 0.28580096E+03</totfact>
</mgrwt>
</event>
<event>
 4    1  0.1049403E-004  0.4422678E+03  0.7818608E-02  0.1030053E+00
          2   -1    0    0  501    0  0.00000000000E+00  0.00000000000E+00  0.48701143653E+03  0.48701143654E+03  0.25500000000E-02 0.  1.
         -2   -1    0    0    0  501 -0.00000000000E+00 -0.00000000000E+00 -0.10040875398E+03  0.10040875402E+03  0.25500000000E-02 0. -1.
    5000001    1    1    2    0    0  0.10828379232E+03 -0.95006920997E+02  0.15293811168E+03  0.26714557964E+03  0.16500000000E+03 0.  0.
   -5000001    1    1    2    0    0 -0.10828379232E+03  0.95006920997E+02  0.23366457087E+03  0.32027461092E+03  0.16500000000E+03 0.  0.
<mgrwt>
<rscale>  0 0.44226784E+03</rscale>
<asrwt>0</asrwt>
<pdfrwt beam="1">  1        2 0.69573062E-01 0.44226784E+03</pdfrwt>
<pdfrwt beam="2">  1       -2 0.14344108E-01 0.44226784E+03</pdfrwt>
<totfact> 0.25893074E+03</totfact>
</mgrwt>
</event>
<event>
 4    1  0.1049403E-004  0.4383621E+03  0.7818608E-02  0.1031251E+00
         -2   -1    0    0    0  501 -0.00000000000E+00  0.00000000000E+00  0.28249581288E+02  0.28249581403E+02  0.25500000000E-02 0. -1.
          2   -1    0    0  501    0  0.00000000000E+00 -0.00000000000E+00 -0.17005676531E+04  0.17005676531E+04  0.25500000000E-02 0.  1.
    5000001    1    1    2    0    0 -0.12239275921E+03 -0.76385819286E+02 -0.83906613441E+03  0.86722070940E+03  0.16500000000E+03 0.  0.
   -5000001    1    1    2    0    0  0.12239275921E+03  0.76385819286E+02 -0.83325193744E+03  0.86159652515E+03  0.16500000000E+03 0.  0.
<mgrwt>
<rscale>  0 0.43836206E+03</rscale>
<asrwt>0</asrwt>
<pdfrwt beam="1">  1        2 0.24293817E+00 0.43836206E+03</pdfrwt>
<pdfrwt beam="2">  1       -2 0.40356555E-02 0.43836206E+03</pdfrwt>
<totfact> 0.33556186E+03</totfact>
</mgrwt>
</event>
<event>
 4    1  0.1049403E-004  0.4986948E+03  0.7818608E-02  0.1014120E+00
         -2   -1    0    0    0  501 -0.00000000000E+00  0.00000000000E+00  0.52754083786E+03  0.52754083787E+03  0.25500000000E-02 0. -1.
          2   -1    0    0  501    0  0.00000000000E+00 -0.00000000000E+00 -0.11785650182E+03  0.11785650185E+03  0.25500000000E-02 0.  1.
    5000001    1    1    2    0    0 -0.11818018200E+03 -0.10644643919E+03  0.33198581646E+03  0.40340672052E+03  0.16500000000E+03 0.  0.
   -5000001    1    1    2    0    0  0.11818018200E+03  0.10644643919E+03  0.77698519583E+02  0.24199061919E+03  0.16500000000E+03 0.  0.
<mgrwt>
<rscale>  0 0.49869477E+03</rscale>
<asrwt>0</asrwt>
<pdfrwt beam="1">  1        2 0.16836643E-01 0.49869477E+03</pdfrwt>
<pdfrwt beam="2">  1       -2 0.75362978E-01 0.49869477E+03</pdfrwt>
<totfact> 0.55525742E+02</totfact>
</mgrwt>
</event>
<event>
 4    1  0.1049403E-004  0.1486643E+04  0.7818608E-02  0.8893384E-01
          2   -1    0    0  501    0  0.00000000000E+00  0.00000000000E+00  0.42493572986E+04  0.42493572986E+04  0.25500000000E-02 0.  1.
         -2   -1    0    0    0  501 -0.00000000000E+00 -0.00000000000E+00 -0.13002591363E+03  0.13002591366E+03  0.25500000000E-02 0. -1.
    5000001    1    1    2    0    0 -0.12700634828E+03 -0.70175830093E+03  0.24404207902E+04  0.25478371138E+04  0.16500000000E+03 0.  0.
   -5000001    1    1    2    0    0  0.12700634828E+03  0.70175830093E+03  0.16789105948E+04  0.18315460985E+04  0.16500000000E+03 0.  0.
<mgrwt>
<rscale>  0 0.14866426E+04</rscale>
<asrwt>0</asrwt>
<pdfrwt beam="1">  1        2 0.60705110E+00 0.14866426E+04</pdfrwt>
<pdfrwt beam="2">  1       -2 0.18575129E-01 0.14866426E+04</pdfrwt>
<totfact> 0.91203146E+00</totfact>
</mgrwt>
</event>
<event>
 4    1  0.1049403E-004  0.3905652E+03  0.7818608E-02  0.1047096E+00
          2   -1    0    0  501    0  0.00000000000E+00  0.00000000000E+00  0.45812400097E+03  0.45812400098E+03  0.25500000000E-02 0.  1.
         -2   -1    0    0    0  501 -0.00000000000E+00 -0.00000000000E+00 -0.83242296018E+02  0.83242296057E+02  0.25500000000E-02 0. -1.
    5000001    1    1    2    0    0  0.10270229519E+03  0.14514818989E+02  0.17036004612E+03  0.25885514621E+03  0.16500000000E+03 0.  0.
   -5000001    1    1    2    0    0 -0.10270229519E+03 -0.14514818989E+02  0.20452165884E+03  0.28251115082E+03  0.16500000000E+03 0.  0.
<mgrwt>
<rscale>  0 0.39056520E+03</rscale>
<asrwt>0</asrwt>
<pdfrwt beam="1">  1        2 0.65446285E-01 0.39056520E+03</pdfrwt>
<pdfrwt beam="2">  1       -2 0.11891757E-01 0.39056520E+03</pdfrwt>
<totfact> 0.37668102E+03</totfact>
</mgrwt>
</event>
<event>
 4    1  0.1049403E-004  0.4372263E+03  0.7818608E-02  0.1031601E+00
          2   -1    0    0  501    0  0.00000000000E+00  0.00000000000E+00  0.17112250792E+03  0.17112250794E+03  0.25500000000E-02 0.  1.
         -2   -1    0    0    0  501 -0.00000000000E+00 -0.00000000000E+00 -0.27928355214E+03  0.27928355216E+03  0.25500000000E-02 0. -1.
    5000001    1    1    2    0    0 -0.12350064595E+03 -0.46007527302E+02  0.41713694589E+01  0.21121435188E+03  0.16500000000E+03 0.  0.
   -5000001    1    1    2    0    0  0.12350064595E+03  0.46007527302E+02 -0.11233241368E+03  0.23919170822E+03  0.16500000000E+03 0.  0.
<mgrwt>
<rscale>  0 0.43722627E+03</rscale>
<asrwt>0</asrwt>
<pdfrwt beam="1">  1        2 0.24446073E-01 0.43722627E+03</pdfrwt>
<pdfrwt beam="2">  1       -2 0.39897650E-01 0.43722627E+03</pdfrwt>
<totfact> 0.13322892E+03</totfact>
</mgrwt>
</event>
<event>
 4    1  0.1049403E-004  0.9892108E+03  0.7818608E-02  0.9320458E-01
         -2   -1    0    0    0  501 -0.00000000000E+00  0.00000000000E+00  0.55593898357E+03  0.55593898358E+03  0.25500000000E-02 0. -1.
          2   -1    0    0  501    0  0.00000000000E+00 -0.00000000000E+00 -0.44003836829E+03  0.44003836830E+03  0.25500000000E-02 0.  1.
    5000001    1    1    2    0    0  0.15266784698E+03  0.41287486232E+03 -0.96842552872E+02  0.47997562801E+03  0.16500000000E+03 0.  0.
   -5000001    1    1    2    0    0 -0.15266784698E+03 -0.41287486232E+03  0.21274316815E+03  0.51600172387E+03  0.16500000000E+03 0.  0.
<mgrwt>
<rscale>  0 0.98921076E+03</rscale>
<asrwt>0</asrwt>
<pdfrwt beam="1">  1        2 0.62862624E-01 0.98921076E+03</pdfrwt>
<pdfrwt beam="2">  1       -2 0.79419855E-01 0.98921076E+03</pdfrwt>
<totfact> 0.10912178E+02</totfact>
</mgrwt>
</event>
<event>
 4    1  0.1049403E-004  0.5727276E+03  0.7818608E-02  0.9963661E-01
         -2   -1    0    0    0  501 -0.00000000000E+00  0.00000000000E+00  0.12253682847E+03  0.12253682850E+03  0.25500000000E-02 0. -1.
          2   -1    0    0  501    0  0.00000000000E+00 -0.00000000000E+00 -0.66922115887E+03  0.66922115888E+03  0.25500000000E-02 0.  1.
    5000001    1    1    2    0    0 -0.88932586454E+02 -0.20723086126E+03 -0.18672628396E+03  0.33607341447E+03  0.16500000000E+03 0.  0.
   -5000001    1    1    2    0    0  0.88932586454E+02  0.20723086126E+03 -0.35995804644E+03  0.45568457291E+03  0.16500000000E+03 0.  0.
<mgrwt>
<rscale>  0 0.57272764E+03</rscale>
<asrwt>0</asrwt>
<pdfrwt beam="1">  1        2 0.95603021E-01 0.57272764E+03</pdfrwt>
<pdfrwt beam="2">  1       -2 0.17505262E-01 0.57272764E+03</pdfrwt>
<totfact> 0.12809901E+03</totfact>
</mgrwt>
</event>
<event>
 4    1  0.1049403E-004  0.6138780E+03  0.7818608E-02  0.9877025E-01
          2   -1    0    0  501    0  0.00000000000E+00  0.00000000000E+00  0.95391223426E+03  0.95391223426E+03  0.25500000000E-02 0.  1.
         -2   -1    0    0    0  501 -0.00000000000E+00 -0.00000000000E+00 -0.98763326686E+02  0.98763326719E+02  0.25500000000E-02 0. -1.
    5000001    1    1    2    0    0 -0.22449493916E+03 -0.80469553425E+02  0.25512684201E+03  0.38624866634E+03  0.16500000000E+03 0.  0.
   -5000001    1    1    2    0    0  0.22449493916E+03  0.80469553425E+02  0.60002206556E+03  0.66642689464E+03  0.16500000000E+03 0.  0.
<mgrwt>
<rscale>  0 0.61387799E+03</rscale>
<asrwt>0</asrwt>
<pdfrwt beam="1">  1        2 0.13627318E+00 0.61387799E+03</pdfrwt>
<pdfrwt beam="2">  1       -2 0.14109046E-01 0.61387799E+03</pdfrwt>
<totfact> 0.11709254E+03</totfact>
</mgrwt>
</event>
<event>
 4    1  0.1049403E-004  0.5587346E+03  0.7818608E-02  0.9994922E-01
         -2   -1    0    0    0  501 -0.00000000000E+00  0.00000000000E+00  0.22512151958E+03  0.22512151960E+03  0.25500000000E-02 0. -1.
          2   -1    0    0  501    0  0.00000000000E+00 -0.00000000000E+00 -0.34668432224E+03  0.34668432225E+03  0.25500000000E-02 0.  1.
    5000001    1    1    2    0    0  0.85927563992E+02 -0.19811714611E+03 -0.12700340671E+03  0.29998135801E+03  0.16500000000E+03 0.  0.
   -5000001    1    1    2    0    0 -0.85927563992E+02  0.19811714611E+03  0.54406040603E+01  0.27182448383E+03  0.16500000000E+03 0.  0.
<mgrwt>
<rscale>  0 0.55873465E+03</rscale>
<asrwt>0</asrwt>
<pdfrwt beam="1">  1        2 0.49526331E-01 0.55873465E+03</pdfrwt>
<pdfrwt beam="2">  1       -2 0.32160217E-01 0.55873465E+03</pdfrwt>
<totfact> 0.91569073E+02</totfact>
</mgrwt>
</event>
<event>
 4    1  0.1049403E-004  0.7436380E+03  0.7818608E-02  0.9645385E-01
         -2   -1    0    0    0  501 -0.00000000000E+00  0.00000000000E+00  0.16884075097E+03  0.16884075099E+03  0.25500000000E-02 0. -1.
          2   -1    0    0  501    0  0.00000000000E+00 -0.00000000000E+00 -0.81881509971E+03  0.81881509971E+03  0.25500000000E-02 0.  1.
    5000001    1    1    2    0    0 -0.21854946299E+03 -0.23144339576E+03 -0.19421795837E+03  0.40776896469E+03  0.16500000000E+03 0.  0.
   -5000001    1    1    2    0    0  0.21854946299E+03  0.23144339576E+03 -0.45575639036E+03  0.57988688601E+03  0.16500000000E+03 0.  0.
<mgrwt>
<rscale>  0 0.74363797E+03</rscale>
<asrwt>0</asrwt>
<pdfrwt beam="1">  1        2 0.11697358E+00 0.74363797E+03</pdfrwt>
<pdfrwt beam="2">  1       -2 0.24120108E-01 0.74363797E+03</pdfrwt>
<totfact> 0.56578030E+02</totfact>
</mgrwt>
</event>
<event>
 4    1  0.1049403E-004  0.3960135E+03  0.7818608E-02  0.1045169E+00
          2   -1    0    0  501    0  0.00000000000E+00  0.00000000000E+00  0.18889988788E+04  0.18889988788E+04  0.25500000000E-02 0.  1.
         -2   -1    0    0    0  501 -0.00000000000E+00 -0.00000000000E+00 -0.20755260618E+02  0.20755260775E+02  0.25500000000E-02 0. -1.
    5000001    1    1    2    0    0  0.70017239664E+02 -0.81784807950E+02  0.10294180018E+04  0.10481018992E+04  0.16500000000E+03 0.  0.
   -5000001    1    1    2    0    0 -0.70017239664E+02  0.81784807950E+02  0.83882561639E+03  0.86165224040E+03  0.16500000000E+03 0.  0.
<mgrwt>
<rscale>  0 0.39601346E+03</rscale>
<asrwt>0</asrwt>
<pdfrwt beam="1">  1        2 0.26985707E+00 0.39601346E+03</pdfrwt>
<pdfrwt beam="2">  1       -2 0.29650363E-02 0.39601346E+03</pdfrwt>
<totfact> 0.43127506E+03</totfact>
</mgrwt>
</event>
<event>
 4    1  0.1049403E-004  0.6953345E+03  0.7818608E-02  0.9725244E-01
          2   -1    0    0  501    0  0.00000000000E+00  0.00000000000E+00  0.93465990552E+03  0.93465990553E+03  0.25500000000E-02 0.  1.
         -2   -1    0    0    0  501 -0.00000000000E+00 -0.00000000000E+00 -0.12932246734E+03  0.12932246737E+03  0.25500000000E-02 0. -1.
    5000001    1    1    2    0    0 -0.86043187575E+02 -0.28056048262E+03  0.53544960121E+03  0.63249418177E+03  0.16500000000E+03 0.  0.
   -5000001    1    1    2    0    0  0.86043187575E+02  0.28056048262E+03  0.26988783697E+03  0.43148819112E+03  0.16500000000E+03 0.  0.
<mgrwt>
<rscale>  0 0.69533452E+03</rscale>
<asrwt>0</asrwt>
<pdfrwt beam="1">  1        2 0.13352285E+00 0.69533452E+03</pdfrwt>
<pdfrwt beam="2">  1       -2 0.18474638E-01 0.69533452E+03</pdfrwt>
<totfact> 0.75975973E+02</totfact>
</mgrwt>
</event>
<event>
 4    1  0.1049403E-004  0.5396680E+03  0.7818608E-02  0.1003914E+00
         -2   -1    0    0    0  501 -0.00000000000E+00  0.00000000000E+00  0.70585927349E+02  0.70585927395E+02  0.25500000000E-02 0. -1.
          2   -1    0    0  501    0  0.00000000000E+00 -0.00000000000E+00 -0.10315143953E+04  0.10315143953E+04  0.25500000000E-02 0.  1.
    5000001    1    1    2    0    0 -0.95936548136E+02  0.18996067563E+03 -0.51563014605E+03  0.58171154972E+03  0.16500000000E+03 0.  0.
   -5000001    1    1    2    0    0  0.95936548136E+02 -0.18996067563E+03 -0.44529832185E+03  0.52038877294E+03  0.16500000000E+03 0.  0.
<mgrwt>
<rscale>  0 0.53966805E+03</rscale>
<asrwt>0</asrwt>
<pdfrwt beam="1">  1        2 0.14735919E+00 0.53966805E+03</pdfrwt>
<pdfrwt beam="2">  1       -2 0.10083705E-01 0.53966805E+03</pdfrwt>
<totfact> 0.18262297E+03</totfact>
</mgrwt>
</event>
<event>
 4    1  0.1049403E-004  0.7973249E+03  0.7818608E-02  0.9563897E-01
         -2   -1    0    0    0  501 -0.00000000000E+00  0.00000000000E+00  0.33286982937E+03  0.33286982938E+03  0.25500000000E-02 0. -1.
          2   -1    0    0  501    0  0.00000000000E+00 -0.00000000000E+00 -0.47745921470E+03  0.47745921471E+03  0.25500000000E-02 0.  1.
    5000001    1    1    2    0    0  0.29191102541E+03  0.17565017046E+03  0.54812041294E+02  0.38248449512E+03  0.16500000000E+03 0.  0.
   -5000001    1    1    2    0    0 -0.29191102541E+03 -0.17565017046E+03 -0.19940142663E+03  0.42784454896E+03  0.16500000000E+03 0.  0.
<mgrwt>
<rscale>  0 0.79732495E+03</rscale>
<asrwt>0</asrwt>
<pdfrwt beam="1">  1        2 0.68208459E-01 0.79732495E+03</pdfrwt>
<pdfrwt beam="2">  1       -2 0.47552833E-01 0.79732495E+03</pdfrwt>
<totfact> 0.29845057E+02</totfact>
</mgrwt>
</event>
<event>
 4    1  0.1049403E-004  0.3556500E+03  0.7818608E-02  0.1060320E+00
         -2   -1    0    0    0  501 -0.00000000000E+00  0.00000000000E+00  0.11673230956E+02  0.11673231234E+02  0.25500000000E-02 0.  1.
          2   -1    0    0  501    0  0.00000000000E+00 -0.00000000000E+00 -0.27089095599E+04  0.27089095599E+04  0.25500000000E-02 0. -1.
    5000001    1    1    2    0    0  0.16263807909E+02 -0.39165671203E+02 -0.17385430620E+04  0.17468701840E+04  0.16500000000E+03 0.  0.
   -5000001    1    1    2    0    0 -0.16263807909E+02  0.39165671203E+02 -0.95869326689E+03  0.97371260710E+03  0.16500000000E+03 0.  0.
<mgrwt>
<rscale>  0 0.35564998E+03</rscale>
<asrwt>0</asrwt>
<pdfrwt beam="1">  1        2 0.38698668E+00 0.35564998E+03</pdfrwt>
<pdfrwt beam="2">  1       -2 0.16676062E-02 0.35564998E+03</pdfrwt>
<totfact> 0.39580261E+03</totfact>
</mgrwt>
</event>
<event>
 4    1  0.1049403E-004  0.5879859E+03  0.7818608E-02  0.9930650E-01
          2   -1    0    0  501    0  0.00000000000E+00  0.00000000000E+00  0.24860158435E+04  0.24860158435E+04  0.25500000000E-02 0.  1.
         -2   -1    0    0    0  501 -0.00000000000E+00 -0.00000000000E+00 -0.34767212201E+02  0.34767212295E+02  0.25500000000E-02 0. -1.
    5000001    1    1    2    0    0  0.19805591847E+03  0.91742928948E+02  0.16866459396E+04  0.17086961220E+04  0.16500000000E+03 0.  0.
   -5000001    1    1    2    0    0 -0.19805591847E+03 -0.91742928948E+02  0.76460269176E+03  0.81208693383E+03  0.16500000000E+03 0.  0.
<mgrwt>
<rscale>  0 0.58798585E+03</rscale>
<asrwt>0</asrwt>
<pdfrwt beam="1">  1        2 0.35514521E+00 0.58798585E+03</pdfrwt>
<pdfrwt beam="2">  1       -2 0.49667434E-02 0.58798585E+03</pdfrwt>
<totfact> 0.97641159E+02</totfact>
</mgrwt>
</event>
<event>
 4    1  0.1049403E-004  0.3888069E+03  0.7818608E-02  0.1047726E+00
         -2   -1    0    0    0  501 -0.00000000000E+00  0.00000000000E+00  0.27947254074E+02  0.27947254190E+02  0.25500000000E-02 0. -1.
          2   -1    0    0  501    0  0.00000000000E+00 -0.00000000000E+00 -0.13522869358E+04  0.13522869358E+04  0.25500000000E-02 0.  1.
    5000001    1    1    2    0    0 -0.10164861833E+03 -0.73743114516E+01 -0.70991392440E+03  0.73592771529E+03  0.16500000000E+03 0.  0.
   -5000001    1    1    2    0    0  0.10164861833E+03  0.73743114516E+01 -0.61442575737E+03  0.64430647474E+03  0.16500000000E+03 0.  0.
<mgrwt>
<rscale>  0 0.38880693E+03</rscale>
<asrwt>0</asrwt>
<pdfrwt beam="1">  1        2 0.19318381E+00 0.38880693E+03</pdfrwt>
<pdfrwt beam="2">  1       -2 0.39924657E-02 0.38880693E+03</pdfrwt>
<totfact> 0.51455578E+03</totfact>
</mgrwt>
</event>
<event>
 4    1  0.1049403E-004  0.8308393E+03  0.7818608E-02  0.9516421E-01
         -2   -1    0    0    0  501 -0.00000000000E+00  0.00000000000E+00  0.26073452790E+03  0.26073452791E+03  0.25500000000E-02 0. -1.
          2   -1    0    0  501    0  0.00000000000E+00 -0.00000000000E+00 -0.66187437198E+03  0.66187437198E+03  0.25500000000E-02 0.  1.
    5000001    1    1    2    0    0  0.13516507512E+03  0.32679942096E+03 -0.35871137667E+03  0.53006255369E+03  0.16500000000E+03 0.  0.
   -5000001    1    1    2    0    0 -0.13516507512E+03 -0.32679942096E+03 -0.42428467407E+02  0.39254634620E+03  0.16500000000E+03 0.  0.
<mgrwt>
<rscale>  0 0.83083934E+03</rscale>
<asrwt>0</asrwt>
<pdfrwt beam="1">  1        2 0.94553481E-01 0.83083934E+03</pdfrwt>
<pdfrwt beam="2">  1       -2 0.37247790E-01 0.83083934E+03</pdfrwt>
<totfact> 0.32872878E+02</totfact>
</mgrwt>
</event>
<event>
 4    1  0.1049403E-004  0.4228569E+03  0.7818608E-02  0.1036140E+00
          2   -1    0    0  501    0  0.00000000000E+00  0.00000000000E+00  0.20292134381E+04  0.20292134382E+04  0.25500000000E-02 0. -1.
         -2   -1    0    0    0  501 -0.00000000000E+00 -0.00000000000E+00 -0.22029223069E+02  0.22029223217E+02  0.25500000000E-02 0.  1.
    5000001    1    1    2    0    0 -0.60696479956E+02 -0.91989353867E+02  0.13577716886E+04  0.13721935222E+04  0.16500000000E+03 0.  0.
   -5000001    1    1    2    0    0  0.60696479956E+02  0.91989353867E+02  0.64941252648E+03  0.67904913920E+03  0.16500000000E+03 0.  0.
<mgrwt>
<rscale>  0 0.42285693E+03</rscale>
<asrwt>0</asrwt>
<pdfrwt beam="1">  1        2 0.28988771E+00 0.42285693E+03</pdfrwt>
<pdfrwt beam="2">  1       -2 0.31470310E-02 0.42285693E+03</pdfrwt>
<totfact> 0.33581429E+03</totfact>
</mgrwt>
</event>
<event>
 4    1  0.1049403E-004  0.6406565E+03  0.7818608E-02  0.9824471E-01
          2   -1    0    0  501    0  0.00000000000E+00  0.00000000000E+00  0.49781449302E+03  0.49781449303E+03  0.25500000000E-02 0.  1.
         -2   -1    0    0    0  501 -0.00000000000E+00 -0.00000000000E+00 -0.20612132308E+03  0.20612132309E+03  0.25500000000E-02 0. -1.
    5000001    1    1    2    0    0  0.27056162069E+03 -0.19769732391E+02  0.99349556134E+02  0.33270071718E+03  0.16500000000E+03 0.  0.
   -5000001    1    1    2    0    0 -0.27056162069E+03  0.19769732391E+02  0.19234361381E+03  0.37123509894E+03  0.16500000000E+03 0.  0.
<mgrwt>
<rscale>  0 0.64065648E+03</rscale>
<asrwt>0</asrwt>
<pdfrwt beam="1">  1        2 0.71116356E-01 0.64065648E+03</pdfrwt>
<pdfrwt beam="2">  1       -2 0.29445903E-01 0.64065648E+03</pdfrwt>
<totfact> 0.71917206E+02</totfact>
</mgrwt>
</event>
<event>
 4    1  0.1049403E-004  0.4346581E+03  0.7818608E-02  0.1032399E+00
         -2   -1    0    0    0  501 -0.00000000000E+00  0.00000000000E+00  0.40490298463E+02  0.40490298543E+02  0.25500000000E-02 0. -1.
          2   -1    0    0  501    0  0.00000000000E+00 -0.00000000000E+00 -0.11664995802E+04  0.11664995802E+04  0.25500000000E-02 0.  1.
    5000001    1    1    2    0    0  0.10103055184E+02  0.70637555348E+02 -0.90213768104E+03  0.91987451943E+03  0.16500000000E+03 0.  0.
   -5000001    1    1    2    0    0 -0.10103055184E+02 -0.70637555348E+02 -0.22387160066E+03  0.28711535927E+03  0.16500000000E+03 0.  0.
<mgrwt>
<rscale>  0 0.43465810E+03</rscale>
<asrwt>0</asrwt>
<pdfrwt beam="1">  1        2 0.16664278E+00 0.43465810E+03</pdfrwt>
<pdfrwt beam="2">  1       -2 0.57843291E-02 0.43465810E+03</pdfrwt>
<totfact> 0.36772412E+03</totfact>
</mgrwt>
</event>
<event>
 4    1  0.1049403E-004  0.6221163E+03  0.7818608E-02  0.9860555E-01
          2   -1    0    0  501    0  0.00000000000E+00  0.00000000000E+00  0.14112267870E+04  0.14112267870E+04  0.25500000000E-02 0.  1.
         -2   -1    0    0    0  501 -0.00000000000E+00 -0.00000000000E+00 -0.68562458773E+02  0.68562458820E+02  0.25500000000E-02 0. -1.
    5000001    1    1    2    0    0 -0.24246659181E+03  0.12995716212E+02  0.91591859109E+03  0.96181640778E+03  0.16500000000E+03 0.  0.
   -5000001    1    1    2    0    0  0.24246659181E+03 -0.12995716212E+02  0.42674573718E+03  0.51797283808E+03  0.16500000000E+03 0.  0.
<mgrwt>
<rscale>  0 0.62211632E+03</rscale>
<asrwt>0</asrwt>
<pdfrwt beam="1">  1        2 0.20160380E+00 0.62211632E+03</pdfrwt>
<pdfrwt beam="2">  1       -2 0.97946383E-02 0.62211632E+03</pdfrwt>
<totfact> 0.11723081E+03</totfact>
</mgrwt>
</event>
<event>
 4    1  0.1049403E-004  0.5466210E+03  0.7818608E-02  0.1002279E+00
         -2   -1    0    0    0  501 -0.00000000000E+00  0.00000000000E+00  0.31641768399E+02  0.31641768502E+02  0.25500000000E-02 0. -1.
          2   -1    0    0  501    0  0.00000000000E+00 -0.00000000000E+00 -0.23607599223E+04  0.23607599223E+04  0.25500000000E-02 0.  1.
    5000001    1    1    2    0    0 -0.21546094915E+02 -0.19314807675E+03 -0.73343187631E+03  0.77647777235E+03  0.16500000000E+03 0.  0.
   -5000001    1    1    2    0    0  0.21546094915E+02  0.19314807675E+03 -0.15956862776E+04  0.16159239184E+04  0.16500000000E+03 0.  0.
<mgrwt>
<rscale>  0 0.54662096E+03</rscale>
<asrwt>0</asrwt>
<pdfrwt beam="1">  1        2 0.33725131E+00 0.54662096E+03</pdfrwt>
<pdfrwt beam="2">  1       -2 0.45202541E-02 0.54662096E+03</pdfrwt>
<totfact> 0.13118507E+03</totfact>
</mgrwt>
</event>
<event>
 4    1  0.1049403E-004  0.4354621E+03  0.7818608E-02  0.1032148E+00
         -2   -1    0    0    0  501 -0.00000000000E+00  0.00000000000E+00  0.11528765757E+03  0.11528765760E+03  0.25500000000E-02 0. -1.
          2   -1    0    0  501    0  0.00000000000E+00 -0.00000000000E+00 -0.41120454275E+03  0.41120454276E+03  0.25500000000E-02 0.  1.
    5000001    1    1    2    0    0  0.13838766474E+03  0.25927559128E+02 -0.12506872672E+03  0.25038085086E+03  0.16500000000E+03 0.  0.
   -5000001    1    1    2    0    0 -0.13838766474E+03 -0.25927559128E+02 -0.17084815846E+03  0.27611134950E+03  0.16500000000E+03 0.  0.
<mgrwt>
<rscale>  0 0.43546209E+03</rscale>
<asrwt>0</asrwt>
<pdfrwt beam="1">  1        2 0.58743506E-01 0.43546209E+03</pdfrwt>
<pdfrwt beam="2">  1       -2 0.16469666E-01 0.43546209E+03</pdfrwt>
<totfact> 0.24783187E+03</totfact>
</mgrwt>
</event>
<event>
 4    1  0.1049403E-004  0.3994429E+03  0.7818608E-02  0.1043973E+00
         -2   -1    0    0    0  501 -0.00000000000E+00  0.00000000000E+00  0.76591388807E+02  0.76591388850E+02  0.25500000000E-02 0. -1.
          2   -1    0    0  501    0  0.00000000000E+00 -0.00000000000E+00 -0.52079807190E+03  0.52079807191E+03  0.25500000000E-02 0.  1.
    5000001    1    1    2    0    0 -0.98920046660E+02  0.51892234633E+02 -0.24248180404E+03  0.31384774165E+03  0.16500000000E+03 0.  0.
   -5000001    1    1    2    0    0  0.98920046660E+02 -0.51892234633E+02 -0.20172487906E+03  0.28354171911E+03  0.16500000000E+03 0.  0.
<mgrwt>
<rscale>  0 0.39944285E+03</rscale>
<asrwt>0</asrwt>
<pdfrwt beam="1">  1        2 0.74399723E-01 0.39944285E+03</pdfrwt>
<pdfrwt beam="2">  1       -2 0.10941627E-01 0.39944285E+03</pdfrwt>
<totfact> 0.37373913E+03</totfact>
</mgrwt>
</event>
<event>
 4    1  0.1049403E-004  0.4929954E+03  0.7818608E-02  0.1015624E+00
         -2   -1    0    0    0  501 -0.00000000000E+00  0.00000000000E+00  0.48404205621E+02  0.48404205688E+02  0.25500000000E-02 0. -1.
          2   -1    0    0  501    0  0.00000000000E+00 -0.00000000000E+00 -0.12552858035E+04  0.12552858035E+04  0.25500000000E-02 0.  1.
    5000001    1    1    2    0    0  0.65326236717E+01 -0.18259415164E+03 -0.57075106694E+03  0.62158272161E+03  0.16500000000E+03 0.  0.
   -5000001    1    1    2    0    0 -0.65326236717E+01  0.18259415164E+03 -0.63613053092E+03  0.68210728757E+03  0.16500000000E+03 0.  0.
<mgrwt>
<rscale>  0 0.49299538E+03</rscale>
<asrwt>0</asrwt>
<pdfrwt beam="1">  1        2 0.17932652E+00 0.49299538E+03</pdfrwt>
<pdfrwt beam="2">  1       -2 0.69148873E-02 0.49299538E+03</pdfrwt>
<totfact> 0.24854473E+03</totfact>
</mgrwt>
</event>
<event>
 4    1  0.1049403E-004  0.4445824E+03  0.7818608E-02  0.1029350E+00
          2   -1    0    0  501    0  0.00000000000E+00  0.00000000000E+00  0.56665392350E+03  0.56665392351E+03  0.25500000000E-02 0. -1.
         -2   -1    0    0    0  501 -0.00000000000E+00 -0.00000000000E+00 -0.87202031172E+02  0.87202031210E+02  0.25500000000E-02 0.  1.
    5000001    1    1    2    0    0  0.73499368593E+02 -0.12596748523E+03  0.28429647706E+03  0.35961013805E+03  0.16500000000E+03 0.  0.
   -5000001    1    1    2    0    0 -0.73499368593E+02  0.12596748523E+03  0.19515541527E+03  0.29424581667E+03  0.16500000000E+03 0.  0.
<mgrwt>
<rscale>  0 0.44458238E+03</rscale>
<asrwt>0</asrwt>
<pdfrwt beam="1">  1        2 0.80950563E-01 0.44458238E+03</pdfrwt>
<pdfrwt beam="2">  1       -2 0.12457433E-01 0.44458238E+03</pdfrwt>
<totfact> 0.27523153E+03</totfact>
</mgrwt>
</event>
<event>
 4    1  0.1049403E-004  0.8092178E+03  0.7818608E-02  0.9546770E-01
          2   -1    0    0  501    0  0.00000000000E+00  0.00000000000E+00  0.13292762707E+04  0.13292762707E+04  0.25500000000E-02 0.  1.
         -2   -1    0    0    0  501 -0.00000000000E+00 -0.00000000000E+00 -0.12315601053E+03  0.12315601055E+03  0.25500000000E-02 0. -1.
    5000001    1    1    2    0    0  0.36544407284E+03  0.25240772470E+01  0.70017548385E+03  0.80686210069E+03  0.16500000000E+03 0.  0.
   -5000001    1    1    2    0    0 -0.36544407284E+03 -0.25240772470E+01  0.50594477630E+03  0.64557018054E+03  0.16500000000E+03 0.  0.
<mgrwt>
<rscale>  0 0.80921780E+03</rscale>
<asrwt>0</asrwt>
<pdfrwt beam="1">  1        2 0.18989661E+00 0.80921780E+03</pdfrwt>
<pdfrwt beam="2">  1       -2 0.17593716E-01 0.80921780E+03</pdfrwt>
<totfact> 0.48467192E+02</totfact>
</mgrwt>
</event>
<event>
 4    1  0.1049403E-004  0.6996522E+03  0.7818608E-02  0.9717827E-01
          2   -1    0    0  501    0  0.00000000000E+00  0.00000000000E+00  0.19824284558E+04  0.19824284558E+04  0.25500000000E-02 0.  1.
         -2   -1    0    0    0  501 -0.00000000000E+00 -0.00000000000E+00 -0.61731506227E+02  0.61731506280E+02  0.25500000000E-02 0. -1.
    5000001    1    1    2    0    0 -0.28284270457E+02 -0.23583116079E+03  0.15353850137E+04  0.15623855083E+04  0.16500000000E+03 0.  0.
   -5000001    1    1    2    0    0  0.28284270457E+02  0.23583116079E+03  0.38531193587E+03  0.48177445374E+03  0.16500000000E+03 0.  0.
<mgrwt>
<rscale>  0 0.69965218E+03</rscale>
<asrwt>0</asrwt>
<pdfrwt beam="1">  1        2 0.28320394E+00 0.69965218E+03</pdfrwt>
<pdfrwt beam="2">  1       -2 0.88187906E-02 0.69965218E+03</pdfrwt>
<totfact> 0.70478802E+02</totfact>
</mgrwt>
</event>
<event>
 4    1  0.1049403E-004  0.4915742E+03  0.7818608E-02  0.1016002E+00
          2   -1    0    0  501    0  0.00000000000E+00  0.00000000000E+00  0.11849213180E+04  0.11849213180E+04  0.25500000000E-02 0.  1.
         -2   -1    0    0    0  501 -0.00000000000E+00 -0.00000000000E+00 -0.50983383439E+02  0.50983383503E+02  0.25500000000E-02 0. -1.
    5000001    1    1    2    0    0 -0.16034668415E+03 -0.64815456922E+02  0.71083166502E+03  0.74994583709E+03  0.16500000000E+03 0.  0.
   -5000001    1    1    2    0    0  0.16034668415E+03  0.64815456922E+02  0.42310626952E+03  0.48595886439E+03  0.16500000000E+03 0.  0.
<mgrwt>
<rscale>  0 0.49157420E+03</rscale>
<asrwt>0</asrwt>
<pdfrwt beam="1">  1        2 0.16927446E+00 0.49157420E+03</pdfrwt>
<pdfrwt beam="2">  1       -2 0.72833410E-02 0.49157420E+03</pdfrwt>
<totfact> 0.25049754E+03</totfact>
</mgrwt>
</event>
<event>
 4    1  0.1049403E-004  0.4066654E+03  0.7818608E-02  0.1041496E+00
          2   -1    0    0  501    0  0.00000000000E+00  0.00000000000E+00  0.39152797437E+04  0.39152797437E+04  0.25500000000E-02 0.  1.
         -2   -1    0    0    0  501 -0.00000000000E+00 -0.00000000000E+00 -0.10559701221E+02  0.10559701529E+02  0.25500000000E-02 0. -1.
    5000001    1    1    2    0    0 -0.35817390026E+02  0.89717471410E+02  0.12844308245E+04  0.12985837105E+04  0.16500000000E+03 0.  0.
   -5000001    1    1    2    0    0  0.35817390026E+02 -0.89717471410E+02  0.26202892179E+04  0.26272557348E+04  0.16500000000E+03 0.  0.
<mgrwt>
<rscale>  0 0.40666539E+03</rscale>
<asrwt>0</asrwt>
<pdfrwt beam="1">  1        2 0.55932562E+00 0.40666539E+03</pdfrwt>
<pdfrwt beam="2">  1       -2 0.15085289E-02 0.40666539E+03</pdfrwt>
<totfact> 0.93798941E+02</totfact>
</mgrwt>
</event>
<event>
 4    1  0.1049403E-004  0.3903478E+03  0.7818608E-02  0.1047174E+00
          2   -1    0    0  501    0  0.00000000000E+00  0.00000000000E+00  0.17344604034E+04  0.17344604034E+04  0.25500000000E-02 0.  1.
         -2   -1    0    0    0  501 -0.00000000000E+00 -0.00000000000E+00 -0.21962359202E+02  0.21962359350E+02  0.25500000000E-02 0. -1.
    5000001    1    1    2    0    0 -0.43249034364E+02  0.74702253796E+02  0.11192733053E+04  0.11346579386E+04  0.16500000000E+03 0.  0.
   -5000001    1    1    2    0    0  0.43249034364E+02 -0.74702253796E+02  0.59322473884E+03  0.62176482408E+03  0.16500000000E+03 0.  0.
<mgrwt>
<rscale>  0 0.39034776E+03</rscale>
<asrwt>0</asrwt>
<pdfrwt beam="1">  1        2 0.24778011E+00 0.39034776E+03</pdfrwt>
<pdfrwt beam="2">  1       -2 0.31374792E-02 0.39034776E+03</pdfrwt>
<totfact> 0.47272154E+03</totfact>
</mgrwt>
</event>
<event>
 4    1  0.1049403E-004  0.8649456E+03  0.7818608E-02  0.9470494E-01
          2   -1    0    0  501    0  0.00000000000E+00  0.00000000000E+00  0.31553226289E+03  0.31553226290E+03  0.25500000000E-02 0. -1.
         -2   -1    0    0    0  501 -0.00000000000E+00 -0.00000000000E+00 -0.59275308180E+03  0.59275308180E+03  0.25500000000E-02 0.  1.
    5000001    1    1    2    0    0  0.31618444787E+02  0.39183988112E+03 -0.62381741127E+02  0.43087666462E+03  0.16500000000E+03 0.  0.
   -5000001    1    1    2    0    0 -0.31618444787E+02 -0.39183988112E+03 -0.21483907778E+03  0.47740868009E+03  0.16500000000E+03 0.  0.
<mgrwt>
<rscale>  0 0.86494560E+03</rscale>
<asrwt>0</asrwt>
<pdfrwt beam="1">  1        2 0.45076038E-01 0.86494560E+03</pdfrwt>
<pdfrwt beam="2">  1       -2 0.84679011E-01 0.86494560E+03</pdfrwt>
<totfact> 0.13772181E+02</totfact>
</mgrwt>
</event>
<event>
 4    1  0.1049403E-004  0.4755250E+03  0.7818608E-02  0.1020372E+00
          2   -1    0    0  501    0  0.00000000000E+00  0.00000000000E+00  0.94429587897E+03  0.94429587897E+03  0.25500000000E-02 0.  1.
         -2   -1    0    0    0  501 -0.00000000000E+00 -0.00000000000E+00 -0.59865773075E+02  0.59865773130E+02  0.25500000000E-02 0. -1.
    5000001    1    1    2    0    0  0.39968810651E+02  0.76378673997E+02  0.12989326003E+03  0.22699882526E+03  0.16500000000E+03 0.  0.
   -5000001    1    1    2    0    0 -0.39968810651E+02 -0.76378673997E+02  0.75453684586E+03  0.77716282684E+03  0.16500000000E+03 0.  0.
<mgrwt>
<rscale>  0 0.47552498E+03</rscale>
<asrwt>0</asrwt>
<pdfrwt beam="1">  1        2 0.13489940E+00 0.47552498E+03</pdfrwt>
<pdfrwt beam="2">  1       -2 0.85522541E-02 0.47552498E+03</pdfrwt>
<totfact> 0.26894708E+03</totfact>
</mgrwt>
</event>
<event>
 4    1  0.1049403E-004  0.4974052E+03  0.7818608E-02  0.1014458E+00
         -2   -1    0    0    0  501 -0.00000000000E+00  0.00000000000E+00  0.28126263292E+03  0.28126263293E+03  0.25500000000E-02 0. -1.
          2   -1    0    0  501    0  0.00000000000E+00 -0.00000000000E+00 -0.21991179826E+03  0.21991179827E+03  0.25500000000E-02 0.  1.
    5000001    1    1    2    0    0 -0.37201940435E+02 -0.17786889155E+03 -0.97112962305E+01  0.24564331098E+03  0.16500000000E+03 0.  0.
   -5000001    1    1    2    0    0  0.37201940435E+02  0.17786889155E+03  0.71062130893E+02  0.25553112022E+03  0.16500000000E+03 0.  0.
<mgrwt>
<rscale>  0 0.49740515E+03</rscale>
<asrwt>0</asrwt>
<pdfrwt beam="1">  1        2 0.31415971E-01 0.49740515E+03</pdfrwt>
<pdfrwt beam="2">  1       -2 0.40180376E-01 0.49740515E+03</pdfrwt>
<totfact> 0.99184224E+02</totfact>
</mgrwt>
</event>
<event>
 4    1  0.1049403E-004  0.1318636E+04  0.7818608E-02  0.9014916E-01
          2   -1    0    0  501    0  0.00000000000E+00  0.00000000000E+00  0.17168677657E+04  0.17168677657E+04  0.25500000000E-02 0.  1.
         -2   -1    0    0    0  501 -0.00000000000E+00 -0.00000000000E+00 -0.25319363522E+03  0.25319363523E+03  0.25500000000E-02 0. -1.
    5000001    1    1    2    0    0  0.50896751570E+03 -0.37488144575E+03  0.59912210453E+03  0.88642897433E+03  0.16500000000E+03 0.  0.
   -5000001    1    1    2    0    0 -0.50896751570E+03  0.37488144575E+03  0.86455202594E+03  0.10836324266E+04  0.16500000000E+03 0.  0.
<mgrwt>
<rscale>  0 0.13186356E+04</rscale>
<asrwt>0</asrwt>
<pdfrwt beam="1">  1        2 0.24526684E+00 0.13186356E+04</pdfrwt>
<pdfrwt beam="2">  1       -2 0.36170517E-01 0.13186356E+04</pdfrwt>
<totfact> 0.79143018E+01</totfact>
</mgrwt>
</event>
<event>
 4    1  0.1049403E-004  0.3905322E+03  0.7818608E-02  0.1047108E+00
          2   -1    0    0  501    0  0.00000000000E+00  0.00000000000E+00  0.57427468564E+03  0.57427468565E+03  0.25500000000E-02 0.  1.
         -2   -1    0    0    0  501 -0.00000000000E+00 -0.00000000000E+00 -0.66394808708E+02  0.66394808757E+02  0.25500000000E-02 0. -1.
    5000001    1    1    2    0    0  0.53863380049E+02  0.81764083443E+02  0.19440008371E+03  0.27313553705E+03  0.16500000000E+03 0.  0.
   -5000001    1    1    2    0    0 -0.53863380049E+02 -0.81764083443E+02  0.31347979322E+03  0.36753395736E+03  0.16500000000E+03 0.  0.
<mgrwt>
<rscale>  0 0.39053224E+03</rscale>
<asrwt>0</asrwt>
<pdfrwt beam="1">  1        2 0.82039244E-01 0.39053224E+03</pdfrwt>
<pdfrwt beam="2">  1       -2 0.94849723E-02 0.39053224E+03</pdfrwt>
<totfact> 0.42050786E+03</totfact>
</mgrwt>
</event>
<event>
 4    1  0.1049403E-004  0.4971996E+03  0.7818608E-02  0.1014512E+00
         -2   -1    0    0    0  501 -0.00000000000E+00  0.00000000000E+00  0.74001986659E+02  0.74001986703E+02  0.25500000000E-02 0. -1.
          2   -1    0    0  501    0  0.00000000000E+00 -0.00000000000E+00 -0.83513801537E+03  0.83513801538E+03  0.25500000000E-02 0.  1.
    5000001    1    1    2    0    0  0.96185609931E+02 -0.10207516762E+03 -0.15732468683E+03  0.26766970036E+03  0.16500000000E+03 0.  0.
   -5000001    1    1    2    0    0 -0.96185609931E+02  0.10207516762E+03 -0.60381134189E+03  0.64147030172E+03  0.16500000000E+03 0.  0.
<mgrwt>
<rscale>  0 0.49719965E+03</rscale>
<asrwt>0</asrwt>
<pdfrwt beam="1">  1        2 0.11930543E+00 0.49719965E+03</pdfrwt>
<pdfrwt beam="2">  1       -2 0.10571713E-01 0.49719965E+03</pdfrwt>
<totfact> 0.22503336E+03</totfact>
</mgrwt>
</event>
<event>
 4    1  0.1049403E-004  0.4455730E+03  0.7818608E-02  0.1029050E+00
         -2   -1    0    0    0  501 -0.00000000000E+00  0.00000000000E+00  0.85185994949E+03  0.85185994950E+03  0.25500000000E-02 0. -1.
          2   -1    0    0  501    0  0.00000000000E+00 -0.00000000000E+00 -0.58265237776E+02  0.58265237832E+02  0.25500000000E-02 0.  1.
    5000001    1    1    2    0    0  0.12834061648E+03  0.76146105538E+02  0.42090337945E+03  0.47608213373E+03  0.16500000000E+03 0.  0.
   -5000001    1    1    2    0    0 -0.12834061648E+03 -0.76146105538E+02  0.37269133227E+03  0.43404305360E+03  0.16500000000E+03 0.  0.
<mgrwt>
<rscale>  0 0.44557299E+03</rscale>
<asrwt>0</asrwt>
<pdfrwt beam="1">  1        2 0.83236051E-02 0.44557299E+03</pdfrwt>
<pdfrwt beam="2">  1       -2 0.12169428E+00 0.44557299E+03</pdfrwt>
<totfact> 0.43607531E+02</totfact>
</mgrwt>
</event>
<event>
 4    1  0.1049403E-004  0.5109293E+03  0.7818608E-02  0.1010965E+00
         -2   -1    0    0    0  501 -0.00000000000E+00  0.00000000000E+00  0.26348540114E+03  0.26348540115E+03  0.25500000000E-02 0. -1.
          2   -1    0    0  501    0  0.00000000000E+00 -0.00000000000E+00 -0.24768806541E+03  0.24768806543E+03  0.25500000000E-02 0.  1.
    5000001    1    1    2    0    0 -0.11290353462E+03  0.12346964666E+03 -0.92375109762E+02  0.25248786640E+03  0.16500000000E+03 0.  0.
   -5000001    1    1    2    0    0  0.11290353462E+03 -0.12346964666E+03  0.10817244549E+03  0.25868560018E+03  0.16500000000E+03 0.  0.
<mgrwt>
<rscale>  0 0.51092931E+03</rscale>
<asrwt>0</asrwt>
<pdfrwt beam="1">  1        2 0.35384009E-01 0.51092931E+03</pdfrwt>
<pdfrwt beam="2">  1       -2 0.37640772E-01 0.51092931E+03</pdfrwt>
<totfact> 0.98548820E+02</totfact>
</mgrwt>
</event>
<event>
 4    1  0.1049403E-004  0.4194736E+03  0.7818608E-02  0.1037238E+00
         -2   -1    0    0    0  501 -0.00000000000E+00  0.00000000000E+00  0.59023719045E+02  0.59023719100E+02  0.25500000000E-02 0. -1.
          2   -1    0    0  501    0  0.00000000000E+00 -0.00000000000E+00 -0.74528560244E+03  0.74528560245E+03  0.25500000000E-02 0.  1.
    5000001    1    1    2    0    0 -0.16992338867E+02 -0.77738756837E+02 -0.53897577266E+03  0.56925559937E+03  0.16500000000E+03 0.  0.
   -5000001    1    1    2    0    0  0.16992338867E+02  0.77738756837E+02 -0.14728611073E+03  0.23505372218E+03  0.16500000000E+03 0.  0.
<mgrwt>
<rscale>  0 0.41947361E+03</rscale>
<asrwt>0</asrwt>
<pdfrwt beam="1">  1        2 0.10646937E+00 0.41947361E+03</pdfrwt>
<pdfrwt beam="2">  1       -2 0.84319603E-02 0.41947361E+03</pdfrwt>
<totfact> 0.37273697E+03</totfact>
</mgrwt>
</event>
<event>
 4    1  0.1049403E-004  0.5452406E+03  0.7818608E-02  0.1002602E+00
         -2   -1    0    0    0  501 -0.00000000000E+00  0.00000000000E+00  0.66982040192E+02  0.66982040240E+02  0.25500000000E-02 0. -1.
          2   -1    0    0  501    0  0.00000000000E+00 -0.00000000000E+00 -0.11095785475E+04  0.11095785475E+04  0.25500000000E-02 0.  1.
    5000001    1    1    2    0    0  0.14658499729E+03  0.23727681803E+02 -0.86280641823E+03  0.89090407994E+03  0.16500000000E+03 0.  0.
   -5000001    1    1    2    0    0 -0.14658499729E+03 -0.23727681803E+02 -0.17979008905E+03  0.28565650778E+03  0.16500000000E+03 0.  0.
<mgrwt>
<rscale>  0 0.54524063E+03</rscale>
<asrwt>0</asrwt>
<pdfrwt beam="1">  1        2 0.15851121E+00 0.54524063E+03</pdfrwt>
<pdfrwt beam="2">  1       -2 0.95688636E-02 0.54524063E+03</pdfrwt>
<totfact> 0.17883182E+03</totfact>
</mgrwt>
</event>
<event>
 4    1  0.1049403E-004  0.5348540E+03  0.7818608E-02  0.1005062E+00
         -2   -1    0    0    0  501 -0.00000000000E+00  0.00000000000E+00  0.44671041377E+03  0.44671041378E+03  0.25500000000E-02 0. -1.
          2   -1    0    0  501    0  0.00000000000E+00 -0.00000000000E+00 -0.16009747586E+03  0.16009747588E+03  0.25500000000E-02 0.  1.
    5000001    1    1    2    0    0 -0.14368411990E+03  0.31573474428E+02 -0.27440087656E+02  0.22275540175E+03  0.16500000000E+03 0.  0.
   -5000001    1    1    2    0    0  0.14368411990E+03 -0.31573474428E+02  0.31405302557E+03  0.38405248790E+03  0.16500000000E+03 0.  0.
<mgrwt>
<rscale>  0 0.53485404E+03</rscale>
<asrwt>0</asrwt>
<pdfrwt beam="1">  1        2 0.22871068E-01 0.53485404E+03</pdfrwt>
<pdfrwt beam="2">  1       -2 0.63815775E-01 0.53485404E+03</pdfrwt>
<totfact> 0.55593161E+02</totfact>
</mgrwt>
</event>
<event>
 4    1  0.1049403E-004  0.3959443E+03  0.7818608E-02  0.1045193E+00
          2   -1    0    0  501    0  0.00000000000E+00  0.00000000000E+00  0.46699877291E+03  0.46699877292E+03  0.25500000000E-02 0.  1.
         -2   -1    0    0    0  501 -0.00000000000E+00 -0.00000000000E+00 -0.83925226315E+02  0.83925226353E+02  0.25500000000E-02 0. -1.
    5000001    1    1    2    0    0 -0.10438653127E+03 -0.28441028697E+02  0.21408193726E+03  0.29113831058E+03  0.16500000000E+03 0.  0.
   -5000001    1    1    2    0    0  0.10438653127E+03  0.28441028697E+02  0.16899160934E+03  0.25978568870E+03  0.16500000000E+03 0.  0.
<mgrwt>
<rscale>  0 0.39594433E+03</rscale>
<asrwt>0</asrwt>
<pdfrwt beam="1">  1        2 0.66714109E-01 0.39594433E+03</pdfrwt>
<pdfrwt beam="2">  1       -2 0.11989318E-01 0.39594433E+03</pdfrwt>
<totfact> 0.36396520E+03</totfact>
</mgrwt>
</event>
<event>
 4    1  0.1049403E-004  0.7843707E+03  0.7818608E-02  0.9582920E-01
         -2   -1    0    0    0  501 -0.00000000000E+00  0.00000000000E+00  0.21442226011E+04  0.21442226011E+04  0.25500000000E-02 0. -1.
          2   -1    0    0  501    0  0.00000000000E+00 -0.00000000000E+00 -0.71731982341E+02  0.71731982386E+02  0.25500000000E-02 0.  1.
    5000001    1    1    2    0    0  0.13143000034E+03 -0.30629248683E+03  0.13879198904E+04  0.14368839740E+04  0.16500000000E+03 0.  0.
   -5000001    1    1    2    0    0 -0.13143000034E+03  0.30629248683E+03  0.68457072831E+03  0.77907060947E+03  0.16500000000E+03 0.  0.
<mgrwt>
<rscale>  0 0.78437067E+03</rscale>
<asrwt>0</asrwt>
<pdfrwt beam="1">  1        2 0.10247425E-01 0.78437067E+03</pdfrwt>
<pdfrwt beam="2">  1       -2 0.30631756E+00 0.78437067E+03</pdfrwt>
<totfact> 0.19473769E+01</totfact>
</mgrwt>
</event>
<event>
 4    1  0.1049403E-004  0.1211054E+04  0.7818608E-02  0.9103235E-01
         -2   -1    0    0    0  501 -0.00000000000E+00  0.00000000000E+00  0.57821270447E+03  0.57821270447E+03  0.25500000000E-02 0. -1.
          2   -1    0    0  501    0  0.00000000000E+00 -0.00000000000E+00 -0.63413192322E+03  0.63413192323E+03  0.25500000000E-02 0.  1.
    5000001    1    1    2    0    0  0.51824814743E+03  0.21679361364E+03 -0.18258297835E+03  0.61330429414E+03  0.16500000000E+03 0.  0.
   -5000001    1    1    2    0    0 -0.51824814743E+03 -0.21679361364E+03  0.12666375959E+03  0.59904033356E+03  0.16500000000E+03 0.  0.
<mgrwt>
<rscale>  0 0.12110543E+04</rscale>
<asrwt>0</asrwt>
<pdfrwt beam="1">  1        2 0.90590274E-01 0.12110543E+04</pdfrwt>
<pdfrwt beam="2">  1       -2 0.82601815E-01 0.12110543E+04</pdfrwt>
<totfact> 0.64479786E+01</totfact>
</mgrwt>
</event>
<event>
 4    1  0.1049403E-004  0.3845915E+03  0.7818608E-02  0.1049250E+00
         -2   -1    0    0    0  501 -0.00000000000E+00  0.00000000000E+00  0.13736612783E+02  0.13736613020E+02  0.25500000000E-02 0. -1.
          2   -1    0    0  501    0  0.00000000000E+00 -0.00000000000E+00 -0.26919053801E+04  0.26919053801E+04  0.25500000000E-02 0.  1.
    5000001    1    1    2    0    0  0.56902851300E+02  0.67049243251E+02 -0.10229640785E+04  0.10399105930E+04  0.16500000000E+03 0.  0.
   -5000001    1    1    2    0    0 -0.56902851300E+02 -0.67049243251E+02 -0.16552046888E+04  0.16657314001E+04  0.16500000000E+03 0.  0.
<mgrwt>
<rscale>  0 0.38459153E+03</rscale>
<asrwt>0</asrwt>
<pdfrwt beam="1">  1        2 0.38455757E+00 0.38459153E+03</pdfrwt>
<pdfrwt beam="2">  1       -2 0.19623750E-02 0.38459153E+03</pdfrwt>
<totfact> 0.31688158E+03</totfact>
</mgrwt>
</event>
<event>
 4    1  0.1049403E-004  0.8602670E+03  0.7818608E-02  0.9476660E-01
         -2   -1    0    0    0  501 -0.00000000000E+00  0.00000000000E+00  0.59188250919E+02  0.59188250974E+02  0.25500000000E-02 0. -1.
          2   -1    0    0  501    0  0.00000000000E+00 -0.00000000000E+00 -0.31258707567E+04  0.31258707567E+04  0.25500000000E-02 0.  1.
    5000001    1    1    2    0    0  0.29560440669E+03  0.15664421510E+03 -0.23263002170E+04  0.23560172060E+04  0.16500000000E+03 0.  0.
   -5000001    1    1    2    0    0 -0.29560440669E+03 -0.15664421510E+03 -0.74038228877E+03  0.82904180166E+03  0.16500000000E+03 0.  0.
<mgrwt>
<rscale>  0 0.86026699E+03</rscale>
<asrwt>0</asrwt>
<pdfrwt beam="1">  1        2 0.44655286E+00 0.86026699E+03</pdfrwt>
<pdfrwt beam="2">  1       -2 0.84554664E-02 0.86026699E+03</pdfrwt>
<totfact> 0.18736190E+02</totfact>
</mgrwt>
</event>
<event>
 4    1  0.1049403E-004  0.3602249E+03  0.7818608E-02  0.1058495E+00
         -2   -1    0    0    0  501 -0.00000000000E+00  0.00000000000E+00  0.15390014060E+02  0.15390014271E+02  0.25500000000E-02 0. -1.
          2   -1    0    0  501    0  0.00000000000E+00 -0.00000000000E+00 -0.21078928451E+04  0.21078928451E+04  0.25500000000E-02 0.  1.
    5000001    1    1    2    0    0 -0.28455476224E+02 -0.61930744411E+02 -0.90548072614E+03  0.92291141321E+03  0.16500000000E+03 0.  0.
   -5000001    1    1    2    0    0  0.28455476224E+02  0.61930744411E+02 -0.11870221049E+04  0.12003714462E+04  0.16500000000E+03 0.  0.
<mgrwt>
<rscale>  0 0.36022493E+03</rscale>
<asrwt>0</asrwt>
<pdfrwt beam="1">  1        2 0.30112736E+00 0.36022493E+03</pdfrwt>
<pdfrwt beam="2">  1       -2 0.21985748E-02 0.36022493E+03</pdfrwt>
<totfact> 0.52599716E+03</totfact>
</mgrwt>
</event>
<event>
 4    1  0.1049403E-004  0.4701304E+03  0.7818608E-02  0.1021883E+00
          2   -1    0    0  501    0  0.00000000000E+00  0.00000000000E+00  0.22289163412E+03  0.22289163413E+03  0.25500000000E-02 0.  1.
         -2   -1    0    0    0  501 -0.00000000000E+00 -0.00000000000E+00 -0.24790360341E+03  0.24790360342E+03  0.25500000000E-02 0. -1.
    5000001    1    1    2    0    0  0.82027037084E+02 -0.90573421040E+02 -0.12711722005E+03  0.24148657736E+03  0.16500000000E+03 0.  0.
   -5000001    1    1    2    0    0 -0.82027037084E+02  0.90573421040E+02  0.10210525075E+03  0.22930866020E+03  0.16500000000E+03 0.  0.
<mgrwt>
<rscale>  0 0.47013036E+03</rscale>
<asrwt>0</asrwt>
<pdfrwt beam="1">  1        2 0.31841662E-01 0.47013036E+03</pdfrwt>
<pdfrwt beam="2">  1       -2 0.35414801E-01 0.47013036E+03</pdfrwt>
<totfact> 0.12436936E+03</totfact>
</mgrwt>
</event>
<event>
 4    1  0.1049403E-004  0.4607726E+03  0.7818608E-02  0.1024557E+00
          2   -1    0    0  501    0  0.00000000000E+00  0.00000000000E+00  0.15706127934E+03  0.15706127936E+03  0.25500000000E-02 0.  1.
         -2   -1    0    0    0  501 -0.00000000000E+00 -0.00000000000E+00 -0.33794350137E+03  0.33794350138E+03  0.25500000000E-02 0. -1.
    5000001    1    1    2    0    0  0.87133410882E+02  0.12495750972E+03 -0.14570436142E+03  0.26769641661E+03  0.16500000000E+03 0.  0.
   -5000001    1    1    2    0    0 -0.87133410882E+02 -0.12495750972E+03 -0.35177860611E+02  0.22730836413E+03  0.16500000000E+03 0.  0.
<mgrwt>
<rscale>  0 0.46077256E+03</rscale>
<asrwt>0</asrwt>
<pdfrwt beam="1">  1        2 0.22437326E-01 0.46077256E+03</pdfrwt>
<pdfrwt beam="2">  1       -2 0.48277643E-01 0.46077256E+03</pdfrwt>
<totfact> 0.10106459E+03</totfact>
</mgrwt>
</event>
<event>
 4    1  0.1049403E-004  0.3530762E+03  0.7818608E-02  0.1061359E+00
         -2   -1    0    0    0  501 -0.00000000000E+00  0.00000000000E+00  0.85381508163E+02  0.85381508201E+02  0.25500000000E-02 0. -1.
          2   -1    0    0  501    0  0.00000000000E+00 -0.00000000000E+00 -0.36501705792E+03  0.36501705793E+03  0.25500000000E-02 0.  1.
    5000001    1    1    2    0    0 -0.84014607961E+01 -0.61408475124E+02 -0.12711751586E+03  0.21731416935E+03  0.16500000000E+03 0.  0.
   -5000001    1    1    2    0    0  0.84014607961E+01  0.61408475124E+02 -0.15251803390E+03  0.23308439679E+03  0.16500000000E+03 0.  0.
<mgrwt>
<rscale>  0 0.35307623E+03</rscale>
<asrwt>0</asrwt>
<pdfrwt beam="1">  1        2 0.52145293E-01 0.35307623E+03</pdfrwt>
<pdfrwt beam="2">  1       -2 0.12197359E-01 0.35307623E+03</pdfrwt>
<totfact> 0.46263749E+03</totfact>
</mgrwt>
</event>
<event>
 4    1  0.1049403E-004  0.4888769E+03  0.7818608E-02  0.1016724E+00
         -2   -1    0    0    0  501 -0.00000000000E+00  0.00000000000E+00  0.37252444249E+02  0.37252444337E+02  0.25500000000E-02 0. -1.
          2   -1    0    0  501    0  0.00000000000E+00 -0.00000000000E+00 -0.16039258576E+04  0.16039258576E+04  0.25500000000E-02 0.  1.
    5000001    1    1    2    0    0 -0.36469624255E+02  0.12829942106E+03 -0.11908316534E+04  0.12095849708E+04  0.16500000000E+03 0.  0.
   -5000001    1    1    2    0    0  0.36469624255E+02 -0.12829942106E+03 -0.37584176003E+03  0.43159333118E+03  0.16500000000E+03 0.  0.
<mgrwt>
<rscale>  0 0.48887691E+03</rscale>
<asrwt>0</asrwt>
<pdfrwt beam="1">  1        2 0.22913222E+00 0.48887691E+03</pdfrwt>
<pdfrwt beam="2">  1       -2 0.53217788E-02 0.48887691E+03</pdfrwt>
<totfact> 0.24528750E+03</totfact>
</mgrwt>
</event>
<event>
 4    1  0.1049403E-004  0.4026288E+03  0.7818608E-02  0.1042873E+00
          2   -1    0    0  501    0  0.00000000000E+00  0.00000000000E+00  0.22442028785E+02  0.22442028930E+02  0.25500000000E-02 0.  1.
         -2   -1    0    0    0  501 -0.00000000000E+00 -0.00000000000E+00 -0.18058747074E+04  0.18058747074E+04  0.25500000000E-02 0. -1.
    5000001    1    1    2    0    0 -0.10901816230E+03  0.55825438006E+01 -0.10607938337E+04  0.10790851135E+04  0.16500000000E+03 0.  0.
   -5000001    1    1    2    0    0  0.10901816230E+03 -0.55825438006E+01 -0.72263884489E+03  0.74923162283E+03  0.16500000000E+03 0.  0.
<mgrwt>
<rscale>  0 0.40262882E+03</rscale>
<asrwt>0</asrwt>
<pdfrwt beam="1">  1        2 0.32060053E-02 0.40262882E+03</pdfrwt>
<pdfrwt beam="2">  1       -2 0.25798201E+00 0.40262882E+03</pdfrwt>
<totfact> 0.18327211E+02</totfact>
</mgrwt>
</event>
<event>
 4    1  0.1049403E-004  0.3774972E+03  0.7818608E-02  0.1051863E+00
         -2   -1    0    0    0  501 -0.00000000000E+00  0.00000000000E+00  0.26526389451E+02  0.26526389573E+02  0.25500000000E-02 0. -1.
          2   -1    0    0  501    0  0.00000000000E+00 -0.00000000000E+00 -0.13430409169E+04  0.13430409169E+04  0.25500000000E-02 0.  1.
    5000001    1    1    2    0    0  0.90403894504E+02  0.14926707175E+02 -0.64986110788E+03  0.67671273836E+03  0.16500000000E+03 0.  0.
   -5000001    1    1    2    0    0 -0.90403894504E+02 -0.14926707175E+02 -0.66665341953E+03  0.69285456807E+03  0.16500000000E+03 0.  0.
<mgrwt>
<rscale>  0 0.37749716E+03</rscale>
<asrwt>0</asrwt>
<pdfrwt beam="1">  1        2 0.19186294E+00 0.37749716E+03</pdfrwt>
<pdfrwt beam="2">  1       -2 0.37894851E-02 0.37749716E+03</pdfrwt>
<totfact> 0.56307312E+03</totfact>
</mgrwt>
</event>
<event>
 4    1  0.1049403E-004  0.5272620E+03  0.7818608E-02  0.1006898E+00
          2   -1    0    0  501    0  0.00000000000E+00  0.00000000000E+00  0.16626523093E+03  0.16626523095E+03  0.25500000000E-02 0.  1.
         -2   -1    0    0    0  501 -0.00000000000E+00 -0.00000000000E+00 -0.41801471970E+03  0.41801471971E+03  0.25500000000E-02 0. -1.
    5000001    1    1    2    0    0  0.14912047371E+03  0.12110059113E+03 -0.44639380059E+02  0.25713798456E+03  0.16500000000E+03 0.  0.
   -5000001    1    1    2    0    0 -0.14912047371E+03 -0.12110059113E+03 -0.20711010871E+03  0.32714196610E+03  0.16500000000E+03 0.  0.
<mgrwt>
<rscale>  0 0.52726204E+03</rscale>
<asrwt>0</asrwt>
<pdfrwt beam="1">  1        2 0.23752176E-01 0.52726204E+03</pdfrwt>
<pdfrwt beam="2">  1       -2 0.59716388E-01 0.52726204E+03</pdfrwt>
<totfact> 0.61243573E+02</totfact>
</mgrwt>
</event>
<event>
 4    1  0.1049403E-004  0.6241064E+03  0.7818608E-02  0.9856618E-01
          2   -1    0    0  501    0  0.00000000000E+00  0.00000000000E+00  0.14952951283E+04  0.14952951284E+04  0.25500000000E-02 0.  1.
         -2   -1    0    0    0  501 -0.00000000000E+00 -0.00000000000E+00 -0.65122402537E+02  0.65122402587E+02  0.25500000000E-02 0. -1.
    5000001    1    1    2    0    0 -0.11023876746E+03  0.15009582284E+02  0.13160520100E+04  0.13310130602E+04  0.16500000000E+03 0.  0.
   -5000001    1    1    2    0    0  0.11023876746E+03 -0.15009582284E+02  0.11412071580E+03  0.22940447072E+03  0.16500000000E+03 0.  0.
<mgrwt>
<rscale>  0 0.62410644E+03</rscale>
<asrwt>0</asrwt>
<pdfrwt beam="1">  1        2 0.21361360E+00 0.62410644E+03</pdfrwt>
<pdfrwt beam="2">  1       -2 0.93031999E-02 0.62410644E+03</pdfrwt>
<totfact> 0.11505292E+03</totfact>
</mgrwt>
</event>
<event>
 4    1  0.1049403E-004  0.7274911E+03  0.7818608E-02  0.9671340E-01
         -2   -1    0    0    0  501 -0.00000000000E+00  0.00000000000E+00  0.70367089841E+03  0.70367089841E+03  0.25500000000E-02 0. -1.
          2   -1    0    0  501    0  0.00000000000E+00 -0.00000000000E+00 -0.18802943069E+03  0.18802943071E+03  0.25500000000E-02 0.  1.
    5000001    1    1    2    0    0 -0.73366677319E+02  0.16775254722E+03 -0.70073077564E+02  0.25623977568E+03  0.16500000000E+03 0.  0.
   -5000001    1    1    2    0    0  0.73366677319E+02 -0.16775254722E+03  0.58571454528E+03  0.63546055345E+03  0.16500000000E+03 0.  0.
<mgrwt>
<rscale>  0 0.72749114E+03</rscale>
<asrwt>0</asrwt>
<pdfrwt beam="1">  1        2 0.26861347E-01 0.72749114E+03</pdfrwt>
<pdfrwt beam="2">  1       -2 0.10052441E+00 0.72749114E+03</pdfrwt>
<totfact> 0.16619300E+02</totfact>
</mgrwt>
</event>
<event>
 4    1  0.1049403E-004  0.5916146E+03  0.7818608E-02  0.9922957E-01
          2   -1    0    0  501    0  0.00000000000E+00  0.00000000000E+00  0.94772602097E+03  0.94772602097E+03  0.25500000000E-02 0.  1.
         -2   -1    0    0    0  501 -0.00000000000E+00 -0.00000000000E+00 -0.92328334150E+02  0.92328334185E+02  0.25500000000E-02 0. -1.
    5000001    1    1    2    0    0  0.99091053790E+02  0.16655076500E+03  0.69267668070E+03  0.73795946925E+03  0.16500000000E+03 0.  0.
   -5000001    1    1    2    0    0 -0.99091053790E+02 -0.16655076500E+03  0.16272100612E+03  0.30209488591E+03  0.16500000000E+03 0.  0.
<mgrwt>
<rscale>  0 0.59161462E+03</rscale>
<asrwt>0</asrwt>
<pdfrwt beam="1">  1        2 0.13538943E+00 0.59161462E+03</pdfrwt>
<pdfrwt beam="2">  1       -2 0.13189762E-01 0.59161462E+03</pdfrwt>
<totfact> 0.13224650E+03</totfact>
</mgrwt>
</event>
<event>
 4    1  0.1049403E-004  0.4203944E+03  0.7818608E-02  0.1036938E+00
         -2   -1    0    0    0  501 -0.00000000000E+00  0.00000000000E+00  0.15516512753E+02  0.15516512962E+02  0.25500000000E-02 0. -1.
          2   -1    0    0  501    0  0.00000000000E+00 -0.00000000000E+00 -0.28474732955E+04  0.28474732955E+04  0.25500000000E-02 0.  1.
    5000001    1    1    2    0    0 -0.83042741257E+02  0.79831966005E+02 -0.10023649382E+04  0.10223647632E+04  0.16500000000E+03 0.  0.
   -5000001    1    1    2    0    0  0.83042741257E+02 -0.79831966005E+02 -0.18295918445E+04  0.18406250452E+04  0.16500000000E+03 0.  0.
<mgrwt>
<rscale>  0 0.42039437E+03</rscale>
<asrwt>0</asrwt>
<pdfrwt beam="1">  1        2 0.40678157E+00 0.42039437E+03</pdfrwt>
<pdfrwt beam="2">  1       -2 0.22166465E-02 0.42039437E+03</pdfrwt>
<totfact> 0.21879811E+03</totfact>
</mgrwt>
</event>
<event>
 4    1  0.1049403E-004  0.6473460E+03  0.7818608E-02  0.9811772E-01
         -2   -1    0    0    0  501 -0.00000000000E+00  0.00000000000E+00  0.50034055123E+02  0.50034055188E+02  0.25500000000E-02 0. -1.
          2   -1    0    0  501    0  0.00000000000E+00 -0.00000000000E+00 -0.20938579111E+04  0.20938579111E+04  0.25500000000E-02 0.  1.
    5000001    1    1    2    0    0  0.53759761657E+02  0.25871257677E+03 -0.73098248093E+03  0.79459593303E+03  0.16500000000E+03 0.  0.
   -5000001    1    1    2    0    0 -0.53759761657E+02 -0.25871257677E+03 -0.13128413750E+04  0.13492960333E+04  0.16500000000E+03 0.  0.
<mgrwt>
<rscale>  0 0.64734597E+03</rscale>
<asrwt>0</asrwt>
<pdfrwt beam="1">  1        2 0.29912250E+00 0.64734597E+03</pdfrwt>
<pdfrwt beam="2">  1       -2 0.71477235E-02 0.64734597E+03</pdfrwt>
<totfact> 0.86892262E+02</totfact>
</mgrwt>
</event>
<event>
 4    1  0.1049403E-004  0.4458799E+03  0.7818608E-02  0.1028958E+00
         -2   -1    0    0    0  501 -0.00000000000E+00  0.00000000000E+00  0.17739777013E+03  0.17739777015E+03  0.25500000000E-02 0. -1.
          2   -1    0    0  501    0  0.00000000000E+00 -0.00000000000E+00 -0.28017388255E+03  0.28017388256E+03  0.25500000000E-02 0.  1.
    5000001    1    1    2    0    0 -0.12758784304E+03 -0.64734405745E+02 -0.54020871175E+01  0.21845682302E+03  0.16500000000E+03 0.  0.
   -5000001    1    1    2    0    0  0.12758784304E+03  0.64734405745E+02 -0.97374025300E+02  0.23911482970E+03  0.16500000000E+03 0.  0.
<mgrwt>
<rscale>  0 0.44587990E+03</rscale>
<asrwt>0</asrwt>
<pdfrwt beam="1">  1        2 0.40024840E-01 0.44587990E+03</pdfrwt>
<pdfrwt beam="2">  1       -2 0.25342539E-01 0.44587990E+03</pdfrwt>
<totfact> 0.17863829E+03</totfact>
</mgrwt>
</event>
<event>
 4    1  0.1049403E-004  0.4539548E+03  0.7818608E-02  0.1026549E+00
         -2   -1    0    0    0  501 -0.00000000000E+00  0.00000000000E+00  0.32319855723E+02  0.32319855823E+02  0.25500000000E-02 0. -1.
          2   -1    0    0  501    0  0.00000000000E+00 -0.00000000000E+00 -0.15940272276E+04  0.15940272276E+04  0.25500000000E-02 0.  1.
    5000001    1    1    2    0    0  0.45455310090E+02  0.63041639653E+02 -0.29682475617E+03  0.34838250447E+03  0.16500000000E+03 0.  0.
   -5000001    1    1    2    0    0 -0.45455310090E+02 -0.63041639653E+02 -0.12648826157E+04  0.12779645789E+04  0.16500000000E+03 0.  0.
<mgrwt>
<rscale>  0 0.45395476E+03</rscale>
<asrwt>0</asrwt>
<pdfrwt beam="1">  1        2 0.22771813E+00 0.45395476E+03</pdfrwt>
<pdfrwt beam="2">  1       -2 0.46171233E-02 0.45395476E+03</pdfrwt>
<totfact> 0.30910151E+03</totfact>
</mgrwt>
</event>
<event>
 4    1  0.1049403E-004  0.3740347E+03  0.7818608E-02  0.1053161E+00
         -2   -1    0    0    0  501 -0.00000000000E+00  0.00000000000E+00  0.79247876409E+02  0.79247876450E+02  0.25500000000E-02 0. -1.
          2   -1    0    0  501    0  0.00000000000E+00 -0.00000000000E+00 -0.44134280298E+03  0.44134280299E+03  0.25500000000E-02 0.  1.
    5000001    1    1    2    0    0  0.73754218825E+02  0.43112223994E+02 -0.21064235950E+03  0.28087996060E+03  0.16500000000E+03 0.  0.
   -5000001    1    1    2    0    0 -0.73754218825E+02 -0.43112223994E+02 -0.15145256707E+03  0.23971071884E+03  0.16500000000E+03 0.  0.
<mgrwt>
<rscale>  0 0.37403465E+03</rscale>
<asrwt>0</asrwt>
<pdfrwt beam="1">  1        2 0.63048971E-01 0.37403465E+03</pdfrwt>
<pdfrwt beam="2">  1       -2 0.11321125E-01 0.37403465E+03</pdfrwt>
<totfact> 0.42478396E+03</totfact>
</mgrwt>
</event>
<event>
 4    1  0.1049403E-004  0.3935898E+03  0.7818608E-02  0.1046022E+00
         -2   -1    0    0    0  501 -0.00000000000E+00  0.00000000000E+00  0.57613365384E+02  0.57613365441E+02  0.25500000000E-02 0. -1.
          2   -1    0    0  501    0  0.00000000000E+00 -0.00000000000E+00 -0.67220914474E+03  0.67220914474E+03  0.25500000000E-02 0.  1.
    5000001    1    1    2    0    0 -0.46752321552E+02 -0.60917261090E+02 -0.44613988458E+03  0.48183242822E+03  0.16500000000E+03 0.  0.
   -5000001    1    1    2    0    0  0.46752321552E+02  0.60917261090E+02 -0.16845589477E+03  0.24799008196E+03  0.16500000000E+03 0.  0.
<mgrwt>
<rscale>  0 0.39358979E+03</rscale>
<asrwt>0</asrwt>
<pdfrwt beam="1">  1        2 0.96029873E-01 0.39358979E+03</pdfrwt>
<pdfrwt beam="2">  1       -2 0.82304812E-02 0.39358979E+03</pdfrwt>
<totfact> 0.43837024E+03</totfact>
</mgrwt>
</event>
<event>
 4    1  0.1049403E-004  0.1194704E+04  0.7818608E-02  0.9117505E-01
          2   -1    0    0  501    0  0.00000000000E+00  0.00000000000E+00  0.87867835797E+03  0.87867835797E+03  0.25500000000E-02 0.  1.
         -2   -1    0    0    0  501 -0.00000000000E+00 -0.00000000000E+00 -0.40609794116E+03  0.40609794117E+03  0.25500000000E-02 0. -1.
    5000001    1    1    2    0    0  0.52648932938E+03  0.22066912535E+03  0.17071244224E+03  0.61826662111E+03  0.16500000000E+03 0.  0.
   -5000001    1    1    2    0    0 -0.52648932938E+03 -0.22066912535E+03  0.30186797457E+03  0.66650967803E+03  0.16500000000E+03 0.  0.
<mgrwt>
<rscale>  0 0.11947041E+04</rscale>
<asrwt>0</asrwt>
<pdfrwt beam="1">  1        2 0.12552548E+00 0.11947041E+04</pdfrwt>
<pdfrwt beam="2">  1       -2 0.58013991E-01 0.11947041E+04</pdfrwt>
<totfact> 0.92244947E+01</totfact>
</mgrwt>
</event>
<event>
 4    1  0.1049403E-004  0.5211273E+03  0.7818608E-02  0.1008407E+00
          2   -1    0    0  501    0  0.00000000000E+00  0.00000000000E+00  0.26214564332E+04  0.26214564332E+04  0.25500000000E-02 0.  1.
         -2   -1    0    0    0  501 -0.00000000000E+00 -0.00000000000E+00 -0.25899122285E+02  0.25899122411E+02  0.25500000000E-02 0. -1.
    5000001    1    1    2    0    0  0.17477426739E+03 -0.55632734348E+01  0.78745616405E+03  0.82334027282E+03  0.16500000000E+03 0.  0.
   -5000001    1    1    2    0    0 -0.17477426739E+03  0.55632734348E+01  0.18081011469E+04  0.18240152828E+04  0.16500000000E+03 0.  0.
<mgrwt>
<rscale>  0 0.52112732E+03</rscale>
<asrwt>0</asrwt>
<pdfrwt beam="1">  1        2 0.37449347E+00 0.52112732E+03</pdfrwt>
<pdfrwt beam="2">  1       -2 0.36998776E-02 0.52112732E+03</pdfrwt>
<totfact> 0.13146471E+03</totfact>
</mgrwt>
</event>
<event>
 4    1  0.1049403E-004  0.4910518E+03  0.7818608E-02  0.1016141E+00
         -2   -1    0    0    0  501 -0.00000000000E+00  0.00000000000E+00  0.10209866246E+03  0.10209866249E+03  0.25500000000E-02 0. -1.
          2   -1    0    0  501    0  0.00000000000E+00 -0.00000000000E+00 -0.59043828464E+03  0.59043828464E+03  0.25500000000E-02 0.  1.
    5000001    1    1    2    0    0  0.17542367146E+03  0.47239681174E+02 -0.23391157064E+03  0.33903491688E+03  0.16500000000E+03 0.  0.
   -5000001    1    1    2    0    0 -0.17542367146E+03 -0.47239681174E+02 -0.25442805154E+03  0.35350203025E+03  0.16500000000E+03 0.  0.
<mgrwt>
<rscale>  0 0.49105177E+03</rscale>
<asrwt>0</asrwt>
<pdfrwt beam="1">  1        2 0.84348325E-01 0.49105177E+03</pdfrwt>
<pdfrwt beam="2">  1       -2 0.14585524E-01 0.49105177E+03</pdfrwt>
<totfact> 0.20229477E+03</totfact>
</mgrwt>
</event>
<event>
 4    1  0.1049403E-004  0.5705571E+03  0.7818608E-02  0.9968447E-01
          2   -1    0    0  501    0  0.00000000000E+00  0.00000000000E+00  0.98238170856E+03  0.98238170856E+03  0.25500000000E-02 0.  1.
         -2   -1    0    0    0  501 -0.00000000000E+00 -0.00000000000E+00 -0.82843414364E+02  0.82843414403E+02  0.25500000000E-02 0. -1.
    5000001    1    1    2    0    0 -0.10626437894E+03 -0.19892498968E+03  0.34259043131E+03  0.44210459552E+03  0.16500000000E+03 0.  0.
   -5000001    1    1    2    0    0  0.10626437894E+03  0.19892498968E+03  0.55694786288E+03  0.62312052745E+03  0.16500000000E+03 0.  0.
<mgrwt>
<rscale>  0 0.57055711E+03</rscale>
<asrwt>0</asrwt>
<pdfrwt beam="1">  1        2 0.14034024E+00 0.57055711E+03</pdfrwt>
<pdfrwt beam="2">  1       -2 0.11834774E-01 0.57055711E+03</pdfrwt>
<totfact> 0.15058398E+03</totfact>
</mgrwt>
</event>
<event>
 4    1  0.1049403E-004  0.5878458E+03  0.7818608E-02  0.9930948E-01
          2   -1    0    0  501    0  0.00000000000E+00  0.00000000000E+00  0.14072302820E+04  0.14072302820E+04  0.25500000000E-02 0.  1.
         -2   -1    0    0    0  501 -0.00000000000E+00 -0.00000000000E+00 -0.61390570403E+02  0.61390570456E+02  0.25500000000E-02 0. -1.
    5000001    1    1    2    0    0 -0.22806260728E+03  0.52200708301E+02  0.50667047635E+03  0.58195999724E+03  0.16500000000E+03 0.  0.
   -5000001    1    1    2    0    0  0.22806260728E+03 -0.52200708301E+02  0.83916923525E+03  0.88666085522E+03  0.16500000000E+03 0.  0.
<mgrwt>
<rscale>  0 0.58784580E+03</rscale>
<asrwt>0</asrwt>
<pdfrwt beam="1">  1        2 0.20103289E+00 0.58784580E+03</pdfrwt>
<pdfrwt beam="2">  1       -2 0.87700818E-02 0.58784580E+03</pdfrwt>
<totfact> 0.14092668E+03</totfact>
</mgrwt>
</event>
<event>
 4    1  0.1049403E-004  0.4458918E+03  0.7818608E-02  0.1028954E+00
         -2   -1    0    0    0  501 -0.00000000000E+00  0.00000000000E+00  0.30189822423E+02  0.30189822531E+02  0.25500000000E-02 0. -1.
          2   -1    0    0  501    0  0.00000000000E+00 -0.00000000000E+00 -0.16464119665E+04  0.16464119665E+04  0.25500000000E-02 0.  1.
    5000001    1    1    2    0    0  0.44962381667E+02  0.13121191398E+03 -0.59402569951E+03  0.63192540209E+03  0.16500000000E+03 0.  0.
   -5000001    1    1    2    0    0 -0.44962381667E+02 -0.13121191398E+03 -0.10221964446E+04  0.10446763870E+04  0.16500000000E+03 0.  0.
<mgrwt>
<rscale>  0 0.44589185E+03</rscale>
<asrwt>0</asrwt>
<pdfrwt beam="1">  1        2 0.23520165E+00 0.44589185E+03</pdfrwt>
<pdfrwt beam="2">  1       -2 0.43128328E-02 0.44589185E+03</pdfrwt>
<totfact> 0.32282144E+03</totfact>
</mgrwt>
</event>
<event>
 4    1  0.1049403E-004  0.1648146E+04  0.7818608E-02  0.8791504E-01
         -2   -1    0    0    0  501 -0.00000000000E+00  0.00000000000E+00  0.13099827299E+04  0.13099827299E+04  0.25500000000E-02 0. -1.
          2   -1    0    0  501    0  0.00000000000E+00 -0.00000000000E+00 -0.51840104683E+03  0.51840104683E+03  0.25500000000E-02 0.  1.
    5000001    1    1    2    0    0  0.33432360057E+03 -0.67397772942E+03  0.70741112499E+02  0.77346464343E+03  0.16500000000E+03 0.  0.
   -5000001    1    1    2    0    0 -0.33432360057E+03  0.67397772942E+03  0.72084057061E+03  0.10549191333E+04  0.16500000000E+03 0.  0.
<mgrwt>
<rscale>  0 0.16481461E+04</rscale>
<asrwt>0</asrwt>
<pdfrwt beam="1">  1        2 0.74057293E-01 0.16481461E+04</pdfrwt>
<pdfrwt beam="2">  1       -2 0.18714039E+00 0.16481461E+04</pdfrwt>
<totfact> 0.99849002E+00</totfact>
</mgrwt>
</event>
<event>
 4    1  0.1049403E-004  0.4934425E+03  0.7818608E-02  0.1015505E+00
          2   -1    0    0  501    0  0.00000000000E+00  0.00000000000E+00  0.91862046873E+03  0.91862046873E+03  0.25500000000E-02 0.  1.
         -2   -1    0    0    0  501 -0.00000000000E+00 -0.00000000000E+00 -0.66263902079E+02  0.66263902128E+02  0.25500000000E-02 0. -1.
    5000001    1    1    2    0    0  0.17449624217E+03  0.18862084010E+01  0.53897800267E+03  0.59006337259E+03  0.16500000000E+03 0.  0.
   -5000001    1    1    2    0    0 -0.17449624217E+03 -0.18862084010E+01  0.31337856398E+03  0.39482099827E+03  0.16500000000E+03 0.  0.
<mgrwt>
<rscale>  0 0.49344251E+03</rscale>
<asrwt>0</asrwt>
<pdfrwt beam="1">  1        2 0.13123148E+00 0.49344251E+03</pdfrwt>
<pdfrwt beam="2">  1       -2 0.94662726E-02 0.49344251E+03</pdfrwt>
<totfact> 0.23729657E+03</totfact>
</mgrwt>
</event>
<event>
 4    1  0.1049403E-004  0.5003840E+03  0.7818608E-02  0.1013679E+00
         -2   -1    0    0    0  501 -0.00000000000E+00  0.00000000000E+00  0.30021821121E+02  0.30021821229E+02  0.25500000000E-02 0. -1.
          2   -1    0    0  501    0  0.00000000000E+00 -0.00000000000E+00 -0.20850178272E+04  0.20850178272E+04  0.25500000000E-02 0.  1.
    5000001    1    1    2    0    0 -0.86320667748E+02 -0.16310955141E+03 -0.11807782065E+04  0.12064485718E+04  0.16500000000E+03 0.  0.
   -5000001    1    1    2    0    0  0.86320667748E+02  0.16310955141E+03 -0.87421779965E+03  0.90859107671E+03  0.16500000000E+03 0.  0.
<mgrwt>
<rscale>  0 0.50038398E+03</rscale>
<asrwt>0</asrwt>
<pdfrwt beam="1">  1        2 0.29785960E+00 0.50038398E+03</pdfrwt>
<pdfrwt beam="2">  1       -2 0.42888329E-02 0.50038398E+03</pdfrwt>
<totfact> 0.19613236E+03</totfact>
</mgrwt>
</event>
<event>
 4    1  0.1049403E-004  0.6717971E+03  0.7818608E-02  0.9766717E-01
         -2   -1    0    0    0  501 -0.00000000000E+00  0.00000000000E+00  0.97281182601E+02  0.97281182635E+02  0.25500000000E-02 0. -1.
          2   -1    0    0  501    0  0.00000000000E+00 -0.00000000000E+00 -0.11598115139E+04  0.11598115139E+04  0.25500000000E-02 0.  1.
    5000001    1    1    2    0    0 -0.14517943364E+03  0.23897790732E+03 -0.69240182234E+03  0.76474361176E+03  0.16500000000E+03 0.  0.
   -5000001    1    1    2    0    0  0.14517943364E+03 -0.23897790732E+03 -0.37012850893E+03  0.49234908476E+03  0.16500000000E+03 0.  0.
<mgrwt>
<rscale>  0 0.67179710E+03</rscale>
<asrwt>0</asrwt>
<pdfrwt beam="1">  1        2 0.16568735E+00 0.67179710E+03</pdfrwt>
<pdfrwt beam="2">  1       -2 0.13897312E-01 0.67179710E+03</pdfrwt>
<totfact> 0.90407574E+02</totfact>
</mgrwt>
</event>
<event>
 4    1  0.1049403E-004  0.3584827E+03  0.7818608E-02  0.1059186E+00
          2   -1    0    0  501    0  0.00000000000E+00  0.00000000000E+00  0.38906976804E+02  0.38906976888E+02  0.25500000000E-02 0.  1.
         -2   -1    0    0    0  501 -0.00000000000E+00 -0.00000000000E+00 -0.82575082889E+03  0.82575082890E+03  0.25500000000E-02 0. -1.
    5000001    1    1    2    0    0  0.14725694097E+02 -0.57694732008E+02 -0.30457214227E+03  0.35147506030E+03  0.16500000000E+03 0.  0.
   -5000001    1    1    2    0    0 -0.14725694097E+02  0.57694732008E+02 -0.48227170982E+03  0.51318274548E+03  0.16500000000E+03 0.  0.
<mgrwt>
<rscale>  0 0.35848274E+03</rscale>
<asrwt>0</asrwt>
<pdfrwt beam="1">  1        2 0.55581400E-02 0.35848274E+03</pdfrwt>
<pdfrwt beam="2">  1       -2 0.11796439E+00 0.35848274E+03</pdfrwt>
<totfact> 0.79613798E+02</totfact>
</mgrwt>
</event>
<event>
 4    1  0.1049403E-004  0.5882145E+03  0.7818608E-02  0.9930163E-01
         -2   -1    0    0    0  501 -0.00000000000E+00  0.00000000000E+00  0.29241638881E+02  0.29241638992E+02  0.25500000000E-02 0. -1.
          2   -1    0    0  501    0  0.00000000000E+00 -0.00000000000E+00 -0.29580785793E+04  0.29580785793E+04  0.25500000000E-02 0.  1.
    5000001    1    1    2    0    0 -0.22484382342E+03  0.93286703644E+02 -0.14853037562E+04  0.15141365203E+04  0.16500000000E+03 0.  0.
   -5000001    1    1    2    0    0  0.22484382342E+03 -0.93286703644E+02 -0.14435331842E+04  0.14731836980E+04  0.16500000000E+03 0.  0.
<mgrwt>
<rscale>  0 0.58821447E+03</rscale>
<asrwt>0</asrwt>
<pdfrwt beam="1">  1        2 0.42258246E+00 0.58821447E+03</pdfrwt>
<pdfrwt beam="2">  1       -2 0.41773789E-02 0.58821447E+03</pdfrwt>
<totfact> 0.72091470E+02</totfact>
</mgrwt>
</event>
<event>
 4    1  0.1049403E-004  0.4330181E+03  0.7818608E-02  0.1032911E+00
         -2   -1    0    0    0  501 -0.00000000000E+00  0.00000000000E+00  0.98585925089E+02  0.98585925122E+02  0.25500000000E-02 0. -1.
          2   -1    0    0  501    0  0.00000000000E+00 -0.00000000000E+00 -0.47548549651E+03  0.47548549651E+03  0.25500000000E-02 0.  1.
    5000001    1    1    2    0    0 -0.52775486173E+01 -0.12648926490E+03 -0.10864270935E+03  0.23463935081E+03  0.16500000000E+03 0.  0.
   -5000001    1    1    2    0    0  0.52775486173E+01  0.12648926490E+03 -0.26825686207E+03  0.33943207082E+03  0.16500000000E+03 0.  0.
<mgrwt>
<rscale>  0 0.43301814E+03</rscale>
<asrwt>0</asrwt>
<pdfrwt beam="1">  1        2 0.67926498E-01 0.43301814E+03</pdfrwt>
<pdfrwt beam="2">  1       -2 0.14083704E-01 0.43301814E+03</pdfrwt>
<totfact> 0.27412399E+03</totfact>
</mgrwt>
</event>
<event>
 4    1  0.1049403E-004  0.4210802E+03  0.7818608E-02  0.1036715E+00
         -2   -1    0    0    0  501 -0.00000000000E+00  0.00000000000E+00  0.35112631676E+02  0.35112631769E+02  0.25500000000E-02 0. -1.
          2   -1    0    0  501    0  0.00000000000E+00 -0.00000000000E+00 -0.12624270483E+04  0.12624270483E+04  0.25500000000E-02 0.  1.
    5000001    1    1    2    0    0  0.23680088007E+02  0.11986539681E+03 -0.75732295410E+03  0.78466012816E+03  0.16500000000E+03 0.  0.
   -5000001    1    1    2    0    0 -0.23680088007E+02 -0.11986539681E+03 -0.46999146251E+03  0.51287955189E+03  0.16500000000E+03 0.  0.
<mgrwt>
<rscale>  0 0.42108021E+03</rscale>
<asrwt>0</asrwt>
<pdfrwt beam="1">  1        2 0.18034669E+00 0.42108021E+03</pdfrwt>
<pdfrwt beam="2">  1       -2 0.50160910E-02 0.42108021E+03</pdfrwt>
<totfact> 0.40569690E+03</totfact>
</mgrwt>
</event>
<event>
 4    1  0.1049403E-004  0.5223020E+03  0.7818608E-02  0.1008116E+00
          2   -1    0    0  501    0  0.00000000000E+00  0.00000000000E+00  0.16590519799E+04  0.16590519799E+04  0.25500000000E-02 0.  1.
         -2   -1    0    0    0  501 -0.00000000000E+00 -0.00000000000E+00 -0.41107716463E+02  0.41107716542E+02  0.25500000000E-02 0. -1.
    5000001    1    1    2    0    0  0.19501357136E+03  0.24067164913E+02  0.96728372732E+03  0.10007358945E+04  0.16500000000E+03 0.  0.
   -5000001    1    1    2    0    0 -0.19501357136E+03 -0.24067164913E+02  0.65066053614E+03  0.69942380195E+03  0.16500000000E+03 0.  0.
<mgrwt>
<rscale>  0 0.52230198E+03</rscale>
<asrwt>0</asrwt>
<pdfrwt beam="1">  1        2 0.23700732E+00 0.52230198E+03</pdfrwt>
<pdfrwt beam="2">  1       -2 0.58725335E-02 0.52230198E+03</pdfrwt>
<totfact> 0.19714482E+03</totfact>
</mgrwt>
</event>
<event>
 4    1  0.1049403E-004  0.5009268E+03  0.7818608E-02  0.1013537E+00
         -2   -1    0    0    0  501 -0.00000000000E+00  0.00000000000E+00  0.49644143504E+02  0.49644143570E+02  0.25500000000E-02 0. -1.
          2   -1    0    0  501    0  0.00000000000E+00 -0.00000000000E+00 -0.12636316442E+04  0.12636316442E+04  0.25500000000E-02 0.  1.
    5000001    1    1    2    0    0  0.96291408080E+02 -0.31034615648E+02 -0.10237663453E+04  0.10419010089E+04  0.16500000000E+03 0.  0.
   -5000001    1    1    2    0    0 -0.96291408080E+02  0.31034615648E+02 -0.19022115543E+03  0.27137477888E+03  0.16500000000E+03 0.  0.
<mgrwt>
<rscale>  0 0.50092678E+03</rscale>
<asrwt>0</asrwt>
<pdfrwt beam="1">  1        2 0.18051879E+00 0.50092678E+03</pdfrwt>
<pdfrwt beam="2">  1       -2 0.70920213E-02 0.50092678E+03</pdfrwt>
<totfact> 0.23633373E+03</totfact>
</mgrwt>
</event>
<event>
 4    1  0.1049403E-004  0.4393812E+03  0.7818608E-02  0.1030937E+00
          2   -1    0    0  501    0  0.00000000000E+00  0.00000000000E+00  0.67992422956E+03  0.67992422957E+03  0.25500000000E-02 0.  1.
         -2   -1    0    0    0  501 -0.00000000000E+00 -0.00000000000E+00 -0.70984307137E+02  0.70984307183E+02  0.25500000000E-02 0. -1.
    5000001    1    1    2    0    0  0.11279792964E+03 -0.64341896867E+02  0.19403409542E+03  0.28589767892E+03  0.16500000000E+03 0.  0.
   -5000001    1    1    2    0    0 -0.11279792964E+03  0.64341896867E+02  0.41490582700E+03  0.46501085783E+03  0.16500000000E+03 0.  0.
<mgrwt>
<rscale>  0 0.43938116E+03</rscale>
<asrwt>0</asrwt>
<pdfrwt beam="1">  1        2 0.97132034E-01 0.43938116E+03</pdfrwt>
<pdfrwt beam="2">  1       -2 0.10140615E-01 0.43938116E+03</pdfrwt>
<totfact> 0.31045351E+03</totfact>
</mgrwt>
</event>
<event>
 4    1  0.1049403E-004  0.3944112E+03  0.7818608E-02  0.1045732E+00
         -2   -1    0    0    0  501 -0.00000000000E+00  0.00000000000E+00  0.44827793159E+02  0.44827793232E+02  0.25500000000E-02 0. -1.
          2   -1    0    0  501    0  0.00000000000E+00 -0.00000000000E+00 -0.86754313880E+03  0.86754313880E+03  0.25500000000E-02 0.  1.
    5000001    1    1    2    0    0  0.79730995852E+02 -0.46534342895E+02 -0.28168019868E+03  0.33925095592E+03  0.16500000000E+03 0.  0.
   -5000001    1    1    2    0    0 -0.79730995852E+02  0.46534342895E+02 -0.54103514696E+03  0.57311997611E+03  0.16500000000E+03 0.  0.
<mgrwt>
<rscale>  0 0.39441118E+03</rscale>
<asrwt>0</asrwt>
<pdfrwt beam="1">  1        2 0.12393472E+00 0.39441118E+03</pdfrwt>
<pdfrwt beam="2">  1       -2 0.64039710E-02 0.39441118E+03</pdfrwt>
<totfact> 0.47356176E+03</totfact>
</mgrwt>
</event>
<event>
 4    1  0.1049403E-004  0.5160515E+03  0.7818608E-02  0.1009672E+00
          2   -1    0    0  501    0  0.00000000000E+00  0.00000000000E+00  0.45982498626E+03  0.45982498627E+03  0.25500000000E-02 0.  1.
         -2   -1    0    0    0  501 -0.00000000000E+00 -0.00000000000E+00 -0.14478833692E+03  0.14478833694E+03  0.25500000000E-02 0. -1.
    5000001    1    1    2    0    0  0.14137463512E+03  0.12000738141E+03  0.74973664936E+02  0.25929637383E+03  0.16500000000E+03 0.  0.
   -5000001    1    1    2    0    0 -0.14137463512E+03 -0.12000738141E+03  0.24006298441E+03  0.34531694938E+03  0.16500000000E+03 0.  0.
<mgrwt>
<rscale>  0 0.51605153E+03</rscale>
<asrwt>0</asrwt>
<pdfrwt beam="1">  1        2 0.65689284E-01 0.51605153E+03</pdfrwt>
<pdfrwt beam="2">  1       -2 0.20684048E-01 0.51605153E+03</pdfrwt>
<totfact> 0.14827480E+03</totfact>
</mgrwt>
</event>
<event>
 4    1  0.1049403E-004  0.6067859E+03  0.7818608E-02  0.9891427E-01
         -2   -1    0    0    0  501 -0.00000000000E+00  0.00000000000E+00  0.12417244857E+03  0.12417244860E+03  0.25500000000E-02 0. -1.
          2   -1    0    0  501    0  0.00000000000E+00 -0.00000000000E+00 -0.74128598137E+03  0.74128598137E+03  0.25500000000E-02 0.  1.
    5000001    1    1    2    0    0 -0.21804496040E+03 -0.73833971784E+02 -0.15344229451E+03  0.32212512769E+03  0.16500000000E+03 0.  0.
   -5000001    1    1    2    0    0  0.21804496040E+03  0.73833971784E+02 -0.46367123829E+03  0.54333330228E+03  0.16500000000E+03 0.  0.
<mgrwt>
<rscale>  0 0.60678594E+03</rscale>
<asrwt>0</asrwt>
<pdfrwt beam="1">  1        2 0.10589799E+00 0.60678594E+03</pdfrwt>
<pdfrwt beam="2">  1       -2 0.17738922E-01 0.60678594E+03</pdfrwt>
<totfact> 0.11042278E+03</totfact>
</mgrwt>
</event>
<event>
 4    1  0.1049403E-004  0.3851622E+03  0.7818608E-02  0.1049042E+00
         -2   -1    0    0    0  501 -0.00000000000E+00  0.00000000000E+00  0.28149115830E+02  0.28149115946E+02  0.25500000000E-02 0. -1.
          2   -1    0    0  501    0  0.00000000000E+00 -0.00000000000E+00 -0.13175359214E+04  0.13175359214E+04  0.25500000000E-02 0.  1.
    5000001    1    1    2    0    0 -0.21566561032E+01  0.90463556837E+02 -0.78764827219E+03  0.80981671196E+03  0.16500000000E+03 0.  0.
   -5000001    1    1    2    0    0  0.21566561032E+01 -0.90463556837E+02 -0.50173853340E+03  0.53586832541E+03  0.16500000000E+03 0.  0.
<mgrwt>
<rscale>  0 0.38516215E+03</rscale>
<asrwt>0</asrwt>
<pdfrwt beam="1">  1        2 0.18821938E+00 0.38516215E+03</pdfrwt>
<pdfrwt beam="2">  1       -2 0.40213031E-02 0.38516215E+03</pdfrwt>
<totfact> 0.53095428E+03</totfact>
</mgrwt>
</event>
<event>
 4    1  0.1049403E-004  0.3920553E+03  0.7818608E-02  0.1046566E+00
         -2   -1    0    0    0  501 -0.00000000000E+00  0.00000000000E+00  0.73871370487E+03  0.73871370487E+03  0.25500000000E-02 0. -1.
          2   -1    0    0  501    0  0.00000000000E+00 -0.00000000000E+00 -0.52018590293E+02  0.52018590356E+02  0.25500000000E-02 0.  1.
    5000001    1    1    2    0    0  0.10075837938E+03  0.30932423631E+02  0.32392042562E+03  0.37849505675E+03  0.16500000000E+03 0.  0.
   -5000001    1    1    2    0    0 -0.10075837938E+03 -0.30932423631E+02  0.36277468895E+03  0.41223723848E+03  0.16500000000E+03 0.  0.
<mgrwt>
<rscale>  0 0.39205533E+03</rscale>
<asrwt>0</asrwt>
<pdfrwt beam="1">  1        2 0.74312275E-02 0.39205533E+03</pdfrwt>
<pdfrwt beam="2">  1       -2 0.10553052E+00 0.39205533E+03</pdfrwt>
<totfact> 0.71147351E+02</totfact>
</mgrwt>
</event>
<event>
 4    1  0.1049403E-004  0.4236493E+03  0.7818608E-02  0.1035885E+00
         -2   -1    0    0    0  501 -0.00000000000E+00  0.00000000000E+00  0.10878455727E+03  0.10878455730E+03  0.25500000000E-02 0. -1.
          2   -1    0    0  501    0  0.00000000000E+00 -0.00000000000E+00 -0.41246366168E+03  0.41246366168E+03  0.25500000000E-02 0.  1.
    5000001    1    1    2    0    0 -0.10077019435E+03  0.45734773355E+02 -0.24223980675E+03  0.31329127906E+03  0.16500000000E+03 0.  0.
   -5000001    1    1    2    0    0  0.10077019435E+03 -0.45734773355E+02 -0.61439297656E+02  0.20795693991E+03  0.16500000000E+03 0.  0.
<mgrwt>
<rscale>  0 0.42364927E+03</rscale>
<asrwt>0</asrwt>
<pdfrwt beam="1">  1        2 0.58923379E-01 0.42364927E+03</pdfrwt>
<pdfrwt beam="2">  1       -2 0.15540651E-01 0.42364927E+03</pdfrwt>
<totfact> 0.27224803E+03</totfact>
</mgrwt>
</event>
<event>
 4    1  0.1049403E-004  0.6170635E+03  0.7818608E-02  0.9870624E-01
          2   -1    0    0  501    0  0.00000000000E+00  0.00000000000E+00  0.10306602621E+04  0.10306602621E+04  0.25500000000E-02 0.  1.
         -2   -1    0    0    0  501 -0.00000000000E+00 -0.00000000000E+00 -0.92360055981E+02  0.92360056017E+02  0.25500000000E-02 0. -1.
    5000001    1    1    2    0    0  0.13977328452E+03 -0.21844169902E+03  0.42053709535E+03  0.52089326690E+03  0.16500000000E+03 0.  0.
   -5000001    1    1    2    0    0 -0.13977328452E+03  0.21844169902E+03  0.51776311076E+03  0.60212705121E+03  0.16500000000E+03 0.  0.
<mgrwt>
<rscale>  0 0.61706350E+03</rscale>
<asrwt>0</asrwt>
<pdfrwt beam="1">  1        2 0.14723718E+00 0.61706350E+03</pdfrwt>
<pdfrwt beam="2">  1       -2 0.13194294E-01 0.61706350E+03</pdfrwt>
<totfact> 0.11750012E+03</totfact>
</mgrwt>
</event>
<event>
 4    1  0.1049403E-004  0.6367090E+03  0.7818608E-02  0.9832043E-01
         -2   -1    0    0    0  501 -0.00000000000E+00  0.00000000000E+00  0.31986847138E+02  0.31986847240E+02  0.25500000000E-02 0. -1.
          2   -1    0    0  501    0  0.00000000000E+00 -0.00000000000E+00 -0.31684766832E+04  0.31684766832E+04  0.25500000000E-02 0.  1.
    5000001    1    1    2    0    0 -0.11543643357E+03 -0.24545033781E+03 -0.16864646096E+04  0.17160883771E+04  0.16500000000E+03 0.  0.
   -5000001    1    1    2    0    0  0.11543643357E+03  0.24545033781E+03 -0.14500252265E+04  0.14843751534E+04  0.16500000000E+03 0.  0.
<mgrwt>
<rscale>  0 0.63670897E+03</rscale>
<asrwt>0</asrwt>
<pdfrwt beam="1">  1        2 0.45263933E+00 0.63670897E+03</pdfrwt>
<pdfrwt beam="2">  1       -2 0.45695516E-02 0.63670897E+03</pdfrwt>
<totfact> 0.47869106E+02</totfact>
</mgrwt>
</event>
<event>
 4    1  0.1049403E-004  0.6547703E+03  0.7818608E-02  0.9797869E-01
          2   -1    0    0  501    0  0.00000000000E+00  0.00000000000E+00  0.71495654452E+03  0.71495654452E+03  0.25500000000E-02 0.  1.
         -2   -1    0    0    0  501 -0.00000000000E+00 -0.00000000000E+00 -0.14991264358E+03  0.14991264360E+03  0.25500000000E-02 0. -1.
    5000001    1    1    2    0    0  0.20303438326E+03  0.19581974017E+03  0.30852990142E+03  0.44942633601E+03  0.16500000000E+03 0.  0.
   -5000001    1    1    2    0    0 -0.20303438326E+03 -0.19581974017E+03  0.25651399952E+03  0.41544285211E+03  0.16500000000E+03 0.  0.
<mgrwt>
<rscale>  0 0.65477027E+03</rscale>
<asrwt>0</asrwt>
<pdfrwt beam="1">  1        2 0.10213665E+00 0.65477027E+03</pdfrwt>
<pdfrwt beam="2">  1       -2 0.21416092E-01 0.65477027E+03</pdfrwt>
<totfact> 0.83170183E+02</totfact>
</mgrwt>
</event>
<event>
 4    1  0.1049403E-004  0.3906743E+03  0.7818608E-02  0.1047058E+00
          2   -1    0    0  501    0  0.00000000000E+00  0.00000000000E+00  0.13242145878E+04  0.13242145878E+04  0.25500000000E-02 0.  1.
         -2   -1    0    0    0  501 -0.00000000000E+00 -0.00000000000E+00 -0.28814519820E+02  0.28814519933E+02  0.25500000000E-02 0. -1.
    5000001    1    1    2    0    0 -0.22233362317E+02 -0.56601725452E+02  0.94225571621E+03  0.95852434108E+03  0.16500000000E+03 0.  0.
   -5000001    1    1    2    0    0  0.22233362317E+02  0.56601725452E+02  0.35314435180E+03  0.39450476668E+03  0.16500000000E+03 0.  0.
<mgrwt>
<rscale>  0 0.39067433E+03</rscale>
<asrwt>0</asrwt>
<pdfrwt beam="1">  1        2 0.18917355E+00 0.39067433E+03</pdfrwt>
<pdfrwt beam="2">  1       -2 0.41163591E-02 0.39067433E+03</pdfrwt>
<totfact> 0.50832267E+03</totfact>
</mgrwt>
</event>
<event>
 4    1  0.1049403E-004  0.5232744E+03  0.7818608E-02  0.1007876E+00
          2   -1    0    0  501    0  0.00000000000E+00  0.00000000000E+00  0.15127763890E+04  0.15127763890E+04  0.25500000000E-02 0.  1.
         -2   -1    0    0    0  501 -0.00000000000E+00 -0.00000000000E+00 -0.45250589206E+02  0.45250589278E+02  0.25500000000E-02 0. -1.
    5000001    1    1    2    0    0  0.83221245592E+02  0.17345076102E+03  0.92713906169E+03  0.96115700171E+03  0.16500000000E+03 0.  0.
   -5000001    1    1    2    0    0 -0.83221245592E+02 -0.17345076102E+03  0.54038673809E+03  0.59686997657E+03  0.16500000000E+03 0.  0.
<mgrwt>
<rscale>  0 0.52327439E+03</rscale>
<asrwt>0</asrwt>
<pdfrwt beam="1">  1        2 0.21611090E+00 0.52327439E+03</pdfrwt>
<pdfrwt beam="2">  1       -2 0.64643702E-02 0.52327439E+03</pdfrwt>
<totfact> 0.20161722E+03</totfact>
</mgrwt>
</event>
<event>
 4    1  0.1049403E-004  0.6145358E+03  0.7818608E-02  0.9875700E-01
         -2   -1    0    0    0  501 -0.00000000000E+00  0.00000000000E+00  0.71634005331E+02  0.71634005377E+02  0.25500000000E-02 0. -1.
          2   -1    0    0  501    0  0.00000000000E+00 -0.00000000000E+00 -0.13179990229E+04  0.13179990229E+04  0.25500000000E-02 0.  1.
    5000001    1    1    2    0    0 -0.27746431264E+02  0.12958998530E+03 -0.11944561853E+03  0.24301375377E+03  0.16500000000E+03 0.  0.
   -5000001    1    1    2    0    0  0.27746431264E+02 -0.12958998530E+03 -0.11269193990E+04  0.11466192745E+04  0.16500000000E+03 0.  0.
<mgrwt>
<rscale>  0 0.61453576E+03</rscale>
<asrwt>0</asrwt>
<pdfrwt beam="1">  1        2 0.18828556E+00 0.61453576E+03</pdfrwt>
<pdfrwt beam="2">  1       -2 0.10233430E-01 0.61453576E+03</pdfrwt>
<totfact> 0.12253012E+03</totfact>
</mgrwt>
</event>
<event>
 4    1  0.1049403E-004  0.7638110E+03  0.7818608E-02  0.9613929E-01
          2   -1    0    0  501    0  0.00000000000E+00  0.00000000000E+00  0.88359685788E+03  0.88359685788E+03  0.25500000000E-02 0.  1.
         -2   -1    0    0    0  501 -0.00000000000E+00 -0.00000000000E+00 -0.16506603064E+03  0.16506603066E+03  0.25500000000E-02 0. -1.
    5000001    1    1    2    0    0 -0.32155285837E+03 -0.36953779756E+02  0.52092816246E+03  0.63510075816E+03  0.16500000000E+03 0.  0.
   -5000001    1    1    2    0    0  0.32155285837E+03  0.36953779756E+02  0.19760266477E+03  0.41356213039E+03  0.16500000000E+03 0.  0.
<mgrwt>
<rscale>  0 0.76381104E+03</rscale>
<asrwt>0</asrwt>
<pdfrwt beam="1">  1        2 0.12622812E+00 0.76381104E+03</pdfrwt>
<pdfrwt beam="2">  1       -2 0.23580862E-01 0.76381104E+03</pdfrwt>
<totfact> 0.53255534E+02</totfact>
</mgrwt>
</event>
<event>
 4    1  0.1049403E-004  0.6403781E+03  0.7818608E-02  0.9825003E-01
         -2   -1    0    0    0  501 -0.00000000000E+00  0.00000000000E+00  0.15364761707E+04  0.15364761707E+04  0.25500000000E-02 0. -1.
          2   -1    0    0  501    0  0.00000000000E+00 -0.00000000000E+00 -0.66724778768E+02  0.66724778817E+02  0.25500000000E-02 0.  1.
    5000001    1    1    2    0    0 -0.26416641607E+02  0.27233029587E+03  0.78705498913E+03  0.84943639251E+03  0.16500000000E+03 0.  0.
   -5000001    1    1    2    0    0  0.26416641607E+02 -0.27233029587E+03  0.68269640281E+03  0.75376455702E+03  0.16500000000E+03 0.  0.
<mgrwt>
<rscale>  0 0.64037812E+03</rscale>
<asrwt>0</asrwt>
<pdfrwt beam="1">  1        2 0.95321110E-02 0.64037812E+03</pdfrwt>
<pdfrwt beam="2">  1       -2 0.21949660E+00 0.64037812E+03</pdfrwt>
<totfact> 0.72341873E+01</totfact>
</mgrwt>
</event>
<event>
 4    1  0.1049403E-004  0.4111068E+03  0.7818608E-02  0.1040000E+00
          2   -1    0    0  501    0  0.00000000000E+00  0.00000000000E+00  0.39759125669E+03  0.39759125670E+03  0.25500000000E-02 0.  1.
         -2   -1    0    0    0  501 -0.00000000000E+00 -0.00000000000E+00 -0.10627043451E+03  0.10627043454E+03  0.25500000000E-02 0. -1.
    5000001    1    1    2    0    0  0.10481808092E+03 -0.39520579090E+02  0.84643497975E+02  0.21665232057E+03  0.16500000000E+03 0.  0.
   -5000001    1    1    2    0    0 -0.10481808092E+03  0.39520579090E+02  0.20667732420E+03  0.28720937067E+03  0.16500000000E+03 0.  0.
<mgrwt>
<rscale>  0 0.41110678E+03</rscale>
<asrwt>0</asrwt>
<pdfrwt beam="1">  1        2 0.56798751E-01 0.41110678E+03</pdfrwt>
<pdfrwt beam="2">  1       -2 0.15181491E-01 0.41110678E+03</pdfrwt>
<totfact> 0.29464973E+03</totfact>
</mgrwt>
</event>
<event>
 4    1  0.1049403E-004  0.5300327E+03  0.7818608E-02  0.1006224E+00
         -2   -1    0    0    0  501 -0.00000000000E+00  0.00000000000E+00  0.88416561105E+02  0.88416561141E+02  0.25500000000E-02 0. -1.
          2   -1    0    0  501    0  0.00000000000E+00 -0.00000000000E+00 -0.79434968902E+03  0.79434968903E+03  0.25500000000E-02 0.  1.
    5000001    1    1    2    0    0 -0.13069177191E+03 -0.45516154003E+02 -0.61021183551E+03  0.64709778528E+03  0.16500000000E+03 0.  0.
   -5000001    1    1    2    0    0  0.13069177191E+03  0.45516154003E+02 -0.95721292407E+02  0.23566846488E+03  0.16500000000E+03 0.  0.
<mgrwt>
<rscale>  0 0.53003271E+03</rscale>
<asrwt>0</asrwt>
<pdfrwt beam="1">  1        2 0.11347852E+00 0.53003271E+03</pdfrwt>
<pdfrwt beam="2">  1       -2 0.12630938E-01 0.53003271E+03</pdfrwt>
<totfact> 0.17933673E+03</totfact>
</mgrwt>
</event>
<event>
 4    1  0.1049403E-004  0.4869372E+03  0.7818608E-02  0.1017246E+00
         -2   -1    0    0    0  501 -0.00000000000E+00  0.00000000000E+00  0.25758041545E+02  0.25758041671E+02  0.25500000000E-02 0. -1.
          2   -1    0    0  501    0  0.00000000000E+00 -0.00000000000E+00 -0.23012996128E+04  0.23012996128E+04  0.25500000000E-02 0.  1.
    5000001    1    1    2    0    0  0.76114040074E+02 -0.40067295898E+02 -0.18881332669E+04  0.18972798868E+04  0.16500000000E+03 0.  0.
   -5000001    1    1    2    0    0 -0.76114040074E+02  0.40067295898E+02 -0.38740830434E+03  0.42977776765E+03  0.16500000000E+03 0.  0.
<mgrwt>
<rscale>  0 0.48693725E+03</rscale>
<asrwt>0</asrwt>
<pdfrwt beam="1">  1        2 0.32875696E+00 0.48693725E+03</pdfrwt>
<pdfrwt beam="2">  1       -2 0.36797217E-02 0.48693725E+03</pdfrwt>
<totfact> 0.19332934E+03</totfact>
</mgrwt>
</event>
