<event>
 8    1  0.5217667E-029  0.1569319E+04  0.7818608E-02  0.8839621E-01
         -4   -1    0    0    0  501 -0.00000000000E+00  0.00000000000E+00  0.21096604613E+04  0.21096608436E+04  0.12700000000E+01 0. -1.
          4   -1    0    0  501    0  0.00000000000E+00 -0.00000000000E+00 -0.29184164850E+03  0.29184441180E+03  0.12700000000E+01 0.  1.
     200001    2    1    2    0    0  0.21402008710E+03 -0.26542892513E+03  0.76009478368E+03  0.10880985271E+04  0.69996943690E+03 0.  0.
    5000001    2    3    3    0    0  0.94568210185E+02 -0.11266736740E+03  0.26881019926E+03  0.36079846024E+03  0.19047184471E+03 0.  0.
        -13    1    4    4    0    0  0.12630800189E+03 -0.77661882592E+02  0.26626922553E+03  0.30476940624E+03  0.10566000000E+00 0. -1.
     200003    1    4    4    0    0 -0.31739791710E+02 -0.35005484809E+02  0.25409737306E+01  0.56029053999E+02  0.30000000000E+02 0.  1.
     200000    1    3    3    0    0  0.11945187691E+03 -0.15276155773E+03  0.49128458442E+03  0.72730006690E+03  0.50000000000E+03 0.  1.
    -200001    1    1    2    0    0 -0.21402008710E+03  0.26542892513E+03  0.10577240291E+04  0.13134067282E+04  0.70000000000E+03 0. -1.
<mgrwt>
<rscale>  0 0.15693190E+04</rscale>
<asrwt>0</asrwt>
<pdfrwt beam="1">  1        4 0.41691888E-01 0.15693190E+04</pdfrwt>
<pdfrwt beam="2">  1       -4 0.30138029E+00 0.15693190E+04</pdfrwt>
<totfact> 0.33017915E-01</totfact>
</mgrwt>
</event>
<event>
 8    1  0.5217667E-029  0.1902249E+04  0.7818608E-02  0.8653738E-01
          4   -1    0    0  501    0  0.00000000000E+00  0.00000000000E+00  0.16328034045E+04  0.16328038984E+04  0.12700000000E+01 0.  1.
         -4   -1    0    0    0  501 -0.00000000000E+00 -0.00000000000E+00 -0.55403818062E+03  0.55403963621E+03  0.12700000000E+01 0. -1.
     200001    2    1    2    0    0  0.29278188399E+02 -0.62626164670E+03  0.71030613995E+03  0.11774759311E+04  0.69918087324E+03 0.  0.
    5000001    2    3    3    0    0  0.36365378553E+02 -0.89346937877E+02  0.24706735322E+03  0.30976756633E+03  0.16002609805E+03 0.  0.
        -13    1    4    4    0    0  0.53458821941E+02 -0.58450259136E+02  0.25106305240E+03  0.26326212390E+03  0.10566000000E+00 0. -1.
     200003    1    4    4    0    0 -0.17093443389E+02 -0.30896678742E+02 -0.39956991744E+01  0.46505442435E+02  0.30000000000E+02 0. -1.
     200000    1    3    3    0    0 -0.70871901534E+01 -0.53691470882E+03  0.46323878673E+03  0.86770836480E+03  0.50000000000E+03 0.  1.
    -200001    1    1    2    0    0 -0.29278188399E+02  0.62626164670E+03  0.36845908394E+03  0.10093676035E+04  0.70000000000E+03 0. -1.
<mgrwt>
<rscale>  0 0.19022487E+04</rscale>
<asrwt>0</asrwt>
<pdfrwt beam="1">  1        4 0.23325777E+00 0.19022487E+04</pdfrwt>
<pdfrwt beam="2">  1       -4 0.79148449E-01 0.19022487E+04</pdfrwt>
<totfact> 0.21570270E-01</totfact>
</mgrwt>
</event>
<event>
 8    1  0.5217667E-029  0.1509936E+04  0.7818608E-02  0.8877873E-01
         -4   -1    0    0    0  501 -0.00000000000E+00  0.00000000000E+00  0.90511814552E+03  0.90511903651E+03  0.12700000000E+01 0. -1.
          4   -1    0    0  501    0  0.00000000000E+00 -0.00000000000E+00 -0.62972413056E+03  0.62972541120E+03  0.12700000000E+01 0.  1.
     200001    2    1    2    0    0 -0.13560103395E+03 -0.19235721439E+03 -0.22203822207E+02  0.73863253432E+03  0.69978287539E+03 0.  0.
    5000001    2    3    3    0    0  0.27215463822E+02 -0.58740249225E+02  0.57469825877E+02  0.19026167848E+03  0.16942735040E+03 0.  0.
        -13    1    4    4    0    0  0.86149413019E+02  0.76041166648E+01  0.38593543579E+02  0.94704892819E+02  0.10566000000E+00 0. -1.
     200003    1    4    4    0    0 -0.58933949197E+02 -0.66344365890E+02  0.18876282298E+02  0.95556785666E+02  0.30000000000E+02 0. -1.
     200000    1    3    3    0    0 -0.16281649778E+03 -0.13361696517E+03 -0.79673648083E+02  0.54837085583E+03  0.50000000000E+03 0.  1.
    -200001    1    1    2    0    0  0.13560103395E+03  0.19235721439E+03  0.29759783717E+03  0.79621191339E+03  0.70000000000E+03 0.  1.
<mgrwt>
<rscale>  0 0.15099356E+04</rscale>
<asrwt>0</asrwt>
<pdfrwt beam="1">  1        4 0.89960745E-01 0.15099356E+04</pdfrwt>
<pdfrwt beam="2">  1       -4 0.12930275E+00 0.15099356E+04</pdfrwt>
<totfact> 0.90236036E-01</totfact>
</mgrwt>
</event>
<event>
 8    1  0.5217667E-029  0.1460050E+04  0.7818608E-02  0.8911462E-01
         -4   -1    0    0    0  501 -0.00000000000E+00  0.00000000000E+00  0.30993107597E+03  0.30993367799E+03  0.12700000000E+01 0. -1.
          4   -1    0    0  501    0  0.00000000000E+00 -0.00000000000E+00 -0.17195229151E+04  0.17195233841E+04  0.12700000000E+01 0.  1.
     200001    2    1    2    0    0  0.11193025445E+03 -0.17085458014E+03 -0.65883722738E+03  0.98286633191E+03  0.70017145387E+03 0.  0.
    5000001    2    3    3    0    0  0.23836195461E+02 -0.53960623669E+02 -0.30134704559E+03  0.35102458720E+03  0.17008323201E+03 0.  0.
        -13    1    4    4    0    0 -0.55876748778E+02 -0.68911082451E+02 -0.19288560378E+03  0.21231065835E+03  0.10566000000E+00 0. -1.
     200003    1    4    4    0    0  0.79712944239E+02  0.14950458783E+02 -0.10846144181E+03  0.13871392885E+03  0.30000000000E+02 0. -1.
     200000    1    3    3    0    0  0.88094058990E+02 -0.11689395647E+03 -0.35749018179E+03  0.63184174471E+03  0.50000000000E+03 0.  1.
    -200001    1    1    2    0    0 -0.11193025445E+03  0.17085458014E+03 -0.75075461172E+03  0.10465907301E+04  0.70000000000E+03 0.  1.
<mgrwt>
<rscale>  0 0.14600503E+04</rscale>
<asrwt>0</asrwt>
<pdfrwt beam="1">  1        4 0.24564635E+00 0.14600503E+04</pdfrwt>
<pdfrwt beam="2">  1       -4 0.44276088E-01 0.14600503E+04</pdfrwt>
<totfact> 0.65129251E-01</totfact>
</mgrwt>
</event>
<event>
 8    1  0.5217667E-029  0.1450679E+04  0.7818608E-02  0.8917930E-01
         -4   -1    0    0    0  501 -0.00000000000E+00  0.00000000000E+00  0.51428169245E+03  0.51428326056E+03  0.12700000000E+01 0. -1.
          4   -1    0    0  501    0  0.00000000000E+00 -0.00000000000E+00 -0.10230102045E+04  0.10230109929E+04  0.12700000000E+01 0.  1.
     200001    2    1    2    0    0 -0.49315114499E+02 -0.80091429528E+02 -0.43089145338E+03  0.82672741961E+03  0.69925972581E+03 0.  0.
    5000001    2    3    3    0    0 -0.85816144509E+01 -0.33935886454E+02 -0.77055514004E+02  0.21110625024E+03  0.19339857330E+03 0.  0.
        -13    1    4    4    0    0 -0.21247131223E+02  0.75482859216E+02 -0.52399703598E+02  0.94312473840E+02  0.10566000000E+00 0. -1.
     200003    1    4    4    0    0  0.12665516773E+02 -0.10941874567E+03 -0.24655810406E+02  0.11679377640E+03  0.30000000000E+02 0. -1.
     200000    1    3    3    0    0 -0.40733500048E+02 -0.46155543074E+02 -0.35383593937E+03  0.61562116937E+03  0.50000000000E+03 0.  1.
    -200001    1    1    2    0    0  0.49315114499E+02  0.80091429528E+02 -0.77837058720E+02  0.71056683381E+03  0.70000000000E+03 0. -1.
<mgrwt>
<rscale>  0 0.14506788E+04</rscale>
<asrwt>0</asrwt>
<pdfrwt beam="1">  1        4 0.14614448E+00 0.14506788E+04</pdfrwt>
<pdfrwt beam="2">  1       -4 0.73468982E-01 0.14506788E+04</pdfrwt>
<totfact> 0.10461332E+00</totfact>
</mgrwt>
</event>
<event>
 8    1  0.5217667E-029  0.1579023E+04  0.7818608E-02  0.8833539E-01
          4   -1    0    0  501    0  0.00000000000E+00  0.00000000000E+00  0.10691924560E+04  0.10691932103E+04  0.12700000000E+01 0. -1.
         -4   -1    0    0    0  501 -0.00000000000E+00 -0.00000000000E+00 -0.58298850000E+03  0.58298988330E+03  0.12700000000E+01 0.  1.
     200001    2    1    2    0    0  0.34980820157E+03  0.10870438277E+03  0.23341984628E+03  0.82267587429E+03  0.69866182719E+03 0.  0.
    5000001    2    3    3    0    0  0.85289006578E+02 -0.42723813147E+02  0.56869974229E+02  0.21106263018E+03  0.17948175684E+03 0.  0.
        -13    1    4    4    0    0  0.56381211609E+02  0.57703415063E+01 -0.57057853798E+02  0.80422308520E+02  0.10566000000E+00 0. -1.
     200003    1    4    4    0    0  0.28907794969E+02 -0.48494154654E+02  0.11392782803E+03  0.13064032166E+03  0.30000000000E+02 0. -1.
     200000    1    3    3    0    0  0.26451919500E+03  0.15142819592E+03  0.17654987205E+03  0.61161324410E+03  0.50000000000E+03 0. -1.
    -200001    1    1    2    0    0 -0.34980820157E+03 -0.10870438277E+03  0.25278410973E+03  0.82950721929E+03  0.70000000000E+03 0. -1.
<mgrwt>
<rscale>  0 0.15790233E+04</rscale>
<asrwt>0</asrwt>
<pdfrwt beam="1">  1        4 0.15274193E+00 0.15790233E+04</pdfrwt>
<pdfrwt beam="2">  1       -4 0.83284225E-01 0.15790233E+04</pdfrwt>
<totfact> 0.69442785E-01</totfact>
</mgrwt>
</event>
<event>
 8    1  0.5217667E-029  0.2098202E+04  0.7818608E-02  0.8562036E-01
          4   -1    0    0  501    0  0.00000000000E+00  0.00000000000E+00  0.17377696879E+04  0.17377701520E+04  0.12700000000E+01 0.  1.
         -4   -1    0    0    0  501 -0.00000000000E+00 -0.00000000000E+00 -0.63334693917E+03  0.63334821248E+03  0.12700000000E+01 0. -1.
     200001    2    1    2    0    0  0.52459132618E+02  0.69811039840E+03  0.94425097719E+03  0.13682399644E+04  0.70025752645E+03 0.  0.
    5000001    2    3    3    0    0  0.66141385788E+02  0.14252581987E+03  0.14258632204E+03  0.27209779879E+03  0.17034688324E+03 0.  0.
        -13    1    4    4    0    0  0.12587081055E+02  0.14959892212E+03  0.14704810339E+03  0.21014620620E+03  0.10566000000E+00 0. -1.
     200003    1    4    4    0    0  0.53554304732E+02 -0.70731022457E+01 -0.44617813508E+01  0.61951592583E+02  0.30000000000E+02 0. -1.
     200000    1    3    3    0    0 -0.13682253170E+02  0.55558457853E+03  0.80166465515E+03  0.10961421656E+04  0.50000000000E+03 0. -1.
    -200001    1    1    2    0    0 -0.52459132618E+02 -0.69811039840E+03  0.16017177158E+03  0.10028784001E+04  0.70000000000E+03 0.  1.
<mgrwt>
<rscale>  0 0.20982023E+04</rscale>
<asrwt>0</asrwt>
<pdfrwt beam="1">  1        4 0.24825294E+00 0.20982023E+04</pdfrwt>
<pdfrwt beam="2">  1       -4 0.90478257E-01 0.20982023E+04</pdfrwt>
<totfact> 0.12578282E-01</totfact>
</mgrwt>
</event>
<event>
 8    1  0.5217667E-029  0.1946647E+04  0.7818608E-02  0.8631979E-01
          4   -1    0    0  501    0  0.00000000000E+00  0.00000000000E+00  0.77090706735E+03  0.77090811345E+03  0.12700000000E+01 0.  1.
         -4   -1    0    0    0  501 -0.00000000000E+00 -0.00000000000E+00 -0.12288863176E+04  0.12288869738E+04  0.12700000000E+01 0. -1.
     200001    2    1    2    0    0  0.86768799993E+02 -0.59135804763E+03  0.97491088499E+02  0.92472278162E+03  0.69883799650E+03 0.  0.
    5000001    2    3    3    0    0  0.93626150231E+00 -0.91210445098E+02  0.99163490558E+02  0.21232005428E+03  0.16409200380E+03 0.  0.
        -13    1    4    4    0    0 -0.85223652756E+00  0.18058387792E-01  0.11497319949E+03  0.11497640801E+03  0.10566000000E+00 0. -1.
     200003    1    4    4    0    0  0.17884980299E+01 -0.91228503486E+02 -0.15809708935E+02  0.97343646275E+02  0.30000000000E+02 0. -1.
     200000    1    3    3    0    0  0.85832538491E+02 -0.50014760253E+03 -0.16724020581E+01  0.71240272733E+03  0.50000000000E+03 0.  1.
    -200001    1    1    2    0    0 -0.86768799993E+02  0.59135804763E+03 -0.55547033871E+03  0.10750723056E+04  0.70000000000E+03 0. -1.
<mgrwt>
<rscale>  0 0.19466472E+04</rscale>
<asrwt>0</asrwt>
<pdfrwt beam="1">  1        4 0.11012970E+00 0.19466472E+04</pdfrwt>
<pdfrwt beam="2">  1       -4 0.17555531E+00 0.19466472E+04</pdfrwt>
<totfact> 0.23760769E-01</totfact>
</mgrwt>
</event>
<event>
 8    1  0.5217667E-029  0.1459633E+04  0.7818608E-02  0.8911749E-01
          4   -1    0    0  501    0  0.00000000000E+00  0.00000000000E+00  0.69678437577E+03  0.69678553316E+03  0.12700000000E+01 0.  1.
         -4   -1    0    0    0  501 -0.00000000000E+00 -0.00000000000E+00 -0.76441259498E+03  0.76441364997E+03  0.12700000000E+01 0. -1.
     200001    2    1    2    0    0 -0.60551630986E+02  0.17003295908E+03 -0.13407785869E+03  0.73525616762E+03  0.70003360822E+03 0.  0.
    5000001    2    3    3    0    0 -0.70047914906E+02 -0.65918358325E+02 -0.73197589640E+02  0.17895623884E+03  0.13196782921E+03 0.  0.
        -13    1    4    4    0    0  0.27019798855E+02  0.15756170635E+02 -0.24756179411E+02  0.39889923870E+02  0.10566000000E+00 0. -1.
     200003    1    4    4    0    0 -0.97067713761E+02 -0.81674528960E+02 -0.48441410229E+02  0.13906631497E+03  0.30000000000E+02 0. -1.
     200000    1    3    3    0    0  0.94962839203E+01  0.23595131741E+03 -0.60880269047E+02  0.55629992877E+03  0.50000000000E+03 0.  1.
    -200001    1    1    2    0    0  0.60551630986E+02 -0.17003295908E+03  0.66449639477E+02  0.72594301552E+03  0.70000000000E+03 0.  1.
<mgrwt>
<rscale>  0 0.14596333E+04</rscale>
<asrwt>0</asrwt>
<pdfrwt beam="1">  1        4 0.99540783E-01 0.14596333E+04</pdfrwt>
<pdfrwt beam="2">  1       -4 0.10920196E+00 0.14596333E+04</pdfrwt>
<totfact> 0.10860079E+00</totfact>
</mgrwt>
</event>
<event>
 8    1  0.5217667E-029  0.1472045E+04  0.7818608E-02  0.8903259E-01
          4   -1    0    0  501    0  0.00000000000E+00  0.00000000000E+00  0.10831922701E+04  0.10831930146E+04  0.12700000000E+01 0.  1.
         -4   -1    0    0    0  501 -0.00000000000E+00 -0.00000000000E+00 -0.50012082285E+03  0.50012243536E+03  0.12700000000E+01 0. -1.
     200001    2    1    2    0    0 -0.10205107156E+02  0.16176564373E+03  0.12332682871E+03  0.73029881356E+03  0.70132345084E+03 0.  0.
    5000001    2    3    3    0    0  0.13056304126E+02 -0.85532215093E+00  0.18231993748E+02  0.19361306180E+03  0.19230812113E+03 0.  0.
        -13    1    4    4    0    0  0.81274730948E+02 -0.49509818395E+02  0.37949878655E+02  0.10245490941E+03  0.10566000000E+00 0. -1.
     200003    1    4    4    0    0 -0.68218426822E+02  0.48654496244E+02 -0.19717884907E+02  0.91158152395E+02  0.30000000000E+02 0. -1.
     200000    1    3    3    0    0 -0.23261411281E+02  0.16262096588E+03  0.10509483496E+03  0.53668575175E+03  0.50000000000E+03 0. -1.
    -200001    1    1    2    0    0  0.10205107156E+02 -0.16176564373E+03  0.45974461852E+03  0.85301663639E+03  0.70000000000E+03 0.  1.
<mgrwt>
<rscale>  0 0.14720447E+04</rscale>
<asrwt>0</asrwt>
<pdfrwt beam="1">  1        4 0.15474192E+00 0.14720447E+04</pdfrwt>
<pdfrwt beam="2">  1       -4 0.71446001E-01 0.14720447E+04</pdfrwt>
<totfact> 0.95442782E-01</totfact>
</mgrwt>
</event>
<event>
 8    1  0.5217667E-029  0.3155827E+04  0.7818608E-02  0.8200582E-01
          4   -1    0    0  501    0  0.00000000000E+00  0.00000000000E+00  0.22965414100E+04  0.22965417612E+04  0.12700000000E+01 0.  1.
         -4   -1    0    0    0  501 -0.00000000000E+00 -0.00000000000E+00 -0.10841557077E+04  0.10841564516E+04  0.12700000000E+01 0. -1.
     200001    2    1    2    0    0 -0.34577703057E+03 -0.44583267482E+03 -0.78281274158E+03  0.11922866063E+04  0.70030210218E+03 0.  0.
    5000001    2    3    3    0    0 -0.19483265851E+03 -0.13884635240E+03 -0.24655692952E+03  0.38321608921E+03  0.16978273512E+03 0.  0.
        -13    1    4    4    0    0 -0.28509145511E+02 -0.11844029026E+03 -0.85192984407E+02  0.14865641423E+03  0.10566000000E+00 0. -1.
     200003    1    4    4    0    0 -0.16632351300E+03 -0.20406062138E+02 -0.16136394511E+03  0.23455967498E+03  0.30000000000E+02 0. -1.
     200000    1    3    3    0    0 -0.15094437206E+03 -0.30698632242E+03 -0.53625581206E+03  0.80907051706E+03  0.50000000000E+03 0. -1.
    -200001    1    1    2    0    0  0.34577703057E+03  0.44583267482E+03  0.19951984439E+04  0.21884116065E+04  0.70000000000E+03 0.  1.
<mgrwt>
<rscale>  0 0.31558266E+04</rscale>
<asrwt>0</asrwt>
<pdfrwt beam="1">  1        4 0.32807742E+00 0.31558266E+04</pdfrwt>
<pdfrwt beam="2">  1       -4 0.15487947E+00 0.31558266E+04</pdfrwt>
<totfact> 0.95178586E-03</totfact>
</mgrwt>
</event>
<event>
 8    1  0.5217667E-029  0.1494772E+04  0.7818608E-02  0.8887937E-01
         -4   -1    0    0    0  501 -0.00000000000E+00  0.00000000000E+00  0.43193093720E+03  0.43193280427E+03  0.12700000000E+01 0. -1.
          4   -1    0    0  501    0  0.00000000000E+00 -0.00000000000E+00 -0.12932249451E+04  0.12932255687E+04  0.12700000000E+01 0.  1.
     200001    2    1    2    0    0 -0.16723249584E+02  0.22323902654E+03 -0.58981142182E+03  0.94169291452E+03  0.69913711238E+03 0.  0.
    5000001    2    3    3    0    0  0.14722774352E+02 -0.71475564115E+02 -0.12045037795E+03  0.19460166717E+03  0.13429817187E+03 0.  0.
        -13    1    4    4    0    0  0.56847308725E+02  0.83007308501E+01 -0.39311583369E+02  0.69612717178E+02  0.10566000000E+00 0. -1.
     200003    1    4    4    0    0 -0.42124534373E+02 -0.79776294965E+02 -0.81138794586E+02  0.12498895000E+03  0.30000000000E+02 0. -1.
     200000    1    3    3    0    0 -0.31446023936E+02  0.29471459066E+03 -0.46936104386E+03  0.74709124735E+03  0.50000000000E+03 0.  1.
    -200001    1    1    2    0    0  0.16723249584E+02 -0.22323902654E+03 -0.27148258611E+03  0.78346545847E+03  0.70000000000E+03 0. -1.
<mgrwt>
<rscale>  0 0.14947722E+04</rscale>
<asrwt>0</asrwt>
<pdfrwt beam="1">  1        4 0.18474660E+00 0.14947722E+04</pdfrwt>
<pdfrwt beam="2">  1       -4 0.61704598E-01 0.14947722E+04</pdfrwt>
<totfact> 0.79956862E-01</totfact>
</mgrwt>
</event>
<event>
 8    1  0.5217667E-029  0.1919042E+04  0.7818608E-02  0.8645436E-01
          4   -1    0    0  501    0  0.00000000000E+00  0.00000000000E+00  0.49906894380E+03  0.49907055970E+03  0.12700000000E+01 0.  1.
         -4   -1    0    0    0  501 -0.00000000000E+00 -0.00000000000E+00 -0.18447905723E+04  0.18447910094E+04  0.12700000000E+01 0. -1.
     200001    2    1    2    0    0  0.41738249125E+03 -0.50620893903E+03 -0.66576472150E+03  0.11679376646E+04  0.70027144022E+03 0.  0.
    5000001    2    3    3    0    0  0.35241696659E+02 -0.13968784360E+03 -0.15148244731E+03  0.27639094240E+03  0.18080472992E+03 0.  0.
        -13    1    4    4    0    0 -0.22454163349E+02 -0.44061774764E+02 -0.15294279740E+03  0.16073935388E+03  0.10566000000E+00 0. -1.
     200003    1    4    4    0    0  0.57695860008E+02 -0.95626068841E+02  0.14603500873E+01  0.11565158852E+03  0.30000000000E+02 0. -1.
     200000    1    3    3    0    0  0.38214079459E+03 -0.36652109542E+03 -0.51428227419E+03  0.89154672218E+03  0.50000000000E+03 0. -1.
    -200001    1    1    2    0    0 -0.41738249125E+03  0.50620893903E+03 -0.67995690699E+03  0.11759239046E+04  0.70000000000E+03 0.  1.
<mgrwt>
<rscale>  0 0.19190415E+04</rscale>
<asrwt>0</asrwt>
<pdfrwt beam="1">  1        4 0.71295711E-01 0.19190415E+04</pdfrwt>
<pdfrwt beam="2">  1       -4 0.26354165E+00 0.19190415E+04</pdfrwt>
<totfact> 0.17639876E-01</totfact>
</mgrwt>
</event>
<event>
 8    1  0.5217667E-029  0.1613559E+04  0.7818608E-02  0.8812261E-01
          4   -1    0    0  501    0  0.00000000000E+00  0.00000000000E+00  0.87583276735E+03  0.87583368813E+03  0.12700000000E+01 0.  1.
         -4   -1    0    0    0  501 -0.00000000000E+00 -0.00000000000E+00 -0.74316836177E+03  0.74316944692E+03  0.12700000000E+01 0. -1.
     200001    2    1    2    0    0  0.31877579415E+03 -0.12052682025E+03 -0.13150760325E+03  0.79685255785E+03  0.70819137803E+03 0.  0.
    5000001    2    3    3    0    0  0.47559836825E+02 -0.43828155207E+02 -0.43770005520E+02  0.21621612533E+03  0.20162032189E+03 0.  0.
        -13    1    4    4    0    0 -0.95026087923E+01  0.72731361585E+02 -0.38669282204E+02  0.82918484562E+02  0.10566000000E+00 0. -1.
     200003    1    4    4    0    0  0.57062445618E+02 -0.11655951679E+03 -0.51007233161E+01  0.13329764076E+03  0.30000000000E+02 0. -1.
     200000    1    3    3    0    0  0.27121595732E+03 -0.76698665045E+02 -0.87737597726E+02  0.58063643253E+03  0.50000000000E+03 0. -1.
    -200001    1    1    2    0    0 -0.31877579415E+03  0.12052682025E+03  0.26417200882E+03  0.82215057719E+03  0.70000000000E+03 0.  1.
<mgrwt>
<rscale>  0 0.16135586E+04</rscale>
<asrwt>0</asrwt>
<pdfrwt beam="1">  1        4 0.12511911E+00 0.16135586E+04</pdfrwt>
<pdfrwt beam="2">  1       -4 0.10616705E+00 0.16135586E+04</pdfrwt>
<totfact> 0.65726906E-01</totfact>
</mgrwt>
</event>
<event>
 8    1  0.5217667E-029  0.1563726E+04  0.7818608E-02  0.8843147E-01
         -4   -1    0    0    0  501 -0.00000000000E+00  0.00000000000E+00  0.17486217200E+04  0.17486221812E+04  0.12700000000E+01 0. -1.
          4   -1    0    0  501    0  0.00000000000E+00 -0.00000000000E+00 -0.34959374313E+03  0.34959604994E+03  0.12700000000E+01 0.  1.
     200001    2    1    2    0    0  0.19629194584E+03  0.23964840268E+03  0.91088579384E+03  0.11903390124E+04  0.70087955468E+03 0.  0.
    5000001    2    3    3    0    0  0.36880404614E+01  0.71704299920E+02  0.30937081623E+03  0.36746493074E+03  0.18483794285E+03 0.  0.
        -13    1    4    4    0    0 -0.13761376701E+02  0.12932344744E+03  0.22069146827E+03  0.25616140395E+03  0.10566000000E+00 0. -1.
     200003    1    4    4    0    0  0.17449417162E+02 -0.57619147516E+02  0.88679347960E+02  0.11130352678E+03  0.30000000000E+02 0. -1.
     200000    1    3    3    0    0  0.19260390538E+03  0.16794410276E+03  0.60151497761E+03  0.82287408169E+03  0.50000000000E+03 0.  1.
    -200001    1    1    2    0    0 -0.19629194584E+03 -0.23964840268E+03  0.48814218304E+03  0.90787921871E+03  0.70000000000E+03 0.  1.
<mgrwt>
<rscale>  0 0.15637265E+04</rscale>
<asrwt>0</asrwt>
<pdfrwt beam="1">  1        4 0.49942161E-01 0.15637265E+04</pdfrwt>
<pdfrwt beam="2">  1       -4 0.24980330E+00 0.15637265E+04</pdfrwt>
<totfact> 0.47481413E-01</totfact>
</mgrwt>
</event>
<event>
 8    1  0.5217667E-029  0.1532487E+04  0.7818608E-02  0.8863132E-01
         -4   -1    0    0    0  501 -0.00000000000E+00  0.00000000000E+00  0.68759598600E+03  0.68759715885E+03  0.12700000000E+01 0. -1.
          4   -1    0    0  501    0  0.00000000000E+00 -0.00000000000E+00 -0.85388439092E+03  0.85388533537E+03  0.12700000000E+01 0.  1.
     200001    2    1    2    0    0  0.30913207255E+03  0.32730251719E+02 -0.99199645345E+02  0.77262957635E+03  0.70034419035E+03 0.  0.
    5000001    2    3    3    0    0  0.76088968425E+01 -0.68143941438E+02 -0.66502853038E+02  0.17919810721E+03  0.15161741358E+03 0.  0.
        -13    1    4    4    0    0  0.23848705667E+02 -0.33808180861E+02 -0.10786714345E+03  0.11552958779E+03  0.10566000000E+00 0. -1.
     200003    1    4    4    0    0 -0.16239808825E+02 -0.34335760576E+02  0.41364290407E+02  0.63668519426E+02  0.30000000000E+02 0. -1.
     200000    1    3    3    0    0  0.30152317571E+03  0.10087419316E+03 -0.32696792307E+02  0.59343146914E+03  0.50000000000E+03 0.  1.
    -200001    1    1    2    0    0 -0.30913207255E+03 -0.32730251719E+02 -0.67088759584E+02  0.76885291787E+03  0.70000000000E+03 0. -1.
<mgrwt>
<rscale>  0 0.15324870E+04</rscale>
<asrwt>0</asrwt>
<pdfrwt beam="1">  1        4 0.12198364E+00 0.15324870E+04</pdfrwt>
<pdfrwt beam="2">  1       -4 0.98228150E-01 0.15324870E+04</pdfrwt>
<totfact> 0.84915276E-01</totfact>
</mgrwt>
</event>
<event>
 8    1  0.5217667E-029  0.1439457E+04  0.7818608E-02  0.8925742E-01
          4   -1    0    0  501    0  0.00000000000E+00  0.00000000000E+00  0.29068746694E+04  0.29068749468E+04  0.12700000000E+01 0.  1.
         -4   -1    0    0    0  501 -0.00000000000E+00 -0.00000000000E+00 -0.17819888298E+03  0.17820340848E+03  0.12700000000E+01 0. -1.
     200001    2    1    2    0    0 -0.18531730089E+02  0.16647601233E+03  0.13448140253E+04  0.15252286633E+04  0.69981427900E+03 0.  0.
    5000001    2    3    3    0    0  0.42097005472E+02  0.12073519058E+03  0.38116622124E+03  0.43693405404E+03  0.17109802817E+03 0.  0.
        -13    1    4    4    0    0  0.76254221263E+02  0.14347736013E+03  0.28049602875E+03  0.32415812876E+03  0.10566000000E+00 0. -1.
     200003    1    4    4    0    0 -0.34157215791E+02 -0.22742169546E+02  0.10067019249E+03  0.11277592528E+03  0.30000000000E+02 0. -1.
     200000    1    3    3    0    0 -0.60628735560E+02  0.45740821751E+02  0.96364780403E+03  0.10882946093E+04  0.50000000000E+03 0. -1.
    -200001    1    1    2    0    0  0.18531730089E+02 -0.16647601233E+03  0.13838617611E+04  0.15598496920E+04  0.70000000000E+03 0. -1.
<mgrwt>
<rscale>  0 0.14394572E+04</rscale>
<asrwt>0</asrwt>
<pdfrwt beam="1">  1        4 0.41526815E+00 0.14394572E+04</pdfrwt>
<pdfrwt beam="2">  1       -4 0.25457327E-01 0.14394572E+04</pdfrwt>
<totfact> 0.15589244E-01</totfact>
</mgrwt>
</event>
<event>
 8    1  0.5217667E-029  0.1564317E+04  0.7818608E-02  0.8842775E-01
          4   -1    0    0  501    0  0.00000000000E+00  0.00000000000E+00  0.19508918478E+04  0.19508922612E+04  0.12700000000E+01 0.  1.
         -4   -1    0    0    0  501 -0.00000000000E+00 -0.00000000000E+00 -0.31358386589E+03  0.31358643760E+03  0.12700000000E+01 0. -1.
     200001    2    1    2    0    0  0.14187994438E+03 -0.28651504785E+03  0.10199413345E+04  0.12778874113E+04  0.70035356698E+03 0.  0.
    5000001    2    3    3    0    0  0.41222105638E+02 -0.61369694103E+02  0.26650546434E+03  0.34061048246E+03  0.19880854332E+03 0.  0.
        -13    1    4    4    0    0 -0.58812220439E+02  0.12222685706E+01  0.18491031545E+03  0.19404176647E+03  0.10566000000E+00 0. -1.
     200003    1    4    4    0    0  0.10003432608E+03 -0.62591962674E+02  0.81595148892E+02  0.14656871599E+03  0.30000000000E+02 0. -1.
     200000    1    3    3    0    0  0.10065783874E+03 -0.22514535375E+03  0.75343587018E+03  0.93727692882E+03  0.50000000000E+03 0.  1.
    -200001    1    1    2    0    0 -0.14187994438E+03  0.28651504785E+03  0.61736664740E+03  0.98659128751E+03  0.70000000000E+03 0.  1.
<mgrwt>
<rscale>  0 0.15643166E+04</rscale>
<asrwt>0</asrwt>
<pdfrwt beam="1">  1        4 0.27869905E+00 0.15643166E+04</pdfrwt>
<pdfrwt beam="2">  1       -4 0.44797908E-01 0.15643166E+04</pdfrwt>
<totfact> 0.39416454E-01</totfact>
</mgrwt>
</event>
<event>
 8    1  0.5217667E-029  0.1711496E+04  0.7818608E-02  0.8754835E-01
          4   -1    0    0  501    0  0.00000000000E+00  0.00000000000E+00  0.24153461825E+04  0.24153465164E+04  0.12700000000E+01 0.  1.
         -4   -1    0    0    0  501 -0.00000000000E+00 -0.00000000000E+00 -0.30318647585E+03  0.30318913575E+03  0.12700000000E+01 0. -1.
     200001    2    1    2    0    0  0.24658862211E+03 -0.28837773016E+03  0.55827576142E+03  0.97253365356E+03  0.70013014340E+03 0.  0.
    5000001    2    3    3    0    0  0.76990060664E+02 -0.14985029411E+03  0.17884239109E+03  0.30776060574E+03  0.18533593690E+03 0.  0.
        -13    1    4    4    0    0 -0.12215991069E+02 -0.35171580418E+02  0.15263368886E+03  0.15710927613E+03  0.10566000000E+00 0. -1.
     200003    1    4    4    0    0  0.89206051733E+02 -0.11467871369E+03  0.26208702229E+02  0.15065132961E+03  0.30000000000E+02 0. -1.
     200000    1    3    3    0    0  0.16959856145E+03 -0.13852743605E+03  0.37943337033E+03  0.66477304782E+03  0.50000000000E+03 0. -1.
    -200001    1    1    2    0    0 -0.24658862211E+03  0.28837773016E+03  0.15538839452E+04  0.17460019986E+04  0.70000000000E+03 0. -1.
<mgrwt>
<rscale>  0 0.17114957E+04</rscale>
<asrwt>0</asrwt>
<pdfrwt beam="1">  1        4 0.34504967E+00 0.17114957E+04</pdfrwt>
<pdfrwt beam="2">  1       -4 0.43312568E-01 0.17114957E+04</pdfrwt>
<totfact> 0.15967442E-01</totfact>
</mgrwt>
</event>
<event>
 8    1  0.5217667E-029  0.1933071E+04  0.7818608E-02  0.8638568E-01
          4   -1    0    0  501    0  0.00000000000E+00  0.00000000000E+00  0.34163945522E+03  0.34164181574E+03  0.12700000000E+01 0.  1.
         -4   -1    0    0    0  501 -0.00000000000E+00 -0.00000000000E+00 -0.27344236540E+04  0.27344239489E+04  0.12700000000E+01 0. -1.
     200001    2    1    2    0    0  0.25187478099E+03 -0.33280302847E+03 -0.36909027965E+03  0.89442971817E+03  0.69969859594E+03 0.  0.
    5000001    2    3    3    0    0  0.80577768833E+02 -0.65344165397E+02 -0.59457435792E+02  0.22603656455E+03  0.19181945955E+03 0.  0.
        -13    1    4    4    0    0  0.13978194718E+03 -0.37502788961E+02 -0.51537224190E+02  0.15362795507E+03  0.10566000000E+00 0. -1.
     200003    1    4    4    0    0 -0.59204178347E+02 -0.27841376435E+02 -0.79202116028E+01  0.72408609484E+02  0.30000000000E+02 0. -1.
     200000    1    3    3    0    0  0.17129701215E+03 -0.26745886308E+03 -0.30963284386E+03  0.66839315362E+03  0.50000000000E+03 0.  1.
    -200001    1    1    2    0    0 -0.25187478099E+03  0.33280302847E+03 -0.20236939191E+04  0.21816360465E+04  0.70000000000E+03 0. -1.
<mgrwt>
<rscale>  0 0.19330712E+04</rscale>
<asrwt>0</asrwt>
<pdfrwt beam="1">  1        4 0.48805827E-01 0.19330712E+04</pdfrwt>
<pdfrwt beam="2">  1       -4 0.39063213E+00 0.19330712E+04</pdfrwt>
<totfact> 0.60793225E-02</totfact>
</mgrwt>
</event>
<event>
 8    1  0.5217667E-029  0.1448834E+04  0.7818608E-02  0.8919209E-01
          4   -1    0    0  501    0  0.00000000000E+00  0.00000000000E+00  0.11857364870E+04  0.11857371671E+04  0.12700000000E+01 0.  1.
         -4   -1    0    0    0  501 -0.00000000000E+00 -0.00000000000E+00 -0.44257579338E+03  0.44257761555E+03  0.12700000000E+01 0. -1.
     200001    2    1    2    0    0  0.16624862141E+03 -0.70583667256E+02  0.32263194954E+03  0.79197449141E+03  0.70036530609E+03 0.  0.
    5000001    2    3    3    0    0  0.13219496059E+03 -0.67878473718E+02  0.60572651640E+02  0.22642869706E+03  0.15974327506E+03 0.  0.
        -13    1    4    4    0    0 -0.30970043768E+02 -0.25730492885E+02  0.35017242993E+02  0.53361225117E+02  0.10566000000E+00 0. -1.
     200003    1    4    4    0    0  0.16316500436E+03 -0.42147980833E+02  0.25555408647E+02  0.17306747195E+03  0.30000000000E+02 0. -1.
     200000    1    3    3    0    0  0.34053660825E+02 -0.27051935377E+01  0.26205929790E+03  0.56554579435E+03  0.50000000000E+03 0.  1.
    -200001    1    1    2    0    0 -0.16624862141E+03  0.70583667256E+02  0.42052874407E+03  0.83634029127E+03  0.70000000000E+03 0. -1.
<mgrwt>
<rscale>  0 0.14488344E+04</rscale>
<asrwt>0</asrwt>
<pdfrwt beam="1">  1        4 0.16939110E+00 0.14488344E+04</pdfrwt>
<pdfrwt beam="2">  1       -4 0.63225293E-01 0.14488344E+04</pdfrwt>
<totfact> 0.97485832E-01</totfact>
</mgrwt>
</event>
<event>
 8    1  0.5217667E-029  0.1930921E+04  0.7818608E-02  0.8639616E-01
         -4   -1    0    0    0  501 -0.00000000000E+00  0.00000000000E+00  0.18835075446E+04  0.18835079727E+04  0.12700000000E+01 0. -1.
          4   -1    0    0  501    0  0.00000000000E+00 -0.00000000000E+00 -0.49488087312E+03  0.49488250270E+03  0.12700000000E+01 0.  1.
     200001    2    1    2    0    0 -0.15777781711E+03  0.36537421270E+03  0.13502812585E+04  0.15722499631E+04  0.70022733074E+03 0.  0.
    5000001    2    3    3    0    0 -0.57624125145E+02  0.87464358962E+02  0.43945424797E+03  0.49203216478E+03  0.19494886824E+03 0.  0.
        -13    1    4    4    0    0 -0.47054315047E+02 -0.16466884623E+02  0.12410905719E+02  0.51374201683E+02  0.10566000000E+00 0. -1.
     200003    1    4    4    0    0 -0.10569810098E+02  0.10393124359E+03  0.42704334226E+03  0.44065796310E+03  0.30000000000E+02 0. -1.
     200000    1    3    3    0    0 -0.10015369197E+03  0.27790985374E+03  0.91082701048E+03  0.10802177983E+04  0.50000000000E+03 0. -1.
    -200001    1    1    2    0    0  0.15777781711E+03 -0.36537421270E+03  0.38345412986E+02  0.80614051230E+03  0.70000000000E+03 0.  1.
<mgrwt>
<rscale>  0 0.19309213E+04</rscale>
<asrwt>0</asrwt>
<pdfrwt beam="1">  1        4 0.70697415E-01 0.19309213E+04</pdfrwt>
<pdfrwt beam="2">  1       -4 0.26907265E+00 0.19309213E+04</pdfrwt>
<totfact> 0.16594804E-01</totfact>
</mgrwt>
</event>
<event>
 8    1  0.5217667E-029  0.2552468E+04  0.7818608E-02  0.8384528E-01
          4   -1    0    0  501    0  0.00000000000E+00  0.00000000000E+00  0.24836200033E+04  0.24836203280E+04  0.12700000000E+01 0.  1.
         -4   -1    0    0    0  501 -0.00000000000E+00 -0.00000000000E+00 -0.65580499248E+03  0.65580622219E+03  0.12700000000E+01 0. -1.
     200001    2    1    2    0    0  0.33876927055E+03 -0.73766827497E+03  0.17659124257E+04  0.20657641114E+04  0.70001111848E+03 0.  0.
    5000001    2    3    3    0    0  0.97875100947E+02 -0.10989050891E+03  0.17957494638E+03  0.27171797963E+03  0.14116670908E+03 0.  0.
        -13    1    4    4    0    0  0.86894033039E+02 -0.45268599054E+01  0.11454908628E+03  0.14384912155E+03  0.10566000000E+00 0. -1.
     200003    1    4    4    0    0  0.10981067908E+02 -0.10536364901E+03  0.65025860093E+02  0.12786885808E+03  0.30000000000E+02 0. -1.
     200000    1    3    3    0    0  0.24089416960E+03 -0.62777776605E+03  0.15863374793E+04  0.17940461317E+04  0.50000000000E+03 0.  1.
    -200001    1    1    2    0    0 -0.33876927055E+03  0.73766827497E+03  0.61902585138E+02  0.10736624389E+04  0.70000000000E+03 0. -1.
<mgrwt>
<rscale>  0 0.25524677E+04</rscale>
<asrwt>0</asrwt>
<pdfrwt beam="1">  1        4 0.35480296E+00 0.25524677E+04</pdfrwt>
<pdfrwt beam="2">  1       -4 0.93686540E-01 0.25524677E+04</pdfrwt>
<totfact> 0.23754987E-02</totfact>
</mgrwt>
</event>
<event>
 8    1  0.5217667E-029  0.1617692E+04  0.7818608E-02  0.8809753E-01
         -4   -1    0    0    0  501 -0.00000000000E+00  0.00000000000E+00  0.15441148277E+04  0.15441153500E+04  0.12700000000E+01 0. -1.
          4   -1    0    0  501    0  0.00000000000E+00 -0.00000000000E+00 -0.42369200412E+03  0.42369390751E+03  0.12700000000E+01 0.  1.
     200001    2    1    2    0    0  0.58010806430E+02 -0.19001527752E+03  0.99027974130E+03  0.12286149114E+04  0.69954955166E+03 0.  0.
    5000001    2    3    3    0    0 -0.11797968410E+02  0.93853163170E+01  0.23270347771E+03  0.29665157685E+03  0.18336840864E+03 0.  0.
        -13    1    4    4    0    0 -0.76853424821E+02 -0.11608620904E+01  0.31950652344E+02  0.83238523874E+02  0.10566000000E+00 0. -1.
     200003    1    4    4    0    0  0.65055456411E+02  0.10546178407E+02  0.20075282537E+03  0.21341305298E+03  0.30000000000E+02 0. -1.
     200000    1    3    3    0    0  0.69808774839E+02 -0.19940059383E+03  0.75757626359E+03  0.93196333459E+03  0.50000000000E+03 0. -1.
    -200001    1    1    2    0    0 -0.58010806430E+02  0.19001527752E+03  0.13014308228E+03  0.73919434604E+03  0.70000000000E+03 0.  1.
<mgrwt>
<rscale>  0 0.16176916E+04</rscale>
<asrwt>0</asrwt>
<pdfrwt beam="1">  1        4 0.60527602E-01 0.16176916E+04</pdfrwt>
<pdfrwt beam="2">  1       -4 0.22058801E+00 0.16176916E+04</pdfrwt>
<totfact> 0.47978016E-01</totfact>
</mgrwt>
</event>
<event>
 8    1  0.5217667E-029  0.1760248E+04  0.7818608E-02  0.8727729E-01
         -4   -1    0    0    0  501 -0.00000000000E+00  0.00000000000E+00  0.45143324881E+03  0.45143503523E+03  0.12700000000E+01 0. -1.
          4   -1    0    0  501    0  0.00000000000E+00 -0.00000000000E+00 -0.17159038528E+04  0.17159043228E+04  0.12700000000E+01 0.  1.
     200001    2    1    2    0    0 -0.38457073060E+03  0.52599227137E+02 -0.10824083771E+04  0.13464812826E+04  0.70053024493E+03 0.  0.
    5000001    2    3    3    0    0 -0.84241495898E+02  0.11110197046E+02 -0.25617578089E+03  0.33426624030E+03  0.19719995583E+03 0.  0.
        -13    1    4    4    0    0 -0.99089620073E+02  0.58821001001E+02 -0.25046934398E+03  0.27570557920E+03  0.10566000000E+00 0. -1.
     200003    1    4    4    0    0  0.14848124175E+02 -0.47710803955E+02 -0.57064369073E+01  0.58560661094E+02  0.30000000000E+02 0. -1.
     200000    1    3    3    0    0 -0.30032923470E+03  0.41489030091E+02 -0.82623259625E+03  0.10122150423E+04  0.50000000000E+03 0.  1.
    -200001    1    1    2    0    0  0.38457073060E+03 -0.52599227137E+02 -0.18206222690E+03  0.82085807543E+03  0.70000000000E+03 0. -1.
<mgrwt>
<rscale>  0 0.17602483E+04</rscale>
<asrwt>0</asrwt>
<pdfrwt beam="1">  1        4 0.24512928E+00 0.17602483E+04</pdfrwt>
<pdfrwt beam="2">  1       -4 0.64490626E-01 0.17602483E+04</pdfrwt>
<totfact> 0.28985453E-01</totfact>
</mgrwt>
</event>
<event>
 8    1  0.5217667E-029  0.1756374E+04  0.7818608E-02  0.8729849E-01
          4   -1    0    0  501    0  0.00000000000E+00  0.00000000000E+00  0.68930823435E+03  0.68930940429E+03  0.12700000000E+01 0.  1.
         -4   -1    0    0    0  501 -0.00000000000E+00 -0.00000000000E+00 -0.11188189735E+04  0.11188196944E+04  0.12700000000E+01 0. -1.
     200001    2    1    2    0    0 -0.46645728467E+03  0.16333557345E+03 -0.41270901265E+03  0.95107413775E+03  0.69996598374E+03 0.  0.
    5000001    2    3    3    0    0 -0.24504209463E+03  0.61176421788E+02 -0.11275703947E+03  0.31906752001E+03  0.15906523710E+03 0.  0.
        -13    1    4    4    0    0 -0.11152283695E+02 -0.28855001507E+02  0.16958263850E+02  0.35278583028E+02  0.10566000000E+00 0. -1.
     200003    1    4    4    0    0 -0.23388981093E+03  0.90031423295E+02 -0.12971530332E+03  0.28378893698E+03  0.30000000000E+02 0. -1.
     200000    1    3    3    0    0 -0.22141519004E+03  0.10215915166E+03 -0.29995197319E+03  0.63200661774E+03  0.50000000000E+03 0. -1.
    -200001    1    1    2    0    0  0.46645728467E+03 -0.16333557345E+03 -0.16801726544E+02  0.85705496089E+03  0.70000000000E+03 0. -1.
<mgrwt>
<rscale>  0 0.17563745E+04</rscale>
<asrwt>0</asrwt>
<pdfrwt beam="1">  1        4 0.98472740E-01 0.17563745E+04</pdfrwt>
<pdfrwt beam="2">  1       -4 0.15983142E+00 0.17563745E+04</pdfrwt>
<totfact> 0.41027065E-01</totfact>
</mgrwt>
</event>
<event>
 8    1  0.5217667E-029  0.2047915E+04  0.7818608E-02  0.8584541E-01
         -4   -1    0    0    0  501 -0.00000000000E+00  0.00000000000E+00  0.23084086042E+04  0.23084089535E+04  0.12700000000E+01 0. -1.
          4   -1    0    0  501    0  0.00000000000E+00 -0.00000000000E+00 -0.45420301381E+03  0.45420478934E+03  0.12700000000E+01 0.  1.
     200001    2    1    2    0    0  0.22586247042E+03  0.67338639893E+03  0.61053227788E+03  0.11685038326E+04  0.69870483515E+03 0.  0.
    5000001    2    3    3    0    0  0.10732194958E+02  0.17930253268E+03  0.11541245190E+03  0.28219488851E+03  0.18452464012E+03 0.  0.
        -13    1    4    4    0    0  0.56948551791E+02 -0.48159406229E+01  0.58442173077E+02  0.81742458937E+02  0.10566000000E+00 0. -1.
     200003    1    4    4    0    0 -0.46216356833E+02  0.18411847331E+03  0.56970278824E+02  0.20045242957E+03  0.30000000000E+02 0. -1.
     200000    1    3    3    0    0  0.21513027546E+03  0.49408386624E+03  0.49511982598E+03  0.88630894409E+03  0.50000000000E+03 0. -1.
    -200001    1    1    2    0    0 -0.22586247042E+03 -0.67338639893E+03  0.12436733125E+04  0.15941099102E+04  0.70000000000E+03 0. -1.
<mgrwt>
<rscale>  0 0.20479151E+04</rscale>
<asrwt>0</asrwt>
<pdfrwt beam="1">  1        4 0.64886297E-01 0.20479151E+04</pdfrwt>
<pdfrwt beam="2">  1       -4 0.32977281E+00 0.20479151E+04</pdfrwt>
<totfact> 0.82828215E-02</totfact>
</mgrwt>
</event>
<event>
 8    1  0.5217667E-029  0.1699727E+04  0.7818608E-02  0.8761520E-01
          4   -1    0    0  501    0  0.00000000000E+00  0.00000000000E+00  0.14342471698E+04  0.14342477320E+04  0.12700000000E+01 0.  1.
         -4   -1    0    0    0  501 -0.00000000000E+00 -0.00000000000E+00 -0.50358515957E+03  0.50358676098E+03  0.12700000000E+01 0. -1.
     200001    2    1    2    0    0  0.45183045312E+03 -0.97996309577E+02  0.61618973393E+03  0.10419288911E+04  0.70154970657E+03 0.  0.
    5000001    2    3    3    0    0  0.10661164746E+03  0.82554392774E+02  0.13933946724E+03  0.24873234749E+03  0.15579159932E+03 0.  0.
        -13    1    4    4    0    0  0.45375446418E+02 -0.38046103342E+02  0.11711368230E+02  0.60362276522E+02  0.10566000000E+00 0. -1.
     200003    1    4    4    0    0  0.61236201044E+02  0.12060049612E+03  0.12762809901E+03  0.18837007097E+03  0.30000000000E+02 0. -1.
     200000    1    3    3    0    0  0.34521880566E+03 -0.18055070235E+03  0.47685026670E+03  0.79319654358E+03  0.50000000000E+03 0.  1.
    -200001    1    1    2    0    0 -0.45183045312E+03  0.97996309577E+02  0.31447227626E+03  0.89590560194E+03  0.70000000000E+03 0. -1.
<mgrwt>
<rscale>  0 0.16997267E+04</rscale>
<asrwt>0</asrwt>
<pdfrwt beam="1">  1        4 0.20489261E+00 0.16997267E+04</pdfrwt>
<pdfrwt beam="2">  1       -4 0.71940891E-01 0.16997267E+04</pdfrwt>
<totfact> 0.41250732E-01</totfact>
</mgrwt>
</event>
<event>
 8    1  0.5217667E-029  0.1520794E+04  0.7818608E-02  0.8870741E-01
         -4   -1    0    0    0  501 -0.00000000000E+00  0.00000000000E+00  0.67006101022E+03  0.67006221377E+03  0.12700000000E+01 0. -1.
          4   -1    0    0  501    0  0.00000000000E+00 -0.00000000000E+00 -0.86290988633E+03  0.86291082090E+03  0.12700000000E+01 0.  1.
     200001    2    1    2    0    0  0.17306674661E+03 -0.18357215248E+03  0.54228015755E+02  0.74894636137E+03  0.70308544330E+03 0.  0.
    5000001    2    3    3    0    0  0.14769095942E+03  0.79909792600E+01  0.18396460784E+02  0.21170873765E+03  0.15035186924E+03 0.  0.
        -13    1    4    4    0    0  0.13101989393E+02 -0.43961768152E+01 -0.53814790673E+02  0.55561059708E+02  0.10566000000E+00 0. -1.
     200003    1    4    4    0    0  0.13458897003E+03  0.12387156075E+02  0.72211251457E+02  0.15614767794E+03  0.30000000000E+02 0. -1.
     200000    1    3    3    0    0  0.25375787188E+02 -0.19156313174E+03  0.35831554971E+02  0.53723762373E+03  0.50000000000E+03 0.  1.
    -200001    1    1    2    0    0 -0.17306674661E+03  0.18357215248E+03 -0.24707689187E+03  0.78402667330E+03  0.70000000000E+03 0.  1.
<mgrwt>
<rscale>  0 0.15207944E+04</rscale>
<asrwt>0</asrwt>
<pdfrwt beam="1">  1        4 0.12327299E+00 0.15207944E+04</pdfrwt>
<pdfrwt beam="2">  1       -4 0.95723154E-01 0.15207944E+04</pdfrwt>
<totfact> 0.87980212E-01</totfact>
</mgrwt>
</event>
<event>
 8    1  0.5217667E-029  0.1897120E+04  0.7818608E-02  0.8656291E-01
         -4   -1    0    0    0  501 -0.00000000000E+00  0.00000000000E+00  0.18860060926E+04  0.18860065202E+04  0.12700000000E+01 0. -1.
          4   -1    0    0  501    0  0.00000000000E+00 -0.00000000000E+00 -0.47707353394E+03  0.47707522435E+03  0.12700000000E+01 0.  1.
     200001    2    1    2    0    0  0.30901711210E+03  0.23913369758E+02  0.84535899137E+01  0.76702260820E+03  0.70156168187E+03 0.  0.
    5000001    2    3    3    0    0  0.12507361302E+03  0.58517780437E+02  0.36311203988E+02  0.23241179391E+03  0.18338211230E+03 0.  0.
        -13    1    4    4    0    0 -0.51873897844E+01 -0.52680660372E+02 -0.65258811489E+01  0.53336284824E+02  0.10566000000E+00 0. -1.
     200003    1    4    4    0    0  0.13026100281E+03  0.11119844081E+03  0.42837085137E+02  0.17907550908E+03  0.30000000000E+02 0. -1.
     200000    1    3    3    0    0  0.18394349908E+03 -0.34604410678E+02 -0.27857614075E+02  0.53461081429E+03  0.50000000000E+03 0.  1.
    -200001    1    1    2    0    0 -0.30901711210E+03 -0.23913369758E+02  0.14004789688E+04  0.15960591364E+04  0.70000000000E+03 0. -1.
<mgrwt>
<rscale>  0 0.18971200E+04</rscale>
<asrwt>0</asrwt>
<pdfrwt beam="1">  1        4 0.68153514E-01 0.18971200E+04</pdfrwt>
<pdfrwt beam="2">  1       -4 0.26942959E+00 0.18971200E+04</pdfrwt>
<totfact> 0.17953904E-01</totfact>
</mgrwt>
</event>
<event>
 8    1  0.5217667E-029  0.1491295E+04  0.7818608E-02  0.8890262E-01
         -4   -1    0    0    0  501 -0.00000000000E+00  0.00000000000E+00  0.12262159288E+04  0.12262165865E+04  0.12700000000E+01 0. -1.
          4   -1    0    0  501    0  0.00000000000E+00 -0.00000000000E+00 -0.45341806453E+03  0.45341984313E+03  0.12700000000E+01 0.  1.
     200001    2    1    2    0    0  0.31318487766E+02 -0.18766671834E+03  0.58265430907E+03  0.92973362496E+03  0.69908434731E+03 0.  0.
    5000001    2    3    3    0    0  0.35211954815E+02 -0.66465192995E+02  0.28845554126E+03  0.33706349427E+03  0.15731400523E+03 0.  0.
        -13    1    4    4    0    0  0.42498644254E+01 -0.64309586208E+02  0.28670749348E+03  0.29386218233E+03  0.10566000000E+00 0. -1.
     200003    1    4    4    0    0  0.30962090390E+02 -0.21556067863E+01  0.17480477867E+01  0.43201311936E+02  0.30000000000E+02 0. -1.
     200000    1    3    3    0    0 -0.38934670489E+01 -0.12120152534E+03  0.29419876780E+03  0.59267013069E+03  0.50000000000E+03 0. -1.
    -200001    1    1    2    0    0 -0.31318487766E+02  0.18766671834E+03  0.19014355521E+03  0.74990280466E+03  0.70000000000E+03 0. -1.
<mgrwt>
<rscale>  0 0.14912954E+04</rscale>
<asrwt>0</asrwt>
<pdfrwt beam="1">  1        4 0.64774183E-01 0.14912954E+04</pdfrwt>
<pdfrwt beam="2">  1       -4 0.17517388E+00 0.14912954E+04</pdfrwt>
<totfact> 0.83893659E-01</totfact>
</mgrwt>
</event>
<event>
 8    1  0.5217667E-029  0.2418658E+04  0.7818608E-02  0.8432551E-01
         -4   -1    0    0    0  501 -0.00000000000E+00  0.00000000000E+00  0.10854932470E+04  0.10854939899E+04  0.12700000000E+01 0. -1.
          4   -1    0    0  501    0  0.00000000000E+00 -0.00000000000E+00 -0.13472905470E+04  0.13472911455E+04  0.12700000000E+01 0.  1.
     200001    2    1    2    0    0 -0.22054742742E+03  0.29860878307E+03  0.78822291720E+03  0.11173571331E+04  0.69955930595E+03 0.  0.
    5000001    2    3    3    0    0 -0.12805362890E+02  0.30940887665E+02  0.24796485898E+03  0.30699817737E+03  0.17787634404E+03 0.  0.
        -13    1    4    4    0    0 -0.38945859225E+01 -0.57024026869E+02  0.18687907811E+03  0.19542443153E+03  0.10566000000E+00 0. -1.
     200003    1    4    4    0    0 -0.89107769676E+01  0.87964914534E+02  0.61085780865E+02  0.11157374583E+03  0.30000000000E+02 0. -1.
     200000    1    3    3    0    0 -0.20774206453E+03  0.26766789541E+03  0.54025805823E+03  0.81035895570E+03  0.50000000000E+03 0. -1.
    -200001    1    1    2    0    0  0.22054742742E+03 -0.29860878307E+03 -0.10500202172E+04  0.13154280024E+04  0.70000000000E+03 0.  1.
<mgrwt>
<rscale>  0 0.24186578E+04</rscale>
<asrwt>0</asrwt>
<pdfrwt beam="1">  1        4 0.19247017E+00 0.24186578E+04</pdfrwt>
<pdfrwt beam="2">  1       -4 0.15507056E+00 0.24186578E+04</pdfrwt>
<totfact> 0.72865292E-02</totfact>
</mgrwt>
</event>
<event>
 8    1  0.5217667E-029  0.2099564E+04  0.7818608E-02  0.8561436E-01
         -4   -1    0    0    0  501 -0.00000000000E+00  0.00000000000E+00  0.54061588145E+03  0.54061737317E+03  0.12700000000E+01 0. -1.
          4   -1    0    0  501    0  0.00000000000E+00 -0.00000000000E+00 -0.20384891002E+04  0.20384894958E+04  0.12700000000E+01 0.  1.
     200001    2    1    2    0    0  0.77427519712E+03 -0.10544936402E+03 -0.79457951941E+03  0.13160773061E+04  0.70005800733E+03 0.  0.
    5000001    2    3    3    0    0  0.29290528441E+03 -0.49508343075E+02 -0.30298911117E+03  0.46372320115E+03  0.18706208631E+03 0.  0.
        -13    1    4    4    0    0 -0.14595234954E+02  0.53276674277E+00 -0.75238722146E+02  0.76643207122E+02  0.10566000000E+00 0. -1.
     200003    1    4    4    0    0  0.30750051936E+03 -0.50041109818E+02 -0.22775038902E+03  0.38707999403E+03  0.30000000000E+02 0. -1.
     200000    1    3    3    0    0  0.48136991271E+03 -0.55941020948E+02 -0.49159040824E+03  0.85235410491E+03  0.50000000000E+03 0.  1.
    -200001    1    1    2    0    0 -0.77427519712E+03  0.10544936402E+03 -0.70329369934E+03  0.12630295629E+04  0.70000000000E+03 0. -1.
<mgrwt>
<rscale>  0 0.20995638E+04</rscale>
<asrwt>0</asrwt>
<pdfrwt beam="1">  1        4 0.29121286E+00 0.20995638E+04</pdfrwt>
<pdfrwt beam="2">  1       -4 0.77230976E-01 0.20995638E+04</pdfrwt>
<totfact> 0.97898666E-02</totfact>
</mgrwt>
</event>
<event>
 8    1  0.5217667E-029  0.1796036E+04  0.7818608E-02  0.8708410E-01
         -4   -1    0    0    0  501 -0.00000000000E+00  0.00000000000E+00  0.13200820564E+04  0.13200826673E+04  0.12700000000E+01 0. -1.
          4   -1    0    0  501    0  0.00000000000E+00 -0.00000000000E+00 -0.61089714832E+03  0.61089846843E+03  0.12700000000E+01 0.  1.
     200001    2    1    2    0    0 -0.38643808429E+03  0.90476944357E+02  0.78371645723E+03  0.11228503158E+04  0.69932887529E+03 0.  0.
    5000001    2    3    3    0    0 -0.13393028734E+03 -0.28150565967E+02  0.31350366871E+03  0.38195036285E+03  0.16991690074E+03 0.  0.
        -13    1    4    4    0    0 -0.92159785452E+02  0.42663572841E+02  0.70394190336E+02  0.12356763208E+03  0.10566000000E+00 0. -1.
     200003    1    4    4    0    0 -0.41770501890E+02 -0.70814138807E+02  0.24310947837E+03  0.25838273077E+03  0.30000000000E+02 0. -1.
     200000    1    3    3    0    0 -0.25250779695E+03  0.11862751032E+03  0.47021278852E+03  0.74089995290E+03  0.50000000000E+03 0. -1.
    -200001    1    1    2    0    0  0.38643808429E+03 -0.90476944357E+02 -0.74531549117E+02  0.80813082002E+03  0.70000000000E+03 0. -1.
<mgrwt>
<rscale>  0 0.17960359E+04</rscale>
<asrwt>0</asrwt>
<pdfrwt beam="1">  1        4 0.87271160E-01 0.17960359E+04</pdfrwt>
<pdfrwt beam="2">  1       -4 0.18858329E+00 0.17960359E+04</pdfrwt>
<totfact> 0.33944092E-01</totfact>
</mgrwt>
</event>
<event>
 8    1  0.5217667E-029  0.1979190E+04  0.7818608E-02  0.8616412E-01
          4   -1    0    0  501    0  0.00000000000E+00  0.00000000000E+00  0.10255002742E+04  0.10255010606E+04  0.12700000000E+01 0.  1.
         -4   -1    0    0    0  501 -0.00000000000E+00 -0.00000000000E+00 -0.95494541609E+03  0.95494626059E+03  0.12700000000E+01 0. -1.
     200001    2    1    2    0    0 -0.84762297036E+00 -0.63851691148E+03 -0.25168012365E+03  0.97967764332E+03  0.69908571396E+03 0.  0.
    5000001    2    3    3    0    0 -0.22660073028E+02 -0.23057630249E+03 -0.14393731851E+03  0.32507865500E+03  0.17685946426E+03 0.  0.
        -13    1    4    4    0    0 -0.10299449847E+02 -0.10929882615E+03 -0.16459454365E+03  0.19784763589E+03  0.10566000000E+00 0. -1.
     200003    1    4    4    0    0 -0.12360623181E+02 -0.12127747634E+03  0.20657225141E+02  0.12723101911E+03  0.30000000000E+02 0. -1.
     200000    1    3    3    0    0  0.21812450057E+02 -0.40794060899E+03 -0.10774280514E+03  0.65459898831E+03  0.50000000000E+03 0. -1.
    -200001    1    1    2    0    0  0.84762297036E+00  0.63851691148E+03  0.32223498178E+03  0.10007696779E+04  0.70000000000E+03 0.  1.
<mgrwt>
<rscale>  0 0.19791901E+04</rscale>
<asrwt>0</asrwt>
<pdfrwt beam="1">  1        4 0.14650016E+00 0.19791901E+04</pdfrwt>
<pdfrwt beam="2">  1       -4 0.13642089E+00 0.19791901E+04</pdfrwt>
<totfact> 0.22762987E-01</totfact>
</mgrwt>
</event>
<event>
 8    1  0.5217667E-029  0.1504852E+04  0.7818608E-02  0.8881233E-01
         -4   -1    0    0    0  501 -0.00000000000E+00  0.00000000000E+00  0.50483103306E+03  0.50483263052E+03  0.12700000000E+01 0. -1.
          4   -1    0    0  501    0  0.00000000000E+00 -0.00000000000E+00 -0.11214505293E+04  0.11214512484E+04  0.12700000000E+01 0.  1.
     200001    2    1    2    0    0 -0.11121991487E+01  0.19922242590E+03 -0.10326253958E+03  0.73565141999E+03  0.70059192665E+03 0.  0.
    5000001    2    3    3    0    0 -0.48616575839E+02  0.82095677615E+02 -0.13652058265E+02  0.21219618854E+03  0.18904383621E+03 0.  0.
        -13    1    4    4    0    0  0.46579927522E+02  0.86789845343E+02 -0.43837682526E+02  0.10781428697E+03  0.10566000000E+00 0. -1.
     200003    1    4    4    0    0 -0.95196503361E+02 -0.46941677283E+01  0.30185624261E+02  0.10438190157E+03  0.30000000000E+02 0. -1.
     200000    1    3    3    0    0  0.47504376691E+02  0.11712674828E+03 -0.89610481319E+02  0.52345523145E+03  0.50000000000E+03 0.  1.
    -200001    1    1    2    0    0  0.11121991487E+01 -0.19922242590E+03 -0.51335695663E+03  0.89063245893E+03  0.70000000000E+03 0.  1.
<mgrwt>
<rscale>  0 0.15048520E+04</rscale>
<asrwt>0</asrwt>
<pdfrwt beam="1">  1        4 0.16020738E+00 0.15048520E+04</pdfrwt>
<pdfrwt beam="2">  1       -4 0.72118885E-01 0.15048520E+04</pdfrwt>
<totfact> 0.84859671E-01</totfact>
</mgrwt>
</event>
<event>
 8    1  0.5217667E-029  0.1605749E+04  0.7818608E-02  0.8817024E-01
         -4   -1    0    0    0  501 -0.00000000000E+00  0.00000000000E+00  0.17711772189E+04  0.17711776743E+04  0.12700000000E+01 0. -1.
          4   -1    0    0  501    0  0.00000000000E+00 -0.00000000000E+00 -0.36394114081E+03  0.36394335669E+03  0.12700000000E+01 0.  1.
     200001    2    1    2    0    0 -0.97634925868E+02 -0.35898924869E+03  0.54214694267E+03  0.96175618074E+03  0.70188730172E+03 0.  0.
    5000001    2    3    3    0    0 -0.26996239441E+02 -0.66369960759E+02  0.23827945713E+03  0.30376581572E+03  0.17424925387E+03 0.  0.
        -13    1    4    4    0    0  0.32886894038E+00 -0.98289033374E+02  0.23174290332E+03  0.25172529996E+03  0.10566000000E+00 0. -1.
     200003    1    4    4    0    0 -0.27325108382E+02  0.31919072616E+02  0.65365538103E+01  0.52040515759E+02  0.30000000000E+02 0. -1.
     200000    1    3    3    0    0 -0.70638686427E+02 -0.29261928793E+03  0.30386748553E+03  0.65799036501E+03  0.50000000000E+03 0.  1.
    -200001    1    1    2    0    0  0.97634925868E+02  0.35898924869E+03  0.86508913546E+03  0.11733648502E+04  0.70000000000E+03 0.  1.
<mgrwt>
<rscale>  0 0.16057486E+04</rscale>
<asrwt>0</asrwt>
<pdfrwt beam="1">  1        4 0.51991782E-01 0.16057486E+04</pdfrwt>
<pdfrwt beam="2">  1       -4 0.25302551E+00 0.16057486E+04</pdfrwt>
<totfact> 0.41549795E-01</totfact>
</mgrwt>
</event>
<event>
 8    1  0.5217667E-029  0.1448222E+04  0.7818608E-02  0.8919634E-01
         -4   -1    0    0    0  501 -0.00000000000E+00  0.00000000000E+00  0.82409969939E+03  0.82410067798E+03  0.12700000000E+01 0. -1.
          4   -1    0    0  501    0  0.00000000000E+00 -0.00000000000E+00 -0.63625233256E+03  0.63625360006E+03  0.12700000000E+01 0.  1.
     200001    2    1    2    0    0  0.16402132848E+03  0.84893358997E+01  0.18048421692E+03  0.74130679629E+03  0.69999010611E+03 0.  0.
    5000001    2    3    3    0    0 -0.78722068235E+02 -0.19933617031E+01  0.10096234411E+03  0.17973937216E+03  0.12614162460E+03 0.  0.
        -13    1    4    4    0    0  0.38440038997E+01  0.41913671574E+00  0.91240877480E+02  0.91322839032E+02  0.10566000000E+00 0. -1.
     200003    1    4    4    0    0 -0.82566072134E+02 -0.24124984189E+01  0.97214666345E+01  0.88416533125E+02  0.30000000000E+02 0. -1.
     200000    1    3    3    0    0  0.24274339671E+03  0.10482697603E+02  0.79521872805E+02  0.56156742414E+03  0.50000000000E+03 0. -1.
    -200001    1    1    2    0    0 -0.16402132848E+03 -0.84893358997E+01  0.73631499168E+01  0.71904748174E+03  0.70000000000E+03 0.  1.
<mgrwt>
<rscale>  0 0.14482224E+04</rscale>
<asrwt>0</asrwt>
<pdfrwt beam="1">  1        4 0.90893351E-01 0.14482224E+04</pdfrwt>
<pdfrwt beam="2">  1       -4 0.11772869E+00 0.14482224E+04</pdfrwt>
<totfact> 0.11197616E+00</totfact>
</mgrwt>
</event>
<event>
 8    1  0.5217667E-029  0.1486375E+04  0.7818608E-02  0.8893564E-01
         -4   -1    0    0    0  501 -0.00000000000E+00  0.00000000000E+00  0.79880315531E+03  0.79880416488E+03  0.12700000000E+01 0. -1.
          4   -1    0    0  501    0  0.00000000000E+00 -0.00000000000E+00 -0.69144222709E+03  0.69144339342E+03  0.12700000000E+01 0.  1.
     200001    2    1    2    0    0  0.68729277162E+01  0.11098238865E+03 -0.17047664739E+03  0.72896045993E+03  0.69996909725E+03 0.  0.
    5000001    2    3    3    0    0 -0.57651097037E+02 -0.13797467254E+02 -0.13944901262E+03  0.20867584904E+03  0.14347670110E+03 0.  0.
        -13    1    4    4    0    0 -0.24261018294E+02 -0.23569966099E+02 -0.15616783411E+03  0.15978906059E+03  0.10566000000E+00 0. -1.
     200003    1    4    4    0    0 -0.33390078744E+02  0.97724988449E+01  0.16718821492E+02  0.48886788443E+02  0.30000000000E+02 0.  1.
     200000    1    3    3    0    0  0.64524024754E+02  0.12477985590E+03 -0.31027634772E+02  0.52028461089E+03  0.50000000000E+03 0.  1.
    -200001    1    1    2    0    0 -0.68729277162E+01 -0.11098238865E+03  0.27783757561E+03  0.76128709837E+03  0.70000000000E+03 0. -1.
<mgrwt>
<rscale>  0 0.14863753E+04</rscale>
<asrwt>0</asrwt>
<pdfrwt beam="1">  1        4 0.98777617E-01 0.14863753E+04</pdfrwt>
<pdfrwt beam="2">  1       -4 0.11411489E+00 0.14863753E+04</pdfrwt>
<totfact> 0.99161840E-01</totfact>
</mgrwt>
</event>
<event>
 8    1  0.5217667E-029  0.1469448E+04  0.7818608E-02  0.8905028E-01
         -4   -1    0    0    0  501 -0.00000000000E+00  0.00000000000E+00  0.13765836222E+04  0.13765842080E+04  0.12700000000E+01 0. -1.
          4   -1    0    0  501    0  0.00000000000E+00 -0.00000000000E+00 -0.39214235301E+03  0.39214440953E+03  0.12700000000E+01 0.  1.
     200001    2    1    2    0    0 -0.45774624002E+02  0.16500386091E+03  0.66456883985E+03  0.98028714136E+03  0.69999253303E+03 0.  0.
    5000001    2    3    3    0    0 -0.24683199729E+02  0.51490904599E+02  0.29781886321E+03  0.34954505081E+03  0.17385365585E+03 0.  0.
        -13    1    4    4    0    0 -0.10549899202E+02  0.71250042877E+02  0.30222716684E+03  0.31069139113E+03  0.10566000000E+00 0. -1.
     200003    1    4    4    0    0 -0.14133300527E+02 -0.19759138279E+02 -0.44083036286E+01  0.38853659675E+02  0.30000000000E+02 0. -1.
     200000    1    3    3    0    0 -0.21091424274E+02  0.11351295631E+03  0.36674997664E+03  0.63074209055E+03  0.50000000000E+03 0.  1.
    -200001    1    1    2    0    0  0.45774624002E+02 -0.16500386091E+03  0.31987242932E+03  0.78844147618E+03  0.70000000000E+03 0.  1.
<mgrwt>
<rscale>  0 0.14694476E+04</rscale>
<asrwt>0</asrwt>
<pdfrwt beam="1">  1        4 0.56020525E-01 0.14694476E+04</pdfrwt>
<pdfrwt beam="2">  1       -4 0.19665499E+00 0.14694476E+04</pdfrwt>
<totfact> 0.81890261E-01</totfact>
</mgrwt>
</event>
<event>
 8    1  0.5217667E-029  0.1526546E+04  0.7818608E-02  0.8866990E-01
          4   -1    0    0  501    0  0.00000000000E+00  0.00000000000E+00  0.52440813363E+03  0.52440967146E+03  0.12700000000E+01 0.  1.
         -4   -1    0    0    0  501 -0.00000000000E+00 -0.00000000000E+00 -0.11109358704E+04  0.11109365963E+04  0.12700000000E+01 0. -1.
     200001    2    1    2    0    0 -0.16875906909E+03  0.25248408165E+03 -0.31429252079E+03  0.82519822714E+03  0.69996034928E+03 0.  0.
    5000001    2    3    3    0    0 -0.11442628345E+03  0.65595707250E+02 -0.13102871993E+03  0.25821944730E+03  0.17919985035E+03 0.  0.
        -13    1    4    4    0    0  0.37574514884E+02 -0.20409624304E+02 -0.41887279752E+02  0.59857767266E+02  0.10566000000E+00 0. -1.
     200003    1    4    4    0    0 -0.15200079833E+03  0.86005331555E+02 -0.89141440178E+02  0.19836168004E+03  0.30000000000E+02 0. -1.
     200000    1    3    3    0    0 -0.54332785645E+02  0.18688837440E+03 -0.18326380086E+03  0.56697877984E+03  0.50000000000E+03 0.  1.
    -200001    1    1    2    0    0  0.16875906909E+03 -0.25248408165E+03 -0.27223521595E+03  0.81014804060E+03  0.70000000000E+03 0. -1.
<mgrwt>
<rscale>  0 0.15265460E+04</rscale>
<asrwt>0</asrwt>
<pdfrwt beam="1">  1        4 0.74915610E-01 0.15265460E+04</pdfrwt>
<pdfrwt beam="2">  1       -4 0.15870528E+00 0.15265460E+04</pdfrwt>
<totfact> 0.79865146E-01</totfact>
</mgrwt>
</event>
<event>
 8    1  0.5217667E-029  0.1576353E+04  0.7818608E-02  0.8835208E-01
          4   -1    0    0  501    0  0.00000000000E+00  0.00000000000E+00  0.77950048566E+03  0.77950152023E+03  0.12700000000E+01 0.  1.
         -4   -1    0    0    0  501 -0.00000000000E+00 -0.00000000000E+00 -0.79694716910E+03  0.79694818103E+03  0.12700000000E+01 0. -1.
     200001    2    1    2    0    0 -0.12177016804E+03  0.75792971207E+02 -0.34114356526E+03  0.79200580932E+03  0.70022976341E+03 0.  0.
    5000001    2    3    3    0    0  0.11523301098E+02 -0.31099538745E+02 -0.63525016220E+02  0.19512624327E+03  0.18149064810E+03 0.  0.
        -13    1    4    4    0    0 -0.31731469923E+02 -0.95888635691E+02 -0.33525790414E+02  0.10642136263E+03  0.10566000000E+00 0. -1.
     200003    1    4    4    0    0  0.43254771020E+02  0.64789096945E+02 -0.29999225805E+02  0.88704880632E+02  0.30000000000E+02 0. -1.
     200000    1    3    3    0    0 -0.13329346914E+03  0.10689250995E+03 -0.27761854904E+03  0.59687956605E+03  0.50000000000E+03 0. -1.
    -200001    1    1    2    0    0  0.12177016804E+03 -0.75792971207E+02  0.32369688182E+03  0.78444389194E+03  0.70000000000E+03 0.  1.
<mgrwt>
<rscale>  0 0.15763532E+04</rscale>
<asrwt>0</asrwt>
<pdfrwt beam="1">  1        4 0.11135736E+00 0.15763532E+04</pdfrwt>
<pdfrwt beam="2">  1       -4 0.11384974E+00 0.15763532E+04</pdfrwt>
<totfact> 0.74213115E-01</totfact>
</mgrwt>
</event>
<event>
 8    1  0.5217667E-029  0.2047924E+04  0.7818608E-02  0.8584537E-01
         -4   -1    0    0    0  501 -0.00000000000E+00  0.00000000000E+00  0.51931468598E+03  0.51931623889E+03  0.12700000000E+01 0. -1.
          4   -1    0    0  501    0  0.00000000000E+00 -0.00000000000E+00 -0.20189989746E+04  0.20189993740E+04  0.12700000000E+01 0.  1.
     200001    2    1    2    0    0 -0.56858539028E+02  0.68030468215E+03 -0.37350800398E+03  0.10469000511E+04  0.70031716666E+03 0.  0.
    5000001    2    3    3    0    0 -0.10288160036E+02  0.26493316741E+03 -0.38721772203E+02  0.31424452736E+03  0.16417922494E+03 0.  0.
        -13    1    4    4    0    0 -0.58182402162E+02  0.25925803294E+02  0.81412094973E+01  0.64215493877E+02  0.10566000000E+00 0. -1.
     200003    1    4    4    0    0  0.47894242126E+02  0.23900736412E+03 -0.46862981700E+02  0.25002903348E+03  0.30000000000E+02 0. -1.
     200000    1    3    3    0    0 -0.46570378992E+02  0.41537151474E+03 -0.33478623178E+03  0.73265552372E+03  0.50000000000E+03 0. -1.
    -200001    1    1    2    0    0  0.56858539028E+02 -0.68030468215E+03 -0.11261762846E+04  0.14914155618E+04  0.70000000000E+03 0.  1.
<mgrwt>
<rscale>  0 0.20479241E+04</rscale>
<asrwt>0</asrwt>
<pdfrwt beam="1">  1        4 0.28842856E+00 0.20479241E+04</pdfrwt>
<pdfrwt beam="2">  1       -4 0.74187952E-01 0.20479241E+04</pdfrwt>
<totfact> 0.11199952E-01</totfact>
</mgrwt>
</event>
<event>
 8    1  0.5217667E-029  0.1953674E+04  0.7818608E-02  0.8628591E-01
         -4   -1    0    0    0  501 -0.00000000000E+00  0.00000000000E+00  0.11275848151E+04  0.11275855303E+04  0.12700000000E+01 0. -1.
          4   -1    0    0  501    0  0.00000000000E+00 -0.00000000000E+00 -0.84624166644E+03  0.84624261942E+03  0.12700000000E+01 0.  1.
     200001    2    1    2    0    0 -0.67795624216E+03 -0.66998396154E+02  0.13636728586E+03  0.98634070569E+03  0.70011320490E+03 0.  0.
    5000001    2    3    3    0    0 -0.28949371609E+03  0.55732457393E+01  0.15240211814E+03  0.34882451514E+03  0.12089029748E+03 0.  0.
        -13    1    4    4    0    0 -0.99091057421E+01  0.91422687469E+01 -0.16094964346E+02  0.20995963797E+02  0.10566000000E+00 0. -1.
     200003    1    4    4    0    0 -0.27958461035E+03 -0.35690230076E+01  0.16849708248E+03  0.32782855134E+03  0.30000000000E+02 0. -1.
     200000    1    3    3    0    0 -0.38846252607E+03 -0.72571641893E+02 -0.16034832275E+02  0.63751619055E+03  0.50000000000E+03 0.  1.
    -200001    1    1    2    0    0  0.67795624216E+03  0.66998396154E+02  0.14497586283E+03  0.98748744406E+03  0.70000000000E+03 0. -1.
<mgrwt>
<rscale>  0 0.19536744E+04</rscale>
<asrwt>0</asrwt>
<pdfrwt beam="1">  1        4 0.12089179E+00 0.19536744E+04</pdfrwt>
<pdfrwt beam="2">  1       -4 0.16108366E+00 0.19536744E+04</pdfrwt>
<totfact> 0.24006796E-01</totfact>
</mgrwt>
</event>
<event>
 8    1  0.5217667E-029  0.1969253E+04  0.7818608E-02  0.8621132E-01
          4   -1    0    0  501    0  0.00000000000E+00  0.00000000000E+00  0.18440604643E+04  0.18440609016E+04  0.12700000000E+01 0. -1.
         -4   -1    0    0    0  501 -0.00000000000E+00 -0.00000000000E+00 -0.52573482593E+03  0.52573635988E+03  0.12700000000E+01 0.  1.
     200001    2    1    2    0    0  0.30209859789E+02  0.42993675428E+03  0.69237797041E+01  0.82204628566E+03  0.69996707690E+03 0.  0.
    5000001    2    3    3    0    0  0.59033281051E+02  0.98838280539E+02 -0.62540787459E+02  0.21766038657E+03  0.17381242711E+03 0.  0.
        -13    1    4    4    0    0 -0.69893733656E+01 -0.37069722488E+02 -0.50653586685E+02  0.63157047694E+02  0.10566000000E+00 0. -1.
     200003    1    4    4    0    0  0.66022654417E+02  0.13590800303E+03 -0.11887200774E+02  0.15450333888E+03  0.30000000000E+02 0. -1.
     200000    1    3    3    0    0 -0.28823421263E+02  0.33109847374E+03  0.69464567163E+02  0.60438589909E+03  0.50000000000E+03 0.  1.
    -200001    1    1    2    0    0 -0.30209859789E+02 -0.42993675428E+03  0.13114018587E+04  0.15477509758E+04  0.70000000000E+03 0. -1.
<mgrwt>
<rscale>  0 0.19692528E+04</rscale>
<asrwt>0</asrwt>
<pdfrwt beam="1">  1        4 0.26343735E+00 0.19692528E+04</pdfrwt>
<pdfrwt beam="2">  1       -4 0.75105116E-01 0.19692528E+04</pdfrwt>
<totfact> 0.15662852E-01</totfact>
</mgrwt>
</event>
<event>
 8    1  0.5217667E-029  0.1877451E+04  0.7818608E-02  0.8666163E-01
         -4   -1    0    0    0  501 -0.00000000000E+00  0.00000000000E+00  0.30036710145E+03  0.30036978632E+03  0.12700000000E+01 0. -1.
          4   -1    0    0  501    0  0.00000000000E+00 -0.00000000000E+00 -0.29337452943E+04  0.29337455692E+04  0.12700000000E+01 0.  1.
     200001    2    1    2    0    0  0.56717708439E+03  0.25185263597E+03 -0.11807591348E+04  0.15063359358E+04  0.69981156164E+03 0.  0.
    5000001    2    3    3    0    0  0.10853232512E+03 -0.23272178289E+02 -0.31836126923E+03  0.37506286658E+03  0.16430884414E+03 0.  0.
        -13    1    4    4    0    0  0.13091434844E+03 -0.58783405019E+02 -0.26145320965E+03  0.29824796284E+03  0.10566000000E+00 0. -1.
     200003    1    4    4    0    0 -0.22382023327E+02  0.35511226729E+02 -0.56908059576E+02  0.76814903741E+02  0.30000000000E+02 0. -1.
     200000    1    3    3    0    0  0.45864475928E+03  0.27512481426E+03 -0.86239786553E+03  0.11312730692E+04  0.50000000000E+03 0. -1.
    -200001    1    1    2    0    0 -0.56717708439E+03 -0.25185263597E+03 -0.14526190580E+04  0.17277794197E+04  0.70000000000E+03 0. -1.
<mgrwt>
<rscale>  0 0.18774508E+04</rscale>
<asrwt>0</asrwt>
<pdfrwt beam="1">  1        4 0.41910666E+00 0.18774508E+04</pdfrwt>
<pdfrwt beam="2">  1       -4 0.42909799E-01 0.18774508E+04</pdfrwt>
<totfact> 0.50294946E-02</totfact>
</mgrwt>
</event>
<event>
 8    1  0.5217667E-029  0.1589032E+04  0.7818608E-02  0.8827315E-01
         -4   -1    0    0    0  501 -0.00000000000E+00  0.00000000000E+00  0.73782664884E+03  0.73782774185E+03  0.12700000000E+01 0. -1.
          4   -1    0    0  501    0  0.00000000000E+00 -0.00000000000E+00 -0.85555879605E+03  0.85555973865E+03  0.12700000000E+01 0.  1.
     200001    2    1    2    0    0  0.18330707352E+03  0.16150662540E+03  0.22737520201E+03  0.77559474653E+03  0.70011560124E+03 0.  0.
    5000001    2    3    3    0    0  0.29843272554E+02 -0.11817834677E+02 -0.65232186048E+01  0.17701227281E+03  0.17395548342E+03 0.  0.
        -13    1    4    4    0    0 -0.38342442612E+02 -0.45472554815E+02 -0.55806860998E+02  0.81561713109E+02  0.10566000000E+00 0. -1.
     200003    1    4    4    0    0  0.68185715165E+02  0.33654720138E+02  0.49283642393E+02  0.95450559704E+02  0.30000000000E+02 0. -1.
     200000    1    3    3    0    0  0.15346380097E+03  0.17332446008E+03  0.23389842062E+03  0.59858247371E+03  0.50000000000E+03 0. -1.
    -200001    1    1    2    0    0 -0.18330707352E+03 -0.16150662540E+03 -0.34510734922E+03  0.81779273397E+03  0.70000000000E+03 0.  1.
<mgrwt>
<rscale>  0 0.15890320E+04</rscale>
<asrwt>0</asrwt>
<pdfrwt beam="1">  1        4 0.12222283E+00 0.15890320E+04</pdfrwt>
<pdfrwt beam="2">  1       -4 0.10540395E+00 0.15890320E+04</pdfrwt>
<totfact> 0.71070609E-01</totfact>
</mgrwt>
</event>
<event>
 8    1  0.5217667E-029  0.1718226E+04  0.7818608E-02  0.8751037E-01
         -4   -1    0    0    0  501 -0.00000000000E+00  0.00000000000E+00  0.48032064408E+03  0.48032232306E+03  0.12700000000E+01 0. -1.
          4   -1    0    0  501    0  0.00000000000E+00 -0.00000000000E+00 -0.15366262684E+04  0.15366267932E+04  0.12700000000E+01 0.  1.
     200001    2    1    2    0    0 -0.26874823312E+03  0.30010959734E+03 -0.18410834252E+03  0.82824415643E+03  0.69985792676E+03 0.  0.
    5000001    2    3    3    0    0 -0.19577450128E+03  0.80927941451E+02 -0.66394809520E+02  0.26501929931E+03  0.14474104884E+03 0.  0.
        -13    1    4    4    0    0 -0.11125282242E+03  0.11393074421E+03 -0.26368789234E+02  0.16140857840E+03  0.10566000000E+00 0. -1.
     200003    1    4    4    0    0 -0.84521678862E+02 -0.33002802759E+02 -0.40026020285E+02  0.10361072091E+03  0.30000000000E+02 0. -1.
     200000    1    3    3    0    0 -0.72973731841E+02  0.21918165589E+03 -0.11771353300E+03  0.56322485711E+03  0.50000000000E+03 0.  1.
    -200001    1    1    2    0    0  0.26874823312E+03 -0.30010959734E+03 -0.87219728181E+03  0.11887049599E+04  0.70000000000E+03 0.  1.
<mgrwt>
<rscale>  0 0.17182265E+04</rscale>
<asrwt>0</asrwt>
<pdfrwt beam="1">  1        4 0.21951819E+00 0.17182265E+04</pdfrwt>
<pdfrwt beam="2">  1       -4 0.68617393E-01 0.17182265E+04</pdfrwt>
<totfact> 0.36794926E-01</totfact>
</mgrwt>
</event>
<event>
 8    1  0.5217667E-029  0.1805539E+04  0.7818608E-02  0.8703359E-01
         -4   -1    0    0    0  501 -0.00000000000E+00  0.00000000000E+00  0.50533971440E+03  0.50534131026E+03  0.12700000000E+01 0. -1.
          4   -1    0    0  501    0  0.00000000000E+00 -0.00000000000E+00 -0.16127586553E+04  0.16127591554E+04  0.12700000000E+01 0.  1.
     200001    2    1    2    0    0  0.13033830901E+03  0.37591882780E+03 -0.10322673132E+04  0.13094282162E+04  0.70051652914E+03 0.  0.
    5000001    2    3    3    0    0  0.95629030717E+02  0.93610015810E+02 -0.14123898940E+03  0.24884607740E+03  0.15513920051E+03 0.  0.
        -13    1    4    4    0    0  0.54292087342E+02  0.71027136402E+02  0.77486259260E+01  0.89735930492E+02  0.10566000000E+00 0. -1.
     200003    1    4    4    0    0  0.41336943374E+02  0.22582879408E+02 -0.14898761532E+03  0.15911014691E+03  0.30000000000E+02 0. -1.
     200000    1    3    3    0    0  0.34709278292E+02  0.28230881199E+03 -0.89102832377E+03  0.10605821388E+04  0.50000000000E+03 0.  1.
    -200001    1    1    2    0    0 -0.13033830901E+03 -0.37591882780E+03 -0.75151627761E+02  0.80867224946E+03  0.70000000000E+03 0. -1.
<mgrwt>
<rscale>  0 0.18055395E+04</rscale>
<asrwt>0</asrwt>
<pdfrwt beam="1">  1        4 0.23039424E+00 0.18055395E+04</pdfrwt>
<pdfrwt beam="2">  1       -4 0.72191538E-01 0.18055395E+04</pdfrwt>
<totfact> 0.27861128E-01</totfact>
</mgrwt>
</event>
<event>
 8    1  0.5217667E-029  0.1586428E+04  0.7818608E-02  0.8828929E-01
         -4   -1    0    0    0  501 -0.00000000000E+00  0.00000000000E+00  0.16659311882E+04  0.16659316723E+04  0.12700000000E+01 0. -1.
          4   -1    0    0  501    0  0.00000000000E+00 -0.00000000000E+00 -0.37767821984E+03  0.37768035511E+03  0.12700000000E+01 0.  1.
     200001    2    1    2    0    0  0.18729689593E+03 -0.18998839648E+03  0.30810651355E+03  0.80997399666E+03  0.69996609457E+03 0.  0.
    5000001    2    3    3    0    0 -0.30947712402E+02 -0.33190516848E+02  0.27098824749E+02  0.17658501247E+03  0.16848901749E+03 0.  0.
        -13    1    4    4    0    0 -0.92329960376E+02  0.61953757710E+01 -0.19117368842E+01  0.92557388500E+02  0.10566000000E+00 0. -1.
     200003    1    4    4    0    0  0.61382247975E+02 -0.39385892619E+02  0.29010561634E+02  0.84027623970E+02  0.30000000000E+02 0. -1.
     200000    1    3    3    0    0  0.21824460833E+03 -0.15679787963E+03  0.28100768880E+03  0.63338898418E+03  0.50000000000E+03 0.  1.
    -200001    1    1    2    0    0 -0.18729689593E+03  0.18998839648E+03  0.98014645485E+03  0.12336380308E+04  0.70000000000E+03 0. -1.
<mgrwt>
<rscale>  0 0.15864282E+04</rscale>
<asrwt>0</asrwt>
<pdfrwt beam="1">  1        4 0.53954218E-01 0.15864282E+04</pdfrwt>
<pdfrwt beam="2">  1       -4 0.23799036E+00 0.15864282E+04</pdfrwt>
<totfact> 0.47734760E-01</totfact>
</mgrwt>
</event>
<event>
 8    1  0.5217667E-029  0.1405868E+04  0.7818608E-02  0.8949582E-01
          4   -1    0    0  501    0  0.00000000000E+00  0.00000000000E+00  0.46153947100E+03  0.46154121830E+03  0.12700000000E+01 0.  1.
         -4   -1    0    0    0  501 -0.00000000000E+00 -0.00000000000E+00 -0.10705782850E+04  0.10705790383E+04  0.12700000000E+01 0. -1.
     200001    2    1    2    0    0  0.51191884139E+02 -0.82470446972E+01 -0.25004158866E+03  0.74372465124E+03  0.69851051392E+03 0.  0.
    5000001    2    3    3    0    0 -0.17013940137E+02 -0.50857414504E+02 -0.52717247888E+02  0.20021331415E+03  0.18555406805E+03 0.  0.
        -13    1    4    4    0    0  0.31113667775E+02 -0.23145228346E+02  0.59757612098E+02  0.71237246474E+02  0.10566000000E+00 0. -1.
     200003    1    4    4    0    0 -0.48127607911E+02 -0.27712186159E+02 -0.11247485999E+03  0.12897606768E+03  0.30000000000E+02 0. -1.
     200000    1    3    3    0    0  0.68205824276E+02  0.42610369807E+02 -0.19732434077E+03  0.54351133709E+03  0.50000000000E+03 0. -1.
    -200001    1    1    2    0    0 -0.51191884139E+02  0.82470446972E+01 -0.35899722536E+03  0.78839560537E+03  0.70000000000E+03 0. -1.
<mgrwt>
<rscale>  0 0.14058678E+04</rscale>
<asrwt>0</asrwt>
<pdfrwt beam="1">  1        4 0.65934389E-01 0.14058678E+04</pdfrwt>
<pdfrwt beam="2">  1       -4 0.15293993E+00 0.14058678E+04</pdfrwt>
<totfact> 0.11807011E+00</totfact>
</mgrwt>
</event>
<event>
 8    1  0.5217667E-029  0.1800442E+04  0.7818608E-02  0.8706065E-01
         -4   -1    0    0    0  501 -0.00000000000E+00  0.00000000000E+00  0.27409571845E+04  0.27409574787E+04  0.12700000000E+01 0. -1.
          4   -1    0    0  501    0  0.00000000000E+00 -0.00000000000E+00 -0.29566052363E+03  0.29566325124E+03  0.12700000000E+01 0.  1.
     200001    2    1    2    0    0 -0.44727813023E+03 -0.10683652827E+03  0.66414564100E+03  0.10683802149E+04  0.69919602513E+03 0.  0.
    5000001    2    3    3    0    0 -0.17827041126E+03 -0.48454598779E+02  0.31946703662E+03  0.40161418181E+03  0.15845054708E+03 0.  0.
        -13    1    4    4    0    0  0.48167949795E+01 -0.51873855178E+02  0.11040679718E+03  0.12208099931E+03  0.10566000000E+00 0. -1.
     200003    1    4    4    0    0 -0.18308720624E+03  0.34192563992E+01  0.20906023945E+03  0.27953318250E+03  0.30000000000E+02 0. -1.
     200000    1    3    3    0    0 -0.26900771897E+03 -0.58381929489E+02  0.34467860437E+03  0.66676603308E+03  0.50000000000E+03 0.  1.
    -200001    1    1    2    0    0  0.44727813023E+03  0.10683652827E+03  0.17811510198E+04  0.19682405150E+04  0.70000000000E+03 0. -1.
<mgrwt>
<rscale>  0 0.18004415E+04</rscale>
<asrwt>0</asrwt>
<pdfrwt beam="1">  1        4 0.42237433E-01 0.18004415E+04</pdfrwt>
<pdfrwt beam="2">  1       -4 0.39156553E+00 0.18004415E+04</pdfrwt>
<totfact> 0.81643483E-02</totfact>
</mgrwt>
</event>
<event>
 8    1  0.5217667E-029  0.1757456E+04  0.7818608E-02  0.8729257E-01
         -4   -1    0    0    0  501 -0.00000000000E+00  0.00000000000E+00  0.35262302568E+04  0.35262304855E+04  0.12700000000E+01 0. -1.
          4   -1    0    0  501    0  0.00000000000E+00 -0.00000000000E+00 -0.21897491066E+03  0.21897859347E+03  0.12700000000E+01 0.  1.
     200001    2    1    2    0    0  0.11441610956E+03  0.64025379930E+02  0.27482385734E+04  0.28398417239E+04  0.70334590720E+03 0.  0.
    5000001    2    3    3    0    0 -0.20211183986E+02  0.63448366582E+02  0.88828180913E+03  0.90915169026E+03  0.18187368224E+03 0.  0.
        -13    1    4    4    0    0  0.31146958867E+02 -0.52862573144E+02  0.23073358880E+03  0.23875214104E+03  0.10566000000E+00 0. -1.
     200003    1    4    4    0    0 -0.51358142853E+02  0.11631093973E+03  0.65754822033E+03  0.67039954922E+03  0.30000000000E+02 0. -1.
     200000    1    3    3    0    0  0.13462729354E+03  0.57701334766E+00  0.18599567643E+04  0.19306900337E+04  0.50000000000E+03 0. -1.
    -200001    1    1    2    0    0 -0.11441610956E+03 -0.64025379930E+02  0.55901677277E+03  0.90536735508E+03  0.70000000000E+03 0.  1.
<mgrwt>
<rscale>  0 0.17574564E+04</rscale>
<asrwt>0</asrwt>
<pdfrwt beam="1">  1        4 0.31282410E-01 0.17574564E+04</pdfrwt>
<pdfrwt beam="2">  1       -4 0.50374745E+00 0.17574564E+04</pdfrwt>
<totfact> 0.21643149E-02</totfact>
</mgrwt>
</event>
<event>
 8    1  0.5217667E-029  0.1924954E+04  0.7818608E-02  0.8642534E-01
         -4   -1    0    0    0  501 -0.00000000000E+00  0.00000000000E+00  0.58902866317E+03  0.58903003228E+03  0.12700000000E+01 0. -1.
          4   -1    0    0  501    0  0.00000000000E+00 -0.00000000000E+00 -0.15726909454E+04  0.15726914582E+04  0.12700000000E+01 0.  1.
     200001    2    1    2    0    0 -0.37439235806E+03  0.38910810510E+03 -0.64432789572E+02  0.88635581138E+03  0.69992877122E+03 0.  0.
    5000001    2    3    3    0    0 -0.16959421466E+03  0.11179354994E+03 -0.21272212123E+02  0.27749747196E+03  0.18786256806E+03 0.  0.
        -13    1    4    4    0    0  0.31177484743E+02  0.23340652069E+02 -0.39301535328E+02  0.55330312100E+02  0.10566000000E+00 0. -1.
     200003    1    4    4    0    0 -0.20077169941E+03  0.88452897869E+02  0.18029323205E+02  0.22216715986E+03  0.30000000000E+02 0. -1.
     200000    1    3    3    0    0 -0.20479814339E+03  0.27731455517E+03 -0.43160577449E+02  0.60885833943E+03  0.50000000000E+03 0. -1.
    -200001    1    1    2    0    0  0.37439235806E+03 -0.38910810510E+03 -0.91922949271E+03  0.12753656791E+04  0.70000000000E+03 0.  1.
<mgrwt>
<rscale>  0 0.19249541E+04</rscale>
<asrwt>0</asrwt>
<pdfrwt beam="1">  1        4 0.22467027E+00 0.19249541E+04</pdfrwt>
<pdfrwt beam="2">  1       -4 0.84147087E-01 0.19249541E+04</pdfrwt>
<totfact> 0.21217107E-01</totfact>
</mgrwt>
</event>
<event>
 8    1  0.5217667E-029  0.1641199E+04  0.7818608E-02  0.8795630E-01
         -4   -1    0    0    0  501 -0.00000000000E+00  0.00000000000E+00  0.98894768198E+03  0.98894849744E+03  0.12700000000E+01 0. -1.
          4   -1    0    0  501    0  0.00000000000E+00 -0.00000000000E+00 -0.68090730310E+03  0.68090848747E+03  0.12700000000E+01 0.  1.
     200001    2    1    2    0    0  0.15368977787E+03  0.33872984748E+03 -0.62213167499E+02  0.79495919317E+03  0.69980796166E+03 0.  0.
    5000001    2    3    3    0    0  0.22930118433E+02  0.89759730149E+02  0.26505040962E+02  0.21448083149E+03  0.19161657129E+03 0.  0.
        -13    1    4    4    0    0 -0.34994006717E+02  0.10530028698E+02  0.87688566386E+02  0.94998725514E+02  0.10566000000E+00 0. -1.
     200003    1    4    4    0    0  0.57924125149E+02  0.79229701451E+02 -0.61183525424E+02  0.11948210598E+03  0.30000000000E+02 0. -1.
     200000    1    3    3    0    0  0.13075965943E+03  0.24897011733E+03 -0.88718208461E+02  0.58047836167E+03  0.50000000000E+03 0.  1.
    -200001    1    1    2    0    0 -0.15368977787E+03 -0.33872984748E+03  0.37025354638E+03  0.87489779175E+03  0.70000000000E+03 0. -1.
<mgrwt>
<rscale>  0 0.16411988E+04</rscale>
<asrwt>0</asrwt>
<pdfrwt beam="1">  1        4 0.97272616E-01 0.16411988E+04</pdfrwt>
<pdfrwt beam="2">  1       -4 0.14127838E+00 0.16411988E+04</pdfrwt>
<totfact> 0.59241480E-01</totfact>
</mgrwt>
</event>
<event>
 8    1  0.5217667E-029  0.1530817E+04  0.7818608E-02  0.8864215E-01
          4   -1    0    0  501    0  0.00000000000E+00  0.00000000000E+00  0.75442963714E+03  0.75443070609E+03  0.12700000000E+01 0.  1.
         -4   -1    0    0    0  501 -0.00000000000E+00 -0.00000000000E+00 -0.77654450325E+03  0.77654554176E+03  0.12700000000E+01 0. -1.
     200001    2    1    2    0    0  0.29575789751E+03  0.27952490454E+02 -0.97544463761E+02  0.76681415780E+03  0.70016780455E+03 0.  0.
    5000001    2    3    3    0    0  0.78661005160E+02  0.30565348042E+02  0.97112281370E+02  0.18799714344E+03  0.13707784837E+03 0.  0.
        -13    1    4    4    0    0  0.67887880006E+02  0.20496793877E+02  0.12549472138E+03  0.14414513197E+03  0.10566000000E+00 0. -1.
     200003    1    4    4    0    0  0.10773125154E+02  0.10068554165E+02 -0.28382440014E+02  0.43852011467E+02  0.30000000000E+02 0. -1.
     200000    1    3    3    0    0  0.21709689235E+03 -0.26128575884E+01 -0.19465674513E+03  0.57881701436E+03  0.50000000000E+03 0. -1.
    -200001    1    1    2    0    0 -0.29575789751E+03 -0.27952490454E+02  0.75429597654E+02  0.76416209005E+03  0.70000000000E+03 0.  1.
<mgrwt>
<rscale>  0 0.15308165E+04</rscale>
<asrwt>0</asrwt>
<pdfrwt beam="1">  1        4 0.10777581E+00 0.15308165E+04</pdfrwt>
<pdfrwt beam="2">  1       -4 0.11093508E+00 0.15308165E+04</pdfrwt>
<totfact> 0.85893327E-01</totfact>
</mgrwt>
</event>
<event>
 8    1  0.5217667E-029  0.1651212E+04  0.7818608E-02  0.8789690E-01
         -4   -1    0    0    0  501 -0.00000000000E+00  0.00000000000E+00  0.85013400536E+03  0.85013495397E+03  0.12700000000E+01 0. -1.
          4   -1    0    0  501    0  0.00000000000E+00 -0.00000000000E+00 -0.80178362286E+03  0.80178462868E+03  0.12700000000E+01 0.  1.
     200001    2    1    2    0    0 -0.39544037253E+03  0.15510492940E+03 -0.81465169874E+02  0.82289442924E+03  0.70006288319E+03 0.  0.
    5000001    2    3    3    0    0 -0.13849527572E+03  0.70957574666E+02 -0.52091776878E+02  0.25371576107E+03  0.19349991059E+03 0.  0.
        -13    1    4    4    0    0 -0.66617564479E+02  0.43629002181E+02 -0.12190420323E+03  0.14560918810E+03  0.10566000000E+00 0. -1.
     200003    1    4    4    0    0 -0.71877711244E+02  0.27328572484E+02  0.69812426353E+02  0.10810657298E+03  0.30000000000E+02 0. -1.
     200000    1    3    3    0    0 -0.25694509681E+03  0.84147354733E+02 -0.29373392997E+02  0.56917866817E+03  0.50000000000E+03 0.  1.
    -200001    1    1    2    0    0  0.39544037253E+03 -0.15510492940E+03  0.12981555237E+03  0.82902515341E+03  0.70000000000E+03 0. -1.
<mgrwt>
<rscale>  0 0.16512118E+04</rscale>
<asrwt>0</asrwt>
<pdfrwt beam="1">  1        4 0.11454066E+00 0.16512118E+04</pdfrwt>
<pdfrwt beam="2">  1       -4 0.12144785E+00 0.16512118E+04</pdfrwt>
<totfact> 0.58716620E-01</totfact>
</mgrwt>
</event>
<event>
 8    1  0.5217667E-029  0.1674383E+04  0.7818608E-02  0.8776111E-01
         -4   -1    0    0    0  501 -0.00000000000E+00  0.00000000000E+00  0.13363237260E+04  0.13363243295E+04  0.12700000000E+01 0. -1.
          4   -1    0    0  501    0  0.00000000000E+00 -0.00000000000E+00 -0.52448930258E+03  0.52449084017E+03  0.12700000000E+01 0.  1.
     200001    2    1    2    0    0  0.44920288689E+03  0.45912735075E+02  0.31053979913E+03  0.88860762330E+03  0.69949791172E+03 0.  0.
    5000001    2    3    3    0    0  0.10435990595E+03  0.17724913350E+02  0.15920140218E+03  0.26201800865E+03  0.17917362494E+03 0.  0.
        -13    1    4    4    0    0  0.46682317840E+02  0.33150799904E+02 -0.27647253643E+02  0.63581413410E+02  0.10566000000E+00 0. -1.
     200003    1    4    4    0    0  0.57677588115E+02 -0.15425886554E+02  0.18684865582E+03  0.19843659524E+03  0.30000000000E+02 0. -1.
     200000    1    3    3    0    0  0.34484298094E+03  0.28187821724E+02  0.15133839696E+03  0.62658961465E+03  0.50000000000E+03 0.  1.
    -200001    1    1    2    0    0 -0.44920288689E+03 -0.45912735075E+02  0.50129462426E+03  0.97220754633E+03  0.70000000000E+03 0. -1.
<mgrwt>
<rscale>  0 0.16743829E+04</rscale>
<asrwt>0</asrwt>
<pdfrwt beam="1">  1        4 0.74927195E-01 0.16743829E+04</pdfrwt>
<pdfrwt beam="2">  1       -4 0.19090354E+00 0.16743829E+04</pdfrwt>
<totfact> 0.46750361E-01</totfact>
</mgrwt>
</event>
<event>
 8    1  0.5217667E-029  0.1464059E+04  0.7818608E-02  0.8908711E-01
         -4   -1    0    0    0  501 -0.00000000000E+00  0.00000000000E+00  0.44937020788E+03  0.44937200250E+03  0.12700000000E+01 0. -1.
          4   -1    0    0  501    0  0.00000000000E+00 -0.00000000000E+00 -0.11924811545E+04  0.11924818308E+04  0.12700000000E+01 0.  1.
     200001    2    1    2    0    0 -0.18858137817E+03 -0.78293975735E+01 -0.25794664277E+03  0.76949574317E+03  0.69997356563E+03 0.  0.
    5000001    2    3    3    0    0 -0.56476745702E+02  0.44031179982E+02 -0.22763627083E+02  0.19901155908E+03  0.18427981527E+03 0.  0.
        -13    1    4    4    0    0 -0.24960797644E+02 -0.39457401931E+02  0.58357688566E+02  0.74736597227E+02  0.10566000000E+00 0. -1.
     200003    1    4    4    0    0 -0.31515948059E+02  0.83488581913E+02 -0.81121315650E+02  0.12427496186E+03  0.30000000000E+02 0. -1.
     200000    1    3    3    0    0 -0.13210463247E+03 -0.51860577555E+02 -0.23518301568E+03  0.57048418408E+03  0.50000000000E+03 0. -1.
    -200001    1    1    2    0    0  0.18858137817E+03  0.78293975735E+01 -0.48516430386E+03  0.87235809012E+03  0.70000000000E+03 0.  1.
<mgrwt>
<rscale>  0 0.14640595E+04</rscale>
<asrwt>0</asrwt>
<pdfrwt beam="1">  1        4 0.17035463E+00 0.14640595E+04</pdfrwt>
<pdfrwt beam="2">  1       -4 0.64195921E-01 0.14640595E+04</pdfrwt>
<totfact> 0.92729140E-01</totfact>
</mgrwt>
</event>
<event>
 8    1  0.5217667E-029  0.1489332E+04  0.7818608E-02  0.8891578E-01
         -4   -1    0    0    0  501 -0.00000000000E+00  0.00000000000E+00  0.87426408493E+03  0.87426500736E+03  0.12700000000E+01 0. -1.
          4   -1    0    0  501    0  0.00000000000E+00 -0.00000000000E+00 -0.63427716321E+03  0.63427843466E+03  0.12700000000E+01 0.  1.
     200001    2    1    2    0    0  0.15005859661E+03 -0.20332170764E+03  0.95437678117E+02  0.75041958469E+03  0.70011706412E+03 0.  0.
    5000001    2    3    3    0    0  0.18035390096E+02 -0.61495577097E+02  0.59947547568E+01  0.20677924871E+03  0.19650633403E+03 0.  0.
        -13    1    4    4    0    0  0.22978953925E+02 -0.12829391582E+03 -0.12960629514E+02  0.13097843426E+03  0.10566000000E+00 0. -1.
     200003    1    4    4    0    0 -0.49435638294E+01  0.66798338720E+02  0.18955384271E+02  0.75800814454E+02  0.30000000000E+02 0. -1.
     200000    1    3    3    0    0  0.13202320652E+03 -0.14182613054E+03  0.89442923360E+02  0.54364033598E+03  0.50000000000E+03 0. -1.
    -200001    1    1    2    0    0 -0.15005859661E+03  0.20332170764E+03  0.14454924360E+03  0.75812385732E+03  0.70000000000E+03 0.  1.
<mgrwt>
<rscale>  0 0.14893319E+04</rscale>
<asrwt>0</asrwt>
<pdfrwt beam="1">  1        4 0.90611181E-01 0.14893319E+04</pdfrwt>
<pdfrwt beam="2">  1       -4 0.12489503E+00 0.14893319E+04</pdfrwt>
<totfact> 0.97016337E-01</totfact>
</mgrwt>
</event>
<event>
 8    1  0.5217667E-029  0.1558440E+04  0.7818608E-02  0.8846494E-01
         -4   -1    0    0    0  501 -0.00000000000E+00  0.00000000000E+00  0.15333462271E+04  0.15333467531E+04  0.12700000000E+01 0. -1.
          4   -1    0    0  501    0  0.00000000000E+00 -0.00000000000E+00 -0.39598472208E+03  0.39598675864E+03  0.12700000000E+01 0.  1.
     200001    2    1    2    0    0 -0.27576631528E+03  0.87346768450E+02  0.79672567895E+03  0.10988461340E+04  0.69929571714E+03 0.  0.
    5000001    2    3    3    0    0 -0.85829693438E+02  0.10172878724E+01  0.33941973616E+03  0.38986275979E+03  0.17152096964E+03 0.  0.
        -13    1    4    4    0    0 -0.91942252513E+02 -0.57509074627E+02  0.12492975118E+03  0.16543314467E+03  0.10566000000E+00 0. -1.
     200003    1    4    4    0    0  0.61125590753E+01  0.58526362499E+02  0.21448998498E+03  0.22442961512E+03  0.30000000000E+02 0. -1.
     200000    1    3    3    0    0 -0.18993662184E+03  0.86329480578E+02  0.45730594279E+03  0.70898337417E+03  0.50000000000E+03 0.  1.
    -200001    1    1    2    0    0  0.27576631528E+03 -0.87346768450E+02  0.34063582611E+03  0.83048737777E+03  0.70000000000E+03 0. -1.
<mgrwt>
<rscale>  0 0.15584404E+04</rscale>
<asrwt>0</asrwt>
<pdfrwt beam="1">  1        4 0.56569428E-01 0.15584404E+04</pdfrwt>
<pdfrwt beam="2">  1       -4 0.21904965E+00 0.15584404E+04</pdfrwt>
<totfact> 0.56978337E-01</totfact>
</mgrwt>
</event>
<event>
 8    1  0.5217667E-029  0.1520008E+04  0.7818608E-02  0.8871256E-01
         -4   -1    0    0    0  501 -0.00000000000E+00  0.00000000000E+00  0.30225787197E+03  0.30226054005E+03  0.12700000000E+01 0. -1.
          4   -1    0    0  501    0  0.00000000000E+00 -0.00000000000E+00 -0.19109600725E+04  0.19109604945E+04  0.12700000000E+01 0.  1.
     200001    2    1    2    0    0  0.21392659189E+03  0.81413823072E+02 -0.10776748143E+04  0.13052657041E+04  0.69995910986E+03 0.  0.
    5000001    2    3    3    0    0  0.79528761426E+02  0.46838479243E+02 -0.39017135218E+03  0.44391836315E+03  0.19055487937E+03 0.  0.
        -13    1    4    4    0    0  0.89109612962E+02 -0.14795072370E+02 -0.64551903612E+02  0.11102421678E+03  0.10566000000E+00 0. -1.
     200003    1    4    4    0    0 -0.95808515360E+01  0.61633551613E+02 -0.32561944857E+03  0.33289414637E+03  0.30000000000E+02 0. -1.
     200000    1    3    3    0    0  0.13439783046E+03  0.34575343829E+02 -0.68750346215E+03  0.86134734091E+03  0.50000000000E+03 0.  1.
    -200001    1    1    2    0    0 -0.21392659189E+03 -0.81413823072E+02 -0.53102738623E+03  0.90795533053E+03  0.70000000000E+03 0. -1.
<mgrwt>
<rscale>  0 0.15200081E+04</rscale>
<asrwt>0</asrwt>
<pdfrwt beam="1">  1        4 0.27299451E+00 0.15200081E+04</pdfrwt>
<pdfrwt beam="2">  1       -4 0.43179918E-01 0.15200081E+04</pdfrwt>
<totfact> 0.46244276E-01</totfact>
</mgrwt>
</event>
<event>
 8    1  0.5217667E-029  0.1900581E+04  0.7818608E-02  0.8654567E-01
         -4   -1    0    0    0  501 -0.00000000000E+00  0.00000000000E+00  0.14839541586E+04  0.14839547021E+04  0.12700000000E+01 0. -1.
          4   -1    0    0  501    0  0.00000000000E+00 -0.00000000000E+00 -0.60854300164E+03  0.60854432685E+03  0.12700000000E+01 0.  1.
     200001    2    1    2    0    0 -0.17981642683E+03 -0.57692784034E+03  0.67759868927E+03  0.11468196685E+04  0.70062521226E+03 0.  0.
    5000001    2    3    3    0    0 -0.40849137264E+02 -0.14412149106E+03  0.57170521708E+02  0.22945150106E+03  0.16413368510E+03 0.  0.
        -13    1    4    4    0    0 -0.92180378086E+02 -0.77974469966E+02 -0.51572178787E+01  0.12084638237E+03  0.10566000000E+00 0. -1.
     200003    1    4    4    0    0  0.51331240822E+02 -0.66147021093E+02  0.62327739587E+02  0.10860511869E+03  0.30000000000E+02 0. -1.
     200000    1    3    3    0    0 -0.13896728956E+03 -0.43280634928E+03  0.62042816756E+03  0.91736816745E+03  0.50000000000E+03 0. -1.
    -200001    1    1    2    0    0  0.17981642683E+03  0.57692784034E+03  0.19781246771E+03  0.94567936041E+03  0.70000000000E+03 0. -1.
<mgrwt>
<rscale>  0 0.19005808E+04</rscale>
<asrwt>0</asrwt>
<pdfrwt beam="1">  1        4 0.86934849E-01 0.19005808E+04</pdfrwt>
<pdfrwt beam="2">  1       -4 0.21199358E+00 0.19005808E+04</pdfrwt>
<totfact> 0.23778218E-01</totfact>
</mgrwt>
</event>
<event>
 8    1  0.5217667E-029  0.1451422E+04  0.7818608E-02  0.8917415E-01
         -4   -1    0    0    0  501 -0.00000000000E+00  0.00000000000E+00  0.32210773131E+03  0.32211023496E+03  0.12700000000E+01 0. -1.
          4   -1    0    0  501    0  0.00000000000E+00 -0.00000000000E+00 -0.16350233708E+04  0.16350238640E+04  0.12700000000E+01 0.  1.
     200001    2    1    2    0    0  0.75976902280E+02 -0.16799961635E+03 -0.59269033744E+03  0.93599706291E+03  0.70057997752E+03 0.  0.
    5000001    2    3    3    0    0 -0.30945670286E+02 -0.12334694607E+03 -0.13094126090E+03  0.24560695060E+03  0.16433215377E+03 0.  0.
        -13    1    4    4    0    0  0.61254726814E+02 -0.80398571180E+02 -0.73773933210E+02  0.12513463226E+03  0.10566000000E+00 0. -1.
     200003    1    4    4    0    0 -0.92200397101E+02 -0.42948374893E+02 -0.57167327693E+02  0.12047231834E+03  0.30000000000E+02 0. -1.
     200000    1    3    3    0    0  0.10692257257E+03 -0.44652670278E+02 -0.46174907654E+03  0.69039011231E+03  0.50000000000E+03 0.  1.
    -200001    1    1    2    0    0 -0.75976902280E+02  0.16799961635E+03 -0.72022530206E+03  0.10211370361E+04  0.70000000000E+03 0. -1.
<mgrwt>
<rscale>  0 0.14514222E+04</rscale>
<asrwt>0</asrwt>
<pdfrwt beam="1">  1        4 0.23357498E+00 0.14514222E+04</pdfrwt>
<pdfrwt beam="2">  1       -4 0.46015605E-01 0.14514222E+04</pdfrwt>
<totfact> 0.71611102E-01</totfact>
</mgrwt>
</event>
<event>
 8    1  0.5217667E-029  0.2099083E+04  0.7818608E-02  0.8561648E-01
          4   -1    0    0  501    0  0.00000000000E+00  0.00000000000E+00  0.15241455501E+04  0.15241460792E+04  0.12700000000E+01 0.  1.
         -4   -1    0    0    0  501 -0.00000000000E+00 -0.00000000000E+00 -0.72272302535E+03  0.72272414120E+03  0.12700000000E+01 0. -1.
     200001    2    1    2    0    0  0.24343426463E+03  0.58662389104E+03  0.88925704917E+03  0.12976059082E+04  0.69972506235E+03 0.  0.
    5000001    2    3    3    0    0 -0.25825173613E+02  0.14514868394E+03  0.24740657063E+03  0.33356595038E+03  0.16828889452E+03 0.  0.
        -13    1    4    4    0    0 -0.16909963130E+02 -0.30992999618E+02  0.10766150215E+02  0.36911164068E+02  0.10566000000E+00 0. -1.
     200003    1    4    4    0    0 -0.89152104835E+01  0.17614168356E+03  0.23664042042E+03  0.29665478631E+03  0.30000000000E+02 0. -1.
     200000    1    3    3    0    0  0.26925943825E+03  0.44147520710E+03  0.64185047853E+03  0.96403995787E+03  0.50000000000E+03 0.  1.
    -200001    1    1    2    0    0 -0.24343426463E+03 -0.58662389104E+03 -0.87834524397E+02  0.94926431220E+03  0.70000000000E+03 0. -1.
<mgrwt>
<rscale>  0 0.20990826E+04</rscale>
<asrwt>0</asrwt>
<pdfrwt beam="1">  1        4 0.21773520E+00 0.20990826E+04</pdfrwt>
<pdfrwt beam="2">  1       -4 0.10324626E+00 0.20990826E+04</pdfrwt>
<totfact> 0.14332227E-01</totfact>
</mgrwt>
</event>
<event>
 8    1  0.5217667E-029  0.2393422E+04  0.7818608E-02  0.8441970E-01
          4   -1    0    0  501    0  0.00000000000E+00  0.00000000000E+00  0.65609869022E+03  0.65609991938E+03  0.12700000000E+01 0.  1.
         -4   -1    0    0    0  501 -0.00000000000E+00 -0.00000000000E+00 -0.21827738594E+04  0.21827742289E+04  0.12700000000E+01 0. -1.
     200001    2    1    2    0    0 -0.62402565990E+02 -0.76831922101E+03 -0.63646854328E+02  0.10431402159E+04  0.69991576807E+03 0.  0.
    5000001    2    3    3    0    0 -0.43576939799E+02 -0.40305290336E+03 -0.29969727224E+02  0.42273064483E+03  0.11598457200E+03 0.  0.
        -13    1    4    4    0    0 -0.12561013880E+02 -0.23960288166E+03  0.33293727603E+02  0.24223088868E+03  0.10566000000E+00 0. -1.
     200003    1    4    4    0    0 -0.31015925920E+02 -0.16345002170E+03 -0.63263454827E+02  0.18049975615E+03  0.30000000000E+02 0. -1.
     200000    1    3    3    0    0 -0.18825626190E+02 -0.36526631765E+03 -0.33677127104E+02  0.62040957109E+03  0.50000000000E+03 0.  1.
    -200001    1    1    2    0    0  0.62402565990E+02  0.76831922101E+03 -0.14630283149E+04  0.17957339323E+04  0.70000000000E+03 0. -1.
<mgrwt>
<rscale>  0 0.23934221E+04</rscale>
<asrwt>0</asrwt>
<pdfrwt beam="1">  1        4 0.93728499E-01 0.23934221E+04</pdfrwt>
<pdfrwt beam="2">  1       -4 0.31182495E+00 0.23934221E+04</pdfrwt>
<totfact> 0.45439672E-02</totfact>
</mgrwt>
</event>
<event>
 8    1  0.5217667E-029  0.1659832E+04  0.7818608E-02  0.8784611E-01
         -4   -1    0    0    0  501 -0.00000000000E+00  0.00000000000E+00  0.84599786178E+03  0.84599881503E+03  0.12700000000E+01 0. -1.
          4   -1    0    0  501    0  0.00000000000E+00 -0.00000000000E+00 -0.81413837976E+03  0.81413937032E+03  0.12700000000E+01 0.  1.
     200001    2    1    2    0    0 -0.27137601981E+03  0.16237940223E+03 -0.29633767738E+03  0.82483860446E+03  0.70180530774E+03 0.  0.
    5000001    2    3    3    0    0 -0.77349319865E+02  0.97807218551E+02 -0.45482340775E+02  0.22923443464E+03  0.18689733390E+03 0.  0.
        -13    1    4    4    0    0  0.60592924269E+02  0.32402560521E+02 -0.20125501260E+02  0.71599408970E+02  0.10566000000E+00 0. -1.
     200003    1    4    4    0    0 -0.13794224413E+03  0.65404658030E+02 -0.25356839514E+02  0.15763502567E+03  0.30000000000E+02 0. -1.
     200000    1    3    3    0    0 -0.19402669994E+03  0.64572183680E+02 -0.25085533661E+03  0.59560416982E+03  0.50000000000E+03 0. -1.
    -200001    1    1    2    0    0  0.27137601981E+03 -0.16237940223E+03  0.32819715940E+03  0.83529958089E+03  0.70000000000E+03 0. -1.
<mgrwt>
<rscale>  0 0.16598325E+04</rscale>
<asrwt>0</asrwt>
<pdfrwt beam="1">  1        4 0.11630562E+00 0.16598325E+04</pdfrwt>
<pdfrwt beam="2">  1       -4 0.12085698E+00 0.16598325E+04</pdfrwt>
<totfact> 0.57211920E-01</totfact>
</mgrwt>
</event>
<event>
 8    1  0.5217667E-029  0.1552748E+04  0.7818608E-02  0.8850114E-01
          4   -1    0    0  501    0  0.00000000000E+00  0.00000000000E+00  0.43779814663E+03  0.43779998868E+03  0.12700000000E+01 0.  1.
         -4   -1    0    0    0  501 -0.00000000000E+00 -0.00000000000E+00 -0.13767869199E+04  0.13767875057E+04  0.12700000000E+01 0. -1.
     200001    2    1    2    0    0  0.22768013916E+03  0.24653983754E+03 -0.45890522369E+03  0.90184418329E+03  0.70007770237E+03 0.  0.
    5000001    2    3    3    0    0  0.79877526024E+01  0.66576875217E+02 -0.12847790615E+03  0.23864464718E+03  0.18960066128E+03 0.  0.
        -13    1    4    4    0    0  0.42407437286E+02 -0.56018264786E+02 -0.46769264891E+02  0.84402677857E+02  0.10566000000E+00 0. -1.
     200003    1    4    4    0    0 -0.34419684684E+02  0.12259514000E+03 -0.81708641257E+02  0.15424196933E+03  0.30000000000E+02 0. -1.
     200000    1    3    3    0    0  0.21969238656E+03  0.17996296232E+03 -0.33042731754E+03  0.66319953611E+03  0.50000000000E+03 0.  1.
    -200001    1    1    2    0    0 -0.22768013916E+03 -0.24653983754E+03 -0.48008354959E+03  0.91274331104E+03  0.70000000000E+03 0.  1.
<mgrwt>
<rscale>  0 0.15527485E+04</rscale>
<asrwt>0</asrwt>
<pdfrwt beam="1">  1        4 0.62542767E-01 0.15527485E+04</pdfrwt>
<pdfrwt beam="2">  1       -4 0.19668402E+00 0.15527485E+04</pdfrwt>
<totfact> 0.64242664E-01</totfact>
</mgrwt>
</event>
<event>
 8    1  0.5217667E-029  0.1868090E+04  0.7818608E-02  0.8670905E-01
         -4   -1    0    0    0  501 -0.00000000000E+00  0.00000000000E+00  0.39635333614E+03  0.39635537081E+03  0.12700000000E+01 0. -1.
          4   -1    0    0  501    0  0.00000000000E+00 -0.00000000000E+00 -0.22011589031E+04  0.22011592695E+04  0.12700000000E+01 0.  1.
     200001    2    1    2    0    0  0.51765616529E+03 -0.29355142902E+03 -0.11359533328E+04  0.14610712153E+04  0.70014196779E+03 0.  0.
    5000001    2    3    3    0    0  0.90786250359E+02 -0.94980103635E+01 -0.73360451117E+02  0.17966265398E+03  0.13625181831E+03 0.  0.
        -13    1    4    4    0    0  0.68636392353E+02 -0.63151020229E+02 -0.65238117793E+02  0.11382016029E+03  0.10566000000E+00 0. -1.
     200003    1    4    4    0    0  0.22149858006E+02  0.53653009866E+02 -0.81223333236E+01  0.65842493695E+02  0.30000000000E+02 0. -1.
     200000    1    3    3    0    0  0.42686991493E+03 -0.28405341866E+03 -0.10625928816E+04  0.12814085613E+04  0.50000000000E+03 0.  1.
    -200001    1    1    2    0    0 -0.51765616529E+03  0.29355142902E+03 -0.66885223419E+03  0.11364434250E+04  0.70000000000E+03 0.  1.
<mgrwt>
<rscale>  0 0.18680897E+04</rscale>
<asrwt>0</asrwt>
<pdfrwt beam="1">  1        4 0.31445144E+00 0.18680897E+04</pdfrwt>
<pdfrwt beam="2">  1       -4 0.56622078E-01 0.18680897E+04</pdfrwt>
<totfact> 0.14115000E-01</totfact>
</mgrwt>
</event>
<event>
 8    1  0.5217667E-029  0.2221912E+04  0.7818608E-02  0.8509363E-01
          4   -1    0    0  501    0  0.00000000000E+00  0.00000000000E+00  0.97700503367E+03  0.97700585910E+03  0.12700000000E+01 0.  1.
         -4   -1    0    0    0  501 -0.00000000000E+00 -0.00000000000E+00 -0.12632710068E+04  0.12632716452E+04  0.12700000000E+01 0. -1.
     200001    2    1    2    0    0  0.63722048879E+03  0.58870265871E+02 -0.71999475042E+03  0.11973794691E+04  0.71120284928E+03 0.  0.
    5000001    2    3    3    0    0  0.20925633920E+03 -0.58339224740E+02 -0.22590225605E+03  0.36610408089E+03  0.18923183696E+03 0.  0.
        -13    1    4    4    0    0  0.18775737988E+03 -0.78078866061E+02 -0.24642275987E+03  0.31948917160E+03  0.10566000000E+00 0. -1.
     200003    1    4    4    0    0  0.21498959323E+02  0.19739641321E+02  0.20520503820E+02  0.46614909294E+02  0.30000000000E+02 0. -1.
     200000    1    3    3    0    0  0.42796414959E+03  0.11720949061E+03 -0.49409249437E+03  0.83127538819E+03  0.50000000000E+03 0. -1.
    -200001    1    1    2    0    0 -0.63722048879E+03 -0.58870265871E+02  0.43372877730E+03  0.10428980352E+04  0.70000000000E+03 0.  1.
<mgrwt>
<rscale>  0 0.22219125E+04</rscale>
<asrwt>0</asrwt>
<pdfrwt beam="1">  1        4 0.13957225E+00 0.22219125E+04</pdfrwt>
<pdfrwt beam="2">  1       -4 0.18046739E+00 0.22219125E+04</pdfrwt>
<totfact> 0.11830563E-01</totfact>
</mgrwt>
</event>
<event>
 8    1  0.5217667E-029  0.1965078E+04  0.7818608E-02  0.8623124E-01
         -4   -1    0    0    0  501 -0.00000000000E+00  0.00000000000E+00  0.14080512855E+04  0.14080518583E+04  0.12700000000E+01 0. -1.
          4   -1    0    0  501    0  0.00000000000E+00 -0.00000000000E+00 -0.68561520067E+03  0.68561637692E+03  0.12700000000E+01 0.  1.
     200001    2    1    2    0    0 -0.94855917152E+02  0.61410603424E+03  0.67946444323E+03  0.11566674730E+04  0.70005988831E+03 0.  0.
    5000001    2    3    3    0    0 -0.95507117441E+02  0.19868709245E+03  0.14914894033E+03  0.31773490488E+03  0.17352778796E+03 0.  0.
        -13    1    4    4    0    0 -0.24927703534E+02  0.11209004379E+03  0.16495394309E+03  0.20098602644E+03  0.10566000000E+00 0. -1.
     200003    1    4    4    0    0 -0.70579413907E+02  0.86597048662E+02 -0.15805002765E+02  0.11674887844E+03  0.30000000000E+02 0. -1.
     200000    1    3    3    0    0  0.65120028886E+00  0.41541894179E+03  0.53031550290E+03  0.83893256813E+03  0.50000000000E+03 0. -1.
    -200001    1    1    2    0    0  0.94855917152E+02 -0.61410603424E+03  0.42971641617E+02  0.93700076216E+03  0.70000000000E+03 0.  1.
<mgrwt>
<rscale>  0 0.19650783E+04</rscale>
<asrwt>0</asrwt>
<pdfrwt beam="1">  1        4 0.97945154E-01 0.19650783E+04</pdfrwt>
<pdfrwt beam="2">  1       -4 0.20115031E+00 0.19650783E+04</pdfrwt>
<totfact> 0.21066724E-01</totfact>
</mgrwt>
</event>
<event>
 8    1  0.5217667E-029  0.1480430E+04  0.7818608E-02  0.8897572E-01
          4   -1    0    0  501    0  0.00000000000E+00  0.00000000000E+00  0.24710063825E+03  0.24710390188E+03  0.12700000000E+01 0.  1.
         -4   -1    0    0    0  501 -0.00000000000E+00 -0.00000000000E+00 -0.22173711799E+04  0.22173715436E+04  0.12700000000E+01 0. -1.
     200001    2    1    2    0    0  0.19310558446E+03 -0.96153845320E+02 -0.11653957101E+04  0.13761929348E+04  0.69944585480E+03 0.  0.
    5000001    2    3    3    0    0  0.22333717483E+02  0.27918398909E+02 -0.31345526447E+03  0.36606448982E+03  0.18566307104E+03 0.  0.
        -13    1    4    4    0    0  0.51078128671E+01  0.10467061940E+03 -0.17943786461E+03  0.20779794691E+03  0.10566000000E+00 0. -1.
     200003    1    4    4    0    0  0.17225904616E+02 -0.76752220494E+02 -0.13401739986E+03  0.15826654291E+03  0.30000000000E+02 0. -1.
     200000    1    3    3    0    0  0.17077186698E+03 -0.12407224423E+03 -0.85194044566E+03  0.10101284450E+04  0.50000000000E+03 0. -1.
    -200001    1    1    2    0    0 -0.19310558446E+03  0.96153845320E+02 -0.80487483154E+03  0.10882825107E+04  0.70000000000E+03 0.  1.
<mgrwt>
<rscale>  0 0.14804301E+04</rscale>
<asrwt>0</asrwt>
<pdfrwt beam="1">  1        4 0.35300352E-01 0.14804301E+04</pdfrwt>
<pdfrwt beam="2">  1       -4 0.31676756E+00 0.14804301E+04</pdfrwt>
<totfact> 0.37206939E-01</totfact>
</mgrwt>
</event>
<event>
 8    1  0.5217667E-029  0.1494728E+04  0.7818608E-02  0.8887967E-01
          4   -1    0    0  501    0  0.00000000000E+00  0.00000000000E+00  0.80647309536E+03  0.80647409533E+03  0.12700000000E+01 0. -1.
         -4   -1    0    0    0  501 -0.00000000000E+00 -0.00000000000E+00 -0.69258493722E+03  0.69258610163E+03  0.12700000000E+01 0.  1.
     200001    2    1    2    0    0  0.83382991504E+02  0.24816014171E+03  0.56923342611E+02  0.74953957055E+03  0.70002365794E+03 0.  0.
    5000001    2    3    3    0    0 -0.46730222912E+02  0.15055129511E+03  0.32885089777E+02  0.22319864196E+03  0.15455354558E+03 0.  0.
        -13    1    4    4    0    0 -0.66391374943E+02  0.15816961863E+01  0.20357285032E+02  0.69460396253E+02  0.10566000000E+00 0. -1.
     200003    1    4    4    0    0  0.19661152032E+02  0.14896959892E+03  0.12527804745E+02  0.15373824571E+03  0.30000000000E+02 0. -1.
     200000    1    3    3    0    0  0.13011321442E+03  0.97608846600E+02  0.24038252833E+02  0.52634092858E+03  0.50000000000E+03 0.  1.
    -200001    1    1    2    0    0 -0.83382991504E+02 -0.24816014171E+03  0.56964815522E+02  0.74952062641E+03  0.70000000000E+03 0. -1.
<mgrwt>
<rscale>  0 0.14947277E+04</rscale>
<asrwt>0</asrwt>
<pdfrwt beam="1">  1        4 0.11521060E+00 0.14947277E+04</pdfrwt>
<pdfrwt beam="2">  1       -4 0.98940859E-01 0.14947277E+04</pdfrwt>
<totfact> 0.96431819E-01</totfact>
</mgrwt>
</event>
<event>
 8    1  0.5217667E-029  0.2552505E+04  0.7818608E-02  0.8384516E-01
          4   -1    0    0  501    0  0.00000000000E+00  0.00000000000E+00  0.23220864936E+04  0.23220868409E+04  0.12700000000E+01 0.  1.
         -4   -1    0    0    0  501 -0.00000000000E+00 -0.00000000000E+00 -0.70144582688E+03  0.70144697658E+03  0.12700000000E+01 0. -1.
     200001    2    1    2    0    0 -0.16541874952E+03  0.52755274041E+03 -0.27307788531E+03  0.93024807230E+03  0.69650175016E+03 0.  0.
    5000001    2    3    3    0    0  0.27799137327E+02  0.10420701430E+03  0.18933085698E+02  0.18739871826E+03  0.15207867703E+03 0.  0.
        -13    1    4    4    0    0 -0.58051396395E+02  0.19459401614E+02  0.14959649758E+02  0.63027257751E+02  0.10566000000E+00 0. -1.
     200003    1    4    4    0    0  0.85850533722E+02  0.84747612682E+02  0.39734359392E+01  0.12437146051E+03  0.30000000000E+02 0. -1.
     200000    1    3    3    0    0 -0.19321788685E+03  0.42334572611E+03 -0.29201097101E+03  0.74284935404E+03  0.50000000000E+03 0. -1.
    -200001    1    1    2    0    0  0.16541874952E+03 -0.52755274041E+03  0.18937185520E+04  0.20932857451E+04  0.70000000000E+03 0.  1.
<mgrwt>
<rscale>  0 0.25525048E+04</rscale>
<asrwt>0</asrwt>
<pdfrwt beam="1">  1        4 0.33172675E+00 0.25525048E+04</pdfrwt>
<pdfrwt beam="2">  1       -4 0.10020665E+00 0.25525048E+04</pdfrwt>
<totfact> 0.28598004E-02</totfact>
</mgrwt>
</event>
<event>
 8    1  0.5217667E-029  0.1746155E+04  0.7818608E-02  0.8735469E-01
         -4   -1    0    0    0  501 -0.00000000000E+00  0.00000000000E+00  0.44849584753E+03  0.44849764565E+03  0.12700000000E+01 0. -1.
          4   -1    0    0  501    0  0.00000000000E+00 -0.00000000000E+00 -0.16995967948E+04  0.16995972693E+04  0.12700000000E+01 0.  1.
     200001    2    1    2    0    0 -0.19972775442E+03 -0.47757268678E+03 -0.54474655363E+03  0.10269778932E+04  0.69997709848E+03 0.  0.
    5000001    2    3    3    0    0 -0.84698982425E+02 -0.57523930666E+02 -0.26314164182E+03  0.30657946021E+03  0.11943417242E+03 0.  0.
        -13    1    4    4    0    0 -0.34464327891E+02 -0.40035227000E+02 -0.23217372372E+03  0.23810766147E+03  0.10566000000E+00 0. -1.
     200003    1    4    4    0    0 -0.50234654534E+02 -0.17488703666E+02 -0.30967918093E+02  0.68471798743E+02  0.30000000000E+02 0. -1.
     200000    1    3    3    0    0 -0.11502877200E+03 -0.42004875612E+03 -0.28160491181E+03  0.72039843299E+03  0.50000000000E+03 0. -1.
    -200001    1    1    2    0    0  0.19972775442E+03  0.47757268678E+03 -0.70635439367E+03  0.11211170218E+04  0.70000000000E+03 0.  1.
<mgrwt>
<rscale>  0 0.17461553E+04</rscale>
<asrwt>0</asrwt>
<pdfrwt beam="1">  1        4 0.24279970E+00 0.17461553E+04</pdfrwt>
<pdfrwt beam="2">  1       -4 0.64070999E-01 0.17461553E+04</pdfrwt>
<totfact> 0.30433349E-01</totfact>
</mgrwt>
</event>
<event>
 8    1  0.5217667E-029  0.1495178E+04  0.7818608E-02  0.8887666E-01
          4   -1    0    0  501    0  0.00000000000E+00  0.00000000000E+00  0.12276890340E+04  0.12276896909E+04  0.12700000000E+01 0.  1.
         -4   -1    0    0    0  501 -0.00000000000E+00 -0.00000000000E+00 -0.45523501874E+03  0.45523679024E+03  0.12700000000E+01 0. -1.
     200001    2    1    2    0    0  0.15301320915E+03  0.70688709587E+02  0.16613355197E+03  0.74163245690E+03  0.70285731710E+03 0.  0.
    5000001    2    3    3    0    0  0.14546510087E+03  0.97768337590E+02  0.13138814380E+03  0.23963890756E+03  0.97186512834E+02 0.  0.
        -13    1    4    4    0    0  0.13463441995E+02  0.29078308154E+02  0.67933009228E+02  0.75111365200E+02  0.10566000000E+00 0. -1.
     200003    1    4    4    0    0  0.13200165888E+03  0.68690029436E+02  0.63455134573E+02  0.16452754236E+03  0.30000000000E+02 0. -1.
     200000    1    3    3    0    0  0.75481082791E+01 -0.27079628003E+02  0.34745408165E+02  0.50199354934E+03  0.50000000000E+03 0. -1.
    -200001    1    1    2    0    0 -0.15301320915E+03 -0.70688709587E+02  0.60632046332E+03  0.94129402424E+03  0.70000000000E+03 0.  1.
<mgrwt>
<rscale>  0 0.14951777E+04</rscale>
<asrwt>0</asrwt>
<pdfrwt beam="1">  1        4 0.17538431E+00 0.14951777E+04</pdfrwt>
<pdfrwt beam="2">  1       -4 0.65033750E-01 0.14951777E+04</pdfrwt>
<totfact> 0.82859082E-01</totfact>
</mgrwt>
</event>
<event>
 8    1  0.5217667E-029  0.2457864E+04  0.7818608E-02  0.8418152E-01
          4   -1    0    0  501    0  0.00000000000E+00  0.00000000000E+00  0.16231594613E+04  0.16231599581E+04  0.12700000000E+01 0. -1.
         -4   -1    0    0    0  501 -0.00000000000E+00 -0.00000000000E+00 -0.93045241388E+03  0.93045328061E+03  0.12700000000E+01 0.  1.
     200001    2    1    2    0    0  0.12092750672E+03  0.41249020093E+03  0.12960981716E+04  0.15343721110E+04  0.69975401176E+03 0.  0.
    5000001    2    3    3    0    0  0.10118649526E+03  0.28440321588E+02  0.79626633399E+02  0.16408490735E+03  0.97651919373E+02 0.  0.
        -13    1    4    4    0    0  0.87517456959E+02  0.40691988045E+02  0.26002902368E+02  0.99956516842E+02  0.10566000000E+00 0. -1.
     200003    1    4    4    0    0  0.13669038303E+02 -0.12251666456E+02  0.53623731031E+02  0.64128390505E+02  0.30000000000E+02 0. -1.
     200000    1    3    3    0    0  0.19741011457E+02  0.38404987934E+03  0.12164715382E+04  0.13702872037E+04  0.50000000000E+03 0. -1.
    -200001    1    1    2    0    0 -0.12092750672E+03 -0.41249020093E+03 -0.60339112416E+03  0.10192411277E+04  0.70000000000E+03 0.  1.
<mgrwt>
<rscale>  0 0.24578644E+04</rscale>
<asrwt>0</asrwt>
<pdfrwt beam="1">  1        4 0.23188002E+00 0.24578644E+04</pdfrwt>
<pdfrwt beam="2">  1       -4 0.13292187E+00 0.24578644E+04</pdfrwt>
<totfact> 0.60448845E-02</totfact>
</mgrwt>
</event>
<event>
 8    1  0.5217667E-029  0.1612658E+04  0.7818608E-02  0.8812809E-01
          4   -1    0    0  501    0  0.00000000000E+00  0.00000000000E+00  0.54136367878E+03  0.54136516844E+03  0.12700000000E+01 0.  1.
         -4   -1    0    0    0  501 -0.00000000000E+00 -0.00000000000E+00 -0.12009752283E+04  0.12009758997E+04  0.12700000000E+01 0. -1.
     200001    2    1    2    0    0 -0.31811773881E+03  0.15715034927E+03 -0.12345734498E+03  0.79189040718E+03  0.69710370313E+03 0.  0.
    5000001    2    3    3    0    0 -0.11739197131E+03  0.75314593894E+02  0.26907093637E+02  0.22656095544E+03  0.17650130838E+03 0.  0.
        -13    1    4    4    0    0 -0.14214401421E+03  0.22429158061E+01  0.15617516518E+02  0.14301702498E+03  0.10566000000E+00 0. -1.
     200003    1    4    4    0    0  0.24752042895E+02  0.73071678088E+02  0.11289577118E+02  0.83543930465E+02  0.30000000000E+02 0. -1.
     200000    1    3    3    0    0 -0.20072576750E+03  0.81835755381E+02 -0.15036443862E+03  0.56532945173E+03  0.50000000000E+03 0. -1.
    -200001    1    1    2    0    0  0.31811773881E+03 -0.15715034927E+03 -0.53615420449E+03  0.95045066101E+03  0.70000000000E+03 0.  1.
<mgrwt>
<rscale>  0 0.16126577E+04</rscale>
<asrwt>0</asrwt>
<pdfrwt beam="1">  1        4 0.77337823E-01 0.16126577E+04</pdfrwt>
<pdfrwt beam="2">  1       -4 0.17156804E+00 0.16126577E+04</pdfrwt>
<totfact> 0.59544413E-01</totfact>
</mgrwt>
</event>
<event>
 8    1  0.5217667E-029  0.1644429E+04  0.7818608E-02  0.8793709E-01
         -4   -1    0    0    0  501 -0.00000000000E+00  0.00000000000E+00  0.11267971567E+04  0.11267978724E+04  0.12700000000E+01 0. -1.
          4   -1    0    0  501    0  0.00000000000E+00 -0.00000000000E+00 -0.59996141228E+03  0.59996275645E+03  0.12700000000E+01 0.  1.
     200001    2    1    2    0    0 -0.19205824347E+03 -0.86497705087E+02 -0.12865373284E+03  0.74490795320E+03  0.70282846691E+03 0.  0.
    5000001    2    3    3    0    0 -0.38250402431E+02  0.34516884384E+01  0.13155624621E+03  0.15375908992E+03  0.69712297165E+02 0.  0.
        -13    1    4    4    0    0 -0.26436304826E+02 -0.20093097758E+02  0.90911960244E+02  0.96786396099E+02  0.10566000000E+00 0. -1.
     200003    1    4    4    0    0 -0.11814097606E+02  0.23544786196E+02  0.40644285967E+02  0.56972693819E+02  0.30000000000E+02 0. -1.
     200000    1    3    3    0    0 -0.15380784104E+03 -0.89949393526E+02 -0.26020997905E+03  0.59114886328E+03  0.50000000000E+03 0.  1.
    -200001    1    1    2    0    0  0.19205824347E+03  0.86497705087E+02  0.65548947722E+03  0.98185267562E+03  0.70000000000E+03 0.  1.
<mgrwt>
<rscale>  0 0.16444289E+04</rscale>
<asrwt>0</asrwt>
<pdfrwt beam="1">  1        4 0.85708921E-01 0.16444289E+04</pdfrwt>
<pdfrwt beam="2">  1       -4 0.16097117E+00 0.16444289E+04</pdfrwt>
<totfact> 0.56115073E-01</totfact>
</mgrwt>
</event>
<event>
 8    1  0.5217667E-029  0.1453878E+04  0.7818608E-02  0.8915717E-01
         -4   -1    0    0    0  501 -0.00000000000E+00  0.00000000000E+00  0.62885619757E+03  0.62885747998E+03  0.12700000000E+01 0. -1.
          4   -1    0    0  501    0  0.00000000000E+00 -0.00000000000E+00 -0.84031667061E+03  0.84031763030E+03  0.12700000000E+01 0.  1.
     200001    2    1    2    0    0  0.76452539168E+02 -0.15521138724E+03 -0.20005771879E+03  0.74801937934E+03  0.69969588790E+03 0.  0.
    5000001    2    3    3    0    0 -0.52403284332E+01  0.34514944587E+02 -0.82555219279E+02  0.19441605294E+03  0.17252099863E+03 0.  0.
        -13    1    4    4    0    0 -0.73513398160E+01 -0.55482404647E+02 -0.82299181176E+02  0.99526407595E+02  0.10566000000E+00 0. -1.
     200003    1    4    4    0    0  0.21110113828E+01  0.89997349234E+02 -0.25603810343E+00  0.94889645345E+02  0.30000000000E+02 0. -1.
     200000    1    3    3    0    0  0.81692867602E+02 -0.18972633182E+03 -0.11750249951E+03  0.55360332640E+03  0.50000000000E+03 0. -1.
    -200001    1    1    2    0    0 -0.76452539168E+02  0.15521138724E+03 -0.11402754243E+02  0.72115573095E+03  0.70000000000E+03 0. -1.
<mgrwt>
<rscale>  0 0.14538776E+04</rscale>
<asrwt>0</asrwt>
<pdfrwt beam="1">  1        4 0.12004540E+00 0.14538776E+04</pdfrwt>
<pdfrwt beam="2">  1       -4 0.89836760E-01 0.14538776E+04</pdfrwt>
<totfact> 0.10958004E+00</totfact>
</mgrwt>
</event>
<event>
 8    1  0.5217667E-029  0.1409304E+04  0.7818608E-02  0.8947111E-01
         -4   -1    0    0    0  501 -0.00000000000E+00  0.00000000000E+00  0.12913119015E+04  0.12913125260E+04  0.12700000000E+01 0. -1.
          4   -1    0    0  501    0  0.00000000000E+00 -0.00000000000E+00 -0.38451785455E+03  0.38451995185E+03  0.12700000000E+01 0.  1.
     200001    2    1    2    0    0  0.83945962700E+01  0.51712257276E+02  0.51555023214E+03  0.87220548141E+03  0.70157375460E+03 0.  0.
    5000001    2    3    3    0    0 -0.91423408567E+02 -0.78222455555E+01  0.12893751372E+03  0.22957231609E+03  0.16631036863E+03 0.  0.
        -13    1    4    4    0    0 -0.99938576980E+01  0.69581631726E+02  0.70000890160E+02  0.99204921514E+02  0.10566000000E+00 0. -1.
     200003    1    4    4    0    0 -0.81429550869E+02 -0.77403877282E+02  0.58936623556E+02  0.13036739458E+03  0.30000000000E+02 0. -1.
     200000    1    3    3    0    0  0.99818004837E+02  0.59534502832E+02  0.38661271843E+03  0.64263316532E+03  0.50000000000E+03 0. -1.
    -200001    1    1    2    0    0 -0.83945962700E+01 -0.51712257276E+02  0.39124381478E+03  0.80362699644E+03  0.70000000000E+03 0.  1.
<mgrwt>
<rscale>  0 0.14093045E+04</rscale>
<asrwt>0</asrwt>
<pdfrwt beam="1">  1        4 0.54931316E-01 0.14093045E+04</pdfrwt>
<pdfrwt beam="2">  1       -4 0.18447333E+00 0.14093045E+04</pdfrwt>
<totfact> 0.10358579E+00</totfact>
</mgrwt>
</event>
<event>
 8    1  0.5217667E-029  0.1801554E+04  0.7818608E-02  0.8705474E-01
          4   -1    0    0  501    0  0.00000000000E+00  0.00000000000E+00  0.83512052747E+03  0.83512149314E+03  0.12700000000E+01 0.  1.
         -4   -1    0    0    0  501 -0.00000000000E+00 -0.00000000000E+00 -0.97159337280E+03  0.97159420283E+03  0.12700000000E+01 0. -1.
     200001    2    1    2    0    0 -0.23883784853E+03 -0.67567455741E+02 -0.57962976087E+03  0.94184753795E+03  0.69964079791E+03 0.  0.
    5000001    2    3    3    0    0 -0.10285015394E+03 -0.21601134820E+02 -0.24239679322E+03  0.32190267733E+03  0.18390314059E+03 0.  0.
        -13    1    4    4    0    0 -0.52788284985E+02 -0.77158817171E+02 -0.21880697962E+03  0.23794241234E+03  0.10566000000E+00 0. -1.
     200003    1    4    4    0    0 -0.50061868952E+02  0.55557682350E+02 -0.23589813603E+02  0.83960264989E+02  0.30000000000E+02 0. -1.
     200000    1    3    3    0    0 -0.13598769459E+03 -0.45966320921E+02 -0.33723296765E+03  0.61994486062E+03  0.50000000000E+03 0. -1.
    -200001    1    1    2    0    0  0.23883784853E+03  0.67567455741E+02  0.44315691554E+03  0.86486815802E+03  0.70000000000E+03 0.  1.
<mgrwt>
<rscale>  0 0.18015540E+04</rscale>
<asrwt>0</asrwt>
<pdfrwt beam="1">  1        4 0.11930306E+00 0.18015540E+04</pdfrwt>
<pdfrwt beam="2">  1       -4 0.13879918E+00 0.18015540E+04</pdfrwt>
<totfact> 0.37368535E-01</totfact>
</mgrwt>
</event>
<event>
 8    1  0.5217667E-029  0.2132529E+04  0.7818608E-02  0.8547048E-01
          4   -1    0    0  501    0  0.00000000000E+00  0.00000000000E+00  0.57269588570E+03  0.57269729386E+03  0.12700000000E+01 0.  1.
         -4   -1    0    0    0  501 -0.00000000000E+00 -0.00000000000E+00 -0.19852039720E+04  0.19852043782E+04  0.12700000000E+01 0. -1.
     200001    2    1    2    0    0  0.56444495825E+03  0.51896136808E+03 -0.99579231528E+03  0.14391653107E+04  0.70119572437E+03 0.  0.
    5000001    2    3    3    0    0  0.25426720969E+03  0.15015624359E+03 -0.35506807708E+03  0.49430817601E+03  0.17626265088E+03 0.  0.
        -13    1    4    4    0    0  0.21279159546E+03  0.10113798182E+03 -0.15489900434E+03  0.28196252796E+03  0.10566000000E+00 0. -1.
     200003    1    4    4    0    0  0.41475614229E+02  0.49018261768E+02 -0.20016907274E+03  0.21234564804E+03  0.30000000000E+02 0. -1.
     200000    1    3    3    0    0  0.31017774856E+03  0.36880512449E+03 -0.64072423820E+03  0.94485713469E+03  0.50000000000E+03 0.  1.
    -200001    1    1    2    0    0 -0.56444495825E+03 -0.51896136808E+03 -0.41671577099E+03  0.11187363614E+04  0.70000000000E+03 0. -1.
<mgrwt>
<rscale>  0 0.21325295E+04</rscale>
<asrwt>0</asrwt>
<pdfrwt beam="1">  1        4 0.81813828E-01 0.21325295E+04</pdfrwt>
<pdfrwt beam="2">  1       -4 0.28360069E+00 0.21325295E+04</pdfrwt>
<totfact> 0.95503462E-02</totfact>
</mgrwt>
</event>
<event>
 8    1  0.5217667E-029  0.1572826E+04  0.7818608E-02  0.8837418E-01
          4   -1    0    0  501    0  0.00000000000E+00  0.00000000000E+00  0.43739157125E+03  0.43739341502E+03  0.12700000000E+01 0.  1.
         -4   -1    0    0    0  501 -0.00000000000E+00 -0.00000000000E+00 -0.14139347475E+04  0.14139353179E+04  0.12700000000E+01 0. -1.
     200001    2    1    2    0    0 -0.11097359432E+03 -0.34017699222E+03 -0.50815021826E+03  0.93621809052E+03  0.70018007971E+03 0.  0.
    5000001    2    3    3    0    0 -0.14220480253E+02 -0.19954847687E+03 -0.14522469691E+03  0.29524033859E+03  0.16141508064E+03 0.  0.
        -13    1    4    4    0    0  0.62516304535E+02 -0.14192728560E+03 -0.10310637153E+03  0.18623259045E+03  0.10566000000E+00 0. -1.
     200003    1    4    4    0    0 -0.76736784788E+02 -0.57621191275E+02 -0.42118325381E+02  0.10900774815E+03  0.30000000000E+02 0. -1.
     200000    1    3    3    0    0 -0.96753114071E+02 -0.14062851535E+03 -0.36292552135E+03  0.64097775192E+03  0.50000000000E+03 0.  1.
    -200001    1    1    2    0    0  0.11097359432E+03  0.34017699222E+03 -0.46839295798E+03  0.91511064236E+03  0.70000000000E+03 0. -1.
<mgrwt>
<rscale>  0 0.15728260E+04</rscale>
<asrwt>0</asrwt>
<pdfrwt beam="1">  1        4 0.62484683E-01 0.15728260E+04</pdfrwt>
<pdfrwt beam="2">  1       -4 0.20199085E+00 0.15728260E+04</pdfrwt>
<totfact> 0.59283926E-01</totfact>
</mgrwt>
</event>
<event>
 8    1  0.5217667E-029  0.1500739E+04  0.7818608E-02  0.8883962E-01
          4   -1    0    0  501    0  0.00000000000E+00  0.00000000000E+00  0.48626014853E+03  0.48626180701E+03  0.12700000000E+01 0.  1.
         -4   -1    0    0    0  501 -0.00000000000E+00 -0.00000000000E+00 -0.11579236098E+04  0.11579243062E+04  0.12700000000E+01 0. -1.
     200001    2    1    2    0    0  0.14238783039E+03 -0.22164776242E+03 -0.40058500306E+03  0.84864506758E+03  0.70023430451E+03 0.  0.
    5000001    2    3    3    0    0 -0.23597857298E+01  0.90431146095E+01 -0.11220538806E+03  0.21041865362E+03  0.17775999036E+03 0.  0.
        -13    1    4    4    0    0 -0.57005882314E+02  0.70031926832E+02 -0.49243988206E+02  0.10285486344E+03  0.10566000000E+00 0. -1.
     200003    1    4    4    0    0  0.54646096584E+02 -0.60988812222E+02 -0.62961399851E+02  0.10756379019E+03  0.30000000000E+02 0. -1.
     200000    1    3    3    0    0  0.14474761612E+03 -0.23069087703E+03 -0.28837961500E+03  0.63822641395E+03  0.50000000000E+03 0. -1.
    -200001    1    1    2    0    0 -0.14238783039E+03  0.22164776242E+03 -0.27107845816E+03  0.79554104565E+03  0.70000000000E+03 0. -1.
<mgrwt>
<rscale>  0 0.15007385E+04</rscale>
<asrwt>0</asrwt>
<pdfrwt beam="1">  1        4 0.69465904E-01 0.15007385E+04</pdfrwt>
<pdfrwt beam="2">  1       -4 0.16541783E+00 0.15007385E+04</pdfrwt>
<totfact> 0.84449466E-01</totfact>
</mgrwt>
</event>
<event>
 8    1  0.5217667E-029  0.1498583E+04  0.7818608E-02  0.8885396E-01
          4   -1    0    0  501    0  0.00000000000E+00  0.00000000000E+00  0.24493163763E+03  0.24493493016E+03  0.12700000000E+01 0.  1.
         -4   -1    0    0    0  501 -0.00000000000E+00 -0.00000000000E+00 -0.22922044078E+04  0.22922047597E+04  0.12700000000E+01 0. -1.
     200001    2    1    2    0    0 -0.12612873851E+02 -0.22464240805E+03 -0.12667174693E+04  0.14648105081E+04  0.70033804815E+03 0.  0.
    5000001    2    3    3    0    0  0.64214880564E+02 -0.46261342160E+02 -0.25070899166E+03  0.31589992193E+03  0.17514022813E+03 0.  0.
        -13    1    4    4    0    0  0.45649188404E+02 -0.81514875881E+01 -0.25916680241E+03  0.26328261961E+03  0.10566000000E+00 0. -1.
     200003    1    4    4    0    0  0.18565692160E+02 -0.38109854572E+02  0.84578107466E+01  0.52617302321E+02  0.30000000000E+02 0. -1.
     200000    1    3    3    0    0 -0.76827754415E+02 -0.17838106589E+03 -0.10160084776E+04  0.11489105862E+04  0.50000000000E+03 0. -1.
    -200001    1    1    2    0    0  0.12612873851E+02  0.22464240805E+03 -0.78055530095E+03  0.10723291817E+04  0.70000000000E+03 0.  1.
<mgrwt>
<rscale>  0 0.14985833E+04</rscale>
<asrwt>0</asrwt>
<pdfrwt beam="1">  1        4 0.34990496E-01 0.14985833E+04</pdfrwt>
<pdfrwt beam="2">  1       -4 0.32745802E+00 0.14985833E+04</pdfrwt>
<totfact> 0.32365450E-01</totfact>
</mgrwt>
</event>
<event>
 8    1  0.5217667E-029  0.1853556E+04  0.7818608E-02  0.8678327E-01
         -4   -1    0    0    0  501 -0.00000000000E+00  0.00000000000E+00  0.24663467947E+04  0.24663471217E+04  0.12700000000E+01 0. -1.
          4   -1    0    0  501    0  0.00000000000E+00 -0.00000000000E+00 -0.34825325257E+03  0.34825556826E+03  0.12700000000E+01 0.  1.
     200001    2    1    2    0    0  0.42562841525E+03 -0.86797672737E+02  0.17032904344E+04  0.18922388778E+04  0.70048289249E+03 0.  0.
    5000001    2    3    3    0    0  0.22389987541E+03 -0.30950017967E+02  0.69796258842E+03  0.75009289660E+03  0.15620025892E+03 0.  0.
        -13    1    4    4    0    0  0.13590783315E+03 -0.46457374387E+02  0.58789719931E+03  0.60518786742E+03  0.10566000000E+00 0. -1.
     200003    1    4    4    0    0  0.87992042265E+02  0.15507356420E+02  0.11006538910E+03  0.14490502919E+03  0.30000000000E+02 0. -1.
     200000    1    3    3    0    0  0.20172853984E+03 -0.55847654769E+02  0.10053278460E+04  0.11421459812E+04  0.50000000000E+03 0. -1.
    -200001    1    1    2    0    0 -0.42562841525E+03  0.86797672737E+02  0.41480310772E+03  0.92236381219E+03  0.70000000000E+03 0.  1.
<mgrwt>
<rscale>  0 0.18535555E+04</rscale>
<asrwt>0</asrwt>
<pdfrwt beam="1">  1        4 0.49750654E-01 0.18535555E+04</pdfrwt>
<pdfrwt beam="2">  1       -4 0.35233544E+00 0.18535555E+04</pdfrwt>
<totfact> 0.10620814E-01</totfact>
</mgrwt>
</event>
<event>
 8    1  0.5217667E-029  0.1422457E+04  0.7818608E-02  0.8937722E-01
          4   -1    0    0  501    0  0.00000000000E+00  0.00000000000E+00  0.38394198706E+03  0.38394408751E+03  0.12700000000E+01 0.  1.
         -4   -1    0    0    0  501 -0.00000000000E+00 -0.00000000000E+00 -0.13174994293E+04  0.13175000414E+04  0.12700000000E+01 0. -1.
     200001    2    1    2    0    0 -0.83454020324E+02 -0.65458644338E+02 -0.38463013789E+03  0.80558108520E+03  0.69983650536E+03 0.  0.
    5000001    2    3    3    0    0  0.29445890902E+02  0.61375712065E+02 -0.33405031776E+02  0.17139466223E+03  0.15370815063E+03 0.  0.
        -13    1    4    4    0    0  0.76740796506E+02  0.77862330634E+02 -0.27386377234E+02  0.11270189529E+03  0.10566000000E+00 0. -1.
     200003    1    4    4    0    0 -0.47294905604E+02 -0.16486618570E+02 -0.60186545420E+01  0.58692766934E+02  0.30000000000E+02 0. -1.
     200000    1    3    3    0    0 -0.11289991123E+03 -0.12683435640E+03 -0.35122510612E+03  0.63418642297E+03  0.50000000000E+03 0. -1.
    -200001    1    1    2    0    0  0.83454020324E+02  0.65458644338E+02 -0.54892730433E+03  0.89586304370E+03  0.70000000000E+03 0. -1.
<mgrwt>
<rscale>  0 0.14224565E+04</rscale>
<asrwt>0</asrwt>
<pdfrwt beam="1">  1        4 0.54849050E-01 0.14224565E+04</pdfrwt>
<pdfrwt beam="2">  1       -4 0.18821440E+00 0.14224565E+04</pdfrwt>
<totfact> 0.97903102E-01</totfact>
</mgrwt>
</event>
<event>
 8    1  0.5217667E-029  0.1618495E+04  0.7818608E-02  0.8809266E-01
          4   -1    0    0  501    0  0.00000000000E+00  0.00000000000E+00  0.64051540334E+03  0.64051666241E+03  0.12700000000E+01 0.  1.
         -4   -1    0    0    0  501 -0.00000000000E+00 -0.00000000000E+00 -0.10224264274E+04  0.10224272162E+04  0.12700000000E+01 0. -1.
     200001    2    1    2    0    0  0.35398476691E+03  0.60582188745E+02 -0.38057797237E+03  0.87619284187E+03  0.70277940087E+03 0.  0.
    5000001    2    3    3    0    0  0.24327460376E+02  0.54512745909E+02  0.11038859290E+02  0.16059901802E+03  0.14868329893E+03 0.  0.
        -13    1    4    4    0    0  0.22353845521E+02  0.10030738516E+03 -0.67816714787E+01  0.10299159266E+03  0.10566000000E+00 0. -1.
     200003    1    4    4    0    0  0.19736148549E+01 -0.45794639250E+02  0.17820530769E+02  0.57607425359E+02  0.30000000000E+02 0. -1.
     200000    1    3    3    0    0  0.32965730653E+03  0.60694428361E+01 -0.39161683166E+03  0.71559382385E+03  0.50000000000E+03 0. -1.
    -200001    1    1    2    0    0 -0.35398476691E+03 -0.60582188745E+02 -0.13330517305E+01  0.78675103675E+03  0.70000000000E+03 0.  1.
<mgrwt>
<rscale>  0 0.16184951E+04</rscale>
<asrwt>0</asrwt>
<pdfrwt beam="1">  1        4 0.91502347E-01 0.16184951E+04</pdfrwt>
<pdfrwt beam="2">  1       -4 0.14606106E+00 0.16184951E+04</pdfrwt>
<totfact> 0.62759662E-01</totfact>
</mgrwt>
</event>
<event>
 8    1  0.5217667E-029  0.3473089E+04  0.7818608E-02  0.8120197E-01
         -4   -1    0    0    0  501 -0.00000000000E+00  0.00000000000E+00  0.16207639524E+04  0.16207644500E+04  0.12700000000E+01 0. -1.
          4   -1    0    0  501    0  0.00000000000E+00 -0.00000000000E+00 -0.18605949145E+04  0.18605953480E+04  0.12700000000E+01 0.  1.
     200001    2    1    2    0    0  0.62268563813E+03  0.23821465130E+03 -0.15658204875E+04  0.18404052449E+04  0.70058121753E+03 0.  0.
    5000001    2    3    3    0    0  0.15596548577E+03  0.63019766542E+02 -0.14080345729E+03  0.25006110458E+03  0.12003423976E+03 0.  0.
        -13    1    4    4    0    0 -0.48598119332E+01  0.12499147073E+02 -0.58624238111E+02  0.60138664000E+02  0.10566000000E+00 0. -1.
     200003    1    4    4    0    0  0.16082529770E+03  0.50520619470E+02 -0.82179219182E+02  0.18992244058E+03  0.30000000000E+02 0. -1.
     200000    1    3    3    0    0  0.46672015236E+03  0.17519488476E+03 -0.14250170302E+04  0.15903441403E+04  0.50000000000E+03 0.  1.
    -200001    1    1    2    0    0 -0.62268563813E+03 -0.23821465130E+03  0.13259895254E+04  0.16409545531E+04  0.70000000000E+03 0. -1.
<mgrwt>
<rscale>  0 0.34730890E+04</rscale>
<asrwt>0</asrwt>
<pdfrwt beam="1">  1        4 0.26579934E+00 0.34730890E+04</pdfrwt>
<pdfrwt beam="2">  1       -4 0.23153778E+00 0.34730890E+04</pdfrwt>
<totfact> 0.68419507E-03</totfact>
</mgrwt>
</event>
<event>
 8    1  0.5217667E-029  0.1888429E+04  0.7818608E-02  0.8660637E-01
          4   -1    0    0  501    0  0.00000000000E+00  0.00000000000E+00  0.37551764907E+03  0.37551979663E+03  0.12700000000E+01 0.  1.
         -4   -1    0    0    0  501 -0.00000000000E+00 -0.00000000000E+00 -0.23741568057E+04  0.23741571453E+04  0.12700000000E+01 0. -1.
     200001    2    1    2    0    0 -0.29281345309E+03 -0.22132930881E+03 -0.24619334615E+03  0.82723248249E+03  0.69926821403E+03 0.  0.
    5000001    2    3    3    0    0 -0.11145493719E+03 -0.70206416027E+02 -0.13523645451E+02  0.22734563513E+03  0.18480261078E+03 0.  0.
        -13    1    4    4    0    0 -0.18892567896E+01 -0.82506238499E+02 -0.62002850565E+02  0.10322409275E+03  0.10566000000E+00 0. -1.
     200003    1    4    4    0    0 -0.10956568040E+03  0.12299822472E+02  0.48479205114E+02  0.12412154238E+03  0.30000000000E+02 0. -1.
     200000    1    3    3    0    0 -0.18135851590E+03 -0.15112289279E+03 -0.23266970070E+03  0.59988684736E+03  0.50000000000E+03 0.  1.
    -200001    1    1    2    0    0  0.29281345309E+03  0.22132930881E+03 -0.17524458104E+04  0.19224444595E+04  0.70000000000E+03 0. -1.
<mgrwt>
<rscale>  0 0.18884292E+04</rscale>
<asrwt>0</asrwt>
<pdfrwt beam="1">  1        4 0.53645557E-01 0.18884292E+04</pdfrwt>
<pdfrwt beam="2">  1       -4 0.33916543E+00 0.18884292E+04</pdfrwt>
<totfact> 0.11002859E-01</totfact>
</mgrwt>
</event>
<event>
 8    1  0.5217667E-029  0.1956562E+04  0.7818608E-02  0.8627203E-01
         -4   -1    0    0    0  501 -0.00000000000E+00  0.00000000000E+00  0.50417151618E+03  0.50417311573E+03  0.12700000000E+01 0. -1.
          4   -1    0    0  501    0  0.00000000000E+00 -0.00000000000E+00 -0.18982251981E+04  0.18982256229E+04  0.12700000000E+01 0.  1.
     200001    2    1    2    0    0  0.41814835669E+03  0.16720741111E+03 -0.13259041707E+04  0.15672635865E+04  0.70390831293E+03 0.  0.
    5000001    2    3    3    0    0  0.63096883692E+02  0.11480966537E+03 -0.35017066404E+03  0.41363325214E+03  0.17694772484E+03 0.  0.
        -13    1    4    4    0    0  0.71840108426E+02  0.62237155896E+02 -0.33821525258E+03  0.35131756715E+03  0.10566000000E+00 0. -1.
     200003    1    4    4    0    0 -0.87432247343E+01  0.52572509478E+02 -0.11955411462E+02  0.62315684982E+02  0.30000000000E+02 0. -1.
     200000    1    3    3    0    0  0.35505147300E+03  0.52397745738E+02 -0.97573350668E+03  0.11536303343E+04  0.50000000000E+03 0.  1.
    -200001    1    1    2    0    0 -0.41814835669E+03 -0.16720741111E+03 -0.68149511181E+02  0.83513515218E+03  0.70000000000E+03 0. -1.
<mgrwt>
<rscale>  0 0.19565618E+04</rscale>
<asrwt>0</asrwt>
<pdfrwt beam="1">  1        4 0.27117517E+00 0.19565618E+04</pdfrwt>
<pdfrwt beam="2">  1       -4 0.72024648E-01 0.19565618E+04</pdfrwt>
<totfact> 0.15420225E-01</totfact>
</mgrwt>
</event>
<event>
 8    1  0.5217667E-029  0.1658552E+04  0.7818608E-02  0.8785363E-01
         -4   -1    0    0    0  501 -0.00000000000E+00  0.00000000000E+00  0.42811314695E+03  0.42811503068E+03  0.12700000000E+01 0. -1.
          4   -1    0    0  501    0  0.00000000000E+00 -0.00000000000E+00 -0.16063430333E+04  0.16063435354E+04  0.12700000000E+01 0.  1.
     200001    2    1    2    0    0 -0.24858195127E+03  0.36783067307E+03 -0.65162586959E+03  0.10524177415E+04  0.69704694117E+03 0.  0.
    5000001    2    3    3    0    0 -0.16989381222E+02  0.92277095811E+02 -0.25919854308E+03  0.32196302079E+03  0.16635083570E+03 0.  0.
        -13    1    4    4    0    0  0.30394185198E+02 -0.37618162020E+02 -0.51451471779E+02  0.70613013814E+02  0.10566000000E+00 0. -1.
     200003    1    4    4    0    0 -0.47383566420E+02  0.12989525783E+03 -0.20774707130E+03  0.25135000698E+03  0.30000000000E+02 0. -1.
     200000    1    3    3    0    0 -0.23159257004E+03  0.27555357726E+03 -0.39242732651E+03  0.73045472073E+03  0.50000000000E+03 0.  1.
    -200001    1    1    2    0    0  0.24858195127E+03 -0.36783067307E+03 -0.52660401676E+03  0.98204082452E+03  0.70000000000E+03 0. -1.
<mgrwt>
<rscale>  0 0.16585524E+04</rscale>
<asrwt>0</asrwt>
<pdfrwt beam="1">  1        4 0.22947774E+00 0.16585524E+04</pdfrwt>
<pdfrwt beam="2">  1       -4 0.61159192E-01 0.16585524E+04</pdfrwt>
<totfact> 0.41081231E-01</totfact>
</mgrwt>
</event>
<event>
 8    1  0.5217667E-029  0.1692671E+04  0.7818608E-02  0.8765555E-01
          4   -1    0    0  501    0  0.00000000000E+00  0.00000000000E+00  0.23157365190E+04  0.23157368673E+04  0.12700000000E+01 0.  1.
         -4   -1    0    0    0  501 -0.00000000000E+00 -0.00000000000E+00 -0.30930986336E+03  0.30931247061E+03  0.12700000000E+01 0. -1.
     200001    2    1    2    0    0 -0.30573880981E+03 -0.55181560112E+01  0.15683251348E+04  0.17444588471E+04  0.69999019348E+03 0.  0.
    5000001    2    3    3    0    0 -0.11378782929E+03  0.87704765446E+02  0.39088449484E+03  0.44757714371E+03  0.16399638803E+03 0.  0.
        -13    1    4    4    0    0 -0.10580828492E+03  0.15695980020E+02  0.10043106787E+03  0.14672480194E+03  0.10566000000E+00 0. -1.
     200003    1    4    4    0    0 -0.79795443671E+01  0.72008785426E+02  0.29045342697E+03  0.30085234177E+03  0.30000000000E+02 0. -1.
     200000    1    3    3    0    0 -0.19195098052E+03 -0.93222921458E+02  0.11774406399E+04  0.12968817034E+04  0.50000000000E+03 0.  1.
    -200001    1    1    2    0    0  0.30573880981E+03  0.55181560112E+01  0.43810152090E+03  0.88059049080E+03  0.70000000000E+03 0. -1.
<mgrwt>
<rscale>  0 0.16926713E+04</rscale>
<asrwt>0</asrwt>
<pdfrwt beam="1">  1        4 0.33081970E+00 0.16926713E+04</pdfrwt>
<pdfrwt beam="2">  1       -4 0.44187336E-01 0.16926713E+04</pdfrwt>
<totfact> 0.18947865E-01</totfact>
</mgrwt>
</event>
<event>
 8    1  0.5217667E-029  0.1590081E+04  0.7818608E-02  0.8826665E-01
         -4   -1    0    0    0  501 -0.00000000000E+00  0.00000000000E+00  0.10801051853E+04  0.10801059319E+04  0.12700000000E+01 0. -1.
          4   -1    0    0  501    0  0.00000000000E+00 -0.00000000000E+00 -0.58520898476E+03  0.58521036281E+03  0.12700000000E+01 0.  1.
     200001    2    1    2    0    0 -0.82452142516E+02 -0.36395219104E+03  0.30201056949E+03  0.84894357358E+03  0.70016801831E+03 0.  0.
    5000001    2    3    3    0    0  0.94175263159E+02 -0.66005711509E+02  0.15347993112E+03  0.22282002695E+03  0.11343253947E+03 0.  0.
        -13    1    4    4    0    0  0.62359204309E+02  0.87673168757E+01  0.10791674938E+03  0.12494627713E+03  0.10566000000E+00 0. -1.
     200003    1    4    4    0    0  0.31816058850E+02 -0.74773028384E+02  0.45563181743E+02  0.97873749826E+02  0.30000000000E+02 0. -1.
     200000    1    3    3    0    0 -0.17662740567E+03 -0.29794647953E+03  0.14853063837E+03  0.62612354662E+03  0.50000000000E+03 0. -1.
    -200001    1    1    2    0    0  0.82452142516E+02  0.36395219104E+03  0.19288563102E+03  0.81637272114E+03  0.70000000000E+03 0. -1.
<mgrwt>
<rscale>  0 0.15900805E+04</rscale>
<asrwt>0</asrwt>
<pdfrwt beam="1">  1        4 0.83601436E-01 0.15900805E+04</pdfrwt>
<pdfrwt beam="2">  1       -4 0.15430089E+00 0.15900805E+04</pdfrwt>
<totfact> 0.66936147E-01</totfact>
</mgrwt>
</event>
<event>
 8    1  0.5217667E-029  0.1485802E+04  0.7818608E-02  0.8893950E-01
          4   -1    0    0  501    0  0.00000000000E+00  0.00000000000E+00  0.11622634611E+04  0.11622641550E+04  0.12700000000E+01 0.  1.
         -4   -1    0    0    0  501 -0.00000000000E+00 -0.00000000000E+00 -0.47484918397E+03  0.47485088230E+03  0.12700000000E+01 0. -1.
     200001    2    1    2    0    0  0.20969875016E+03  0.10385099061E+03  0.43655154613E+03  0.85756984686E+03  0.70006442257E+03 0.  0.
    5000001    2    3    3    0    0 -0.64172288026E+02  0.65787136167E+02  0.15137596152E+03  0.21899383993E+03  0.12883163573E+03 0.  0.
        -13    1    4    4    0    0 -0.44371718083E+01  0.60798485177E+02  0.13768811585E+03  0.15057945645E+03  0.10566000000E+00 0. -1.
     200003    1    4    4    0    0 -0.59735116218E+02  0.49886509902E+01  0.13687845669E+02  0.68414383482E+02  0.30000000000E+02 0. -1.
     200000    1    3    3    0    0  0.27387103818E+03  0.38063854448E+02  0.28517558461E+03  0.63857600693E+03  0.50000000000E+03 0.  1.
    -200001    1    1    2    0    0 -0.20969875016E+03 -0.10385099061E+03  0.25086273099E+03  0.77954519040E+03  0.70000000000E+03 0. -1.
<mgrwt>
<rscale>  0 0.14858019E+04</rscale>
<asrwt>0</asrwt>
<pdfrwt beam="1">  1        4 0.16603781E+00 0.14858019E+04</pdfrwt>
<pdfrwt beam="2">  1       -4 0.67835769E-01 0.14858019E+04</pdfrwt>
<totfact> 0.88157923E-01</totfact>
</mgrwt>
</event>
<event>
 8    1  0.5217667E-029  0.1602129E+04  0.7818608E-02  0.8819241E-01
         -4   -1    0    0    0  501 -0.00000000000E+00  0.00000000000E+00  0.47429047124E+03  0.47429217157E+03  0.12700000000E+01 0.  1.
          4   -1    0    0  501    0  0.00000000000E+00 -0.00000000000E+00 -0.13529729485E+04  0.13529735446E+04  0.12700000000E+01 0. -1.
     200001    2    1    2    0    0  0.14476877686E+03  0.13853596518E+03 -0.66698377618E+02  0.73663819471E+03  0.70571732579E+03 0.  0.
    5000001    2    3    3    0    0  0.14631846517E+03 -0.37940617462E+01 -0.23864317665E+02  0.21501093815E+03  0.15568143663E+03 0.  0.
        -13    1    4    4    0    0 -0.22304926491E+02  0.27488773810E+02  0.11753744328E+02  0.37300189022E+02  0.10566000000E+00 0. -1.
     200003    1    4    4    0    0  0.16862339166E+03 -0.31282835556E+02 -0.35618061993E+02  0.17771074912E+03  0.30000000000E+02 0. -1.
     200000    1    3    3    0    0 -0.15496883012E+01  0.14233002693E+03 -0.42834059953E+02  0.52162725657E+03  0.50000000000E+03 0.  1.
    -200001    1    1    2    0    0 -0.14476877686E+03 -0.13853596518E+03 -0.81198409966E+03  0.10906275214E+04  0.70000000000E+03 0. -1.
<mgrwt>
<rscale>  0 0.16021289E+04</rscale>
<asrwt>0</asrwt>
<pdfrwt beam="1">  1        4 0.19328201E+00 0.16021289E+04</pdfrwt>
<pdfrwt beam="2">  1       -4 0.67755946E-01 0.16021289E+04</pdfrwt>
<totfact> 0.56637130E-01</totfact>
</mgrwt>
</event>
<event>
 8    1  0.5217667E-029  0.1793295E+04  0.7818608E-02  0.8709873E-01
         -4   -1    0    0    0  501 -0.00000000000E+00  0.00000000000E+00  0.65216273996E+03  0.65216397654E+03  0.12700000000E+01 0. -1.
          4   -1    0    0  501    0  0.00000000000E+00 -0.00000000000E+00 -0.12327831440E+04  0.12327837981E+04  0.12700000000E+01 0.  1.
     200001    2    1    2    0    0 -0.88112789789E+02  0.20067695406E+01  0.29126640000E+03  0.76336207138E+03  0.70008402739E+03 0.  0.
    5000001    2    3    3    0    0 -0.28488876184E+02  0.93835513561E+01 -0.79407325497E+01  0.17758537660E+03  0.17485377790E+03 0.  0.
        -13    1    4    4    0    0  0.10068107046E+02 -0.71307083022E+02 -0.34126098448E+02  0.79691082486E+02  0.10566000000E+00 0. -1.
     200003    1    4    4    0    0 -0.38556983230E+02  0.80690634378E+02  0.26185365899E+02  0.97894294110E+02  0.30000000000E+02 0. -1.
     200000    1    3    3    0    0 -0.59623913604E+02 -0.73767818155E+01  0.29920713255E+03  0.58577669478E+03  0.50000000000E+03 0. -1.
    -200001    1    1    2    0    0  0.88112789789E+02 -0.20067695406E+01 -0.87188680402E+03  0.11215857033E+04  0.70000000000E+03 0.  1.
<mgrwt>
<rscale>  0 0.17932953E+04</rscale>
<asrwt>0</asrwt>
<pdfrwt beam="1">  1        4 0.17611201E+00 0.17932953E+04</pdfrwt>
<pdfrwt beam="2">  1       -4 0.93166241E-01 0.17932953E+04</pdfrwt>
<totfact> 0.35561056E-01</totfact>
</mgrwt>
</event>
<event>
 8    1  0.5217667E-029  0.1740333E+04  0.7818608E-02  0.8738689E-01
          4   -1    0    0  501    0  0.00000000000E+00  0.00000000000E+00  0.59768590053E+03  0.59768724981E+03  0.12700000000E+01 0.  1.
         -4   -1    0    0    0  501 -0.00000000000E+00 -0.00000000000E+00 -0.12668661381E+04  0.12668667747E+04  0.12700000000E+01 0. -1.
     200001    2    1    2    0    0 -0.25081391954E+03  0.44233886316E+03 -0.43247423674E+03  0.96755847102E+03  0.70040283931E+03 0.  0.
    5000001    2    3    3    0    0 -0.11842920324E+03  0.16477331366E+03 -0.18159958564E+03  0.32919616172E+03  0.18497562626E+03 0.  0.
        -13    1    4    4    0    0 -0.10077497827E+02 -0.38818677987E+02 -0.13814389352E+02  0.42418088599E+02  0.10566000000E+00 0. -1.
     200003    1    4    4    0    0 -0.10835170541E+03  0.20359199165E+03 -0.16778519628E+03  0.28677807312E+03  0.30000000000E+02 0. -1.
     200000    1    3    3    0    0 -0.13238471630E+03  0.27756554950E+03 -0.25087465110E+03  0.63836230931E+03  0.50000000000E+03 0. -1.
    -200001    1    1    2    0    0  0.25081391954E+03 -0.44233886316E+03 -0.23670600084E+03  0.89699555346E+03  0.70000000000E+03 0. -1.
<mgrwt>
<rscale>  0 0.17403332E+04</rscale>
<asrwt>0</asrwt>
<pdfrwt beam="1">  1        4 0.85383842E-01 0.17403332E+04</pdfrwt>
<pdfrwt beam="2">  1       -4 0.18098102E+00 0.17403332E+04</pdfrwt>
<totfact> 0.40423811E-01</totfact>
</mgrwt>
</event>
<event>
 8    1  0.5217667E-029  0.2152699E+04  0.7818608E-02  0.8538378E-01
         -4   -1    0    0    0  501 -0.00000000000E+00  0.00000000000E+00  0.19513555040E+04  0.19513559173E+04  0.12700000000E+01 0. -1.
          4   -1    0    0  501    0  0.00000000000E+00 -0.00000000000E+00 -0.59370293582E+03  0.59370429415E+03  0.12700000000E+01 0.  1.
     200001    2    1    2    0    0 -0.34203968701E+03  0.35011025805E+03 -0.93366580853E+02  0.86130698986E+03  0.70254115330E+03 0.  0.
    5000001    2    3    3    0    0 -0.53359054173E+02  0.47847802016E+02 -0.75937154707E+02  0.20938453665E+03  0.18149058351E+03 0.  0.
        -13    1    4    4    0    0  0.16033961604E+01  0.88570516013E+02  0.16948244369E+02  0.90191803049E+02  0.10566000000E+00 0. -1.
     200003    1    4    4    0    0 -0.54962450334E+02 -0.40722713996E+02 -0.92885399076E+02  0.11919273360E+03  0.30000000000E+02 0. -1.
     200000    1    3    3    0    0 -0.28868063283E+03  0.30226245603E+03 -0.17429426146E+02  0.65192245321E+03  0.50000000000E+03 0. -1.
    -200001    1    1    2    0    0  0.34203968701E+03 -0.35011025805E+03  0.14510191490E+04  0.16837532216E+04  0.70000000000E+03 0. -1.
<mgrwt>
<rscale>  0 0.21526985E+04</rscale>
<asrwt>0</asrwt>
<pdfrwt beam="1">  1        4 0.84814833E-01 0.21526985E+04</pdfrwt>
<pdfrwt beam="2">  1       -4 0.27876519E+00 0.21526985E+04</pdfrwt>
<totfact> 0.94059108E-02</totfact>
</mgrwt>
</event>
<event>
 8    1  0.5217667E-029  0.2193733E+04  0.7818608E-02  0.8521041E-01
         -4   -1    0    0    0  501 -0.00000000000E+00  0.00000000000E+00  0.98835765634E+03  0.98835847229E+03  0.12700000000E+01 0. -1.
          4   -1    0    0  501    0  0.00000000000E+00 -0.00000000000E+00 -0.12172861272E+04  0.12172867897E+04  0.12700000000E+01 0.  1.
     200001    2    1    2    0    0  0.24144073847E+02  0.74462345796E+03  0.28497348809E+03  0.10614677172E+04  0.70032620642E+03 0.  0.
    5000001    2    3    3    0    0 -0.21427433749E+02  0.28402297415E+03 -0.12532440108E+02  0.31800329624E+03  0.14085755075E+03 0.  0.
        -13    1    4    4    0    0 -0.18977421460E+02  0.21521678505E+03 -0.65890863447E+02  0.22587612566E+03  0.10566000000E+00 0. -1.
     200003    1    4    4    0    0 -0.24500122887E+01  0.68806189099E+02  0.53358423339E+02  0.92127170584E+02  0.30000000000E+02 0. -1.
     200000    1    3    3    0    0  0.45571507596E+02  0.46060048381E+03  0.29750592820E+03  0.74346442101E+03  0.50000000000E+03 0. -1.
    -200001    1    1    2    0    0 -0.24144073847E+02 -0.74462345796E+03 -0.51390195891E+03  0.11441775447E+04  0.70000000000E+03 0.  1.
<mgrwt>
<rscale>  0 0.21937326E+04</rscale>
<asrwt>0</asrwt>
<pdfrwt beam="1">  1        4 0.17389812E+00 0.21937326E+04</pdfrwt>
<pdfrwt beam="2">  1       -4 0.14119406E+00 0.21937326E+04</pdfrwt>
<totfact> 0.12794607E-01</totfact>
</mgrwt>
</event>
<event>
 8    1  0.5217667E-029  0.1791425E+04  0.7818608E-02  0.8710873E-01
         -4   -1    0    0    0  501 -0.00000000000E+00  0.00000000000E+00  0.11575999422E+04  0.11576006389E+04  0.12700000000E+01 0. -1.
          4   -1    0    0  501    0  0.00000000000E+00 -0.00000000000E+00 -0.69307115486E+03  0.69307231845E+03  0.12700000000E+01 0.  1.
     200001    2    1    2    0    0  0.12698472450E+03 -0.43061755983E+03 -0.11141494174E+03  0.83910596389E+03  0.70009208415E+03 0.  0.
    5000001    2    3    3    0    0  0.29077635690E+02 -0.11666611269E+03 -0.18534118213E+02  0.23348384030E+03  0.19928547211E+03 0.  0.
        -13    1    4    4    0    0  0.79164229571E+02 -0.77181306499E+02  0.61761062130E+02  0.12664268347E+03  0.10566000000E+00 0. -1.
     200003    1    4    4    0    0 -0.50086593881E+02 -0.39484806195E+02 -0.80295180343E+02  0.10684115683E+03  0.30000000000E+02 0. -1.
     200000    1    3    3    0    0  0.97907088814E+02 -0.31395144714E+03 -0.92880823531E+02  0.60562212359E+03  0.50000000000E+03 0.  1.
    -200001    1    1    2    0    0 -0.12698472450E+03  0.43061755983E+03  0.57594372908E+03  0.10115669934E+04  0.70000000000E+03 0. -1.
<mgrwt>
<rscale>  0 0.17914250E+04</rscale>
<asrwt>0</asrwt>
<pdfrwt beam="1">  1        4 0.99010299E-01 0.17914250E+04</pdfrwt>
<pdfrwt beam="2">  1       -4 0.16537155E+00 0.17914250E+04</pdfrwt>
<totfact> 0.36771609E-01</totfact>
</mgrwt>
</event>
<event>
 8    1  0.5217667E-029  0.1521102E+04  0.7818608E-02  0.8870540E-01
         -4   -1    0    0    0  501 -0.00000000000E+00  0.00000000000E+00  0.10875306286E+04  0.10875313702E+04  0.12700000000E+01 0. -1.
          4   -1    0    0  501    0  0.00000000000E+00 -0.00000000000E+00 -0.53188040150E+03  0.53188191772E+03  0.12700000000E+01 0.  1.
     200001    2    1    2    0    0 -0.17369295494E+03 -0.10724464126E+03  0.50933902876E+03  0.88878658239E+03  0.69917428953E+03 0.  0.
    5000001    2    3    3    0    0  0.38266401427E+02  0.10438733786E+03  0.14893212028E+03  0.20350707517E+03  0.82905484792E+02 0.  0.
        -13    1    4    4    0    0 -0.18602928641E+02  0.33143222586E+01  0.20048794261E+02  0.27550299479E+02  0.10566000000E+00 0. -1.
     200003    1    4    4    0    0  0.56869330067E+02  0.10107301560E+03  0.12888332602E+03  0.17595677569E+03  0.30000000000E+02 0. -1.
     200000    1    3    3    0    0 -0.21195935637E+03 -0.21163197912E+03  0.36040690849E+03  0.68527950723E+03  0.50000000000E+03 0. -1.
    -200001    1    1    2    0    0  0.17369295494E+03  0.10724464126E+03  0.46311198344E+02  0.73062670548E+03  0.70000000000E+03 0.  1.
<mgrwt>
<rscale>  0 0.15211023E+04</rscale>
<asrwt>0</asrwt>
<pdfrwt beam="1">  1        4 0.75983075E-01 0.15211023E+04</pdfrwt>
<pdfrwt beam="2">  1       -4 0.15536168E+00 0.15211023E+04</pdfrwt>
<totfact> 0.82014176E-01</totfact>
</mgrwt>
</event>
<event>
 8    1  0.5217667E-029  0.1674690E+04  0.7818608E-02  0.8775933E-01
         -4   -1    0    0    0  501 -0.00000000000E+00  0.00000000000E+00  0.31841617950E+03  0.31841871218E+03  0.12700000000E+01 0. -1.
          4   -1    0    0  501    0  0.00000000000E+00 -0.00000000000E+00 -0.22019703662E+04  0.22019707325E+04  0.12700000000E+01 0.  1.
     200001    2    1    2    0    0 -0.11992777426E+03 -0.74027844865E+02 -0.16000857473E+04  0.17521335309E+04  0.69988193184E+03 0.  0.
    5000001    2    3    3    0    0 -0.25542592051E+02  0.11003754947E+02 -0.34962938825E+03  0.39943990649E+03  0.19114921696E+03 0.  0.
        -13    1    4    4    0    0  0.51684696516E+02 -0.44427469194E+02 -0.24755625570E+03  0.25676685684E+03  0.10566000000E+00 0. -1.
     200003    1    4    4    0    0 -0.77227288567E+02  0.55431224141E+02 -0.10207313255E+03  0.14267304965E+03  0.30000000000E+02 0. -1.
     200000    1    3    3    0    0 -0.94385182212E+02 -0.85031599812E+02 -0.12504563590E+04  0.13526936244E+04  0.50000000000E+03 0.  1.
    -200001    1    1    2    0    0  0.11992777426E+03  0.74027844865E+02 -0.28346843942E+03  0.76825591375E+03  0.70000000000E+03 0. -1.
<mgrwt>
<rscale>  0 0.16746900E+04</rscale>
<asrwt>0</asrwt>
<pdfrwt beam="1">  1        4 0.31456739E+00 0.16746900E+04</pdfrwt>
<pdfrwt beam="2">  1       -4 0.45488234E-01 0.16746900E+04</pdfrwt>
<totfact> 0.22655434E-01</totfact>
</mgrwt>
</event>
<event>
 8    1  0.5217667E-029  0.1646344E+04  0.7818608E-02  0.8792572E-01
         -4   -1    0    0    0  501 -0.00000000000E+00  0.00000000000E+00  0.58986386991E+03  0.58986523708E+03  0.12700000000E+01 0. -1.
          4   -1    0    0  501    0  0.00000000000E+00 -0.00000000000E+00 -0.11487570286E+04  0.11487577306E+04  0.12700000000E+01 0.  1.
     200001    2    1    2    0    0 -0.25650657701E+03  0.18752479529E+03 -0.58936288860E+03  0.96927936606E+03  0.70085141230E+03 0.  0.
    5000001    2    3    3    0    0 -0.25162255256E+02  0.41830105074E+02 -0.18144939292E+03  0.26846515536E+03  0.19174660537E+03 0.  0.
        -13    1    4    4    0    0  0.70869504471E+02  0.14479402456E+02 -0.17908970111E+02  0.74517663234E+02  0.10566000000E+00 0. -1.
     200003    1    4    4    0    0 -0.96031759726E+02  0.27350702617E+02 -0.16354042281E+03  0.19394749213E+03  0.30000000000E+02 0. -1.
     200000    1    3    3    0    0 -0.23134432175E+03  0.14569469022E+03 -0.40791349568E+03  0.70081421070E+03  0.50000000000E+03 0.  1.
    -200001    1    1    2    0    0  0.25650657701E+03 -0.18752479529E+03  0.30469729936E+02  0.76934360161E+03  0.70000000000E+03 0.  1.
<mgrwt>
<rscale>  0 0.16463439E+04</rscale>
<asrwt>0</asrwt>
<pdfrwt beam="1">  1        4 0.16410829E+00 0.16463439E+04</pdfrwt>
<pdfrwt beam="2">  1       -4 0.84266416E-01 0.16463439E+04</pdfrwt>
<totfact> 0.55316984E-01</totfact>
</mgrwt>
</event>
<event>
 8    1  0.5217667E-029  0.1855375E+04  0.7818608E-02  0.8677393E-01
          4   -1    0    0  501    0  0.00000000000E+00  0.00000000000E+00  0.12622867939E+04  0.12622874327E+04  0.12700000000E+01 0.  1.
         -4   -1    0    0    0  501 -0.00000000000E+00 -0.00000000000E+00 -0.68178069547E+03  0.68178187833E+03  0.12700000000E+01 0. -1.
     200001    2    1    2    0    0 -0.72113941537E+02 -0.18406441952E+03 -0.31327061450E+03  0.79171652498E+03  0.69971168843E+03 0.  0.
    5000001    2    3    3    0    0  0.17032929397E+02  0.82128902911E+02 -0.13693017554E+03  0.19179819728E+03  0.10488754993E+03 0.  0.
        -13    1    4    4    0    0 -0.32998458473E+02  0.31418428684E+02 -0.91301731460E+02  0.10203937110E+03  0.10566000000E+00 0. -1.
     200003    1    4    4    0    0  0.50031387870E+02  0.50710474227E+02 -0.45628444076E+02  0.89758826181E+02  0.30000000000E+02 0. -1.
     200000    1    3    3    0    0 -0.89146870934E+02 -0.26619332243E+03 -0.17634043896E+03  0.59991832770E+03  0.50000000000E+03 0. -1.
    -200001    1    1    2    0    0  0.72113941537E+02  0.18406441952E+03  0.89377671289E+03  0.11523527861E+04  0.70000000000E+03 0.  1.
<mgrwt>
<rscale>  0 0.18553755E+04</rscale>
<asrwt>0</asrwt>
<pdfrwt beam="1">  1        4 0.18032681E+00 0.18553755E+04</pdfrwt>
<pdfrwt beam="2">  1       -4 0.97397373E-01 0.18553755E+04</pdfrwt>
<totfact> 0.29783839E-01</totfact>
</mgrwt>
</event>
<event>
 8    1  0.5217667E-029  0.1559371E+04  0.7818608E-02  0.8845904E-01
          4   -1    0    0  501    0  0.00000000000E+00  0.00000000000E+00  0.40576413897E+03  0.40576612645E+03  0.12700000000E+01 0.  1.
         -4   -1    0    0    0  501 -0.00000000000E+00 -0.00000000000E+00 -0.14981784492E+04  0.14981789874E+04  0.12700000000E+01 0. -1.
     200001    2    1    2    0    0 -0.30168704872E+03  0.16381999883E+03 -0.59676982413E+03  0.98008607489E+03  0.69755460275E+03 0.  0.
    5000001    2    3    3    0    0 -0.19790058220E+03 -0.82887789370E+01 -0.16483812272E+03  0.28946457457E+03  0.13185138960E+03 0.  0.
        -13    1    4    4    0    0  0.13906262239E+01  0.24628325173E+02 -0.48576550631E+02  0.54481012080E+02  0.10566000000E+00 0. -1.
     200003    1    4    4    0    0 -0.19929120842E+03 -0.32917104110E+02 -0.11626157209E+03  0.23498356249E+03  0.30000000000E+02 0. -1.
     200000    1    3    3    0    0 -0.10378646652E+03  0.17210877776E+03 -0.43193170141E+03  0.69062150032E+03  0.50000000000E+03 0.  1.
    -200001    1    1    2    0    0  0.30168704872E+03 -0.16381999883E+03 -0.49564448606E+03  0.92385903900E+03  0.70000000000E+03 0. -1.
<mgrwt>
<rscale>  0 0.15593710E+04</rscale>
<asrwt>0</asrwt>
<pdfrwt beam="1">  1        4 0.57966487E-01 0.15593710E+04</pdfrwt>
<pdfrwt beam="2">  1       -4 0.21402567E+00 0.15593710E+04</pdfrwt>
<totfact> 0.58248638E-01</totfact>
</mgrwt>
</event>
<event>
 8    1  0.5217667E-029  0.1490834E+04  0.7818608E-02  0.8890571E-01
         -4   -1    0    0    0  501 -0.00000000000E+00  0.00000000000E+00  0.47744737102E+03  0.47744906010E+03  0.12700000000E+01 0. -1.
          4   -1    0    0  501    0  0.00000000000E+00 -0.00000000000E+00 -0.11637818210E+04  0.11637825139E+04  0.12700000000E+01 0.  1.
     200001    2    1    2    0    0  0.67694650145E+02  0.18060986853E+03 -0.15978083380E+03  0.74431396302E+03  0.70090717675E+03 0.  0.
    5000001    2    3    3    0    0  0.71605995235E+02  0.36137734629E+01  0.37720377446E+02  0.17831957724E+03  0.15885391667E+03 0.  0.
        -13    1    4    4    0    0  0.85755299885E+02 -0.57768922684E+02  0.12597420855E+02  0.10416297837E+03  0.10566000000E+00 0. -1.
     200003    1    4    4    0    0 -0.14149304651E+02  0.61382696146E+02  0.25122956591E+02  0.74156598871E+02  0.30000000000E+02 0. -1.
     200000    1    3    3    0    0 -0.39113450895E+01  0.17699609506E+03 -0.19750121124E+03  0.56599438578E+03  0.50000000000E+03 0. -1.
    -200001    1    1    2    0    0 -0.67694650145E+02 -0.18060986853E+03 -0.52655361615E+03  0.89691761102E+03  0.70000000000E+03 0.  1.
<mgrwt>
<rscale>  0 0.14908340E+04</rscale>
<asrwt>0</asrwt>
<pdfrwt beam="1">  1        4 0.16625471E+00 0.14908340E+04</pdfrwt>
<pdfrwt beam="2">  1       -4 0.68206938E-01 0.14908340E+04</pdfrwt>
<totfact> 0.86760995E-01</totfact>
</mgrwt>
</event>
<event>
 8    1  0.5217667E-029  0.1579698E+04  0.7818608E-02  0.8833118E-01
         -4   -1    0    0    0  501 -0.00000000000E+00  0.00000000000E+00  0.28343866028E+03  0.28344150551E+03  0.12700000000E+01 0. -1.
          4   -1    0    0  501    0  0.00000000000E+00 -0.00000000000E+00 -0.22010314775E+04  0.22010318438E+04  0.12700000000E+01 0.  1.
     200001    2    1    2    0    0 -0.12130025429E+03 -0.34041076398E+03 -0.86558051742E+03  0.11701966971E+04  0.69966952039E+03 0.  0.
    5000001    2    3    3    0    0 -0.24432226141E+02 -0.12112971177E+03 -0.24672848419E+03  0.33926623441E+03  0.19737601717E+03 0.  0.
        -13    1    4    4    0    0 -0.91122199690E+02 -0.31544052475E+02 -0.18392714412E+03  0.20767158697E+03  0.10566000000E+00 0. -1.
     200003    1    4    4    0    0  0.66689973549E+02 -0.89585659291E+02 -0.62801340067E+02  0.13159464745E+03  0.30000000000E+02 0. -1.
     200000    1    3    3    0    0 -0.96868028148E+02 -0.21928105221E+03 -0.61885203323E+03  0.83093046266E+03  0.50000000000E+03 0. -1.
    -200001    1    1    2    0    0  0.12130025429E+03  0.34041076398E+03 -0.10520122997E+04  0.13142766523E+04  0.70000000000E+03 0.  1.
<mgrwt>
<rscale>  0 0.15796979E+04</rscale>
<asrwt>0</asrwt>
<pdfrwt beam="1">  1        4 0.31443329E+00 0.15796979E+04</pdfrwt>
<pdfrwt beam="2">  1       -4 0.40491468E-01 0.15796979E+04</pdfrwt>
<totfact> 0.29007656E-01</totfact>
</mgrwt>
</event>
<event>
 8    1  0.5217667E-029  0.1708181E+04  0.7818608E-02  0.8756712E-01
          4   -1    0    0  501    0  0.00000000000E+00  0.00000000000E+00  0.29310223880E+03  0.29310499022E+03  0.12700000000E+01 0.  1.
         -4   -1    0    0    0  501 -0.00000000000E+00 -0.00000000000E+00 -0.24887779210E+04  0.24887782451E+04  0.12700000000E+01 0. -1.
     200001    2    1    2    0    0  0.46527514027E+03  0.85437634662E+02 -0.13016258284E+04  0.15517996257E+04  0.70005123772E+03 0.  0.
    5000001    2    3    3    0    0  0.20447465486E+03  0.36882991657E+02 -0.23097794961E+03  0.34074168859E+03  0.13994229377E+03 0.  0.
        -13    1    4    4    0    0  0.11980584161E+03  0.70502018003E+02 -0.75848983030E+02  0.15835736048E+03  0.10566000000E+00 0. -1.
     200003    1    4    4    0    0  0.84668813247E+02 -0.33619026345E+02 -0.15512896658E+03  0.18238432812E+03  0.30000000000E+02 0. -1.
     200000    1    3    3    0    0  0.26080048541E+03  0.48554643004E+02 -0.10706478788E+04  0.12110579371E+04  0.50000000000E+03 0. -1.
    -200001    1    1    2    0    0 -0.46527514027E+03 -0.85437634662E+02 -0.89404985380E+03  0.12300836096E+04  0.70000000000E+03 0. -1.
<mgrwt>
<rscale>  0 0.17081811E+04</rscale>
<asrwt>0</asrwt>
<pdfrwt beam="1">  1        4 0.41871969E-01 0.17081811E+04</pdfrwt>
<pdfrwt beam="2">  1       -4 0.35553991E+00 0.17081811E+04</pdfrwt>
<totfact> 0.14621238E-01</totfact>
</mgrwt>
</event>
<event>
 8    1  0.5217667E-029  0.1562316E+04  0.7818608E-02  0.8844039E-01
         -4   -1    0    0    0  501 -0.00000000000E+00  0.00000000000E+00  0.26932311226E+04  0.26932314220E+04  0.12700000000E+01 0. -1.
          4   -1    0    0  501    0  0.00000000000E+00 -0.00000000000E+00 -0.22656888411E+03  0.22657244348E+03  0.12700000000E+01 0.  1.
     200001    2    1    2    0    0 -0.29031601550E+03 -0.61764879903E+02  0.89920408879E+03  0.11776720277E+04  0.70017506547E+03 0.  0.
    5000001    2    3    3    0    0 -0.21696443529E+03  0.37988259682E+01  0.37004301429E+03  0.44303572544E+03  0.11072860665E+03 0.  0.
        -13    1    4    4    0    0 -0.17963919490E+03 -0.32933652479E+02  0.29142339627E+03  0.34392219013E+03  0.10566000000E+00 0. -1.
     200003    1    4    4    0    0 -0.37325240397E+02  0.36732478447E+02  0.78619618019E+02  0.99113535306E+02  0.30000000000E+02 0.  1.
     200000    1    3    3    0    0 -0.73351580207E+02 -0.65563705872E+02  0.52916107450E+03  0.73463630227E+03  0.50000000000E+03 0.  1.
    -200001    1    1    2    0    0  0.29031601550E+03  0.61764879903E+02  0.15674581497E+04  0.17421318378E+04  0.70000000000E+03 0. -1.
<mgrwt>
<rscale>  0 0.15623162E+04</rscale>
<asrwt>0</asrwt>
<pdfrwt beam="1">  1        4 0.32367260E-01 0.15623162E+04</pdfrwt>
<pdfrwt beam="2">  1       -4 0.38474757E+00 0.15623162E+04</pdfrwt>
<totfact> 0.15803344E-01</totfact>
</mgrwt>
</event>
<event>
 8    1  0.5217667E-029  0.2366973E+04  0.7818608E-02  0.8451973E-01
         -4   -1    0    0    0  501 -0.00000000000E+00  0.00000000000E+00  0.70681510958E+03  0.70681625055E+03  0.12700000000E+01 0. -1.
          4   -1    0    0  501    0  0.00000000000E+00 -0.00000000000E+00 -0.19816182105E+04  0.19816186174E+04  0.12700000000E+01 0.  1.
     200001    2    1    2    0    0 -0.26029585136E+02 -0.89376228641E+03 -0.25726353408E+03  0.11636806799E+04  0.69891318130E+03 0.  0.
    5000001    2    3    3    0    0 -0.28852363537E+02 -0.42958904452E+03 -0.15604712478E+03  0.47396368865E+03  0.12211333651E+03 0.  0.
        -13    1    4    4    0    0 -0.68979152193E+02 -0.22726450148E+03 -0.63088254708E+02  0.24573851167E+03  0.10566000000E+00 0. -1.
     200003    1    4    4    0    0  0.40126788656E+02 -0.20232454304E+03 -0.92958870070E+02  0.22822517698E+03  0.30000000000E+02 0. -1.
     200000    1    3    3    0    0  0.28227784012E+01 -0.46417324189E+03 -0.10121640930E+03  0.68971699129E+03  0.50000000000E+03 0.  1.
    -200001    1    1    2    0    0  0.26029585136E+02  0.89376228641E+03 -0.10175395668E+04  0.15247541880E+04  0.70000000000E+03 0.  1.
<mgrwt>
<rscale>  0 0.23669726E+04</rscale>
<asrwt>0</asrwt>
<pdfrwt beam="1">  1        4 0.28308842E+00 0.23669726E+04</pdfrwt>
<pdfrwt beam="2">  1       -4 0.10097370E+00 0.23669726E+04</pdfrwt>
<totfact> 0.57707942E-02</totfact>
</mgrwt>
</event>
<event>
 8    1  0.5217667E-029  0.1949138E+04  0.7818608E-02  0.8630776E-01
          4   -1    0    0  501    0  0.00000000000E+00  0.00000000000E+00  0.13173782651E+04  0.13173788773E+04  0.12700000000E+01 0.  1.
         -4   -1    0    0    0  501 -0.00000000000E+00 -0.00000000000E+00 -0.72096459253E+03  0.72096571110E+03  0.12700000000E+01 0. -1.
     200001    2    1    2    0    0 -0.23719692097E+03 -0.23392561941E+03 -0.31845061706E+03  0.83919478822E+03  0.70132269487E+03 0.  0.
    5000001    2    3    3    0    0 -0.66243391171E+02 -0.89870101632E+02  0.33324594265E+02  0.18825477496E+03  0.14786652655E+03 0.  0.
        -13    1    4    4    0    0 -0.62559837039E+02 -0.12360765533E+03  0.35130190504E+02  0.14292210156E+03  0.10566000000E+00 0. -1.
     200003    1    4    4    0    0 -0.36835541315E+01  0.33737553694E+02 -0.18055962389E+01  0.45332673405E+02  0.30000000000E+02 0. -1.
     200000    1    3    3    0    0 -0.17095352980E+03 -0.14405551778E+03 -0.35177521132E+03  0.65094001325E+03  0.50000000000E+03 0. -1.
    -200001    1    1    2    0    0  0.23719692097E+03  0.23392561941E+03  0.91486428963E+03  0.11991498001E+04  0.70000000000E+03 0.  1.
<mgrwt>
<rscale>  0 0.19491381E+04</rscale>
<asrwt>0</asrwt>
<pdfrwt beam="1">  1        4 0.18819702E+00 0.19491381E+04</pdfrwt>
<pdfrwt beam="2">  1       -4 0.10299507E+00 0.19491381E+04</pdfrwt>
<totfact> 0.22841759E-01</totfact>
</mgrwt>
</event>
<event>
 8    1  0.5217667E-029  0.1618456E+04  0.7818608E-02  0.8809290E-01
          4   -1    0    0  501    0  0.00000000000E+00  0.00000000000E+00  0.37252156487E+03  0.37252372970E+03  0.12700000000E+01 0.  1.
         -4   -1    0    0    0  501 -0.00000000000E+00 -0.00000000000E+00 -0.17578762578E+04  0.17578767166E+04  0.12700000000E+01 0. -1.
     200001    2    1    2    0    0 -0.27729319502E+03 -0.28792286756E+03 -0.60232646336E+03  0.10066013975E+04  0.70046992182E+03 0.  0.
    5000001    2    3    3    0    0  0.20351779936E+01 -0.16579380565E+03 -0.14875855648E+03  0.26588303412E+03  0.14516525676E+03 0.  0.
        -13    1    4    4    0    0  0.59040625210E+02 -0.13490675824E+03 -0.11513096818E+03  0.18692452980E+03  0.10566000000E+00 0. -1.
     200003    1    4    4    0    0 -0.57005447216E+02 -0.30887047409E+02 -0.33627588297E+02  0.78958504321E+02  0.30000000000E+02 0. -1.
     200000    1    3    3    0    0 -0.27932837302E+03 -0.12212906191E+03 -0.45356790688E+03  0.74071836340E+03  0.50000000000E+03 0.  1.
    -200001    1    1    2    0    0  0.27729319502E+03  0.28792286756E+03 -0.78302822962E+03  0.11237990488E+04  0.70000000000E+03 0.  1.
<mgrwt>
<rscale>  0 0.16184556E+04</rscale>
<asrwt>0</asrwt>
<pdfrwt beam="1">  1        4 0.53217555E-01 0.16184556E+04</pdfrwt>
<pdfrwt beam="2">  1       -4 0.25112536E+00 0.16184556E+04</pdfrwt>
<totfact> 0.40609285E-01</totfact>
</mgrwt>
</event>
<event>
 8    1  0.5217667E-029  0.1501058E+04  0.7818608E-02  0.8883750E-01
          4   -1    0    0  501    0  0.00000000000E+00  0.00000000000E+00  0.36658794882E+03  0.36659014869E+03  0.12700000000E+01 0.  1.
         -4   -1    0    0    0  501 -0.00000000000E+00 -0.00000000000E+00 -0.15365789471E+04  0.15365794719E+04  0.12700000000E+01 0. -1.
     200001    2    1    2    0    0 -0.25563225479E+03 -0.76863545364E+02 -0.52244320441E+03  0.91293025579E+03  0.69945614287E+03 0.  0.
    5000001    2    3    3    0    0 -0.10607689340E+03  0.30489332427E+02 -0.19703311652E+03  0.28860408158E+03  0.17968962184E+03 0.  0.
        -13    1    4    4    0    0 -0.39805929662E+01 -0.39664814967E+02  0.13845248451E+02  0.42200056107E+02  0.10566000000E+00 0. -1.
     200003    1    4    4    0    0 -0.10209630043E+03  0.70154147394E+02 -0.21087836497E+03  0.24640402548E+03  0.30000000000E+02 0. -1.
     200000    1    3    3    0    0 -0.14955536139E+03 -0.10735287779E+03 -0.32541008789E+03  0.62432617420E+03  0.50000000000E+03 0.  1.
    -200001    1    1    2    0    0  0.25563225479E+03  0.76863545364E+02 -0.64754779382E+03  0.99023936479E+03  0.70000000000E+03 0.  1.
<mgrwt>
<rscale>  0 0.15010582E+04</rscale>
<asrwt>0</asrwt>
<pdfrwt beam="1">  1        4 0.52369902E-01 0.15010582E+04</pdfrwt>
<pdfrwt beam="2">  1       -4 0.21951147E+00 0.15010582E+04</pdfrwt>
<totfact> 0.66904462E-01</totfact>
</mgrwt>
</event>
<event>
 8    1  0.5217667E-029  0.2331188E+04  0.7818608E-02  0.8465725E-01
         -4   -1    0    0    0  501 -0.00000000000E+00  0.00000000000E+00  0.78173902870E+03  0.78174006030E+03  0.12700000000E+01 0. -1.
          4   -1    0    0  501    0  0.00000000000E+00 -0.00000000000E+00 -0.17379297523E+04  0.17379302163E+04  0.12700000000E+01 0.  1.
     200001    2    1    2    0    0 -0.76334123548E+03  0.35459421090E+02 -0.10547677411E+04  0.14786781342E+04  0.70000487451E+03 0.  0.
    5000001    2    3    3    0    0 -0.28819848871E+03  0.60218789085E+02 -0.35764524816E+03  0.49768199434E+03  0.18191364023E+03 0.  0.
        -13    1    4    4    0    0 -0.10874962269E+03  0.82607353214E+02 -0.25062238080E+03  0.28541556398E+03  0.10566000000E+00 0. -1.
     200003    1    4    4    0    0 -0.17944886602E+03 -0.22388564129E+02 -0.10702286737E+03  0.21226643037E+03  0.30000000000E+02 0. -1.
     200000    1    3    3    0    0 -0.47514274677E+03 -0.24759367995E+02 -0.69712249298E+03  0.98099613982E+03  0.50000000000E+03 0.  1.
    -200001    1    1    2    0    0  0.76334123548E+03 -0.35459421090E+02  0.98577017528E+02  0.10409921425E+04  0.70000000000E+03 0. -1.
<mgrwt>
<rscale>  0 0.23311880E+04</rscale>
<asrwt>0</asrwt>
<pdfrwt beam="1">  1        4 0.24827579E+00 0.23311880E+04</pdfrwt>
<pdfrwt beam="2">  1       -4 0.11167711E+00 0.23311880E+04</pdfrwt>
<totfact> 0.74573957E-02</totfact>
</mgrwt>
</event>
<event>
 8    1  0.5217667E-029  0.1738655E+04  0.7818608E-02  0.8739620E-01
         -4   -1    0    0    0  501 -0.00000000000E+00  0.00000000000E+00  0.54985157429E+03  0.54985304096E+03  0.12700000000E+01 0. -1.
          4   -1    0    0  501    0  0.00000000000E+00 -0.00000000000E+00 -0.13744231310E+04  0.13744237178E+04  0.12700000000E+01 0.  1.
     200001    2    1    2    0    0  0.28508044199E+03  0.35257448599E+03 -0.14078606085E+03  0.84578603975E+03  0.69996691602E+03 0.  0.
    5000001    2    3    3    0    0  0.66609385991E+02  0.36095635328E+02 -0.70902190784E+02  0.21114265916E+03  0.18388691272E+03 0.  0.
        -13    1    4    4    0    0  0.34972543787E+02  0.10808769961E+03 -0.51696741705E+02  0.12481423754E+03  0.10566000000E+00 0. -1.
     200003    1    4    4    0    0  0.31636842204E+02 -0.71992064285E+02 -0.19205449079E+02  0.86328421618E+02  0.30000000000E+02 0. -1.
     200000    1    3    3    0    0  0.21847105600E+03  0.31647885066E+03 -0.69883870070E+02  0.63464338058E+03  0.50000000000E+03 0. -1.
    -200001    1    1    2    0    0 -0.28508044199E+03 -0.35257448599E+03 -0.68378549585E+03  0.10784907190E+04  0.70000000000E+03 0.  1.
<mgrwt>
<rscale>  0 0.17386555E+04</rscale>
<asrwt>0</asrwt>
<pdfrwt beam="1">  1        4 0.19634631E+00 0.17386555E+04</pdfrwt>
<pdfrwt beam="2">  1       -4 0.78550372E-01 0.17386555E+04</pdfrwt>
<totfact> 0.38456704E-01</totfact>
</mgrwt>
</event>
<event>
 8    1  0.5217667E-029  0.1844642E+04  0.7818608E-02  0.8682913E-01
          4   -1    0    0  501    0  0.00000000000E+00  0.00000000000E+00  0.59716801853E+03  0.59716936898E+03  0.12700000000E+01 0.  1.
         -4   -1    0    0    0  501 -0.00000000000E+00 -0.00000000000E+00 -0.14245131194E+04  0.14245136855E+04  0.12700000000E+01 0. -1.
     200001    2    1    2    0    0 -0.49042937740E+03 -0.33193698923E+03 -0.30302987789E+03  0.96545883962E+03  0.69970031090E+03 0.  0.
    5000001    2    3    3    0    0 -0.17299780847E+03 -0.13917897362E+03 -0.38858488901E+02  0.28891987083E+03  0.18073649649E+03 0.  0.
        -13    1    4    4    0    0 -0.13596580467E+03 -0.16272922765E+03  0.15838013486E+02  0.21264608015E+03  0.10566000000E+00 0. -1.
     200003    1    4    4    0    0 -0.37032003808E+02  0.23550254025E+02 -0.54696502386E+02  0.76273790675E+02  0.30000000000E+02 0. -1.
     200000    1    3    3    0    0 -0.31743156892E+03 -0.19275801560E+03 -0.26417138899E+03  0.67653896879E+03  0.50000000000E+03 0.  1.
    -200001    1    1    2    0    0  0.49042937740E+03  0.33193698923E+03 -0.52431522294E+03  0.10562242149E+04  0.70000000000E+03 0.  1.
<mgrwt>
<rscale>  0 0.18446416E+04</rscale>
<asrwt>0</asrwt>
<pdfrwt beam="1">  1        4 0.85309854E-01 0.18446416E+04</pdfrwt>
<pdfrwt beam="2">  1       -4 0.20350201E+00 0.18446416E+04</pdfrwt>
<totfact> 0.28333317E-01</totfact>
</mgrwt>
</event>
<event>
 8    1  0.5217667E-029  0.1676725E+04  0.7818608E-02  0.8774751E-01
          4   -1    0    0  501    0  0.00000000000E+00  0.00000000000E+00  0.74662711492E+03  0.74662819505E+03  0.12700000000E+01 0.  1.
         -4   -1    0    0    0  501 -0.00000000000E+00 -0.00000000000E+00 -0.94136677871E+03  0.94136763539E+03  0.12700000000E+01 0. -1.
     200001    2    1    2    0    0 -0.20316443200E+03 -0.20186133905E+02 -0.51379871603E+03  0.89208004013E+03  0.70009600125E+03 0.  0.
    5000001    2    3    3    0    0 -0.17866763132E+03 -0.46674242550E+01 -0.35747927609E+02  0.19971201667E+03  0.81627617528E+02 0.  0.
        -13    1    4    4    0    0 -0.11663471866E+03 -0.27705385237E+02 -0.41423346620E+02  0.12683513227E+03  0.10566000000E+00 0. -1.
     200003    1    4    4    0    0 -0.62032912664E+02  0.23037960982E+02  0.56754190105E+01  0.72876884406E+02  0.30000000000E+02 0. -1.
     200000    1    3    3    0    0 -0.24496800675E+02 -0.15518709650E+02 -0.47805078842E+03  0.69236802345E+03  0.50000000000E+03 0. -1.
    -200001    1    1    2    0    0  0.20316443200E+03  0.20186133905E+02  0.31905905225E+03  0.79591579030E+03  0.70000000000E+03 0. -1.
<mgrwt>
<rscale>  0 0.16767249E+04</rscale>
<asrwt>0</asrwt>
<pdfrwt beam="1">  1        4 0.10666115E+00 0.16767249E+04</pdfrwt>
<pdfrwt beam="2">  1       -4 0.13448111E+00 0.16767249E+04</pdfrwt>
<totfact> 0.53843004E-01</totfact>
</mgrwt>
</event>
<event>
 8    1  0.5217667E-029  0.1775913E+04  0.7818608E-02  0.8719215E-01
          4   -1    0    0  501    0  0.00000000000E+00  0.00000000000E+00  0.74945110573E+03  0.74945218178E+03  0.12700000000E+01 0.  1.
         -4   -1    0    0    0  501 -0.00000000000E+00 -0.00000000000E+00 -0.10520563884E+04  0.10520571549E+04  0.12700000000E+01 0. -1.
     200001    2    1    2    0    0 -0.48617078989E+03  0.68814458050E+02  0.91990580868E+02  0.85980696224E+03  0.69979159666E+03 0.  0.
    5000001    2    3    3    0    0 -0.19032725313E+03  0.11924737617E+03 -0.12024716705E+02  0.26745060024E+03  0.14470946668E+03 0.  0.
        -13    1    4    4    0    0 -0.80490389080E+02  0.49980753894E+02 -0.74242144333E+02  0.12036895635E+03  0.10566000000E+00 0. -1.
     200003    1    4    4    0    0 -0.10983686406E+03  0.69266622279E+02  0.62217427629E+02  0.14708164389E+03  0.30000000000E+02 0. -1.
     200000    1    3    3    0    0 -0.29584353676E+03 -0.50432918123E+02  0.10401529757E+03  0.59235636200E+03  0.50000000000E+03 0.  1.
    -200001    1    1    2    0    0  0.48617078989E+03 -0.68814458050E+02 -0.39459586353E+03  0.94170237448E+03  0.70000000000E+03 0. -1.
<mgrwt>
<rscale>  0 0.17759127E+04</rscale>
<asrwt>0</asrwt>
<pdfrwt beam="1">  1        4 0.10706457E+00 0.17759127E+04</pdfrwt>
<pdfrwt beam="2">  1       -4 0.15029390E+00 0.17759127E+04</pdfrwt>
<totfact> 0.39567192E-01</totfact>
</mgrwt>
</event>
<event>
 8    1  0.5217667E-029  0.2359322E+04  0.7818608E-02  0.8454892E-01
         -4   -1    0    0    0  501 -0.00000000000E+00  0.00000000000E+00  0.26104457300E+04  0.26104460389E+04  0.12700000000E+01 0. -1.
          4   -1    0    0  501    0  0.00000000000E+00 -0.00000000000E+00 -0.53308791397E+03  0.53308942676E+03  0.12700000000E+01 0.  1.
     200001    2    1    2    0    0 -0.89269684688E+03 -0.99899897897E+02  0.14481364612E+04  0.18424562354E+04  0.70046992734E+03 0.  0.
    5000001    2    3    3    0    0 -0.23472147668E+03 -0.34938079975E+02  0.27786024321E+03  0.40833697538E+03  0.18225786584E+03 0.  0.
        -13    1    4    4    0    0 -0.17233330943E+03  0.25283333556E+02  0.82974963292E+02  0.19293229951E+03  0.10566000000E+00 0. -1.
     200003    1    4    4    0    0 -0.62388167244E+02 -0.60221413532E+02  0.19488527992E+03  0.21540467587E+03  0.30000000000E+02 0. -1.
     200000    1    3    3    0    0 -0.65797537020E+03 -0.64961817922E+02  0.11702762180E+04  0.14341192601E+04  0.50000000000E+03 0. -1.
    -200001    1    1    2    0    0  0.89269684688E+03  0.99899897897E+02  0.62922135474E+03  0.13010792302E+04  0.70000000000E+03 0.  1.
<mgrwt>
<rscale>  0 0.23593219E+04</rscale>
<asrwt>0</asrwt>
<pdfrwt beam="1">  1        4 0.76155546E-01 0.23593219E+04</pdfrwt>
<pdfrwt beam="2">  1       -4 0.37292095E+00 0.23593219E+04</pdfrwt>
<totfact> 0.29485207E-02</totfact>
</mgrwt>
</event>
<event>
 8    1  0.5217667E-029  0.1687132E+04  0.7818608E-02  0.8768738E-01
          4   -1    0    0  501    0  0.00000000000E+00  0.00000000000E+00  0.21876484318E+04  0.21876488004E+04  0.12700000000E+01 0.  1.
         -4   -1    0    0    0  501 -0.00000000000E+00 -0.00000000000E+00 -0.32528087959E+03  0.32528335882E+03  0.12700000000E+01 0. -1.
     200001    2    1    2    0    0 -0.30596022291E+03 -0.20114129299E+03  0.13672431082E+04  0.15806137089E+04  0.70350302219E+03 0.  0.
    5000001    2    3    3    0    0 -0.94356380127E+02 -0.84893650193E+02  0.43947195073E+03  0.49938800569E+03  0.20035649837E+03 0.  0.
        -13    1    4    4    0    0 -0.84227493359E+02 -0.76473944050E+02  0.45063568581E+03  0.46477421104E+03  0.10566000000E+00 0. -1.
     200003    1    4    4    0    0 -0.10128886768E+02 -0.84197061424E+01 -0.11163735089E+02  0.34613794646E+02  0.30000000000E+02 0. -1.
     200000    1    3    3    0    0 -0.21160384279E+03 -0.11624764280E+03  0.92777115746E+03  0.10812257032E+04  0.50000000000E+03 0.  1.
    -200001    1    1    2    0    0  0.30596022291E+03  0.20114129299E+03  0.49512444403E+03  0.93231845033E+03  0.70000000000E+03 0. -1.
<mgrwt>
<rscale>  0 0.16871322E+04</rscale>
<asrwt>0</asrwt>
<pdfrwt beam="1">  1        4 0.31252141E+00 0.16871322E+04</pdfrwt>
<pdfrwt beam="2">  1       -4 0.46468900E-01 0.16871322E+04</pdfrwt>
<totfact> 0.22308615E-01</totfact>
</mgrwt>
</event>
<event>
 8    1  0.5217667E-029  0.1416244E+04  0.7818608E-02  0.8942144E-01
         -4   -1    0    0    0  501 -0.00000000000E+00  0.00000000000E+00  0.87506709871E+03  0.87506802030E+03  0.12700000000E+01 0. -1.
          4   -1    0    0  501    0  0.00000000000E+00 -0.00000000000E+00 -0.57302465770E+03  0.57302606505E+03  0.12700000000E+01 0.  1.
     200001    2    1    2    0    0  0.89848571600E+02  0.55083906903E+02  0.17726676337E+03  0.72929232384E+03  0.69952611503E+03 0.  0.
    5000001    2    3    3    0    0 -0.65561684437E+02  0.64697761814E+02  0.84342065486E+02  0.19742789247E+03  0.15290537552E+03 0.  0.
        -13    1    4    4    0    0  0.30435720650E+02  0.51791892976E+02  0.74276901434E+02  0.95529066363E+02  0.10566000000E+00 0. -1.
     200003    1    4    4    0    0 -0.95997405087E+02  0.12905868838E+02  0.10065164052E+02  0.10189882610E+03  0.30000000000E+02 0. -1.
     200000    1    3    3    0    0  0.15541025604E+03 -0.96138549109E+01  0.92924697888E+02  0.53186443138E+03  0.50000000000E+03 0. -1.
    -200001    1    1    2    0    0 -0.89848571600E+02 -0.55083906903E+02  0.12477567764E+03  0.71880176151E+03  0.70000000000E+03 0. -1.
<mgrwt>
<rscale>  0 0.14162439E+04</rscale>
<asrwt>0</asrwt>
<pdfrwt beam="1">  1        4 0.81860832E-01 0.14162439E+04</pdfrwt>
<pdfrwt beam="2">  1       -4 0.12500975E+00 0.14162439E+04</pdfrwt>
<totfact> 0.12289621E+00</totfact>
</mgrwt>
</event>
<event>
 8    1  0.5217667E-029  0.1706405E+04  0.7818608E-02  0.8757720E-01
          4   -1    0    0  501    0  0.00000000000E+00  0.00000000000E+00  0.77963833289E+03  0.77963936728E+03  0.12700000000E+01 0.  1.
         -4   -1    0    0    0  501 -0.00000000000E+00 -0.00000000000E+00 -0.93370605912E+03  0.93370692283E+03  0.12700000000E+01 0. -1.
     200001    2    1    2    0    0  0.10955184919E+03  0.16217638719E+03 -0.52581623954E+03  0.89695193358E+03  0.69981230709E+03 0.  0.
    5000001    2    3    3    0    0 -0.48810149906E+02  0.10111022118E+03 -0.61356999235E+02  0.19372367384E+03  0.14545952320E+03 0.  0.
        -13    1    4    4    0    0 -0.52681214380E+02  0.10398106617E+03  0.91748376613E+01  0.11692545181E+03  0.10566000000E+00 0. -1.
     200003    1    4    4    0    0  0.38710644732E+01 -0.28708449871E+01 -0.70531836897E+02  0.76798222031E+02  0.30000000000E+02 0. -1.
     200000    1    3    3    0    0  0.15836199909E+03  0.61066166009E+02 -0.46445924031E+03  0.70322825974E+03  0.50000000000E+03 0. -1.
    -200001    1    1    2    0    0 -0.10955184919E+03 -0.16217638719E+03  0.37174851331E+03  0.81639435653E+03  0.70000000000E+03 0.  1.
<mgrwt>
<rscale>  0 0.17064052E+04</rscale>
<asrwt>0</asrwt>
<pdfrwt beam="1">  1        4 0.11137704E+00 0.17064052E+04</pdfrwt>
<pdfrwt beam="2">  1       -4 0.13338672E+00 0.17064052E+04</pdfrwt>
<totfact> 0.49383561E-01</totfact>
</mgrwt>
</event>
<event>
 8    1  0.5217667E-029  0.1765269E+04  0.7818608E-02  0.8724990E-01
         -4   -1    0    0    0  501 -0.00000000000E+00  0.00000000000E+00  0.16148653107E+04  0.16148658101E+04  0.12700000000E+01 0. -1.
          4   -1    0    0  501    0  0.00000000000E+00 -0.00000000000E+00 -0.48241886098E+03  0.48242053266E+03  0.12700000000E+01 0.  1.
     200001    2    1    2    0    0 -0.28304240152E+03  0.43457624366E+03  0.73940448413E+03  0.11415397763E+04  0.69815797428E+03 0.  0.
    5000001    2    3    3    0    0 -0.14062656608E+03  0.45917649222E+02  0.12748605704E+03  0.24947367187E+03  0.15524225139E+03 0.  0.
        -13    1    4    4    0    0 -0.19337052053E+02 -0.41175166348E+02 -0.73260579080E+01  0.46076004540E+02  0.10566000000E+00 0. -1.
     200003    1    4    4    0    0 -0.12128951403E+03  0.87092815570E+02  0.13481211495E+03  0.20339766733E+03  0.30000000000E+02 0. -1.
     200000    1    3    3    0    0 -0.14241583544E+03  0.38865859444E+03  0.61191842710E+03  0.89206610441E+03  0.50000000000E+03 0. -1.
    -200001    1    1    2    0    0  0.28304240152E+03 -0.43457624366E+03  0.39304196559E+03  0.95574656647E+03  0.70000000000E+03 0.  1.
<mgrwt>
<rscale>  0 0.17652691E+04</rscale>
<asrwt>0</asrwt>
<pdfrwt beam="1">  1        4 0.68917135E-01 0.17652691E+04</pdfrwt>
<pdfrwt beam="2">  1       -4 0.23069520E+00 0.17652691E+04</pdfrwt>
<totfact> 0.30842867E-01</totfact>
</mgrwt>
</event>
<event>
 8    1  0.5217667E-029  0.1465171E+04  0.7818608E-02  0.8907950E-01
          4   -1    0    0  501    0  0.00000000000E+00  0.00000000000E+00  0.66603160742E+03  0.66603281825E+03  0.12700000000E+01 0.  1.
         -4   -1    0    0    0  501 -0.00000000000E+00 -0.00000000000E+00 -0.80578706400E+03  0.80578806482E+03  0.12700000000E+01 0. -1.
     200001    2    1    2    0    0  0.73736791496E+02  0.17301647710E+03  0.39015803996E+02  0.72527485008E+03  0.69937798038E+03 0.  0.
    5000001    2    3    3    0    0  0.41600788453E+02 -0.34168815328E+02  0.33264545536E+02  0.18306497830E+03  0.17177928498E+03 0.  0.
        -13    1    4    4    0    0 -0.54111862182E+02  0.28415384104E+02  0.38875786903E+01  0.61242567832E+02  0.10566000000E+00 0. -1.
     200003    1    4    4    0    0  0.95712650635E+02 -0.62584199432E+02  0.29376966846E+02  0.12182241046E+03  0.30000000000E+02 0. -1.
     200000    1    3    3    0    0  0.32136003043E+02  0.20718529243E+03  0.57512584594E+01  0.54220987179E+03  0.50000000000E+03 0.  1.
    -200001    1    1    2    0    0 -0.73736791496E+02 -0.17301647710E+03 -0.17877126057E+03  0.74654603299E+03  0.70000000000E+03 0. -1.
<mgrwt>
<rscale>  0 0.14651707E+04</rscale>
<asrwt>0</asrwt>
<pdfrwt beam="1">  1        4 0.95147531E-01 0.14651707E+04</pdfrwt>
<pdfrwt beam="2">  1       -4 0.11511259E+00 0.14651707E+04</pdfrwt>
<totfact> 0.10619946E+00</totfact>
</mgrwt>
</event>
<event>
 8    1  0.5217667E-029  0.1406207E+04  0.7818608E-02  0.8949338E-01
         -4   -1    0    0    0  501 -0.00000000000E+00  0.00000000000E+00  0.19852661436E+04  0.19852665498E+04  0.12700000000E+01 0. -1.
          4   -1    0    0  501    0  0.00000000000E+00 -0.00000000000E+00 -0.24900955569E+03  0.24901279430E+03  0.12700000000E+01 0.  1.
     200001    2    1    2    0    0  0.15572522970E+02  0.19855930801E+02  0.77487850887E+03  0.10447901376E+04  0.70036630898E+03 0.  0.
    5000001    2    3    3    0    0 -0.73663931400E+02  0.97838368904E+02  0.23853118709E+03  0.30201638002E+03  0.13898937141E+03 0.  0.
        -13    1    4    4    0    0 -0.85124728588E+02  0.23920738458E+02  0.18562714869E+03  0.20561096917E+03  0.10566000000E+00 0. -1.
     200003    1    4    4    0    0  0.11460797187E+02  0.73917630446E+02  0.52904038399E+02  0.96405410854E+02  0.30000000000E+02 0. -1.
     200000    1    3    3    0    0  0.89236454370E+02 -0.77982438103E+02  0.53634732178E+03  0.74277375763E+03  0.50000000000E+03 0.  1.
    -200001    1    1    2    0    0 -0.15572522970E+02 -0.19855930801E+02  0.96137807903E+03  0.11894892065E+04  0.70000000000E+03 0.  1.
<mgrwt>
<rscale>  0 0.14062067E+04</rscale>
<asrwt>0</asrwt>
<pdfrwt beam="1">  1        4 0.35573053E-01 0.14062067E+04</pdfrwt>
<pdfrwt beam="2">  1       -4 0.28360971E+00 0.14062067E+04</pdfrwt>
<totfact> 0.59242937E-01</totfact>
</mgrwt>
</event>
<event>
 8    1  0.5217667E-029  0.2115706E+04  0.7818608E-02  0.8554356E-01
         -4   -1    0    0    0  501 -0.00000000000E+00  0.00000000000E+00  0.26289394252E+04  0.26289397319E+04  0.12700000000E+01 0. -1.
          4   -1    0    0  501    0  0.00000000000E+00 -0.00000000000E+00 -0.42566592058E+03  0.42566781514E+03  0.12700000000E+01 0.  1.
     200001    2    1    2    0    0 -0.67448797768E+03 -0.40624743863E+03  0.96743985001E+03  0.14306445440E+04  0.70059470064E+03 0.  0.
    5000001    2    3    3    0    0 -0.11511153924E+03 -0.16558145285E+03  0.72807089362E+02  0.23850785178E+03  0.10448559282E+03 0.  0.
        -13    1    4    4    0    0 -0.21158493398E+01  0.46090878948E+01 -0.13724269437E+02  0.14631720516E+02  0.10566000000E+00 0. -1.
     200003    1    4    4    0    0 -0.11299568990E+03 -0.17019054074E+03  0.86531358798E+02  0.22387613126E+03  0.30000000000E+02 0. -1.
     200000    1    3    3    0    0 -0.55937643844E+03 -0.24066598579E+03  0.89463276065E+03  0.11921366923E+04  0.50000000000E+03 0. -1.
    -200001    1    1    2    0    0  0.67448797768E+03  0.40624743863E+03  0.12358336546E+04  0.16239630030E+04  0.70000000000E+03 0.  1.
<mgrwt>
<rscale>  0 0.21157063E+04</rscale>
<asrwt>0</asrwt>
<pdfrwt beam="1">  1        4 0.60809572E-01 0.21157063E+04</pdfrwt>
<pdfrwt beam="2">  1       -4 0.37556295E+00 0.21157063E+04</pdfrwt>
<totfact> 0.47511341E-02</totfact>
</mgrwt>
</event>
<event>
 8    1  0.5217667E-029  0.1589102E+04  0.7818608E-02  0.8827271E-01
         -4   -1    0    0    0  501 -0.00000000000E+00  0.00000000000E+00  0.86896495649E+03  0.86896588455E+03  0.12700000000E+01 0. -1.
          4   -1    0    0  501    0  0.00000000000E+00 -0.00000000000E+00 -0.72650767436E+03  0.72650878440E+03  0.12700000000E+01 0.  1.
     200001    2    1    2    0    0 -0.89908555427E+02 -0.30609268662E+03  0.26795906976E+03  0.81603449816E+03  0.70166513237E+03 0.  0.
    5000001    2    3    3    0    0 -0.60519354775E+02 -0.24395138083E+03  0.87312996451E+02  0.27997641287E+03  0.87111215721E+02 0.  0.
        -13    1    4    4    0    0 -0.48202835041E+02 -0.73333245485E+02  0.54288219285E+02  0.10319156999E+03  0.10566000000E+00 0. -1.
     200003    1    4    4    0    0 -0.12316519734E+02 -0.17061813534E+03  0.33024777166E+02  0.17678484288E+03  0.30000000000E+02 0. -1.
     200000    1    3    3    0    0 -0.29389200652E+02 -0.62141305789E+02  0.18064607331E+03  0.53605808529E+03  0.50000000000E+03 0. -1.
    -200001    1    1    2    0    0  0.89908555427E+02  0.30609268662E+03 -0.12550178763E+03  0.77944017079E+03  0.70000000000E+03 0.  1.
<mgrwt>
<rscale>  0 0.15891021E+04</rscale>
<asrwt>0</asrwt>
<pdfrwt beam="1">  1        4 0.10378696E+00 0.15891021E+04</pdfrwt>
<pdfrwt beam="2">  1       -4 0.12413800E+00 0.15891021E+04</pdfrwt>
<totfact> 0.70943787E-01</totfact>
</mgrwt>
</event>
<event>
 8    1  0.5217667E-029  0.1751609E+04  0.7818608E-02  0.8732465E-01
         -4   -1    0    0    0  501 -0.00000000000E+00  0.00000000000E+00  0.13978442178E+04  0.13978447947E+04  0.12700000000E+01 0. -1.
          4   -1    0    0  501    0  0.00000000000E+00 -0.00000000000E+00 -0.54872450619E+03  0.54872597587E+03  0.12700000000E+01 0.  1.
     200001    2    1    2    0    0 -0.10964955428E+03 -0.50457032589E+03  0.31121070507E+03  0.92384874686E+03  0.70002154653E+03 0.  0.
    5000001    2    3    3    0    0 -0.12914011898E+02 -0.16830976761E+03  0.65794796840E+02  0.26608138964E+03  0.19487278169E+03 0.  0.
        -13    1    4    4    0    0 -0.71012981091E+02 -0.17767937635E+03  0.42235385050E+02  0.19595061413E+03  0.10566000000E+00 0. -1.
     200003    1    4    4    0    0  0.58098969193E+02  0.93696087434E+01  0.23559411790E+02  0.70130775507E+02  0.30000000000E+02 0. -1.
     200000    1    3    3    0    0 -0.96735542378E+02 -0.33626055828E+03  0.24541590823E+03  0.65776735722E+03  0.50000000000E+03 0. -1.
    -200001    1    1    2    0    0  0.10964955428E+03  0.50457032589E+03  0.53790900657E+03  0.10227220238E+04  0.70000000000E+03 0.  1.
<mgrwt>
<rscale>  0 0.17516088E+04</rscale>
<asrwt>0</asrwt>
<pdfrwt beam="1">  1        4 0.78389361E-01 0.17516088E+04</pdfrwt>
<pdfrwt beam="2">  1       -4 0.19969218E+00 0.17516088E+04</pdfrwt>
<totfact> 0.36671289E-01</totfact>
</mgrwt>
</event>
<event>
 8    1  0.5217667E-029  0.1932355E+04  0.7818608E-02  0.8638917E-01
         -4   -1    0    0    0  501 -0.00000000000E+00  0.00000000000E+00  0.86865713552E+03  0.86865806391E+03  0.12700000000E+01 0. -1.
          4   -1    0    0  501    0  0.00000000000E+00 -0.00000000000E+00 -0.10746441704E+04  0.10746449208E+04  0.12700000000E+01 0.  1.
     200001    2    1    2    0    0  0.54012012646E+03 -0.13171220063E+03  0.26599840479E+03  0.93243795414E+03  0.69971960967E+03 0.  0.
    5000001    2    3    3    0    0  0.14382033305E+03 -0.81443890866E+02  0.45555401610E+02  0.25555129681E+03  0.18950930089E+03 0.  0.
        -13    1    4    4    0    0  0.50588134845E+02 -0.83468659444E+02  0.10307405400E+03  0.14195227461E+03  0.10566000000E+00 0. -1.
     200003    1    4    4    0    0  0.93232198209E+02  0.20247685773E+01 -0.57518652388E+02  0.11359902219E+03  0.30000000000E+02 0. -1.
     200000    1    3    3    0    0  0.39629979341E+03 -0.50268309763E+02  0.22044300318E+03  0.67688665733E+03  0.50000000000E+03 0. -1.
    -200001    1    1    2    0    0 -0.54012012646E+03  0.13171220063E+03 -0.47198543963E+03  0.10108650306E+04  0.70000000000E+03 0.  1.
<mgrwt>
<rscale>  0 0.19323550E+04</rscale>
<asrwt>0</asrwt>
<pdfrwt beam="1">  1        4 0.15352071E+00 0.19323550E+04</pdfrwt>
<pdfrwt beam="2">  1       -4 0.12409400E+00 0.19323550E+04</pdfrwt>
<totfact> 0.25666614E-01</totfact>
</mgrwt>
</event>
<event>
 8    1  0.5217667E-029  0.1438305E+04  0.7818608E-02  0.8926549E-01
          4   -1    0    0  501    0  0.00000000000E+00  0.00000000000E+00  0.30894215656E+03  0.30894476691E+03  0.12700000000E+01 0.  1.
         -4   -1    0    0    0  501 -0.00000000000E+00 -0.00000000000E+00 -0.16740258348E+04  0.16740263165E+04  0.12700000000E+01 0. -1.
     200001    2    1    2    0    0 -0.45128299198E+01  0.14976815970E+03 -0.77776536715E+03  0.10570155414E+04  0.69993715513E+03 0.  0.
    5000001    2    3    3    0    0 -0.78667706823E+02 -0.34368188751E+02 -0.22937550920E+03  0.28881206778E+03  0.15306699768E+03 0.  0.
        -13    1    4    4    0    0  0.24576061800E+02  0.24991263091E+02 -0.84646701034E+01  0.36058394980E+02  0.10566000000E+00 0. -1.
     200003    1    4    4    0    0 -0.10324376862E+03 -0.59359451842E+02 -0.22091083910E+03  0.25275367280E+03  0.30000000000E+02 0. -1.
     200000    1    3    3    0    0  0.74154876903E+02  0.18413634845E+03 -0.54838985795E+03  0.76820347363E+03  0.50000000000E+03 0. -1.
    -200001    1    1    2    0    0  0.45128299198E+01 -0.14976815970E+03 -0.58731831108E+03  0.92595554204E+03  0.70000000000E+03 0. -1.
<mgrwt>
<rscale>  0 0.14383049E+04</rscale>
<asrwt>0</asrwt>
<pdfrwt beam="1">  1        4 0.44134816E-01 0.14383049E+04</pdfrwt>
<pdfrwt beam="2">  1       -4 0.23914676E+00 0.14383049E+04</pdfrwt>
<totfact> 0.72066952E-01</totfact>
</mgrwt>
</event>
<event>
 8    1  0.5217667E-029  0.1556833E+04  0.7818608E-02  0.8847515E-01
         -4   -1    0    0    0  501 -0.00000000000E+00  0.00000000000E+00  0.59638422501E+03  0.59638557724E+03  0.12700000000E+01 0. -1.
          4   -1    0    0  501    0  0.00000000000E+00 -0.00000000000E+00 -0.10160073342E+04  0.10160081279E+04  0.12700000000E+01 0.  1.
     200001    2    1    2    0    0 -0.28699537271E+03 -0.11497797468E+03 -0.75184514931E+02  0.77321301912E+03  0.70471226967E+03 0.  0.
    5000001    2    3    3    0    0 -0.32067843163E+02  0.11312334526E+02 -0.54383179092E+02  0.19756557224E+03  0.18686441526E+03 0.  0.
        -13    1    4    4    0    0 -0.38583823980E+02 -0.82140390541E+02 -0.35246144635E+02  0.97355313706E+02  0.10566000000E+00 0. -1.
     200003    1    4    4    0    0  0.65159808165E+01  0.93452725067E+02 -0.19137034457E+02  0.10021025854E+03  0.30000000000E+02 0. -1.
     200000    1    3    3    0    0 -0.25492752954E+03 -0.12629030921E+03 -0.20801335839E+02  0.57564744687E+03  0.50000000000E+03 0.  1.
    -200001    1    1    2    0    0  0.28699537271E+03  0.11497797468E+03 -0.34443859422E+03  0.83918068603E+03  0.70000000000E+03 0.  1.
<mgrwt>
<rscale>  0 0.15568333E+04</rscale>
<asrwt>0</asrwt>
<pdfrwt beam="1">  1        4 0.14514406E+00 0.15568333E+04</pdfrwt>
<pdfrwt beam="2">  1       -4 0.85197899E-01 0.15568333E+04</pdfrwt>
<totfact> 0.75619188E-01</totfact>
</mgrwt>
</event>
<event>
 8    1  0.5217667E-029  0.2201513E+04  0.7818608E-02  0.8517799E-01
          4   -1    0    0  501    0  0.00000000000E+00  0.00000000000E+00  0.85210870339E+03  0.85210964980E+03  0.12700000000E+01 0.  1.
         -4   -1    0    0    0  501 -0.00000000000E+00 -0.00000000000E+00 -0.14219584066E+04  0.14219589737E+04  0.12700000000E+01 0. -1.
     200001    2    1    2    0    0 -0.49726393649E+03  0.50190228398E+03 -0.77270811271E+03  0.12590174625E+04  0.69919226129E+03 0.  0.
    5000001    2    3    3    0    0 -0.14886995162E+03  0.23668551020E+03 -0.31486751159E+03  0.45196336158E+03  0.16415552723E+03 0.  0.
        -13    1    4    4    0    0  0.48245538388E+01  0.11365970782E+03 -0.17456061917E+03  0.20835840859E+03  0.10566000000E+00 0. -1.
     200003    1    4    4    0    0 -0.15369450546E+03  0.12302580238E+03 -0.14030689243E+03  0.24360495299E+03  0.30000000000E+02 0. -1.
     200000    1    3    3    0    0 -0.34839398487E+03  0.26521677378E+03 -0.45784060112E+03  0.80705410093E+03  0.50000000000E+03 0. -1.
    -200001    1    1    2    0    0  0.49726393649E+03 -0.50190228398E+03  0.20285840951E+03  0.10150511610E+04  0.70000000000E+03 0.  1.
<mgrwt>
<rscale>  0 0.22015130E+04</rscale>
<asrwt>0</asrwt>
<pdfrwt beam="1">  1        4 0.12172992E+00 0.22015130E+04</pdfrwt>
<pdfrwt beam="2">  1       -4 0.20313702E+00 0.22015130E+04</pdfrwt>
<totfact> 0.11810451E-01</totfact>
</mgrwt>
</event>
<event>
 8    1  0.5217667E-029  0.1664071E+04  0.7818608E-02  0.8782125E-01
          4   -1    0    0  501    0  0.00000000000E+00  0.00000000000E+00  0.57252426309E+03  0.57252567167E+03  0.12700000000E+01 0.  1.
         -4   -1    0    0    0  501 -0.00000000000E+00 -0.00000000000E+00 -0.12091738465E+04  0.12091745134E+04  0.12700000000E+01 0. -1.
     200001    2    1    2    0    0  0.40294219734E+03  0.20163840260E+03 -0.33156835142E+03  0.89508018875E+03  0.69872062574E+03 0.  0.
    5000001    2    3    3    0    0  0.11582206613E+03  0.85302336488E+01 -0.64516987182E+02  0.23096787461E+03  0.18893438432E+03 0.  0.
        -13    1    4    4    0    0  0.13383218302E+03  0.59541669812E+02 -0.80411361025E+02  0.16709955656E+03  0.10566000000E+00 0. -1.
     200003    1    4    4    0    0 -0.18010116897E+02 -0.51011436163E+02  0.15894373843E+02  0.63868318045E+02  0.30000000000E+02 0. -1.
     200000    1    3    3    0    0  0.28712013121E+03  0.19310816895E+03 -0.26705136424E+03  0.66411231415E+03  0.50000000000E+03 0.  1.
    -200001    1    1    2    0    0 -0.40294219734E+03 -0.20163840260E+03 -0.30508123196E+03  0.88661999633E+03  0.70000000000E+03 0.  1.
<mgrwt>
<rscale>  0 0.16640712E+04</rscale>
<asrwt>0</asrwt>
<pdfrwt beam="1">  1        4 0.81789329E-01 0.16640712E+04</pdfrwt>
<pdfrwt beam="2">  1       -4 0.17273927E+00 0.16640712E+04</pdfrwt>
<totfact> 0.51258969E-01</totfact>
</mgrwt>
</event>
<event>
 8    1  0.5217667E-029  0.1609412E+04  0.7818608E-02  0.8814787E-01
          4   -1    0    0  501    0  0.00000000000E+00  0.00000000000E+00  0.43194494379E+03  0.43194681081E+03  0.12700000000E+01 0.  1.
         -4   -1    0    0    0  501 -0.00000000000E+00 -0.00000000000E+00 -0.14991483535E+04  0.14991488915E+04  0.12700000000E+01 0. -1.
     200001    2    1    2    0    0 -0.38635222113E+03 -0.62052172061E+02 -0.60940018064E+03  0.10076768876E+04  0.70066084428E+03 0.  0.
    5000001    2    3    3    0    0 -0.10025384022E+03 -0.20741331102E+02 -0.12132900551E+03  0.25152059343E+03  0.19509189129E+03 0.  0.
        -13    1    4    4    0    0  0.44104356335E+02 -0.49225741087E+02 -0.60153898953E+02  0.89369293142E+02  0.10566000000E+00 0. -1.
     200003    1    4    4    0    0 -0.14435819655E+03  0.28484409986E+02 -0.61175106559E+02  0.16215130029E+03  0.30000000000E+02 0. -1.
     200000    1    3    3    0    0 -0.28609838092E+03 -0.41310840959E+02 -0.48807117513E+03  0.75615629412E+03  0.50000000000E+03 0. -1.
    -200001    1    1    2    0    0  0.38635222113E+03  0.62052172061E+02 -0.45780322912E+03  0.92341881474E+03  0.70000000000E+03 0. -1.
<mgrwt>
<rscale>  0 0.16094122E+04</rscale>
<asrwt>0</asrwt>
<pdfrwt beam="1">  1        4 0.61706593E-01 0.16094122E+04</pdfrwt>
<pdfrwt beam="2">  1       -4 0.21416422E+00 0.16094122E+04</pdfrwt>
<totfact> 0.50626502E-01</totfact>
</mgrwt>
</event>
<event>
 8    1  0.5217667E-029  0.1887679E+04  0.7818608E-02  0.8661014E-01
         -4   -1    0    0    0  501 -0.00000000000E+00  0.00000000000E+00  0.12690902256E+04  0.12690908610E+04  0.12700000000E+01 0. -1.
          4   -1    0    0  501    0  0.00000000000E+00 -0.00000000000E+00 -0.70194490552E+03  0.70194605440E+03  0.12700000000E+01 0.  1.
     200001    2    1    2    0    0 -0.37553394043E+03 -0.12651351647E+03  0.79883168009E+03  0.11339527024E+04  0.70048930607E+03 0.  0.
    5000001    2    3    3    0    0 -0.15762561460E+03 -0.38679489916E+02  0.23450205690E+03  0.34422694096E+03  0.19276678883E+03 0.  0.
        -13    1    4    4    0    0 -0.56718511040E+02 -0.76847438965E+02  0.20840372339E+03  0.22924799117E+03  0.10566000000E+00 0. -1.
     200003    1    4    4    0    0 -0.10090710356E+03  0.38167949049E+02  0.26098333515E+02  0.11497894979E+03  0.30000000000E+02 0. -1.
     200000    1    3    3    0    0 -0.21790832583E+03 -0.87834026558E+02  0.56432962319E+03  0.78972576145E+03  0.50000000000E+03 0. -1.
    -200001    1    1    2    0    0  0.37553394043E+03  0.12651351647E+03 -0.23168636003E+03  0.83708421302E+03  0.70000000000E+03 0.  1.
<mgrwt>
<rscale>  0 0.18876792E+04</rscale>
<asrwt>0</asrwt>
<pdfrwt beam="1">  1        4 0.10027797E+00 0.18876792E+04</pdfrwt>
<pdfrwt beam="2">  1       -4 0.18129873E+00 0.18876792E+04</pdfrwt>
<totfact> 0.27293370E-01</totfact>
</mgrwt>
</event>
<event>
 8    1  0.5217667E-029  0.2006592E+04  0.7818608E-02  0.8603545E-01
          4   -1    0    0  501    0  0.00000000000E+00  0.00000000000E+00  0.12734869407E+04  0.12734875739E+04  0.12700000000E+01 0.  1.
         -4   -1    0    0    0  501 -0.00000000000E+00 -0.00000000000E+00 -0.79042897780E+03  0.79042999807E+03  0.12700000000E+01 0. -1.
     200001    2    1    2    0    0 -0.34211510804E+03 -0.36073232847E+03 -0.28887490883E+03  0.90933932936E+03  0.70447054091E+03 0.  0.
    5000001    2    3    3    0    0 -0.16057893396E+03 -0.57735414929E+02 -0.10061108070E+03  0.26886623773E+03  0.18178969185E+03 0.  0.
        -13    1    4    4    0    0 -0.79352352619E+02  0.21131058095E+02 -0.12468299862E+03  0.14929560874E+03  0.10566000000E+00 0. -1.
     200003    1    4    4    0    0 -0.81226581344E+02 -0.78866473023E+02  0.24071917918E+02  0.11957062899E+03  0.30000000000E+02 0. -1.
     200000    1    3    3    0    0 -0.18153617408E+03 -0.30299691354E+03 -0.18826382813E+03  0.64047309163E+03  0.50000000000E+03 0.  1.
    -200001    1    1    2    0    0  0.34211510804E+03  0.36073232847E+03  0.77193287169E+03  0.11545782426E+04  0.70000000000E+03 0.  1.
<mgrwt>
<rscale>  0 0.20065918E+04</rscale>
<asrwt>0</asrwt>
<pdfrwt beam="1">  1        4 0.18192682E+00 0.20065918E+04</pdfrwt>
<pdfrwt beam="2">  1       -4 0.11291854E+00 0.20065918E+04</pdfrwt>
<totfact> 0.20079081E-01</totfact>
</mgrwt>
</event>
<event>
 8    1  0.5217667E-029  0.1871682E+04  0.7818608E-02  0.8669082E-01
          4   -1    0    0  501    0  0.00000000000E+00  0.00000000000E+00  0.12792004387E+04  0.12792010691E+04  0.12700000000E+01 0.  1.
         -4   -1    0    0    0  501 -0.00000000000E+00 -0.00000000000E+00 -0.68464344406E+03  0.68464462198E+03  0.12700000000E+01 0. -1.
     200001    2    1    2    0    0 -0.25278134765E+03 -0.55935909092E+03  0.39492325697E+03  0.10116720559E+04  0.70052478008E+03 0.  0.
    5000001    2    3    3    0    0 -0.98985669963E+02 -0.14375158053E+03  0.16132619133E+03  0.30389362855E+03  0.18937401538E+03 0.  0.
        -13    1    4    4    0    0  0.44175993118E+02 -0.12525994219E+02  0.77865822729E+02  0.90396440265E+02  0.10566000000E+00 0. -1.
     200003    1    4    4    0    0 -0.14316166308E+03 -0.13122558632E+03  0.83460368596E+02  0.21349718829E+03  0.30000000000E+02 0. -1.
     200000    1    3    3    0    0 -0.15379567769E+03 -0.41560751038E+03  0.23359706565E+03  0.70777842736E+03  0.50000000000E+03 0. -1.
    -200001    1    1    2    0    0  0.25278134765E+03  0.55935909092E+03  0.19963373764E+03  0.95217363517E+03  0.70000000000E+03 0.  1.
<mgrwt>
<rscale>  0 0.18716816E+04</rscale>
<asrwt>0</asrwt>
<pdfrwt beam="1">  1        4 0.18274305E+00 0.18716816E+04</pdfrwt>
<pdfrwt beam="2">  1       -4 0.97806337E-01 0.18716816E+04</pdfrwt>
<totfact> 0.28338725E-01</totfact>
</mgrwt>
</event>
<event>
 8    1  0.5217667E-029  0.1893704E+04  0.7818608E-02  0.8657996E-01
          4   -1    0    0  501    0  0.00000000000E+00  0.00000000000E+00  0.97377180524E+03  0.97377263341E+03  0.12700000000E+01 0.  1.
         -4   -1    0    0    0  501 -0.00000000000E+00 -0.00000000000E+00 -0.92067509586E+03  0.92067597179E+03  0.12700000000E+01 0. -1.
     200001    2    1    2    0    0  0.12150186175E+02  0.51434615373E+03  0.40438865232E+03  0.95737570406E+03  0.69881218056E+03 0.  0.
    5000001    2    3    3    0    0 -0.62659720693E+02  0.16197270788E+03  0.94910674177E+02  0.26778148536E+03  0.18038150995E+03 0.  0.
        -13    1    4    4    0    0  0.57012127815E+02  0.49553360492E+02 -0.47110916470E+00  0.75539071757E+02  0.10566000000E+00 0. -1.
     200003    1    4    4    0    0 -0.11967184851E+03  0.11241934739E+03  0.95381783342E+02  0.19224241360E+03  0.30000000000E+02 0. -1.
     200000    1    3    3    0    0  0.74809906868E+02  0.35237344585E+03  0.30947797815E+03  0.68959421870E+03  0.50000000000E+03 0.  1.
    -200001    1    1    2    0    0 -0.12150186175E+02 -0.51434615373E+03 -0.35129194294E+03  0.93707290114E+03  0.70000000000E+03 0. -1.
<mgrwt>
<rscale>  0 0.18937044E+04</rscale>
<asrwt>0</asrwt>
<pdfrwt beam="1">  1        4 0.13911038E+00 0.18937044E+04</pdfrwt>
<pdfrwt beam="2">  1       -4 0.13152514E+00 0.18937044E+04</pdfrwt>
<totfact> 0.28836282E-01</totfact>
</mgrwt>
</event>
<event>
 8    1  0.5217667E-029  0.1812911E+04  0.7818608E-02  0.8699464E-01
         -4   -1    0    0    0  501 -0.00000000000E+00  0.00000000000E+00  0.46166156200E+03  0.46166330884E+03  0.12700000000E+01 0. -1.
          4   -1    0    0  501    0  0.00000000000E+00 -0.00000000000E+00 -0.17797866305E+04  0.17797870836E+04  0.12700000000E+01 0.  1.
     200001    2    1    2    0    0 -0.38414537209E+03  0.17055853082E+03 -0.17368941469E+03  0.83560870683E+03  0.70101071235E+03 0.  0.
    5000001    2    3    3    0    0 -0.23067818542E+02 -0.36350368579E+02 -0.57532046820E+02  0.17479040621E+03  0.15933698926E+03 0.  0.
        -13    1    4    4    0    0 -0.25082919906E+02 -0.43264319907E+02  0.45271454516E+02  0.67457171643E+02  0.10566000000E+00 0. -1.
     200003    1    4    4    0    0  0.20151013643E+01  0.69139513282E+01 -0.10280350134E+03  0.10733323457E+03  0.30000000000E+02 0. -1.
     200000    1    3    3    0    0 -0.36107755355E+03  0.20690889940E+03 -0.11615736787E+03  0.66081830062E+03  0.50000000000E+03 0. -1.
    -200001    1    1    2    0    0  0.38414537209E+03 -0.17055853082E+03 -0.11444356538E+04  0.14058416856E+04  0.70000000000E+03 0.  1.
<mgrwt>
<rscale>  0 0.18129110E+04</rscale>
<asrwt>0</asrwt>
<pdfrwt beam="1">  1        4 0.25425539E+00 0.18129110E+04</pdfrwt>
<pdfrwt beam="2">  1       -4 0.65951810E-01 0.18129110E+04</pdfrwt>
<totfact> 0.24120243E-01</totfact>
</mgrwt>
</event>
<event>
 8    1  0.5217667E-029  0.2201395E+04  0.7818608E-02  0.8517848E-01
         -4   -1    0    0    0  501 -0.00000000000E+00  0.00000000000E+00  0.14312860889E+04  0.14312866523E+04  0.12700000000E+01 0. -1.
          4   -1    0    0  501    0  0.00000000000E+00 -0.00000000000E+00 -0.84646453607E+03  0.84646548880E+03  0.12700000000E+01 0.  1.
     200001    2    1    2    0    0  0.45129719451E+03 -0.59000954143E+03  0.71907977251E+03  0.12482834984E+04  0.69953953177E+03 0.  0.
    5000001    2    3    3    0    0  0.12614855777E+03 -0.27670233664E+03  0.23301299731E+03  0.41753446866E+03  0.16601907682E+03 0.  0.
        -13    1    4    4    0    0  0.53694416255E+02 -0.83368791883E+02 -0.71315781286E+01  0.99419899254E+02  0.10566000000E+00 0. -1.
     200003    1    4    4    0    0  0.72454141518E+02 -0.19333354476E+03  0.24014457544E+03  0.31811456940E+03  0.30000000000E+02 0. -1.
     200000    1    3    3    0    0  0.32514863674E+03 -0.31330720479E+03  0.48606677519E+03  0.83074902979E+03  0.50000000000E+03 0. -1.
    -200001    1    1    2    0    0 -0.45129719451E+03  0.59000954143E+03 -0.13425821968E+03  0.10294686427E+04  0.70000000000E+03 0. -1.
<mgrwt>
<rscale>  0 0.22013947E+04</rscale>
<asrwt>0</asrwt>
<pdfrwt beam="1">  1        4 0.12092361E+00 0.22013947E+04</pdfrwt>
<pdfrwt beam="2">  1       -4 0.20446955E+00 0.22013947E+04</pdfrwt>
<totfact> 0.11769450E-01</totfact>
</mgrwt>
</event>
<event>
 8    1  0.5217667E-029  0.1459243E+04  0.7818608E-02  0.8912018E-01
         -4   -1    0    0    0  501 -0.00000000000E+00  0.00000000000E+00  0.95551556374E+03  0.95551640774E+03  0.12700000000E+01 0. -1.
          4   -1    0    0  501    0  0.00000000000E+00 -0.00000000000E+00 -0.55712918998E+03  0.55713063749E+03  0.12700000000E+01 0.  1.
     200001    2    1    2    0    0 -0.20208643379E+02 -0.19681272096E+03  0.24383814181E+03  0.76898798867E+03  0.70195573288E+03 0.  0.
    5000001    2    3    3    0    0  0.29693266590E+02  0.12714962683E+02  0.10819491289E+03  0.20792548201E+03  0.17459526493E+03 0.  0.
        -13    1    4    4    0    0 -0.18601549863E+02  0.30693920305E+01 -0.42543102387E+02  0.46533488473E+02  0.10566000000E+00 0. -1.
     200003    1    4    4    0    0  0.48294816453E+02  0.96455706520E+01  0.15073801527E+03  0.16139199354E+03  0.30000000000E+02 0. -1.
     200000    1    3    3    0    0 -0.49901909969E+02 -0.20952768364E+03  0.13564322893E+03  0.56106250666E+03  0.50000000000E+03 0.  1.
    -200001    1    1    2    0    0  0.20208643379E+02  0.19681272096E+03  0.15454823195E+03  0.74365905656E+03  0.70000000000E+03 0.  1.
<mgrwt>
<rscale>  0 0.14592427E+04</rscale>
<asrwt>0</asrwt>
<pdfrwt beam="1">  1        4 0.79590049E-01 0.14592427E+04</pdfrwt>
<pdfrwt beam="2">  1       -4 0.13650239E+00 0.14592427E+04</pdfrwt>
<totfact> 0.10441724E+00</totfact>
</mgrwt>
</event>
<event>
 8    1  0.5217667E-029  0.1986482E+04  0.7818608E-02  0.8612967E-01
         -4   -1    0    0    0  501 -0.00000000000E+00  0.00000000000E+00  0.12966861349E+04  0.12966867568E+04  0.12700000000E+01 0. -1.
          4   -1    0    0  501    0  0.00000000000E+00 -0.00000000000E+00 -0.76080550261E+03  0.76080656260E+03  0.12700000000E+01 0.  1.
     200001    2    1    2    0    0  0.14153768694E+03  0.11543438808E+02 -0.44722571172E+03  0.84231257097E+03  0.69950944396E+03 0.  0.
    5000001    2    3    3    0    0  0.64707157500E+02  0.12059185869E+03 -0.12188413503E+03  0.23105024622E+03  0.14070913720E+03 0.  0.
        -13    1    4    4    0    0  0.32234599704E+02  0.14258144076E+03 -0.82221914498E+02  0.16771699692E+03  0.10566000000E+00 0. -1.
     200003    1    4    4    0    0  0.32472557796E+02 -0.21989582073E+02 -0.39662220527E+02  0.63333249299E+02  0.30000000000E+02 0. -1.
     200000    1    3    3    0    0  0.76830529439E+02 -0.10904841988E+03 -0.32534157669E+03  0.61126232475E+03  0.50000000000E+03 0.  1.
    -200001    1    1    2    0    0 -0.14153768694E+03 -0.11543438808E+02  0.98310634402E+03  0.12151807485E+04  0.70000000000E+03 0. -1.
<mgrwt>
<rscale>  0 0.19864820E+04</rscale>
<asrwt>0</asrwt>
<pdfrwt beam="1">  1        4 0.10868662E+00 0.19864820E+04</pdfrwt>
<pdfrwt beam="2">  1       -4 0.18524100E+00 0.19864820E+04</pdfrwt>
<totfact> 0.20945025E-01</totfact>
</mgrwt>
</event>
<event>
 8    1  0.5217667E-029  0.1518613E+04  0.7818608E-02  0.8872169E-01
         -4   -1    0    0    0  501 -0.00000000000E+00  0.00000000000E+00  0.42919457084E+03  0.42919644982E+03  0.12700000000E+01 0. -1.
          4   -1    0    0  501    0  0.00000000000E+00 -0.00000000000E+00 -0.13433167956E+04  0.13433173960E+04  0.12700000000E+01 0.  1.
     200001    2    1    2    0    0 -0.21529263012E+03  0.98102928729E+01 -0.69073255092E+03  0.10067788363E+04  0.70003214913E+03 0.  0.
    5000001    2    3    3    0    0 -0.11014480236E+03  0.18243897559E+01 -0.27786963198E+03  0.34983467565E+03  0.18176237790E+03 0.  0.
        -13    1    4    4    0    0 -0.18938305727E+02 -0.72964136061E+02 -0.17475868414E+03  0.19032349677E+03  0.10566000000E+00 0. -1.
     200003    1    4    4    0    0 -0.91206496637E+02  0.74788525817E+02 -0.10311094784E+03  0.15951117888E+03  0.30000000000E+02 0. -1.
     200000    1    3    3    0    0 -0.10514782776E+03  0.79859031170E+01 -0.41286291894E+03  0.65694416062E+03  0.50000000000E+03 0.  1.
    -200001    1    1    2    0    0  0.21529263012E+03 -0.98102928729E+01 -0.22338967387E+03  0.76573500953E+03  0.70000000000E+03 0. -1.
<mgrwt>
<rscale>  0 0.15186131E+04</rscale>
<asrwt>0</asrwt>
<pdfrwt beam="1">  1        4 0.19190257E+00 0.15186131E+04</pdfrwt>
<pdfrwt beam="2">  1       -4 0.61313688E-01 0.15186131E+04</pdfrwt>
<totfact> 0.72370533E-01</totfact>
</mgrwt>
</event>
<event>
 8    1  0.5217667E-029  0.1463782E+04  0.7818608E-02  0.8908901E-01
         -4   -1    0    0    0  501 -0.00000000000E+00  0.00000000000E+00  0.13806140651E+04  0.13806146492E+04  0.12700000000E+01 0. -1.
          4   -1    0    0  501    0  0.00000000000E+00 -0.00000000000E+00 -0.38798854085E+03  0.38799061938E+03  0.12700000000E+01 0.  1.
     200001    2    1    2    0    0  0.15673728338E+03  0.16927103393E+02  0.32438809558E+03  0.78809807132E+03  0.70072664473E+03 0.  0.
    5000001    2    3    3    0    0  0.70270087032E+02 -0.58604861638E+02  0.10204838204E+03  0.22897679467E+03  0.18342324084E+03 0.  0.
        -13    1    4    4    0    0  0.97976467972E+02 -0.73261786341E+01 -0.10417777307E+02  0.98800821949E+02  0.10566000000E+00 0. -1.
     200003    1    4    4    0    0 -0.27706380940E+02 -0.51278683003E+02  0.11246615935E+03  0.13017597272E+03  0.30000000000E+02 0. -1.
     200000    1    3    3    0    0  0.86467196348E+02  0.75531965031E+02  0.22233971354E+03  0.55912127665E+03  0.50000000000E+03 0.  1.
    -200001    1    1    2    0    0 -0.15673728338E+03 -0.16927103393E+02  0.66823742863E+03  0.98050719725E+03  0.70000000000E+03 0.  1.
<mgrwt>
<rscale>  0 0.14637825E+04</rscale>
<asrwt>0</asrwt>
<pdfrwt beam="1">  1        4 0.55427124E-01 0.14637825E+04</pdfrwt>
<pdfrwt beam="2">  1       -4 0.19723077E+00 0.14637825E+04</pdfrwt>
<totfact> 0.83060154E-01</totfact>
</mgrwt>
</event>
<event>
 8    1  0.5217667E-029  0.2106205E+04  0.7818608E-02  0.8558515E-01
         -4   -1    0    0    0  501 -0.00000000000E+00  0.00000000000E+00  0.81252886974E+03  0.81252986226E+03  0.12700000000E+01 0. -1.
          4   -1    0    0  501    0  0.00000000000E+00 -0.00000000000E+00 -0.13649032654E+04  0.13649038562E+04  0.12700000000E+01 0.  1.
     200001    2    1    2    0    0  0.33953072878E+03 -0.64868852681E+03 -0.57424294332E+03  0.11642426437E+04  0.69973427450E+03 0.  0.
    5000001    2    3    3    0    0 -0.17350642893E+02 -0.16005468602E+03 -0.10728626751E+03  0.25091034883E+03  0.15977206461E+03 0.  0.
        -13    1    4    4    0    0 -0.36591729701E+02  0.27369087123E+01 -0.71643842389E+02  0.80494078466E+02  0.10566000000E+00 0. -1.
     200003    1    4    4    0    0  0.19241086808E+02 -0.16279159473E+03 -0.35642425122E+02  0.17041627037E+03  0.30000000000E+02 0. -1.
     200000    1    3    3    0    0  0.35688137167E+03 -0.48863384079E+03 -0.46695667581E+03  0.91333229489E+03  0.50000000000E+03 0.  1.
    -200001    1    1    2    0    0 -0.33953072878E+03  0.64868852681E+03  0.21868547669E+02  0.10131910748E+04  0.70000000000E+03 0. -1.
<mgrwt>
<rscale>  0 0.21062051E+04</rscale>
<asrwt>0</asrwt>
<pdfrwt beam="1">  1        4 0.19498629E+00 0.21062051E+04</pdfrwt>
<pdfrwt beam="2">  1       -4 0.11607567E+00 0.21062051E+04</pdfrwt>
<totfact> 0.15173603E-01</totfact>
</mgrwt>
</event>
<event>
 8    1  0.5217667E-029  0.1899566E+04  0.7818608E-02  0.8655072E-01
         -4   -1    0    0    0  501 -0.00000000000E+00  0.00000000000E+00  0.16616325093E+04  0.16616329946E+04  0.12700000000E+01 0. -1.
          4   -1    0    0  501    0  0.00000000000E+00 -0.00000000000E+00 -0.54289128427E+03  0.54289276974E+03  0.12700000000E+01 0.  1.
     200001    2    1    2    0    0 -0.41110416071E+03  0.40769457469E+03  0.88114304613E+03  0.12655505827E+04  0.69998836593E+03 0.  0.
    5000001    2    3    3    0    0 -0.19059205536E+03  0.72986252844E+02  0.18677809029E+03  0.32067072725E+03  0.16214603182E+03 0.  0.
        -13    1    4    4    0    0 -0.61076439309E+02 -0.44174023968E+02  0.94502544910E+02  0.12088183482E+03  0.10566000000E+00 0. -1.
     200003    1    4    4    0    0 -0.12951561605E+03  0.11716027681E+03  0.92275545380E+02  0.19978889243E+03  0.30000000000E+02 0. -1.
     200000    1    3    3    0    0 -0.22051210535E+03  0.33470832184E+03  0.69436495584E+03  0.94487985544E+03  0.50000000000E+03 0. -1.
    -200001    1    1    2    0    0  0.41110416071E+03 -0.40769457469E+03  0.23759817888E+03  0.93897518167E+03  0.70000000000E+03 0.  1.
<mgrwt>
<rscale>  0 0.18995662E+04</rscale>
<asrwt>0</asrwt>
<pdfrwt beam="1">  1        4 0.77556038E-01 0.18995662E+04</pdfrwt>
<pdfrwt beam="2">  1       -4 0.23737622E+00 0.18995662E+04</pdfrwt>
<totfact> 0.21283601E-01</totfact>
</mgrwt>
</event>
<event>
 8    1  0.5217667E-029  0.1706716E+04  0.7818608E-02  0.8757543E-01
         -4   -1    0    0    0  501 -0.00000000000E+00  0.00000000000E+00  0.37119613884E+04  0.37119616057E+04  0.12700000000E+01 0. -1.
          4   -1    0    0  501    0  0.00000000000E+00 -0.00000000000E+00 -0.19617962301E+03  0.19618373374E+03  0.12700000000E+01 0.  1.
     200001    2    1    2    0    0  0.34787694473E+03 -0.22272089375E+03  0.11620335113E+04  0.14180140560E+04  0.69987071401E+03 0.  0.
    5000001    2    3    3    0    0  0.94021839417E+02 -0.55206555816E+02  0.25330292504E+03  0.33713721454E+03  0.19393622535E+03 0.  0.
        -13    1    4    4    0    0  0.37078336706E+02  0.70310705114E+02  0.11324383751E+03  0.13835669917E+03  0.10566000000E+00 0. -1.
     200003    1    4    4    0    0  0.56943502712E+02 -0.12551726093E+03  0.14005908753E+03  0.19878051538E+03  0.30000000000E+02 0. -1.
     200000    1    3    3    0    0  0.25385510531E+03 -0.16751433793E+03  0.90873058630E+03  0.10808768414E+04  0.50000000000E+03 0.  1.
    -200001    1    1    2    0    0 -0.34787694473E+03  0.22272089375E+03  0.23537482540E+04  0.24901312834E+04  0.70000000000E+03 0.  1.
<mgrwt>
<rscale>  0 0.17067157E+04</rscale>
<asrwt>0</asrwt>
<pdfrwt beam="1">  1        4 0.28025971E-01 0.17067157E+04</pdfrwt>
<pdfrwt beam="2">  1       -4 0.53028047E+00 0.17067157E+04</pdfrwt>
<totfact> 0.16291049E-02</totfact>
</mgrwt>
</event>
<event>
 8    1  0.5217667E-029  0.1765477E+04  0.7818608E-02  0.8724877E-01
         -4   -1    0    0    0  501 -0.00000000000E+00  0.00000000000E+00  0.42092627368E+03  0.42092818957E+03  0.12700000000E+01 0. -1.
          4   -1    0    0  501    0  0.00000000000E+00 -0.00000000000E+00 -0.18512135318E+04  0.18512139674E+04  0.12700000000E+01 0.  1.
     200001    2    1    2    0    0 -0.38037729438E+03  0.18374562517E+03 -0.28834288218E+03  0.86768984431E+03  0.70092418090E+03 0.  0.
    5000001    2    3    3    0    0 -0.11366307696E+03  0.50171623585E+02  0.21242622233E+02  0.20827975020E+03  0.16580928342E+03 0.  0.
        -13    1    4    4    0    0  0.10408274794E+02  0.74992584419E+02 -0.39904722962E+01  0.75816587467E+02  0.10566000000E+00 0. -1.
     200003    1    4    4    0    0 -0.12407135175E+03 -0.24820960834E+02  0.25233094529E+02  0.13246316274E+03  0.30000000000E+02 0. -1.
     200000    1    3    3    0    0 -0.26671421742E+03  0.13357400159E+03 -0.30958550441E+03  0.65941009411E+03  0.50000000000E+03 0.  1.
    -200001    1    1    2    0    0  0.38037729438E+03 -0.18374562517E+03 -0.11419443759E+04  0.14044523127E+04  0.70000000000E+03 0.  1.
<mgrwt>
<rscale>  0 0.17654768E+04</rscale>
<asrwt>0</asrwt>
<pdfrwt beam="1">  1        4 0.26445924E+00 0.17654768E+04</pdfrwt>
<pdfrwt beam="2">  1       -4 0.60132494E-01 0.17654768E+04</pdfrwt>
<totfact> 0.25586265E-01</totfact>
</mgrwt>
</event>
<event>
 8    1  0.5217667E-029  0.1659250E+04  0.7818608E-02  0.8784953E-01
          4   -1    0    0  501    0  0.00000000000E+00  0.00000000000E+00  0.24682724354E+03  0.24683051079E+03  0.12700000000E+01 0.  1.
         -4   -1    0    0    0  501 -0.00000000000E+00 -0.00000000000E+00 -0.27884766790E+04  0.27884769682E+04  0.12700000000E+01 0. -1.
     200001    2    1    2    0    0  0.19325261479E+03  0.27674986007E+03 -0.74058817168E+03  0.10737370026E+04  0.70035937378E+03 0.  0.
    5000001    2    3    3    0    0  0.80754067839E+02  0.36528030275E+02 -0.15899958072E+03  0.26219049143E+03  0.18869941881E+03 0.  0.
        -13    1    4    4    0    0 -0.46498069132E+02 -0.22656281862E+02 -0.88000079420E+02  0.10207547542E+03  0.10566000000E+00 0. -1.
     200003    1    4    4    0    0  0.12725213697E+03  0.59184312136E+02 -0.70999501305E+02  0.16011501601E+03  0.30000000000E+02 0. -1.
     200000    1    3    3    0    0  0.11249854695E+03  0.24022182980E+03 -0.58158859096E+03  0.81154651112E+03  0.50000000000E+03 0.  1.
    -200001    1    1    2    0    0 -0.19325261479E+03 -0.27674986007E+03 -0.18010612638E+04  0.19615704764E+04  0.70000000000E+03 0. -1.
<mgrwt>
<rscale>  0 0.16592497E+04</rscale>
<asrwt>0</asrwt>
<pdfrwt beam="1">  1        4 0.35261291E-01 0.16592497E+04</pdfrwt>
<pdfrwt beam="2">  1       -4 0.39835405E+00 0.16592497E+04</pdfrwt>
<totfact> 0.10669300E-01</totfact>
</mgrwt>
</event>
<event>
 8    1  0.5217667E-029  0.1608372E+04  0.7818608E-02  0.8815421E-01
          4   -1    0    0  501    0  0.00000000000E+00  0.00000000000E+00  0.11176609097E+04  0.11176616313E+04  0.12700000000E+01 0.  1.
         -4   -1    0    0    0  501 -0.00000000000E+00 -0.00000000000E+00 -0.57863110989E+03  0.57863250361E+03  0.12700000000E+01 0. -1.
     200001    2    1    2    0    0  0.59476597681E+02  0.34122329832E+03  0.83062121162E+02  0.79192842955E+03  0.70730510854E+03 0.  0.
    5000001    2    3    3    0    0  0.25050941081E+02  0.71252185202E+02  0.12122051880E+02  0.21825428756E+03  0.20441028925E+03 0.  0.
        -13    1    4    4    0    0  0.10103989040E+03  0.24845557531E+02  0.51838421495E+02  0.11624798616E+03  0.10566000000E+00 0. -1.
     200003    1    4    4    0    0 -0.75988949315E+02  0.46406627671E+02 -0.39716369615E+02  0.10200630140E+03  0.30000000000E+02 0. -1.
     200000    1    3    3    0    0  0.34425656600E+02  0.26997111312E+03  0.70940069283E+02  0.57367414198E+03  0.50000000000E+03 0. -1.
    -200001    1    1    2    0    0 -0.59476597681E+02 -0.34122329832E+03  0.45596767866E+03  0.90436570533E+03  0.70000000000E+03 0. -1.
<mgrwt>
<rscale>  0 0.16083721E+04</rscale>
<asrwt>0</asrwt>
<pdfrwt beam="1">  1        4 0.15966600E+00 0.16083721E+04</pdfrwt>
<pdfrwt beam="2">  1       -4 0.82661737E-01 0.16083721E+04</pdfrwt>
<totfact> 0.62512173E-01</totfact>
</mgrwt>
</event>
<event>
 8    1  0.5217667E-029  0.1630134E+04  0.7818608E-02  0.8802247E-01
         -4   -1    0    0    0  501 -0.00000000000E+00  0.00000000000E+00  0.69421727074E+03  0.69421843241E+03  0.12700000000E+01 0. -1.
          4   -1    0    0  501    0  0.00000000000E+00 -0.00000000000E+00 -0.95695151373E+03  0.95695235646E+03  0.12700000000E+01 0.  1.
     200001    2    1    2    0    0  0.66960583894E+02  0.14695446704E+03  0.25865228148E+03  0.76352038298E+03  0.69998788371E+03 0.  0.
    5000001    2    3    3    0    0  0.78363021704E+02  0.10710239712E+03  0.35139236988E+02  0.21426972607E+03  0.16451462820E+03 0.  0.
        -13    1    4    4    0    0 -0.40728091936E+02  0.53216158040E+02 -0.18979098963E+02  0.69648792601E+02  0.10566000000E+00 0. -1.
     200003    1    4    4    0    0  0.11909111364E+03  0.53886239077E+02  0.54118335951E+02  0.14462093346E+03  0.30000000000E+02 0.  1.
     200000    1    3    3    0    0 -0.11402437810E+02  0.39852069924E+02  0.22351304449E+03  0.54925065692E+03  0.50000000000E+03 0. -1.
    -200001    1    1    2    0    0 -0.66960583894E+02 -0.14695446704E+03 -0.52138652446E+03  0.88765040589E+03  0.70000000000E+03 0.  1.
<mgrwt>
<rscale>  0 0.16301336E+04</rscale>
<asrwt>0</asrwt>
<pdfrwt beam="1">  1        4 0.13670750E+00 0.16301336E+04</pdfrwt>
<pdfrwt beam="2">  1       -4 0.99174038E-01 0.16301336E+04</pdfrwt>
<totfact> 0.61699523E-01</totfact>
</mgrwt>
</event>
<event>
 8    1  0.5217667E-029  0.1585047E+04  0.7818608E-02  0.8829787E-01
          4   -1    0    0  501    0  0.00000000000E+00  0.00000000000E+00  0.43008476104E+03  0.43008663613E+03  0.12700000000E+01 0.  1.
         -4   -1    0    0    0  501 -0.00000000000E+00 -0.00000000000E+00 -0.14603887449E+04  0.14603892971E+04  0.12700000000E+01 0. -1.
     200001    2    1    2    0    0 -0.63697892691E+02 -0.67953526437E+02 -0.91990662968E+02  0.71612207199E+03  0.70405499546E+03 0.  0.
    5000001    2    3    3    0    0 -0.89532528390E+02  0.74361789779E+01  0.18359500526E+02  0.19792501038E+03  0.17540201845E+03 0.  0.
        -13    1    4    4    0    0  0.46867095230E+02 -0.21609359192E+02  0.19779964904E+02  0.55269767465E+02  0.10566000000E+00 0. -1.
     200003    1    4    4    0    0 -0.13639962362E+03  0.29045538169E+02 -0.14204643782E+01  0.14265524291E+03  0.30000000000E+02 0. -1.
     200000    1    3    3    0    0  0.25834635700E+02 -0.75389705415E+02 -0.11035016349E+03  0.51819706162E+03  0.50000000000E+03 0.  1.
    -200001    1    1    2    0    0  0.63697892691E+02  0.67953526437E+02 -0.93831332091E+03  0.11743538613E+04  0.70000000000E+03 0. -1.
<mgrwt>
<rscale>  0 0.15850467E+04</rscale>
<asrwt>0</asrwt>
<pdfrwt beam="1">  1        4 0.61440854E-01 0.15850467E+04</pdfrwt>
<pdfrwt beam="2">  1       -4 0.20862713E+00 0.15850467E+04</pdfrwt>
<totfact> 0.55593723E-01</totfact>
</mgrwt>
</event>
<event>
 8    1  0.5217667E-029  0.1969385E+04  0.7818608E-02  0.8621070E-01
          4   -1    0    0  501    0  0.00000000000E+00  0.00000000000E+00  0.34174000938E+04  0.34174003298E+04  0.12700000000E+01 0.  1.
         -4   -1    0    0    0  501 -0.00000000000E+00 -0.00000000000E+00 -0.28372836230E+03  0.28373120462E+03  0.12700000000E+01 0. -1.
     200001    2    1    2    0    0  0.47467574917E+03  0.45915729904E+03  0.19584084030E+04  0.21821231791E+04  0.70011113675E+03 0.  0.
    5000001    2    3    3    0    0  0.14644908581E+02  0.84407847116E+02  0.42192316383E+03  0.46082935871E+03  0.16433314841E+03 0.  0.
        -13    1    4    4    0    0 -0.90330426321E+01  0.73294934559E+02  0.41363309950E+03  0.42017388717E+03  0.10566000000E+00 0. -1.
     200003    1    4    4    0    0  0.23677951213E+02  0.11112912557E+02  0.82900643257E+01  0.40655471534E+02  0.30000000000E+02 0. -1.
     200000    1    3    3    0    0  0.46003084059E+03  0.37474945192E+03  0.15364852392E+04  0.17212938204E+04  0.50000000000E+03 0.  1.
    -200001    1    1    2    0    0 -0.47467574917E+03 -0.45915729904E+03  0.11752633285E+04  0.15190083553E+04  0.70000000000E+03 0.  1.
<mgrwt>
<rscale>  0 0.19693847E+04</rscale>
<asrwt>0</asrwt>
<pdfrwt beam="1">  1        4 0.48820021E+00 0.19693847E+04</pdfrwt>
<pdfrwt beam="2">  1       -4 0.40532845E-01 0.19693847E+04</pdfrwt>
<totfact> 0.16865920E-02</totfact>
</mgrwt>
</event>
<event>
 8    1  0.5217667E-029  0.2544124E+04  0.7818608E-02  0.8387433E-01
          4   -1    0    0  501    0  0.00000000000E+00  0.00000000000E+00  0.21109657750E+04  0.21109661570E+04  0.12700000000E+01 0.  1.
         -4   -1    0    0    0  501 -0.00000000000E+00 -0.00000000000E+00 -0.76654016405E+03  0.76654121612E+03  0.12700000000E+01 0. -1.
     200001    2    1    2    0    0  0.86426629126E+03  0.61590833895E+03  0.62137732819E+03  0.14149417769E+04  0.69975077258E+03 0.  0.
    5000001    2    3    3    0    0  0.23934716430E+03  0.99561814355E+02  0.13433527315E+03  0.34519993320E+03  0.18416679487E+03 0.  0.
        -13    1    4    4    0    0  0.40164700453E+02  0.91235481202E+02 -0.55202252582E+01  0.99837869787E+02  0.10566000000E+00 0. -1.
     200003    1    4    4    0    0  0.19918246384E+03  0.83263331529E+01  0.13985549841E+03  0.24536206341E+03  0.30000000000E+02 0. -1.
     200000    1    3    3    0    0  0.62491912696E+03  0.51634652460E+03  0.48704205504E+03  0.10697418437E+04  0.50000000000E+03 0. -1.
    -200001    1    1    2    0    0 -0.86426629126E+03 -0.61590833895E+03  0.72304828273E+03  0.14625655963E+04  0.70000000000E+03 0.  1.
<mgrwt>
<rscale>  0 0.25441243E+04</rscale>
<asrwt>0</asrwt>
<pdfrwt beam="1">  1        4 0.30156664E+00 0.25441243E+04</pdfrwt>
<pdfrwt beam="2">  1       -4 0.10950584E+00 0.25441243E+04</pdfrwt>
<totfact> 0.35834717E-02</totfact>
</mgrwt>
</event>
<event>
 8    1  0.5217667E-029  0.1809692E+04  0.7818608E-02  0.8701162E-01
         -4   -1    0    0    0  501 -0.00000000000E+00  0.00000000000E+00  0.15878471579E+04  0.15878476657E+04  0.12700000000E+01 0. -1.
          4   -1    0    0  501    0  0.00000000000E+00 -0.00000000000E+00 -0.51563138319E+03  0.51563294719E+03  0.12700000000E+01 0.  1.
     200001    2    1    2    0    0 -0.18466685885E+03 -0.81079234536E+02  0.11599606106E+04  0.13697402997E+04  0.70000298525E+03 0.  0.
    5000001    2    3    3    0    0 -0.35410560311E+01 -0.75078717829E+02  0.26631415535E+03  0.32981407649E+03  0.17945679917E+03 0.  0.
        -13    1    4    4    0    0  0.12754817016E+02 -0.60132221628E+02  0.28255230032E+03  0.28916151717E+03  0.10566000000E+00 0. -1.
     200003    1    4    4    0    0 -0.16295873047E+02 -0.14946496201E+02 -0.16238144974E+02  0.40652559320E+02  0.30000000000E+02 0. -1.
     200000    1    3    3    0    0 -0.18112580282E+03 -0.60005167071E+01  0.89364645529E+03  0.10399262232E+04  0.50000000000E+03 0. -1.
    -200001    1    1    2    0    0  0.18466685885E+03  0.81079234536E+02 -0.87744835976E+02  0.73374031324E+03  0.70000000000E+03 0.  1.
<mgrwt>
<rscale>  0 0.18096917E+04</rscale>
<asrwt>0</asrwt>
<pdfrwt beam="1">  1        4 0.73661773E-01 0.18096917E+04</pdfrwt>
<pdfrwt beam="2">  1       -4 0.22683546E+00 0.18096917E+04</pdfrwt>
<totfact> 0.28042148E-01</totfact>
</mgrwt>
</event>
<event>
 8    1  0.5217667E-029  0.2021040E+04  0.7818608E-02  0.8596847E-01
          4   -1    0    0  501    0  0.00000000000E+00  0.00000000000E+00  0.67742325304E+03  0.67742444351E+03  0.12700000000E+01 0.  1.
         -4   -1    0    0    0  501 -0.00000000000E+00 -0.00000000000E+00 -0.15074008789E+04  0.15074014139E+04  0.12700000000E+01 0. -1.
     200001    2    1    2    0    0  0.43287395925E+03  0.55348496517E+03 -0.62373517112E+03  0.11717802408E+04  0.70021275173E+03 0.  0.
    5000001    2    3    3    0    0  0.49063129773E+02  0.16223196499E+03 -0.99963243446E+02  0.26363559634E+03  0.17545562530E+03 0.  0.
        -13    1    4    4    0    0  0.78365043975E+02  0.35624158489E+01 -0.19394650705E+02  0.80808010518E+02  0.10566000000E+00 0. -1.
     200003    1    4    4    0    0 -0.29301914202E+02  0.15866954914E+03 -0.80568592741E+02  0.18282758582E+03  0.30000000000E+02 0. -1.
     200000    1    3    3    0    0  0.38381082948E+03  0.39125300018E+03 -0.52377192768E+03  0.90814464442E+03  0.50000000000E+03 0. -1.
    -200001    1    1    2    0    0 -0.43287395925E+03 -0.55348496517E+03 -0.20624245474E+03  0.10130456166E+04  0.70000000000E+03 0.  1.
<mgrwt>
<rscale>  0 0.20210396E+04</rscale>
<asrwt>0</asrwt>
<pdfrwt beam="1">  1        4 0.96774874E-01 0.20210396E+04</pdfrwt>
<pdfrwt beam="2">  1       -4 0.21534310E+00 0.20210396E+04</pdfrwt>
<totfact> 0.17440240E-01</totfact>
</mgrwt>
</event>
<event>
 8    1  0.5217667E-029  0.2035987E+04  0.7818608E-02  0.8589978E-01
          4   -1    0    0  501    0  0.00000000000E+00  0.00000000000E+00  0.93304229439E+03  0.93304315871E+03  0.12700000000E+01 0.  1.
         -4   -1    0    0    0  501 -0.00000000000E+00 -0.00000000000E+00 -0.11106778312E+04  0.11106785573E+04  0.12700000000E+01 0. -1.
     200001    2    1    2    0    0 -0.69134683297E+02  0.68670306451E+03 -0.35334499855E+03  0.10451154281E+04  0.70076591445E+03 0.  0.
    5000001    2    3    3    0    0 -0.69260758475E+02  0.10004751133E+03 -0.75471879945E+02  0.22573869913E+03  0.17451475134E+03 0.  0.
        -13    1    4    4    0    0 -0.89307509756E+02  0.24714479787E+01 -0.82313797258E+02  0.12148049941E+03  0.10566000000E+00 0. -1.
     200003    1    4    4    0    0  0.20046751281E+02  0.97576063350E+02  0.68419173123E+01  0.10425819972E+03  0.30000000000E+02 0. -1.
     200000    1    3    3    0    0  0.12607517823E+00  0.58665555318E+03 -0.27787311860E+03  0.81937672900E+03  0.50000000000E+03 0.  1.
    -200001    1    1    2    0    0  0.69134683297E+02 -0.68670306451E+03  0.17570946174E+03  0.99860628788E+03  0.70000000000E+03 0.  1.
<mgrwt>
<rscale>  0 0.20359872E+04</rscale>
<asrwt>0</asrwt>
<pdfrwt beam="1">  1        4 0.13329187E+00 0.20359872E+04</pdfrwt>
<pdfrwt beam="2">  1       -4 0.15866838E+00 0.20359872E+04</pdfrwt>
<totfact> 0.19411904E-01</totfact>
</mgrwt>
</event>
<event>
 8    1  0.5217667E-029  0.1756625E+04  0.7818608E-02  0.8729712E-01
          4   -1    0    0  501    0  0.00000000000E+00  0.00000000000E+00  0.19641142008E+04  0.19641146114E+04  0.12700000000E+01 0.  1.
         -4   -1    0    0    0  501 -0.00000000000E+00 -0.00000000000E+00 -0.39276246080E+03  0.39276451407E+03  0.12700000000E+01 0. -1.
     200001    2    1    2    0    0 -0.17562130259E+03 -0.35599446236E+03  0.31391947966E+03  0.86399239550E+03  0.70025889543E+03 0.  0.
    5000001    2    3    3    0    0 -0.95559260771E+02 -0.17306522061E+03  0.81264194186E+02  0.27747596787E+03  0.17693473538E+03 0.  0.
        -13    1    4    4    0    0 -0.41100922974E+02 -0.27941788145E+02  0.10656087363E+03  0.11758086727E+03  0.10566000000E+00 0. -1.
     200003    1    4    4    0    0 -0.54458337797E+02 -0.14512343246E+03 -0.25296679446E+02  0.15989510060E+03  0.30000000000E+02 0. -1.
     200000    1    3    3    0    0 -0.80062041816E+02 -0.18292924175E+03  0.23265528547E+03  0.58651642763E+03  0.50000000000E+03 0. -1.
    -200001    1    1    2    0    0  0.17562130259E+03  0.35599446236E+03  0.12574322603E+04  0.14928867299E+04  0.70000000000E+03 0.  1.
<mgrwt>
<rscale>  0 0.17566254E+04</rscale>
<asrwt>0</asrwt>
<pdfrwt beam="1">  1        4 0.28058791E+00 0.17566254E+04</pdfrwt>
<pdfrwt beam="2">  1       -4 0.56109100E-01 0.17566254E+04</pdfrwt>
<totfact> 0.23606507E-01</totfact>
</mgrwt>
</event>
<event>
 8    1  0.5217667E-029  0.2311150E+04  0.7818608E-02  0.8473538E-01
          4   -1    0    0  501    0  0.00000000000E+00  0.00000000000E+00  0.23926256821E+04  0.23926260192E+04  0.12700000000E+01 0. -1.
         -4   -1    0    0    0  501 -0.00000000000E+00 -0.00000000000E+00 -0.55811091162E+03  0.55811235658E+03  0.12700000000E+01 0.  1.
     200001    2    1    2    0    0 -0.34852811071E+03 -0.77425713196E+03  0.46796753427E+03  0.11962021695E+04  0.70068542638E+03 0.  0.
    5000001    2    3    3    0    0 -0.75527465093E+02 -0.24973426726E+03  0.11040337355E+03  0.34326271256E+03  0.19382668216E+03 0.  0.
        -13    1    4    4    0    0  0.11827120572E+01  0.29257604852E+02 -0.60882672073E+01  0.29907932244E+02  0.10566000000E+00 0. -1.
     200003    1    4    4    0    0 -0.76710177151E+02 -0.27899187211E+03  0.11649164075E+03  0.31335478032E+03  0.30000000000E+02 0. -1.
     200000    1    3    3    0    0 -0.27300064561E+03 -0.52452286471E+03  0.35756416072E+03  0.85293945690E+03  0.50000000000E+03 0.  1.
    -200001    1    1    2    0    0  0.34852811071E+03  0.77425713196E+03  0.13665472362E+04  0.17545362063E+04  0.70000000000E+03 0. -1.
<mgrwt>
<rscale>  0 0.23111496E+04</rscale>
<asrwt>0</asrwt>
<pdfrwt beam="1">  1        4 0.34180380E+00 0.23111496E+04</pdfrwt>
<pdfrwt beam="2">  1       -4 0.79730257E-01 0.23111496E+04</pdfrwt>
<totfact> 0.42814107E-02</totfact>
</mgrwt>
</event>
<event>
 8    1  0.5217667E-029  0.1457408E+04  0.7818608E-02  0.8913281E-01
         -4   -1    0    0    0  501 -0.00000000000E+00  0.00000000000E+00  0.23520700868E+04  0.23520704297E+04  0.12700000000E+01 0. -1.
          4   -1    0    0  501    0  0.00000000000E+00 -0.00000000000E+00 -0.22576034164E+03  0.22576391376E+03  0.12700000000E+01 0.  1.
     200001    2    1    2    0    0  0.11188938995E+03 -0.16691473158E+03  0.10933875988E+04  0.13139878640E+04  0.70049118641E+03 0.  0.
    5000001    2    3    3    0    0 -0.32894347540E+02 -0.32733162544E+02  0.36575299651E+03  0.40932265597E+03  0.17780968535E+03 0.  0.
        -13    1    4    4    0    0 -0.43093861095E+02  0.65932596894E+02  0.13360549395E+03  0.15509554273E+03  0.10566000000E+00 0. -1.
     200003    1    4    4    0    0  0.10199513555E+02 -0.98665759437E+02  0.23214750256E+03  0.25422711324E+03  0.30000000000E+02 0. -1.
     200000    1    3    3    0    0  0.14478373749E+03 -0.13418156903E+03  0.72763460231E+03  0.90466520801E+03  0.50000000000E+03 0.  1.
    -200001    1    1    2    0    0 -0.11188938995E+03  0.16691473158E+03  0.10329221463E+04  0.12638464794E+04  0.70000000000E+03 0. -1.
<mgrwt>
<rscale>  0 0.14574076E+04</rscale>
<asrwt>0</asrwt>
<pdfrwt beam="1">  1        4 0.32251756E-01 0.14574076E+04</pdfrwt>
<pdfrwt beam="2">  1       -4 0.33601031E+00 0.14574076E+04</pdfrwt>
<totfact> 0.33635085E-01</totfact>
</mgrwt>
</event>
<event>
 8    1  0.5217667E-029  0.1710519E+04  0.7818608E-02  0.8755388E-01
          4   -1    0    0  501    0  0.00000000000E+00  0.00000000000E+00  0.14885180552E+04  0.14885185970E+04  0.12700000000E+01 0.  1.
         -4   -1    0    0    0  501 -0.00000000000E+00 -0.00000000000E+00 -0.49140583307E+03  0.49140747418E+03  0.12700000000E+01 0. -1.
     200001    2    1    2    0    0 -0.44198384615E+02  0.40515092118E+03  0.81628435044E+03  0.11499866244E+04  0.70003452015E+03 0.  0.
    5000001    2    3    3    0    0 -0.10787997637E+03  0.32354064847E+02  0.22858729074E+03  0.29067255190E+03  0.13983385902E+03 0.  0.
        -13    1    4    4    0    0 -0.82497610704E+01  0.34632062578E+02 -0.40362263476E+01  0.35829326023E+02  0.10566000000E+00 0. -1.
     200003    1    4    4    0    0 -0.99630215303E+02 -0.22779977312E+01  0.23262351709E+03  0.25484322588E+03  0.30000000000E+02 0. -1.
     200000    1    3    3    0    0  0.63681591758E+02  0.37279685633E+03  0.58769705970E+03  0.85931407250E+03  0.50000000000E+03 0.  1.
    -200001    1    1    2    0    0  0.44198384615E+02 -0.40515092118E+03  0.18082787172E+03  0.82993944678E+03  0.70000000000E+03 0. -1.
<mgrwt>
<rscale>  0 0.17105188E+04</rscale>
<asrwt>0</asrwt>
<pdfrwt beam="1">  1        4 0.21264560E+00 0.17105188E+04</pdfrwt>
<pdfrwt beam="2">  1       -4 0.70200987E-01 0.17105188E+04</pdfrwt>
<totfact> 0.38752525E-01</totfact>
</mgrwt>
</event>
<event>
 8    1  0.5217667E-029  0.1435444E+04  0.7818608E-02  0.8928555E-01
          4   -1    0    0  501    0  0.00000000000E+00  0.00000000000E+00  0.78203779785E+03  0.78203882907E+03  0.12700000000E+01 0.  1.
         -4   -1    0    0    0  501 -0.00000000000E+00 -0.00000000000E+00 -0.65869318681E+03  0.65869441113E+03  0.12700000000E+01 0. -1.
     200001    2    1    2    0    0  0.21245167887E+02  0.11651398738E+03  0.16525419082E+03  0.72954882017E+03  0.70064660636E+03 0.  0.
    5000001    2    3    3    0    0 -0.28546814351E+02 -0.87802741260E+02 -0.30140116266E+02  0.15300437059E+03  0.11822719157E+03 0.  0.
        -13    1    4    4    0    0 -0.51601344227E+02 -0.51976012113E+02 -0.58449276664E+02  0.93704501854E+02  0.10566000000E+00 0. -1.
     200003    1    4    4    0    0  0.23054529876E+02 -0.35826729148E+02  0.28309160398E+02  0.59299868732E+02  0.30000000000E+02 0. -1.
     200000    1    3    3    0    0  0.49791982239E+02  0.20431672864E+03  0.19539430708E+03  0.57654444958E+03  0.50000000000E+03 0. -1.
    -200001    1    1    2    0    0 -0.21245167887E+02 -0.11651398738E+03 -0.41909579778E+02  0.71118442003E+03  0.70000000000E+03 0. -1.
<mgrwt>
<rscale>  0 0.14354436E+04</rscale>
<asrwt>0</asrwt>
<pdfrwt beam="1">  1        4 0.11171985E+00 0.14354436E+04</pdfrwt>
<pdfrwt beam="2">  1       -4 0.94099188E-01 0.14354436E+04</pdfrwt>
<totfact> 0.11751276E+00</totfact>
</mgrwt>
</event>
<event>
 8    1  0.5217667E-029  0.1774498E+04  0.7818608E-02  0.8719980E-01
         -4   -1    0    0    0  501 -0.00000000000E+00  0.00000000000E+00  0.15770945815E+04  0.15770950929E+04  0.12700000000E+01 0. -1.
          4   -1    0    0  501    0  0.00000000000E+00 -0.00000000000E+00 -0.49915138349E+03  0.49915299913E+03  0.12700000000E+01 0.  1.
     200001    2    1    2    0    0 -0.22721784222E+03 -0.42943758968E+03  0.83341094683E+03  0.11897715762E+04  0.69637490324E+03 0.  0.
    5000001    2    3    3    0    0 -0.31544662068E+02 -0.18964150460E+03  0.21555327818E+03  0.33681304576E+03  0.17326524778E+03 0.  0.
        -13    1    4    4    0    0  0.53050230271E+02 -0.15790404427E+02  0.16628971653E+02  0.57794443211E+02  0.10566000000E+00 0. -1.
     200003    1    4    4    0    0 -0.84594892339E+02 -0.17385110018E+03  0.19892430653E+03  0.27901860255E+03  0.30000000000E+02 0. -1.
     200000    1    3    3    0    0 -0.19567318015E+03 -0.23979608508E+03  0.61785766865E+03  0.85295853039E+03  0.50000000000E+03 0. -1.
    -200001    1    1    2    0    0  0.22721784222E+03  0.42943758968E+03  0.24453225118E+03  0.88647651583E+03  0.70000000000E+03 0.  1.
<mgrwt>
<rscale>  0 0.17744984E+04</rscale>
<asrwt>0</asrwt>
<pdfrwt beam="1">  1        4 0.71307494E-01 0.17744984E+04</pdfrwt>
<pdfrwt beam="2">  1       -4 0.22529937E+00 0.17744984E+04</pdfrwt>
<totfact> 0.30914343E-01</totfact>
</mgrwt>
</event>
<event>
 8    1  0.5217667E-029  0.1598015E+04  0.7818608E-02  0.8821768E-01
         -4   -1    0    0    0  501 -0.00000000000E+00  0.00000000000E+00  0.12405790824E+04  0.12405797325E+04  0.12700000000E+01 0. -1.
          4   -1    0    0  501    0  0.00000000000E+00 -0.00000000000E+00 -0.51460744191E+03  0.51460900902E+03  0.12700000000E+01 0.  1.
     200001    2    1    2    0    0  0.15491598824E+03  0.28131517548E+03  0.59401520077E+03  0.97381194807E+03  0.70165408862E+03 0.  0.
    5000001    2    3    3    0    0  0.10251689572E+03  0.10325086693E+03  0.13149067939E+03  0.26785054986E+03  0.18243810694E+03 0.  0.
        -13    1    4    4    0    0  0.45511889025E+01 -0.43941697199E+02  0.60632933864E+02  0.75019663464E+02  0.10566000000E+00 0. -1.
     200003    1    4    4    0    0  0.97965706820E+02  0.14719256412E+03  0.70857745524E+02  0.19283088639E+03  0.30000000000E+02 0. -1.
     200000    1    3    3    0    0  0.52399092520E+02  0.17806430856E+03  0.46252452139E+03  0.70596139821E+03  0.50000000000E+03 0.  1.
    -200001    1    1    2    0    0 -0.15491598824E+03 -0.28131517548E+03  0.13195643977E+03  0.78137679346E+03  0.70000000000E+03 0.  1.
<mgrwt>
<rscale>  0 0.15980152E+04</rscale>
<asrwt>0</asrwt>
<pdfrwt beam="1">  1        4 0.73515508E-01 0.15980152E+04</pdfrwt>
<pdfrwt beam="2">  1       -4 0.17722574E+00 0.15980152E+04</pdfrwt>
<totfact> 0.60911715E-01</totfact>
</mgrwt>
</event>
<event>
 8    1  0.5217667E-029  0.1531670E+04  0.7818608E-02  0.8863662E-01
          4   -1    0    0  501    0  0.00000000000E+00  0.00000000000E+00  0.54949552240E+03  0.54949699002E+03  0.12700000000E+01 0.  1.
         -4   -1    0    0    0  501 -0.00000000000E+00 -0.00000000000E+00 -0.10673453446E+04  0.10673461001E+04  0.12700000000E+01 0. -1.
     200001    2    1    2    0    0 -0.16946738812E+03 -0.24401089857E+03 -0.15722079953E+03  0.77522927954E+03  0.69857107139E+03 0.  0.
    5000001    2    3    3    0    0 -0.12107810985E+03 -0.95139855989E+02 -0.10961970471E+03  0.24913995841E+03  0.16230446185E+03 0.  0.
        -13    1    4    4    0    0 -0.92889023128E+02 -0.23168595628E+02  0.17548646318E+02  0.97329957324E+02  0.10566000000E+00 0. -1.
     200003    1    4    4    0    0 -0.28189086718E+02 -0.71971260361E+02 -0.12716835103E+03  0.15181000109E+03  0.30000000000E+02 0. -1.
     200000    1    3    3    0    0 -0.48389278271E+02 -0.14887104259E+03 -0.47601094823E+02  0.52608932112E+03  0.50000000000E+03 0.  1.
    -200001    1    1    2    0    0  0.16946738812E+03  0.24401089857E+03 -0.36062902265E+03  0.84161381063E+03  0.70000000000E+03 0. -1.
<mgrwt>
<rscale>  0 0.15316700E+04</rscale>
<asrwt>0</asrwt>
<pdfrwt beam="1">  1        4 0.78499520E-01 0.15316700E+04</pdfrwt>
<pdfrwt beam="2">  1       -4 0.15247806E+00 0.15316700E+04</pdfrwt>
<totfact> 0.80084936E-01</totfact>
</mgrwt>
</event>
<event>
 8    1  0.5217667E-029  0.1498595E+04  0.7818608E-02  0.8885388E-01
          4   -1    0    0  501    0  0.00000000000E+00  0.00000000000E+00  0.65140890678E+03  0.65141014478E+03  0.12700000000E+01 0.  1.
         -4   -1    0    0    0  501 -0.00000000000E+00 -0.00000000000E+00 -0.86189310596E+03  0.86189404163E+03  0.12700000000E+01 0. -1.
     200001    2    1    2    0    0  0.19594843562E+03 -0.12772338393E+03 -0.23899355270E+03  0.77470968639E+03  0.69881909514E+03 0.  0.
    5000001    2    3    3    0    0  0.61932697130E+02  0.33004076067E+01 -0.59638507320E+02  0.21141963285E+03  0.19311902531E+03 0.  0.
        -13    1    4    4    0    0 -0.14578449117E+02  0.78216461374E+02 -0.60920424549E+02  0.10020806005E+03  0.10566000000E+00 0. -1.
     200003    1    4    4    0    0  0.76511146247E+02 -0.74916053767E+02  0.12819172289E+01  0.11121157280E+03  0.30000000000E+02 0. -1.
     200000    1    3    3    0    0  0.13401573849E+03 -0.13102379154E+03 -0.17935504538E+03  0.56329005354E+03  0.50000000000E+03 0. -1.
    -200001    1    1    2    0    0 -0.19594843562E+03  0.12772338393E+03  0.28509353526E+02  0.73859450002E+03  0.70000000000E+03 0.  1.
<mgrwt>
<rscale>  0 0.14985947E+04</rscale>
<asrwt>0</asrwt>
<pdfrwt beam="1">  1        4 0.93058571E-01 0.14985947E+04</pdfrwt>
<pdfrwt beam="2">  1       -4 0.12312774E+00 0.14985947E+04</pdfrwt>
<totfact> 0.94434707E-01</totfact>
</mgrwt>
</event>
<event>
 8    1  0.5217667E-029  0.1418497E+04  0.7818608E-02  0.8940537E-01
         -4   -1    0    0    0  501 -0.00000000000E+00  0.00000000000E+00  0.16610797348E+04  0.16610802203E+04  0.12700000000E+01 0. -1.
          4   -1    0    0  501    0  0.00000000000E+00 -0.00000000000E+00 -0.30283331179E+03  0.30283597480E+03  0.12700000000E+01 0.  1.
     200001    2    1    2    0    0  0.88011332705E+01 -0.49660953521E+02  0.54002480286E+03  0.88594110728E+03  0.70051494460E+03 0.  0.
    5000001    2    3    3    0    0  0.59101314873E+02 -0.86649133327E+02  0.12729311709E+03  0.23459966214E+03  0.16683053105E+03 0.  0.
        -13    1    4    4    0    0  0.43988209384E+02 -0.13196335352E+03  0.10348521403E+03  0.17337384441E+03  0.10566000000E+00 0. -1.
     200003    1    4    4    0    0  0.15113105489E+02  0.45314220192E+02  0.23807903054E+02  0.61225817732E+02  0.30000000000E+02 0. -1.
     200000    1    3    3    0    0 -0.50300181602E+02  0.36988179807E+02  0.41273168577E+03  0.65134144514E+03  0.50000000000E+03 0.  1.
    -200001    1    1    2    0    0 -0.88011332705E+01  0.49660953521E+02  0.81822162011E+03  0.10779750878E+04  0.70000000000E+03 0. -1.
<mgrwt>
<rscale>  0 0.14184969E+04</rscale>
<asrwt>0</asrwt>
<pdfrwt beam="1">  1        4 0.43262127E-01 0.14184969E+04</pdfrwt>
<pdfrwt beam="2">  1       -4 0.23729733E+00 0.14184969E+04</pdfrwt>
<totfact> 0.77199638E-01</totfact>
</mgrwt>
</event>
<event>
 8    1  0.5217667E-029  0.1642932E+04  0.7818608E-02  0.8794599E-01
          4   -1    0    0  501    0  0.00000000000E+00  0.00000000000E+00  0.41961956989E+03  0.41962149174E+03  0.12700000000E+01 0.  1.
         -4   -1    0    0    0  501 -0.00000000000E+00 -0.00000000000E+00 -0.16081328716E+04  0.16081333731E+04  0.12700000000E+01 0. -1.
     200001    2    1    2    0    0  0.30245109742E+03 -0.72325580015E+02 -0.96045832530E+03  0.12285573122E+04  0.70011800354E+03 0.  0.
    5000001    2    3    3    0    0 -0.18590166660E+02  0.75555963831E+02 -0.17881394624E+03  0.23563013483E+03  0.13226048202E+03 0.  0.
        -13    1    4    4    0    0 -0.28709011523E+02 -0.24596421129E+02 -0.91635349658E+02  0.99127391502E+02  0.10566000000E+00 0. -1.
     200003    1    4    4    0    0  0.10118844862E+02  0.10015238496E+03 -0.87178596580E+02  0.13650274333E+03  0.30000000000E+02 0. -1.
     200000    1    3    3    0    0  0.32104126408E+03 -0.14788154385E+03 -0.78164437907E+03  0.99292717738E+03  0.50000000000E+03 0. -1.
    -200001    1    1    2    0    0 -0.30245109742E+03  0.72325580015E+02 -0.22805497642E+03  0.79919755262E+03  0.70000000000E+03 0.  1.
<mgrwt>
<rscale>  0 0.16429321E+04</rscale>
<asrwt>0</asrwt>
<pdfrwt beam="1">  1        4 0.59945827E-01 0.16429321E+04</pdfrwt>
<pdfrwt beam="2">  1       -4 0.22973344E+00 0.16429321E+04</pdfrwt>
<totfact> 0.42786750E-01</totfact>
</mgrwt>
</event>
<event>
 8    1  0.5217667E-029  0.2132427E+04  0.7818608E-02  0.8547092E-01
          4   -1    0    0  501    0  0.00000000000E+00  0.00000000000E+00  0.90165686216E+03  0.90165775657E+03  0.12700000000E+01 0.  1.
         -4   -1    0    0    0  501 -0.00000000000E+00 -0.00000000000E+00 -0.12608002167E+04  0.12608008564E+04  0.12700000000E+01 0. -1.
     200001    2    1    2    0    0  0.64118493442E+03 -0.48574760349E+03 -0.19174654583E+03  0.10830650119E+04  0.69942421156E+03 0.  0.
    5000001    2    3    3    0    0  0.22421209773E+03 -0.86311190987E+02 -0.76848800127E+02  0.31065496137E+03  0.18132865324E+03 0.  0.
        -13    1    4    4    0    0  0.10108695189E+03  0.18769803946E+02 -0.10116771601E+03  0.14424214124E+03  0.10566000000E+00 0. -1.
     200003    1    4    4    0    0  0.12312514584E+03 -0.10508099493E+03  0.24318915886E+02  0.16641282013E+03  0.30000000000E+02 0. -1.
     200000    1    3    3    0    0  0.41697283669E+03 -0.39943641250E+03 -0.11489774570E+03  0.77241005051E+03  0.50000000000E+03 0. -1.
    -200001    1    1    2    0    0 -0.64118493442E+03  0.48574760349E+03 -0.16739680874E+03  0.10793936011E+04  0.70000000000E+03 0.  1.
<mgrwt>
<rscale>  0 0.21324266E+04</rscale>
<asrwt>0</asrwt>
<pdfrwt beam="1">  1        4 0.12880823E+00 0.21324266E+04</pdfrwt>
<pdfrwt beam="2">  1       -4 0.18011443E+00 0.21324266E+04</pdfrwt>
<totfact> 0.14730661E-01</totfact>
</mgrwt>
</event>
<event>
 8    1  0.5217667E-029  0.1891161E+04  0.7818608E-02  0.8659268E-01
         -4   -1    0    0    0  501 -0.00000000000E+00  0.00000000000E+00  0.77650131479E+03  0.77650235336E+03  0.12700000000E+01 0. -1.
          4   -1    0    0  501    0  0.00000000000E+00 -0.00000000000E+00 -0.11514742026E+04  0.11514749030E+04  0.12700000000E+01 0.  1.
     200001    2    1    2    0    0  0.47699424227E+02  0.60224835915E+03 -0.38806696347E+03  0.10032341699E+04  0.70064578090E+03 0.  0.
    5000001    2    3    3    0    0  0.65498249184E+02 -0.22924962249E+01 -0.54950461732E+02  0.15073604805E+03  0.12412303071E+03 0.  0.
        -13    1    4    4    0    0  0.76593648241E+02  0.40960114994E+00 -0.79447052655E+02  0.11035669469E+03  0.10566000000E+00 0. -1.
     200003    1    4    4    0    0 -0.11095399058E+02 -0.27020973749E+01  0.24496590923E+02  0.40379353355E+02  0.30000000000E+02 0. -1.
     200000    1    3    3    0    0 -0.17798824956E+02  0.60454085538E+03 -0.33311650173E+03  0.85249812182E+03  0.50000000000E+03 0.  1.
    -200001    1    1    2    0    0 -0.47699424227E+02 -0.60224835915E+03  0.13094075629E+02  0.92474308648E+03  0.70000000000E+03 0. -1.
<mgrwt>
<rscale>  0 0.18911615E+04</rscale>
<asrwt>0</asrwt>
<pdfrwt beam="1">  1        4 0.16449644E+00 0.18911615E+04</pdfrwt>
<pdfrwt beam="2">  1       -4 0.11092888E+00 0.18911615E+04</pdfrwt>
<totfact> 0.28144987E-01</totfact>
</mgrwt>
</event>
<event>
 8    1  0.5217667E-029  0.1964762E+04  0.7818608E-02  0.8623275E-01
          4   -1    0    0  501    0  0.00000000000E+00  0.00000000000E+00  0.76552455932E+03  0.76552561278E+03  0.12700000000E+01 0. -1.
         -4   -1    0    0    0  501 -0.00000000000E+00 -0.00000000000E+00 -0.12606656447E+04  0.12606662844E+04  0.12700000000E+01 0.  1.
     200001    2    1    2    0    0  0.40453384605E+03 -0.52150368031E+03 -0.45078284146E+03  0.10630816361E+04  0.70094484355E+03 0.  0.
    5000001    2    3    3    0    0 -0.35554583747E+02 -0.14798705853E+03 -0.55412477855E+02  0.20313383699E+03  0.12259084433E+03 0.  0.
        -13    1    4    4    0    0  0.22854816889E+02  0.91963913215E+01 -0.11667635513E+02  0.27259148022E+02  0.10566000000E+00 0. -1.
     200003    1    4    4    0    0 -0.58409400637E+02 -0.15718344985E+03 -0.43744842342E+02  0.17587468897E+03  0.30000000000E+02 0. -1.
     200000    1    3    3    0    0  0.44008842980E+03 -0.37351662178E+03 -0.39537036361E+03  0.85994779912E+03  0.50000000000E+03 0. -1.
    -200001    1    1    2    0    0 -0.40453384605E+03  0.52150368031E+03 -0.44358243918E+02  0.96311026107E+03  0.70000000000E+03 0.  1.
<mgrwt>
<rscale>  0 0.19647618E+04</rscale>
<asrwt>0</asrwt>
<pdfrwt beam="1">  1        4 0.10936077E+00 0.19647618E+04</pdfrwt>
<pdfrwt beam="2">  1       -4 0.18009521E+00 0.19647618E+04</pdfrwt>
<totfact> 0.22430082E-01</totfact>
</mgrwt>
</event>
<event>
 8    1  0.5217667E-029  0.1623026E+04  0.7818608E-02  0.8806526E-01
          4   -1    0    0  501    0  0.00000000000E+00  0.00000000000E+00  0.37541921472E+03  0.37542136285E+03  0.12700000000E+01 0.  1.
         -4   -1    0    0    0  501 -0.00000000000E+00 -0.00000000000E+00 -0.17541744387E+04  0.17541748984E+04  0.12700000000E+01 0. -1.
     200001    2    1    2    0    0 -0.23755692844E+02 -0.25309861321E+03 -0.26678288706E+03  0.79127428246E+03  0.70022756322E+03 0.  0.
    5000001    2    3    3    0    0 -0.28026763602E+02 -0.71148989532E+02 -0.12973783917E+03  0.24181522779E+03  0.18919571689E+03 0.  0.
        -13    1    4    4    0    0 -0.67395777602E+02 -0.99848591835E+02 -0.13891011165E+03  0.18386941674E+03  0.10566000000E+00 0. -1.
     200003    1    4    4    0    0  0.39369014000E+02  0.28699602304E+02  0.91722724783E+01  0.57945811049E+02  0.30000000000E+02 0. -1.
     200000    1    3    3    0    0  0.42710707581E+01 -0.18194962368E+03 -0.13704504789E+03  0.54945905467E+03  0.50000000000E+03 0.  1.
    -200001    1    1    2    0    0  0.23755692844E+02  0.25309861321E+03 -0.11119723369E+04  0.13383219788E+04  0.70000000000E+03 0. -1.
<mgrwt>
<rscale>  0 0.16230263E+04</rscale>
<asrwt>0</asrwt>
<pdfrwt beam="1">  1        4 0.53631503E-01 0.16230263E+04</pdfrwt>
<pdfrwt beam="2">  1       -4 0.25059653E+00 0.16230263E+04</pdfrwt>
<totfact> 0.40239541E-01</totfact>
</mgrwt>
</event>
<event>
 8    1  0.5217667E-029  0.1964549E+04  0.7818608E-02  0.8623377E-01
          4   -1    0    0  501    0  0.00000000000E+00  0.00000000000E+00  0.87939822227E+03  0.87939913931E+03  0.12700000000E+01 0.  1.
         -4   -1    0    0    0  501 -0.00000000000E+00 -0.00000000000E+00 -0.10971838450E+04  0.10971845800E+04  0.12700000000E+01 0. -1.
     200001    2    1    2    0    0 -0.45513465430E+03 -0.16474259418E+02  0.41036220637E+03  0.93160111182E+03  0.70147311878E+03 0.  0.
    5000001    2    3    3    0    0 -0.12236849695E+03 -0.13165086282E+03  0.16839327846E+03  0.27391735231E+03  0.11986834838E+03 0.  0.
        -13    1    4    4    0    0 -0.17368872185E+02 -0.66077298880E+02  0.75383314444E+01  0.68736633269E+02  0.10566000000E+00 0. -1.
     200003    1    4    4    0    0 -0.10499962476E+03 -0.65573563936E+02  0.16085494702E+03  0.20518071904E+03  0.30000000000E+02 0. -1.
     200000    1    3    3    0    0 -0.33276615735E+03  0.11517660340E+03  0.24196892791E+03  0.65768375951E+03  0.50000000000E+03 0.  1.
    -200001    1    1    2    0    0  0.45513465430E+03  0.16474259418E+02 -0.62814782909E+03  0.10449826075E+04  0.70000000000E+03 0. -1.
<mgrwt>
<rscale>  0 0.19645490E+04</rscale>
<asrwt>0</asrwt>
<pdfrwt beam="1">  1        4 0.12562844E+00 0.19645490E+04</pdfrwt>
<pdfrwt beam="2">  1       -4 0.15674067E+00 0.19645490E+04</pdfrwt>
<totfact> 0.23465177E-01</totfact>
</mgrwt>
</event>
<event>
 8    1  0.5217667E-029  0.2179971E+04  0.7818608E-02  0.8526811E-01
         -4   -1    0    0    0  501 -0.00000000000E+00  0.00000000000E+00  0.59228805129E+03  0.59228941287E+03  0.12700000000E+01 0. -1.
          4   -1    0    0  501    0  0.00000000000E+00 -0.00000000000E+00 -0.20058928764E+04  0.20058932784E+04  0.12700000000E+01 0.  1.
     200001    2    1    2    0    0  0.57882246914E+03 -0.15572264002E+03 -0.12123460942E+02  0.92085296655E+03  0.69895508891E+03 0.  0.
    5000001    2    3    3    0    0  0.14802794055E+03 -0.32318777771E+02 -0.77694640841E+01  0.24941317300E+03  0.19796411723E+03 0.  0.
        -13    1    4    4    0    0  0.48811190904E+02  0.45068294524E+02 -0.77809613512E+02  0.10231339427E+03  0.10566000000E+00 0. -1.
     200003    1    4    4    0    0  0.99216749646E+02 -0.77387072295E+02  0.70040149428E+02  0.14709977872E+03  0.30000000000E+02 0. -1.
     200000    1    3    3    0    0  0.43079452859E+03 -0.12340386225E+03 -0.43539968582E+01  0.67143979356E+03  0.50000000000E+03 0. -1.
    -200001    1    1    2    0    0 -0.57882246914E+03  0.15572264002E+03 -0.14014813641E+04  0.16773297247E+04  0.70000000000E+03 0.  1.
<mgrwt>
<rscale>  0 0.21799713E+04</rscale>
<asrwt>0</asrwt>
<pdfrwt beam="1">  1        4 0.28655625E+00 0.21799713E+04</pdfrwt>
<pdfrwt beam="2">  1       -4 0.84612706E-01 0.21799713E+04</pdfrwt>
<totfact> 0.84425016E-02</totfact>
</mgrwt>
</event>
<event>
 8    1  0.5217667E-029  0.2197882E+04  0.7818608E-02  0.8519310E-01
          4   -1    0    0  501    0  0.00000000000E+00  0.00000000000E+00  0.10677543862E+04  0.10677551415E+04  0.12700000000E+01 0.  1.
         -4   -1    0    0    0  501 -0.00000000000E+00 -0.00000000000E+00 -0.11310368933E+04  0.11310376063E+04  0.12700000000E+01 0. -1.
     200001    2    1    2    0    0  0.63908255953E+03 -0.31068090064E+03 -0.49203291330E+03  0.11130782131E+04  0.70135410515E+03 0.  0.
    5000001    2    3    3    0    0  0.16578437157E+03 -0.21207400490E+03 -0.24411191845E+03  0.37470207976E+03  0.91384782295E+02 0.  0.
        -13    1    4    4    0    0  0.13443194208E+03 -0.18925525916E+03 -0.17869880628E+03  0.29295524352E+03  0.10566000000E+00 0. -1.
     200003    1    4    4    0    0  0.31352429482E+02 -0.22818745733E+02 -0.65413112174E+02  0.81746836242E+02  0.30000000000E+02 0.  1.
     200000    1    3    3    0    0  0.47329818797E+03 -0.98606895747E+02 -0.24792099485E+03  0.73837613335E+03  0.50000000000E+03 0. -1.
    -200001    1    1    2    0    0 -0.63908255953E+03  0.31068090064E+03  0.42875040629E+03  0.10857145347E+04  0.70000000000E+03 0.  1.
<mgrwt>
<rscale>  0 0.21978819E+04</rscale>
<asrwt>0</asrwt>
<pdfrwt beam="1">  1        4 0.15253645E+00 0.21978819E+04</pdfrwt>
<pdfrwt beam="2">  1       -4 0.16157680E+00 0.21978819E+04</pdfrwt>
<totfact> 0.12793658E-01</totfact>
</mgrwt>
</event>
<event>
 8    1  0.5217667E-029  0.2219878E+04  0.7818608E-02  0.8510200E-01
          4   -1    0    0  501    0  0.00000000000E+00  0.00000000000E+00  0.77466948056E+03  0.77467052158E+03  0.12700000000E+01 0.  1.
         -4   -1    0    0    0  501 -0.00000000000E+00 -0.00000000000E+00 -0.15903081039E+04  0.15903086110E+04  0.12700000000E+01 0. -1.
     200001    2    1    2    0    0  0.60547534422E+02 -0.82396044971E+03 -0.66740665651E+03  0.12720246309E+04  0.70002727800E+03 0.  0.
    5000001    2    3    3    0    0  0.26150922985E+02 -0.17609869660E+02 -0.12573441574E+03  0.17895866712E+03  0.12338185829E+03 0.  0.
        -13    1    4    4    0    0 -0.33573360502E+01 -0.35913668109E+02 -0.12802855529E+03  0.13301272644E+03  0.10566000000E+00 0. -1.
     200003    1    4    4    0    0  0.29508259035E+02  0.18303798449E+02  0.22941395445E+01  0.45945940683E+02  0.30000000000E+02 0. -1.
     200000    1    3    3    0    0  0.34396611437E+02 -0.80635058005E+03 -0.54167224077E+03  0.10930659638E+04  0.50000000000E+03 0. -1.
    -200001    1    1    2    0    0 -0.60547534422E+02  0.82396044971E+03 -0.14823196680E+03  0.10929545016E+04  0.70000000000E+03 0.  1.
<mgrwt>
<rscale>  0 0.22198784E+04</rscale>
<asrwt>0</asrwt>
<pdfrwt beam="1">  1        4 0.11066718E+00 0.22198784E+04</pdfrwt>
<pdfrwt beam="2">  1       -4 0.22718698E+00 0.22198784E+04</pdfrwt>
<totfact> 0.10439373E-01</totfact>
</mgrwt>
</event>
<event>
 8    1  0.5217667E-029  0.1490637E+04  0.7818608E-02  0.8890703E-01
          4   -1    0    0  501    0  0.00000000000E+00  0.00000000000E+00  0.56878021123E+03  0.56878162908E+03  0.12700000000E+01 0.  1.
         -4   -1    0    0    0  501 -0.00000000000E+00 -0.00000000000E+00 -0.97664815800E+03  0.97664898373E+03  0.12700000000E+01 0. -1.
     200001    2    1    2    0    0 -0.13869465168E+03 -0.24843995113E+02 -0.42475183477E+03  0.83119080983E+03  0.70043601471E+03 0.  0.
    5000001    2    3    3    0    0  0.36171220358E+02  0.60282935923E+02 -0.11672152706E+03  0.21255736581E+03  0.16313898779E+03 0.  0.
        -13    1    4    4    0    0  0.38145658931E+02 -0.49118383327E+02 -0.26504180599E+02  0.67603177656E+02  0.10566000000E+00 0. -1.
     200003    1    4    4    0    0 -0.19744385724E+01  0.10940131925E+03 -0.90217346464E+02  0.14495418816E+03  0.30000000000E+02 0. -1.
     200000    1    3    3    0    0 -0.17486587203E+03 -0.85126931036E+02 -0.30803030770E+03  0.61863344402E+03  0.50000000000E+03 0. -1.
    -200001    1    1    2    0    0  0.13869465168E+03  0.24843995113E+02  0.16883887996E+02  0.71423980299E+03  0.70000000000E+03 0.  1.
<mgrwt>
<rscale>  0 0.14906373E+04</rscale>
<asrwt>0</asrwt>
<pdfrwt beam="1">  1        4 0.81254476E-01 0.14906373E+04</pdfrwt>
<pdfrwt beam="2">  1       -4 0.13952133E+00 0.14906373E+04</pdfrwt>
<totfact> 0.93916074E-01</totfact>
</mgrwt>
</event>
<event>
 8    1  0.5217667E-029  0.1800285E+04  0.7818608E-02  0.8706148E-01
         -4   -1    0    0    0  501 -0.00000000000E+00  0.00000000000E+00  0.59773371227E+03  0.59773506145E+03  0.12700000000E+01 0. -1.
          4   -1    0    0  501    0  0.00000000000E+00 -0.00000000000E+00 -0.13555441978E+04  0.13555447927E+04  0.12700000000E+01 0.  1.
     200001    2    1    2    0    0  0.50628824103E+03  0.18100803005E+03 -0.57059685249E+03  0.10509824340E+04  0.69992258045E+03 0.  0.
    5000001    2    3    3    0    0  0.16566856358E+03  0.25622288470E+02 -0.10578315038E+03  0.27238223431E+03  0.18681389679E+03 0.  0.
        -13    1    4    4    0    0  0.12974784927E+03 -0.26965723157E+02  0.14192366938E+02  0.13327823925E+03  0.10566000000E+00 0. -1.
     200003    1    4    4    0    0  0.35920714314E+02  0.52588011627E+02 -0.11997551732E+03  0.13910399506E+03  0.30000000000E+02 0. -1.
     200000    1    3    3    0    0  0.34061967745E+03  0.15538574158E+03 -0.46481370210E+03  0.77860019973E+03  0.50000000000E+03 0.  1.
    -200001    1    1    2    0    0 -0.50628824103E+03 -0.18100803005E+03 -0.18721363301E+03  0.90229742011E+03  0.70000000000E+03 0. -1.
<mgrwt>
<rscale>  0 0.18002848E+04</rscale>
<asrwt>0</asrwt>
<pdfrwt beam="1">  1        4 0.19364931E+00 0.18002848E+04</pdfrwt>
<pdfrwt beam="2">  1       -4 0.85390670E-01 0.18002848E+04</pdfrwt>
<totfact> 0.32980367E-01</totfact>
</mgrwt>
</event>
<event>
 8    1  0.5217667E-029  0.2869996E+04  0.7818608E-02  0.8281861E-01
         -4   -1    0    0    0  501 -0.00000000000E+00  0.00000000000E+00  0.93941265798E+03  0.93941351645E+03  0.12700000000E+01 0. -1.
          4   -1    0    0  501    0  0.00000000000E+00 -0.00000000000E+00 -0.21920260202E+04  0.21920263881E+04  0.12700000000E+01 0.  1.
     200001    2    1    2    0    0  0.46083647943E+03  0.84525944397E+03 -0.15009669395E+04  0.19154985870E+04  0.69957079334E+03 0.  0.
    5000001    2    3    3    0    0  0.14733266873E+03  0.31674935354E+03 -0.48714382055E+03  0.62885766135E+03  0.19004154308E+03 0.  0.
        -13    1    4    4    0    0 -0.32591898768E+02  0.44248246788E+01 -0.65816476160E+02  0.73577378568E+02  0.10566000000E+00 0. -1.
     200003    1    4    4    0    0  0.17992456750E+03  0.31232452886E+03 -0.42132734439E+03  0.55528028278E+03  0.30000000000E+02 0. -1.
     200000    1    3    3    0    0  0.31350381070E+03  0.52851009043E+03 -0.10138231189E+04  0.12866409256E+04  0.50000000000E+03 0.  1.
    -200001    1    1    2    0    0 -0.46083647943E+03 -0.84525944397E+03  0.24835357728E+03  0.12159413176E+04  0.70000000000E+03 0. -1.
<mgrwt>
<rscale>  0 0.28699958E+04</rscale>
<asrwt>0</asrwt>
<pdfrwt beam="1">  1        4 0.31314666E+00 0.28699958E+04</pdfrwt>
<pdfrwt beam="2">  1       -4 0.13420190E+00 0.28699958E+04</pdfrwt>
<totfact> 0.17715956E-02</totfact>
</mgrwt>
</event>
<event>
 8    1  0.5217667E-029  0.1488328E+04  0.7818608E-02  0.8892252E-01
         -4   -1    0    0    0  501 -0.00000000000E+00  0.00000000000E+00  0.29030425728E+03  0.29030703522E+03  0.12700000000E+01 0.  1.
          4   -1    0    0  501    0  0.00000000000E+00 -0.00000000000E+00 -0.19075735134E+04  0.19075739362E+04  0.12700000000E+01 0. -1.
     200001    2    1    2    0    0 -0.16034206678E+03 -0.19099166277E+03 -0.86396202663E+03  0.11397414836E+04  0.70028056688E+03 0.  0.
    5000001    2    3    3    0    0 -0.11148371662E+02 -0.28722655674E+02 -0.22415367986E+03  0.29834698045E+03  0.19446534758E+03 0.  0.
        -13    1    4    4    0    0  0.85331858568E+02  0.10934128820E+01 -0.13801854377E+03  0.16227091923E+03  0.10566000000E+00 0. -1.
     200003    1    4    4    0    0 -0.96480230230E+02 -0.29816068556E+02 -0.86135136087E+02  0.13607606122E+03  0.30000000000E+02 0. -1.
     200000    1    3    3    0    0 -0.14919369512E+03 -0.16226900710E+03 -0.63980834677E+03  0.84139450315E+03  0.50000000000E+03 0. -1.
    -200001    1    1    2    0    0  0.16034206678E+03  0.19099166277E+03 -0.75330722952E+03  0.10581394878E+04  0.70000000000E+03 0.  1.
<mgrwt>
<rscale>  0 0.14883282E+04</rscale>
<asrwt>0</asrwt>
<pdfrwt beam="1">  1        4 0.27251072E+00 0.14883282E+04</pdfrwt>
<pdfrwt beam="2">  1       -4 0.41472266E-01 0.14883282E+04</pdfrwt>
<totfact> 0.50668727E-01</totfact>
</mgrwt>
</event>
<event>
 8    1  0.5217667E-029  0.1686540E+04  0.7818608E-02  0.8769079E-01
         -4   -1    0    0    0  501 -0.00000000000E+00  0.00000000000E+00  0.67966787675E+03  0.67966906329E+03  0.12700000000E+01 0. -1.
          4   -1    0    0  501    0  0.00000000000E+00 -0.00000000000E+00 -0.10462497905E+04  0.10462505613E+04  0.12700000000E+01 0.  1.
     200001    2    1    2    0    0 -0.37117763153E+03  0.59181160391E+02  0.10714778378E+03  0.80088174955E+03  0.69903911572E+03 0.  0.
    5000001    2    3    3    0    0 -0.10037461566E+01 -0.47812202967E+01 -0.81308236281E+02  0.14770829399E+03  0.12321868061E+03 0.  0.
        -13    1    4    4    0    0 -0.47625355135E+02 -0.77214987601E+00 -0.78787511841E+02  0.92066572942E+02  0.10566000000E+00 0. -1.
     200003    1    4    4    0    0  0.46621608978E+02 -0.40090704207E+01 -0.25207244400E+01  0.55641721047E+02  0.30000000000E+02 0. -1.
     200000    1    3    3    0    0 -0.37017388537E+03  0.63962380687E+02  0.18845602006E+03  0.65317345556E+03  0.50000000000E+03 0. -1.
    -200001    1    1    2    0    0  0.37117763153E+03 -0.59181160391E+02 -0.47372969748E+03  0.92503787499E+03  0.70000000000E+03 0.  1.
<mgrwt>
<rscale>  0 0.16865397E+04</rscale>
<asrwt>0</asrwt>
<pdfrwt beam="1">  1        4 0.14946440E+00 0.16865397E+04</pdfrwt>
<pdfrwt beam="2">  1       -4 0.97095551E-01 0.16865397E+04</pdfrwt>
<totfact> 0.51101929E-01</totfact>
</mgrwt>
</event>
<event>
 8    1  0.5217667E-029  0.1623352E+04  0.7818608E-02  0.8806329E-01
         -4   -1    0    0    0  501 -0.00000000000E+00  0.00000000000E+00  0.65672162175E+03  0.65672284975E+03  0.12700000000E+01 0. -1.
          4   -1    0    0  501    0  0.00000000000E+00 -0.00000000000E+00 -0.10031893815E+04  0.10031901854E+04  0.12700000000E+01 0.  1.
     200001    2    1    2    0    0 -0.18447258152E+03  0.36838185914E+03 -0.15354444964E+03  0.82507488851E+03  0.69816713340E+03 0.  0.
    5000001    2    3    3    0    0 -0.50204058527E+02  0.63399531919E+02  0.98857086130E+02  0.17334734464E+03  0.11720337143E+03 0.  0.
        -13    1    4    4    0    0 -0.63338662868E+02  0.70321103208E+02  0.10269701439E+03  0.13965504538E+03  0.10566000000E+00 0. -1.
     200003    1    4    4    0    0  0.13134604341E+02 -0.69215712889E+01 -0.38399282643E+01  0.33692299259E+02  0.30000000000E+02 0.  1.
     200000    1    3    3    0    0 -0.13426852299E+03  0.30498232722E+03 -0.25240153576E+03  0.65172754387E+03  0.50000000000E+03 0.  1.
    -200001    1    1    2    0    0  0.18447258152E+03 -0.36838185914E+03 -0.19292331011E+03  0.83483814662E+03  0.70000000000E+03 0. -1.
<mgrwt>
<rscale>  0 0.16233519E+04</rscale>
<asrwt>0</asrwt>
<pdfrwt beam="1">  1        4 0.14331291E+00 0.16233519E+04</pdfrwt>
<pdfrwt beam="2">  1       -4 0.93817519E-01 0.16233519E+04</pdfrwt>
<totfact> 0.62214743E-01</totfact>
</mgrwt>
</event>
<event>
 8    1  0.5217667E-029  0.1772292E+04  0.7818608E-02  0.8721175E-01
         -4   -1    0    0    0  501 -0.00000000000E+00  0.00000000000E+00  0.87712304262E+03  0.87712396204E+03  0.12700000000E+01 0. -1.
          4   -1    0    0  501    0  0.00000000000E+00 -0.00000000000E+00 -0.89525991571E+03  0.89526081651E+03  0.12700000000E+01 0.  1.
     200001    2    1    2    0    0  0.76134301505E+02  0.42365787249E+03  0.32451216645E+03  0.88205293643E+03  0.69815958900E+03 0.  0.
    5000001    2    3    3    0    0  0.41357041799E+01  0.17183079442E+02  0.78148170590E+02  0.18843865324E+03  0.17055681516E+03 0.  0.
        -13    1    4    4    0    0 -0.60284232482E+02  0.58415390244E+02  0.62856901588E+02  0.10486919350E+03  0.10566000000E+00 0. -1.
     200003    1    4    4    0    0  0.64419936662E+02 -0.41232310802E+02  0.15291269001E+02  0.83569459740E+02  0.30000000000E+02 0. -1.
     200000    1    3    3    0    0  0.71998597325E+02  0.40647479304E+03  0.24636399586E+03  0.69361428320E+03  0.50000000000E+03 0. -1.
    -200001    1    1    2    0    0 -0.76134301505E+02 -0.42365787249E+03 -0.34264903955E+03  0.89033184212E+03  0.70000000000E+03 0. -1.
<mgrwt>
<rscale>  0 0.17722920E+04</rscale>
<asrwt>0</asrwt>
<pdfrwt beam="1">  1        4 0.12789440E+00 0.17722920E+04</pdfrwt>
<pdfrwt beam="2">  1       -4 0.12530342E+00 0.17722920E+04</pdfrwt>
<totfact> 0.40838966E-01</totfact>
</mgrwt>
</event>
<event>
 8    1  0.5217667E-029  0.1670999E+04  0.7818608E-02  0.8778080E-01
         -4   -1    0    0    0  501 -0.00000000000E+00  0.00000000000E+00  0.14957768501E+04  0.14957773893E+04  0.12700000000E+01 0. -1.
          4   -1    0    0  501    0  0.00000000000E+00 -0.00000000000E+00 -0.46668544911E+03  0.46668717715E+03  0.12700000000E+01 0.  1.
     200001    2    1    2    0    0 -0.34146337946E+03 -0.27621077300E+03  0.65985778123E+03  0.10573551274E+04  0.69978421199E+03 0.  0.
    5000001    2    3    3    0    0 -0.27830616071E+02 -0.73944869843E+02  0.19303748090E+03  0.27812589370E+03  0.18397868558E+03 0.  0.
        -13    1    4    4    0    0  0.23962257648E+02  0.53757281860E+02  0.49618216479E+02  0.76980606097E+02  0.10566000000E+00 0. -1.
     200003    1    4    4    0    0 -0.51792873719E+02 -0.12770215170E+03  0.14341926442E+03  0.20114528760E+03  0.30000000000E+02 0. -1.
     200000    1    3    3    0    0 -0.31363276339E+03 -0.20226590316E+03  0.46682030033E+03  0.77922923370E+03  0.50000000000E+03 0. -1.
    -200001    1    1    2    0    0  0.34146337946E+03  0.27621077300E+03  0.36923361980E+03  0.90510943903E+03  0.70000000000E+03 0.  1.
<mgrwt>
<rscale>  0 0.16709991E+04</rscale>
<asrwt>0</asrwt>
<pdfrwt beam="1">  1        4 0.66669511E-01 0.16709991E+04</pdfrwt>
<pdfrwt beam="2">  1       -4 0.21368257E+00 0.16709991E+04</pdfrwt>
<totfact> 0.42885146E-01</totfact>
</mgrwt>
</event>
<event>
 8    1  0.5217667E-029  0.1551631E+04  0.7818608E-02  0.8850826E-01
         -4   -1    0    0    0  501 -0.00000000000E+00  0.00000000000E+00  0.82425226244E+03  0.82425324084E+03  0.12700000000E+01 0. -1.
          4   -1    0    0  501    0  0.00000000000E+00 -0.00000000000E+00 -0.73022332184E+03  0.73022442623E+03  0.12700000000E+01 0.  1.
     200001    2    1    2    0    0 -0.31978611698E+03 -0.43228008977E+01  0.14114303229E+03  0.78343837828E+03  0.70112230729E+03 0.  0.
    5000001    2    3    3    0    0 -0.76448899147E+02 -0.10455768438E+03  0.95617407091E+02  0.21657629982E+03  0.14486497700E+03 0.  0.
        -13    1    4    4    0    0  0.80616021910E+01 -0.13475054340E+02  0.87065344603E+02  0.88470062248E+02  0.10566000000E+00 0. -1.
     200003    1    4    4    0    0 -0.84510501338E+02 -0.91082630039E+02  0.85520624888E+01  0.12810623757E+03  0.30000000000E+02 0. -1.
     200000    1    3    3    0    0 -0.24333721783E+03  0.10023488348E+03  0.45525625200E+02  0.56686207846E+03  0.50000000000E+03 0. -1.
    -200001    1    1    2    0    0  0.31978611698E+03  0.43228008977E+01 -0.47114091700E+02  0.77103928879E+03  0.70000000000E+03 0.  1.
<mgrwt>
<rscale>  0 0.15516312E+04</rscale>
<asrwt>0</asrwt>
<pdfrwt beam="1">  1        4 0.10431777E+00 0.15516312E+04</pdfrwt>
<pdfrwt beam="2">  1       -4 0.11775047E+00 0.15516312E+04</pdfrwt>
<totfact> 0.80190096E-01</totfact>
</mgrwt>
</event>
<event>
 8    1  0.5217667E-029  0.1665290E+04  0.7818608E-02  0.8781412E-01
          4   -1    0    0  501    0  0.00000000000E+00  0.00000000000E+00  0.61134349529E+03  0.61134481444E+03  0.12700000000E+01 0.  1.
         -4   -1    0    0    0  501 -0.00000000000E+00 -0.00000000000E+00 -0.11340528119E+04  0.11340535231E+04  0.12700000000E+01 0. -1.
     200001    2    1    2    0    0 -0.11972233193E+03 -0.32022836909E+03  0.49330821908E+02  0.77890489973E+03  0.69812582512E+03 0.  0.
    5000001    2    3    3    0    0  0.47770734000E+01 -0.67379476419E+02  0.26063968577E+02  0.20447125612E+03  0.19122329839E+03 0.  0.
        -13    1    4    4    0    0 -0.25891687833E+02 -0.12415575359E+03 -0.47683703245E+01  0.12691642592E+03  0.10566000000E+00 0. -1.
     200003    1    4    4    0    0  0.30668761233E+02  0.56776277172E+02  0.30832338901E+02  0.77554830199E+02  0.30000000000E+02 0. -1.
     200000    1    3    3    0    0 -0.12449940533E+03 -0.25284889267E+03  0.23266853332E+02  0.57443364362E+03  0.50000000000E+03 0.  1.
    -200001    1    1    2    0    0  0.11972233193E+03  0.32022836909E+03 -0.57204013856E+03  0.96649343777E+03  0.70000000000E+03 0. -1.
<mgrwt>
<rscale>  0 0.16652899E+04</rscale>
<asrwt>0</asrwt>
<pdfrwt beam="1">  1        4 0.87334930E-01 0.16652899E+04</pdfrwt>
<pdfrwt beam="2">  1       -4 0.16200769E+00 0.16652899E+04</pdfrwt>
<totfact> 0.52714226E-01</totfact>
</mgrwt>
</event>
<event>
 8    1  0.5217667E-029  0.1653467E+04  0.7818608E-02  0.8788358E-01
         -4   -1    0    0    0  501 -0.00000000000E+00  0.00000000000E+00  0.36777033316E+03  0.36777252597E+03  0.12700000000E+01 0. -1.
          4   -1    0    0  501    0  0.00000000000E+00 -0.00000000000E+00 -0.18584570723E+04  0.18584575062E+04  0.12700000000E+01 0.  1.
     200001    2    1    2    0    0 -0.23802936572E+03  0.36767998509E+03 -0.79073144053E+03  0.11437403230E+04  0.70074186769E+03 0.  0.
    5000001    2    3    3    0    0 -0.18485516314E+01  0.46114190016E+02 -0.29426429578E+03  0.33400853824E+03  0.15113005056E+03 0.  0.
        -13    1    4    4    0    0 -0.57706922277E+02  0.66221689594E+02 -0.13108801371E+03  0.15779568927E+03  0.10566000000E+00 0. -1.
     200003    1    4    4    0    0  0.55858370646E+02 -0.20107499578E+02 -0.16317628207E+03  0.17621284897E+03  0.30000000000E+02 0. -1.
     200000    1    3    3    0    0 -0.23618081409E+03  0.32156579507E+03 -0.49646714475E+03  0.80973178480E+03  0.50000000000E+03 0. -1.
    -200001    1    1    2    0    0  0.23802936572E+03 -0.36767998509E+03 -0.69995529860E+03  0.10824897091E+04  0.70000000000E+03 0.  1.
<mgrwt>
<rscale>  0 0.16534670E+04</rscale>
<asrwt>0</asrwt>
<pdfrwt beam="1">  1        4 0.26549405E+00 0.16534670E+04</pdfrwt>
<pdfrwt beam="2">  1       -4 0.52538807E-01 0.16534670E+04</pdfrwt>
<totfact> 0.33908199E-01</totfact>
</mgrwt>
</event>
<event>
 8    1  0.5217667E-029  0.1596072E+04  0.7818608E-02  0.8822965E-01
          4   -1    0    0  501    0  0.00000000000E+00  0.00000000000E+00  0.26381305275E+04  0.26381308332E+04  0.12700000000E+01 0.  1.
         -4   -1    0    0    0  501 -0.00000000000E+00 -0.00000000000E+00 -0.24140429045E+03  0.24140763108E+03  0.12700000000E+01 0. -1.
     200001    2    1    2    0    0 -0.14574366714E+03 -0.36322573329E+02  0.18342294603E+04  0.19690643187E+04  0.70018285643E+03 0.  0.
    5000001    2    3    3    0    0 -0.14221112580E+03 -0.19800028468E+02  0.50371881847E+03  0.54760589819E+03  0.15976084068E+03 0.  0.
        -13    1    4    4    0    0 -0.12406093128E+03  0.47704940156E+02  0.37773920566E+03  0.40044199910E+03  0.10566000000E+00 0. -1.
     200003    1    4    4    0    0 -0.18150194522E+02 -0.67504968624E+02  0.12597961281E+03  0.14716389909E+03  0.30000000000E+02 0. -1.
     200000    1    3    3    0    0 -0.35325413377E+01 -0.16522544861E+02  0.13305106418E+04  0.14214584206E+04  0.50000000000E+03 0.  1.
    -200001    1    1    2    0    0  0.14574366714E+03  0.36322573329E+02  0.56249677676E+03  0.91047414555E+03  0.70000000000E+03 0. -1.
<mgrwt>
<rscale>  0 0.15960718E+04</rscale>
<asrwt>0</asrwt>
<pdfrwt beam="1">  1        4 0.37687605E+00 0.15960718E+04</pdfrwt>
<pdfrwt beam="2">  1       -4 0.34486587E-01 0.15960718E+04</pdfrwt>
<totfact> 0.15721483E-01</totfact>
</mgrwt>
</event>
<event>
 8    1  0.5217667E-029  0.2350231E+04  0.7818608E-02  0.8458375E-01
         -4   -1    0    0    0  501 -0.00000000000E+00  0.00000000000E+00  0.11785913080E+04  0.11785919923E+04  0.12700000000E+01 0. -1.
          4   -1    0    0  501    0  0.00000000000E+00 -0.00000000000E+00 -0.11716484042E+04  0.11716490925E+04  0.12700000000E+01 0.  1.
     200001    2    1    2    0    0  0.13964994151E+02 -0.17073737625E+03 -0.92489977005E+03  0.11722440382E+04  0.69955001810E+03 0.  0.
    5000001    2    3    3    0    0 -0.23528341158E+02 -0.77621341003E+02 -0.34477761554E+03  0.39983348654E+03  0.18551700021E+03 0.  0.
        -13    1    4    4    0    0  0.56418133938E+02  0.63842449749E+01 -0.32618525082E+02  0.65480865629E+02  0.10566000000E+00 0. -1.
     200003    1    4    4    0    0 -0.79946475097E+02 -0.84005585978E+02 -0.31215909045E+03  0.33435262091E+03  0.30000000000E+02 0. -1.
     200000    1    3    3    0    0  0.37493335309E+02 -0.93116035246E+02 -0.58012215451E+03  0.77241055170E+03  0.50000000000E+03 0.  1.
    -200001    1    1    2    0    0 -0.13964994151E+02  0.17073737625E+03  0.93184267392E+03  0.11779970465E+04  0.70000000000E+03 0. -1.
<mgrwt>
<rscale>  0 0.23502308E+04</rscale>
<asrwt>0</asrwt>
<pdfrwt beam="1">  1        4 0.16737844E+00 0.23502308E+04</pdfrwt>
<pdfrwt beam="2">  1       -4 0.16837029E+00 0.23502308E+04</pdfrwt>
<totfact> 0.87395002E-02</totfact>
</mgrwt>
</event>
<event>
 8    1  0.5217667E-029  0.1666977E+04  0.7818608E-02  0.8780426E-01
          4   -1    0    0  501    0  0.00000000000E+00  0.00000000000E+00  0.36945470492E+03  0.36945688772E+03  0.12700000000E+01 0.  1.
         -4   -1    0    0    0  501 -0.00000000000E+00 -0.00000000000E+00 -0.18803396159E+04  0.18803400448E+04  0.12700000000E+01 0. -1.
     200001    2    1    2    0    0  0.18466799160E+02 -0.43449835499E+03 -0.59167780244E+03  0.10152640040E+04  0.70110522233E+03 0.  0.
    5000001    2    3    3    0    0 -0.61486074570E+02 -0.15389822009E+03 -0.26845333929E+03  0.35223840020E+03  0.15665087197E+03 0.  0.
        -13    1    4    4    0    0 -0.76131684950E+02 -0.55011280167E+02 -0.21576569153E+03  0.23532343530E+03  0.10566000000E+00 0. -1.
     200003    1    4    4    0    0  0.14645610380E+02 -0.98886939918E+02 -0.52687647759E+02  0.11691496489E+03  0.30000000000E+02 0. -1.
     200000    1    3    3    0    0  0.79952873730E+02 -0.28060013491E+03 -0.32322446315E+03  0.66302560381E+03  0.50000000000E+03 0. -1.
    -200001    1    1    2    0    0 -0.18466799160E+02  0.43449835499E+03 -0.91920710855E+03  0.12345329285E+04  0.70000000000E+03 0.  1.
<mgrwt>
<rscale>  0 0.16669772E+04</rscale>
<asrwt>0</asrwt>
<pdfrwt beam="1">  1        4 0.52779431E-01 0.16669772E+04</pdfrwt>
<pdfrwt beam="2">  1       -4 0.26862013E+00 0.16669772E+04</pdfrwt>
<totfact> 0.32088414E-01</totfact>
</mgrwt>
</event>
<event>
 8    1  0.5217667E-029  0.1728152E+04  0.7818608E-02  0.8745469E-01
          4   -1    0    0  501    0  0.00000000000E+00  0.00000000000E+00  0.62902848170E+03  0.62902976376E+03  0.12700000000E+01 0.  1.
         -4   -1    0    0    0  501 -0.00000000000E+00 -0.00000000000E+00 -0.11869496352E+04  0.11869503147E+04  0.12700000000E+01 0. -1.
     200001    2    1    2    0    0 -0.17056206149E+03  0.36111954297E+03 -0.60637724930E+03  0.10086098199E+04  0.70007260997E+03 0.  0.
    5000001    2    3    3    0    0 -0.98398727578E+02  0.11569798300E+03 -0.18124342446E+03  0.30421074419E+03  0.19138094239E+03 0.  0.
        -13    1    4    4    0    0  0.71762092059E+01  0.13135821688E+03 -0.11712567188E+03  0.17613890342E+03  0.10566000000E+00 0. -1.
     200003    1    4    4    0    0 -0.10557493678E+03 -0.15660233882E+02 -0.64117752589E+02  0.12807184077E+03  0.30000000000E+02 0. -1.
     200000    1    3    3    0    0 -0.72163333910E+02  0.24542155997E+03 -0.42513382484E+03  0.70439907572E+03  0.50000000000E+03 0. -1.
    -200001    1    1    2    0    0  0.17056206149E+03 -0.36111954297E+03  0.48456095757E+02  0.80737025852E+03  0.70000000000E+03 0.  1.
<mgrwt>
<rscale>  0 0.17281515E+04</rscale>
<asrwt>0</asrwt>
<pdfrwt beam="1">  1        4 0.89861352E-01 0.17281515E+04</pdfrwt>
<pdfrwt beam="2">  1       -4 0.16956437E+00 0.17281515E+04</pdfrwt>
<totfact> 0.43274615E-01</totfact>
</mgrwt>
</event>
<event>
 8    1  0.5217667E-029  0.1670264E+04  0.7818608E-02  0.8778508E-01
         -4   -1    0    0    0  501 -0.00000000000E+00  0.00000000000E+00  0.23229257654E+04  0.23229261126E+04  0.12700000000E+01 0. -1.
          4   -1    0    0  501    0  0.00000000000E+00 -0.00000000000E+00 -0.30024269336E+03  0.30024537934E+03  0.12700000000E+01 0.  1.
     200001    2    1    2    0    0 -0.39866370787E+03 -0.47229653945E+02  0.13436655636E+04  0.15685492045E+04  0.70267066839E+03 0.  0.
    5000001    2    3    3    0    0 -0.13937177960E+03  0.60046589469E+02  0.40228806410E+03  0.46630962399E+03  0.18049624110E+03 0.  0.
        -13    1    4    4    0    0  0.50953516793E+01  0.60694487478E+02  0.23719117364E+03  0.24488660117E+03  0.10566000000E+00 0. -1.
     200003    1    4    4    0    0 -0.14446713128E+03 -0.64789800861E+00  0.16509689046E+03  0.22142302282E+03  0.30000000000E+02 0. -1.
     200000    1    3    3    0    0 -0.25929192826E+03 -0.10727624341E+03  0.94137749946E+03  0.11022395806E+04  0.50000000000E+03 0.  1.
    -200001    1    1    2    0    0  0.39866370787E+03  0.47229653945E+02  0.67901750851E+03  0.10546222874E+04  0.70000000000E+03 0.  1.
<mgrwt>
<rscale>  0 0.16702640E+04</rscale>
<asrwt>0</asrwt>
<pdfrwt beam="1">  1        4 0.42892031E-01 0.16702640E+04</pdfrwt>
<pdfrwt beam="2">  1       -4 0.33184675E+00 0.16702640E+04</pdfrwt>
<totfact> 0.19872649E-01</totfact>
</mgrwt>
</event>
<event>
 8    1  0.5217667E-029  0.1542214E+04  0.7818608E-02  0.8856856E-01
         -4   -1    0    0    0  501 -0.00000000000E+00  0.00000000000E+00  0.64175573362E+03  0.64175699025E+03  0.12700000000E+01 0. -1.
          4   -1    0    0  501    0  0.00000000000E+00 -0.00000000000E+00 -0.92652755410E+03  0.92652842450E+03  0.12700000000E+01 0.  1.
     200001    2    1    2    0    0  0.11484523204E+03 -0.41093644442E+02  0.16194990507E+03  0.72897711917E+03  0.70021550510E+03 0.  0.
    5000001    2    3    3    0    0  0.12864338700E+03  0.70438719111E+02  0.11508196229E+02  0.19487734857E+03  0.12780457048E+03 0.  0.
        -13    1    4    4    0    0 -0.11930498961E+02  0.46811631963E+02 -0.35180762935E+01  0.48436078674E+02  0.10566000000E+00 0. -1.
     200003    1    4    4    0    0  0.14057388597E+03  0.23627087149E+02  0.15026272522E+02  0.14644126990E+03  0.30000000000E+02 0. -1.
     200000    1    3    3    0    0 -0.13798154961E+02 -0.11153236355E+03  0.15044170884E+03  0.53409977060E+03  0.50000000000E+03 0. -1.
    -200001    1    1    2    0    0 -0.11484523204E+03  0.41093644442E+02 -0.44672172555E+03  0.83930829557E+03  0.70000000000E+03 0.  1.
<mgrwt>
<rscale>  0 0.15422140E+04</rscale>
<asrwt>0</asrwt>
<pdfrwt beam="1">  1        4 0.13236123E+00 0.15422140E+04</pdfrwt>
<pdfrwt beam="2">  1       -4 0.91679543E-01 0.15422140E+04</pdfrwt>
<totfact> 0.81168092E-01</totfact>
</mgrwt>
</event>
<event>
 8    1  0.5217667E-029  0.1772240E+04  0.7818608E-02  0.8721203E-01
         -4   -1    0    0    0  501 -0.00000000000E+00  0.00000000000E+00  0.10809896604E+04  0.10809904064E+04  0.12700000000E+01 0. -1.
          4   -1    0    0  501    0  0.00000000000E+00 -0.00000000000E+00 -0.72637749977E+03  0.72637861001E+03  0.12700000000E+01 0.  1.
     200001    2    1    2    0    0 -0.27748782870E+03 -0.29911292361E+03  0.54313920250E+03  0.97549734264E+03  0.70009059132E+03 0.  0.
    5000001    2    3    3    0    0  0.30961146891E+02 -0.73601969411E+02  0.53406818445E+02  0.17810548853E+03  0.14997811264E+03 0.  0.
        -13    1    4    4    0    0 -0.26920670423E+02 -0.88530450342E+02  0.26400768031E-01  0.92533102157E+02  0.10566000000E+00 0. -1.
     200003    1    4    4    0    0  0.57881817314E+02  0.14928480931E+02  0.53380417677E+02  0.85572386375E+02  0.30000000000E+02 0. -1.
     200000    1    3    3    0    0 -0.30844897559E+03 -0.22551095420E+03  0.48973238405E+03  0.79739185411E+03  0.50000000000E+03 0. -1.
    -200001    1    1    2    0    0  0.27748782870E+03  0.29911292361E+03 -0.18852704187E+03  0.83187167380E+03  0.70000000000E+03 0.  1.
<mgrwt>
<rscale>  0 0.17722395E+04</rscale>
<asrwt>0</asrwt>
<pdfrwt beam="1">  1        4 0.10376835E+00 0.17722395E+04</pdfrwt>
<pdfrwt beam="2">  1       -4 0.15442722E+00 0.17722395E+04</pdfrwt>
<totfact> 0.39693388E-01</totfact>
</mgrwt>
</event>
<event>
 8    1  0.5217667E-029  0.1540523E+04  0.7818608E-02  0.8857944E-01
         -4   -1    0    0    0  501 -0.00000000000E+00  0.00000000000E+00  0.16279645660E+04  0.16279650614E+04  0.12700000000E+01 0. -1.
          4   -1    0    0  501    0  0.00000000000E+00 -0.00000000000E+00 -0.36444285682E+03  0.36444506964E+03  0.12700000000E+01 0.  1.
     200001    2    1    2    0    0 -0.13066075096E+03  0.27605105312E+03  0.75685338789E+03  0.10759008820E+04  0.70104154037E+03 0.  0.
    5000001    2    3    3    0    0 -0.10261551197E+03  0.16336953686E+03  0.31783497316E+03  0.40045967210E+03  0.14875930204E+03 0.  0.
        -13    1    4    4    0    0 -0.36621051284E+02 -0.15670119468E+02  0.17811175500E+02  0.43633738987E+02  0.10566000000E+00 0. -1.
     200003    1    4    4    0    0 -0.65994460690E+02  0.17903965633E+03  0.30002379766E+03  0.35682593311E+03  0.30000000000E+02 0. -1.
     200000    1    3    3    0    0 -0.28045238990E+02  0.11268151626E+03  0.43901841473E+03  0.67544120988E+03  0.50000000000E+03 0.  1.
    -200001    1    1    2    0    0  0.13066075096E+03 -0.27605105312E+03  0.50666832130E+03  0.91650924904E+03  0.70000000000E+03 0.  1.
<mgrwt>
<rscale>  0 0.15405230E+04</rscale>
<asrwt>0</asrwt>
<pdfrwt beam="1">  1        4 0.52063458E-01 0.15405230E+04</pdfrwt>
<pdfrwt beam="2">  1       -4 0.23256656E+00 0.15405230E+04</pdfrwt>
<totfact> 0.55843584E-01</totfact>
</mgrwt>
</event>
<event>
 8    1  0.5217667E-029  0.1521166E+04  0.7818608E-02  0.8870498E-01
          4   -1    0    0  501    0  0.00000000000E+00  0.00000000000E+00  0.84277651832E+03  0.84277747522E+03  0.12700000000E+01 0.  1.
         -4   -1    0    0    0  501 -0.00000000000E+00 -0.00000000000E+00 -0.68640374759E+03  0.68640492248E+03  0.12700000000E+01 0. -1.
     200001    2    1    2    0    0 -0.29393341055E+03 -0.32797334807E+02  0.68916432841E+02  0.76425029219E+03  0.70132483158E+03 0.  0.
    5000001    2    3    3    0    0 -0.87041855015E+02  0.60933984774E+02  0.39419569825E+02  0.21428689254E+03  0.18186735498E+03 0.  0.
        -13    1    4    4    0    0  0.48893395979E+02  0.20717592377E+02 -0.21254504343E+02  0.57197446824E+02  0.10566000000E+00 0. -1.
     200003    1    4    4    0    0 -0.13593525099E+03  0.40216392397E+02  0.60674074168E+02  0.15708944572E+03  0.30000000000E+02 0. -1.
     200000    1    3    3    0    0 -0.20689155554E+03 -0.93731319582E+02  0.29496863016E+02  0.54996339965E+03  0.50000000000E+03 0. -1.
    -200001    1    1    2    0    0  0.29393341055E+03  0.32797334807E+02  0.87456337888E+02  0.76493210551E+03  0.70000000000E+03 0.  1.
<mgrwt>
<rscale>  0 0.15211661E+04</rscale>
<asrwt>0</asrwt>
<pdfrwt beam="1">  1        4 0.12039680E+00 0.15211661E+04</pdfrwt>
<pdfrwt beam="2">  1       -4 0.98057830E-01 0.15211661E+04</pdfrwt>
<totfact> 0.88177795E-01</totfact>
</mgrwt>
</event>
<event>
 8    1  0.5217667E-029  0.1443313E+04  0.7818608E-02  0.8923050E-01
          4   -1    0    0  501    0  0.00000000000E+00  0.00000000000E+00  0.76685662471E+03  0.76685767634E+03  0.12700000000E+01 0.  1.
         -4   -1    0    0    0  501 -0.00000000000E+00 -0.00000000000E+00 -0.67911849732E+03  0.67911968481E+03  0.12700000000E+01 0. -1.
     200001    2    1    2    0    0  0.64997193147E+02  0.16815856057E+03  0.47943132256E+02  0.72203980980E+03  0.69752491454E+03 0.  0.
    5000001    2    3    3    0    0  0.23932219595E+02  0.42795664502E+02  0.12750376007E+03  0.19884569548E+03  0.14449284323E+03 0.  0.
        -13    1    4    4    0    0 -0.60717085875E+01 -0.57917927006E+01 -0.28670916015E+02  0.29873786118E+02  0.10566000000E+00 0. -1.
     200003    1    4    4    0    0  0.30003928182E+02  0.48587457202E+02  0.15617467609E+03  0.16897190936E+03  0.30000000000E+02 0. -1.
     200000    1    3    3    0    0  0.41064973552E+02  0.12536289607E+03 -0.79560627816E+02  0.52319411432E+03  0.50000000000E+03 0. -1.
    -200001    1    1    2    0    0 -0.64997193147E+02 -0.16815856057E+03  0.39794995131E+02  0.72393755134E+03  0.70000000000E+03 0. -1.
<mgrwt>
<rscale>  0 0.14433130E+04</rscale>
<asrwt>0</asrwt>
<pdfrwt beam="1">  1        4 0.10955111E+00 0.14433130E+04</pdfrwt>
<pdfrwt beam="2">  1       -4 0.97017088E-01 0.14433130E+04</pdfrwt>
<totfact> 0.11464874E+00</totfact>
</mgrwt>
</event>
<event>
 8    1  0.5217667E-029  0.1606516E+04  0.7818608E-02  0.8816555E-01
         -4   -1    0    0    0  501 -0.00000000000E+00  0.00000000000E+00  0.13766476936E+04  0.13766482794E+04  0.12700000000E+01 0. -1.
          4   -1    0    0  501    0  0.00000000000E+00 -0.00000000000E+00 -0.46869010756E+03  0.46869182821E+03  0.12700000000E+01 0.  1.
     200001    2    1    2    0    0 -0.26972057564E+03 -0.15228744706E+03  0.73455238323E+03  0.10604770496E+04  0.69935950234E+03 0.  0.
    5000001    2    3    3    0    0 -0.17746722799E+03 -0.11748949282E+03  0.19728980292E+03  0.31995516740E+03  0.13472061787E+03 0.  0.
        -13    1    4    4    0    0 -0.86494546639E+02 -0.35187793104E+01  0.20749302520E+02  0.89018161772E+02  0.10566000000E+00 0. -1.
     200003    1    4    4    0    0 -0.90972681349E+02 -0.11397071351E+03  0.17654050039E+03  0.23093700563E+03  0.30000000000E+02 0. -1.
     200000    1    3    3    0    0 -0.92253347654E+02 -0.34797954241E+02  0.53726258032E+03  0.74052188218E+03  0.50000000000E+03 0. -1.
    -200001    1    1    2    0    0  0.26972057564E+03  0.15228744706E+03  0.17340520276E+03  0.78486305799E+03  0.70000000000E+03 0.  1.
<mgrwt>
<rscale>  0 0.16065158E+04</rscale>
<asrwt>0</asrwt>
<pdfrwt beam="1">  1        4 0.66955893E-01 0.16065158E+04</pdfrwt>
<pdfrwt beam="2">  1       -4 0.19666412E+00 0.16065158E+04</pdfrwt>
<totfact> 0.55165811E-01</totfact>
</mgrwt>
</event>
<event>
 8    1  0.5217667E-029  0.2733502E+04  0.7818608E-02  0.8324216E-01
          4   -1    0    0  501    0  0.00000000000E+00  0.00000000000E+00  0.11826758655E+04  0.11826765474E+04  0.12700000000E+01 0.  1.
         -4   -1    0    0    0  501 -0.00000000000E+00 -0.00000000000E+00 -0.15794741723E+04  0.15794746829E+04  0.12700000000E+01 0. -1.
     200001    2    1    2    0    0 -0.55685129926E+03  0.86939689809E+03 -0.76319313326E+03  0.14620821919E+04  0.69948998650E+03 0.  0.
    5000001    2    3    3    0    0 -0.24701503577E+03  0.26361343535E+03 -0.31695631270E+03  0.50704323249E+03  0.16162631053E+03 0.  0.
        -13    1    4    4    0    0 -0.19714084742E+03  0.27267946044E+03 -0.26156503710E+03  0.42618644003E+03  0.10566000000E+00 0. -1.
     200003    1    4    4    0    0 -0.49874188350E+02 -0.90660250855E+01 -0.55391275595E+02  0.80856792457E+02  0.30000000000E+02 0. -1.
     200000    1    3    3    0    0 -0.30983626348E+03  0.60578346274E+03 -0.44623682056E+03  0.95503895937E+03  0.50000000000E+03 0. -1.
    -200001    1    1    2    0    0  0.55685129926E+03 -0.86939689809E+03  0.36639482649E+03  0.13000690385E+04  0.70000000000E+03 0. -1.
<mgrwt>
<rscale>  0 0.27335015E+04</rscale>
<asrwt>0</asrwt>
<pdfrwt beam="1">  1        4 0.16895378E+00 0.27335015E+04</pdfrwt>
<pdfrwt beam="2">  1       -4 0.22563925E+00 0.27335015E+04</pdfrwt>
<totfact> 0.34038376E-02</totfact>
</mgrwt>
</event>
<event>
 8    1  0.5217667E-029  0.1550673E+04  0.7818608E-02  0.8851438E-01
          4   -1    0    0  501    0  0.00000000000E+00  0.00000000000E+00  0.14295684455E+04  0.14295690096E+04  0.12700000000E+01 0.  1.
         -4   -1    0    0    0  501 -0.00000000000E+00 -0.00000000000E+00 -0.42050780584E+03  0.42050972363E+03  0.12700000000E+01 0. -1.
     200001    2    1    2    0    0  0.14246463404E+03 -0.30024963068E+03  0.53336836481E+03  0.94083225783E+03  0.70016963096E+03 0.  0.
    5000001    2    3    3    0    0  0.10096385647E+03 -0.14492983173E+03  0.14047530526E+03  0.28492714981E+03  0.17393048287E+03 0.  0.
        -13    1    4    4    0    0 -0.28301520673E+02 -0.10451260297E+03  0.73647685537E+02  0.13094981100E+03  0.10566000000E+00 0. -1.
     200003    1    4    4    0    0  0.12926537714E+03 -0.40417228758E+02  0.66827619721E+02  0.15397733880E+03  0.30000000000E+02 0. -1.
     200000    1    3    3    0    0  0.41500777576E+02 -0.15531979895E+03  0.39289305955E+03  0.65590510802E+03  0.50000000000E+03 0.  1.
    -200001    1    1    2    0    0 -0.14246463404E+03  0.30024963068E+03  0.47569227481E+03  0.90924647538E+03  0.70000000000E+03 0. -1.
<mgrwt>
<rscale>  0 0.15506734E+04</rscale>
<asrwt>0</asrwt>
<pdfrwt beam="1">  1        4 0.20422424E+00 0.15506734E+04</pdfrwt>
<pdfrwt beam="2">  1       -4 0.60072721E-01 0.15506734E+04</pdfrwt>
<totfact> 0.62503656E-01</totfact>
</mgrwt>
</event>
<event>
 8    1  0.5217667E-029  0.2006640E+04  0.7818608E-02  0.8603522E-01
          4   -1    0    0  501    0  0.00000000000E+00  0.00000000000E+00  0.65605506646E+03  0.65605629571E+03  0.12700000000E+01 0.  1.
         -4   -1    0    0    0  501 -0.00000000000E+00 -0.00000000000E+00 -0.15343979771E+04  0.15343985027E+04  0.12700000000E+01 0. -1.
     200001    2    1    2    0    0  0.45802078148E+03  0.45163570100E+03 -0.78982236717E+03  0.12356806213E+04  0.69952082420E+03 0.  0.
    5000001    2    3    3    0    0  0.66643398515E+02  0.14972425677E+03 -0.16263004456E+03  0.29350389393E+03  0.18121067498E+03 0.  0.
        -13    1    4    4    0    0  0.83343250901E+02  0.55239708227E+01 -0.10569348310E+03  0.13471353035E+03  0.10566000000E+00 0. -1.
     200003    1    4    4    0    0 -0.16699852386E+02  0.14420028594E+03 -0.56936561461E+02  0.15879036358E+03  0.30000000000E+02 0.  1.
     200000    1    3    3    0    0  0.39137738297E+03  0.30191144424E+03 -0.62719232261E+03  0.94217672737E+03  0.50000000000E+03 0. -1.
    -200001    1    1    2    0    0 -0.45802078148E+03 -0.45163570100E+03 -0.88520543512E+02  0.95477417713E+03  0.70000000000E+03 0.  1.
<mgrwt>
<rscale>  0 0.20066405E+04</rscale>
<asrwt>0</asrwt>
<pdfrwt beam="1">  1        4 0.93722278E-01 0.20066405E+04</pdfrwt>
<pdfrwt beam="2">  1       -4 0.21919984E+00 0.20066405E+04</pdfrwt>
<totfact> 0.17786460E-01</totfact>
</mgrwt>
</event>
<event>
 8    1  0.5217667E-029  0.2134330E+04  0.7818608E-02  0.8546270E-01
         -4   -1    0    0    0  501 -0.00000000000E+00  0.00000000000E+00  0.15853273776E+04  0.15853278863E+04  0.12700000000E+01 0. -1.
          4   -1    0    0  501    0  0.00000000000E+00 -0.00000000000E+00 -0.71836237300E+03  0.71836349562E+03  0.12700000000E+01 0.  1.
     200001    2    1    2    0    0 -0.65013069399E+03 -0.14483580692E+02  0.94612612587E+03  0.13449702668E+04  0.70065018317E+03 0.  0.
    5000001    2    3    3    0    0 -0.25098258532E+03 -0.27344646005E+02  0.23624087205E+03  0.38923929355E+03  0.17876658026E+03 0.  0.
        -13    1    4    4    0    0 -0.21688762086E+03  0.27306483989E+02  0.23092713548E+03  0.31798307693E+03  0.10566000000E+00 0. -1.
     200003    1    4    4    0    0 -0.34094964460E+02 -0.54651129994E+02  0.53137365749E+01  0.71256216624E+02  0.30000000000E+02 0. -1.
     200000    1    3    3    0    0 -0.39914810867E+03  0.12861065313E+02  0.70988525381E+03  0.95573097326E+03  0.50000000000E+03 0.  1.
    -200001    1    1    2    0    0  0.65013069399E+03  0.14483580692E+02 -0.79161121300E+02  0.95872111508E+03  0.70000000000E+03 0.  1.
<mgrwt>
<rscale>  0 0.21343303E+04</rscale>
<asrwt>0</asrwt>
<pdfrwt beam="1">  1        4 0.10262331E+00 0.21343303E+04</pdfrwt>
<pdfrwt beam="2">  1       -4 0.22647546E+00 0.21343303E+04</pdfrwt>
<totfact> 0.12754737E-01</totfact>
</mgrwt>
</event>
<event>
 8    1  0.5217667E-029  0.1483826E+04  0.7818608E-02  0.8895281E-01
          4   -1    0    0  501    0  0.00000000000E+00  0.00000000000E+00  0.90873817618E+03  0.90873906362E+03  0.12700000000E+01 0.  1.
         -4   -1    0    0    0  501 -0.00000000000E+00 -0.00000000000E+00 -0.60571119684E+03  0.60571252825E+03  0.12700000000E+01 0. -1.
     200001    2    1    2    0    0  0.12744685383E+03  0.19054369223E+02 -0.62880095169E+02  0.71414305343E+03  0.69960033223E+03 0.  0.
    5000001    2    3    3    0    0  0.51641708864E+02  0.70358836332E+02 -0.54547093536E+02  0.20576523402E+03  0.17817607632E+03 0.  0.
        -13    1    4    4    0    0  0.75464563517E+02  0.10951951031E+03 -0.67969130151E+02  0.14936277080E+03  0.10566000000E+00 0. -1.
     200003    1    4    4    0    0 -0.23822854654E+02 -0.39160673974E+02  0.13422036615E+02  0.56402463216E+02  0.30000000000E+02 0. -1.
     200000    1    3    3    0    0  0.75805144966E+02 -0.51304467109E+02 -0.83330016330E+01  0.50837781941E+03  0.50000000000E+03 0. -1.
    -200001    1    1    2    0    0 -0.12744685383E+03 -0.19054369223E+02  0.36590707450E+03  0.80030853845E+03  0.70000000000E+03 0.  1.
<mgrwt>
<rscale>  0 0.14838256E+04</rscale>
<asrwt>0</asrwt>
<pdfrwt beam="1">  1        4 0.12981990E+00 0.14838256E+04</pdfrwt>
<pdfrwt beam="2">  1       -4 0.86530330E-01 0.14838256E+04</pdfrwt>
<totfact> 0.97910547E-01</totfact>
</mgrwt>
</event>
<event>
 8    1  0.5217667E-029  0.1717273E+04  0.7818608E-02  0.8751574E-01
          4   -1    0    0  501    0  0.00000000000E+00  0.00000000000E+00  0.57562493343E+03  0.57562633443E+03  0.12700000000E+01 0.  1.
         -4   -1    0    0    0  501 -0.00000000000E+00 -0.00000000000E+00 -0.12807898560E+04  0.12807904857E+04  0.12700000000E+01 0. -1.
     200001    2    1    2    0    0 -0.13858126423E+03 -0.19962368371E+03  0.11609309778E+03  0.75028883568E+03  0.70028661825E+03 0.  0.
    5000001    2    3    3    0    0 -0.99889154619E+02 -0.23116508177E+02  0.81961105192E+02  0.21754419208E+03  0.17348094012E+03 0.  0.
        -13    1    4    4    0    0 -0.51571949620E+02  0.73180202738E+02  0.32278648035E+02  0.95167906058E+02  0.10566000000E+00 0. -1.
     200003    1    4    4    0    0 -0.48317204998E+02 -0.96296710915E+02  0.49682457158E+02  0.12237628602E+03  0.30000000000E+02 0. -1.
     200000    1    3    3    0    0 -0.38692109614E+02 -0.17650717553E+03  0.34131992592E+02  0.53274464359E+03  0.50000000000E+03 0. -1.
    -200001    1    1    2    0    0  0.13858126423E+03  0.19962368371E+03 -0.82125802040E+03  0.11061279844E+04  0.70000000000E+03 0. -1.
<mgrwt>
<rscale>  0 0.17172728E+04</rscale>
<asrwt>0</asrwt>
<pdfrwt beam="1">  1        4 0.82232279E-01 0.17172728E+04</pdfrwt>
<pdfrwt beam="2">  1       -4 0.18297012E+00 0.17172728E+04</pdfrwt>
<totfact> 0.42762651E-01</totfact>
</mgrwt>
</event>
<event>
 8    1  0.5217667E-029  0.1615265E+04  0.7818608E-02  0.8811225E-01
         -4   -1    0    0    0  501 -0.00000000000E+00  0.00000000000E+00  0.95452901083E+03  0.95452985570E+03  0.12700000000E+01 0. -1.
          4   -1    0    0  501    0  0.00000000000E+00 -0.00000000000E+00 -0.68334057446E+03  0.68334175462E+03  0.12700000000E+01 0.  1.
     200001    2    1    2    0    0  0.30492648939E+03 -0.16675434369E+03  0.34149260369E+03  0.85318705522E+03  0.70037402703E+03 0.  0.
    5000001    2    3    3    0    0  0.10249134102E+03 -0.49508322268E+02 -0.31723466677E+02  0.18684115854E+03  0.14473317252E+03 0.  0.
        -13    1    4    4    0    0 -0.47935535189E+01 -0.29698975469E+02 -0.62688002761E+02  0.69532755975E+02  0.10566000000E+00 0. -1.
     200003    1    4    4    0    0  0.10728489454E+03 -0.19809346798E+02  0.30964536084E+02  0.11730840256E+03  0.30000000000E+02 0. -1.
     200000    1    3    3    0    0  0.20243514837E+03 -0.11724602142E+03  0.37321607037E+03  0.66634589668E+03  0.50000000000E+03 0. -1.
    -200001    1    1    2    0    0 -0.30492648939E+03  0.16675434369E+03 -0.70304167330E+02  0.78468455510E+03  0.70000000000E+03 0.  1.
<mgrwt>
<rscale>  0 0.16152648E+04</rscale>
<asrwt>0</asrwt>
<pdfrwt beam="1">  1        4 0.97620226E-01 0.16152648E+04</pdfrwt>
<pdfrwt beam="2">  1       -4 0.13636143E+00 0.16152648E+04</pdfrwt>
<totfact> 0.64543339E-01</totfact>
</mgrwt>
</event>
<event>
 8    1  0.5217667E-029  0.1724013E+04  0.7818608E-02  0.8747786E-01
          4   -1    0    0  501    0  0.00000000000E+00  0.00000000000E+00  0.96822127431E+03  0.96822210723E+03  0.12700000000E+01 0.  1.
         -4   -1    0    0    0  501 -0.00000000000E+00 -0.00000000000E+00 -0.76744179365E+03  0.76744284448E+03  0.12700000000E+01 0. -1.
     200001    2    1    2    0    0  0.31436671318E+03 -0.38420758479E+03  0.10972941732E+02  0.85676312512E+03  0.69819821580E+03 0.  0.
    5000001    2    3    3    0    0  0.79762178138E+02 -0.62975182871E+02  0.91308118063E+02  0.21280405463E+03  0.16315794349E+03 0.  0.
        -13    1    4    4    0    0  0.69012440129E+02 -0.10735963901E+03  0.93353736039E+02  0.15812571005E+03  0.10566000000E+00 0. -1.
     200003    1    4    4    0    0  0.10749738009E+02  0.44384456138E+02 -0.20456179761E+01  0.54678344588E+02  0.30000000000E+02 0. -1.
     200000    1    3    3    0    0  0.23460453504E+03 -0.32123240191E+03 -0.80335176331E+02  0.64395907048E+03  0.50000000000E+03 0.  1.
    -200001    1    1    2    0    0 -0.31436671318E+03  0.38420758479E+03  0.18980653893E+03  0.87890182659E+03  0.70000000000E+03 0. -1.
<mgrwt>
<rscale>  0 0.17240129E+04</rscale>
<asrwt>0</asrwt>
<pdfrwt beam="1">  1        4 0.13831746E+00 0.17240129E+04</pdfrwt>
<pdfrwt beam="2">  1       -4 0.10963468E+00 0.17240129E+04</pdfrwt>
<totfact> 0.46672146E-01</totfact>
</mgrwt>
</event>
<event>
 8    1  0.5217667E-029  0.2130234E+04  0.7818608E-02  0.8548041E-01
          4   -1    0    0  501    0  0.00000000000E+00  0.00000000000E+00  0.51082682606E+03  0.51082840477E+03  0.12700000000E+01 0.  1.
         -4   -1    0    0    0  501 -0.00000000000E+00 -0.00000000000E+00 -0.22208538647E+04  0.22208542278E+04  0.12700000000E+01 0. -1.
     200001    2    1    2    0    0 -0.80445085079E+02 -0.79854618167E+03 -0.82863305333E+03  0.13492923934E+04  0.69986413677E+03 0.  0.
    5000001    2    3    3    0    0 -0.89869453935E+01 -0.90276966095E+02 -0.14255870000E+03  0.24138916402E+03  0.17238053766E+03 0.  0.
        -13    1    4    4    0    0  0.60400760646E+02  0.34930514141E+01 -0.83789489177E+01  0.61079221047E+02  0.10566000000E+00 0. -1.
     200003    1    4    4    0    0 -0.69387706039E+02 -0.93770017509E+02 -0.13417975108E+03  0.18030994297E+03  0.30000000000E+02 0. -1.
     200000    1    3    3    0    0 -0.71458139685E+02 -0.70826921558E+03 -0.68607435333E+03  0.11079032294E+04  0.50000000000E+03 0. -1.
    -200001    1    1    2    0    0  0.80445085079E+02  0.79854618167E+03 -0.88139398532E+03  0.13823902392E+04  0.70000000000E+03 0. -1.
<mgrwt>
<rscale>  0 0.21302341E+04</rscale>
<asrwt>0</asrwt>
<pdfrwt beam="1">  1        4 0.72975401E-01 0.21302341E+04</pdfrwt>
<pdfrwt beam="2">  1       -4 0.31726497E+00 0.21302341E+04</pdfrwt>
<totfact> 0.76174280E-02</totfact>
</mgrwt>
</event>
<event>
 8    1  0.5217667E-029  0.1908742E+04  0.7818608E-02  0.8650517E-01
         -4   -1    0    0    0  501 -0.00000000000E+00  0.00000000000E+00  0.85066661400E+03  0.85066756202E+03  0.12700000000E+01 0. -1.
          4   -1    0    0  501    0  0.00000000000E+00 -0.00000000000E+00 -0.10707157448E+04  0.10707164979E+04  0.12700000000E+01 0.  1.
     200001    2    1    2    0    0  0.17754379251E+02 -0.63774865302E+03  0.55606696851E+01  0.94776280687E+03  0.70084581374E+03 0.  0.
    5000001    2    3    3    0    0 -0.71033305272E+00 -0.22027673004E+03  0.18383202561E+01  0.29612056763E+03  0.19789307412E+03 0.  0.
        -13    1    4    4    0    0  0.42983404838E+02 -0.55784385259E+02 -0.78568546982E+02  0.10551065571E+03  0.10566000000E+00 0. -1.
     200003    1    4    4    0    0 -0.43693737890E+02 -0.16449234478E+03  0.80406867238E+02  0.19060991192E+03  0.30000000000E+02 0. -1.
     200000    1    3    3    0    0  0.18464712304E+02 -0.41747192298E+03  0.37223494290E+01  0.65164223924E+03  0.50000000000E+03 0. -1.
    -200001    1    1    2    0    0 -0.17754379251E+02  0.63774865302E+03 -0.22560980044E+03  0.97362125309E+03  0.70000000000E+03 0.  1.
<mgrwt>
<rscale>  0 0.19087418E+04</rscale>
<asrwt>0</asrwt>
<pdfrwt beam="1">  1        4 0.15295951E+00 0.19087418E+04</pdfrwt>
<pdfrwt beam="2">  1       -4 0.12152392E+00 0.19087418E+04</pdfrwt>
<totfact> 0.27371229E-01</totfact>
</mgrwt>
</event>
<event>
 8    1  0.5217667E-029  0.1703682E+04  0.7818608E-02  0.8759267E-01
         -4   -1    0    0    0  501 -0.00000000000E+00  0.00000000000E+00  0.36833705810E+03  0.36833924753E+03  0.12700000000E+01 0. -1.
          4   -1    0    0  501    0  0.00000000000E+00 -0.00000000000E+00 -0.19700173548E+04  0.19700177642E+04  0.12700000000E+01 0.  1.
     200001    2    1    2    0    0  0.31021369325E+02  0.45987706775E+03 -0.10088648316E+04  0.13117707180E+04  0.70034628959E+03 0.  0.
    5000001    2    3    3    0    0  0.22092518959E+02  0.70334325278E+02 -0.10886032817E+03  0.21093858783E+03  0.16495308449E+03 0.  0.
        -13    1    4    4    0    0  0.28390149238E+02  0.95739049805E+02 -0.13151551955E+03  0.16513118808E+03  0.10566000000E+00 0. -1.
     200003    1    4    4    0    0 -0.62976302794E+01 -0.25404724528E+02  0.22655191383E+02  0.45807399752E+02  0.30000000000E+02 0. -1.
     200000    1    3    3    0    0  0.89288503658E+01  0.38954274247E+03 -0.90000450340E+03  0.11008321301E+04  0.50000000000E+03 0.  1.
    -200001    1    1    2    0    0 -0.31021369325E+02 -0.45987706775E+03 -0.59281546518E+03  0.10265862938E+04  0.70000000000E+03 0.  1.
<mgrwt>
<rscale>  0 0.17036824E+04</rscale>
<asrwt>0</asrwt>
<pdfrwt beam="1">  1        4 0.28143123E+00 0.17036824E+04</pdfrwt>
<pdfrwt beam="2">  1       -4 0.52619767E-01 0.17036824E+04</pdfrwt>
<totfact> 0.26835597E-01</totfact>
</mgrwt>
</event>
<event>
 8    1  0.5217667E-029  0.1570573E+04  0.7818608E-02  0.8838833E-01
         -4   -1    0    0    0  501 -0.00000000000E+00  0.00000000000E+00  0.19223569027E+04  0.19223573222E+04  0.12700000000E+01 0. -1.
          4   -1    0    0  501    0  0.00000000000E+00 -0.00000000000E+00 -0.32078926092E+03  0.32079177487E+03  0.12700000000E+01 0.  1.
     200001    2    1    2    0    0 -0.20330062243E+03  0.13915451632E+03  0.43247904103E+03  0.85842411395E+03  0.69939882471E+03 0.  0.
    5000001    2    3    3    0    0  0.81827445836E+02 -0.60268525859E+02  0.36777815303E+02  0.13203095244E+03  0.75838898998E+02 0.  0.
        -13    1    4    4    0    0 -0.15183654132E+01 -0.11316618228E+02  0.28244217958E+02  0.30465033953E+02  0.10566000000E+00 0. -1.
     200003    1    4    4    0    0  0.83345811249E+02 -0.48951907631E+02  0.85335973451E+01  0.10156591848E+03  0.30000000000E+02 0. -1.
     200000    1    3    3    0    0 -0.28512806826E+03  0.19942304218E+03  0.39570122572E+03  0.72639316152E+03  0.50000000000E+03 0.  1.
    -200001    1    1    2    0    0  0.20330062243E+03 -0.13915451632E+03  0.11690886007E+04  0.13847249831E+04  0.70000000000E+03 0. -1.
<mgrwt>
<rscale>  0 0.15705728E+04</rscale>
<asrwt>0</asrwt>
<pdfrwt beam="1">  1        4 0.45827248E-01 0.15705728E+04</pdfrwt>
<pdfrwt beam="2">  1       -4 0.27462262E+00 0.15705728E+04</pdfrwt>
<totfact> 0.39841410E-01</totfact>
</mgrwt>
</event>
<event>
 8    1  0.5217667E-029  0.1585358E+04  0.7818608E-02  0.8829594E-01
          4   -1    0    0  501    0  0.00000000000E+00  0.00000000000E+00  0.12273825225E+04  0.12273831795E+04  0.12700000000E+01 0.  1.
         -4   -1    0    0    0  501 -0.00000000000E+00 -0.00000000000E+00 -0.51193312293E+03  0.51193469823E+03  0.12700000000E+01 0. -1.
     200001    2    1    2    0    0  0.28127327424E+03  0.18668336777E+03  0.19764960384E+03  0.80546459001E+03  0.70408984176E+03 0.  0.
    5000001    2    3    3    0    0  0.28806434145E+02  0.31009594634E+02  0.14260022989E+03  0.22150888745E+03  0.16413395762E+03 0.  0.
        -13    1    4    4    0    0  0.77508331152E+02  0.42859404494E+02  0.13658110564E+03  0.16278476444E+03  0.10566000000E+00 0. -1.
     200003    1    4    4    0    0 -0.48701897007E+02 -0.11849809860E+02  0.60191242477E+01  0.58724123004E+02  0.30000000000E+02 0. -1.
     200000    1    3    3    0    0  0.25246684009E+03  0.15567377313E+03  0.55049373948E+02  0.58395570257E+03  0.50000000000E+03 0. -1.
    -200001    1    1    2    0    0 -0.28127327424E+03 -0.18668336777E+03  0.51779979572E+03  0.93385328776E+03  0.70000000000E+03 0. -1.
<mgrwt>
<rscale>  0 0.15853576E+04</rscale>
<asrwt>0</asrwt>
<pdfrwt beam="1">  1        4 0.17534052E+00 0.15853576E+04</pdfrwt>
<pdfrwt beam="2">  1       -4 0.73133463E-01 0.15853576E+04</pdfrwt>
<totfact> 0.63593402E-01</totfact>
</mgrwt>
</event>
<event>
 8    1  0.5217667E-029  0.1686193E+04  0.7818608E-02  0.8769278E-01
         -4   -1    0    0    0  501 -0.00000000000E+00  0.00000000000E+00  0.13323280489E+04  0.13323286542E+04  0.12700000000E+01 0. -1.
          4   -1    0    0  501    0  0.00000000000E+00 -0.00000000000E+00 -0.53350973273E+03  0.53351124432E+03  0.12700000000E+01 0.  1.
     200001    2    1    2    0    0  0.17559888528E+03 -0.39839955933E+03  0.20377297783E+03  0.84916092652E+03  0.69999548231E+03 0.  0.
    5000001    2    3    3    0    0  0.94788473697E+02 -0.97906198217E+02 -0.49469174972E+02  0.20810073384E+03  0.14929245713E+03 0.  0.
        -13    1    4    4    0    0  0.64030350691E+02 -0.11976933816E+03  0.43071973049E+01  0.13587914957E+03  0.10566000000E+00 0. -1.
     200003    1    4    4    0    0  0.30758123006E+02  0.21863139948E+02 -0.53776372277E+02  0.72221584270E+02  0.30000000000E+02 0. -1.
     200000    1    3    3    0    0  0.80810411579E+02 -0.30049336111E+03  0.25324215281E+03  0.64106019269E+03  0.50000000000E+03 0.  1.
    -200001    1    1    2    0    0 -0.17559888528E+03  0.39839955933E+03  0.59504533831E+03  0.10166789720E+04  0.70000000000E+03 0. -1.
<mgrwt>
<rscale>  0 0.16861933E+04</rscale>
<asrwt>0</asrwt>
<pdfrwt beam="1">  1        4 0.76215828E-01 0.16861933E+04</pdfrwt>
<pdfrwt beam="2">  1       -4 0.19033273E+00 0.16861933E+04</pdfrwt>
<totfact> 0.45354975E-01</totfact>
</mgrwt>
</event>
<event>
 8    1  0.5217667E-029  0.1508331E+04  0.7818608E-02  0.8878932E-01
         -4   -1    0    0    0  501 -0.00000000000E+00  0.00000000000E+00  0.41857022658E+03  0.41857215326E+03  0.12700000000E+01 0. -1.
          4   -1    0    0  501    0  0.00000000000E+00 -0.00000000000E+00 -0.13588243048E+04  0.13588248983E+04  0.12700000000E+01 0.  1.
     200001    2    1    2    0    0  0.22655546270E+03 -0.14042621176E+02 -0.27277362775E+03  0.78389077344E+03  0.69896689463E+03 0.  0.
    5000001    2    3    3    0    0  0.14574125211E+03 -0.10153444806E+02 -0.39463896442E+02  0.22623542015E+03  0.16817092852E+03 0.  0.
        -13    1    4    4    0    0  0.29201710717E+02 -0.78878818442E+02 -0.12057638289E+02  0.84970616761E+02  0.10566000000E+00 0. -1.
     200003    1    4    4    0    0  0.11653954140E+03  0.68725373636E+02 -0.27406258152E+02  0.14126480339E+03  0.30000000000E+02 0. -1.
     200000    1    3    3    0    0  0.80814210587E+02 -0.38891763701E+01 -0.23330973131E+03  0.55765535329E+03  0.50000000000E+03 0. -1.
    -200001    1    1    2    0    0 -0.22655546270E+03  0.14042621176E+02 -0.66748045045E+03  0.99350627810E+03  0.70000000000E+03 0.  1.
<mgrwt>
<rscale>  0 0.15083310E+04</rscale>
<asrwt>0</asrwt>
<pdfrwt beam="1">  1        4 0.19411794E+00 0.15083310E+04</pdfrwt>
<pdfrwt beam="2">  1       -4 0.59795927E-01 0.15083310E+04</pdfrwt>
<totfact> 0.73866751E-01</totfact>
</mgrwt>
</event>
<event>
 8    1  0.5217667E-029  0.1581651E+04  0.7818608E-02  0.8831900E-01
          4   -1    0    0  501    0  0.00000000000E+00  0.00000000000E+00  0.11329393263E+04  0.11329400381E+04  0.12700000000E+01 0.  1.
         -4   -1    0    0    0  501 -0.00000000000E+00 -0.00000000000E+00 -0.55201853990E+03  0.55202000081E+03  0.12700000000E+01 0. -1.
     200001    2    1    2    0    0 -0.28215360388E+03  0.23899067455E+02  0.35235184257E+02  0.75331922939E+03  0.69718471121E+03 0.  0.
    5000001    2    3    3    0    0 -0.72692150751E+02 -0.24247741241E+02 -0.43671545396E+02  0.20339333664E+03  0.18327450389E+03 0.  0.
        -13    1    4    4    0    0 -0.10981755760E+03 -0.28246174812E+02  0.28364890929E+02  0.11688592965E+03  0.10566000000E+00 0. -1.
     200003    1    4    4    0    0  0.37125406850E+02  0.39984335713E+01 -0.72036436325E+02  0.86507406985E+02  0.30000000000E+02 0. -1.
     200000    1    3    3    0    0 -0.20946145313E+03  0.48146808696E+02  0.78906729652E+02  0.54992589275E+03  0.50000000000E+03 0. -1.
    -200001    1    1    2    0    0  0.28215360388E+03 -0.23899067455E+02  0.54568560212E+03  0.93164080952E+03  0.70000000000E+03 0.  1.
<mgrwt>
<rscale>  0 0.15816515E+04</rscale>
<asrwt>0</asrwt>
<pdfrwt beam="1">  1        4 0.16184863E+00 0.15816515E+04</pdfrwt>
<pdfrwt beam="2">  1       -4 0.78859948E-01 0.15816515E+04</pdfrwt>
<totfact> 0.67161952E-01</totfact>
</mgrwt>
</event>
<event>
 8    1  0.5217667E-029  0.1426965E+04  0.7818608E-02  0.8934528E-01
         -4   -1    0    0    0  501 -0.00000000000E+00  0.00000000000E+00  0.72720779015E+03  0.72720889911E+03  0.12700000000E+01 0. -1.
          4   -1    0    0  501    0  0.00000000000E+00 -0.00000000000E+00 -0.70001375805E+03  0.70001491010E+03  0.12700000000E+01 0.  1.
     200001    2    1    2    0    0  0.10182579451E+03  0.92701248545E+02  0.18755811873E+02  0.71375817061E+03  0.70009780154E+03 0.  0.
    5000001    2    3    3    0    0  0.10086038140E+03  0.85312975965E+02  0.24470741928E+02  0.21366999936E+03  0.16614731720E+03 0.  0.
        -13    1    4    4    0    0 -0.26882426141E+02 -0.26483237973E+02  0.16257207798E+02  0.41089350179E+02  0.10566000000E+00 0. -1.
     200003    1    4    4    0    0  0.12774280754E+03  0.11179621394E+03  0.82135341302E+01  0.17258064918E+03  0.30000000000E+02 0. -1.
     200000    1    3    3    0    0  0.96541310683E+00  0.73882725809E+01 -0.57149300547E+01  0.50008817125E+03  0.50000000000E+03 0.  1.
    -200001    1    1    2    0    0 -0.10182579451E+03 -0.92701248545E+02  0.84382202223E+01  0.71346563860E+03  0.70000000000E+03 0. -1.
<mgrwt>
<rscale>  0 0.14269647E+04</rscale>
<asrwt>0</asrwt>
<pdfrwt beam="1">  1        4 0.10000213E+00 0.14269647E+04</pdfrwt>
<pdfrwt beam="2">  1       -4 0.10388699E+00 0.14269647E+04</pdfrwt>
<totfact> 0.12146760E+00</totfact>
</mgrwt>
</event>
<event>
 8    1  0.5217667E-029  0.1799069E+04  0.7818608E-02  0.8706795E-01
          4   -1    0    0  501    0  0.00000000000E+00  0.00000000000E+00  0.17043629481E+04  0.17043634213E+04  0.12700000000E+01 0.  1.
         -4   -1    0    0    0  501 -0.00000000000E+00 -0.00000000000E+00 -0.47475819980E+03  0.47475989845E+03  0.12700000000E+01 0. -1.
     200001    2    1    2    0    0 -0.29012508857E+03 -0.32427266068E+02  0.29618865015E+02  0.75954936438E+03  0.70058109107E+03 0.  0.
    5000001    2    3    3    0    0 -0.19155223883E+02 -0.10265761091E+03  0.89834309467E+02  0.18336981888E+03  0.12103214300E+03 0.  0.
        -13    1    4    4    0    0 -0.29970829766E+02  0.14227088583E+02  0.40999456253E+02  0.52741134454E+02  0.10566000000E+00 0. -1.
     200003    1    4    4    0    0  0.10815605883E+02 -0.11688469949E+03  0.48834853214E+02  0.13062868442E+03  0.30000000000E+02 0. -1.
     200000    1    3    3    0    0 -0.27096986469E+03  0.70230344837E+02 -0.60215444452E+02  0.57617954550E+03  0.50000000000E+03 0. -1.
    -200001    1    1    2    0    0  0.29012508857E+03  0.32427266068E+02  0.11999858833E+04  0.14195739553E+04  0.70000000000E+03 0.  1.
<mgrwt>
<rscale>  0 0.17990694E+04</rscale>
<asrwt>0</asrwt>
<pdfrwt beam="1">  1        4 0.24348058E+00 0.17990694E+04</pdfrwt>
<pdfrwt beam="2">  1       -4 0.67822754E-01 0.17990694E+04</pdfrwt>
<totfact> 0.26496310E-01</totfact>
</mgrwt>
</event>
<event>
 8    1  0.5217667E-029  0.1440783E+04  0.7818608E-02  0.8924816E-01
          4   -1    0    0  501    0  0.00000000000E+00  0.00000000000E+00  0.56510602652E+03  0.56510745360E+03  0.12700000000E+01 0.  1.
         -4   -1    0    0    0  501 -0.00000000000E+00 -0.00000000000E+00 -0.91834453227E+03  0.91834541043E+03  0.12700000000E+01 0. -1.
     200001    2    1    2    0    0 -0.20800553847E+02 -0.15236983421E+03 -0.24588782109E+03  0.75876437998E+03  0.70115143467E+03 0.  0.
    5000001    2    3    3    0    0 -0.12796962212E+03  0.26170525977E+02 -0.92649188778E+02  0.19587544969E+03  0.11279272580E+03 0.  0.
        -13    1    4    4    0    0 -0.68032958913E+02  0.60461305483E+02 -0.24335190797E+02  0.94213935457E+02  0.10566000000E+00 0. -1.
     200003    1    4    4    0    0 -0.59936663206E+02 -0.34290779506E+02 -0.68313997981E+02  0.10166151423E+03  0.30000000000E+02 0. -1.
     200000    1    3    3    0    0  0.10716906827E+03 -0.17854036019E+03 -0.15323863231E+03  0.56288893029E+03  0.50000000000E+03 0.  1.
    -200001    1    1    2    0    0  0.20800553847E+02  0.15236983421E+03 -0.10735068466E+03  0.72468848405E+03  0.70000000000E+03 0.  1.
<mgrwt>
<rscale>  0 0.14407828E+04</rscale>
<asrwt>0</asrwt>
<pdfrwt beam="1">  1        4 0.80729597E-01 0.14407828E+04</pdfrwt>
<pdfrwt beam="2">  1       -4 0.13119224E+00 0.14407828E+04</pdfrwt>
<totfact> 0.11205549E+00</totfact>
</mgrwt>
</event>
<event>
 8    1  0.5217667E-029  0.1840467E+04  0.7818608E-02  0.8685071E-01
         -4   -1    0    0    0  501 -0.00000000000E+00  0.00000000000E+00  0.12859253320E+04  0.12859259591E+04  0.12700000000E+01 0. -1.
          4   -1    0    0  501    0  0.00000000000E+00 -0.00000000000E+00 -0.65853588226E+03  0.65853710687E+03  0.12700000000E+01 0.  1.
     200001    2    1    2    0    0  0.24823942118E+03  0.49532969317E+03  0.72850309479E+02  0.89351683844E+03  0.69720216424E+03 0.  0.
    5000001    2    3    3    0    0  0.66127922493E+02  0.14488678137E+03 -0.11507008924E+03  0.22922103939E+03  0.11805116649E+03 0.  0.
        -13    1    4    4    0    0  0.86617576181E+02  0.12547481148E+03 -0.68797862615E+02  0.16727130621E+03  0.10566000000E+00 0. -1.
     200003    1    4    4    0    0 -0.20489653688E+02  0.19411969899E+02 -0.46272226622E+02  0.61949733173E+02  0.30000000000E+02 0. -1.
     200000    1    3    3    0    0  0.18211149869E+03  0.35044291180E+03  0.18792039872E+03  0.66429579905E+03  0.50000000000E+03 0.  1.
    -200001    1    1    2    0    0 -0.24823942118E+03 -0.49532969317E+03  0.55453914027E+03  0.10509462276E+04  0.70000000000E+03 0. -1.
<mgrwt>
<rscale>  0 0.18404671E+04</rscale>
<asrwt>0</asrwt>
<pdfrwt beam="1">  1        4 0.94076688E-01 0.18404671E+04</pdfrwt>
<pdfrwt beam="2">  1       -4 0.18370375E+00 0.18404671E+04</pdfrwt>
<totfact> 0.30665505E-01</totfact>
</mgrwt>
</event>
<event>
 8    1  0.5217667E-029  0.1604966E+04  0.7818608E-02  0.8817503E-01
          4   -1    0    0  501    0  0.00000000000E+00  0.00000000000E+00  0.52047367108E+03  0.52047522053E+03  0.12700000000E+01 0.  1.
         -4   -1    0    0    0  501 -0.00000000000E+00 -0.00000000000E+00 -0.12372906589E+04  0.12372913107E+04  0.12700000000E+01 0. -1.
     200001    2    1    2    0    0  0.35710836513E+02  0.53750229016E+01 -0.78643001091E+03  0.10533872813E+04  0.69989173990E+03 0.  0.
    5000001    2    3    3    0    0 -0.87558800602E+02  0.59048847558E+02 -0.20835856233E+03  0.27734418805E+03  0.14950985983E+03 0.  0.
        -13    1    4    4    0    0 -0.96863965621E+02  0.90739125499E+01 -0.19333934080E+03  0.21643723245E+03  0.10566000000E+00 0. -1.
     200003    1    4    4    0    0  0.93051650194E+01  0.49974935008E+02 -0.15019221533E+02  0.60906955601E+02  0.30000000000E+02 0. -1.
     200000    1    3    3    0    0  0.12326963711E+03 -0.53673824656E+02 -0.57807144858E+03  0.77604309323E+03  0.50000000000E+03 0.  1.
    -200001    1    1    2    0    0 -0.35710836513E+02 -0.53750229016E+01  0.69613023123E+02  0.70437924991E+03  0.70000000000E+03 0.  1.
<mgrwt>
<rscale>  0 0.16049662E+04</rscale>
<asrwt>0</asrwt>
<pdfrwt beam="1">  1        4 0.74353539E-01 0.16049662E+04</pdfrwt>
<pdfrwt beam="2">  1       -4 0.17675596E+00 0.16049662E+04</pdfrwt>
<totfact> 0.59810117E-01</totfact>
</mgrwt>
</event>
<event>
 8    1  0.5217667E-029  0.1843557E+04  0.7818608E-02  0.8683473E-01
         -4   -1    0    0    0  501 -0.00000000000E+00  0.00000000000E+00  0.24949594276E+04  0.24949597508E+04  0.12700000000E+01 0. -1.
          4   -1    0    0  501    0  0.00000000000E+00 -0.00000000000E+00 -0.34055526300E+03  0.34055763103E+03  0.12700000000E+01 0.  1.
     200001    2    1    2    0    0 -0.55401729640E+03  0.72985903911E+02  0.74114759605E+03  0.11623299341E+04  0.69960632475E+03 0.  0.
    5000001    2    3    3    0    0 -0.13012966998E+02 -0.11037426592E+02  0.18490480592E+03  0.23542559916E+03  0.14472133012E+03 0.  0.
        -13    1    4    4    0    0 -0.54568081763E+02 -0.23523702412E+02  0.17076969857E+03  0.18081300074E+03  0.10566000000E+00 0. -1.
     200003    1    4    4    0    0  0.41555114765E+02  0.12486275820E+02  0.14135107355E+02  0.54612598427E+02  0.30000000000E+02 0. -1.
     200000    1    3    3    0    0 -0.54100432941E+03  0.84023330503E+02  0.55624279013E+03  0.92690433491E+03  0.50000000000E+03 0.  1.
    -200001    1    1    2    0    0  0.55401729640E+03 -0.72985903911E+02  0.14132565685E+04  0.16731874478E+04  0.70000000000E+03 0. -1.
<mgrwt>
<rscale>  0 0.18435568E+04</rscale>
<asrwt>0</asrwt>
<pdfrwt beam="1">  1        4 0.48650944E-01 0.18435568E+04</pdfrwt>
<pdfrwt beam="2">  1       -4 0.35642297E+00 0.18435568E+04</pdfrwt>
<totfact> 0.10471272E-01</totfact>
</mgrwt>
</event>
<event>
 8    1  0.5217667E-029  0.1833973E+04  0.7818608E-02  0.8688439E-01
          4   -1    0    0  501    0  0.00000000000E+00  0.00000000000E+00  0.58965009657E+03  0.58965146425E+03  0.12700000000E+01 0.  1.
         -4   -1    0    0    0  501 -0.00000000000E+00 -0.00000000000E+00 -0.14260358868E+04  0.14260364523E+04  0.12700000000E+01 0. -1.
     200001    2    1    2    0    0  0.58898925941E+03 -0.59394364446E+02 -0.41713671758E+03  0.10076175703E+04  0.70060979762E+03 0.  0.
    5000001    2    3    3    0    0  0.22077170308E+03  0.49362098548E+02 -0.20005916143E+03  0.34088313856E+03  0.15811667979E+03 0.  0.
        -13    1    4    4    0    0 -0.28266611824E+01 -0.29253214410E+02 -0.18107909478E+00  0.29390211303E+02  0.10566000000E+00 0. -1.
     200003    1    4    4    0    0  0.22359836426E+03  0.78615312958E+02 -0.19987808233E+03  0.31149292725E+03  0.30000000000E+02 0. -1.
     200000    1    3    3    0    0  0.36821755633E+03 -0.10875646299E+03 -0.21707755615E+03  0.66673443170E+03  0.50000000000E+03 0.  1.
    -200001    1    1    2    0    0 -0.58898925941E+03  0.59394364446E+02 -0.41924907268E+03  0.10080703463E+04  0.70000000000E+03 0. -1.
<mgrwt>
<rscale>  0 0.18339729E+04</rscale>
<asrwt>0</asrwt>
<pdfrwt beam="1">  1        4 0.84235867E-01 0.18339729E+04</pdfrwt>
<pdfrwt beam="2">  1       -4 0.20371955E+00 0.18339729E+04</pdfrwt>
<totfact> 0.29098482E-01</totfact>
</mgrwt>
</event>
<event>
 8    1  0.5217667E-029  0.1708732E+04  0.7818608E-02  0.8756400E-01
          4   -1    0    0  501    0  0.00000000000E+00  0.00000000000E+00  0.56629198633E+03  0.56629341042E+03  0.12700000000E+01 0.  1.
         -4   -1    0    0    0  501 -0.00000000000E+00 -0.00000000000E+00 -0.12889801743E+04  0.12889808000E+04  0.12700000000E+01 0. -1.
     200001    2    1    2    0    0 -0.12621001527E+03  0.28203045494E+03 -0.77422074925E+03  0.10883806387E+04  0.69977460703E+03 0.  0.
    5000001    2    3    3    0    0 -0.29122677308E+02  0.19326126119E+03 -0.17232364295E+03  0.29491605377E+03  0.13813759605E+03 0.  0.
        -13    1    4    4    0    0  0.23381384986E+02  0.15391140154E+03 -0.72451789384E+02  0.17171104110E+03  0.10566000000E+00 0. -1.
     200003    1    4    4    0    0 -0.52504062294E+02  0.39349859645E+02 -0.99871853564E+02  0.12320501267E+03  0.30000000000E+02 0.  1.
     200000    1    3    3    0    0 -0.97087337964E+02  0.88769193758E+02 -0.60189710630E+03  0.79346458492E+03  0.50000000000E+03 0. -1.
    -200001    1    1    2    0    0  0.12621001527E+03 -0.28203045494E+03  0.51532561244E+02  0.76689357172E+03  0.70000000000E+03 0.  1.
<mgrwt>
<rscale>  0 0.17087317E+04</rscale>
<asrwt>0</asrwt>
<pdfrwt beam="1">  1        4 0.80899002E-01 0.17087317E+04</pdfrwt>
<pdfrwt beam="2">  1       -4 0.18414017E+00 0.17087317E+04</pdfrwt>
<totfact> 0.43598531E-01</totfact>
</mgrwt>
</event>
<event>
 8    1  0.5217667E-029  0.2791206E+04  0.7818608E-02  0.8306004E-01
          4   -1    0    0  501    0  0.00000000000E+00  0.00000000000E+00  0.17295771312E+04  0.17295775974E+04  0.12700000000E+01 0.  1.
         -4   -1    0    0    0  501 -0.00000000000E+00 -0.00000000000E+00 -0.11261166415E+04  0.11261173576E+04  0.12700000000E+01 0. -1.
     200001    2    1    2    0    0 -0.12014624836E+04  0.57006853631E+02  0.40805190263E+03  0.14503670941E+04  0.70021173342E+03 0.  0.
    5000001    2    3    3    0    0 -0.32895665683E+03  0.43236905151E+02  0.42129643347E+02  0.38015443812E+03  0.18072237807E+03 0.  0.
        -13    1    4    4    0    0 -0.34212068953E+03  0.34708811795E+02  0.36069074037E+02  0.34576329633E+03  0.10566000000E+00 0. -1.
     200003    1    4    4    0    0  0.13164032706E+02  0.85280933557E+01  0.60605693104E+01  0.34391141792E+02  0.30000000000E+02 0. -1.
     200000    1    3    3    0    0 -0.87250582677E+03  0.13769948480E+02  0.36592225929E+03  0.10702126560E+04  0.50000000000E+03 0.  1.
    -200001    1    1    2    0    0  0.12014624836E+04 -0.57006853631E+02  0.19540858703E+03  0.14053278609E+04  0.70000000000E+03 0. -1.
<mgrwt>
<rscale>  0 0.27912057E+04</rscale>
<asrwt>0</asrwt>
<pdfrwt beam="1">  1        4 0.24708253E+00 0.27912057E+04</pdfrwt>
<pdfrwt beam="2">  1       -4 0.16087389E+00 0.27912057E+04</pdfrwt>
<totfact> 0.28440885E-02</totfact>
</mgrwt>
</event>
<event>
 8    1  0.5217667E-029  0.1484443E+04  0.7818608E-02  0.8894865E-01
         -4   -1    0    0    0  501 -0.00000000000E+00  0.00000000000E+00  0.72267692411E+03  0.72267804003E+03  0.12700000000E+01 0. -1.
          4   -1    0    0  501    0  0.00000000000E+00 -0.00000000000E+00 -0.76229223050E+03  0.76229328843E+03  0.12700000000E+01 0.  1.
     200001    2    1    2    0    0  0.11419297339E+03  0.14564731862E+03  0.14155804673E+03  0.73859544429E+03  0.70087900036E+03 0.  0.
    5000001    2    3    3    0    0 -0.16195385036E+02 -0.43253102374E+01  0.15916146027E+03  0.20026209627E+03  0.12038080396E+03 0.  0.
        -13    1    4    4    0    0 -0.20036188386E+02 -0.54195018681E+01 -0.13635619507E+02  0.24834675937E+02  0.10566000000E+00 0. -1.
     200003    1    4    4    0    0  0.38408033493E+01  0.10941916306E+01  0.17279707978E+03  0.17542742034E+03  0.30000000000E+02 0. -1.
     200000    1    3    3    0    0  0.13038835842E+03  0.14997262886E+03 -0.17603413540E+02  0.53833334802E+03  0.50000000000E+03 0.  1.
    -200001    1    1    2    0    0 -0.11419297339E+03 -0.14564731862E+03 -0.18117335312E+03  0.74637588417E+03  0.70000000000E+03 0.  1.
<mgrwt>
<rscale>  0 0.14844428E+04</rscale>
<asrwt>0</asrwt>
<pdfrwt beam="1">  1        4 0.10889905E+00 0.14844428E+04</pdfrwt>
<pdfrwt beam="2">  1       -4 0.10323972E+00 0.14844428E+04</pdfrwt>
<totfact> 0.10001397E+00</totfact>
</mgrwt>
</event>
<event>
 8    1  0.5217667E-029  0.1751952E+04  0.7818608E-02  0.8732277E-01
         -4   -1    0    0    0  501 -0.00000000000E+00  0.00000000000E+00  0.12682272397E+04  0.12682278756E+04  0.12700000000E+01 0. -1.
          4   -1    0    0  501    0  0.00000000000E+00 -0.00000000000E+00 -0.60504275651E+03  0.60504408939E+03  0.12700000000E+01 0.  1.
     200001    2    1    2    0    0  0.14837293829E+03  0.50234822226E+03  0.38805944452E+03  0.95672297439E+03  0.70025741841E+03 0.  0.
    5000001    2    3    3    0    0  0.20195248577E+01  0.23516360436E+03  0.15959166024E+02  0.26298991412E+03  0.11663190238E+03 0.  0.
        -13    1    4    4    0    0  0.19497639388E+02  0.21818876972E+03  0.31545286550E+02  0.22131790131E+03  0.10566000000E+00 0. -1.
     200003    1    4    4    0    0 -0.17478114530E+02  0.16974834644E+02 -0.15586120527E+02  0.41672012812E+02  0.30000000000E+02 0. -1.
     200000    1    3    3    0    0  0.14635341343E+03  0.26718461789E+03  0.37210027849E+03  0.69373306027E+03  0.50000000000E+03 0. -1.
    -200001    1    1    2    0    0 -0.14837293829E+03 -0.50234822226E+03  0.27512503867E+03  0.91654899057E+03  0.70000000000E+03 0.  1.
<mgrwt>
<rscale>  0 0.17519515E+04</rscale>
<asrwt>0</asrwt>
<pdfrwt beam="1">  1        4 0.86434820E-01 0.17519515E+04</pdfrwt>
<pdfrwt beam="2">  1       -4 0.18117546E+00 0.17519515E+04</pdfrwt>
<totfact> 0.39144510E-01</totfact>
</mgrwt>
</event>
<event>
 8    1  0.5217667E-029  0.1675545E+04  0.7818608E-02  0.8775436E-01
         -4   -1    0    0    0  501 -0.00000000000E+00  0.00000000000E+00  0.12456510062E+04  0.12456516536E+04  0.12700000000E+01 0. -1.
          4   -1    0    0  501    0  0.00000000000E+00 -0.00000000000E+00 -0.56344885952E+03  0.56345029079E+03  0.12700000000E+01 0.  1.
     200001    2    1    2    0    0  0.22556188758E+03  0.17097228477E+03  0.73281080980E+03  0.10523517055E+04  0.70023049187E+03 0.  0.
    5000001    2    3    3    0    0  0.90899264744E+02  0.29600621784E+02  0.22212977786E+03  0.31146366705E+03  0.19628831992E+03 0.  0.
        -13    1    4    4    0    0  0.12921740517E+03 -0.40593072999E+01  0.21631963421E+03  0.25200756155E+03  0.10566000000E+00 0. -1.
     200003    1    4    4    0    0 -0.38318140423E+02  0.33659929084E+02  0.58101436564E+01  0.59456105496E+02  0.30000000000E+02 0. -1.
     200000    1    3    3    0    0  0.13466262283E+03  0.14137166299E+03  0.51068103194E+03  0.74088803842E+03  0.50000000000E+03 0. -1.
    -200001    1    1    2    0    0 -0.22556188758E+03 -0.17097228477E+03 -0.50608663156E+02  0.75675023890E+03  0.70000000000E+03 0.  1.
<mgrwt>
<rscale>  0 0.16755447E+04</rscale>
<asrwt>0</asrwt>
<pdfrwt beam="1">  1        4 0.80492842E-01 0.16755447E+04</pdfrwt>
<pdfrwt beam="2">  1       -4 0.17795029E+00 0.16755447E+04</pdfrwt>
<totfact> 0.48802093E-01</totfact>
</mgrwt>
</event>
<event>
 8    1  0.5217667E-029  0.1975895E+04  0.7818608E-02  0.8617974E-01
         -4   -1    0    0    0  501 -0.00000000000E+00  0.00000000000E+00  0.72090335989E+03  0.72090447856E+03  0.12700000000E+01 0. -1.
          4   -1    0    0  501    0  0.00000000000E+00 -0.00000000000E+00 -0.13539100894E+04  0.13539106850E+04  0.12700000000E+01 0.  1.
     200001    2    1    2    0    0 -0.43346204409E+03  0.49511137513E+03 -0.56087218177E+03  0.11113692593E+04  0.69824022286E+03 0.  0.
    5000001    2    3    3    0    0 -0.11042899614E+03  0.10443735787E+03 -0.21273391948E+03  0.31879321407E+03  0.18240523000E+03 0.  0.
        -13    1    4    4    0    0  0.41398331070E+02  0.30670885063E+02 -0.86325012205E+01  0.52240369900E+02  0.10566000000E+00 0. -1.
     200003    1    4    4    0    0 -0.15182732721E+03  0.73766472809E+02 -0.20410141826E+03  0.26655284417E+03  0.30000000000E+02 0. -1.
     200000    1    3    3    0    0 -0.32303304795E+03  0.39067401726E+03 -0.34813826230E+03  0.79257604525E+03  0.50000000000E+03 0. -1.
    -200001    1    1    2    0    0  0.43346204409E+03 -0.49511137513E+03 -0.72134547699E+02  0.96344590425E+03  0.70000000000E+03 0.  1.
<mgrwt>
<rscale>  0 0.19758948E+04</rscale>
<asrwt>0</asrwt>
<pdfrwt beam="1">  1        4 0.19341585E+00 0.19758948E+04</pdfrwt>
<pdfrwt beam="2">  1       -4 0.10298632E+00 0.19758948E+04</pdfrwt>
<totfact> 0.21020498E-01</totfact>
</mgrwt>
</event>
<event>
 8    1  0.5217667E-029  0.1937668E+04  0.7818608E-02  0.8636331E-01
          4   -1    0    0  501    0  0.00000000000E+00  0.00000000000E+00  0.36515845330E+03  0.36516066179E+03  0.12700000000E+01 0.  1.
         -4   -1    0    0    0  501 -0.00000000000E+00 -0.00000000000E+00 -0.25704882018E+04  0.25704885155E+04  0.12700000000E+01 0. -1.
     200001    2    1    2    0    0 -0.22465734858E+03 -0.11033633287E+03 -0.20441113854E+04  0.21749676466E+04  0.69960551522E+03 0.  0.
    5000001    2    3    3    0    0  0.12673486171E+02  0.74415616559E+02 -0.40932186435E+03  0.43916927515E+03  0.14009626107E+03 0.  0.
        -13    1    4    4    0    0 -0.54503578270E+02  0.52153079415E+02 -0.26657055904E+03  0.27703872987E+03  0.10566000000E+00 0. -1.
     200003    1    4    4    0    0  0.67177064441E+02  0.22262537144E+02 -0.14275130531E+03  0.16213054528E+03  0.30000000000E+02 0. -1.
     200000    1    3    3    0    0 -0.23733083475E+03 -0.18475194943E+03 -0.16347895211E+04  0.17357983714E+04  0.50000000000E+03 0. -1.
    -200001    1    1    2    0    0  0.22465734858E+03  0.11033633287E+03 -0.16121836304E+03  0.76068153074E+03  0.70000000000E+03 0.  1.
<mgrwt>
<rscale>  0 0.19376679E+04</rscale>
<asrwt>0</asrwt>
<pdfrwt beam="1">  1        4 0.52165675E-01 0.19376679E+04</pdfrwt>
<pdfrwt beam="2">  1       -4 0.36721277E+00 0.19376679E+04</pdfrwt>
<totfact> 0.76142207E-02</totfact>
</mgrwt>
</event>
<event>
 8    1  0.5217667E-029  0.1668628E+04  0.7818608E-02  0.8779462E-01
          4   -1    0    0  501    0  0.00000000000E+00  0.00000000000E+00  0.60147266051E+03  0.60147400130E+03  0.12700000000E+01 0.  1.
         -4   -1    0    0    0  501 -0.00000000000E+00 -0.00000000000E+00 -0.11572899165E+04  0.11572906133E+04  0.12700000000E+01 0. -1.
     200001    2    1    2    0    0 -0.94672028270E+02 -0.42344462506E+03 -0.13914549993E+03  0.83578926515E+03  0.70065261162E+03 0.  0.
    5000001    2    3    3    0    0 -0.47050142327E+01 -0.15026473712E+03 -0.53677655403E+02  0.25267172362E+03  0.19585729715E+03 0.  0.
        -13    1    4    4    0    0 -0.27278904999E+02 -0.13057683352E+03 -0.11635001646E+03  0.17700786876E+03  0.10566000000E+00 0. -1.
     200003    1    4    4    0    0  0.22573890766E+02 -0.19687903600E+02  0.62672361054E+02  0.75663854862E+02  0.30000000000E+02 0. -1.
     200000    1    3    3    0    0 -0.89967014037E+02 -0.27317988794E+03 -0.85467844523E+02  0.58311754153E+03  0.50000000000E+03 0. -1.
    -200001    1    1    2    0    0  0.94672028270E+02  0.42344462506E+03 -0.41667175604E+03  0.92297534946E+03  0.70000000000E+03 0.  1.
<mgrwt>
<rscale>  0 0.16686282E+04</rscale>
<asrwt>0</asrwt>
<pdfrwt beam="1">  1        4 0.85924812E-01 0.16686282E+04</pdfrwt>
<pdfrwt beam="2">  1       -4 0.16532728E+00 0.16686282E+04</pdfrwt>
<totfact> 0.51736153E-01</totfact>
</mgrwt>
</event>
<event>
 8    1  0.5217667E-029  0.2285372E+04  0.7818608E-02  0.8483711E-01
         -4   -1    0    0    0  501 -0.00000000000E+00  0.00000000000E+00  0.32699136554E+04  0.32699139020E+04  0.12700000000E+01 0. -1.
          4   -1    0    0  501    0  0.00000000000E+00 -0.00000000000E+00 -0.39931559261E+03  0.39931761218E+03  0.12700000000E+01 0.  1.
     200001    2    1    2    0    0  0.51641575688E+03  0.32979316327E+03  0.37039911525E+03  0.10015652042E+04  0.70034890527E+03 0.  0.
    5000001    2    3    3    0    0  0.20787657866E+02  0.77488905916E+02 -0.29316256662E+01  0.16569410589E+03  0.14494580034E+03 0.  0.
        -13    1    4    4    0    0 -0.47095287350E+02  0.18994850984E+02 -0.39533956159E+02  0.64356159830E+02  0.10566000000E+00 0. -1.
     200003    1    4    4    0    0  0.67882945216E+02  0.58494054933E+02  0.36602330493E+02  0.10133794606E+03  0.30000000000E+02 0. -1.
     200000    1    3    3    0    0  0.49562809901E+03  0.25230425735E+03  0.37333074092E+03  0.83587109827E+03  0.50000000000E+03 0.  1.
    -200001    1    1    2    0    0 -0.51641575688E+03 -0.32979316327E+03  0.25001989475E+04  0.26676663100E+04  0.70000000000E+03 0. -1.
<mgrwt>
<rscale>  0 0.22853723E+04</rscale>
<asrwt>0</asrwt>
<pdfrwt beam="1">  1        4 0.57045247E-01 0.22853723E+04</pdfrwt>
<pdfrwt beam="2">  1       -4 0.46713068E+00 0.22853723E+04</pdfrwt>
<totfact> 0.11744858E-02</totfact>
</mgrwt>
</event>
<event>
 8    1  0.5217667E-029  0.1732739E+04  0.7818608E-02  0.8742909E-01
         -4   -1    0    0    0  501 -0.00000000000E+00  0.00000000000E+00  0.19457949218E+04  0.19457953362E+04  0.12700000000E+01 0. -1.
          4   -1    0    0  501    0  0.00000000000E+00 -0.00000000000E+00 -0.38575130422E+03  0.38575339481E+03  0.12700000000E+01 0.  1.
     200001    2    1    2    0    0  0.45475163919E+03 -0.13846194463E+02  0.10904774431E+04  0.13736953171E+04  0.70064755746E+03 0.  0.
    5000001    2    3    3    0    0  0.77112953587E+02  0.11316078532E+03  0.30926287223E+03  0.36422121859E+03  0.13513623119E+03 0.  0.
        -13    1    4    4    0    0  0.71833875444E+02  0.11139844122E+03  0.14221215147E+03  0.19440685574E+03  0.10566000000E+00 0. -1.
     200003    1    4    4    0    0  0.52790781436E+01  0.17623440989E+01  0.16705072076E+03  0.16981436285E+03  0.30000000000E+02 0. -1.
     200000    1    3    3    0    0  0.37763868561E+03 -0.12700697978E+03  0.78121457091E+03  0.10094740985E+04  0.50000000000E+03 0. -1.
    -200001    1    1    2    0    0 -0.45475163919E+03  0.13846194463E+02  0.46956617441E+03  0.95785341394E+03  0.70000000000E+03 0.  1.
<mgrwt>
<rscale>  0 0.17327387E+04</rscale>
<asrwt>0</asrwt>
<pdfrwt beam="1">  1        4 0.55107508E-01 0.17327387E+04</pdfrwt>
<pdfrwt beam="2">  1       -4 0.27797088E+00 0.17327387E+04</pdfrwt>
<totfact> 0.25507578E-01</totfact>
</mgrwt>
</event>
<event>
 8    1  0.5217667E-029  0.2076981E+04  0.7818608E-02  0.8571452E-01
          4   -1    0    0  501    0  0.00000000000E+00  0.00000000000E+00  0.14300490401E+04  0.14300496040E+04  0.12700000000E+01 0.  1.
         -4   -1    0    0    0  501 -0.00000000000E+00 -0.00000000000E+00 -0.75414278804E+03  0.75414385740E+03  0.12700000000E+01 0. -1.
     200001    2    1    2    0    0 -0.57045051438E+03 -0.32988568504E+03 -0.75021044166E+02  0.96430405711E+03  0.70001128773E+03 0.  0.
    5000001    2    3    3    0    0 -0.44233410269E+02 -0.86922952790E+01 -0.44121014501E+02  0.16993358553E+03  0.15779293074E+03 0.  0.
        -13    1    4    4    0    0 -0.61991793945E+02  0.31030166988E+02 -0.80149226754E+02  0.10597057843E+03  0.10566000000E+00 0. -1.
     200003    1    4    4    0    0  0.17758383676E+02 -0.39722462267E+02  0.36028212252E+02  0.63963007101E+02  0.30000000000E+02 0. -1.
     200000    1    3    3    0    0 -0.52621710411E+03 -0.32119338976E+03 -0.30900029665E+02  0.79437047158E+03  0.50000000000E+03 0. -1.
    -200001    1    1    2    0    0  0.57045051438E+03  0.32988568504E+03  0.75092729620E+03  0.12198894043E+04  0.70000000000E+03 0.  1.
<mgrwt>
<rscale>  0 0.20769814E+04</rscale>
<asrwt>0</asrwt>
<pdfrwt beam="1">  1        4 0.20429284E+00 0.20769814E+04</pdfrwt>
<pdfrwt beam="2">  1       -4 0.10773480E+00 0.20769814E+04</pdfrwt>
<totfact> 0.15832777E-01</totfact>
</mgrwt>
</event>
<event>
 8    1  0.5217667E-029  0.1647649E+04  0.7818608E-02  0.8791798E-01
         -4   -1    0    0    0  501 -0.00000000000E+00  0.00000000000E+00  0.57137960261E+03  0.57138101402E+03  0.12700000000E+01 0. -1.
          4   -1    0    0  501    0  0.00000000000E+00 -0.00000000000E+00 -0.11878010806E+04  0.11878017595E+04  0.12700000000E+01 0.  1.
     200001    2    1    2    0    0 -0.38610244910E+03 -0.41144927618E+02 -0.51506404424E+03  0.95231144819E+03  0.70059840024E+03 0.  0.
    5000001    2    3    3    0    0 -0.14670047321E+03  0.68042924691E+02 -0.18285785368E+03  0.29687552745E+03  0.16895921314E+03 0.  0.
        -13    1    4    4    0    0 -0.14869729213E+03  0.66368554578E+02 -0.20330427544E+03  0.26047708018E+03  0.10566000000E+00 0. -1.
     200003    1    4    4    0    0  0.19968189168E+01  0.16743701127E+01  0.20446421757E+02  0.36398447271E+02  0.30000000000E+02 0. -1.
     200000    1    3    3    0    0 -0.23940197588E+03 -0.10918785231E+03 -0.33220619056E+03  0.65543592074E+03  0.50000000000E+03 0.  1.
    -200001    1    1    2    0    0  0.38610244910E+03  0.41144927618E+02 -0.10135743370E+03  0.80687132533E+03  0.70000000000E+03 0. -1.
<mgrwt>
<rscale>  0 0.16476494E+04</rscale>
<asrwt>0</asrwt>
<pdfrwt beam="1">  1        4 0.16968602E+00 0.16476494E+04</pdfrwt>
<pdfrwt beam="2">  1       -4 0.81625808E-01 0.16476494E+04</pdfrwt>
<totfact> 0.54205410E-01</totfact>
</mgrwt>
</event>
<event>
 8    1  0.5217667E-029  0.1628141E+04  0.7818608E-02  0.8803444E-01
          4   -1    0    0  501    0  0.00000000000E+00  0.00000000000E+00  0.41859999858E+03  0.41860192512E+03  0.12700000000E+01 0.  1.
         -4   -1    0    0    0  501 -0.00000000000E+00 -0.00000000000E+00 -0.15831547820E+04  0.15831552914E+04  0.12700000000E+01 0. -1.
     200001    2    1    2    0    0 -0.90182044492E+02  0.36506258146E+03 -0.36613930800E+03  0.87531557981E+03  0.70051115756E+03 0.  0.
    5000001    2    3    3    0    0  0.92742261564E+02  0.10377844262E+03 -0.86081240986E+02  0.21944728216E+03  0.14620546285E+03 0.  0.
        -13    1    4    4    0    0 -0.29032931371E+02 -0.25315482286E+01 -0.38505878253E+02  0.48291134429E+02  0.10566000000E+00 0. -1.
     200003    1    4    4    0    0  0.12177519293E+03  0.10630999085E+03 -0.47575362734E+02  0.17115614773E+03  0.30000000000E+02 0. -1.
     200000    1    3    3    0    0 -0.18292430606E+03  0.26128413884E+03 -0.28005806702E+03  0.65586829764E+03  0.50000000000E+03 0.  1.
    -200001    1    1    2    0    0  0.90182044492E+02 -0.36506258146E+03 -0.79841547542E+03  0.11264416367E+04  0.70000000000E+03 0.  1.
<mgrwt>
<rscale>  0 0.16281413E+04</rscale>
<asrwt>0</asrwt>
<pdfrwt beam="1">  1        4 0.59800174E-01 0.16281413E+04</pdfrwt>
<pdfrwt beam="2">  1       -4 0.22616514E+00 0.16281413E+04</pdfrwt>
<totfact> 0.45352519E-01</totfact>
</mgrwt>
</event>
<event>
 8    1  0.5217667E-029  0.1939034E+04  0.7818608E-02  0.8635667E-01
          4   -1    0    0  501    0  0.00000000000E+00  0.00000000000E+00  0.83422342114E+03  0.83422438785E+03  0.12700000000E+01 0.  1.
         -4   -1    0    0    0  501 -0.00000000000E+00 -0.00000000000E+00 -0.11267498765E+04  0.11267505923E+04  0.12700000000E+01 0. -1.
     200001    2    1    2    0    0 -0.37452364429E+03 -0.41787106383E+02  0.41439173540E+03  0.89713878461E+03  0.70080194497E+03 0.  0.
    5000001    2    3    3    0    0  0.24859311458E+02 -0.73177410280E+02  0.29485967963E+02  0.14971350651E+03  0.12478699044E+03 0.  0.
        -13    1    4    4    0    0  0.61940980361E+02 -0.87575092112E+01  0.30399690916E+02  0.69552364356E+02  0.10566000000E+00 0. -1.
     200003    1    4    4    0    0 -0.37081668903E+02 -0.64419901069E+02 -0.91372295348E+00  0.80161142157E+02  0.30000000000E+02 0. -1.
     200000    1    3    3    0    0 -0.39938295575E+03  0.31390303897E+02  0.38490576744E+03  0.74742527809E+03  0.50000000000E+03 0.  1.
    -200001    1    1    2    0    0  0.37452364429E+03  0.41787106383E+02 -0.70691819079E+03  0.10638361955E+04  0.70000000000E+03 0. -1.
<mgrwt>
<rscale>  0 0.19390336E+04</rscale>
<asrwt>0</asrwt>
<pdfrwt beam="1">  1        4 0.11917490E+00 0.19390336E+04</pdfrwt>
<pdfrwt beam="2">  1       -4 0.16096439E+00 0.19390336E+04</pdfrwt>
<totfact> 0.24960539E-01</totfact>
</mgrwt>
</event>
<event>
 8    1  0.5217667E-029  0.1764781E+04  0.7818608E-02  0.8725256E-01
          4   -1    0    0  501    0  0.00000000000E+00  0.00000000000E+00  0.34208461575E+03  0.34208697320E+03  0.12700000000E+01 0.  1.
         -4   -1    0    0    0  501 -0.00000000000E+00 -0.00000000000E+00 -0.22760719789E+04  0.22760723332E+04  0.12700000000E+01 0. -1.
     200001    2    1    2    0    0 -0.77918149968E+02 -0.17554234274E+01 -0.17562799654E+04  0.18917611795E+04  0.69868928970E+03 0.  0.
    5000001    2    3    3    0    0 -0.51940235317E+02 -0.67366631220E+02 -0.53650072190E+03  0.57159411216E+03  0.17790658619E+03 0.  0.
        -13    1    4    4    0    0  0.32200416343E+02  0.30524687598E+02 -0.47692448687E+02  0.65139881727E+02  0.10566000000E+00 0. -1.
     200003    1    4    4    0    0 -0.84140651660E+02 -0.97891318819E+02 -0.48880827322E+03  0.50645423044E+03  0.30000000000E+02 0. -1.
     200000    1    3    3    0    0 -0.25977914651E+02  0.65611207793E+02 -0.12197792435E+04  0.13201670673E+04  0.50000000000E+03 0. -1.
    -200001    1    1    2    0    0  0.77918149968E+02  0.17554234274E+01 -0.17770739769E+03  0.72639812692E+03  0.70000000000E+03 0.  1.
<mgrwt>
<rscale>  0 0.17647807E+04</rscale>
<asrwt>0</asrwt>
<pdfrwt beam="1">  1        4 0.48869426E-01 0.17647807E+04</pdfrwt>
<pdfrwt beam="2">  1       -4 0.32515332E+00 0.17647807E+04</pdfrwt>
<totfact> 0.16618890E-01</totfact>
</mgrwt>
</event>
<event>
 8    1  0.5217667E-029  0.2180110E+04  0.7818608E-02  0.8526753E-01
         -4   -1    0    0    0  501 -0.00000000000E+00  0.00000000000E+00  0.67970486838E+03  0.67970605485E+03  0.12700000000E+01 0. -1.
          4   -1    0    0  501    0  0.00000000000E+00 -0.00000000000E+00 -0.17481381611E+04  0.17481386224E+04  0.12700000000E+01 0.  1.
     200001    2    1    2    0    0  0.73515715987E+03  0.36692666700E+03 -0.70307216435E+03  0.12882921410E+04  0.70021064235E+03 0.  0.
    5000001    2    3    3    0    0  0.26093117933E+03  0.11981652440E+03 -0.15368193385E+03  0.37298709429E+03  0.18182451939E+03 0.  0.
        -13    1    4    4    0    0  0.30637226839E+02  0.52858016553E+02 -0.11219727176E+03  0.12775307643E+03  0.10566000000E+00 0. -1.
     200003    1    4    4    0    0  0.23029395249E+03  0.66958507844E+02 -0.41484662085E+02  0.24523401786E+03  0.30000000000E+02 0. -1.
     200000    1    3    3    0    0  0.47422598054E+03  0.24711014261E+03 -0.54939023050E+03  0.91530504673E+03  0.50000000000E+03 0. -1.
    -200001    1    1    2    0    0 -0.73515715987E+03 -0.36692666700E+03 -0.36536112833E+03  0.11395525362E+04  0.70000000000E+03 0.  1.
<mgrwt>
<rscale>  0 0.21801101E+04</rscale>
<asrwt>0</asrwt>
<pdfrwt beam="1">  1        4 0.24973414E+00 0.21801101E+04</pdfrwt>
<pdfrwt beam="2">  1       -4 0.97100814E-01 0.21801101E+04</pdfrwt>
<totfact> 0.10361163E-01</totfact>
</mgrwt>
</event>
<event>
 8    1  0.5217667E-029  0.1415158E+04  0.7818608E-02  0.8942919E-01
          4   -1    0    0  501    0  0.00000000000E+00  0.00000000000E+00  0.33158070426E+03  0.33158313638E+03  0.12700000000E+01 0.  1.
         -4   -1    0    0    0  501 -0.00000000000E+00 -0.00000000000E+00 -0.15099355537E+04  0.15099360878E+04  0.12700000000E+01 0. -1.
     200001    2    1    2    0    0  0.13695585800E+02 -0.65650569754E+02 -0.48276181086E+03  0.85240485176E+03  0.69931216127E+03 0.  0.
    5000001    2    3    3    0    0  0.32038638846E+02 -0.63328055574E+01  0.14829837414E+01  0.15358578659E+03  0.15006603812E+03 0.  0.
        -13    1    4    4    0    0 -0.54167550975E+02  0.12407681188E+02  0.19085575364E+02  0.58756654790E+02  0.10566000000E+00 0. -1.
     200003    1    4    4    0    0  0.86206189820E+02 -0.18740486746E+02 -0.17602591623E+02  0.94829131804E+02  0.30000000000E+02 0. -1.
     200000    1    3    3    0    0 -0.18343053045E+02 -0.59317764197E+02 -0.48424479460E+03  0.69881906517E+03  0.50000000000E+03 0. -1.
    -200001    1    1    2    0    0 -0.13695585800E+02  0.65650569754E+02 -0.69559303856E+03  0.98911437239E+03  0.70000000000E+03 0. -1.
<mgrwt>
<rscale>  0 0.14151583E+04</rscale>
<asrwt>0</asrwt>
<pdfrwt beam="1">  1        4 0.47368885E-01 0.14151583E+04</pdfrwt>
<pdfrwt beam="2">  1       -4 0.21570529E+00 0.14151583E+04</pdfrwt>
<totfact> 0.87761845E-01</totfact>
</mgrwt>
</event>
<event>
 8    1  0.5217667E-029  0.2131648E+04  0.7818608E-02  0.8547429E-01
          4   -1    0    0  501    0  0.00000000000E+00  0.00000000000E+00  0.12088141010E+04  0.12088147682E+04  0.12700000000E+01 0.  1.
         -4   -1    0    0    0  501 -0.00000000000E+00 -0.00000000000E+00 -0.93974721804E+03  0.93974807620E+03  0.12700000000E+01 0. -1.
     200001    2    1    2    0    0 -0.72778572160E+03 -0.11865581057E+03  0.45644735781E+03  0.11147046818E+04  0.70033640435E+03 0.  0.
    5000001    2    3    3    0    0 -0.18279771696E+03  0.46682642936E+02  0.19613909073E+03  0.31338756399E+03  0.15539288231E+03 0.  0.
        -13    1    4    4    0    0 -0.11753815843E+03  0.83456796856E+02  0.62157403655E+02  0.15698346926E+03  0.10566000000E+00 0. -1.
     200003    1    4    4    0    0 -0.65259558534E+02 -0.36774153919E+02  0.13398168708E+03  0.15640409473E+03  0.30000000000E+02 0. -1.
     200000    1    3    3    0    0 -0.54498800464E+03 -0.16533845350E+03  0.26030826708E+03  0.80131711782E+03  0.50000000000E+03 0.  1.
    -200001    1    1    2    0    0  0.72778572160E+03  0.11865581057E+03 -0.18738047482E+03  0.10338581626E+04  0.70000000000E+03 0. -1.
<mgrwt>
<rscale>  0 0.21316485E+04</rscale>
<asrwt>0</asrwt>
<pdfrwt beam="1">  1        4 0.17268784E+00 0.21316485E+04</pdfrwt>
<pdfrwt beam="2">  1       -4 0.13424971E+00 0.21316485E+04</pdfrwt>
<totfact> 0.14950218E-01</totfact>
</mgrwt>
</event>
<event>
 8    1  0.5217667E-029  0.1641202E+04  0.7818608E-02  0.8795628E-01
         -4   -1    0    0    0  501 -0.00000000000E+00  0.00000000000E+00  0.14335933240E+04  0.14335938865E+04  0.12700000000E+01 0. -1.
          4   -1    0    0  501    0  0.00000000000E+00 -0.00000000000E+00 -0.46971731307E+03  0.46971902995E+03  0.12700000000E+01 0.  1.
     200001    2    1    2    0    0  0.25060521710E+03  0.34281061391E+03  0.51659024621E+03  0.97036776956E+03  0.70315434570E+03 0.  0.
    5000001    2    3    3    0    0  0.73641812534E+02  0.14587643158E+03  0.20931433209E+03  0.32653735235E+03  0.19002921622E+03 0.  0.
        -13    1    4    4    0    0 -0.78034839528E+01  0.80311734788E+02 -0.10413370376E+02  0.81359194644E+02  0.10566000000E+00 0. -1.
     200003    1    4    4    0    0  0.81445296486E+02  0.65564696794E+02  0.21972770246E+03  0.24517815770E+03  0.30000000000E+02 0. -1.
     200000    1    3    3    0    0  0.17696340456E+03  0.19693418233E+03  0.30727591413E+03  0.64383041721E+03  0.50000000000E+03 0. -1.
    -200001    1    1    2    0    0 -0.25060521710E+03 -0.34281061391E+03  0.44728576471E+03  0.93294514692E+03  0.70000000000E+03 0.  1.
<mgrwt>
<rscale>  0 0.16412017E+04</rscale>
<asrwt>0</asrwt>
<pdfrwt beam="1">  1        4 0.67102634E-01 0.16412017E+04</pdfrwt>
<pdfrwt beam="2">  1       -4 0.20479922E+00 0.16412017E+04</pdfrwt>
<totfact> 0.48391732E-01</totfact>
</mgrwt>
</event>
<event>
 8    1  0.5217667E-029  0.2343560E+04  0.7818608E-02  0.8460941E-01
         -4   -1    0    0    0  501 -0.00000000000E+00  0.00000000000E+00  0.14213747698E+04  0.14213753371E+04  0.12700000000E+01 0. -1.
          4   -1    0    0  501    0  0.00000000000E+00 -0.00000000000E+00 -0.96601294232E+03  0.96601377714E+03  0.12700000000E+01 0.  1.
     200001    2    1    2    0    0 -0.89086229752E+03 -0.85662848504E+02  0.52043243441E+03  0.12493170864E+04  0.69926354604E+03 0.  0.
    5000001    2    3    3    0    0 -0.15591864992E+03  0.37463385115E+02  0.39720452826E+02  0.23128651525E+03  0.16186910498E+03 0.  0.
        -13    1    4    4    0    0 -0.15766977328E+03  0.18272682557E+02  0.79788302760E+02  0.17765087322E+03  0.10566000000E+00 0. -1.
     200003    1    4    4    0    0  0.17511233615E+01  0.19190702558E+02 -0.40067849934E+02  0.53635642031E+02  0.30000000000E+02 0. -1.
     200000    1    3    3    0    0 -0.73494364760E+03 -0.12312623362E+03  0.48071198158E+03  0.10180305711E+04  0.50000000000E+03 0. -1.
    -200001    1    1    2    0    0  0.89086229752E+03  0.85662848504E+02 -0.65070606957E+02  0.11380720279E+04  0.70000000000E+03 0.  1.
<mgrwt>
<rscale>  0 0.23435598E+04</rscale>
<asrwt>0</asrwt>
<pdfrwt beam="1">  1        4 0.13800195E+00 0.23435598E+04</pdfrwt>
<pdfrwt beam="2">  1       -4 0.20305364E+00 0.23435598E+04</pdfrwt>
<totfact> 0.84902045E-02</totfact>
</mgrwt>
</event>
<event>
 8    1  0.5217667E-029  0.2016903E+04  0.7818608E-02  0.8598759E-01
         -4   -1    0    0    0  501 -0.00000000000E+00  0.00000000000E+00  0.14529801806E+04  0.14529807356E+04  0.12700000000E+01 0. -1.
          4   -1    0    0  501    0  0.00000000000E+00 -0.00000000000E+00 -0.69992183460E+03  0.69992298680E+03  0.12700000000E+01 0.  1.
     200001    2    1    2    0    0  0.42096046841E+03  0.48307110468E+03  0.12719691326E+02  0.94929800139E+03  0.70031385589E+03 0.  0.
    5000001    2    3    3    0    0  0.14263844549E+03  0.87361053965E+02 -0.24838310448E+02  0.25254826427E+03  0.18757932786E+03 0.  0.
        -13    1    4    4    0    0  0.75660756828E+02  0.17979473359E+02  0.76776430183E+02  0.10928148508E+03  0.10566000000E+00 0. -1.
     200003    1    4    4    0    0  0.66977688658E+02  0.69381580606E+02 -0.10161474063E+03  0.14326677919E+03  0.30000000000E+02 0. -1.
     200000    1    3    3    0    0  0.27832202292E+03  0.39571005071E+03  0.37558001774E+02  0.69674973712E+03  0.50000000000E+03 0. -1.
    -200001    1    1    2    0    0 -0.42096046841E+03 -0.48307110468E+03  0.74033865467E+03  0.12036057210E+04  0.70000000000E+03 0. -1.
<mgrwt>
<rscale>  0 0.20169030E+04</rscale>
<asrwt>0</asrwt>
<pdfrwt beam="1">  1        4 0.99988954E-01 0.20169030E+04</pdfrwt>
<pdfrwt beam="2">  1       -4 0.20756872E+00 0.20169030E+04</pdfrwt>
<totfact> 0.18129778E-01</totfact>
</mgrwt>
</event>
<event>
 8    1  0.5217667E-029  0.1758835E+04  0.7818608E-02  0.8728502E-01
          4   -1    0    0  501    0  0.00000000000E+00  0.00000000000E+00  0.19987603345E+04  0.19987607379E+04  0.12700000000E+01 0.  1.
         -4   -1    0    0    0  501 -0.00000000000E+00 -0.00000000000E+00 -0.38692586711E+03  0.38692795135E+03  0.12700000000E+01 0. -1.
     200001    2    1    2    0    0 -0.36242235202E+03 -0.97602101647E+02  0.29387017890E+03  0.84688850826E+03  0.69998880840E+03 0.  0.
    5000001    2    3    3    0    0 -0.80234577669E+02  0.14618801495E+02  0.50990124447E+02  0.21347380055E+03  0.19057747485E+03 0.  0.
        -13    1    4    4    0    0 -0.37667966586E+02  0.92676546360E+02  0.63973496932E+02  0.11874526275E+03  0.10566000000E+00 0. -1.
     200003    1    4    4    0    0 -0.42566611084E+02 -0.78057744865E+02 -0.12983372486E+02  0.94728537800E+02  0.30000000000E+02 0. -1.
     200000    1    3    3    0    0 -0.28218777435E+03 -0.11222090314E+03  0.24288005446E+03  0.63341470771E+03  0.50000000000E+03 0. -1.
    -200001    1    1    2    0    0  0.36242235202E+03  0.97602101647E+02  0.13179642885E+04  0.15388001810E+04  0.70000000000E+03 0.  1.
<mgrwt>
<rscale>  0 0.17588349E+04</rscale>
<asrwt>0</asrwt>
<pdfrwt beam="1">  1        4 0.28553737E+00 0.17588349E+04</pdfrwt>
<pdfrwt beam="2">  1       -4 0.55275301E-01 0.17588349E+04</pdfrwt>
<totfact> 0.22706784E-01</totfact>
</mgrwt>
</event>
<event>
 8    1  0.5217667E-029  0.1515743E+04  0.7818608E-02  0.8874051E-01
          4   -1    0    0  501    0  0.00000000000E+00  0.00000000000E+00  0.77069444804E+03  0.77069549444E+03  0.12700000000E+01 0.  1.
         -4   -1    0    0    0  501 -0.00000000000E+00 -0.00000000000E+00 -0.74525965832E+03  0.74526074043E+03  0.12700000000E+01 0. -1.
     200001    2    1    2    0    0  0.22686751433E+03  0.15166735252E+03 -0.90199325689E+02  0.75579631516E+03  0.69901380300E+03 0.  0.
    5000001    2    3    3    0    0 -0.18634170086E+02  0.93910285669E+02 -0.66438502715E+02  0.19528625055E+03  0.15670440633E+03 0.  0.
        -13    1    4    4    0    0 -0.52508689936E+02 -0.22665153185E+02 -0.32205288974E+02  0.65635839978E+02  0.10566000000E+00 0. -1.
     200003    1    4    4    0    0  0.33874519850E+02  0.11657543885E+03 -0.34233213741E+02  0.12965041057E+03  0.30000000000E+02 0. -1.
     200000    1    3    3    0    0  0.24550168441E+03  0.57757066855E+02 -0.23760822974E+02  0.56051006461E+03  0.50000000000E+03 0.  1.
    -200001    1    1    2    0    0 -0.22686751433E+03 -0.15166735252E+03  0.11563411541E+03  0.76015991970E+03  0.70000000000E+03 0.  1.
<mgrwt>
<rscale>  0 0.15157428E+04</rscale>
<asrwt>0</asrwt>
<pdfrwt beam="1">  1        4 0.11009936E+00 0.15157428E+04</pdfrwt>
<pdfrwt beam="2">  1       -4 0.10646582E+00 0.15157428E+04</pdfrwt>
<totfact> 0.90217041E-01</totfact>
</mgrwt>
</event>
<event>
 8    1  0.5217667E-029  0.1897776E+04  0.7818608E-02  0.8655964E-01
         -4   -1    0    0    0  501 -0.00000000000E+00  0.00000000000E+00  0.11131242305E+04  0.11131249550E+04  0.12700000000E+01 0. -1.
          4   -1    0    0  501    0  0.00000000000E+00 -0.00000000000E+00 -0.80888253949E+03  0.80888353648E+03  0.12700000000E+01 0.  1.
     200001    2    1    2    0    0  0.15230393851E+03 -0.49194639124E+03 -0.23428145730E+03  0.89965095968E+03  0.69948288505E+03 0.  0.
    5000001    2    3    3    0    0  0.49668369558E+02 -0.23085259178E+03 -0.93613960102E+02  0.30931937752E+03  0.17650789703E+03 0.  0.
        -13    1    4    4    0    0 -0.14198947781E+02 -0.16925851478E+03 -0.12461008421E+03  0.21066024588E+03  0.10566000000E+00 0. -1.
     200003    1    4    4    0    0  0.63867317339E+02 -0.61594077005E+02  0.30996124107E+02  0.98659131639E+02  0.30000000000E+02 0. -1.
     200000    1    3    3    0    0  0.10263556895E+03 -0.26109379945E+03 -0.14066749720E+03  0.59033158216E+03  0.50000000000E+03 0. -1.
    -200001    1    1    2    0    0 -0.15230393851E+03  0.49194639124E+03  0.53852314831E+03  0.10223575318E+04  0.70000000000E+03 0.  1.
<mgrwt>
<rscale>  0 0.18977760E+04</rscale>
<asrwt>0</asrwt>
<pdfrwt beam="1">  1        4 0.11555477E+00 0.18977760E+04</pdfrwt>
<pdfrwt beam="2">  1       -4 0.15901787E+00 0.18977760E+04</pdfrwt>
<totfact> 0.27940037E-01</totfact>
</mgrwt>
</event>
<event>
 8    1  0.5217667E-029  0.2022415E+04  0.7818608E-02  0.8596212E-01
          4   -1    0    0  501    0  0.00000000000E+00  0.00000000000E+00  0.11216617392E+04  0.11216624582E+04  0.12700000000E+01 0.  1.
         -4   -1    0    0    0  501 -0.00000000000E+00 -0.00000000000E+00 -0.91162821044E+03  0.91162909506E+03  0.12700000000E+01 0. -1.
     200001    2    1    2    0    0  0.66794078964E+03 -0.26900624750E+03  0.22424075437E+03  0.10289454451E+04  0.69995396528E+03 0.  0.
    5000001    2    3    3    0    0  0.28111346767E+03  0.89950934028E+01  0.75562020501E+02  0.32252808376E+03  0.13859672601E+03 0.  0.
        -13    1    4    4    0    0  0.12808770486E+03  0.29632261028E+02 -0.27708780575E+02  0.13435891751E+03  0.10566000000E+00 0. -1.
     200003    1    4    4    0    0  0.15302576281E+03 -0.20637167625E+02  0.10327080108E+03  0.18816916625E+03  0.30000000000E+02 0. -1.
     200000    1    3    3    0    0  0.38682732197E+03 -0.27800134090E+03  0.14867873387E+03  0.70641736139E+03  0.50000000000E+03 0. -1.
    -200001    1    1    2    0    0 -0.66794078964E+03  0.26900624750E+03 -0.14207225564E+02  0.10043461081E+04  0.70000000000E+03 0. -1.
<mgrwt>
<rscale>  0 0.20224145E+04</rscale>
<asrwt>0</asrwt>
<pdfrwt beam="1">  1        4 0.16023751E+00 0.20224145E+04</pdfrwt>
<pdfrwt beam="2">  1       -4 0.13023271E+00 0.20224145E+04</pdfrwt>
<totfact> 0.20071932E-01</totfact>
</mgrwt>
</event>
<event>
 8    1  0.5217667E-029  0.1609802E+04  0.7818608E-02  0.8814549E-01
          4   -1    0    0  501    0  0.00000000000E+00  0.00000000000E+00  0.15171751139E+04  0.15171756454E+04  0.12700000000E+01 0.  1.
         -4   -1    0    0    0  501 -0.00000000000E+00 -0.00000000000E+00 -0.42701957949E+03  0.42702146804E+03  0.12700000000E+01 0. -1.
     200001    2    1    2    0    0  0.32395837757E+03 -0.13624508377E+03  0.32699383307E+03  0.85061239539E+03  0.70221416040E+03 0.  0.
    5000001    2    3    3    0    0  0.11363840557E+03  0.18333106649E+02  0.10366269835E+03  0.24397765906E+03  0.18849231569E+03 0.  0.
        -13    1    4    4    0    0  0.35594649798E+02 -0.78477930068E+02  0.71762920390E+02  0.11214139516E+03  0.10566000000E+00 0. -1.
     200003    1    4    4    0    0  0.78043755767E+02  0.96811036717E+02  0.31899777957E+02  0.13183626390E+03  0.30000000000E+02 0. -1.
     200000    1    3    3    0    0  0.21031997201E+03 -0.15457819042E+03  0.22333113473E+03  0.60663473633E+03  0.50000000000E+03 0. -1.
    -200001    1    1    2    0    0 -0.32395837757E+03  0.13624508377E+03  0.76316170132E+03  0.10935847181E+04  0.70000000000E+03 0.  1.
<mgrwt>
<rscale>  0 0.16098023E+04</rscale>
<asrwt>0</asrwt>
<pdfrwt beam="1">  1        4 0.21673948E+00 0.16098023E+04</pdfrwt>
<pdfrwt beam="2">  1       -4 0.61002970E-01 0.16098023E+04</pdfrwt>
<totfact> 0.49954602E-01</totfact>
</mgrwt>
</event>
<event>
 8    1  0.5217667E-029  0.1503762E+04  0.7818608E-02  0.8881955E-01
          4   -1    0    0  501    0  0.00000000000E+00  0.00000000000E+00  0.53349535401E+03  0.53349686565E+03  0.12700000000E+01 0. -1.
         -4   -1    0    0    0  501 -0.00000000000E+00 -0.00000000000E+00 -0.10596593545E+04  0.10596601156E+04  0.12700000000E+01 0.  1.
     200001    2    1    2    0    0  0.26880094891E+03 -0.55907981197E+02 -0.26111148001E+03  0.79589134725E+03  0.69991726592E+03 0.  0.
    5000001    2    3    3    0    0  0.13740527881E+03 -0.63763352653E+02 -0.51051689145E+02  0.23781281808E+03  0.17607579530E+03 0.  0.
        -13    1    4    4    0    0  0.14161122846E+03 -0.10837357090E+03 -0.40617159265E+02  0.18288886157E+03  0.10566000000E+00 0. -1.
     200003    1    4    4    0    0 -0.42059496443E+01  0.44610218252E+02 -0.10434529880E+02  0.54923956510E+02  0.30000000000E+02 0. -1.
     200000    1    3    3    0    0  0.13139567010E+03  0.78553714565E+01 -0.21005979087E+03  0.55807852917E+03  0.50000000000E+03 0.  1.
    -200001    1    1    2    0    0 -0.26880094891E+03  0.55907981197E+02 -0.26505252051E+03  0.79726563398E+03  0.70000000000E+03 0.  1.
<mgrwt>
<rscale>  0 0.15037622E+04</rscale>
<asrwt>0</asrwt>
<pdfrwt beam="1">  1        4 0.76213785E-01 0.15037622E+04</pdfrwt>
<pdfrwt beam="2">  1       -4 0.15138007E+00 0.15037622E+04</pdfrwt>
<totfact> 0.87441540E-01</totfact>
</mgrwt>
</event>
<event>
 8    1  0.5217667E-029  0.1583571E+04  0.7818608E-02  0.8830705E-01
         -4   -1    0    0    0  501 -0.00000000000E+00  0.00000000000E+00  0.16574089858E+04  0.16574094724E+04  0.12700000000E+01 0. -1.
          4   -1    0    0  501    0  0.00000000000E+00 -0.00000000000E+00 -0.37825414229E+03  0.37825627432E+03  0.12700000000E+01 0.  1.
     200001    2    1    2    0    0  0.13512190666E+01 -0.34766829774E+03  0.47185530964E+03  0.91200760987E+03  0.69873841757E+03 0.  0.
    5000001    2    3    3    0    0 -0.76612551525E+02 -0.17744557572E+03  0.22583035025E+03  0.32414503643E+03  0.12928357262E+03 0.  0.
        -13    1    4    4    0    0 -0.59969549247E+02 -0.18695871202E+03  0.19909388039E+03  0.27962169302E+03  0.10566000000E+00 0. -1.
     200003    1    4    4    0    0 -0.16643002278E+02  0.95131362970E+01  0.26736469860E+02  0.44523343401E+02  0.30000000000E+02 0. -1.
     200000    1    3    3    0    0  0.77963770591E+02 -0.17022272202E+03  0.24602495939E+03  0.58786257344E+03  0.50000000000E+03 0.  1.
    -200001    1    1    2    0    0 -0.13512190666E+01  0.34766829774E+03  0.80729953387E+03  0.11236581368E+04  0.70000000000E+03 0.  1.
<mgrwt>
<rscale>  0 0.15835713E+04</rscale>
<asrwt>0</asrwt>
<pdfrwt beam="1">  1        4 0.54036493E-01 0.15835713E+04</pdfrwt>
<pdfrwt beam="2">  1       -4 0.23677290E+00 0.15835713E+04</pdfrwt>
<totfact> 0.48433654E-01</totfact>
</mgrwt>
</event>
<event>
 8    1  0.5217667E-029  0.2162064E+04  0.7818608E-02  0.8534386E-01
          4   -1    0    0  501    0  0.00000000000E+00  0.00000000000E+00  0.63258042393E+03  0.63258169879E+03  0.12700000000E+01 0.  1.
         -4   -1    0    0    0  501 -0.00000000000E+00 -0.00000000000E+00 -0.18473988967E+04  0.18473993332E+04  0.12700000000E+01 0. -1.
     200001    2    1    2    0    0 -0.12866658505E+03 -0.28970304585E+03  0.26479637213E+03  0.81272489269E+03  0.69994406035E+03 0.  0.
    5000001    2    3    3    0    0 -0.51473164585E+02 -0.66629088059E+02  0.25452263864E+02  0.21022475412E+03  0.19093901504E+03 0.  0.
        -13    1    4    4    0    0  0.24053461818E+02  0.38322256207E+02  0.57995205267E+02  0.73556912280E+02  0.10566000000E+00 0. -1.
     200003    1    4    4    0    0 -0.75526626402E+02 -0.10495134427E+03 -0.32542941403E+02  0.13666784184E+03  0.30000000000E+02 0. -1.
     200000    1    3    3    0    0 -0.77193420466E+02 -0.22307395780E+03  0.23934410827E+03  0.60250013856E+03  0.50000000000E+03 0.  1.
    -200001    1    1    2    0    0  0.12866658505E+03  0.28970304585E+03 -0.14796148449E+04  0.16672561393E+04  0.70000000000E+03 0. -1.
<mgrwt>
<rscale>  0 0.21620643E+04</rscale>
<asrwt>0</asrwt>
<pdfrwt beam="1">  1        4 0.90368755E-01 0.21620643E+04</pdfrwt>
<pdfrwt beam="2">  1       -4 0.26391425E+00 0.21620643E+04</pdfrwt>
<totfact> 0.10030001E-01</totfact>
</mgrwt>
</event>
<event>
 8    1  0.5217667E-029  0.1680067E+04  0.7818608E-02  0.8772815E-01
         -4   -1    0    0    0  501 -0.00000000000E+00  0.00000000000E+00  0.60246973668E+03  0.60247107525E+03  0.12700000000E+01 0. -1.
          4   -1    0    0  501    0  0.00000000000E+00 -0.00000000000E+00 -0.11712702191E+04  0.11712709076E+04  0.12700000000E+01 0.  1.
     200001    2    1    2    0    0  0.27939908982E+03 -0.12166467656E+03  0.85531003822E+02  0.76824914908E+03  0.70001789800E+03 0.  0.
    5000001    2    3    3    0    0  0.25803856960E+02 -0.76895229885E+02  0.33192593081E+02  0.20340035982E+03  0.18355174400E+03 0.  0.
        -13    1    4    4    0    0 -0.72633902579E+02 -0.51061367008E+02 -0.89511736389E+01  0.89236100756E+02  0.10566000000E+00 0. -1.
     200003    1    4    4    0    0  0.98437759539E+02 -0.25833862877E+02  0.42143766720E+02  0.11416425906E+03  0.30000000000E+02 0. -1.
     200000    1    3    3    0    0  0.25359523286E+03 -0.44769446672E+02  0.52338410741E+02  0.56484878926E+03  0.50000000000E+03 0. -1.
    -200001    1    1    2    0    0 -0.27939908982E+03  0.12166467656E+03 -0.65433148622E+03  0.10054928338E+04  0.70000000000E+03 0.  1.
<mgrwt>
<rscale>  0 0.16800674E+04</rscale>
<asrwt>0</asrwt>
<pdfrwt beam="1">  1        4 0.16732446E+00 0.16800674E+04</pdfrwt>
<pdfrwt beam="2">  1       -4 0.86067250E-01 0.16800674E+04</pdfrwt>
<totfact> 0.49805467E-01</totfact>
</mgrwt>
</event>
<event>
 8    1  0.5217667E-029  0.1614652E+04  0.7818608E-02  0.8811597E-01
         -4   -1    0    0    0  501 -0.00000000000E+00  0.00000000000E+00  0.84649250943E+03  0.84649346213E+03  0.12700000000E+01 0. -1.
          4   -1    0    0  501    0  0.00000000000E+00 -0.00000000000E+00 -0.76997004309E+03  0.76997109047E+03  0.12700000000E+01 0.  1.
     200001    2    1    2    0    0 -0.16143893198E+02  0.38449813054E+03 -0.78506021806E+02  0.80274883453E+03  0.70010217698E+03 0.  0.
    5000001    2    3    3    0    0  0.30264880864E+02  0.87415580543E+02  0.24393422519E+02  0.21029621072E+03  0.18727522646E+03 0.  0.
        -13    1    4    4    0    0  0.26373416178E+02  0.11112013841E+03  0.82317753208E+02  0.14078162486E+03  0.10566000000E+00 0. -1.
     200003    1    4    4    0    0  0.38914646857E+01 -0.23704557868E+02 -0.57924330689E+02  0.69514585857E+02  0.30000000000E+02 0. -1.
     200000    1    3    3    0    0 -0.46408774062E+02  0.29708255000E+03 -0.10289944433E+03  0.59245262382E+03  0.50000000000E+03 0.  1.
    -200001    1    1    2    0    0  0.16143893198E+02 -0.38449813054E+03  0.15502848815E+03  0.81371571806E+03  0.70000000000E+03 0. -1.
<mgrwt>
<rscale>  0 0.16146523E+04</rscale>
<asrwt>0</asrwt>
<pdfrwt beam="1">  1        4 0.10999586E+00 0.16146523E+04</pdfrwt>
<pdfrwt beam="2">  1       -4 0.12092764E+00 0.16146523E+04</pdfrwt>
<totfact> 0.65698099E-01</totfact>
</mgrwt>
</event>
<event>
 8    1  0.5217667E-029  0.2249198E+04  0.7818608E-02  0.8498225E-01
          4   -1    0    0  501    0  0.00000000000E+00  0.00000000000E+00  0.12317258074E+04  0.12317264621E+04  0.12700000000E+01 0.  1.
         -4   -1    0    0    0  501 -0.00000000000E+00 -0.00000000000E+00 -0.10267883076E+04  0.10267890930E+04  0.12700000000E+01 0. -1.
     200001    2    1    2    0    0 -0.37534173440E+02  0.87858216942E+03  0.14029875536E+03  0.11326853681E+04  0.69998354256E+03 0.  0.
    5000001    2    3    3    0    0 -0.60214158120E+02  0.25928039106E+03  0.12168457954E+03  0.33619584409E+03  0.16543410368E+03 0.  0.
        -13    1    4    4    0    0  0.19306803396E+02  0.15574899808E+03  0.25954043749E+01  0.15696257627E+03  0.10566000000E+00 0. -1.
     200003    1    4    4    0    0 -0.79520961516E+02  0.10353139298E+03  0.11908917517E+03  0.17923326782E+03  0.30000000000E+02 0. -1.
     200000    1    3    3    0    0  0.22679984680E+02  0.61930177836E+03  0.18614175822E+02  0.79648952405E+03  0.50000000000E+03 0. -1.
    -200001    1    1    2    0    0  0.37534173440E+02 -0.87858216942E+03  0.64638744426E+02  0.11258301870E+04  0.70000000000E+03 0. -1.
<mgrwt>
<rscale>  0 0.22491983E+04</rscale>
<asrwt>0</asrwt>
<pdfrwt beam="1">  1        4 0.17596093E+00 0.22491983E+04</pdfrwt>
<pdfrwt beam="2">  1       -4 0.14668415E+00 0.22491983E+04</pdfrwt>
<totfact> 0.11137603E-01</totfact>
</mgrwt>
</event>
<event>
 8    1  0.5217667E-029  0.1516689E+04  0.7818608E-02  0.8873430E-01
         -4   -1    0    0    0  501 -0.00000000000E+00  0.00000000000E+00  0.21353953891E+04  0.21353957668E+04  0.12700000000E+01 0. -1.
          4   -1    0    0  501    0  0.00000000000E+00 -0.00000000000E+00 -0.26930950444E+03  0.26931249893E+03  0.12700000000E+01 0.  1.
     200001    2    1    2    0    0  0.18200956419E+03  0.17062903675E+03  0.69467429189E+03  0.10174639219E+04  0.70029901539E+03 0.  0.
    5000001    2    3    3    0    0  0.91609770056E+02  0.95293595869E+01  0.25086436035E+03  0.32385561452E+03  0.18293816742E+03 0.  0.
        -13    1    4    4    0    0  0.29110598666E+02  0.75314300173E+02  0.19979828932E+03  0.21549718872E+03  0.10566000000E+00 0. -1.
     200003    1    4    4    0    0  0.62499171390E+02 -0.65784940586E+02  0.51066071028E+02  0.10835842580E+03  0.30000000000E+02 0. -1.
     200000    1    3    3    0    0  0.90399794133E+02  0.16109967717E+03  0.44380993154E+03  0.69360830740E+03  0.50000000000E+03 0.  1.
    -200001    1    1    2    0    0 -0.18200956419E+03 -0.17062903675E+03  0.11714115928E+04  0.13872443438E+04  0.70000000000E+03 0. -1.
<mgrwt>
<rscale>  0 0.15166889E+04</rscale>
<asrwt>0</asrwt>
<pdfrwt beam="1">  1        4 0.38473026E-01 0.15166889E+04</pdfrwt>
<pdfrwt beam="2">  1       -4 0.30505673E+00 0.15166889E+04</pdfrwt>
<totfact> 0.36992523E-01</totfact>
</mgrwt>
</event>
<event>
 8    1  0.5217667E-029  0.1668913E+04  0.7818608E-02  0.8779296E-01
         -4   -1    0    0    0  501 -0.00000000000E+00  0.00000000000E+00  0.76504985494E+03  0.76505090906E+03  0.12700000000E+01 0. -1.
          4   -1    0    0  501    0  0.00000000000E+00 -0.00000000000E+00 -0.91015803336E+03  0.91015891941E+03  0.12700000000E+01 0.  1.
     200001    2    1    2    0    0  0.61159716861E+02 -0.25567294471E+03  0.29968350395E+03  0.80518177931E+03  0.69957010340E+03 0.  0.
    5000001    2    3    3    0    0  0.75306209126E+02 -0.68304426576E+02  0.10186094705E+03  0.23558468588E+03  0.18651533949E+03 0.  0.
        -13    1    4    4    0    0  0.12291867225E+03 -0.79864410729E+02  0.10120805042E+03  0.17813030265E+03  0.10566000000E+00 0. -1.
     200003    1    4    4    0    0 -0.47612463121E+02  0.11559984153E+02  0.65289662925E+00  0.57454383227E+02  0.30000000000E+02 0. -1.
     200000    1    3    3    0    0 -0.14146492266E+02 -0.18736851813E+03  0.19782255689E+03  0.56959709343E+03  0.50000000000E+03 0. -1.
    -200001    1    1    2    0    0 -0.61159716861E+02  0.25567294471E+03 -0.44479168236E+03  0.87002804916E+03  0.70000000000E+03 0.  1.
<mgrwt>
<rscale>  0 0.16689133E+04</rscale>
<asrwt>0</asrwt>
<pdfrwt beam="1">  1        4 0.13002271E+00 0.16689133E+04</pdfrwt>
<pdfrwt beam="2">  1       -4 0.10929298E+00 0.16689133E+04</pdfrwt>
<totfact> 0.55346904E-01</totfact>
</mgrwt>
</event>
<event>
 8    1  0.5217667E-029  0.1673640E+04  0.7818608E-02  0.8776543E-01
          4   -1    0    0  501    0  0.00000000000E+00  0.00000000000E+00  0.84130937713E+03  0.84131033570E+03  0.12700000000E+01 0.  1.
         -4   -1    0    0    0  501 -0.00000000000E+00 -0.00000000000E+00 -0.83235230195E+03  0.83235327083E+03  0.12700000000E+01 0. -1.
     200001    2    1    2    0    0 -0.35062031021E+02  0.66014171296E+01  0.46078953728E+03  0.83974184849E+03  0.70111799985E+03 0.  0.
    5000001    2    3    3    0    0 -0.26779107010E+02  0.63574940892E+02  0.18984485521E+03  0.26814267951E+03  0.17635343445E+03 0.  0.
        -13    1    4    4    0    0  0.49697149286E+02  0.74903083362E+02  0.43333233802E+02  0.99790073955E+02  0.10566000000E+00 0. -1.
     200003    1    4    4    0    0 -0.76476256296E+02 -0.11328142470E+02  0.14651162141E+03  0.16835260555E+03  0.30000000000E+02 0. -1.
     200000    1    3    3    0    0 -0.82829240105E+01 -0.56973523762E+02  0.27094468207E+03  0.57159916898E+03  0.50000000000E+03 0.  1.
    -200001    1    1    2    0    0  0.35062031021E+02 -0.66014171296E+01 -0.45183246209E+03  0.83392175804E+03  0.70000000000E+03 0. -1.
<mgrwt>
<rscale>  0 0.16736396E+04</rscale>
<asrwt>0</asrwt>
<pdfrwt beam="1">  1        4 0.12018719E+00 0.16736396E+04</pdfrwt>
<pdfrwt beam="2">  1       -4 0.11890761E+00 0.16736396E+04</pdfrwt>
<totfact> 0.54872919E-01</totfact>
</mgrwt>
</event>
<event>
 8    1  0.5217667E-029  0.1431974E+04  0.7818608E-02  0.8930994E-01
         -4   -1    0    0    0  501 -0.00000000000E+00  0.00000000000E+00  0.10936627478E+04  0.10936634852E+04  0.12700000000E+01 0. -1.
          4   -1    0    0  501    0  0.00000000000E+00 -0.00000000000E+00 -0.46873275036E+03  0.46873447085E+03  0.12700000000E+01 0.  1.
     200001    2    1    2    0    0  0.13308166426E+03  0.58646678858E+02  0.35938993455E+03  0.79973047454E+03  0.69946947364E+03 0.  0.
    5000001    2    3    3    0    0  0.22192280225E+02  0.13241072256E+02  0.18333611857E+03  0.25626651923E+03  0.17717949433E+03 0.  0.
        -13    1    4    4    0    0  0.34772155281E+02  0.48913734149E+02  0.19712469187E+03  0.20605778675E+03  0.10566000000E+00 0. -1.
     200003    1    4    4    0    0 -0.12579875056E+02 -0.35672661893E+02 -0.13788573308E+02  0.50208732476E+02  0.30000000000E+02 0. -1.
     200000    1    3    3    0    0  0.11088938404E+03  0.45405606602E+02  0.17605381599E+03  0.54346395531E+03  0.50000000000E+03 0. -1.
    -200001    1    1    2    0    0 -0.13308166426E+03 -0.58646678858E+02  0.26554006286E+03  0.76266748147E+03  0.70000000000E+03 0.  1.
<mgrwt>
<rscale>  0 0.14319741E+04</rscale>
<asrwt>0</asrwt>
<pdfrwt beam="1">  1        4 0.66961997E-01 0.14319741E+04</pdfrwt>
<pdfrwt beam="2">  1       -4 0.15623771E+00 0.14319741E+04</pdfrwt>
<totfact> 0.10757607E+00</totfact>
</mgrwt>
</event>
<event>
 8    1  0.5217667E-029  0.1840562E+04  0.7818608E-02  0.8685022E-01
         -4   -1    0    0    0  501 -0.00000000000E+00  0.00000000000E+00  0.54212104127E+03  0.54212252885E+03  0.12700000000E+01 0. -1.
          4   -1    0    0  501    0  0.00000000000E+00 -0.00000000000E+00 -0.15622246737E+04  0.15622251899E+04  0.12700000000E+01 0.  1.
     200001    2    1    2    0    0  0.56654433226E+03 -0.17048509529E+03 -0.60507025408E+03  0.10982213086E+04  0.69995884318E+03 0.  0.
    5000001    2    3    3    0    0  0.17483033778E+03 -0.10835763400E+03 -0.24301165709E+03  0.36447332558E+03  0.17742354896E+03 0.  0.
        -13    1    4    4    0    0  0.87922083448E+02 -0.12758872828E+03 -0.75363087771E+02  0.17230433107E+03  0.10566000000E+00 0. -1.
     200003    1    4    4    0    0  0.86908254332E+02  0.19231094283E+02 -0.16764856932E+03  0.19216899452E+03  0.30000000000E+02 0. -1.
     200000    1    3    3    0    0  0.39171399448E+03 -0.62127461293E+02 -0.36205859699E+03  0.73374798301E+03  0.50000000000E+03 0.  1.
    -200001    1    1    2    0    0 -0.56654433226E+03  0.17048509529E+03 -0.41503337837E+03  0.10061264102E+04  0.70000000000E+03 0. -1.
<mgrwt>
<rscale>  0 0.18405618E+04</rscale>
<asrwt>0</asrwt>
<pdfrwt beam="1">  1        4 0.22317509E+00 0.18405618E+04</pdfrwt>
<pdfrwt beam="2">  1       -4 0.77446007E-01 0.18405618E+04</pdfrwt>
<totfact> 0.26370047E-01</totfact>
</mgrwt>
</event>
<event>
 8    1  0.5217667E-029  0.1927191E+04  0.7818608E-02  0.8641439E-01
         -4   -1    0    0    0  501 -0.00000000000E+00  0.00000000000E+00  0.85428251275E+03  0.85428345676E+03  0.12700000000E+01 0. -1.
          4   -1    0    0  501    0  0.00000000000E+00 -0.00000000000E+00 -0.10868945244E+04  0.10868952664E+04  0.12700000000E+01 0.  1.
     200001    2    1    2    0    0 -0.37583224794E+03 -0.50732523118E+03  0.87380202393E+02  0.94567694725E+03  0.69859918409E+03 0.  0.
    5000001    2    3    3    0    0  0.20940518203E+02 -0.32242173810E+02 -0.60625767351E+02  0.13633257900E+03  0.11590092905E+03 0.  0.
        -13    1    4    4    0    0  0.18696354911E+02 -0.65062450071E+02 -0.61989243409E+02  0.91789724690E+02  0.10566000000E+00 0. -1.
     200003    1    4    4    0    0  0.22441632926E+01  0.32820276261E+02  0.13634760576E+01  0.44542854306E+02  0.30000000000E+02 0. -1.
     200000    1    3    3    0    0 -0.39677276614E+03 -0.47508305737E+03  0.14800596974E+03  0.80934436826E+03  0.50000000000E+03 0.  1.
    -200001    1    1    2    0    0  0.37583224794E+03  0.50732523118E+03 -0.31999221407E+03  0.99550177591E+03  0.70000000000E+03 0.  1.
<mgrwt>
<rscale>  0 0.19271913E+04</rscale>
<asrwt>0</asrwt>
<pdfrwt beam="1">  1        4 0.15527077E+00 0.19271913E+04</pdfrwt>
<pdfrwt beam="2">  1       -4 0.12204048E+00 0.19271913E+04</pdfrwt>
<totfact> 0.25972483E-01</totfact>
</mgrwt>
</event>
<event>
 8    1  0.5217667E-029  0.1706477E+04  0.7818608E-02  0.8757679E-01
          4   -1    0    0  501    0  0.00000000000E+00  0.00000000000E+00  0.51495360573E+03  0.51495517179E+03  0.12700000000E+01 0.  1.
         -4   -1    0    0    0  501 -0.00000000000E+00 -0.00000000000E+00 -0.14137467594E+04  0.14137473299E+04  0.12700000000E+01 0. -1.
     200001    2    1    2    0    0 -0.61364952518E+02 -0.36762665925E+02  0.96080654529E+02  0.71014144643E+03  0.69996587828E+03 0.  0.
    5000001    2    3    3    0    0  0.97132294493E+01  0.40852404582E+02 -0.63064469336E+02  0.17497476439E+03  0.15772056015E+03 0.  0.
        -13    1    4    4    0    0  0.74465644671E+01 -0.16823995437E+02  0.45126454086E+02  0.48733009010E+02  0.10566000000E+00 0. -1.
     200003    1    4    4    0    0  0.22666649822E+01  0.57676400019E+02 -0.10819092342E+03  0.12624175538E+03  0.30000000000E+02 0. -1.
     200000    1    3    3    0    0 -0.71078181967E+02 -0.77615070507E+02  0.15914512387E+03  0.53516668205E+03  0.50000000000E+03 0.  1.
    -200001    1    1    2    0    0  0.61364952518E+02  0.36762665925E+02 -0.99487380825E+03  0.12185610552E+04  0.70000000000E+03 0. -1.
<mgrwt>
<rscale>  0 0.17064771E+04</rscale>
<asrwt>0</asrwt>
<pdfrwt beam="1">  1        4 0.73564954E-01 0.17064771E+04</pdfrwt>
<pdfrwt beam="2">  1       -4 0.20196397E+00 0.17064771E+04</pdfrwt>
<totfact> 0.41003346E-01</totfact>
</mgrwt>
</event>
<event>
 8    1  0.5217667E-029  0.1508168E+04  0.7818608E-02  0.8879039E-01
         -4   -1    0    0    0  501 -0.00000000000E+00  0.00000000000E+00  0.40663406279E+03  0.40663604601E+03  0.12700000000E+01 0. -1.
          4   -1    0    0  501    0  0.00000000000E+00 -0.00000000000E+00 -0.13984084667E+04  0.13984090434E+04  0.12700000000E+01 0.  1.
     200001    2    1    2    0    0 -0.62196736271E+01  0.24017137731E+03 -0.32460921073E+03  0.80863635307E+03  0.70057165015E+03 0.  0.
    5000001    2    3    3    0    0 -0.34322141717E+02  0.18504389988E+03 -0.44013452372E+01  0.21167583126E+03  0.96788591293E+02 0.  0.
        -13    1    4    4    0    0 -0.32992260181E+02  0.16816844942E+03 -0.22364040371E+02  0.17282730710E+03  0.10566000000E+00 0. -1.
     200003    1    4    4    0    0 -0.13298815365E+01  0.16875450457E+02  0.17962695133E+02  0.38848524161E+02  0.30000000000E+02 0. -1.
     200000    1    3    3    0    0  0.28102468090E+02  0.55127477432E+02 -0.32020786549E+03  0.59696052181E+03  0.50000000000E+03 0.  1.
    -200001    1    1    2    0    0  0.62196736271E+01 -0.24017137731E+03 -0.66716519315E+03  0.99640873629E+03  0.70000000000E+03 0.  1.
<mgrwt>
<rscale>  0 0.15081682E+04</rscale>
<asrwt>0</asrwt>
<pdfrwt beam="1">  1        4 0.19977282E+00 0.15081682E+04</pdfrwt>
<pdfrwt beam="2">  1       -4 0.58090764E-01 0.15081682E+04</pdfrwt>
<totfact> 0.72073166E-01</totfact>
</mgrwt>
</event>
<event>
 8    1  0.5217667E-029  0.1785740E+04  0.7818608E-02  0.8713920E-01
         -4   -1    0    0    0  501 -0.00000000000E+00  0.00000000000E+00  0.14118945090E+04  0.14118950802E+04  0.12700000000E+01 0.  1.
          4   -1    0    0  501    0  0.00000000000E+00 -0.00000000000E+00 -0.56464210892E+03  0.56464353717E+03  0.12700000000E+01 0. -1.
     200001    2    1    2    0    0  0.52578199254E+03 -0.10075667778E+03  0.29988250133E+03  0.93913203463E+03  0.71094363494E+03 0.  0.
    5000001    2    3    3    0    0  0.11119577165E+03 -0.12870443024E+02  0.50860851683E+02  0.23797762453E+03  0.20375567625E+03 0.  0.
        -13    1    4    4    0    0  0.89426199385E+02  0.81859527957E+02  0.61060564116E+02  0.13574399106E+03  0.10566000000E+00 0. -1.
     200003    1    4    4    0    0  0.21769572268E+02 -0.94729970981E+02 -0.10199712433E+02  0.10223363347E+03  0.30000000000E+02 0. -1.
     200000    1    3    3    0    0  0.41458622089E+03 -0.87886234753E+02  0.24902164965E+03  0.70115441010E+03  0.50000000000E+03 0. -1.
    -200001    1    1    2    0    0 -0.52578199254E+03  0.10075667778E+03  0.54736989873E+03  0.10374065827E+04  0.70000000000E+03 0. -1.
<mgrwt>
<rscale>  0 0.17857403E+04</rscale>
<asrwt>0</asrwt>
<pdfrwt beam="1">  1        4 0.80663304E-01 0.17857403E+04</pdfrwt>
<pdfrwt beam="2">  1       -4 0.20169935E+00 0.17857403E+04</pdfrwt>
<totfact> 0.33248211E-01</totfact>
</mgrwt>
</event>
<event>
 8    1  0.5217667E-029  0.1458126E+04  0.7818608E-02  0.8912787E-01
         -4   -1    0    0    0  501 -0.00000000000E+00  0.00000000000E+00  0.17426194764E+04  0.17426199392E+04  0.12700000000E+01 0. -1.
          4   -1    0    0  501    0  0.00000000000E+00 -0.00000000000E+00 -0.30501744690E+03  0.30502009084E+03  0.12700000000E+01 0.  1.
     200001    2    1    2    0    0  0.17194268085E+03 -0.66561697056E+02  0.58497486746E+03  0.92917330166E+03  0.69797756693E+03 0.  0.
    5000001    2    3    3    0    0 -0.40942252846E+02 -0.89577526191E+02  0.12689068375E+03  0.21805387234E+03  0.14746472240E+03 0.  0.
        -13    1    4    4    0    0  0.32128366679E+02 -0.37535691088E+02  0.11184569163E+03  0.12227276864E+03  0.10566000000E+00 0. -1.
     200003    1    4    4    0    0 -0.73070619525E+02 -0.52041835103E+02  0.15044992128E+02  0.95781103704E+02  0.30000000000E+02 0. -1.
     200000    1    3    3    0    0  0.21288493370E+03  0.23015829135E+02  0.45808418371E+03  0.71111942932E+03  0.50000000000E+03 0. -1.
    -200001    1    1    2    0    0 -0.17194268085E+03  0.66561697056E+02  0.85262716203E+03  0.11184667284E+04  0.70000000000E+03 0.  1.
<mgrwt>
<rscale>  0 0.14581255E+04</rscale>
<asrwt>0</asrwt>
<pdfrwt beam="1">  1        4 0.43574145E-01 0.14581255E+04</pdfrwt>
<pdfrwt beam="2">  1       -4 0.24894585E+00 0.14581255E+04</pdfrwt>
<totfact> 0.64202843E-01</totfact>
</mgrwt>
</event>
<event>
 8    1  0.5217667E-029  0.1506421E+04  0.7818608E-02  0.8880194E-01
         -4   -1    0    0    0  501 -0.00000000000E+00  0.00000000000E+00  0.13303318168E+04  0.13303324230E+04  0.12700000000E+01 0. -1.
          4   -1    0    0  501    0  0.00000000000E+00 -0.00000000000E+00 -0.42645281439E+03  0.42645470545E+03  0.12700000000E+01 0.  1.
     200001    2    1    2    0    0 -0.81658827879E+02  0.23864686043E+03  0.31581883980E+03  0.80840153018E+03  0.70010785330E+03 0.  0.
    5000001    2    3    3    0    0  0.84025927581E+02  0.32972810011E+02  0.40726211696E+02  0.17956990944E+03  0.14979708058E+03 0.  0.
        -13    1    4    4    0    0  0.10364084623E+03  0.18320520300E+02 -0.20404085124E+02  0.10720729605E+03  0.10566000000E+00 0. -1.
     200003    1    4    4    0    0 -0.19614918651E+02  0.14652289711E+02  0.61130296820E+02  0.72362613391E+02  0.30000000000E+02 0. -1.
     200000    1    3    3    0    0 -0.16568475546E+03  0.20567405042E+03  0.27509262811E+03  0.62883162074E+03  0.50000000000E+03 0. -1.
    -200001    1    1    2    0    0  0.81658827879E+02 -0.23864686043E+03  0.58806016258E+03  0.94838559825E+03  0.70000000000E+03 0. -1.
<mgrwt>
<rscale>  0 0.15064208E+04</rscale>
<asrwt>0</asrwt>
<pdfrwt beam="1">  1        4 0.60922008E-01 0.15064208E+04</pdfrwt>
<pdfrwt beam="2">  1       -4 0.19004758E+00 0.15064208E+04</pdfrwt>
<totfact> 0.75584256E-01</totfact>
</mgrwt>
</event>
<event>
 8    1  0.5217667E-029  0.1564507E+04  0.7818608E-02  0.8842655E-01
         -4   -1    0    0    0  501 -0.00000000000E+00  0.00000000000E+00  0.79740989179E+03  0.79741090312E+03  0.12700000000E+01 0. -1.
          4   -1    0    0  501    0  0.00000000000E+00 -0.00000000000E+00 -0.76738288536E+03  0.76738393627E+03  0.12700000000E+01 0.  1.
     200001    2    1    2    0    0  0.11434155476E+03  0.16833450360E+01 -0.31354370457E+03  0.77668465785E+03  0.70132202181E+03 0.  0.
    5000001    2    3    3    0    0  0.12089370886E+02 -0.16799445939E+02 -0.19496949320E+03  0.25241662881E+03  0.15897382473E+03 0.  0.
        -13    1    4    4    0    0  0.71098713624E+02  0.30294300917E+02 -0.76295141182E+02  0.10859894787E+03  0.10566000000E+00 0. -1.
     200003    1    4    4    0    0 -0.59009342738E+02 -0.47093746856E+02 -0.11867435202E+03  0.14381768094E+03  0.30000000000E+02 0. -1.
     200000    1    3    3    0    0  0.10225218388E+03  0.18482790975E+02 -0.11857421136E+03  0.52426802904E+03  0.50000000000E+03 0.  1.
    -200001    1    1    2    0    0 -0.11434155476E+03 -0.16833450360E+01  0.34357071099E+03  0.78811018154E+03  0.70000000000E+03 0. -1.
<mgrwt>
<rscale>  0 0.15645067E+04</rscale>
<asrwt>0</asrwt>
<pdfrwt beam="1">  1        4 0.10962627E+00 0.15645067E+04</pdfrwt>
<pdfrwt beam="2">  1       -4 0.11391585E+00 0.15645067E+04</pdfrwt>
<totfact> 0.77057002E-01</totfact>
</mgrwt>
</event>
<event>
 8    1  0.5217667E-029  0.1597277E+04  0.7818608E-02  0.8822222E-01
          4   -1    0    0  501    0  0.00000000000E+00  0.00000000000E+00  0.65419594806E+03  0.65419718079E+03  0.12700000000E+01 0.  1.
         -4   -1    0    0    0  501 -0.00000000000E+00 -0.00000000000E+00 -0.97497085601E+03  0.97497168317E+03  0.12700000000E+01 0. -1.
     200001    2    1    2    0    0  0.17595578945E+03  0.21582141284E+03  0.10924167805E+03  0.76172803812E+03  0.70054017569E+03 0.  0.
    5000001    2    3    3    0    0  0.63946263108E+02 -0.15194613801E+01  0.23178780160E+02  0.19853179169E+03  0.18651054430E+03 0.  0.
        -13    1    4    4    0    0 -0.51680683270E+02 -0.29234090461E+02  0.44321708922E+02  0.74094197574E+02  0.10566000000E+00 0. -1.
     200003    1    4    4    0    0  0.11562694638E+03  0.27714629081E+02 -0.21142928762E+02  0.12443759412E+03  0.30000000000E+02 0. -1.
     200000    1    3    3    0    0  0.11200952635E+03  0.21734087422E+03  0.86062897890E+02  0.56319624643E+03  0.50000000000E+03 0.  1.
    -200001    1    1    2    0    0 -0.17595578945E+03 -0.21582141284E+03 -0.43001658601E+03  0.86744082583E+03  0.70000000000E+03 0.  1.
<mgrwt>
<rscale>  0 0.15972773E+04</rscale>
<asrwt>0</asrwt>
<pdfrwt beam="1">  1        4 0.93456711E-01 0.15972773E+04</pdfrwt>
<pdfrwt beam="2">  1       -4 0.13928170E+00 0.15972773E+04</pdfrwt>
<totfact> 0.67779556E-01</totfact>
</mgrwt>
</event>
<event>
 8    1  0.5217667E-029  0.1766584E+04  0.7818608E-02  0.8724274E-01
          4   -1    0    0  501    0  0.00000000000E+00  0.00000000000E+00  0.66393091064E+03  0.66393212530E+03  0.12700000000E+01 0.  1.
         -4   -1    0    0    0  501 -0.00000000000E+00 -0.00000000000E+00 -0.11751274478E+04  0.11751281340E+04  0.12700000000E+01 0. -1.
     200001    2    1    2    0    0 -0.72970359722E+02  0.29224861104E+03  0.20963395616E+03  0.79009385182E+03  0.69969134270E+03 0.  0.
    5000001    2    3    3    0    0  0.18142934530E+02  0.13700749639E+03  0.11859559129E+03  0.25093764074E+03  0.17263998704E+03 0.  0.
        -13    1    4    4    0    0  0.11987706004E+02  0.39106740980E+02 -0.43118848336E+02  0.59433059245E+02  0.10566000000E+00 0. -1.
     200003    1    4    4    0    0  0.61552285264E+01  0.97900755412E+02  0.16171443963E+03  0.19150458149E+03  0.30000000000E+02 0. -1.
     200000    1    3    3    0    0 -0.91113294252E+02  0.15524111465E+03  0.91038364867E+02  0.53915621108E+03  0.50000000000E+03 0.  1.
    -200001    1    1    2    0    0  0.72970359722E+02 -0.29224861104E+03 -0.72083049330E+03  0.10489664075E+04  0.70000000000E+03 0. -1.
<mgrwt>
<rscale>  0 0.17665845E+04</rscale>
<asrwt>0</asrwt>
<pdfrwt beam="1">  1        4 0.94847409E-01 0.17665845E+04</pdfrwt>
<pdfrwt beam="2">  1       -4 0.16787549E+00 0.17665845E+04</pdfrwt>
<totfact> 0.39109061E-01</totfact>
</mgrwt>
</event>
<event>
 8    1  0.5217667E-029  0.1598540E+04  0.7818608E-02  0.8821445E-01
          4   -1    0    0  501    0  0.00000000000E+00  0.00000000000E+00  0.37762698766E+03  0.37762912323E+03  0.12700000000E+01 0.  1.
         -4   -1    0    0    0  501 -0.00000000000E+00 -0.00000000000E+00 -0.16916963648E+04  0.16916968415E+04  0.12700000000E+01 0. -1.
     200001    2    1    2    0    0 -0.10693992824E+03 -0.20914918192E+03 -0.26939388362E+03  0.79005804311E+03  0.70458435861E+03 0.  0.
    5000001    2    3    3    0    0 -0.23771727450E+02  0.59519773841E+02 -0.39393479315E+02  0.17199644149E+03  0.15467136506E+03 0.  0.
        -13    1    4    4    0    0 -0.59849514092E+02 -0.28046888034E+02 -0.28766838972E+02  0.72084217787E+02  0.10566000000E+00 0. -1.
     200003    1    4    4    0    0  0.36077786642E+02  0.87566661875E+02 -0.10626640344E+02  0.99912223706E+02  0.30000000000E+02 0. -1.
     200000    1    3    3    0    0 -0.83168200793E+02 -0.26866895576E+03 -0.23000040431E+03  0.61806160162E+03  0.50000000000E+03 0.  1.
    -200001    1    1    2    0    0  0.10693992824E+03  0.20914918192E+03 -0.10446754935E+04  0.12792679216E+04  0.70000000000E+03 0. -1.
<mgrwt>
<rscale>  0 0.15985405E+04</rscale>
<asrwt>0</asrwt>
<pdfrwt beam="1">  1        4 0.53946900E-01 0.15985405E+04</pdfrwt>
<pdfrwt beam="2">  1       -4 0.24167109E+00 0.15985405E+04</pdfrwt>
<totfact> 0.45246148E-01</totfact>
</mgrwt>
</event>
<event>
 8    1  0.5217667E-029  0.1643055E+04  0.7818608E-02  0.8794526E-01
          4   -1    0    0  501    0  0.00000000000E+00  0.00000000000E+00  0.11513432475E+04  0.11513439480E+04  0.12700000000E+01 0.  1.
         -4   -1    0    0    0  501 -0.00000000000E+00 -0.00000000000E+00 -0.58618978402E+03  0.58619115976E+03  0.12700000000E+01 0. -1.
     200001    2    1    2    0    0 -0.37992574632E+03 -0.16688230186E+02  0.68790085818E+02  0.79891981250E+03  0.69922723142E+03 0.  0.
    5000001    2    3    3    0    0 -0.10667063963E+02  0.35528846736E+02 -0.43956513001E+02  0.16505043072E+03  0.15470418365E+03 0.  0.
        -13    1    4    4    0    0  0.28448185258E+01 -0.50763292050E+02 -0.51527526321E+02  0.72388548438E+02  0.10566000000E+00 0. -1.
     200003    1    4    4    0    0 -0.13511882489E+02  0.86292138785E+02  0.75710133197E+01  0.92661882278E+02  0.30000000000E+02 0. -1.
     200000    1    3    3    0    0 -0.36925868236E+03 -0.52217076921E+02  0.11274659882E+03  0.63386938179E+03  0.50000000000E+03 0. -1.
    -200001    1    1    2    0    0  0.37992574632E+03  0.16688230186E+02  0.49636337771E+03  0.93861529525E+03  0.70000000000E+03 0.  1.
<mgrwt>
<rscale>  0 0.16430550E+04</rscale>
<asrwt>0</asrwt>
<pdfrwt beam="1">  1        4 0.16447775E+00 0.16430550E+04</pdfrwt>
<pdfrwt beam="2">  1       -4 0.83741546E-01 0.16430550E+04</pdfrwt>
<totfact> 0.55780375E-01</totfact>
</mgrwt>
</event>
<event>
 8    1  0.5217667E-029  0.1560059E+04  0.7818608E-02  0.8845468E-01
         -4   -1    0    0    0  501 -0.00000000000E+00  0.00000000000E+00  0.20685885702E+04  0.20685889601E+04  0.12700000000E+01 0. -1.
          4   -1    0    0  501    0  0.00000000000E+00 -0.00000000000E+00 -0.29413388173E+03  0.29413662349E+03  0.12700000000E+01 0.  1.
     200001    2    1    2    0    0  0.20723325554E+03 -0.27280593809E+03  0.94525512014E+03  0.12247710035E+04  0.69941980733E+03 0.  0.
    5000001    2    3    3    0    0 -0.13456905776E+02 -0.30351672915E+02  0.28735539088E+03  0.33577141312E+03  0.17049049485E+03 0.  0.
        -13    1    4    4    0    0 -0.87359006703E+02 -0.31178776162E+02  0.17378049910E+03  0.19698574864E+03  0.10566000000E+00 0. -1.
     200003    1    4    4    0    0  0.73902100927E+02  0.82710324692E+00  0.11357489179E+03  0.13878566448E+03  0.30000000000E+02 0. -1.
     200000    1    3    3    0    0  0.22069016131E+03 -0.24245426518E+03  0.65789972926E+03  0.88899959042E+03  0.50000000000E+03 0.  1.
    -200001    1    1    2    0    0 -0.20723325554E+03  0.27280593809E+03  0.82919956832E+03  0.11379545800E+04  0.70000000000E+03 0. -1.
<mgrwt>
<rscale>  0 0.15600586E+04</rscale>
<asrwt>0</asrwt>
<pdfrwt beam="1">  1        4 0.42019348E-01 0.15600586E+04</pdfrwt>
<pdfrwt beam="2">  1       -4 0.29551289E+00 0.15600586E+04</pdfrwt>
<totfact> 0.35368463E-01</totfact>
</mgrwt>
</event>
<event>
 8    1  0.5217667E-029  0.2141383E+04  0.7818608E-02  0.8543230E-01
         -4   -1    0    0    0  501 -0.00000000000E+00  0.00000000000E+00  0.12146657184E+04  0.12146663823E+04  0.12700000000E+01 0. -1.
          4   -1    0    0  501    0  0.00000000000E+00 -0.00000000000E+00 -0.94378115083E+03  0.94378200532E+03  0.12700000000E+01 0.  1.
     200001    2    1    2    0    0  0.60436080978E+03  0.53396405648E+03  0.22333944105E+03  0.10895095956E+04  0.69769696215E+03 0.  0.
    5000001    2    3    3    0    0 -0.10483889932E+02  0.56717492335E+02 -0.34025972737E+02  0.12928293280E+03  0.11058717832E+03 0.  0.
        -13    1    4    4    0    0  0.24095938945E+02  0.52535037208E+02  0.17347352668E+02  0.60344728160E+02  0.10566000000E+00 0. -1.
     200003    1    4    4    0    0 -0.34579828878E+02  0.41824551268E+01 -0.51373325406E+02  0.68938204643E+02  0.30000000000E+02 0. -1.
     200000    1    3    3    0    0  0.61484469972E+03  0.47724656414E+03  0.25736541378E+03  0.96022666281E+03  0.50000000000E+03 0. -1.
    -200001    1    1    2    0    0 -0.60436080978E+03 -0.53396405648E+03  0.47545126501E+02  0.10689387920E+04  0.70000000000E+03 0.  1.
<mgrwt>
<rscale>  0 0.21413830E+04</rscale>
<asrwt>0</asrwt>
<pdfrwt beam="1">  1        4 0.13482599E+00 0.21413830E+04</pdfrwt>
<pdfrwt beam="2">  1       -4 0.17352378E+00 0.21413830E+04</pdfrwt>
<totfact> 0.14574786E-01</totfact>
</mgrwt>
</event>
<event>
 8    1  0.5217667E-029  0.1490006E+04  0.7818608E-02  0.8891126E-01
          4   -1    0    0  501    0  0.00000000000E+00  0.00000000000E+00  0.67166392197E+03  0.67166512264E+03  0.12700000000E+01 0.  1.
         -4   -1    0    0    0  501 -0.00000000000E+00 -0.00000000000E+00 -0.82634794457E+03  0.82634892049E+03  0.12700000000E+01 0. -1.
     200001    2    1    2    0    0 -0.14175127041E+03 -0.35839082596E+02  0.13323952650E+03  0.72711986581E+03  0.69969469437E+03 0.  0.
    5000001    2    3    3    0    0 -0.12740697782E+03 -0.49335956370E+02  0.17258811005E+02  0.21346682075E+03  0.16310623046E+03 0.  0.
        -13    1    4    4    0    0 -0.85738650903E+02 -0.17077317673E+02 -0.66656673294E+02  0.10993577351E+03  0.10566000000E+00 0. -1.
     200003    1    4    4    0    0 -0.41668326912E+02 -0.32258638697E+02  0.83915484299E+02  0.10353104724E+03  0.30000000000E+02 0. -1.
     200000    1    3    3    0    0 -0.14344292590E+02  0.13496873773E+02  0.11598071549E+03  0.51365304506E+03  0.50000000000E+03 0.  1.
    -200001    1    1    2    0    0  0.14175127041E+03  0.35839082596E+02 -0.28792354910E+03  0.77089417732E+03  0.70000000000E+03 0.  1.
<mgrwt>
<rscale>  0 0.14900064E+04</rscale>
<asrwt>0</asrwt>
<pdfrwt beam="1">  1        4 0.95952145E-01 0.14900064E+04</pdfrwt>
<pdfrwt beam="2">  1       -4 0.11804986E+00 0.14900064E+04</pdfrwt>
<totfact> 0.97693917E-01</totfact>
</mgrwt>
</event>
<event>
 8    1  0.5217667E-029  0.1454511E+04  0.7818608E-02  0.8915279E-01
          4   -1    0    0  501    0  0.00000000000E+00  0.00000000000E+00  0.88238157259E+03  0.88238248654E+03  0.12700000000E+01 0.  1.
         -4   -1    0    0    0  501 -0.00000000000E+00 -0.00000000000E+00 -0.59939900377E+03  0.59940034920E+03  0.12700000000E+01 0. -1.
     200001    2    1    2    0    0  0.81387721773E+02 -0.17208149275E+03  0.19339308109E+03  0.75085036437E+03  0.70009955324E+03 0.  0.
    5000001    2    3    3    0    0  0.91009457998E+02 -0.25359283209E+02  0.89488738268E+02  0.21942200886E+03  0.17666909465E+03 0.  0.
        -13    1    4    4    0    0  0.11711461705E+03  0.38081115668E+02  0.39245888526E+02  0.12925268209E+03  0.10566000000E+00 0. -1.
     200003    1    4    4    0    0 -0.26105159054E+02 -0.63440398877E+02  0.50242849743E+02  0.90169326765E+02  0.30000000000E+02 0. -1.
     200000    1    3    3    0    0 -0.96217362249E+01 -0.14672220954E+03  0.10390434282E+03  0.53142835551E+03  0.50000000000E+03 0. -1.
    -200001    1    1    2    0    0 -0.81387721773E+02  0.17208149275E+03  0.89589487727E+02  0.73093247138E+03  0.70000000000E+03 0.  1.
<mgrwt>
<rscale>  0 0.14545107E+04</rscale>
<asrwt>0</asrwt>
<pdfrwt beam="1">  1        4 0.12605467E+00 0.14545107E+04</pdfrwt>
<pdfrwt beam="2">  1       -4 0.85628591E-01 0.14545107E+04</pdfrwt>
<totfact> 0.10828489E+00</totfact>
</mgrwt>
</event>
<event>
 8    1  0.5217667E-029  0.1647556E+04  0.7818608E-02  0.8791854E-01
          4   -1    0    0  501    0  0.00000000000E+00  0.00000000000E+00  0.79186244729E+03  0.79186346571E+03  0.12700000000E+01 0.  1.
         -4   -1    0    0    0  501 -0.00000000000E+00 -0.00000000000E+00 -0.85697742996E+03  0.85697837100E+03  0.12700000000E+01 0. -1.
     200001    2    1    2    0    0 -0.26464436489E+03 -0.28170540571E+03 -0.23099365313E+03  0.83219606969E+03  0.69985545304E+03 0.  0.
    5000001    2    3    3    0    0 -0.90944527061E+02 -0.13023475144E+03  0.39179721298E+02  0.21891909718E+03  0.14545969567E+03 0.  0.
        -13    1    4    4    0    0 -0.24330143352E+02 -0.13358130082E+03 -0.36169673162E+00  0.13577946013E+03  0.10566000000E+00 0. -1.
     200003    1    4    4    0    0 -0.66614383708E+02  0.33465493784E+01  0.39541418030E+02  0.83139637054E+02  0.30000000000E+02 0. -1.
     200000    1    3    3    0    0 -0.17369983783E+03 -0.15147065427E+03 -0.27017337442E+03  0.61327697251E+03  0.50000000000E+03 0. -1.
    -200001    1    1    2    0    0  0.26464436489E+03  0.28170540571E+03  0.16587867046E+03  0.81664576702E+03  0.70000000000E+03 0.  1.
<mgrwt>
<rscale>  0 0.16475556E+04</rscale>
<asrwt>0</asrwt>
<pdfrwt beam="1">  1        4 0.11312335E+00 0.16475556E+04</pdfrwt>
<pdfrwt beam="2">  1       -4 0.12242549E+00 0.16475556E+04</pdfrwt>
<totfact> 0.59345201E-01</totfact>
</mgrwt>
</event>
<event>
 8    1  0.5217667E-029  0.1473046E+04  0.7818608E-02  0.8902577E-01
         -4   -1    0    0    0  501 -0.00000000000E+00  0.00000000000E+00  0.28701972032E+03  0.28702253005E+03  0.12700000000E+01 0. -1.
          4   -1    0    0  501    0  0.00000000000E+00 -0.00000000000E+00 -0.18899839327E+04  0.18899843594E+04  0.12700000000E+01 0.  1.
     200001    2    1    2    0    0  0.17927926749E+03  0.62781583101E+02 -0.61300414478E+03  0.94977279671E+03  0.70015119862E+03 0.  0.
    5000001    2    3    3    0    0  0.41072345785E+02  0.88524620857E+02 -0.25261899328E+03  0.31760089397E+03  0.16592295198E+03 0.  0.
        -13    1    4    4    0    0 -0.23877770430E+02 -0.11838175150E+02 -0.16311584167E+03  0.16527879259E+03  0.10566000000E+00 0. -1.
     200003    1    4    4    0    0  0.64950116216E+02  0.10036279601E+03 -0.89503151611E+02  0.15232210137E+03  0.30000000000E+02 0. -1.
     200000    1    3    3    0    0  0.13820692170E+03 -0.25743037756E+02 -0.36038515149E+03  0.63217190274E+03  0.50000000000E+03 0. -1.
    -200001    1    1    2    0    0 -0.17927926749E+03 -0.62781583101E+02 -0.98996006757E+03  0.12272340927E+04  0.70000000000E+03 0.  1.
<mgrwt>
<rscale>  0 0.14730461E+04</rscale>
<asrwt>0</asrwt>
<pdfrwt beam="1">  1        4 0.26999793E+00 0.14730461E+04</pdfrwt>
<pdfrwt beam="2">  1       -4 0.41003049E-01 0.14730461E+04</pdfrwt>
<totfact> 0.53795886E-01</totfact>
</mgrwt>
</event>
<event>
 8    1  0.5217667E-029  0.2106975E+04  0.7818608E-02  0.8558177E-01
          4   -1    0    0  501    0  0.00000000000E+00  0.00000000000E+00  0.13079480645E+04  0.13079486810E+04  0.12700000000E+01 0.  1.
         -4   -1    0    0    0  501 -0.00000000000E+00 -0.00000000000E+00 -0.84853074244E+03  0.84853169284E+03  0.12700000000E+01 0. -1.
     200001    2    1    2    0    0 -0.95634272771E+02 -0.77535632152E+03  0.12770339008E+03  0.10563178986E+04  0.69941118632E+03 0.  0.
    5000001    2    3    3    0    0 -0.14569209286E+02 -0.25468723018E+03  0.88172826738E+02  0.32883558770E+03  0.18783117230E+03 0.  0.
        -13    1    4    4    0    0  0.56186519805E+02 -0.22655893986E+03  0.79265803655E+02  0.24651360415E+03  0.10566000000E+00 0. -1.
     200003    1    4    4    0    0 -0.70755729091E+02 -0.28128290327E+02  0.89070230830E+01  0.82321983553E+02  0.30000000000E+02 0. -1.
     200000    1    3    3    0    0 -0.81065063485E+02 -0.52066909134E+03  0.39530563347E+02  0.72748231087E+03  0.50000000000E+03 0. -1.
    -200001    1    1    2    0    0  0.95634272771E+02  0.77535632152E+03  0.33171393195E+03  0.11001624753E+04  0.70000000000E+03 0.  1.
<mgrwt>
<rscale>  0 0.21069749E+04</rscale>
<asrwt>0</asrwt>
<pdfrwt beam="1">  1        4 0.18684983E+00 0.21069749E+04</pdfrwt>
<pdfrwt beam="2">  1       -4 0.12121879E+00 0.21069749E+04</pdfrwt>
<totfact> 0.15462476E-01</totfact>
</mgrwt>
</event>
<event>
 8    1  0.5217667E-029  0.1747320E+04  0.7818608E-02  0.8734827E-01
         -4   -1    0    0    0  501 -0.00000000000E+00  0.00000000000E+00  0.10271466049E+04  0.10271473900E+04  0.12700000000E+01 0. -1.
          4   -1    0    0  501    0  0.00000000000E+00 -0.00000000000E+00 -0.74310748096E+03  0.74310856620E+03  0.12700000000E+01 0.  1.
     200001    2    1    2    0    0 -0.37183543800E+03  0.22087595209E+02  0.51580261646E+03  0.94414230105E+03  0.69756927303E+03 0.  0.
    5000001    2    3    3    0    0 -0.12350464768E+03 -0.55761117303E+02  0.18051587880E+03  0.28828728665E+03  0.17933453918E+03 0.  0.
        -13    1    4    4    0    0 -0.15748025784E+03 -0.31840972080E+02  0.17365642393E+03  0.23658073432E+03  0.10566000000E+00 0. -1.
     200003    1    4    4    0    0  0.33975610161E+02 -0.23920145223E+02  0.68594548673E+01  0.51706552335E+02  0.30000000000E+02 0. -1.
     200000    1    3    3    0    0 -0.24833079032E+03  0.77848712512E+02  0.33528673766E+03  0.65585501440E+03  0.50000000000E+03 0. -1.
    -200001    1    1    2    0    0  0.37183543800E+03 -0.22087595209E+02 -0.23176349253E+03  0.82611365518E+03  0.70000000000E+03 0.  1.
<mgrwt>
<rscale>  0 0.17473202E+04</rscale>
<asrwt>0</asrwt>
<pdfrwt beam="1">  1        4 0.10615835E+00 0.17473202E+04</pdfrwt>
<pdfrwt beam="2">  1       -4 0.14673536E+00 0.17473202E+04</pdfrwt>
<totfact> 0.43140026E-01</totfact>
</mgrwt>
</event>
<event>
 8    1  0.5217667E-029  0.1446312E+04  0.7818608E-02  0.8920961E-01
         -4   -1    0    0    0  501 -0.00000000000E+00  0.00000000000E+00  0.75332349860E+03  0.75332456912E+03  0.12700000000E+01 0. -1.
          4   -1    0    0  501    0  0.00000000000E+00 -0.00000000000E+00 -0.69419441072E+03  0.69419557242E+03  0.12700000000E+01 0.  1.
     200001    2    1    2    0    0 -0.10415584128E+03  0.12671670928E+03 -0.47953318867E+02  0.72062798619E+03  0.70007114638E+03 0.  0.
    5000001    2    3    3    0    0 -0.11480075472E+02  0.29046109040E+02 -0.76285032461E+02  0.20204238118E+03  0.18446205310E+03 0.  0.
        -13    1    4    4    0    0 -0.84079006845E+01  0.79280982683E+02  0.26259749211E+02  0.83938981419E+02  0.10566000000E+00 0. -1.
     200003    1    4    4    0    0 -0.30721747879E+01 -0.50234873643E+02 -0.10254478167E+03  0.11810339977E+03  0.30000000000E+02 0. -1.
     200000    1    3    3    0    0 -0.92675765803E+02  0.97670600241E+02  0.28331713595E+02  0.51858560500E+03  0.50000000000E+03 0. -1.
    -200001    1    1    2    0    0  0.10415584128E+03 -0.12671670928E+03  0.10708240674E+03  0.72689215536E+03  0.70000000000E+03 0. -1.
<mgrwt>
<rscale>  0 0.14463120E+04</rscale>
<asrwt>0</asrwt>
<pdfrwt beam="1">  1        4 0.99170790E-01 0.14463120E+04</pdfrwt>
<pdfrwt beam="2">  1       -4 0.10761780E+00 0.14463120E+04</pdfrwt>
<totfact> 0.11362520E+00</totfact>
</mgrwt>
</event>
<event>
 8    1  0.5217667E-029  0.1673950E+04  0.7818608E-02  0.8776363E-01
         -4   -1    0    0    0  501 -0.00000000000E+00  0.00000000000E+00  0.98588432265E+03  0.98588514064E+03  0.12700000000E+01 0. -1.
          4   -1    0    0  501    0  0.00000000000E+00 -0.00000000000E+00 -0.71055514681E+03  0.71055628177E+03  0.12700000000E+01 0.  1.
     200001    2    1    2    0    0  0.27494526969E+03  0.36806911962E+03  0.12315946307E+03  0.84542708668E+03  0.69893413667E+03 0.  0.
    5000001    2    3    3    0    0 -0.53752805959E+02  0.15165047802E+03  0.17055523125E+01  0.19763815053E+03  0.11476366150E+03 0.  0.
        -13    1    4    4    0    0  0.81739139498E+00  0.10859130739E+03 -0.34190405856E+02  0.11384961654E+03  0.10566000000E+00 0. -1.
     200003    1    4    4    0    0 -0.54570197354E+02  0.43059170635E+02  0.35895958168E+02  0.83788533988E+02  0.30000000000E+02 0. -1.
     200000    1    3    3    0    0  0.32869807565E+03  0.21641864160E+03  0.12145391076E+03  0.64778893615E+03  0.50000000000E+03 0.  1.
    -200001    1    1    2    0    0 -0.27494526969E+03 -0.36806911962E+03  0.15216971276E+03  0.85101433573E+03  0.70000000000E+03 0. -1.
<mgrwt>
<rscale>  0 0.16739496E+04</rscale>
<asrwt>0</asrwt>
<pdfrwt beam="1">  1        4 0.10150802E+00 0.16739496E+04</pdfrwt>
<pdfrwt beam="2">  1       -4 0.14084076E+00 0.16739496E+04</pdfrwt>
<totfact> 0.53831410E-01</totfact>
</mgrwt>
</event>
<event>
 8    1  0.5217667E-029  0.1569726E+04  0.7818608E-02  0.8839365E-01
         -4   -1    0    0    0  501 -0.00000000000E+00  0.00000000000E+00  0.40859412186E+03  0.40859609557E+03  0.12700000000E+01 0. -1.
          4   -1    0    0  501    0  0.00000000000E+00 -0.00000000000E+00 -0.15076273145E+04  0.15076278495E+04  0.12700000000E+01 0.  1.
     200001    2    1    2    0    0 -0.10884947673E+03 -0.90661831294E+02 -0.94670500230E+03  0.11859694320E+04  0.70014666747E+03 0.  0.
    5000001    2    3    3    0    0  0.16375773643E+02 -0.30591170467E+02 -0.23745725759E+03  0.30715078687E+03  0.19170725343E+03 0.  0.
        -13    1    4    4    0    0  0.14233520317E+02 -0.53043852502E+02  0.10884647026E+02  0.55988660404E+02  0.10566000000E+00 0. -1.
     200003    1    4    4    0    0  0.21422533257E+01  0.22452682035E+02 -0.24834190462E+03  0.25116212646E+03  0.30000000000E+02 0. -1.
     200000    1    3    3    0    0 -0.12522525037E+03 -0.60070660827E+02 -0.70924774471E+03  0.87881864511E+03  0.50000000000E+03 0.  1.
    -200001    1    1    2    0    0  0.10884947673E+03  0.90661831294E+02 -0.15232819038E+03  0.73025451304E+03  0.70000000000E+03 0. -1.
<mgrwt>
<rscale>  0 0.15697262E+04</rscale>
<asrwt>0</asrwt>
<pdfrwt beam="1">  1        4 0.21537551E+00 0.15697262E+04</pdfrwt>
<pdfrwt beam="2">  1       -4 0.58370769E-01 0.15697262E+04</pdfrwt>
<totfact> 0.56209517E-01</totfact>
</mgrwt>
</event>
<event>
 8    1  0.5217667E-029  0.1587634E+04  0.7818608E-02  0.8828181E-01
         -4   -1    0    0    0  501 -0.00000000000E+00  0.00000000000E+00  0.79336244752E+03  0.79336346402E+03  0.12700000000E+01 0. -1.
          4   -1    0    0  501    0  0.00000000000E+00 -0.00000000000E+00 -0.79426976942E+03  0.79427078475E+03  0.12700000000E+01 0.  1.
     200001    2    1    2    0    0 -0.33165958157E+03  0.17144755928E+03 -0.79896319705E+01  0.79426012344E+03  0.70099426948E+03 0.  0.
    5000001    2    3    3    0    0 -0.19980145579E+03  0.15032676092E+03 -0.24321053201E+02  0.27647699434E+03  0.11545240573E+03 0.  0.
        -13    1    4    4    0    0 -0.46060042402E+01 -0.15789588060E+02 -0.68721519604E+01  0.17825936239E+02  0.10566000000E+00 0. -1.
     200003    1    4    4    0    0 -0.19519545155E+03  0.16611634898E+03 -0.17448901241E+02  0.25865105811E+03  0.30000000000E+02 0. -1.
     200000    1    3    3    0    0 -0.13185812577E+03  0.21120798357E+02  0.16331421230E+02  0.51778312909E+03  0.50000000000E+03 0. -1.
    -200001    1    1    2    0    0  0.33165958157E+03 -0.17144755928E+03  0.70823100780E+01  0.79337412533E+03  0.70000000000E+03 0. -1.
<mgrwt>
<rscale>  0 0.15876340E+04</rscale>
<asrwt>0</asrwt>
<pdfrwt beam="1">  1        4 0.11346725E+00 0.15876340E+04</pdfrwt>
<pdfrwt beam="2">  1       -4 0.11333764E+00 0.15876340E+04</pdfrwt>
<totfact> 0.71614433E-01</totfact>
</mgrwt>
</event>
<event>
 8    1  0.5217667E-029  0.1874221E+04  0.7818608E-02  0.8667795E-01
         -4   -1    0    0    0  501 -0.00000000000E+00  0.00000000000E+00  0.34210675693E+03  0.34210911422E+03  0.12700000000E+01 0.  1.
          4   -1    0    0  501    0  0.00000000000E+00 -0.00000000000E+00 -0.25669547899E+04  0.25669551040E+04  0.12700000000E+01 0. -1.
     200001    2    1    2    0    0 -0.87112308326E+02 -0.30790545338E+03 -0.28335348260E+03  0.82057303764E+03  0.70046883694E+03 0.  0.
    5000001    2    3    3    0    0 -0.11780568639E+03 -0.13120948480E+03 -0.82711005226E+02  0.25275180477E+03  0.16108462305E+03 0.  0.
        -13    1    4    4    0    0 -0.30361677292E+02 -0.83511793754E+02 -0.11360981199E+03  0.14423332378E+03  0.10566000000E+00 0. -1.
     200003    1    4    4    0    0 -0.87444009096E+02 -0.47697691044E+02  0.30898806764E+02  0.10851848099E+03  0.30000000000E+02 0. -1.
     200000    1    3    3    0    0  0.30693378063E+02 -0.17669596859E+03 -0.20064247737E+03  0.56782123287E+03  0.50000000000E+03 0.  1.
    -200001    1    1    2    0    0  0.87112308326E+02  0.30790545338E+03 -0.19414945503E+04  0.20884911806E+04  0.70000000000E+03 0. -1.
<mgrwt>
<rscale>  0 0.18742214E+04</rscale>
<asrwt>0</asrwt>
<pdfrwt beam="1">  1        4 0.36670801E+00 0.18742214E+04</pdfrwt>
<pdfrwt beam="2">  1       -4 0.48872586E-01 0.18742214E+04</pdfrwt>
<totfact> 0.88453728E-02</totfact>
</mgrwt>
</event>
<event>
 8    1  0.5217667E-029  0.1742319E+04  0.7818608E-02  0.8737590E-01
          4   -1    0    0  501    0  0.00000000000E+00  0.00000000000E+00  0.45942952355E+03  0.45943127888E+03  0.12700000000E+01 0.  1.
         -4   -1    0    0    0  501 -0.00000000000E+00 -0.00000000000E+00 -0.16518668506E+04  0.16518673388E+04  0.12700000000E+01 0. -1.
     200001    2    1    2    0    0  0.36061488673E+02 -0.15470537053E+03  0.45391217810E+00  0.71909759368E+03  0.70133227543E+03 0.  0.
    5000001    2    3    3    0    0  0.23980442186E+02  0.78387700970E+02  0.21292841542E+02  0.16690868339E+03  0.14382430330E+03 0.  0.
        -13    1    4    4    0    0  0.51358757161E+02  0.21841328543E+02 -0.44300611892E+02  0.71255322241E+02  0.10566000000E+00 0. -1.
     200003    1    4    4    0    0 -0.27378314975E+02  0.56546372427E+02  0.65593453434E+02  0.95653361148E+02  0.30000000000E+02 0. -1.
     200000    1    3    3    0    0  0.12081046487E+02 -0.23309307150E+03 -0.20838929364E+02  0.55218891029E+03  0.50000000000E+03 0.  1.
    -200001    1    1    2    0    0 -0.36061488673E+02  0.15470537053E+03 -0.11928912392E+04  0.13922010240E+04  0.70000000000E+03 0. -1.
<mgrwt>
<rscale>  0 0.17423189E+04</rscale>
<asrwt>0</asrwt>
<pdfrwt beam="1">  1        4 0.65632950E-01 0.17423189E+04</pdfrwt>
<pdfrwt beam="2">  1       -4 0.23598114E+00 0.17423189E+04</pdfrwt>
<totfact> 0.31862358E-01</totfact>
</mgrwt>
</event>
<event>
 8    1  0.5217667E-029  0.1685451E+04  0.7818608E-02  0.8769706E-01
         -4   -1    0    0    0  501 -0.00000000000E+00  0.00000000000E+00  0.69593447354E+03  0.69593563234E+03  0.12700000000E+01 0. -1.
          4   -1    0    0  501    0  0.00000000000E+00 -0.00000000000E+00 -0.10204760538E+04  0.10204768440E+04  0.12700000000E+01 0.  1.
     200001    2    1    2    0    0 -0.17709456683E+03  0.42560257698E+03 -0.66866496675E+02  0.83954504750E+03  0.69847313426E+03 0.  0.
    5000001    2    3    3    0    0 -0.43698276494E+02  0.75631672709E+02  0.72914287612E+02  0.19937876304E+03  0.16372448970E+03 0.  0.
        -13    1    4    4    0    0 -0.17526679519E+02  0.30604609240E+02 -0.50797143230E+02  0.61840015573E+02  0.10566000000E+00 0. -1.
     200003    1    4    4    0    0 -0.26171596975E+02  0.45027063469E+02  0.12371143084E+03  0.13753874746E+03  0.30000000000E+02 0. -1.
     200000    1    3    3    0    0 -0.13339629033E+03  0.34997090427E+03 -0.13978078429E+03  0.64016628447E+03  0.50000000000E+03 0.  1.
    -200001    1    1    2    0    0  0.17709456683E+03 -0.42560257698E+03 -0.25767508354E+03  0.87686742887E+03  0.70000000000E+03 0.  1.
<mgrwt>
<rscale>  0 0.16854508E+04</rscale>
<asrwt>0</asrwt>
<pdfrwt beam="1">  1        4 0.14578243E+00 0.16854508E+04</pdfrwt>
<pdfrwt beam="2">  1       -4 0.99419350E-01 0.16854508E+04</pdfrwt>
<totfact> 0.51625105E-01</totfact>
</mgrwt>
</event>
<event>
 8    1  0.5217667E-029  0.1955172E+04  0.7818608E-02  0.8627871E-01
         -4   -1    0    0    0  501 -0.00000000000E+00  0.00000000000E+00  0.97686499524E+03  0.97686582079E+03  0.12700000000E+01 0. -1.
          4   -1    0    0  501    0  0.00000000000E+00 -0.00000000000E+00 -0.97830605948E+03  0.97830688381E+03  0.12700000000E+01 0.  1.
     200001    2    1    2    0    0  0.44021866088E+02  0.36794506560E+03 -0.57403963865E+03  0.97783416376E+03  0.69951172191E+03 0.  0.
    5000001    2    3    3    0    0 -0.43124255998E+01  0.12434207447E+03 -0.25070971907E+03  0.33268235377E+03  0.17984058712E+03 0.  0.
        -13    1    4    4    0    0 -0.33460621622E+02  0.22626193812E+02 -0.21242108636E+03  0.21622739637E+03  0.10566000000E+00 0. -1.
     200003    1    4    4    0    0  0.29148196022E+02  0.10171588065E+03 -0.38288632714E+02  0.11645495740E+03  0.30000000000E+02 0. -1.
     200000    1    3    3    0    0  0.48334291687E+02  0.24360299113E+03 -0.32332991958E+03  0.64515180999E+03  0.50000000000E+03 0.  1.
    -200001    1    1    2    0    0 -0.44021866088E+02 -0.36794506560E+03  0.57259857442E+03  0.97733854084E+03  0.70000000000E+03 0. -1.
<mgrwt>
<rscale>  0 0.19551722E+04</rscale>
<asrwt>0</asrwt>
<pdfrwt beam="1">  1        4 0.13975813E+00 0.19551722E+04</pdfrwt>
<pdfrwt beam="2">  1       -4 0.13955226E+00 0.19551722E+04</pdfrwt>
<totfact> 0.24335770E-01</totfact>
</mgrwt>
</event>
<event>
 8    1  0.5217667E-029  0.2249934E+04  0.7818608E-02  0.8497927E-01
          4   -1    0    0  501    0  0.00000000000E+00  0.00000000000E+00  0.12674406289E+04  0.12674412652E+04  0.12700000000E+01 0.  1.
         -4   -1    0    0    0  501 -0.00000000000E+00 -0.00000000000E+00 -0.99850738092E+03  0.99850818858E+03  0.12700000000E+01 0. -1.
     200001    2    1    2    0    0  0.10669544627E+03  0.15615578659E+03 -0.73180431619E+03  0.10301322261E+04  0.69990449207E+03 0.  0.
    5000001    2    3    3    0    0 -0.26708442095E+01 -0.11347597276E+02 -0.33642908244E+03  0.36204544684E+03  0.13325343033E+03 0.  0.
        -13    1    4    4    0    0 -0.31996023055E+02 -0.25713701910E+02 -0.26274738273E+02  0.48737182854E+02  0.10566000000E+00 0. -1.
     200003    1    4    4    0    0  0.29325178845E+02  0.14366104634E+02 -0.31015434416E+03  0.31330826398E+03  0.30000000000E+02 0. -1.
     200000    1    3    3    0    0  0.10936629048E+03  0.16750338387E+03 -0.39537523376E+03  0.66808677922E+03  0.50000000000E+03 0. -1.
    -200001    1    1    2    0    0 -0.10669544627E+03 -0.15615578659E+03  0.10007375641E+04  0.12358172277E+04  0.70000000000E+03 0.  1.
<mgrwt>
<rscale>  0 0.22499337E+04</rscale>
<asrwt>0</asrwt>
<pdfrwt beam="1">  1        4 0.18106305E+00 0.22499337E+04</pdfrwt>
<pdfrwt beam="2">  1       -4 0.14264401E+00 0.22499337E+04</pdfrwt>
<totfact> 0.11042989E-01</totfact>
</mgrwt>
</event>
<event>
 8    1  0.5217667E-029  0.1544507E+04  0.7818608E-02  0.8855384E-01
          4   -1    0    0  501    0  0.00000000000E+00  0.00000000000E+00  0.65529799306E+03  0.65529922372E+03  0.12700000000E+01 0.  1.
         -4   -1    0    0    0  501 -0.00000000000E+00 -0.00000000000E+00 -0.91007994935E+03  0.91008083548E+03  0.12700000000E+01 0. -1.
     200001    2    1    2    0    0 -0.14488561539E+03  0.10094143222E+03 -0.40570716990E+03  0.82784400287E+03  0.69967590433E+03 0.  0.
    5000001    2    3    3    0    0  0.24817915676E+02  0.11466430116E+03 -0.13968150957E+03  0.23644121496E+03  0.15043168921E+03 0.  0.
        -13    1    4    4    0    0  0.44357557400E+02 -0.14577054329E+01 -0.98668763944E+02  0.10819082191E+03  0.10566000000E+00 0. -1.
     200003    1    4    4    0    0 -0.19539641723E+02  0.11612200660E+03 -0.41012745622E+02  0.12825039305E+03  0.30000000000E+02 0. -1.
     200000    1    3    3    0    0 -0.16970353107E+03 -0.13722868940E+02 -0.26602566033E+03  0.59140278791E+03  0.50000000000E+03 0.  1.
    -200001    1    1    2    0    0  0.14488561539E+03 -0.10094143222E+03  0.15092521361E+03  0.73753605633E+03  0.70000000000E+03 0.  1.
<mgrwt>
<rscale>  0 0.15445067E+04</rscale>
<asrwt>0</asrwt>
<pdfrwt beam="1">  1        4 0.93614152E-01 0.15445067E+04</pdfrwt>
<pdfrwt beam="2">  1       -4 0.13001157E+00 0.15445067E+04</pdfrwt>
<totfact> 0.80897001E-01</totfact>
</mgrwt>
</event>
<event>
 8    1  0.5217667E-029  0.1806471E+04  0.7818608E-02  0.8702866E-01
         -4   -1    0    0    0  501 -0.00000000000E+00  0.00000000000E+00  0.41194662027E+03  0.41194857792E+03  0.12700000000E+01 0. -1.
          4   -1    0    0  501    0  0.00000000000E+00 -0.00000000000E+00 -0.19804311966E+04  0.19804316038E+04  0.12700000000E+01 0.  1.
     200001    2    1    2    0    0  0.12582873726E+03  0.20022310006E+03 -0.95408978128E+02  0.74438932043E+03  0.69935000275E+03 0.  0.
    5000001    2    3    3    0    0  0.41975660187E+02 -0.18080137229E+02 -0.14670639029E+03  0.19002566141E+03  0.11179507875E+03 0.  0.
        -13    1    4    4    0    0  0.20156222513E+02 -0.26197121135E+02  0.51860526724E+01  0.33458463325E+02  0.10566000000E+00 0. -1.
     200003    1    4    4    0    0  0.21819437674E+02  0.81169839061E+01 -0.15189244296E+03  0.15656719809E+03  0.30000000000E+02 0. -1.
     200000    1    3    3    0    0  0.83853077077E+02  0.21830323729E+03  0.51297412159E+02  0.55436365902E+03  0.50000000000E+03 0. -1.
    -200001    1    1    2    0    0 -0.12582873726E+03 -0.20022310006E+03 -0.14730755982E+04  0.16479908613E+04  0.70000000000E+03 0.  1.
<mgrwt>
<rscale>  0 0.18064714E+04</rscale>
<asrwt>0</asrwt>
<pdfrwt beam="1">  1        4 0.28291891E+00 0.18064714E+04</pdfrwt>
<pdfrwt beam="2">  1       -4 0.58849687E-01 0.18064714E+04</pdfrwt>
<totfact> 0.20539139E-01</totfact>
</mgrwt>
</event>
<event>
 8    1  0.5217667E-029  0.2126892E+04  0.7818608E-02  0.8549489E-01
         -4   -1    0    0    0  501 -0.00000000000E+00  0.00000000000E+00  0.24203547409E+04  0.24203550740E+04  0.12700000000E+01 0. -1.
          4   -1    0    0  501    0  0.00000000000E+00 -0.00000000000E+00 -0.46725172814E+03  0.46725345408E+03  0.12700000000E+01 0.  1.
     200001    2    1    2    0    0 -0.77791577685E+03  0.15489603589E+03  0.11242890433E+04  0.15437043896E+04  0.69989402881E+03 0.  0.
    5000001    2    3    3    0    0 -0.21081109964E+03  0.15120819198E+02  0.29753387555E+03  0.41469201869E+03  0.19690887324E+03 0.  0.
        -13    1    4    4    0    0  0.27595481926E+02  0.23515446175E+02  0.59117190943E+01  0.36734812076E+02  0.10566000000E+00 0. -1.
     200003    1    4    4    0    0 -0.23840658156E+03 -0.83946269771E+01  0.29162215645E+03  0.37795720661E+03  0.30000000000E+02 0. -1.
     200000    1    3    3    0    0 -0.56710467722E+03  0.13977521669E+03  0.82675516779E+03  0.11290123709E+04  0.50000000000E+03 0.  1.
    -200001    1    1    2    0    0  0.77791577685E+03 -0.15489603589E+03  0.82881396938E+03  0.13439041386E+04  0.70000000000E+03 0. -1.
<mgrwt>
<rscale>  0 0.21268925E+04</rscale>
<asrwt>0</asrwt>
<pdfrwt beam="1">  1        4 0.66750393E-01 0.21268925E+04</pdfrwt>
<pdfrwt beam="2">  1       -4 0.34576512E+00 0.21268925E+04</pdfrwt>
<totfact> 0.60992619E-02</totfact>
</mgrwt>
</event>
<event>
 8    1  0.5217667E-029  0.1562363E+04  0.7818608E-02  0.8844009E-01
          4   -1    0    0  501    0  0.00000000000E+00  0.00000000000E+00  0.55065870756E+03  0.55066017207E+03  0.12700000000E+01 0.  1.
         -4   -1    0    0    0  501 -0.00000000000E+00 -0.00000000000E+00 -0.11082050618E+04  0.11082057895E+04  0.12700000000E+01 0. -1.
     200001    2    1    2    0    0 -0.52171788268E+02  0.23445146009E+03 -0.54390884710E+03  0.91867992802E+03  0.70031892276E+03 0.  0.
    5000001    2    3    3    0    0  0.84419202700E+01  0.77921582965E+02 -0.31536030536E+02  0.18335583128E+03  0.16273229714E+03 0.  0.
        -13    1    4    4    0    0  0.75803989717E+02  0.75242766751E+02 -0.20221173091E+02  0.10870430447E+03  0.10566000000E+00 0. -1.
     200003    1    4    4    0    0 -0.67362069447E+02  0.26788162140E+01 -0.11314857445E+02  0.74651526813E+02  0.30000000000E+02 0. -1.
     200000    1    3    3    0    0 -0.60613708538E+02  0.15652987713E+03 -0.51237281656E+03  0.73532409674E+03  0.50000000000E+03 0. -1.
    -200001    1    1    2    0    0  0.52171788268E+02 -0.23445146009E+03 -0.13637507118E+02  0.74018603353E+03  0.70000000000E+03 0.  1.
<mgrwt>
<rscale>  0 0.15623631E+04</rscale>
<asrwt>0</asrwt>
<pdfrwt beam="1">  1        4 0.78665687E-01 0.15623631E+04</pdfrwt>
<pdfrwt beam="2">  1       -4 0.15831516E+00 0.15623631E+04</pdfrwt>
<totfact> 0.71847467E-01</totfact>
</mgrwt>
</event>
<event>
 8    1  0.5217667E-029  0.2232803E+04  0.7818608E-02  0.8504898E-01
          4   -1    0    0  501    0  0.00000000000E+00  0.00000000000E+00  0.63681942332E+03  0.63682068969E+03  0.12700000000E+01 0.  1.
         -4   -1    0    0    0  501 -0.00000000000E+00 -0.00000000000E+00 -0.19571485074E+04  0.19571489195E+04  0.12700000000E+01 0. -1.
     200001    2    1    2    0    0  0.45914005304E+03  0.72135918228E+03 -0.47117852800E+03  0.12003321652E+04  0.69829753222E+03 0.  0.
    5000001    2    3    3    0    0  0.10994396258E+03  0.16508495943E+03 -0.39495123731E+01  0.25181654932E+03  0.15509757292E+03 0.  0.
        -13    1    4    4    0    0  0.83040037452E+02  0.40174808948E+02 -0.58986811898E+02  0.10949483201E+03  0.10566000000E+00 0. -1.
     200003    1    4    4    0    0  0.26903925125E+02  0.12491015048E+03  0.55037299525E+02  0.14232171732E+03  0.30000000000E+02 0. -1.
     200000    1    3    3    0    0  0.34919609046E+03  0.55627422285E+03 -0.46722901563E+03  0.94851561592E+03  0.50000000000E+03 0. -1.
    -200001    1    1    2    0    0 -0.45914005304E+03 -0.72135918228E+03 -0.84915055611E+03  0.13936374439E+04  0.70000000000E+03 0. -1.
<mgrwt>
<rscale>  0 0.22328030E+04</rscale>
<asrwt>0</asrwt>
<pdfrwt beam="1">  1        4 0.90974324E-01 0.22328030E+04</pdfrwt>
<pdfrwt beam="2">  1       -4 0.27959276E+00 0.22328030E+04</pdfrwt>
<totfact> 0.78490666E-02</totfact>
</mgrwt>
</event>
<event>
 8    1  0.5217667E-029  0.1612218E+04  0.7818608E-02  0.8813077E-01
          4   -1    0    0  501    0  0.00000000000E+00  0.00000000000E+00  0.55530194466E+03  0.55530339694E+03  0.12700000000E+01 0.  1.
         -4   -1    0    0    0  501 -0.00000000000E+00 -0.00000000000E+00 -0.11701915801E+04  0.11701922693E+04  0.12700000000E+01 0. -1.
     200001    2    1    2    0    0 -0.39844164500E+03  0.46189618637E+02 -0.30342665107E+03  0.86068446372E+03  0.69844168559E+03 0.  0.
    5000001    2    3    3    0    0 -0.33231815716E+02  0.77766511438E+02 -0.50727796953E+02  0.19118313404E+03  0.16378552281E+03 0.  0.
        -13    1    4    4    0    0 -0.36684361807E+02  0.96806701126E+02 -0.90666947563E+02  0.13761462978E+03  0.10566000000E+00 0. -1.
     200003    1    4    4    0    0  0.34525460919E+01 -0.19040189689E+02  0.39939150610E+02  0.53568504266E+02  0.30000000000E+02 0. -1.
     200000    1    3    3    0    0 -0.36520982929E+03 -0.31576892800E+02 -0.25269885412E+03  0.66950132968E+03  0.50000000000E+03 0.  1.
    -200001    1    1    2    0    0  0.39844164500E+03 -0.46189618637E+02 -0.31146298441E+03  0.86481120252E+03  0.70000000000E+03 0.  1.
<mgrwt>
<rscale>  0 0.16122177E+04</rscale>
<asrwt>0</asrwt>
<pdfrwt beam="1">  1        4 0.79329002E-01 0.16122177E+04</pdfrwt>
<pdfrwt beam="2">  1       -4 0.16717038E+00 0.16122177E+04</pdfrwt>
<totfact> 0.60457527E-01</totfact>
</mgrwt>
</event>
<event>
 8    1  0.5217667E-029  0.1438215E+04  0.7818608E-02  0.8926612E-01
         -4   -1    0    0    0  501 -0.00000000000E+00  0.00000000000E+00  0.19187353943E+04  0.19187358146E+04  0.12700000000E+01 0. -1.
          4   -1    0    0  501    0  0.00000000000E+00 -0.00000000000E+00 -0.26950665167E+03  0.26950964398E+03  0.12700000000E+01 0.  1.
     200001    2    1    2    0    0  0.11272702071E+02 -0.16128944833E+03  0.77931299440E+03  0.10600190766E+04  0.70012166058E+03 0.  0.
    5000001    2    3    3    0    0  0.35610181442E+02 -0.11893155682E+03  0.23925081601E+03  0.32241914414E+03  0.17691905300E+03 0.  0.
        -13    1    4    4    0    0 -0.61722225833E+02 -0.37689622616E+01  0.58440900290E+02  0.85083419237E+02  0.10566000000E+00 0. -1.
     200003    1    4    4    0    0  0.97332407275E+02 -0.11516259456E+03  0.18080991572E+03  0.23733572490E+03  0.30000000000E+02 0. -1.
     200000    1    3    3    0    0 -0.24337479370E+02 -0.42357891514E+02  0.54006217839E+03  0.73759993248E+03  0.50000000000E+03 0.  1.
    -200001    1    1    2    0    0 -0.11272702071E+02  0.16128944833E+03  0.86991574827E+03  0.11282263820E+04  0.70000000000E+03 0. -1.
<mgrwt>
<rscale>  0 0.14382151E+04</rscale>
<asrwt>0</asrwt>
<pdfrwt beam="1">  1        4 0.38501194E-01 0.14382151E+04</pdfrwt>
<pdfrwt beam="2">  1       -4 0.27410530E+00 0.14382151E+04</pdfrwt>
<totfact> 0.57764370E-01</totfact>
</mgrwt>
</event>
<event>
 8    1  0.5217667E-029  0.2170602E+04  0.7818608E-02  0.8530765E-01
          4   -1    0    0  501    0  0.00000000000E+00  0.00000000000E+00  0.12557685762E+04  0.12557692183E+04  0.12700000000E+01 0.  1.
         -4   -1    0    0    0  501 -0.00000000000E+00 -0.00000000000E+00 -0.93797251269E+03  0.93797337247E+03  0.12700000000E+01 0. -1.
     200001    2    1    2    0    0 -0.14192594792E+03  0.44233803856E+02  0.98421262973E+03  0.12158823534E+04  0.69828059742E+03 0.  0.
    5000001    2    3    3    0    0  0.25776550134E+02 -0.18394823890E+02  0.10173024596E+03  0.18592039755E+03  0.15236322128E+03 0.  0.
        -13    1    4    4    0    0  0.79136751242E+02 -0.40742836153E+02  0.46104310769E+02  0.10024082367E+03  0.10566000000E+00 0. -1.
     200003    1    4    4    0    0 -0.53360201108E+02  0.22348012263E+02  0.55625935193E+02  0.85679573882E+02  0.30000000000E+02 0. -1.
     200000    1    3    3    0    0 -0.16770249805E+03  0.62628627746E+02  0.88248238377E+03  0.10299619559E+04  0.50000000000E+03 0. -1.
    -200001    1    1    2    0    0  0.14192594792E+03 -0.44233803856E+02 -0.66641656626E+03  0.97786023740E+03  0.70000000000E+03 0. -1.
<mgrwt>
<rscale>  0 0.21706018E+04</rscale>
<asrwt>0</asrwt>
<pdfrwt beam="1">  1        4 0.17939562E+00 0.21706018E+04</pdfrwt>
<pdfrwt beam="2">  1       -4 0.13399618E+00 0.21706018E+04</pdfrwt>
<totfact> 0.13431075E-01</totfact>
</mgrwt>
</event>
<event>
 8    1  0.5217667E-029  0.1926728E+04  0.7818608E-02  0.8641665E-01
          4   -1    0    0  501    0  0.00000000000E+00  0.00000000000E+00  0.10594357116E+04  0.10594364728E+04  0.12700000000E+01 0.  1.
         -4   -1    0    0    0  501 -0.00000000000E+00 -0.00000000000E+00 -0.87600267843E+03  0.87600359903E+03  0.12700000000E+01 0. -1.
     200001    2    1    2    0    0 -0.65461666571E+03 -0.38000892532E+02  0.17170518744E+03  0.97621924785E+03  0.70253419960E+03 0.  0.
    5000001    2    3    3    0    0 -0.20995167306E+03  0.13630115192E+02 -0.41964267515E+02  0.27191295608E+03  0.16706337382E+03 0.  0.
        -13    1    4    4    0    0 -0.23032683650E+03  0.12303452768E+02 -0.46640921134E+02  0.23532363513E+03  0.10566000000E+00 0. -1.
     200003    1    4    4    0    0  0.20375163437E+02  0.13266624239E+01  0.46766536192E+01  0.36589320947E+02  0.30000000000E+02 0. -1.
     200000    1    3    3    0    0 -0.44466499265E+03 -0.51631007724E+02  0.21366945495E+03  0.70430629177E+03  0.50000000000E+03 0.  1.
    -200001    1    1    2    0    0  0.65461666571E+03  0.38000892532E+02  0.11727845760E+02  0.95922082402E+03  0.70000000000E+03 0.  1.
<mgrwt>
<rscale>  0 0.19267280E+04</rscale>
<asrwt>0</asrwt>
<pdfrwt beam="1">  1        4 0.15134808E+00 0.19267280E+04</pdfrwt>
<pdfrwt beam="2">  1       -4 0.12514336E+00 0.19267280E+04</pdfrwt>
<totfact> 0.26117422E-01</totfact>
</mgrwt>
</event>
<event>
 8    1  0.5217667E-029  0.1500778E+04  0.7818608E-02  0.8883936E-01
         -4   -1    0    0    0  501 -0.00000000000E+00  0.00000000000E+00  0.14136221305E+04  0.14136227010E+04  0.12700000000E+01 0. -1.
          4   -1    0    0  501    0  0.00000000000E+00 -0.00000000000E+00 -0.39832509561E+03  0.39832712021E+03  0.12700000000E+01 0.  1.
     200001    2    1    2    0    0 -0.16704611239E+03  0.25158326294E+02  0.25292991258E+03  0.76326446599E+03  0.70004411241E+03 0.  0.
    5000001    2    3    3    0    0 -0.10105495511E+03  0.20436785074E+02  0.10536161275E+03  0.23776134620E+03  0.18654656837E+03 0.  0.
        -13    1    4    4    0    0  0.45938284468E+02  0.39380788894E+02  0.42804766664E+02  0.74117688354E+02  0.10566000000E+00 0. -1.
     200003    1    4    4    0    0 -0.14699323958E+03 -0.18944003820E+02  0.62556846085E+02  0.16364365785E+03  0.30000000000E+02 0. -1.
     200000    1    3    3    0    0 -0.65991157279E+02  0.47215412200E+01  0.14756829983E+03  0.52550311979E+03  0.50000000000E+03 0.  1.
    -200001    1    1    2    0    0  0.16704611239E+03 -0.25158326294E+02  0.76236712234E+03  0.10486853552E+04  0.70000000000E+03 0. -1.
<mgrwt>
<rscale>  0 0.15007778E+04</rscale>
<asrwt>0</asrwt>
<pdfrwt beam="1">  1        4 0.56903771E-01 0.15007778E+04</pdfrwt>
<pdfrwt beam="2">  1       -4 0.20194620E+00 0.15007778E+04</pdfrwt>
<totfact> 0.72914907E-01</totfact>
</mgrwt>
</event>
<event>
 8    1  0.5217667E-029  0.2189491E+04  0.7818608E-02  0.8522815E-01
         -4   -1    0    0    0  501 -0.00000000000E+00  0.00000000000E+00  0.13381730020E+04  0.13381736047E+04  0.12700000000E+01 0. -1.
          4   -1    0    0  501    0  0.00000000000E+00 -0.00000000000E+00 -0.89559909204E+03  0.89559999249E+03  0.12700000000E+01 0.  1.
     200001    2    1    2    0    0  0.45057993471E+03  0.39645118074E+03  0.82329712970E+03  0.12362035564E+04  0.70013231085E+03 0.  0.
    5000001    2    3    3    0    0  0.55623008788E+02  0.11466307078E+03  0.21139710378E+03  0.30894029602E+03  0.18577898727E+03 0.  0.
        -13    1    4    4    0    0  0.41286917852E+02  0.10107006115E+03  0.16089490046E+02  0.11035691958E+03  0.10566000000E+00 0. -1.
     200003    1    4    4    0    0  0.14336090937E+02  0.13593009633E+02  0.19530761373E+03  0.19858337644E+03  0.30000000000E+02 0. -1.
     200000    1    3    3    0    0  0.39495692593E+03  0.28178810996E+03  0.61190002592E+03  0.92726326034E+03  0.50000000000E+03 0. -1.
    -200001    1    1    2    0    0 -0.45057993471E+03 -0.39645118074E+03 -0.38072321972E+03  0.99757004081E+03  0.70000000000E+03 0.  1.
<mgrwt>
<rscale>  0 0.21894915E+04</rscale>
<asrwt>0</asrwt>
<pdfrwt beam="1">  1        4 0.12794283E+00 0.21894915E+04</pdfrwt>
<pdfrwt beam="2">  1       -4 0.19116768E+00 0.21894915E+04</pdfrwt>
<totfact> 0.12529609E-01</totfact>
</mgrwt>
</event>
<event>
 8    1  0.5217667E-029  0.1846018E+04  0.7818608E-02  0.8682203E-01
         -4   -1    0    0    0  501 -0.00000000000E+00  0.00000000000E+00  0.97342883447E+03  0.97342966293E+03  0.12700000000E+01 0. -1.
          4   -1    0    0  501    0  0.00000000000E+00 -0.00000000000E+00 -0.87519874985E+03  0.87519967129E+03  0.12700000000E+01 0.  1.
     200001    2    1    2    0    0  0.50960402398E+02  0.11093492757E+03  0.63979694109E+03  0.95520995857E+03  0.69870052122E+03 0.  0.
    5000001    2    3    3    0    0 -0.53806463941E+02 -0.25093412463E+02  0.20230506172E+03  0.26900375771E+03  0.16706546249E+03 0.  0.
        -13    1    4    4    0    0  0.16910309635E+02 -0.45482777169E+02  0.18004337881E+03  0.18646788197E+03  0.10566000000E+00 0. -1.
     200003    1    4    4    0    0 -0.70716773576E+02  0.20389364705E+02  0.22261682911E+02  0.82535875740E+02  0.30000000000E+02 0. -1.
     200000    1    3    3    0    0  0.10476686634E+03  0.13602834003E+03  0.43749187938E+03  0.68620620086E+03  0.50000000000E+03 0. -1.
    -200001    1    1    2    0    0 -0.50960402398E+02 -0.11093492757E+03 -0.54156685647E+03  0.89341937566E+03  0.70000000000E+03 0.  1.
<mgrwt>
<rscale>  0 0.18460177E+04</rscale>
<asrwt>0</asrwt>
<pdfrwt beam="1">  1        4 0.12502852E+00 0.18460177E+04</pdfrwt>
<pdfrwt beam="2">  1       -4 0.13906139E+00 0.18460177E+04</pdfrwt>
<totfact> 0.32945065E-01</totfact>
</mgrwt>
</event>
<event>
 8    1  0.5217667E-029  0.1518032E+04  0.7818608E-02  0.8872550E-01
          4   -1    0    0  501    0  0.00000000000E+00  0.00000000000E+00  0.44269890672E+03  0.44270072838E+03  0.12700000000E+01 0.  1.
         -4   -1    0    0    0  501 -0.00000000000E+00 -0.00000000000E+00 -0.13013432407E+04  0.13013438604E+04  0.12700000000E+01 0. -1.
     200001    2    1    2    0    0 -0.18944489237E+03 -0.20719737031E+03 -0.53082987726E+03  0.92168065749E+03  0.69921009596E+03 0.  0.
    5000001    2    3    3    0    0 -0.22303178505E+02 -0.12916575568E+03 -0.14605861787E+03  0.26435713939E+03  0.17711677809E+03 0.  0.
        -13    1    4    4    0    0  0.30214263311E+02  0.20649733442E+02 -0.83386459120E+02  0.91063856317E+02  0.10566000000E+00 0. -1.
     200003    1    4    4    0    0 -0.52517441816E+02 -0.14981548912E+03 -0.62672158750E+02  0.17329328307E+03  0.30000000000E+02 0. -1.
     200000    1    3    3    0    0 -0.16714171387E+03 -0.78031614626E+02 -0.38477125939E+03  0.65732351810E+03  0.50000000000E+03 0.  1.
    -200001    1    1    2    0    0  0.18944489237E+03  0.20719737031E+03 -0.32781445676E+03  0.82236393134E+03  0.70000000000E+03 0. -1.
<mgrwt>
<rscale>  0 0.15180321E+04</rscale>
<asrwt>0</asrwt>
<pdfrwt beam="1">  1        4 0.63242876E-01 0.15180321E+04</pdfrwt>
<pdfrwt beam="2">  1       -4 0.18590635E+00 0.15180321E+04</pdfrwt>
<totfact> 0.74310680E-01</totfact>
</mgrwt>
</event>
<event>
 8    1  0.5217667E-029  0.2220108E+04  0.7818608E-02  0.8510105E-01
          4   -1    0    0  501    0  0.00000000000E+00  0.00000000000E+00  0.11884895480E+04  0.11884902265E+04  0.12700000000E+01 0.  1.
         -4   -1    0    0    0  501 -0.00000000000E+00 -0.00000000000E+00 -0.10367936215E+04  0.10367943993E+04  0.12700000000E+01 0. -1.
     200001    2    1    2    0    0 -0.13728321812E+03 -0.32870621015E+03  0.86164842802E+03  0.11665462214E+04  0.70106891141E+03 0.  0.
    5000001    2    3    3    0    0 -0.99332023783E+00 -0.34463865831E+02  0.24952933320E+03  0.31223756540E+03  0.18449570289E+03 0.  0.
        -13    1    4    4    0    0  0.69846678260E+02 -0.30839179776E+02  0.34410578774E+02  0.83747910832E+02  0.10566000000E+00 0. -1.
     200003    1    4    4    0    0 -0.70839998498E+02 -0.36246860552E+01  0.21511875443E+03  0.22848965456E+03  0.30000000000E+02 0. -1.
     200000    1    3    3    0    0 -0.13628989788E+03 -0.29424234432E+03  0.61211909482E+03  0.85430865599E+03  0.50000000000E+03 0.  1.
    -200001    1    1    2    0    0  0.13728321812E+03  0.32870621015E+03 -0.70995250155E+03  0.10587384044E+04  0.70000000000E+03 0. -1.
<mgrwt>
<rscale>  0 0.22201081E+04</rscale>
<asrwt>0</asrwt>
<pdfrwt beam="1">  1        4 0.16978433E+00 0.22201081E+04</pdfrwt>
<pdfrwt beam="2">  1       -4 0.14811348E+00 0.22201081E+04</pdfrwt>
<totfact> 0.12038040E-01</totfact>
</mgrwt>
</event>
<event>
 8    1  0.5217667E-029  0.2800560E+04  0.7818608E-02  0.8303095E-01
         -4   -1    0    0    0  501 -0.00000000000E+00  0.00000000000E+00  0.14824080039E+04  0.14824085479E+04  0.12700000000E+01 0.  1.
          4   -1    0    0  501    0  0.00000000000E+00 -0.00000000000E+00 -0.13227006116E+04  0.13227012213E+04  0.12700000000E+01 0. -1.
     200001    2    1    2    0    0  0.54078115849E+03  0.26369901773E+03 -0.97464650912E+03  0.13426665372E+04  0.70059701615E+03 0.  0.
    5000001    2    3    3    0    0  0.19851689610E+03  0.37164735773E+02 -0.13483211451E+03  0.28259539638E+03  0.14453471322E+03 0.  0.
        -13    1    4    4    0    0  0.16828796300E+03  0.12077368111E+02 -0.15509492852E+03  0.22917493171E+03  0.10566000000E+00 0. -1.
     200003    1    4    4    0    0  0.30228933108E+02  0.25087367662E+02  0.20262814009E+02  0.53420464661E+02  0.30000000000E+02 0. -1.
     200000    1    3    3    0    0  0.34226426239E+03  0.22653428196E+03 -0.83981439461E+03  0.10600711408E+04  0.50000000000E+03 0. -1.
    -200001    1    1    2    0    0 -0.54078115849E+03 -0.26369901773E+03  0.11343539014E+04  0.14624432320E+04  0.70000000000E+03 0.  1.
<mgrwt>
<rscale>  0 0.28005597E+04</rscale>
<asrwt>0</asrwt>
<pdfrwt beam="1">  1        4 0.18895731E+00 0.28005597E+04</pdfrwt>
<pdfrwt beam="2">  1       -4 0.21177265E+00 0.28005597E+04</pdfrwt>
<totfact> 0.30105926E-02</totfact>
</mgrwt>
</event>
<event>
 8    1  0.5217667E-029  0.1594124E+04  0.7818608E-02  0.8824166E-01
         -4   -1    0    0    0  501 -0.00000000000E+00  0.00000000000E+00  0.15712501850E+04  0.15712506983E+04  0.12700000000E+01 0. -1.
          4   -1    0    0  501    0  0.00000000000E+00 -0.00000000000E+00 -0.40433137527E+03  0.40433336979E+03  0.12700000000E+01 0.  1.
     200001    2    1    2    0    0 -0.26719226058E+03 -0.15229859792E+03  0.30481232397E+03  0.82327588018E+03  0.70020429518E+03 0.  0.
    5000001    2    3    3    0    0 -0.11958027042E+03 -0.43970451793E+02  0.12015508182E+03  0.25969573152E+03  0.19175971312E+03 0.  0.
        -13    1    4    4    0    0 -0.82618614045E+02  0.24200604573E+02 -0.27383922858E+02  0.90340439690E+02  0.10566000000E+00 0. -1.
     200003    1    4    4    0    0 -0.36961656375E+02 -0.68171056366E+02  0.14753900468E+03  0.16935529183E+03  0.30000000000E+02 0. -1.
     200000    1    3    3    0    0 -0.14761199016E+03 -0.10832814613E+03  0.18465724215E+03  0.56358014866E+03  0.50000000000E+03 0.  1.
    -200001    1    1    2    0    0  0.26719226058E+03  0.15229859792E+03  0.86210648577E+03  0.11523081879E+04  0.70000000000E+03 0. -1.
<mgrwt>
<rscale>  0 0.15941245E+04</rscale>
<asrwt>0</asrwt>
<pdfrwt beam="1">  1        4 0.57761803E-01 0.15941245E+04</pdfrwt>
<pdfrwt beam="2">  1       -4 0.22446449E+00 0.15941245E+04</pdfrwt>
<totfact> 0.50208861E-01</totfact>
</mgrwt>
</event>
<event>
 8    1  0.5217667E-029  0.1505357E+04  0.7818608E-02  0.8880898E-01
          4   -1    0    0  501    0  0.00000000000E+00  0.00000000000E+00  0.49421296062E+03  0.49421459240E+03  0.12700000000E+01 0.  1.
         -4   -1    0    0    0  501 -0.00000000000E+00 -0.00000000000E+00 -0.11463132767E+04  0.11463139803E+04  0.12700000000E+01 0. -1.
     200001    2    1    2    0    0 -0.23570495795E+03  0.75518971198E+02 -0.46034308143E+03  0.87369692278E+03  0.70012185942E+03 0.  0.
    5000001    2    3    3    0    0 -0.23477617366E+02  0.71916660242E+02 -0.74635150221E+02  0.20749573024E+03  0.17821579022E+03 0.  0.
        -13    1    4    4    0    0  0.44841446987E+02  0.10331472398E+03 -0.45193490315E+02  0.12135547079E+03  0.10566000000E+00 0. -1.
     200003    1    4    4    0    0 -0.68319064354E+02 -0.31398063739E+02 -0.29441659906E+02  0.86140259454E+02  0.30000000000E+02 0. -1.
     200000    1    3    3    0    0 -0.21222734058E+03  0.36023109559E+01 -0.38570793121E+03  0.66620119254E+03  0.50000000000E+03 0. -1.
    -200001    1    1    2    0    0  0.23570495795E+03 -0.75518971198E+02 -0.19175723469E+03  0.76683164989E+03  0.70000000000E+03 0.  1.
<mgrwt>
<rscale>  0 0.15053568E+04</rscale>
<asrwt>0</asrwt>
<pdfrwt beam="1">  1        4 0.70602019E-01 0.15053568E+04</pdfrwt>
<pdfrwt beam="2">  1       -4 0.16375921E+00 0.15053568E+04</pdfrwt>
<totfact> 0.83749786E-01</totfact>
</mgrwt>
</event>
<event>
 8    1  0.5217667E-029  0.1458682E+04  0.7818608E-02  0.8912404E-01
          4   -1    0    0  501    0  0.00000000000E+00  0.00000000000E+00  0.14801306778E+04  0.14801312227E+04  0.12700000000E+01 0.  1.
         -4   -1    0    0    0  501 -0.00000000000E+00 -0.00000000000E+00 -0.35938408334E+03  0.35938632731E+03  0.12700000000E+01 0. -1.
     200001    2    1    2    0    0  0.62431096985E+02 -0.52796443127E+02  0.79686669429E+03  0.10638995409E+04  0.70014326988E+03 0.  0.
    5000001    2    3    3    0    0  0.31739981701E+02 -0.85555178564E+02  0.27236780147E+03  0.33787325495E+03  0.17789604300E+03 0.  0.
        -13    1    4    4    0    0  0.28337556708E+02 -0.12996429583E+03  0.13119194216E+03  0.18682899176E+03  0.10566000000E+00 0. -1.
     200003    1    4    4    0    0  0.34024249930E+01  0.44409117262E+02  0.14117585930E+03  0.15104426319E+03  0.30000000000E+02 0. -1.
     200000    1    3    3    0    0  0.30691115285E+02  0.32758735437E+02  0.52449889283E+03  0.72602628594E+03  0.50000000000E+03 0.  1.
    -200001    1    1    2    0    0 -0.62431096985E+02  0.52796443127E+02  0.32387990018E+03  0.77561800909E+03  0.70000000000E+03 0. -1.
<mgrwt>
<rscale>  0 0.14586816E+04</rscale>
<asrwt>0</asrwt>
<pdfrwt beam="1">  1        4 0.21144744E+00 0.14586816E+04</pdfrwt>
<pdfrwt beam="2">  1       -4 0.51340782E-01 0.14586816E+04</pdfrwt>
<totfact> 0.78817686E-01</totfact>
</mgrwt>
</event>
<event>
 8    1  0.5217667E-029  0.1602895E+04  0.7818608E-02  0.8818771E-01
         -4   -1    0    0    0  501 -0.00000000000E+00  0.00000000000E+00  0.25950786042E+04  0.25950789150E+04  0.12700000000E+01 0.  1.
          4   -1    0    0  501    0  0.00000000000E+00 -0.00000000000E+00 -0.24751208814E+03  0.24751534634E+03  0.12700000000E+01 0. -1.
     200001    2    1    2    0    0 -0.23595073770E+03  0.18431205789E+01  0.62270004136E+03  0.96620397586E+03  0.70008473327E+03 0.  0.
    5000001    2    3    3    0    0 -0.16086644550E+03  0.10695035162E+02  0.16552028318E+03  0.28449337846E+03  0.16597325441E+03 0.  0.
        -13    1    4    4    0    0  0.10729000150E+01  0.40395670285E+00 -0.29218763195E+02  0.29241436048E+02  0.10566000000E+00 0. -1.
     200003    1    4    4    0    0 -0.16193934552E+03  0.10291078459E+02  0.19473904637E+03  0.25525194241E+03  0.30000000000E+02 0. -1.
     200000    1    3    3    0    0 -0.75084292204E+02 -0.88519145831E+01  0.45717975818E+03  0.68171059741E+03  0.50000000000E+03 0. -1.
    -200001    1    1    2    0    0  0.23595073770E+03 -0.18431205789E+01  0.17248664747E+04  0.18763902854E+04  0.70000000000E+03 0.  1.
<mgrwt>
<rscale>  0 0.16028954E+04</rscale>
<asrwt>0</asrwt>
<pdfrwt beam="1">  1        4 0.35359123E-01 0.16028954E+04</pdfrwt>
<pdfrwt beam="2">  1       -4 0.37072579E+00 0.16028954E+04</pdfrwt>
<totfact> 0.16442509E-01</totfact>
</mgrwt>
</event>
<event>
 8    1  0.5217667E-029  0.1716593E+04  0.7818608E-02  0.8751957E-01
          4   -1    0    0  501    0  0.00000000000E+00  0.00000000000E+00  0.60224849909E+03  0.60224983816E+03  0.12700000000E+01 0.  1.
         -4   -1    0    0    0  501 -0.00000000000E+00 -0.00000000000E+00 -0.12232009046E+04  0.12232015639E+04  0.12700000000E+01 0. -1.
     200001    2    1    2    0    0 -0.13457661812E+03  0.42545104766E+03 -0.54217751309E+03  0.99158993648E+03  0.70012476484E+03 0.  0.
    5000001    2    3    3    0    0 -0.33122843868E+02  0.38839955112E+02 -0.18300633666E+03  0.25758384716E+03  0.17393232638E+03 0.  0.
        -13    1    4    4    0    0  0.69408929945E+02  0.77175895473E+01 -0.65342803620E+02  0.95639185973E+02  0.10566000000E+00 0. -1.
     200003    1    4    4    0    0 -0.10253177381E+03  0.31122365565E+02 -0.11766353304E+03  0.16194466119E+03  0.30000000000E+02 0. -1.
     200000    1    3    3    0    0 -0.10145377425E+03  0.38661109254E+03 -0.35917117643E+03  0.73400608932E+03  0.50000000000E+03 0. -1.
    -200001    1    1    2    0    0  0.13457661812E+03 -0.42545104766E+03 -0.78774892425E+02  0.83386146558E+03  0.70000000000E+03 0. -1.
<mgrwt>
<rscale>  0 0.17165928E+04</rscale>
<asrwt>0</asrwt>
<pdfrwt beam="1">  1        4 0.86035643E-01 0.17165928E+04</pdfrwt>
<pdfrwt beam="2">  1       -4 0.17474313E+00 0.17165928E+04</pdfrwt>
<totfact> 0.44004405E-01</totfact>
</mgrwt>
</event>
<event>
 8    1  0.5217667E-029  0.1548680E+04  0.7818608E-02  0.8852712E-01
          4   -1    0    0  501    0  0.00000000000E+00  0.00000000000E+00  0.13678626881E+04  0.13678632777E+04  0.12700000000E+01 0.  1.
         -4   -1    0    0    0  501 -0.00000000000E+00 -0.00000000000E+00 -0.43834808134E+03  0.43834992108E+03  0.12700000000E+01 0. -1.
     200001    2    1    2    0    0  0.15476369516E+03 -0.27833892710E+03  0.56943482175E+03  0.95704783721E+03  0.70018582306E+03 0.  0.
    5000001    2    3    3    0    0  0.11065332244E+03 -0.20610587879E+03  0.24220809903E+03  0.35352429474E+03  0.10766091538E+03 0.  0.
        -13    1    4    4    0    0  0.93570568095E+02 -0.12261045874E+03  0.96062961259E+02  0.18170547459E+03  0.10566000000E+00 0. -1.
     200003    1    4    4    0    0  0.17082754348E+02 -0.83495420050E+02  0.14614513777E+03  0.17181882016E+03  0.30000000000E+02 0. -1.
     200000    1    3    3    0    0  0.44110372722E+02 -0.72233048315E+02  0.32722672272E+03  0.60352354247E+03  0.50000000000E+03 0. -1.
    -200001    1    1    2    0    0 -0.15476369516E+03  0.27833892710E+03  0.36007978503E+03  0.84916536156E+03  0.70000000000E+03 0. -1.
<mgrwt>
<rscale>  0 0.15486797E+04</rscale>
<asrwt>0</asrwt>
<pdfrwt beam="1">  1        4 0.19540913E+00 0.15486797E+04</pdfrwt>
<pdfrwt beam="2">  1       -4 0.62621328E-01 0.15486797E+04</pdfrwt>
<totfact> 0.65354161E-01</totfact>
</mgrwt>
</event>
<event>
 8    1  0.5217667E-029  0.1488989E+04  0.7818608E-02  0.8891808E-01
         -4   -1    0    0    0  501 -0.00000000000E+00  0.00000000000E+00  0.20225598944E+04  0.20225602931E+04  0.12700000000E+01 0. -1.
          4   -1    0    0  501    0  0.00000000000E+00 -0.00000000000E+00 -0.27404291368E+03  0.27404585645E+03  0.12700000000E+01 0.  1.
     200001    2    1    2    0    0  0.11706263400E+03  0.20124384476E+02  0.12200191711E+04  0.14114967858E+04  0.69983408550E+03 0.  0.
    5000001    2    3    3    0    0 -0.29584792805E+02  0.24505549752E+02  0.26553438866E+03  0.32403834411E+03  0.18170458156E+03 0.  0.
        -13    1    4    4    0    0  0.74115102803E+02  0.89833181027E+01  0.13174645627E+03  0.15142948316E+03  0.10566000000E+00 0. -1.
     200003    1    4    4    0    0 -0.10369989561E+03  0.15522231650E+02  0.13378793239E+03  0.17260886095E+03  0.30000000000E+02 0. -1.
     200000    1    3    3    0    0  0.14664742681E+03 -0.43811652761E+01  0.95448478248E+03  0.10874584417E+04  0.50000000000E+03 0. -1.
    -200001    1    1    2    0    0 -0.11706263400E+03 -0.20124384476E+02  0.52849780960E+03  0.88510936379E+03  0.70000000000E+03 0.  1.
<mgrwt>
<rscale>  0 0.14889890E+04</rscale>
<asrwt>0</asrwt>
<pdfrwt beam="1">  1        4 0.39149226E-01 0.14889890E+04</pdfrwt>
<pdfrwt beam="2">  1       -4 0.28893737E+00 0.14889890E+04</pdfrwt>
<totfact> 0.45071834E-01</totfact>
</mgrwt>
</event>
<event>
 8    1  0.5217667E-029  0.2086935E+04  0.7818608E-02  0.8567021E-01
          4   -1    0    0  501    0  0.00000000000E+00  0.00000000000E+00  0.62379999301E+03  0.62380128582E+03  0.12700000000E+01 0.  1.
         -4   -1    0    0    0  501 -0.00000000000E+00 -0.00000000000E+00 -0.17454666128E+04  0.17454670748E+04  0.12700000000E+01 0. -1.
     200001    2    1    2    0    0 -0.32484011220E+03 -0.23577003514E+03 -0.13172903841E+04  0.15389809013E+04  0.68709508111E+03 0.  0.
    5000001    2    3    3    0    0 -0.28947585268E+02  0.59147110543E+02 -0.30591020681E+03  0.33589388309E+03  0.12209546547E+03 0.  0.
        -13    1    4    4    0    0 -0.67124444347E+02  0.22528769547E+02 -0.11049191401E+03  0.13123151570E+03  0.10566000000E+00 0. -1.
     200003    1    4    4    0    0  0.38176859079E+02  0.36618340996E+02 -0.19541829280E+03  0.20466236739E+03  0.30000000000E+02 0. -1.
     200000    1    3    3    0    0 -0.29589252693E+03 -0.29491714568E+03 -0.10113801773E+04  0.12030870182E+04  0.50000000000E+03 0. -1.
    -200001    1    1    2    0    0  0.32484011220E+03  0.23577003514E+03  0.19562376434E+03  0.83028745934E+03  0.70000000000E+03 0.  1.
<mgrwt>
<rscale>  0 0.20869347E+04</rscale>
<asrwt>0</asrwt>
<pdfrwt beam="1">  1        4 0.89114411E-01 0.20869347E+04</pdfrwt>
<pdfrwt beam="2">  1       -4 0.24935250E+00 0.20869347E+04</pdfrwt>
<totfact> 0.12838673E-01</totfact>
</mgrwt>
</event>
<event>
 8    1  0.5217667E-029  0.1770934E+04  0.7818608E-02  0.8721911E-01
          4   -1    0    0  501    0  0.00000000000E+00  0.00000000000E+00  0.16664991559E+04  0.16664996398E+04  0.12700000000E+01 0.  1.
         -4   -1    0    0    0  501 -0.00000000000E+00 -0.00000000000E+00 -0.47047693100E+03  0.47047864511E+03  0.12700000000E+01 0. -1.
     200001    2    1    2    0    0  0.11849977094E+03 -0.42439717820E+03  0.21925575041E+03  0.85704551082E+03  0.70164005227E+03 0.  0.
    5000001    2    3    3    0    0  0.22850956461E+02 -0.17823276801E+03  0.95664205395E+02  0.27823597172E+03  0.18966952829E+03 0.  0.
        -13    1    4    4    0    0 -0.58579335646E+02 -0.16287120512E+03  0.66147710923E+02  0.18529462713E+03  0.10566000000E+00 0. -1.
     200003    1    4    4    0    0  0.81430292107E+02 -0.15361562892E+02  0.29516494472E+02  0.92941344584E+02  0.30000000000E+02 0. -1.
     200000    1    3    3    0    0  0.95648814478E+02 -0.24616441019E+03  0.12359154502E+03  0.57880953910E+03  0.50000000000E+03 0.  1.
    -200001    1    1    2    0    0 -0.11849977094E+03  0.42439717820E+03  0.97676647451E+03  0.12799327741E+04  0.70000000000E+03 0. -1.
<mgrwt>
<rscale>  0 0.17709339E+04</rscale>
<asrwt>0</asrwt>
<pdfrwt beam="1">  1        4 0.23807147E+00 0.17709339E+04</pdfrwt>
<pdfrwt beam="2">  1       -4 0.67211145E-01 0.17709339E+04</pdfrwt>
<totfact> 0.29280911E-01</totfact>
</mgrwt>
</event>
<event>
 8    1  0.5217667E-029  0.1467354E+04  0.7818608E-02  0.8906457E-01
         -4   -1    0    0    0  501 -0.00000000000E+00  0.00000000000E+00  0.19566013775E+04  0.19566017897E+04  0.12700000000E+01 0. -1.
          4   -1    0    0  501    0  0.00000000000E+00 -0.00000000000E+00 -0.27510867697E+03  0.27511160835E+03  0.12700000000E+01 0.  1.
     200001    2    1    2    0    0  0.70329729955E+02  0.48184970008E+02  0.11437958236E+04  0.13449293241E+04  0.70235171999E+03 0.  0.
    5000001    2    3    3    0    0  0.13480132800E+03  0.99039593762E+02  0.25822210355E+03  0.32464328906E+03  0.10360681063E+03 0.  0.
        -13    1    4    4    0    0 -0.12932546781E+02 -0.42721249474E+01  0.13146832909E+02  0.18930192745E+02  0.10566000000E+00 0. -1.
     200003    1    4    4    0    0  0.14773387478E+03  0.10331171871E+03  0.24507527064E+03  0.30571309632E+03  0.30000000000E+02 0. -1.
     200000    1    3    3    0    0 -0.64471598049E+02 -0.50854623754E+02  0.88557372002E+03  0.10202860350E+04  0.50000000000E+03 0. -1.
    -200001    1    1    2    0    0 -0.70329729955E+02 -0.48184970008E+02  0.53769687696E+03  0.88678407391E+03  0.70000000000E+03 0.  1.
<mgrwt>
<rscale>  0 0.14673537E+04</rscale>
<asrwt>0</asrwt>
<pdfrwt beam="1">  1        4 0.39301479E-01 0.14673537E+04</pdfrwt>
<pdfrwt beam="2">  1       -4 0.27951472E+00 0.14673537E+04</pdfrwt>
<totfact> 0.51217595E-01</totfact>
</mgrwt>
</event>
<event>
 8    1  0.5217667E-029  0.1485501E+04  0.7818608E-02  0.8894152E-01
         -4   -1    0    0    0  501 -0.00000000000E+00  0.00000000000E+00  0.48587583150E+03  0.48587749129E+03  0.12700000000E+01 0. -1.
          4   -1    0    0  501    0  0.00000000000E+00 -0.00000000000E+00 -0.11354261847E+04  0.11354268950E+04  0.12700000000E+01 0.  1.
     200001    2    1    2    0    0 -0.95094870577E+02 -0.19988541270E+03 -0.21076562075E+03  0.76600955170E+03  0.70238968798E+03 0.  0.
    5000001    2    3    3    0    0 -0.23175625721E+02 -0.70526155906E+02 -0.15222975213E+03  0.24128806080E+03  0.17185744836E+03 0.  0.
        -13    1    4    4    0    0  0.61320693732E+02  0.12526857625E+02 -0.33927891885E+02  0.71191731637E+02  0.10566000000E+00 0. -1.
     200003    1    4    4    0    0 -0.84496319453E+02 -0.83053013532E+02 -0.11830186024E+03  0.17009632916E+03  0.30000000000E+02 0. -1.
     200000    1    3    3    0    0 -0.71919244855E+02 -0.12935925679E+03 -0.58535868624E+02  0.52472149090E+03  0.50000000000E+03 0. -1.
    -200001    1    1    2    0    0  0.95094870577E+02  0.19988541270E+03 -0.43878473250E+03  0.85529483460E+03  0.70000000000E+03 0.  1.
<mgrwt>
<rscale>  0 0.14855007E+04</rscale>
<asrwt>0</asrwt>
<pdfrwt beam="1">  1        4 0.16220391E+00 0.14855007E+04</pdfrwt>
<pdfrwt beam="2">  1       -4 0.69411003E-01 0.14855007E+04</pdfrwt>
<totfact> 0.89400678E-01</totfact>
</mgrwt>
</event>
<event>
 8    1  0.5217667E-029  0.1699838E+04  0.7818608E-02  0.8761457E-01
         -4   -1    0    0    0  501 -0.00000000000E+00  0.00000000000E+00  0.17387943172E+04  0.17387947810E+04  0.12700000000E+01 0. -1.
          4   -1    0    0  501    0  0.00000000000E+00 -0.00000000000E+00 -0.41543730286E+03  0.41543924406E+03  0.12700000000E+01 0.  1.
     200001    2    1    2    0    0  0.45390314637E+01 -0.40873820311E+03  0.98524650768E+03  0.12759366744E+04  0.70015440771E+03 0.  0.
    5000001    2    3    3    0    0 -0.24493951318E+02 -0.19374530085E+03  0.24895993300E+03  0.35986747275E+03  0.17142448615E+03 0.  0.
        -13    1    4    4    0    0  0.31485968207E+02  0.10483679178E+02  0.21118961927E+01  0.33252744136E+02  0.10566000000E+00 0. -1.
     200003    1    4    4    0    0 -0.55979919525E+02 -0.20422898002E+03  0.24684803681E+03  0.32661472862E+03  0.30000000000E+02 0. -1.
     200000    1    3    3    0    0  0.29032982782E+02 -0.21499290226E+03  0.73628657467E+03  0.91606920162E+03  0.50000000000E+03 0. -1.
    -200001    1    1    2    0    0 -0.45390314637E+01  0.40873820311E+03  0.33811050665E+03  0.87829735067E+03  0.70000000000E+03 0.  1.
<mgrwt>
<rscale>  0 0.16998384E+04</rscale>
<asrwt>0</asrwt>
<pdfrwt beam="1">  1        4 0.59348357E-01 0.16998384E+04</pdfrwt>
<pdfrwt beam="2">  1       -4 0.24839936E+00 0.16998384E+04</pdfrwt>
<totfact> 0.33267411E-01</totfact>
</mgrwt>
</event>
<event>
 8    1  0.5217667E-029  0.1643255E+04  0.7818608E-02  0.8794406E-01
          4   -1    0    0  501    0  0.00000000000E+00  0.00000000000E+00  0.69622403393E+03  0.69622519225E+03  0.12700000000E+01 0.  1.
         -4   -1    0    0    0  501 -0.00000000000E+00 -0.00000000000E+00 -0.96961670385E+03  0.96961753557E+03  0.12700000000E+01 0. -1.
     200001    2    1    2    0    0  0.31317804514E+03  0.68456133996E+02 -0.42259846535E+03  0.88160481772E+03  0.70418098631E+03 0.  0.
    5000001    2    3    3    0    0 -0.25949529180E+01  0.38390947119E+02 -0.36106232535E+02  0.17450316465E+03  0.16633428944E+03 0.  0.
        -13    1    4    4    0    0  0.77812920132E+02  0.30450304081E+02 -0.84449960634E+01  0.83984526436E+02  0.10566000000E+00 0. -1.
     200003    1    4    4    0    0 -0.80407873050E+02  0.79406430382E+01 -0.27661236472E+02  0.90518638211E+02  0.30000000000E+02 0. -1.
     200000    1    3    3    0    0  0.31577299806E+03  0.30065186877E+02 -0.38649223281E+03  0.70710165308E+03  0.50000000000E+03 0. -1.
    -200001    1    1    2    0    0 -0.31317804514E+03 -0.68456133996E+02  0.14920579543E+03  0.78423791009E+03  0.70000000000E+03 0.  1.
<mgrwt>
<rscale>  0 0.16432554E+04</rscale>
<asrwt>0</asrwt>
<pdfrwt beam="1">  1        4 0.99460719E-01 0.16432554E+04</pdfrwt>
<pdfrwt beam="2">  1       -4 0.13851681E+00 0.16432554E+04</pdfrwt>
<totfact> 0.59162191E-01</totfact>
</mgrwt>
</event>
<event>
 8    1  0.5217667E-029  0.1498787E+04  0.7818608E-02  0.8885260E-01
         -4   -1    0    0    0  501 -0.00000000000E+00  0.00000000000E+00  0.65343299983E+03  0.65343423400E+03  0.12700000000E+01 0. -1.
          4   -1    0    0  501    0  0.00000000000E+00 -0.00000000000E+00 -0.85944427297E+03  0.85944521130E+03  0.12700000000E+01 0.  1.
     200001    2    1    2    0    0  0.54331712429E+02 -0.80895132594E+02  0.14755980311E+03  0.72262096644E+03  0.70065056069E+03 0.  0.
    5000001    2    3    3    0    0  0.54046238908E+02 -0.40358176846E+02  0.58024577851E+02  0.21305263654E+03  0.19358407973E+03 0.  0.
        -13    1    4    4    0    0  0.20324460293E+02  0.36049240759E+02 -0.55328752696E+02  0.69093512608E+02  0.10566000000E+00 0. -1.
     200003    1    4    4    0    0  0.33721778615E+02 -0.76407417605E+02  0.11335333055E+03  0.14395912394E+03  0.30000000000E+02 0. -1.
     200000    1    3    3    0    0  0.28547352063E+00 -0.40536955748E+02  0.89535225260E+02  0.50956832990E+03  0.50000000000E+03 0. -1.
    -200001    1    1    2    0    0 -0.54331712429E+02  0.80895132594E+02 -0.35357107625E+03  0.79025847886E+03  0.70000000000E+03 0.  1.
<mgrwt>
<rscale>  0 0.14987874E+04</rscale>
<asrwt>0</asrwt>
<pdfrwt beam="1">  1        4 0.12277791E+00 0.14987874E+04</pdfrwt>
<pdfrwt beam="2">  1       -4 0.93347727E-01 0.14987874E+04</pdfrwt>
<totfact> 0.94422452E-01</totfact>
</mgrwt>
</event>
<event>
 8    1  0.5217667E-029  0.1610376E+04  0.7818608E-02  0.8814199E-01
         -4   -1    0    0    0  501 -0.00000000000E+00  0.00000000000E+00  0.11368846339E+04  0.11368853432E+04  0.12700000000E+01 0. -1.
          4   -1    0    0  501    0  0.00000000000E+00 -0.00000000000E+00 -0.57026558261E+03  0.57026699678E+03  0.12700000000E+01 0.  1.
     200001    2    1    2    0    0  0.20597079157E+03  0.13576532600E+03  0.61642537098E+03  0.96328618255E+03  0.69791392076E+03 0.  0.
    5000001    2    3    3    0    0  0.11585239120E+03  0.10237035436E+02  0.15744220758E+03  0.26719407507E+03  0.18187372428E+03 0.  0.
        -13    1    4    4    0    0 -0.26981733530E+02  0.55236501515E+02  0.30643731672E+02  0.68688678097E+02  0.10566000000E+00 0. -1.
     200003    1    4    4    0    0  0.14283412473E+03 -0.44999466078E+02  0.12679847591E+03  0.19850539697E+03  0.30000000000E+02 0. -1.
     200000    1    3    3    0    0  0.90118400370E+02  0.12552829056E+03  0.45898316340E+03  0.69609210748E+03  0.50000000000E+03 0. -1.
    -200001    1    1    2    0    0 -0.20597079157E+03 -0.13576532600E+03 -0.49806319715E+02  0.74386615745E+03  0.70000000000E+03 0.  1.
<mgrwt>
<rscale>  0 0.16103763E+04</rscale>
<asrwt>0</asrwt>
<pdfrwt beam="1">  1        4 0.81466664E-01 0.16103763E+04</pdfrwt>
<pdfrwt beam="2">  1       -4 0.16241224E+00 0.16103763E+04</pdfrwt>
<totfact> 0.61658728E-01</totfact>
</mgrwt>
</event>
<event>
 8    1  0.5217667E-029  0.1656186E+04  0.7818608E-02  0.8786755E-01
         -4   -1    0    0    0  501 -0.00000000000E+00  0.00000000000E+00  0.91136098881E+03  0.91136187370E+03  0.12700000000E+01 0. -1.
          4   -1    0    0  501    0  0.00000000000E+00 -0.00000000000E+00 -0.75243145372E+03  0.75243252552E+03  0.12700000000E+01 0.  1.
     200001    2    1    2    0    0 -0.19380533892E+02 -0.36696894058E+03  0.32651380415E+03  0.85563210382E+03  0.70032365685E+03 0.  0.
    5000001    2    3    3    0    0  0.47028646026E+02 -0.48526162144E+02  0.18285548206E+03  0.24207387853E+03  0.14351708397E+03 0.  0.
        -13    1    4    4    0    0  0.85746675928E+02 -0.52128213080E+02  0.80870506035E+02  0.12887937361E+03  0.10566000000E+00 0. -1.
     200003    1    4    4    0    0 -0.38718029902E+02  0.36020509357E+01  0.10198497602E+03  0.11319450492E+03  0.30000000000E+02 0. -1.
     200000    1    3    3    0    0 -0.66409179918E+02 -0.31844277844E+03  0.14365832209E+03  0.61355822529E+03  0.50000000000E+03 0.  1.
    -200001    1    1    2    0    0  0.19380533892E+02  0.36696894058E+03 -0.16758426906E+03  0.80816229539E+03  0.70000000000E+03 0.  1.
<mgrwt>
<rscale>  0 0.16561863E+04</rscale>
<asrwt>0</asrwt>
<pdfrwt beam="1">  1        4 0.10749035E+00 0.16561863E+04</pdfrwt>
<pdfrwt beam="2">  1       -4 0.13019457E+00 0.16561863E+04</pdfrwt>
<totfact> 0.57489041E-01</totfact>
</mgrwt>
</event>
<event>
 8    1  0.5217667E-029  0.1470001E+04  0.7818608E-02  0.8904651E-01
          4   -1    0    0  501    0  0.00000000000E+00  0.00000000000E+00  0.12883580372E+04  0.12883586631E+04  0.12700000000E+01 0.  1.
         -4   -1    0    0    0  501 -0.00000000000E+00 -0.00000000000E+00 -0.41931140129E+03  0.41931332456E+03  0.12700000000E+01 0. -1.
     200001    2    1    2    0    0 -0.66999456113E+02 -0.18316726295E+03  0.30580518138E+03  0.78828082533E+03  0.69987904476E+03 0.  0.
    5000001    2    3    3    0    0  0.49608064601E+02 -0.18956555188E+02  0.11496121704E+03  0.21645577416E+03  0.17554688743E+03 0.  0.
        -13    1    4    4    0    0  0.52210361730E+02 -0.70701220688E+02  0.11944750730E+01  0.87897795271E+02  0.10566000000E+00 0. -1.
     200003    1    4    4    0    0 -0.26022971293E+01  0.51744665500E+02  0.11376674196E+03  0.12855797888E+03  0.30000000000E+02 0. -1.
     200000    1    3    3    0    0 -0.11660752071E+03 -0.16421070776E+03  0.19084396434E+03  0.57182505118E+03  0.50000000000E+03 0.  1.
    -200001    1    1    2    0    0  0.66999456113E+02  0.18316726295E+03  0.56324145452E+03  0.91939116236E+03  0.70000000000E+03 0.  1.
<mgrwt>
<rscale>  0 0.14700005E+04</rscale>
<asrwt>0</asrwt>
<pdfrwt beam="1">  1        4 0.18405133E+00 0.14700005E+04</pdfrwt>
<pdfrwt beam="2">  1       -4 0.59901810E-01 0.14700005E+04</pdfrwt>
<totfact> 0.86323625E-01</totfact>
</mgrwt>
</event>
<event>
 8    1  0.5217667E-029  0.1765380E+04  0.7818608E-02  0.8724930E-01
         -4   -1    0    0    0  501 -0.00000000000E+00  0.00000000000E+00  0.95940954383E+03  0.95941038440E+03  0.12700000000E+01 0. -1.
          4   -1    0    0  501    0  0.00000000000E+00 -0.00000000000E+00 -0.81210381459E+03  0.81210480763E+03  0.12700000000E+01 0.  1.
     200001    2    1    2    0    0  0.51128476651E+03 -0.59866234942E+02 -0.80985256684E+02  0.87312059454E+03  0.70056040586E+03 0.  0.
    5000001    2    3    3    0    0  0.13893579507E+03  0.74622198642E+02 -0.13180151214E+03  0.23334470634E+03  0.11048296563E+03 0.  0.
        -13    1    4    4    0    0  0.52623113513E+02 -0.24091524423E+02 -0.35250457979E+02  0.67765769948E+02  0.10566000000E+00 0. -1.
     200003    1    4    4    0    0  0.86312681557E+02  0.98713723065E+02 -0.96551054160E+02  0.16557893640E+03  0.30000000000E+02 0. -1.
     200000    1    3    3    0    0  0.37234897144E+03 -0.13448843358E+03  0.50816255455E+02  0.63977588820E+03  0.50000000000E+03 0.  1.
    -200001    1    1    2    0    0 -0.51128476651E+03  0.59866234942E+02  0.22829098592E+03  0.89839459749E+03  0.70000000000E+03 0. -1.
<mgrwt>
<rscale>  0 0.17653802E+04</rscale>
<asrwt>0</asrwt>
<pdfrwt beam="1">  1        4 0.11601496E+00 0.17653802E+04</pdfrwt>
<pdfrwt beam="2">  1       -4 0.13705864E+00 0.17653802E+04</pdfrwt>
<totfact> 0.41490892E-01</totfact>
</mgrwt>
</event>
<event>
 8    1  0.5217667E-029  0.2827816E+04  0.7818608E-02  0.8294684E-01
          4   -1    0    0  501    0  0.00000000000E+00  0.00000000000E+00  0.12566227229E+04  0.12566233646E+04  0.12700000000E+01 0.  1.
         -4   -1    0    0    0  501 -0.00000000000E+00 -0.00000000000E+00 -0.15908782136E+04  0.15908787205E+04  0.12700000000E+01 0. -1.
     200001    2    1    2    0    0 -0.68045866910E+02 -0.23605613469E+03  0.10449975332E+04  0.12813949231E+04  0.69971448881E+03 0.  0.
    5000001    2    3    3    0    0 -0.10136643438E+03 -0.65004086751E+02  0.21966118437E+03  0.30080879634E+03  0.16653591421E+03 0.  0.
        -13    1    4    4    0    0  0.10632080924E+02 -0.53535904851E+02  0.28280191370E+01  0.54654762915E+02  0.10566000000E+00 0. -1.
     200003    1    4    4    0    0 -0.11199851530E+03 -0.11468181900E+02  0.21683316523E+03  0.24615403342E+03  0.30000000000E+02 0. -1.
     200000    1    3    3    0    0  0.33320567467E+02 -0.17105204794E+03  0.82533634886E+03  0.98058612680E+03  0.50000000000E+03 0.  1.
    -200001    1    1    2    0    0  0.68045866910E+02  0.23605613469E+03 -0.13792530240E+04  0.15661071620E+04  0.70000000000E+03 0. -1.
<mgrwt>
<rscale>  0 0.28278157E+04</rscale>
<asrwt>0</asrwt>
<pdfrwt beam="1">  1        4 0.17951762E+00 0.28278157E+04</pdfrwt>
<pdfrwt beam="2">  1       -4 0.22726840E+00 0.28278157E+04</pdfrwt>
<totfact> 0.27750461E-02</totfact>
</mgrwt>
</event>
<event>
 8    1  0.5217667E-029  0.1598246E+04  0.7818608E-02  0.8821626E-01
          4   -1    0    0  501    0  0.00000000000E+00  0.00000000000E+00  0.52298848332E+03  0.52299002532E+03  0.12700000000E+01 0.  1.
         -4   -1    0    0    0  501 -0.00000000000E+00 -0.00000000000E+00 -0.12210506604E+04  0.12210513208E+04  0.12700000000E+01 0. -1.
     200001    2    1    2    0    0 -0.18065128446E+02 -0.38349314237E+03 -0.38735630042E+03  0.88734333584E+03  0.69995710802E+03 0.  0.
    5000001    2    3    3    0    0 -0.71404855204E+02 -0.43586550705E+02 -0.15424028540E+03  0.23717051730E+03  0.15956612386E+03 0.  0.
        -13    1    4    4    0    0 -0.17759223834E+02 -0.97040973246E+02 -0.81524911765E+02  0.12797915034E+03  0.10566000000E+00 0. -1.
     200003    1    4    4    0    0 -0.53645631370E+02  0.53454422541E+02 -0.72715373637E+02  0.10919136696E+03  0.30000000000E+02 0. -1.
     200000    1    3    3    0    0  0.53339726758E+02 -0.33990659167E+03 -0.23311601502E+03  0.65017281854E+03  0.50000000000E+03 0. -1.
    -200001    1    1    2    0    0  0.18065128446E+02  0.38349314237E+03 -0.31070587664E+03  0.85669801032E+03  0.70000000000E+03 0.  1.
<mgrwt>
<rscale>  0 0.15982457E+04</rscale>
<asrwt>0</asrwt>
<pdfrwt beam="1">  1        4 0.74712798E-01 0.15982457E+04</pdfrwt>
<pdfrwt beam="2">  1       -4 0.17443596E+00 0.15982457E+04</pdfrwt>
<totfact> 0.61469215E-01</totfact>
</mgrwt>
</event>
<event>
 8    1  0.5217667E-029  0.1437794E+04  0.7818608E-02  0.8926906E-01
         -4   -1    0    0    0  501 -0.00000000000E+00  0.00000000000E+00  0.68738969092E+03  0.68739086413E+03  0.12700000000E+01 0. -1.
          4   -1    0    0  501    0  0.00000000000E+00 -0.00000000000E+00 -0.75184645524E+03  0.75184752786E+03  0.12700000000E+01 0.  1.
     200001    2    1    2    0    0  0.13310708424E+03 -0.55725279145E+02 -0.12266230393E+03  0.72215353826E+03  0.69687652379E+03 0.  0.
    5000001    2    3    3    0    0  0.99626651973E+02 -0.17022194822E+02  0.63892414466E+02  0.18603645120E+03  0.14252050957E+03 0.  0.
        -13    1    4    4    0    0  0.75446274078E+02 -0.47784531804E+02  0.92873228363E+02  0.12884467184E+03  0.10566000000E+00 0. -1.
     200003    1    4    4    0    0  0.24180377895E+02  0.30762336982E+02 -0.28980813897E+02  0.57191779356E+02  0.30000000000E+02 0. -1.
     200000    1    3    3    0    0  0.33480432265E+02 -0.38703084323E+02 -0.18655471840E+03  0.53611708706E+03  0.50000000000E+03 0.  1.
    -200001    1    1    2    0    0 -0.13310708424E+03  0.55725279145E+02  0.58205539620E+02  0.71708485373E+03  0.70000000000E+03 0. -1.
<mgrwt>
<rscale>  0 0.14377943E+04</rscale>
<asrwt>0</asrwt>
<pdfrwt beam="1">  1        4 0.10740680E+00 0.14377943E+04</pdfrwt>
<pdfrwt beam="2">  1       -4 0.98198687E-01 0.14377943E+04</pdfrwt>
<totfact> 0.11693304E+00</totfact>
</mgrwt>
</event>
<event>
 8    1  0.5217667E-029  0.1573354E+04  0.7818608E-02  0.8837087E-01
          4   -1    0    0  501    0  0.00000000000E+00  0.00000000000E+00  0.39621917291E+03  0.39622120827E+03  0.12700000000E+01 0.  1.
         -4   -1    0    0    0  501 -0.00000000000E+00 -0.00000000000E+00 -0.15619095210E+04  0.15619100373E+04  0.12700000000E+01 0. -1.
     200001    2    1    2    0    0  0.35818619619E+03  0.32278395458E+02 -0.55762359443E+03  0.96360400974E+03  0.69874843009E+03 0.  0.
    5000001    2    3    3    0    0  0.17645837336E+03  0.81359011292E+02 -0.25174165035E+03  0.34797614149E+03  0.14126815027E+03 0.  0.
        -13    1    4    4    0    0  0.37821935285E+02  0.70541653418E+02 -0.15942536800E+03  0.17839025417E+03  0.10566000000E+00 0. -1.
     200003    1    4    4    0    0  0.13863643807E+03  0.10817357874E+02 -0.92316282351E+02  0.16958588733E+03  0.30000000000E+02 0. -1.
     200000    1    3    3    0    0  0.18172782283E+03 -0.49080615834E+02 -0.30588194408E+03  0.61562786824E+03  0.50000000000E+03 0. -1.
    -200001    1    1    2    0    0 -0.35818619619E+03 -0.32278395458E+02 -0.60806675366E+03  0.99452723586E+03  0.70000000000E+03 0. -1.
<mgrwt>
<rscale>  0 0.15733544E+04</rscale>
<asrwt>0</asrwt>
<pdfrwt beam="1">  1        4 0.56602922E-01 0.15733544E+04</pdfrwt>
<pdfrwt beam="2">  1       -4 0.22313011E+00 0.15733544E+04</pdfrwt>
<totfact> 0.53542747E-01</totfact>
</mgrwt>
</event>
<event>
 8    1  0.5217667E-029  0.1418306E+04  0.7818608E-02  0.8940673E-01
          4   -1    0    0  501    0  0.00000000000E+00  0.00000000000E+00  0.70905856457E+03  0.70905970192E+03  0.12700000000E+01 0.  1.
         -4   -1    0    0    0  501 -0.00000000000E+00 -0.00000000000E+00 -0.70924533699E+03  0.70924647404E+03  0.12700000000E+01 0. -1.
     200001    2    1    2    0    0  0.75237878548E+02 -0.38010828608E+02 -0.81261637414E+02  0.70860293151E+03  0.69886271854E+03 0.  0.
    5000001    2    3    3    0    0 -0.32212383516E+02  0.98604822830E+01 -0.49672590059E+02  0.19398162498E+03  0.18446310705E+03 0.  0.
        -13    1    4    4    0    0 -0.41805642265E+02  0.31553090841E+02 -0.11041187286E+03  0.12220516397E+03  0.10566000000E+00 0. -1.
     200003    1    4    4    0    0  0.95932587489E+01 -0.21692608558E+02  0.60739282805E+02  0.71776461010E+02  0.30000000000E+02 0. -1.
     200000    1    3    3    0    0  0.10745026206E+03 -0.47871310891E+02 -0.31589047355E+02  0.51462130653E+03  0.50000000000E+03 0.  1.
    -200001    1    1    2    0    0 -0.75237878548E+02  0.38010828608E+02  0.81074864992E+02  0.70970324446E+03  0.70000000000E+03 0.  1.
<mgrwt>
<rscale>  0 0.14183062E+04</rscale>
<asrwt>0</asrwt>
<pdfrwt beam="1">  1        4 0.10129424E+00 0.14183062E+04</pdfrwt>
<pdfrwt beam="2">  1       -4 0.10132092E+00 0.14183062E+04</pdfrwt>
<totfact> 0.12516122E+00</totfact>
</mgrwt>
</event>
<event>
 8    1  0.5217667E-029  0.2025568E+04  0.7818608E-02  0.8594759E-01
         -4   -1    0    0    0  501 -0.00000000000E+00  0.00000000000E+00  0.16328690423E+04  0.16328695362E+04  0.12700000000E+01 0. -1.
          4   -1    0    0  501    0  0.00000000000E+00 -0.00000000000E+00 -0.62817617791E+03  0.62817746170E+03  0.12700000000E+01 0.  1.
     200001    2    1    2    0    0  0.60647945805E+03 -0.19296093997E+02  0.95933255049E+03  0.13335518603E+04  0.69989424152E+03 0.  0.
    5000001    2    3    3    0    0  0.13939685243E+03  0.31726068894E+02  0.19842764576E+03  0.30898087902E+03  0.18883227235E+03 0.  0.
        -13    1    4    4    0    0 -0.32986532484E+02 -0.18307407777E+02 -0.25975904644E+01  0.37815752605E+02  0.10566000000E+00 0. -1.
     200003    1    4    4    0    0  0.17238338492E+03  0.50033476671E+02  0.20102523622E+03  0.27116512641E+03  0.30000000000E+02 0. -1.
     200000    1    3    3    0    0  0.46708260562E+03 -0.51022162891E+02  0.76090490473E+03  0.10245709813E+04  0.50000000000E+03 0. -1.
    -200001    1    1    2    0    0 -0.60647945805E+03  0.19296093997E+02  0.45360313930E+02  0.92749513765E+03  0.70000000000E+03 0.  1.
<mgrwt>
<rscale>  0 0.20255680E+04</rscale>
<asrwt>0</asrwt>
<pdfrwt beam="1">  1        4 0.89739581E-01 0.20255680E+04</pdfrwt>
<pdfrwt beam="2">  1       -4 0.23326713E+00 0.20255680E+04</pdfrwt>
<totfact> 0.16005208E-01</totfact>
</mgrwt>
</event>
<event>
 8    1  0.5217667E-029  0.2018340E+04  0.7818608E-02  0.8598094E-01
          4   -1    0    0  501    0  0.00000000000E+00  0.00000000000E+00  0.13839226216E+04  0.13839232044E+04  0.12700000000E+01 0. -1.
         -4   -1    0    0    0  501 -0.00000000000E+00 -0.00000000000E+00 -0.73589505394E+03  0.73589614982E+03  0.12700000000E+01 0.  1.
     200001    2    1    2    0    0 -0.30153566072E+03  0.62342843177E+03  0.90721634645E+02  0.98837043035E+03  0.69932748292E+03 0.  0.
    5000001    2    3    3    0    0 -0.13048129163E+03  0.21892703452E+03  0.36009225245E+02  0.32063213932E+03  0.19119071775E+03 0.  0.
        -13    1    4    4    0    0  0.22047918996E+02  0.14127137131E+03  0.33461331748E+02  0.14684475806E+03  0.10566000000E+00 0. -1.
     200003    1    4    4    0    0 -0.15252921063E+03  0.77655663208E+02  0.25478934970E+01  0.17378738126E+03  0.30000000000E+02 0. -1.
     200000    1    3    3    0    0 -0.17105436909E+03  0.40450139725E+03  0.54712409401E+02  0.66773829103E+03  0.50000000000E+03 0.  1.
    -200001    1    1    2    0    0  0.30153566072E+03 -0.62342843177E+03  0.55730593306E+03  0.11314489238E+04  0.70000000000E+03 0. -1.
<mgrwt>
<rscale>  0 0.20183395E+04</rscale>
<asrwt>0</asrwt>
<pdfrwt beam="1">  1        4 0.19770335E+00 0.20183395E+04</pdfrwt>
<pdfrwt beam="2">  1       -4 0.10512799E+00 0.20183395E+04</pdfrwt>
<totfact> 0.18660306E-01</totfact>
</mgrwt>
</event>
<event>
 8    1  0.5217667E-029  0.2117265E+04  0.7818608E-02  0.8553676E-01
         -4   -1    0    0    0  501 -0.00000000000E+00  0.00000000000E+00  0.11291355963E+04  0.11291363105E+04  0.12700000000E+01 0. -1.
          4   -1    0    0  501    0  0.00000000000E+00 -0.00000000000E+00 -0.99252975146E+03  0.99253056398E+03  0.12700000000E+01 0.  1.
     200001    2    1    2    0    0  0.26935982298E+03  0.64296573875E+03  0.45006259271E+03  0.10852235387E+04  0.69942414608E+03 0.  0.
    5000001    2    3    3    0    0  0.19151332104E+03  0.22831272838E+03  0.13176365854E+03  0.35768563014E+03  0.14755776571E+03 0.  0.
        -13    1    4    4    0    0  0.77848889855E+02  0.89872332495E+02 -0.20535620388E+02  0.12066154594E+03  0.10566000000E+00 0. -1.
     200003    1    4    4    0    0  0.11366443118E+03  0.13844039589E+03  0.15229927893E+03  0.23702408420E+03  0.30000000000E+02 0. -1.
     200000    1    3    3    0    0  0.77846501937E+02  0.41465301037E+03  0.31829893417E+03  0.72753790854E+03  0.50000000000E+03 0.  1.
    -200001    1    1    2    0    0 -0.26935982298E+03 -0.64296573875E+03 -0.31345674792E+03  0.10364433358E+04  0.70000000000E+03 0.  1.
<mgrwt>
<rscale>  0 0.21172645E+04</rscale>
<asrwt>0</asrwt>
<pdfrwt beam="1">  1        4 0.14179007E+00 0.21172645E+04</pdfrwt>
<pdfrwt beam="2">  1       -4 0.16130520E+00 0.21172645E+04</pdfrwt>
<totfact> 0.15703632E-01</totfact>
</mgrwt>
</event>
<event>
 8    1  0.5217667E-029  0.2250091E+04  0.7818608E-02  0.8497864E-01
         -4   -1    0    0    0  501 -0.00000000000E+00  0.00000000000E+00  0.17306483791E+04  0.17306488451E+04  0.12700000000E+01 0. -1.
          4   -1    0    0  501    0  0.00000000000E+00 -0.00000000000E+00 -0.73135885325E+03  0.73135995592E+03  0.12700000000E+01 0.  1.
     200001    2    1    2    0    0 -0.64797302103E+03  0.38285017710E+02  0.11502683688E+04  0.14955051075E+04  0.70148658412E+03 0.  0.
    5000001    2    3    3    0    0 -0.14284377409E+03 -0.98563902651E+02  0.38013295685E+03  0.43862680993E+03  0.13331626608E+03 0.  0.
        -13    1    4    4    0    0 -0.96817900492E+02 -0.10675027916E+03  0.17814069570E+03  0.22913630569E+03  0.10566000000E+00 0. -1.
     200003    1    4    4    0    0 -0.46025873601E+02  0.81863765134E+01  0.20199226115E+03  0.20949050424E+03  0.30000000000E+02 0. -1.
     200000    1    3    3    0    0 -0.50512924693E+03  0.13684892036E+03  0.77013541197E+03  0.10568782976E+04  0.50000000000E+03 0.  1.
    -200001    1    1    2    0    0  0.64797302103E+03 -0.38285017710E+02 -0.15097884296E+03  0.96650369352E+03  0.70000000000E+03 0.  1.
<mgrwt>
<rscale>  0 0.22500906E+04</rscale>
<asrwt>0</asrwt>
<pdfrwt beam="1">  1        4 0.10447995E+00 0.22500906E+04</pdfrwt>
<pdfrwt beam="2">  1       -4 0.24723560E+00 0.22500906E+04</pdfrwt>
<totfact> 0.89603965E-02</totfact>
</mgrwt>
</event>
<event>
 8    1  0.5217667E-029  0.1885826E+04  0.7818608E-02  0.8661944E-01
          4   -1    0    0  501    0  0.00000000000E+00  0.00000000000E+00  0.76421735752E+03  0.76421841278E+03  0.12700000000E+01 0.  1.
         -4   -1    0    0    0  501 -0.00000000000E+00 -0.00000000000E+00 -0.11633905601E+04  0.11633912533E+04  0.12700000000E+01 0. -1.
     200001    2    1    2    0    0  0.37818849046E+03  0.43564153951E+03 -0.46219785437E+03  0.10183340247E+04  0.70040505711E+03 0.  0.
    5000001    2    3    3    0    0  0.14909177498E+03  0.66814332280E+02 -0.50545157993E+02  0.23860538199E+03  0.16638871041E+03 0.  0.
        -13    1    4    4    0    0  0.76601842874E+02  0.85388796548E+02 -0.92829378119E+02  0.14756826730E+03  0.10566000000E+00 0. -1.
     200003    1    4    4    0    0  0.72489932105E+02 -0.18574464268E+02  0.42284220126E+02  0.91037114690E+02  0.30000000000E+02 0. -1.
     200000    1    3    3    0    0  0.22909671548E+03  0.36882720723E+03 -0.41165269638E+03  0.77972864272E+03  0.50000000000E+03 0.  1.
    -200001    1    1    2    0    0 -0.37818849046E+03 -0.43564153951E+03  0.63024651780E+02  0.90927564137E+03  0.70000000000E+03 0. -1.
<mgrwt>
<rscale>  0 0.18858260E+04</rscale>
<asrwt>0</asrwt>
<pdfrwt beam="1">  1        4 0.10917403E+00 0.18858260E+04</pdfrwt>
<pdfrwt beam="2">  1       -4 0.16619878E+00 0.18858260E+04</pdfrwt>
<totfact> 0.28447801E-01</totfact>
</mgrwt>
</event>
<event>
 8    1  0.5217667E-029  0.1543786E+04  0.7818608E-02  0.8855847E-01
          4   -1    0    0  501    0  0.00000000000E+00  0.00000000000E+00  0.23674033396E+03  0.23674374041E+03  0.12700000000E+01 0.  1.
         -4   -1    0    0    0  501 -0.00000000000E+00 -0.00000000000E+00 -0.25167397233E+04  0.25167400437E+04  0.12700000000E+01 0. -1.
     200001    2    1    2    0    0  0.23905168921E+03 -0.56835931581E+02 -0.15208996059E+04  0.16920656222E+04  0.69969595217E+03 0.  0.
    5000001    2    3    3    0    0  0.39717561718E+02  0.86652599395E+01 -0.28154894789E+03  0.33928531709E+03  0.18491118110E+03 0.  0.
        -13    1    4    4    0    0  0.22989652634E+02 -0.53717194553E+02 -0.10917685099E+02  0.59441299875E+02  0.10566000000E+00 0. -1.
     200003    1    4    4    0    0  0.16727909084E+02  0.62382454493E+02 -0.27063126279E+03  0.27984401722E+03  0.30000000000E+02 0. -1.
     200000    1    3    3    0    0  0.19933412749E+03 -0.65501191521E+02 -0.12393506580E+04  0.13527803052E+04  0.50000000000E+03 0.  1.
    -200001    1    1    2    0    0 -0.23905168921E+03  0.56835931581E+02 -0.75909978343E+03  0.10614181619E+04  0.70000000000E+03 0.  1.
<mgrwt>
<rscale>  0 0.15437862E+04</rscale>
<asrwt>0</asrwt>
<pdfrwt beam="1">  1        4 0.33820315E-01 0.15437862E+04</pdfrwt>
<pdfrwt beam="2">  1       -4 0.35953450E+00 0.15437862E+04</pdfrwt>
<totfact> 0.21408258E-01</totfact>
</mgrwt>
</event>
<event>
 8    1  0.5217667E-029  0.1911937E+04  0.7818608E-02  0.8648937E-01
         -4   -1    0    0    0  501 -0.00000000000E+00  0.00000000000E+00  0.75613998062E+03  0.75614104716E+03  0.12700000000E+01 0. -1.
          4   -1    0    0  501    0  0.00000000000E+00 -0.00000000000E+00 -0.12086049117E+04  0.12086055790E+04  0.12700000000E+01 0.  1.
     200001    2    1    2    0    0  0.11605813854E+03 -0.62046450267E+03 -0.38749031854E+03  0.10199358563E+04  0.70119520345E+03 0.  0.
    5000001    2    3    3    0    0 -0.10274599145E+02 -0.17287021050E+03 -0.19856728964E+03  0.31142155024E+03  0.16602631229E+03 0.  0.
        -13    1    4    4    0    0  0.23499959804E+02 -0.17883078802E+03 -0.10850881092E+03  0.21049197625E+03  0.10566000000E+00 0. -1.
     200003    1    4    4    0    0 -0.33774558948E+02  0.59605775156E+01 -0.90058478724E+02  0.10092957399E+03  0.30000000000E+02 0. -1.
     200000    1    3    3    0    0  0.12633273768E+03 -0.44759429217E+03 -0.18892302890E+03  0.70851430602E+03  0.50000000000E+03 0.  1.
    -200001    1    1    2    0    0 -0.11605813854E+03  0.62046450267E+03 -0.64974612569E+02  0.94481076988E+03  0.70000000000E+03 0. -1.
<mgrwt>
<rscale>  0 0.19119374E+04</rscale>
<asrwt>0</asrwt>
<pdfrwt beam="1">  1        4 0.17265797E+00 0.19119374E+04</pdfrwt>
<pdfrwt beam="2">  1       -4 0.10802012E+00 0.19119374E+04</pdfrwt>
<totfact> 0.26182248E-01</totfact>
</mgrwt>
</event>
<event>
 8    1  0.5217667E-029  0.1577577E+04  0.7818608E-02  0.8834443E-01
         -4   -1    0    0    0  501 -0.00000000000E+00  0.00000000000E+00  0.29524249242E+03  0.29524522389E+03  0.12700000000E+01 0. -1.
          4   -1    0    0  501    0  0.00000000000E+00 -0.00000000000E+00 -0.21073643350E+04  0.21073647177E+04  0.12700000000E+01 0.  1.
     200001    2    1    2    0    0 -0.26061299827E+03  0.11093492804E+02 -0.12912125661E+04  0.14919021538E+04  0.70035701261E+03 0.  0.
    5000001    2    3    3    0    0  0.15522032320E+02 -0.17465827607E+01 -0.23462474991E+03  0.29073886929E+03  0.17098635269E+03 0.  0.
        -13    1    4    4    0    0 -0.72305427870E+02  0.19801657207E+02 -0.84820142565E+02  0.11320180333E+03  0.10566000000E+00 0. -1.
     200003    1    4    4    0    0  0.87827460191E+02 -0.21548239967E+02 -0.14980460734E+03  0.17753706596E+03  0.30000000000E+02 0. -1.
     200000    1    3    3    0    0 -0.27613503059E+03  0.12840075564E+02 -0.10565878162E+04  0.12011632845E+04  0.50000000000E+03 0.  1.
    -200001    1    1    2    0    0  0.26061299827E+03 -0.11093492804E+02 -0.52090927648E+03  0.91070778780E+03  0.70000000000E+03 0. -1.
<mgrwt>
<rscale>  0 0.15775769E+04</rscale>
<asrwt>0</asrwt>
<pdfrwt beam="1">  1        4 0.30105226E+00 0.15775769E+04</pdfrwt>
<pdfrwt beam="2">  1       -4 0.42177723E-01 0.15775769E+04</pdfrwt>
<totfact> 0.32379850E-01</totfact>
</mgrwt>
</event>
<event>
 8    1  0.5217667E-029  0.1632701E+04  0.7818608E-02  0.8800707E-01
         -4   -1    0    0    0  501 -0.00000000000E+00  0.00000000000E+00  0.75015457016E+03  0.75015564520E+03  0.12700000000E+01 0. -1.
          4   -1    0    0  501    0  0.00000000000E+00 -0.00000000000E+00 -0.88838505707E+03  0.88838596484E+03  0.12700000000E+01 0.  1.
     200001    2    1    2    0    0 -0.14665832250E+03  0.21428025641E+03  0.26326741896E+03  0.79082393283E+03  0.69904797189E+03 0.  0.
    5000001    2    3    3    0    0 -0.14340949816E+03  0.68926048723E+02  0.12140844664E+03  0.25113664506E+03  0.15169877791E+03 0.  0.
        -13    1    4    4    0    0 -0.15240251997E+03  0.13302158063E+02  0.66012216666E+02  0.16661662406E+03  0.10566000000E+00 0. -1.
     200003    1    4    4    0    0  0.89930218056E+01  0.55623890660E+02  0.55396229978E+02  0.84520020996E+02  0.30000000000E+02 0. -1.
     200000    1    3    3    0    0 -0.32488243390E+01  0.14535420769E+03  0.14185897232E+03  0.53968728777E+03  0.50000000000E+03 0. -1.
    -200001    1    1    2    0    0  0.14665832250E+03 -0.21428025641E+03 -0.40149790587E+03  0.84771767722E+03  0.70000000000E+03 0.  1.
<mgrwt>
<rscale>  0 0.16327005E+04</rscale>
<asrwt>0</asrwt>
<pdfrwt beam="1">  1        4 0.12691229E+00 0.16327005E+04</pdfrwt>
<pdfrwt beam="2">  1       -4 0.10716508E+00 0.16327005E+04</pdfrwt>
<totfact> 0.61897780E-01</totfact>
</mgrwt>
</event>
<event>
 8    1  0.5217667E-029  0.3506444E+04  0.7818608E-02  0.8112265E-01
          4   -1    0    0  501    0  0.00000000000E+00  0.00000000000E+00  0.14046348583E+04  0.14046354324E+04  0.12700000000E+01 0.  1.
         -4   -1    0    0    0  501 -0.00000000000E+00 -0.00000000000E+00 -0.21883163207E+04  0.21883166892E+04  0.12700000000E+01 0. -1.
     200001    2    1    2    0    0 -0.12961205509E+02  0.42977498999E+03  0.11951905701E+04  0.14503347838E+04  0.70008281761E+03 0.  0.
    5000001    2    3    3    0    0  0.50820736238E+02  0.65290878004E+02  0.23168790022E+03  0.30348945912E+03  0.17771022117E+03 0.  0.
        -13    1    4    4    0    0 -0.10090532159E+02 -0.54449285059E+02  0.43966048949E+02  0.70707624108E+02  0.10566000000E+00 0. -1.
     200003    1    4    4    0    0  0.60911268397E+02  0.11974016306E+03  0.18772185127E+03  0.23278183501E+03  0.30000000000E+02 0. -1.
     200000    1    3    3    0    0 -0.63781941747E+02  0.36448411198E+03  0.96350266988E+03  0.11468453247E+04  0.50000000000E+03 0.  1.
    -200001    1    1    2    0    0  0.12961205509E+02 -0.42977498999E+03 -0.19788720325E+04  0.21426173377E+04  0.70000000000E+03 0. -1.
<mgrwt>
<rscale>  0 0.35064438E+04</rscale>
<asrwt>0</asrwt>
<pdfrwt beam="1">  1        4 0.20066219E+00 0.35064438E+04</pdfrwt>
<pdfrwt beam="2">  1       -4 0.31261668E+00 0.35064438E+04</pdfrwt>
<totfact> 0.55067545E-03</totfact>
</mgrwt>
</event>
<event>
 8    1  0.5217667E-029  0.1544577E+04  0.7818608E-02  0.8855339E-01
          4   -1    0    0  501    0  0.00000000000E+00  0.00000000000E+00  0.99221011005E+03  0.99221092283E+03  0.12700000000E+01 0.  1.
         -4   -1    0    0    0  501 -0.00000000000E+00 -0.00000000000E+00 -0.60111023314E+03  0.60111157474E+03  0.12700000000E+01 0. -1.
     200001    2    1    2    0    0  0.17774657258E+03 -0.10867091718E+02  0.47710255567E+03  0.86592412082E+03  0.70034691164E+03 0.  0.
    5000001    2    3    3    0    0  0.12858485393E+03  0.59643313623E+02  0.50547834106E+02  0.20309871219E+03  0.13639139943E+03 0.  0.
        -13    1    4    4    0    0  0.10876795697E+03 -0.85904738461E+01  0.61424260498E+02  0.12520868838E+03  0.10566000000E+00 0. -1.
     200003    1    4    4    0    0  0.19816896968E+02  0.68233787469E+02 -0.10876426392E+02  0.77890023808E+02  0.30000000000E+02 0. -1.
     200000    1    3    3    0    0  0.49161718644E+02 -0.70510405341E+02  0.42655472156E+03  0.66282540863E+03  0.50000000000E+03 0.  1.
    -200001    1    1    2    0    0 -0.17774657258E+03  0.10867091718E+02 -0.86002678752E+02  0.72739837675E+03  0.70000000000E+03 0. -1.
<mgrwt>
<rscale>  0 0.15445768E+04</rscale>
<asrwt>0</asrwt>
<pdfrwt beam="1">  1        4 0.14174445E+00 0.15445768E+04</pdfrwt>
<pdfrwt beam="2">  1       -4 0.85873045E-01 0.15445768E+04</pdfrwt>
<totfact> 0.79105084E-01</totfact>
</mgrwt>
</event>
<event>
 8    1  0.5217667E-029  0.1520921E+04  0.7818608E-02  0.8870659E-01
          4   -1    0    0  501    0  0.00000000000E+00  0.00000000000E+00  0.85952439111E+03  0.85952532936E+03  0.12700000000E+01 0.  1.
         -4   -1    0    0    0  501 -0.00000000000E+00 -0.00000000000E+00 -0.67281187514E+03  0.67281307377E+03  0.12700000000E+01 0. -1.
     200001    2    1    2    0    0  0.10223434676E+03 -0.26065475077E+03  0.19406914114E+03  0.77838423961E+03  0.69987601200E+03 0.  0.
    5000001    2    3    3    0    0  0.66606830429E+02 -0.39896674239E+02 -0.14038225403E+02  0.19245581029E+03  0.17553903459E+03 0.  0.
        -13    1    4    4    0    0  0.67756427664E+02  0.66911367873E+01 -0.80816408512E+02  0.10567406423E+03  0.10566000000E+00 0. -1.
     200003    1    4    4    0    0 -0.11495972351E+01 -0.46587811026E+02  0.66778183109E+02  0.86781746061E+02  0.30000000000E+02 0. -1.
     200000    1    3    3    0    0  0.35627516332E+02 -0.22075807653E+03  0.20810736654E+03  0.58592842932E+03  0.50000000000E+03 0.  1.
    -200001    1    1    2    0    0 -0.10223434676E+03  0.26065475077E+03 -0.73566251814E+01  0.75395416352E+03  0.70000000000E+03 0. -1.
<mgrwt>
<rscale>  0 0.15209206E+04</rscale>
<asrwt>0</asrwt>
<pdfrwt beam="1">  1        4 0.12278935E+00 0.15209206E+04</pdfrwt>
<pdfrwt beam="2">  1       -4 0.96116135E-01 0.15209206E+04</pdfrwt>
<totfact> 0.87999011E-01</totfact>
</mgrwt>
</event>
<event>
 8    1  0.5217667E-029  0.1626055E+04  0.7818608E-02  0.8804700E-01
          4   -1    0    0  501    0  0.00000000000E+00  0.00000000000E+00  0.29895340302E+03  0.29895610058E+03  0.12700000000E+01 0.  1.
         -4   -1    0    0    0  501 -0.00000000000E+00 -0.00000000000E+00 -0.22110789489E+04  0.22110793136E+04  0.12700000000E+01 0. -1.
     200001    2    1    2    0    0  0.90558898650E+02 -0.29377064193E+03 -0.52996462736E+03  0.93051937793E+03  0.70035826707E+03 0.  0.
    5000001    2    3    3    0    0  0.64466422432E+02  0.64323230983E+02 -0.16540856005E+03  0.21510819172E+03  0.10304438239E+03 0.  0.
        -13    1    4    4    0    0  0.10561926789E+01  0.30494033464E+02  0.18897260203E+01  0.30570964138E+02  0.10566000000E+00 0. -1.
     200003    1    4    4    0    0  0.63410229753E+02  0.33829197520E+02 -0.16729828607E+03  0.18453722758E+03  0.30000000000E+02 0. -1.
     200000    1    3    3    0    0  0.26092476217E+02 -0.35809387292E+03 -0.36455606731E+03  0.71541118621E+03  0.50000000000E+03 0. -1.
    -200001    1    1    2    0    0 -0.90558898650E+02  0.29377064193E+03 -0.13821609185E+04  0.15795160363E+04  0.70000000000E+03 0. -1.
<mgrwt>
<rscale>  0 0.16260546E+04</rscale>
<asrwt>0</asrwt>
<pdfrwt beam="1">  1        4 0.42707849E-01 0.16260546E+04</pdfrwt>
<pdfrwt beam="2">  1       -4 0.31586863E+00 0.16260546E+04</pdfrwt>
<totfact> 0.25400953E-01</totfact>
</mgrwt>
</event>
<event>
 8    1  0.5217667E-029  0.1880822E+04  0.7818608E-02  0.8664462E-01
         -4   -1    0    0    0  501 -0.00000000000E+00  0.00000000000E+00  0.11583646597E+04  0.11583653559E+04  0.12700000000E+01 0. -1.
          4   -1    0    0  501    0  0.00000000000E+00 -0.00000000000E+00 -0.76346559669E+03  0.76346665299E+03  0.12700000000E+01 0.  1.
     200001    2    1    2    0    0  0.18234909657E+03  0.59883328064E+03  0.24579202638E+03  0.97099795425E+03  0.70040760697E+03 0.  0.
    5000001    2    3    3    0    0 -0.18363148686E+02  0.15673404934E+03  0.58492358438E+02  0.24932053232E+03  0.18394728698E+03 0.  0.
        -13    1    4    4    0    0  0.31982238120E+01  0.17885164192E+03  0.27723031524E+01  0.17890174756E+03  0.10566000000E+00 0. -1.
     200003    1    4    4    0    0 -0.21561372498E+02 -0.22117592575E+02  0.55720055285E+02  0.70418784755E+02  0.30000000000E+02 0. -1.
     200000    1    3    3    0    0  0.20071224526E+03  0.44209923130E+03  0.18729966794E+03  0.72167742193E+03  0.50000000000E+03 0. -1.
    -200001    1    1    2    0    0 -0.18234909657E+03 -0.59883328064E+03  0.14910703660E+03  0.95083405460E+03  0.70000000000E+03 0.  1.
<mgrwt>
<rscale>  0 0.18808224E+04</rscale>
<asrwt>0</asrwt>
<pdfrwt beam="1">  1        4 0.10906664E+00 0.18808224E+04</pdfrwt>
<pdfrwt beam="2">  1       -4 0.16548079E+00 0.18808224E+04</pdfrwt>
<totfact> 0.28872257E-01</totfact>
</mgrwt>
</event>
<event>
 8    1  0.5217667E-029  0.1485655E+04  0.7818608E-02  0.8894049E-01
         -4   -1    0    0    0  501 -0.00000000000E+00  0.00000000000E+00  0.89940655649E+03  0.89940745313E+03  0.12700000000E+01 0. -1.
          4   -1    0    0  501    0  0.00000000000E+00 -0.00000000000E+00 -0.61350578516E+03  0.61350709965E+03  0.12700000000E+01 0.  1.
     200001    2    1    2    0    0  0.10005990659E+02 -0.10023400541E+03  0.37438437080E+03  0.80018997550E+03  0.69999526006E+03 0.  0.
    5000001    2    3    3    0    0  0.50887123585E+02 -0.12819857069E+03  0.21870819364E+03  0.27417823031E+03  0.91192407241E+02 0.  0.
        -13    1    4    4    0    0  0.58512355118E+02 -0.11957506626E+03  0.17974899929E+03  0.22367745993E+03  0.10566000000E+00 0. -1.
     200003    1    4    4    0    0 -0.76252315332E+01 -0.86235044335E+01  0.38959194352E+02  0.50500770382E+02  0.30000000000E+02 0.  1.
     200000    1    3    3    0    0 -0.40881132926E+02  0.27964565279E+02  0.15567617716E+03  0.52601174519E+03  0.50000000000E+03 0. -1.
    -200001    1    1    2    0    0 -0.10005990659E+02  0.10023400541E+03 -0.88483599471E+02  0.71272457728E+03  0.70000000000E+03 0.  1.
<mgrwt>
<rscale>  0 0.14856551E+04</rscale>
<asrwt>0</asrwt>
<pdfrwt beam="1">  1        4 0.87643842E-01 0.14856551E+04</pdfrwt>
<pdfrwt beam="2">  1       -4 0.12848681E+00 0.14856551E+04</pdfrwt>
<totfact> 0.97576681E-01</totfact>
</mgrwt>
</event>
<event>
 8    1  0.5217667E-029  0.1517327E+04  0.7818608E-02  0.8873012E-01
         -4   -1    0    0    0  501 -0.00000000000E+00  0.00000000000E+00  0.10615368614E+04  0.10615376211E+04  0.12700000000E+01 0. -1.
          4   -1    0    0  501    0  0.00000000000E+00 -0.00000000000E+00 -0.54220277350E+03  0.54220426086E+03  0.12700000000E+01 0.  1.
     200001    2    1    2    0    0 -0.14392011645E+03 -0.24974508702E+03  0.21185792244E+03  0.78665730815E+03  0.70061425389E+03 0.  0.
    5000001    2    3    3    0    0 -0.28801763372E+02 -0.74308319748E+02  0.18543540843E+03  0.24376832892E+03  0.13669469458E+03 0.  0.
        -13    1    4    4    0    0 -0.73862640648E+02 -0.12591019829E+02  0.73538635373E+02  0.10498650161E+03  0.10566000000E+00 0. -1.
     200003    1    4    4    0    0  0.45060877276E+02 -0.61717299919E+02  0.11189677305E+03  0.13878182731E+03  0.30000000000E+02 0. -1.
     200000    1    3    3    0    0 -0.11511835308E+03 -0.17543676727E+03  0.26422514012E+02  0.54288897923E+03  0.50000000000E+03 0.  1.
    -200001    1    1    2    0    0  0.14392011645E+03  0.24974508702E+03  0.30747616543E+03  0.81708457379E+03  0.70000000000E+03 0. -1.
<mgrwt>
<rscale>  0 0.15173266E+04</rscale>
<asrwt>0</asrwt>
<pdfrwt beam="1">  1        4 0.77457699E-01 0.15173266E+04</pdfrwt>
<pdfrwt beam="2">  1       -4 0.15164829E+00 0.15173266E+04</pdfrwt>
<totfact> 0.83835676E-01</totfact>
</mgrwt>
</event>
<event>
 8    1  0.5217667E-029  0.1539994E+04  0.7818608E-02  0.8858284E-01
         -4   -1    0    0    0  501 -0.00000000000E+00  0.00000000000E+00  0.26694522243E+03  0.26694824344E+03  0.12700000000E+01 0. -1.
          4   -1    0    0  501    0  0.00000000000E+00 -0.00000000000E+00 -0.22210217847E+04  0.22210221478E+04  0.12700000000E+01 0.  1.
     200001    2    1    2    0    0 -0.29773521264E+03  0.66809808040E+02 -0.81184755976E+03  0.11139991756E+04  0.69913367506E+03 0.  0.
    5000001    2    3    3    0    0 -0.91585287249E+02  0.43618052509E+02 -0.22483881540E+03  0.31549124498E+03  0.19670239807E+03 0.  0.
        -13    1    4    4    0    0  0.32100749171E+02 -0.47832795585E+02 -0.28491494206E+02  0.64266716400E+02  0.10566000000E+00 0. -1.
     200003    1    4    4    0    0 -0.12368603642E+03  0.91450848093E+02 -0.19634732119E+03  0.25122452858E+03  0.30000000000E+02 0. -1.
     200000    1    3    3    0    0 -0.20614992540E+03  0.23191755531E+02 -0.58700874436E+03  0.79850793060E+03  0.50000000000E+03 0. -1.
    -200001    1    1    2    0    0  0.29773521264E+03 -0.66809808040E+02 -0.11422290025E+04  0.13739712157E+04  0.70000000000E+03 0.  1.
<mgrwt>
<rscale>  0 0.15399940E+04</rscale>
<asrwt>0</asrwt>
<pdfrwt beam="1">  1        4 0.31728906E+00 0.15399940E+04</pdfrwt>
<pdfrwt beam="2">  1       -4 0.38135275E-01 0.15399940E+04</pdfrwt>
<totfact> 0.31505828E-01</totfact>
</mgrwt>
</event>
<event>
 8    1  0.5217667E-029  0.2030288E+04  0.7818608E-02  0.8592590E-01
         -4   -1    0    0    0  501 -0.00000000000E+00  0.00000000000E+00  0.17820254998E+04  0.17820259523E+04  0.12700000000E+01 0. -1.
          4   -1    0    0  501    0  0.00000000000E+00 -0.00000000000E+00 -0.57828303201E+03  0.57828442657E+03  0.12700000000E+01 0.  1.
     200001    2    1    2    0    0 -0.49342048815E+03 -0.13793716291E+03 -0.10548857493E+02  0.86799879560E+03  0.70058560629E+03 0.  0.
    5000001    2    3    3    0    0 -0.50014310058E+02 -0.72546099655E+02 -0.25540195228E+02  0.19635173790E+03  0.17360108184E+03 0.  0.
        -13    1    4    4    0    0  0.57155980558E+02 -0.27248925086E+02  0.22145039916E+02  0.67079982027E+02  0.10566000000E+00 0. -1.
     200003    1    4    4    0    0 -0.10717029062E+03 -0.45297174569E+02 -0.47685235144E+02  0.12927175587E+03  0.30000000000E+02 0. -1.
     200000    1    3    3    0    0 -0.44340617809E+03 -0.65391063256E+02  0.14991337735E+02  0.67164705771E+03  0.50000000000E+03 0. -1.
    -200001    1    1    2    0    0  0.49342048815E+03  0.13793716291E+03  0.12142913253E+04  0.14923115833E+04  0.70000000000E+03 0. -1.
<mgrwt>
<rscale>  0 0.20302879E+04</rscale>
<asrwt>0</asrwt>
<pdfrwt beam="1">  1        4 0.82611994E-01 0.20302879E+04</pdfrwt>
<pdfrwt beam="2">  1       -4 0.25457520E+00 0.20302879E+04</pdfrwt>
<totfact> 0.14252561E-01</totfact>
</mgrwt>
</event>
<event>
 8    1  0.5217667E-029  0.1522833E+04  0.7818608E-02  0.8869409E-01
          4   -1    0    0  501    0  0.00000000000E+00  0.00000000000E+00  0.21128452127E+04  0.21128455944E+04  0.12700000000E+01 0.  1.
         -4   -1    0    0    0  501 -0.00000000000E+00 -0.00000000000E+00 -0.27439371858E+03  0.27439665759E+03  0.12700000000E+01 0. -1.
     200001    2    1    2    0    0  0.29735536852E+03  0.25035562687E+02  0.89143196340E+03  0.11723788909E+04  0.70055287012E+03 0.  0.
    5000001    2    3    3    0    0  0.63220813896E+02 -0.91062741270E+02  0.23162451756E+03  0.30425236126E+03  0.16318789184E+03 0.  0.
        -13    1    4    4    0    0 -0.39799041900E+02 -0.47326381478E+01  0.12143622526E+03  0.12787935552E+03  0.10566000000E+00 0. -1.
     200003    1    4    4    0    0  0.10301985580E+03 -0.86330103122E+02  0.11018829230E+03  0.17637300574E+03  0.30000000000E+02 0. -1.
     200000    1    3    3    0    0  0.23413455463E+03  0.11609830396E+03  0.65980744584E+03  0.86812652962E+03  0.50000000000E+03 0.  1.
    -200001    1    1    2    0    0 -0.29735536852E+03 -0.25035562687E+02  0.94701953074E+03  0.12148633611E+04  0.70000000000E+03 0.  1.
<mgrwt>
<rscale>  0 0.15228334E+04</rscale>
<asrwt>0</asrwt>
<pdfrwt beam="1">  1        4 0.30183526E+00 0.15228334E+04</pdfrwt>
<pdfrwt beam="2">  1       -4 0.39199341E-01 0.15228334E+04</pdfrwt>
<totfact> 0.37295343E-01</totfact>
</mgrwt>
</event>
<event>
 8    1  0.5217667E-029  0.1405134E+04  0.7818608E-02  0.8950111E-01
         -4   -1    0    0    0  501 -0.00000000000E+00  0.00000000000E+00  0.59982262450E+03  0.59982396898E+03  0.12700000000E+01 0. -1.
          4   -1    0    0  501    0  0.00000000000E+00 -0.00000000000E+00 -0.82290789974E+03  0.82290887974E+03  0.12700000000E+01 0.  1.
     200001    2    1    2    0    0 -0.45044099296E+01  0.52040277841E+02 -0.87825639961E+02  0.70787366737E+03  0.70045935334E+03 0.  0.
    5000001    2    3    3    0    0 -0.10696766818E+03 -0.91682920680E+01 -0.55354821188E+02  0.19280128178E+03  0.15027321255E+03 0.  0.
        -13    1    4    4    0    0 -0.87344676364E+02 -0.52548679639E+02  0.14650514127E+02  0.10298109025E+03  0.10566000000E+00 0. -1.
     200003    1    4    4    0    0 -0.19622991817E+02  0.43380387571E+02 -0.70005335315E+02  0.89820191529E+02  0.30000000000E+02 0. -1.
     200000    1    3    3    0    0  0.10246325825E+03  0.61208569909E+02 -0.32470818773E+02  0.51507238559E+03  0.50000000000E+03 0.  1.
    -200001    1    1    2    0    0  0.45044099296E+01 -0.52040277841E+02 -0.13525963529E+03  0.71485918135E+03  0.70000000000E+03 0.  1.
<mgrwt>
<rscale>  0 0.14051341E+04</rscale>
<asrwt>0</asrwt>
<pdfrwt beam="1">  1        4 0.11755844E+00 0.14051341E+04</pdfrwt>
<pdfrwt beam="2">  1       -4 0.85689113E-01 0.14051341E+04</pdfrwt>
<totfact> 0.12917500E+00</totfact>
</mgrwt>
</event>
<event>
 8    1  0.5217667E-029  0.1446642E+04  0.7818608E-02  0.8920732E-01
         -4   -1    0    0    0  501 -0.00000000000E+00  0.00000000000E+00  0.83676561149E+03  0.83676657526E+03  0.12700000000E+01 0.  1.
          4   -1    0    0  501    0  0.00000000000E+00 -0.00000000000E+00 -0.62525496336E+03  0.62525625315E+03  0.12700000000E+01 0. -1.
     200001    2    1    2    0    0 -0.46583275536E+02 -0.11441443183E+03 -0.33033857494E+02  0.71031631719E+03  0.69871122143E+03 0.  0.
    5000001    2    3    3    0    0  0.28871418338E+02  0.14110281813E+02 -0.95422944632E+01  0.18804831475E+03  0.18503635979E+03 0.  0.
        -13    1    4    4    0    0  0.68591282976E+02  0.37891371125E+02 -0.70802558317E+02  0.10561029085E+03  0.10566000000E+00 0. -1.
     200003    1    4    4    0    0 -0.39719864637E+02 -0.23781089312E+02  0.61260263854E+02  0.82438023892E+02  0.30000000000E+02 0. -1.
     200000    1    3    3    0    0 -0.75454693874E+02 -0.12852471365E+03 -0.23491563031E+02  0.52226800245E+03  0.50000000000E+03 0. -1.
    -200001    1    1    2    0    0  0.46583275536E+02  0.11441443183E+03  0.24454450563E+03  0.75170651122E+03  0.70000000000E+03 0. -1.
<mgrwt>
<rscale>  0 0.14466423E+04</rscale>
<asrwt>0</asrwt>
<pdfrwt beam="1">  1        4 0.89322299E-01 0.14466423E+04</pdfrwt>
<pdfrwt beam="2">  1       -4 0.11953811E+00 0.14466423E+04</pdfrwt>
<totfact> 0.11228613E+00</totfact>
</mgrwt>
</event>
<event>
 8    1  0.5217667E-029  0.1608845E+04  0.7818608E-02  0.8815133E-01
         -4   -1    0    0    0  501 -0.00000000000E+00  0.00000000000E+00  0.25123008806E+03  0.25123329804E+03  0.12700000000E+01 0. -1.
          4   -1    0    0  501    0  0.00000000000E+00 -0.00000000000E+00 -0.25756884655E+04  0.25756887786E+04  0.12700000000E+01 0.  1.
     200001    2    1    2    0    0 -0.19951370451E+03  0.23030837939E+03 -0.71589809823E+03  0.10463845624E+04  0.69968771420E+03 0.  0.
    5000001    2    3    3    0    0 -0.27918264624E+02  0.76994133850E+02 -0.31237115204E+03  0.36390068038E+03  0.16775113234E+03 0.  0.
        -13    1    4    4    0    0  0.12466432322E+01  0.76487067863E+02 -0.36293813370E+02  0.84670406416E+02  0.10566000000E+00 0. -1.
     200003    1    4    4    0    0 -0.29164907856E+02  0.50706598679E+00 -0.27607733867E+03  0.27923027396E+03  0.30000000000E+02 0. -1.
     200000    1    3    3    0    0 -0.17159543989E+03  0.15331424554E+03 -0.40352694619E+03  0.68248388199E+03  0.50000000000E+03 0. -1.
    -200001    1    1    2    0    0  0.19951370451E+03 -0.23030837939E+03 -0.16085602792E+04  0.17805375143E+04  0.70000000000E+03 0.  1.
<mgrwt>
<rscale>  0 0.16088448E+04</rscale>
<asrwt>0</asrwt>
<pdfrwt beam="1">  1        4 0.36795573E+00 0.16088448E+04</pdfrwt>
<pdfrwt beam="2">  1       -4 0.35890266E-01 0.16088448E+04</pdfrwt>
<totfact> 0.16647254E-01</totfact>
</mgrwt>
</event>
<event>
 8    1  0.5217667E-029  0.1434083E+04  0.7818608E-02  0.8929510E-01
         -4   -1    0    0    0  501 -0.00000000000E+00  0.00000000000E+00  0.10131797858E+04  0.10131805817E+04  0.12700000000E+01 0. -1.
          4   -1    0    0  501    0  0.00000000000E+00 -0.00000000000E+00 -0.50745880727E+03  0.50746039646E+03  0.12700000000E+01 0.  1.
     200001    2    1    2    0    0  0.10829831411E+03 -0.83913373897E+02  0.32915605069E+03  0.78583137502E+03  0.70029798308E+03 0.  0.
    5000001    2    3    3    0    0  0.65302239428E+02 -0.88584838401E+01 -0.42815234325E+02  0.15666960264E+03  0.13553363011E+03 0.  0.
        -13    1    4    4    0    0  0.84106365536E+01 -0.29200512605E+02  0.39760485133E+02  0.50043142244E+02  0.10566000000E+00 0. -1.
     200003    1    4    4    0    0  0.56891602874E+02  0.20342028765E+02 -0.82575719458E+02  0.10662646039E+03  0.30000000000E+02 0. -1.
     200000    1    3    3    0    0  0.42996074686E+02 -0.75054890056E+02  0.37197128501E+03  0.62916177239E+03  0.50000000000E+03 0. -1.
    -200001    1    1    2    0    0 -0.10829831411E+03  0.83913373897E+02  0.17656492780E+03  0.73480960315E+03  0.70000000000E+03 0. -1.
<mgrwt>
<rscale>  0 0.14340834E+04</rscale>
<asrwt>0</asrwt>
<pdfrwt beam="1">  1        4 0.72494286E-01 0.14340834E+04</pdfrwt>
<pdfrwt beam="2">  1       -4 0.14474014E+00 0.14340834E+04</pdfrwt>
<totfact> 0.11067932E+00</totfact>
</mgrwt>
</event>
<event>
 8    1  0.5217667E-029  0.1406551E+04  0.7818608E-02  0.8949090E-01
          4   -1    0    0  501    0  0.00000000000E+00  0.00000000000E+00  0.10865310880E+04  0.10865318303E+04  0.12700000000E+01 0.  1.
         -4   -1    0    0    0  501 -0.00000000000E+00 -0.00000000000E+00 -0.45520504317E+03  0.45520681479E+03  0.12700000000E+01 0. -1.
     200001    2    1    2    0    0  0.16005499439E+02  0.41255809405E+02  0.26870924837E+03  0.75215067723E+03  0.70111893661E+03 0.  0.
    5000001    2    3    3    0    0 -0.13497873457E+02  0.41813197822E+02  0.77151676576E+02  0.21589974436E+03  0.19679883718E+03 0.  0.
        -13    1    4    4    0    0  0.89470197065E+02  0.26201957848E+02  0.33632497806E+02  0.99109105689E+02  0.10566000000E+00 0. -1.
     200003    1    4    4    0    0 -0.10296807052E+03  0.15611239974E+02  0.43519178770E+02  0.11679063867E+03  0.30000000000E+02 0. -1.
     200000    1    3    3    0    0  0.29503372896E+02 -0.55738841717E+00  0.19155757180E+03  0.53625093287E+03  0.50000000000E+03 0. -1.
    -200001    1    1    2    0    0 -0.16005499439E+02 -0.41255809405E+02  0.36261679648E+03  0.78958796781E+03  0.70000000000E+03 0. -1.
<mgrwt>
<rscale>  0 0.14065509E+04</rscale>
<asrwt>0</asrwt>
<pdfrwt beam="1">  1        4 0.15521891E+00 0.14065509E+04</pdfrwt>
<pdfrwt beam="2">  1       -4 0.65029472E-01 0.14065509E+04</pdfrwt>
<totfact> 0.11694052E+00</totfact>
</mgrwt>
</event>
<event>
 8    1  0.5217667E-029  0.1836650E+04  0.7818608E-02  0.8687049E-01
         -4   -1    0    0    0  501 -0.00000000000E+00  0.00000000000E+00  0.25896054225E+03  0.25896365641E+03  0.12700000000E+01 0. -1.
          4   -1    0    0  501    0  0.00000000000E+00 -0.00000000000E+00 -0.32565385525E+04  0.32565388002E+04  0.12700000000E+01 0.  1.
     200001    2    1    2    0    0  0.57570272062E+03 -0.60340255308E+02 -0.17550728854E+04  0.19763814236E+04  0.70051989932E+03 0.  0.
    5000001    2    3    3    0    0  0.19970538675E+03  0.70147625738E+02 -0.47737695917E+03  0.54777792290E+03  0.16543566959E+03 0.  0.
        -13    1    4    4    0    0 -0.41544078396E+01  0.29610340437E+02 -0.43318579593E+01  0.30212704658E+02  0.10566000000E+00 0. -1.
     200003    1    4    4    0    0  0.20385979459E+03  0.40537285300E+02 -0.47304510121E+03  0.51756521824E+03  0.30000000000E+02 0. -1.
     200000    1    3    3    0    0  0.37599733387E+03 -0.13048788105E+03 -0.12776959262E+04  0.14286035007E+04  0.50000000000E+03 0.  1.
    -200001    1    1    2    0    0 -0.57570272062E+03  0.60340255308E+02 -0.12425051249E+04  0.15391210330E+04  0.70000000000E+03 0. -1.
<mgrwt>
<rscale>  0 0.18366501E+04</rscale>
<asrwt>0</asrwt>
<pdfrwt beam="1">  1        4 0.46522001E+00 0.18366501E+04</pdfrwt>
<pdfrwt beam="2">  1       -4 0.36994605E-01 0.18366501E+04</pdfrwt>
<totfact> 0.31006250E-02</totfact>
</mgrwt>
</event>
<event>
 8    1  0.5217667E-029  0.1683930E+04  0.7818608E-02  0.8770583E-01
          4   -1    0    0  501    0  0.00000000000E+00  0.00000000000E+00  0.10543805867E+04  0.10543813516E+04  0.12700000000E+01 0.  1.
         -4   -1    0    0    0  501 -0.00000000000E+00 -0.00000000000E+00 -0.67234109817E+03  0.67234229763E+03  0.12700000000E+01 0. -1.
     200001    2    1    2    0    0  0.31050709414E+03 -0.17577032225E+03 -0.12351702454E+03  0.79243394595E+03  0.69669594634E+03 0.  0.
    5000001    2    3    3    0    0  0.38132006193E+02 -0.34825517040E+02  0.33060763032E+02  0.18533409402E+03  0.17489667184E+03 0.  0.
        -13    1    4    4    0    0  0.38773315985E+02  0.62822479240E+02 -0.99544723232E+01  0.74492527234E+02  0.10566000000E+00 0. -1.
     200003    1    4    4    0    0 -0.64130979159E+00 -0.97647996280E+02  0.43015235355E+02  0.11084156679E+03  0.30000000000E+02 0. -1.
     200000    1    3    3    0    0  0.27237508795E+03 -0.14094480521E+03 -0.15657778758E+03  0.60709985193E+03  0.50000000000E+03 0. -1.
    -200001    1    1    2    0    0 -0.31050709414E+03  0.17577032225E+03  0.50555651312E+03  0.93428970328E+03  0.70000000000E+03 0.  1.
<mgrwt>
<rscale>  0 0.16839300E+04</rscale>
<asrwt>0</asrwt>
<pdfrwt beam="1">  1        4 0.15062594E+00 0.16839300E+04</pdfrwt>
<pdfrwt beam="2">  1       -4 0.96048868E-01 0.16839300E+04</pdfrwt>
<totfact> 0.51365787E-01</totfact>
</mgrwt>
</event>
<event>
 8    1  0.5217667E-029  0.2160120E+04  0.7818608E-02  0.8535213E-01
         -4   -1    0    0    0  501 -0.00000000000E+00  0.00000000000E+00  0.91000702154E+03  0.91000790774E+03  0.12700000000E+01 0. -1.
          4   -1    0    0  501    0  0.00000000000E+00 -0.00000000000E+00 -0.12818893424E+04  0.12818899715E+04  0.12700000000E+01 0.  1.
     200001    2    1    2    0    0  0.16808598368E+03  0.26426121530E+03 -0.95768057745E+03  0.12268867471E+04  0.70000865275E+03 0.  0.
    5000001    2    3    3    0    0  0.12866635682E+03  0.18092109555E+03 -0.32350930412E+03  0.41406900216E+03  0.13231551122E+03 0.  0.
        -13    1    4    4    0    0  0.91675797288E+01  0.78891120773E+02 -0.18919809731E+03  0.20519206770E+03  0.10566000000E+00 0. -1.
     200003    1    4    4    0    0  0.11949877709E+03  0.10202997478E+03 -0.13431120680E+03  0.20887693447E+03  0.30000000000E+02 0. -1.
     200000    1    3    3    0    0  0.39419626867E+02  0.83340119746E+02 -0.63417127333E+03  0.81281774492E+03  0.50000000000E+03 0.  1.
    -200001    1    1    2    0    0 -0.16808598368E+03 -0.26426121530E+03  0.58579825658E+03  0.96501113218E+03  0.70000000000E+03 0. -1.
<mgrwt>
<rscale>  0 0.21601203E+04</rscale>
<asrwt>0</asrwt>
<pdfrwt beam="1">  1        4 0.18312716E+00 0.21601203E+04</pdfrwt>
<pdfrwt beam="2">  1       -4 0.13000111E+00 0.21601203E+04</pdfrwt>
<totfact> 0.13683188E-01</totfact>
</mgrwt>
</event>
<event>
 8    1  0.5217667E-029  0.2129121E+04  0.7818608E-02  0.8548523E-01
          4   -1    0    0  501    0  0.00000000000E+00  0.00000000000E+00  0.12160155393E+04  0.12160162024E+04  0.12700000000E+01 0.  1.
         -4   -1    0    0    0  501 -0.00000000000E+00 -0.00000000000E+00 -0.93196809041E+03  0.93196895573E+03  0.12700000000E+01 0. -1.
     200001    2    1    2    0    0 -0.49278950836E+03 -0.56061812873E+03 -0.15366006277E+03  0.10350062493E+04  0.70035157989E+03 0.  0.
    5000001    2    3    3    0    0 -0.15488343195E+03 -0.22860622899E+03 -0.83052658415E+02  0.34262064608E+03  0.18504452876E+03 0.  0.
        -13    1    4    4    0    0  0.68129938649E+01 -0.33045038783E+02  0.45453083675E+02  0.56607291519E+02  0.10566000000E+00 0. -1.
     200003    1    4    4    0    0 -0.16169642582E+03 -0.19556119021E+03 -0.12850574209E+03  0.28601335456E+03  0.30000000000E+02 0. -1.
     200000    1    3    3    0    0 -0.33790607641E+03 -0.33201189973E+03 -0.70607404350E+02  0.69238560325E+03  0.50000000000E+03 0.  1.
    -200001    1    1    2    0    0  0.49278950836E+03  0.56061812873E+03  0.43770751161E+03  0.11129789088E+04  0.70000000000E+03 0.  1.
<mgrwt>
<rscale>  0 0.21291212E+04</rscale>
<asrwt>0</asrwt>
<pdfrwt beam="1">  1        4 0.17371661E+00 0.21291212E+04</pdfrwt>
<pdfrwt beam="2">  1       -4 0.13313841E+00 0.21291212E+04</pdfrwt>
<totfact> 0.15020731E-01</totfact>
</mgrwt>
</event>
<event>
 8    1  0.5217667E-029  0.1453653E+04  0.7818608E-02  0.8915872E-01
          4   -1    0    0  501    0  0.00000000000E+00  0.00000000000E+00  0.20817904744E+04  0.20817908618E+04  0.12700000000E+01 0.  1.
         -4   -1    0    0    0  501 -0.00000000000E+00 -0.00000000000E+00 -0.25375886786E+03  0.25376204585E+03  0.12700000000E+01 0. -1.
     200001    2    1    2    0    0  0.15633778693E+03  0.98807832386E+02  0.81332899196E+03  0.10890273815E+04  0.70019432806E+03 0.  0.
    5000001    2    3    3    0    0  0.12990748713E+03  0.29857948607E+02  0.21518704210E+03  0.30593962175E+03  0.17183171059E+03 0.  0.
        -13    1    4    4    0    0  0.53923632921E+02 -0.27793762418E+02  0.19462538189E+03  0.20386098660E+03  0.10566000000E+00 0. -1.
     200003    1    4    4    0    0  0.75983854210E+02  0.57651711025E+02  0.20561660207E+02  0.10207863516E+03  0.30000000000E+02 0. -1.
     200000    1    3    3    0    0  0.26430299803E+02  0.68949883779E+02  0.59814194986E+03  0.78308775971E+03  0.50000000000E+03 0. -1.
    -200001    1    1    2    0    0 -0.15633778693E+03 -0.98807832386E+02  0.10147026146E+04  0.12465255262E+04  0.70000000000E+03 0. -1.
<mgrwt>
<rscale>  0 0.14536533E+04</rscale>
<asrwt>0</asrwt>
<pdfrwt beam="1">  1        4 0.29739888E+00 0.14536533E+04</pdfrwt>
<pdfrwt beam="2">  1       -4 0.36251523E-01 0.14536533E+04</pdfrwt>
<totfact> 0.46717446E-01</totfact>
</mgrwt>
</event>
<event>
 8    1  0.5217667E-029  0.2184414E+04  0.7818608E-02  0.8524944E-01
         -4   -1    0    0    0  501 -0.00000000000E+00  0.00000000000E+00  0.77844896507E+03  0.77845000104E+03  0.12700000000E+01 0. -1.
          4   -1    0    0  501    0  0.00000000000E+00 -0.00000000000E+00 -0.15324242029E+04  0.15324247291E+04  0.12700000000E+01 0.  1.
     200001    2    1    2    0    0  0.12680079814E+03 -0.65438583223E+03 -0.91539239299E+03  0.13308978132E+04  0.69931859413E+03 0.  0.
    5000001    2    3    3    0    0 -0.11792299816E+03 -0.72238533146E+02 -0.13978672634E+03  0.21270759479E+03  0.81116908571E+02 0.  0.
        -13    1    4    4    0    0 -0.90450541124E+02 -0.76096395015E+02 -0.11500742033E+03  0.16492022198E+03  0.10566000000E+00 0. -1.
     200003    1    4    4    0    0 -0.27472457035E+02  0.38578618691E+01 -0.24779306004E+02  0.47787372807E+02  0.30000000000E+02 0. -1.
     200000    1    3    3    0    0  0.24472379630E+03 -0.58214729909E+03 -0.77560566665E+03  0.11181902184E+04  0.50000000000E+03 0.  1.
    -200001    1    1    2    0    0 -0.12680079814E+03  0.65438583223E+03  0.16141715520E+03  0.97997691699E+03  0.70000000000E+03 0. -1.
<mgrwt>
<rscale>  0 0.21844137E+04</rscale>
<asrwt>0</asrwt>
<pdfrwt beam="1">  1        4 0.21891785E+00 0.21844137E+04</pdfrwt>
<pdfrwt beam="2">  1       -4 0.11120711E+00 0.21844137E+04</pdfrwt>
<totfact> 0.11680038E-01</totfact>
</mgrwt>
</event>
<event>
 8    1  0.5217667E-029  0.1545400E+04  0.7818608E-02  0.8854812E-01
          4   -1    0    0  501    0  0.00000000000E+00  0.00000000000E+00  0.12623280774E+04  0.12623287162E+04  0.12700000000E+01 0.  1.
         -4   -1    0    0    0  501 -0.00000000000E+00 -0.00000000000E+00 -0.47298552515E+03  0.47298723017E+03  0.12700000000E+01 0. -1.
     200001    2    1    2    0    0 -0.26942707430E+03 -0.17605267813E+03  0.46203662703E+03  0.89822893628E+03  0.69982275142E+03 0.  0.
    5000001    2    3    3    0    0 -0.13065959285E+03 -0.57569235329E+02  0.10028084143E+03  0.25467475166E+03  0.18551775094E+03 0.  0.
        -13    1    4    4    0    0 -0.27197520774E+02 -0.46678905151E+02  0.13135513879E+03  0.14203101412E+03  0.10566000000E+00 0. -1.
     200003    1    4    4    0    0 -0.10346207207E+03 -0.10890330178E+02 -0.31074297364E+02  0.11264373753E+03  0.30000000000E+02 0. -1.
     200000    1    3    3    0    0 -0.13876748145E+03 -0.11848344280E+03  0.36175578561E+03  0.64355418462E+03  0.50000000000E+03 0.  1.
    -200001    1    1    2    0    0  0.26942707430E+03  0.17605267813E+03  0.32730592518E+03  0.83708701011E+03  0.70000000000E+03 0.  1.
<mgrwt>
<rscale>  0 0.15453995E+04</rscale>
<asrwt>0</asrwt>
<pdfrwt beam="1">  1        4 0.18033275E+00 0.15453995E+04</pdfrwt>
<pdfrwt beam="2">  1       -4 0.67569528E-01 0.15453995E+04</pdfrwt>
<totfact> 0.70113949E-01</totfact>
</mgrwt>
</event>
<event>
 8    1  0.5217667E-029  0.1807250E+04  0.7818608E-02  0.8702454E-01
          4   -1    0    0  501    0  0.00000000000E+00  0.00000000000E+00  0.61271685634E+03  0.61271817253E+03  0.12700000000E+01 0.  1.
         -4   -1    0    0    0  501 -0.00000000000E+00 -0.00000000000E+00 -0.13326479098E+04  0.13326485149E+04  0.12700000000E+01 0. -1.
     200001    2    1    2    0    0 -0.42649507084E+03  0.37401297679E+03 -0.28377152995E+03  0.94435775535E+03  0.69964386414E+03 0.  0.
    5000001    2    3    3    0    0 -0.11730240242E+03  0.85692227289E+02 -0.69153703550E+02  0.25530784989E+03  0.19823433626E+03 0.  0.
        -13    1    4    4    0    0 -0.44630516810E+02  0.13816836855E+03 -0.69056229070E+02  0.16078294386E+03  0.10566000000E+00 0. -1.
     200003    1    4    4    0    0 -0.72671885607E+02 -0.52476141263E+02 -0.97474479753E-01  0.94524906034E+02  0.30000000000E+02 0. -1.
     200000    1    3    3    0    0 -0.30919266842E+03  0.28832074950E+03 -0.21461782640E+03  0.68904990545E+03  0.50000000000E+03 0.  1.
    -200001    1    1    2    0    0  0.42649507084E+03 -0.37401297679E+03 -0.43615952350E+03  0.10010089321E+04  0.70000000000E+03 0. -1.
<mgrwt>
<rscale>  0 0.18072495E+04</rscale>
<asrwt>0</asrwt>
<pdfrwt beam="1">  1        4 0.87531117E-01 0.18072495E+04</pdfrwt>
<pdfrwt beam="2">  1       -4 0.19037841E+00 0.18072495E+04</pdfrwt>
<totfact> 0.32753220E-01</totfact>
</mgrwt>
</event>
<event>
 8    1  0.5217667E-029  0.1490315E+04  0.7818608E-02  0.8890919E-01
          4   -1    0    0  501    0  0.00000000000E+00  0.00000000000E+00  0.49057097910E+03  0.49057262299E+03  0.12700000000E+01 0. -1.
         -4   -1    0    0    0  501 -0.00000000000E+00 -0.00000000000E+00 -0.11318602397E+04  0.11318609522E+04  0.12700000000E+01 0.  1.
     200001    2    1    2    0    0 -0.88539397179E+02  0.11135199672E+03 -0.55041704221E+03  0.90236673654E+03  0.70076266655E+03 0.  0.
    5000001    2    3    3    0    0  0.15527808185E+02  0.35685139059E+01 -0.41473700105E+02  0.17334644336E+03  0.16755618313E+03 0.  0.
        -13    1    4    4    0    0 -0.45421829803E+01  0.14003741011E+02  0.61758644869E+02  0.63489192534E+02  0.10566000000E+00 0. -1.
     200003    1    4    4    0    0  0.20069991165E+02 -0.10435227105E+02 -0.10323234497E+03  0.10985725083E+03  0.30000000000E+02 0. -1.
     200000    1    3    3    0    0 -0.10406720536E+03  0.10778348282E+03 -0.50894334211E+03  0.72902029319E+03  0.50000000000E+03 0.  1.
    -200001    1    1    2    0    0  0.88539397179E+02 -0.11135199672E+03 -0.90872218377E+02  0.72006683863E+03  0.70000000000E+03 0. -1.
<mgrwt>
<rscale>  0 0.14903150E+04</rscale>
<asrwt>0</asrwt>
<pdfrwt beam="1">  1        4 0.70081737E-01 0.14903150E+04</pdfrwt>
<pdfrwt beam="2">  1       -4 0.16169449E+00 0.14903150E+04</pdfrwt>
<totfact> 0.88252003E-01</totfact>
</mgrwt>
</event>
<event>
 8    1  0.5217667E-029  0.1779527E+04  0.7818608E-02  0.8717263E-01
         -4   -1    0    0    0  501 -0.00000000000E+00  0.00000000000E+00  0.62406718087E+03  0.62406847312E+03  0.12700000000E+01 0. -1.
          4   -1    0    0  501    0  0.00000000000E+00 -0.00000000000E+00 -0.12685773820E+04  0.12685780177E+04  0.12700000000E+01 0.  1.
     200001    2    1    2    0    0  0.21031271054E+03  0.41641531649E+03 -0.62983766536E+03  0.10513092009E+04  0.70065854680E+03 0.  0.
    5000001    2    3    3    0    0 -0.35505042791E+02  0.11985098900E+03 -0.10368619612E+03  0.22959627247E+03  0.16229218539E+03 0.  0.
        -13    1    4    4    0    0 -0.25457343342E+02  0.13097821133E+03 -0.13051484392E+03  0.18664807479E+03  0.10566000000E+00 0. -1.
     200003    1    4    4    0    0 -0.10047699448E+02 -0.11127222331E+02  0.26828647808E+02  0.42948197683E+02  0.30000000000E+02 0. -1.
     200000    1    3    3    0    0  0.24581775333E+03  0.29656432749E+03 -0.52615146924E+03  0.82171292845E+03  0.50000000000E+03 0.  1.
    -200001    1    1    2    0    0 -0.21031271054E+03 -0.41641531649E+03 -0.14672535736E+02  0.84133728987E+03  0.70000000000E+03 0. -1.
<mgrwt>
<rscale>  0 0.17795273E+04</rscale>
<asrwt>0</asrwt>
<pdfrwt beam="1">  1        4 0.18122548E+00 0.17795273E+04</pdfrwt>
<pdfrwt beam="2">  1       -4 0.89152593E-01 0.17795273E+04</pdfrwt>
<totfact> 0.36333521E-01</totfact>
</mgrwt>
</event>
<event>
 8    1  0.5217667E-029  0.1861342E+04  0.7818608E-02  0.8674342E-01
          4   -1    0    0  501    0  0.00000000000E+00  0.00000000000E+00  0.59840589608E+03  0.59840724374E+03  0.12700000000E+01 0.  1.
         -4   -1    0    0    0  501 -0.00000000000E+00 -0.00000000000E+00 -0.14474226642E+04  0.14474232214E+04  0.12700000000E+01 0. -1.
     200001    2    1    2    0    0 -0.21099305342E+03 -0.27077218295E+02 -0.10534763402E+04  0.12861891281E+04  0.70655419446E+03 0.  0.
    5000001    2    3    3    0    0 -0.18584835228E+02 -0.46000633669E+02 -0.17461303846E+03  0.25673309646E+03  0.18155086124E+03 0.  0.
        -13    1    4    4    0    0 -0.44111227839E+02 -0.30921421996E+02  0.20105104575E+02  0.57499227418E+02  0.10566000000E+00 0. -1.
     200003    1    4    4    0    0  0.25526392611E+02 -0.15079211673E+02 -0.19471814304E+03  0.19923386904E+03  0.30000000000E+02 0. -1.
     200000    1    3    3    0    0 -0.19240821819E+03  0.18923415374E+02 -0.87886330169E+03  0.10294560317E+04  0.50000000000E+03 0. -1.
    -200001    1    1    2    0    0  0.21099305342E+03  0.27077218295E+02  0.20445957198E+03  0.75964133703E+03  0.70000000000E+03 0.  1.
<mgrwt>
<rscale>  0 0.18613417E+04</rscale>
<asrwt>0</asrwt>
<pdfrwt beam="1">  1        4 0.85486694E-01 0.18613417E+04</pdfrwt>
<pdfrwt beam="2">  1       -4 0.20677480E+00 0.18613417E+04</pdfrwt>
<totfact> 0.26806620E-01</totfact>
</mgrwt>
</event>
<event>
 8    1  0.5217667E-029  0.1759552E+04  0.7818608E-02  0.8728110E-01
          4   -1    0    0  501    0  0.00000000000E+00  0.00000000000E+00  0.71671795536E+03  0.71671908056E+03  0.12700000000E+01 0.  1.
         -4   -1    0    0    0  501 -0.00000000000E+00 -0.00000000000E+00 -0.10799290802E+04  0.10799298270E+04  0.12700000000E+01 0. -1.
     200001    2    1    2    0    0 -0.43525134292E+03  0.28376915600E+03 -0.30279674354E+03  0.92279619516E+03  0.69992734230E+03 0.  0.
    5000001    2    3    3    0    0 -0.56192452598E+02  0.89660460822E+02 -0.14400485762E+03  0.24709012673E+03  0.17064448936E+03 0.  0.
        -13    1    4    4    0    0 -0.24914949277E+01 -0.48923680364E+02 -0.30745758773E+02  0.57836380366E+02  0.10566000000E+00 0. -1.
     200003    1    4    4    0    0 -0.53700957671E+02  0.13858414119E+03 -0.11325909885E+03  0.18925374637E+03  0.30000000000E+02 0. -1.
     200000    1    3    3    0    0 -0.37905889032E+03  0.19410869518E+03 -0.15879188592E+03  0.67570606843E+03  0.50000000000E+03 0.  1.
    -200001    1    1    2    0    0  0.43525134292E+03 -0.28376915600E+03 -0.60414381291E+02  0.87385271235E+03  0.70000000000E+03 0. -1.
<mgrwt>
<rscale>  0 0.17595525E+04</rscale>
<asrwt>0</asrwt>
<pdfrwt beam="1">  1        4 0.10238841E+00 0.17595525E+04</pdfrwt>
<pdfrwt beam="2">  1       -4 0.15427572E+00 0.17595525E+04</pdfrwt>
<totfact> 0.41141416E-01</totfact>
</mgrwt>
</event>
<event>
 8    1  0.5217667E-029  0.1572679E+04  0.7818608E-02  0.8837510E-01
         -4   -1    0    0    0  501 -0.00000000000E+00  0.00000000000E+00  0.12183304099E+04  0.12183310718E+04  0.12700000000E+01 0. -1.
          4   -1    0    0  501    0  0.00000000000E+00 -0.00000000000E+00 -0.50752063657E+03  0.50752222557E+03  0.12700000000E+01 0.  1.
     200001    2    1    2    0    0  0.19603752771E+03 -0.29429376733E+03  0.41436182908E+03  0.88744950599E+03  0.70059358156E+03 0.  0.
    5000001    2    3    3    0    0  0.10795204274E+03 -0.52337448885E+02  0.12348643546E+03  0.25427464285E+03  0.18711986043E+03 0.  0.
        -13    1    4    4    0    0  0.54807206624E+02 -0.61914522795E+02  0.16171458028E+03  0.18162834214E+03  0.10566000000E+00 0. -1.
     200003    1    4    4    0    0  0.53144836119E+02  0.95770739107E+01 -0.38228144817E+02  0.72646300711E+02  0.30000000000E+02 0. -1.
     200000    1    3    3    0    0  0.88085484966E+02 -0.24195631844E+03  0.29087539362E+03  0.63317486314E+03  0.50000000000E+03 0.  1.
    -200001    1    1    2    0    0 -0.19603752771E+03  0.29429376733E+03  0.29644794420E+03  0.83840379137E+03  0.70000000000E+03 0.  1.
<mgrwt>
<rscale>  0 0.15726789E+04</rscale>
<asrwt>0</asrwt>
<pdfrwt beam="1">  1        4 0.72503110E-01 0.15726789E+04</pdfrwt>
<pdfrwt beam="2">  1       -4 0.17404736E+00 0.15726789E+04</pdfrwt>
<totfact> 0.66272298E-01</totfact>
</mgrwt>
</event>
<event>
 8    1  0.5217667E-029  0.2117919E+04  0.7818608E-02  0.8553391E-01
          4   -1    0    0  501    0  0.00000000000E+00  0.00000000000E+00  0.84283948951E+03  0.84284044633E+03  0.12700000000E+01 0.  1.
         -4   -1    0    0    0  501 -0.00000000000E+00 -0.00000000000E+00 -0.13304947950E+04  0.13304954011E+04  0.12700000000E+01 0. -1.
     200001    2    1    2    0    0 -0.13802344650E+03  0.50039377598E+03  0.37331038120E+03  0.94830265750E+03  0.70033769475E+03 0.  0.
    5000001    2    3    3    0    0 -0.94169540490E+02  0.19302695833E+03  0.86953825148E+02  0.29378176183E+03  0.18060854598E+03 0.  0.
        -13    1    4    4    0    0  0.16473494874E+02 -0.24683570100E+02 -0.68544673167E+01  0.30457339879E+02  0.10566000000E+00 0. -1.
     200003    1    4    4    0    0 -0.11064303536E+03  0.21771052843E+03  0.93808292465E+02  0.26332442196E+03  0.30000000000E+02 0. -1.
     200000    1    3    3    0    0 -0.43853906006E+02  0.30736681765E+03  0.28635655605E+03  0.65452089566E+03  0.50000000000E+03 0.  1.
    -200001    1    1    2    0    0  0.13802344650E+03 -0.50039377598E+03 -0.86096568664E+03  0.12250331899E+04  0.70000000000E+03 0. -1.
<mgrwt>
<rscale>  0 0.21179190E+04</rscale>
<asrwt>0</asrwt>
<pdfrwt beam="1">  1        4 0.12040575E+00 0.21179190E+04</pdfrwt>
<pdfrwt beam="2">  1       -4 0.19007080E+00 0.21179190E+04</pdfrwt>
<totfact> 0.14939505E-01</totfact>
</mgrwt>
</event>
<event>
 8    1  0.5217667E-029  0.1662986E+04  0.7818608E-02  0.8782761E-01
          4   -1    0    0  501    0  0.00000000000E+00  0.00000000000E+00  0.34770081000E+03  0.34770312937E+03  0.12700000000E+01 0.  1.
         -4   -1    0    0    0  501 -0.00000000000E+00 -0.00000000000E+00 -0.19884266531E+04  0.19884270587E+04  0.12700000000E+01 0. -1.
     200001    2    1    2    0    0  0.32180080008E+03 -0.28989032909E+03 -0.65647953364E+03  0.10530351193E+04  0.70023240892E+03 0.  0.
    5000001    2    3    3    0    0  0.12055711990E+03 -0.36686570210E+02 -0.25788087864E+03  0.33645152325E+03  0.17554815959E+03 0.  0.
        -13    1    4    4    0    0  0.87915031383E+02 -0.99243033793E+02 -0.12068837000E+03  0.17928727316E+03  0.10566000000E+00 0. -1.
     200003    1    4    4    0    0  0.32642088514E+02  0.62556463583E+02 -0.13719250864E+03  0.15716425009E+03  0.30000000000E+02 0. -1.
     200000    1    3    3    0    0  0.20124368018E+03 -0.25320375888E+03 -0.39859865500E+03  0.71658359603E+03  0.50000000000E+03 0.  1.
    -200001    1    1    2    0    0 -0.32180080008E+03  0.28989032909E+03 -0.98424630949E+03  0.12830950688E+04  0.70000000000E+03 0.  1.
<mgrwt>
<rscale>  0 0.16629862E+04</rscale>
<asrwt>0</asrwt>
<pdfrwt beam="1">  1        4 0.49671740E-01 0.16629862E+04</pdfrwt>
<pdfrwt beam="2">  1       -4 0.28406114E+00 0.16629862E+04</pdfrwt>
<totfact> 0.29265634E-01</totfact>
</mgrwt>
</event>
<event>
 8    1  0.5217667E-029  0.1768934E+04  0.7818608E-02  0.8722997E-01
          4   -1    0    0  501    0  0.00000000000E+00  0.00000000000E+00  0.23210117859E+03  0.23210465312E+03  0.12700000000E+01 0. -1.
         -4   -1    0    0    0  501 -0.00000000000E+00 -0.00000000000E+00 -0.33704060676E+04  0.33704063069E+04  0.12700000000E+01 0.  1.
     200001    2    1    2    0    0  0.23913665133E+03 -0.39622667823E+03 -0.10007374648E+04  0.13061276271E+04  0.70022281188E+03 0.  0.
    5000001    2    3    3    0    0  0.87537842904E+02 -0.33246982883E+02 -0.35146869216E+03  0.39712465842E+03  0.15940362902E+03 0.  0.
        -13    1    4    4    0    0 -0.38837965149E+02 -0.11478584273E+02 -0.32135086292E+02  0.51699326580E+02  0.10566000000E+00 0. -1.
     200003    1    4    4    0    0  0.12637580805E+03 -0.21768398609E+02 -0.31933360587E+03  0.34542533184E+03  0.30000000000E+02 0. -1.
     200000    1    3    3    0    0  0.15159880842E+03 -0.36297969535E+03 -0.64926877264E+03  0.90900296869E+03  0.50000000000E+03 0. -1.
    -200001    1    1    2    0    0 -0.23913665133E+03  0.39622667823E+03 -0.21375674242E+04  0.22963833329E+04  0.70000000000E+03 0.  1.
<mgrwt>
<rscale>  0 0.17689340E+04</rscale>
<asrwt>0</asrwt>
<pdfrwt beam="1">  1        4 0.33157578E-01 0.17689340E+04</pdfrwt>
<pdfrwt beam="2">  1       -4 0.48148682E+00 0.17689340E+04</pdfrwt>
<totfact> 0.29005736E-02</totfact>
</mgrwt>
</event>
<event>
 8    1  0.5217667E-029  0.1777664E+04  0.7818608E-02  0.8718268E-01
          4   -1    0    0  501    0  0.00000000000E+00  0.00000000000E+00  0.24403648298E+04  0.24403651603E+04  0.12700000000E+01 0.  1.
         -4   -1    0    0    0  501 -0.00000000000E+00 -0.00000000000E+00 -0.32372965145E+03  0.32373214256E+03  0.12700000000E+01 0. -1.
     200001    2    1    2    0    0  0.38201284319E+03 -0.32980677459E+03  0.72646077333E+03  0.11278542899E+04  0.69971688788E+03 0.  0.
    5000001    2    3    3    0    0  0.78153014271E+02 -0.15723071619E+03  0.25370681969E+03  0.35609682009E+03  0.17778752253E+03 0.  0.
        -13    1    4    4    0    0  0.11462307407E+03 -0.60797418425E+02  0.19355754210E+03  0.23302212011E+03  0.10566000000E+00 0. -1.
     200003    1    4    4    0    0 -0.36470059796E+02 -0.96433297761E+02  0.60149277596E+02  0.12307469998E+03  0.30000000000E+02 0. -1.
     200000    1    3    3    0    0  0.30385982892E+03 -0.17257605840E+03  0.47275395364E+03  0.77175746984E+03  0.50000000000E+03 0. -1.
    -200001    1    1    2    0    0 -0.38201284319E+03  0.32980677459E+03  0.13901744051E+04  0.16362430129E+04  0.70000000000E+03 0.  1.
<mgrwt>
<rscale>  0 0.17776640E+04</rscale>
<asrwt>0</asrwt>
<pdfrwt beam="1">  1        4 0.34862377E+00 0.17776640E+04</pdfrwt>
<pdfrwt beam="2">  1       -4 0.46247292E-01 0.17776640E+04</pdfrwt>
<totfact> 0.13154545E-01</totfact>
</mgrwt>
</event>
<event>
 8    1  0.5217667E-029  0.1779456E+04  0.7818608E-02  0.8717301E-01
         -4   -1    0    0    0  501 -0.00000000000E+00  0.00000000000E+00  0.28054673796E+04  0.28054676670E+04  0.12700000000E+01 0. -1.
          4   -1    0    0  501    0  0.00000000000E+00 -0.00000000000E+00 -0.28216728102E+03  0.28217013906E+03  0.12700000000E+01 0.  1.
     200001    2    1    2    0    0  0.24961507970E+03  0.43647698057E+03  0.16158387959E+04  0.18361163886E+04  0.71243844341E+03 0.  0.
    5000001    2    3    3    0    0  0.89553455348E+02  0.12456031368E+03  0.32003762446E+03  0.40363169181E+03  0.19224819495E+03 0.  0.
        -13    1    4    4    0    0  0.71878219129E+02  0.35117524211E+02  0.11883951054E+02  0.80876191482E+02  0.10566000000E+00 0. -1.
     200003    1    4    4    0    0  0.17675236218E+02  0.89442789464E+02  0.30815367340E+03  0.32275550033E+03  0.30000000000E+02 0. -1.
     200000    1    3    3    0    0  0.16006162435E+03  0.31191666689E+03  0.12958011714E+04  0.14324846968E+04  0.50000000000E+03 0. -1.
    -200001    1    1    2    0    0 -0.24961507970E+03 -0.43647698057E+03  0.90746130266E+03  0.12515214175E+04  0.70000000000E+03 0. -1.
<mgrwt>
<rscale>  0 0.17794561E+04</rscale>
<asrwt>0</asrwt>
<pdfrwt beam="1">  1        4 0.40309837E-01 0.17794561E+04</pdfrwt>
<pdfrwt beam="2">  1       -4 0.40078127E+00 0.17794561E+04</pdfrwt>
<totfact> 0.77643665E-02</totfact>
</mgrwt>
</event>
<event>
 8    1  0.5217667E-029  0.1451579E+04  0.7818608E-02  0.8917307E-01
          4   -1    0    0  501    0  0.00000000000E+00  0.00000000000E+00  0.16512675190E+04  0.16512680074E+04  0.12700000000E+01 0.  1.
         -4   -1    0    0    0  501 -0.00000000000E+00 -0.00000000000E+00 -0.31900785472E+03  0.31901038270E+03  0.12700000000E+01 0. -1.
     200001    2    1    2    0    0  0.94813636054E+02  0.14796849598E+03  0.56999604169E+03  0.92054979102E+03  0.70116483713E+03 0.  0.
    5000001    2    3    3    0    0  0.22543614338E+02  0.13104443895E+03  0.17569438607E+03  0.27947009600E+03  0.17191322735E+03 0.  0.
        -13    1    4    4    0    0 -0.56402121969E+02 -0.48920073389E+01  0.36409854854E+02  0.67311364515E+02  0.10566000000E+00 0. -1.
     200003    1    4    4    0    0  0.78945736307E+02  0.13593644629E+03  0.13928453122E+03  0.21215873149E+03  0.30000000000E+02 0. -1.
     200000    1    3    3    0    0  0.72270021716E+02  0.16924057033E+02  0.39430165562E+03  0.64107969502E+03  0.50000000000E+03 0.  1.
    -200001    1    1    2    0    0 -0.94813636054E+02 -0.14796849598E+03  0.76226362264E+03  0.10497285991E+04  0.70000000000E+03 0. -1.
<mgrwt>
<rscale>  0 0.14515788E+04</rscale>
<asrwt>0</asrwt>
<pdfrwt beam="1">  1        4 0.23589558E+00 0.14515788E+04</pdfrwt>
<pdfrwt beam="2">  1       -4 0.45572766E-01 0.14515788E+04</pdfrwt>
<totfact> 0.70644186E-01</totfact>
</mgrwt>
</event>
<event>
 8    1  0.5217667E-029  0.2781256E+04  0.7818608E-02  0.8309111E-01
          4   -1    0    0  501    0  0.00000000000E+00  0.00000000000E+00  0.10542638274E+04  0.10542645924E+04  0.12700000000E+01 0.  1.
         -4   -1    0    0    0  501 -0.00000000000E+00 -0.00000000000E+00 -0.18343072706E+04  0.18343077103E+04  0.12700000000E+01 0. -1.
     200001    2    1    2    0    0  0.40967441600E+03  0.86032333633E+03  0.37153100832E+03  0.12380835606E+04  0.69772934779E+03 0.  0.
    5000001    2    3    3    0    0  0.21185425690E+03  0.32008939544E+03  0.15375886147E+03  0.44536025821E+03  0.16542226232E+03 0.  0.
        -13    1    4    4    0    0  0.18851356233E+03  0.20352684828E+03  0.16410454621E+03  0.32232104245E+03  0.10566000000E+00 0. -1.
     200003    1    4    4    0    0  0.23340694574E+02  0.11656254716E+03 -0.10345684734E+02  0.12303921576E+03  0.30000000000E+02 0. -1.
     200000    1    3    3    0    0  0.19782015910E+03  0.54023394089E+03  0.21777214685E+03  0.79272330241E+03  0.50000000000E+03 0.  1.
    -200001    1    1    2    0    0 -0.40967441600E+03 -0.86032333633E+03 -0.11515744515E+04  0.16504887420E+04  0.70000000000E+03 0. -1.
<mgrwt>
<rscale>  0 0.27812555E+04</rscale>
<asrwt>0</asrwt>
<pdfrwt beam="1">  1        4 0.15060920E+00 0.27812555E+04</pdfrwt>
<pdfrwt beam="2">  1       -4 0.26204398E+00 0.27812555E+04</pdfrwt>
<totfact> 0.27467107E-02</totfact>
</mgrwt>
</event>
<event>
 8    1  0.5217667E-029  0.1539565E+04  0.7818608E-02  0.8858561E-01
         -4   -1    0    0    0  501 -0.00000000000E+00  0.00000000000E+00  0.13589669573E+04  0.13589675508E+04  0.12700000000E+01 0. -1.
          4   -1    0    0  501    0  0.00000000000E+00 -0.00000000000E+00 -0.43603911265E+03  0.43604096214E+03  0.12700000000E+01 0.  1.
     200001    2    1    2    0    0 -0.96663656498E+02  0.32988719620E+02  0.81474110306E+03  0.10793713917E+04  0.70057648989E+03 0.  0.
    5000001    2    3    3    0    0  0.17799320553E+02  0.10134840083E+03  0.44155860712E+02  0.15115997463E+03  0.10154449139E+03 0.  0.
        -13    1    4    4    0    0 -0.96032795948E+01  0.99267170561E+02  0.14421781491E+02  0.10076801613E+03  0.10566000000E+00 0. -1.
     200003    1    4    4    0    0  0.27402600148E+02  0.20812302724E+01  0.29734079221E+02  0.50391958500E+02  0.30000000000E+02 0. -1.
     200000    1    3    3    0    0 -0.11446297705E+03 -0.68359681213E+02  0.77058524234E+03  0.92821141711E+03  0.50000000000E+03 0. -1.
    -200001    1    1    2    0    0  0.96663656498E+02 -0.32988719620E+02  0.10818674162E+03  0.71563712115E+03  0.70000000000E+03 0.  1.
<mgrwt>
<rscale>  0 0.15395648E+04</rscale>
<asrwt>0</asrwt>
<pdfrwt beam="1">  1        4 0.62291477E-01 0.15395648E+04</pdfrwt>
<pdfrwt beam="2">  1       -4 0.19413831E+00 0.15395648E+04</pdfrwt>
<totfact> 0.67457687E-01</totfact>
</mgrwt>
</event>
<event>
 8    1  0.5217667E-029  0.1427256E+04  0.7818608E-02  0.8934322E-01
         -4   -1    0    0    0  501 -0.00000000000E+00  0.00000000000E+00  0.62776920192E+03  0.62777048655E+03  0.12700000000E+01 0. -1.
          4   -1    0    0  501    0  0.00000000000E+00 -0.00000000000E+00 -0.81122703410E+03  0.81122802821E+03  0.12700000000E+01 0.  1.
     200001    2    1    2    0    0  0.10677543053E+03 -0.86767036555E+02 -0.14082637391E+03  0.72433289195E+03  0.69706280892E+03 0.  0.
    5000001    2    3    3    0    0  0.10360960571E+03  0.84656011897E+02 -0.93613479044E+02  0.19364942563E+03  0.10409143020E+03 0.  0.
        -13    1    4    4    0    0  0.56792201293E+02  0.43988360796E+02  0.64945092297E+01  0.72128495252E+02  0.10566000000E+00 0. -1.
     200003    1    4    4    0    0  0.46817404418E+02  0.40667651101E+02 -0.10010798827E+03  0.12152093037E+03  0.30000000000E+02 0. -1.
     200000    1    3    3    0    0  0.31658248149E+01 -0.17142304845E+03 -0.47212894862E+02  0.53068346632E+03  0.50000000000E+03 0.  1.
    -200001    1    1    2    0    0 -0.10677543053E+03  0.86767036555E+02 -0.42631458267E+02  0.71466562281E+03  0.70000000000E+03 0. -1.
<mgrwt>
<rscale>  0 0.14272561E+04</rscale>
<asrwt>0</asrwt>
<pdfrwt beam="1">  1        4 0.11588974E+00 0.14272561E+04</pdfrwt>
<pdfrwt beam="2">  1       -4 0.89681478E-01 0.14272561E+04</pdfrwt>
<totfact> 0.12025681E+00</totfact>
</mgrwt>
</event>
<event>
 8    1  0.5217667E-029  0.1854537E+04  0.7818608E-02  0.8677823E-01
          4   -1    0    0  501    0  0.00000000000E+00  0.00000000000E+00  0.16970041572E+04  0.16970046324E+04  0.12700000000E+01 0.  1.
         -4   -1    0    0    0  501 -0.00000000000E+00 -0.00000000000E+00 -0.50667231829E+03  0.50667390995E+03  0.12700000000E+01 0. -1.
     200001    2    1    2    0    0  0.30972952232E+03 -0.13466997531E+03 -0.59569601238E+01  0.77708284985E+03  0.69982418571E+03 0.  0.
    5000001    2    3    3    0    0  0.45985000414E+02  0.27519364632E+02 -0.72013324203E+02  0.18528051962E+03  0.16208336249E+03 0.  0.
        -13    1    4    4    0    0  0.54438442203E+02  0.24912820846E+02 -0.11645117098E+03  0.13093921880E+03  0.10566000000E+00 0. -1.
     200003    1    4    4    0    0 -0.84534417899E+01  0.26065437853E+01  0.44437846781E+02  0.54341300823E+02  0.30000000000E+02 0. -1.
     200000    1    3    3    0    0  0.26374452191E+03 -0.16218933994E+03  0.66056364079E+02  0.59180233023E+03  0.50000000000E+03 0. -1.
    -200001    1    1    2    0    0 -0.30972952232E+03  0.13466997531E+03  0.11962887990E+04  0.14265956925E+04  0.70000000000E+03 0.  1.
<mgrwt>
<rscale>  0 0.18545375E+04</rscale>
<asrwt>0</asrwt>
<pdfrwt beam="1">  1        4 0.24242932E+00 0.18545375E+04</pdfrwt>
<pdfrwt beam="2">  1       -4 0.72381906E-01 0.18545375E+04</pdfrwt>
<totfact> 0.23187901E-01</totfact>
</mgrwt>
</event>
<event>
 8    1  0.5217667E-029  0.1757830E+04  0.7818608E-02  0.8729052E-01
          4   -1    0    0  501    0  0.00000000000E+00  0.00000000000E+00  0.40611238813E+03  0.40611437391E+03  0.12700000000E+01 0.  1.
         -4   -1    0    0    0  501 -0.00000000000E+00 -0.00000000000E+00 -0.19021552019E+04  0.19021556259E+04  0.12700000000E+01 0. -1.
     200001    2    1    2    0    0  0.12736490176E+03  0.67264725684E+02 -0.66754660553E+02  0.71026781378E+03  0.69229893909E+03 0.  0.
    5000001    2    3    3    0    0  0.53196269648E+02 -0.89365353747E+01 -0.20850867408E+02  0.19702832153E+03  0.18834992977E+03 0.  0.
        -13    1    4    4    0    0  0.53087451277E+02 -0.88090364667E+02  0.17099438551E+02  0.10426213020E+03  0.10566000000E+00 0. -1.
     200003    1    4    4    0    0  0.10881837078E+00  0.79153829292E+02 -0.37950305959E+02  0.92766191338E+02  0.30000000000E+02 0. -1.
     200000    1    3    3    0    0  0.74168632116E+02  0.76201261058E+02 -0.45903793145E+02  0.51323949225E+03  0.50000000000E+03 0.  1.
    -200001    1    1    2    0    0 -0.12736490176E+03 -0.67264725684E+02 -0.14292881532E+04  0.15980021860E+04  0.70000000000E+03 0. -1.
<mgrwt>
<rscale>  0 0.17578300E+04</rscale>
<asrwt>0</asrwt>
<pdfrwt beam="1">  1        4 0.58016228E-01 0.17578300E+04</pdfrwt>
<pdfrwt beam="2">  1       -4 0.27173663E+00 0.17578300E+04</pdfrwt>
<totfact> 0.24928918E-01</totfact>
</mgrwt>
</event>
<event>
 8    1  0.5217667E-029  0.1717398E+04  0.7818608E-02  0.8751504E-01
          4   -1    0    0  501    0  0.00000000000E+00  0.00000000000E+00  0.45294649597E+03  0.45294827641E+03  0.12700000000E+01 0.  1.
         -4   -1    0    0    0  501 -0.00000000000E+00 -0.00000000000E+00 -0.16279214487E+04  0.16279219441E+04  0.12700000000E+01 0. -1.
     200001    2    1    2    0    0  0.40711058497E+03  0.20963532961E+03 -0.34982429621E+03  0.90589804817E+03  0.69899086950E+03 0.  0.
    5000001    2    3    3    0    0  0.15147969186E+03  0.10517361909E+03 -0.66176406517E+02  0.26815552347E+03  0.18308599288E+03 0.  0.
        -13    1    4    4    0    0  0.12289811962E+03  0.15174315627E+03 -0.65021697622E+02  0.20581002309E+03  0.10566000000E+00 0. -1.
     200003    1    4    4    0    0  0.28581572246E+02 -0.46569537177E+02 -0.11547088946E+01  0.62345500379E+02  0.30000000000E+02 0. -1.
     200000    1    3    3    0    0  0.25563089310E+03  0.10446171052E+03 -0.28364788970E+03  0.63774252469E+03  0.50000000000E+03 0.  1.
    -200001    1    1    2    0    0 -0.40711058497E+03 -0.20963532961E+03 -0.82515065654E+03  0.11749721723E+04  0.70000000000E+03 0. -1.
<mgrwt>
<rscale>  0 0.17173977E+04</rscale>
<asrwt>0</asrwt>
<pdfrwt beam="1">  1        4 0.64706806E-01 0.17173977E+04</pdfrwt>
<pdfrwt beam="2">  1       -4 0.23256037E+00 0.17173977E+04</pdfrwt>
<totfact> 0.34601371E-01</totfact>
</mgrwt>
</event>
<event>
 8    1  0.5217667E-029  0.1750259E+04  0.7818608E-02  0.8733208E-01
          4   -1    0    0  501    0  0.00000000000E+00  0.00000000000E+00  0.16586797127E+04  0.16586801989E+04  0.12700000000E+01 0.  1.
         -4   -1    0    0    0  501 -0.00000000000E+00 -0.00000000000E+00 -0.46172233096E+03  0.46172407757E+03  0.12700000000E+01 0. -1.
     200001    2    1    2    0    0 -0.19230720784E+03  0.47406495188E+03  0.73783081829E+03  0.11393248495E+04  0.70138944632E+03 0.  0.
    5000001    2    3    3    0    0 -0.32075003087E+02  0.70218358831E+02  0.28473233364E+03  0.33678845344E+03  0.16246395542E+03 0.  0.
        -13    1    4    4    0    0 -0.52797356229E+02  0.24370294005E+02  0.14028028782E+02  0.59818632634E+02  0.10566000000E+00 0. -1.
     200003    1    4    4    0    0  0.20722353142E+02  0.45848064826E+02  0.27070430486E+03  0.27696982081E+03  0.30000000000E+02 0. -1.
     200000    1    3    3    0    0 -0.16023220475E+03  0.40384659305E+03  0.45309848465E+03  0.80253639603E+03  0.50000000000E+03 0.  1.
    -200001    1    1    2    0    0  0.19230720784E+03 -0.47406495188E+03  0.45912656340E+03  0.98107942696E+03  0.70000000000E+03 0. -1.
<mgrwt>
<rscale>  0 0.17502592E+04</rscale>
<asrwt>0</asrwt>
<pdfrwt beam="1">  1        4 0.23695441E+00 0.17502592E+04</pdfrwt>
<pdfrwt beam="2">  1       -4 0.65960492E-01 0.17502592E+04</pdfrwt>
<totfact> 0.31058159E-01</totfact>
</mgrwt>
</event>
<event>
 8    1  0.5217667E-029  0.1582250E+04  0.7818608E-02  0.8831527E-01
         -4   -1    0    0    0  501 -0.00000000000E+00  0.00000000000E+00  0.22022183166E+04  0.22022186828E+04  0.12700000000E+01 0. -1.
          4   -1    0    0  501    0  0.00000000000E+00 -0.00000000000E+00 -0.28420204942E+03  0.28420488700E+03  0.12700000000E+01 0.  1.
     200001    2    1    2    0    0 -0.17284442080E+03 -0.29972488382E+01  0.44672552690E+03  0.84795458330E+03  0.69969929373E+03 0.  0.
    5000001    2    3    3    0    0  0.34564899381E+02  0.68153770588E+02  0.13498188615E+03  0.21925338940E+03  0.15495893152E+03 0.  0.
        -13    1    4    4    0    0  0.66751102497E+02  0.69105642549E+02  0.14516492636E+03  0.17408091947E+03  0.10566000000E+00 0. -1.
     200003    1    4    4    0    0 -0.32186203116E+02 -0.95187196030E+00 -0.10183040206E+02  0.45172469924E+02  0.30000000000E+02 0. -1.
     200000    1    3    3    0    0 -0.20740932018E+03 -0.71151019427E+02  0.31174364075E+03  0.62870119390E+03  0.50000000000E+03 0.  1.
    -200001    1    1    2    0    0  0.17284442080E+03  0.29972488382E+01  0.14712907403E+04  0.16384689865E+04  0.70000000000E+03 0. -1.
<mgrwt>
<rscale>  0 0.15822502E+04</rscale>
<asrwt>0</asrwt>
<pdfrwt beam="1">  1        4 0.40600523E-01 0.15822502E+04</pdfrwt>
<pdfrwt beam="2">  1       -4 0.31460283E+00 0.15822502E+04</pdfrwt>
<totfact> 0.28773641E-01</totfact>
</mgrwt>
</event>
<event>
 8    1  0.5217667E-029  0.2106317E+04  0.7818608E-02  0.8558466E-01
          4   -1    0    0  501    0  0.00000000000E+00  0.00000000000E+00  0.11261260322E+04  0.11261267483E+04  0.12700000000E+01 0.  1.
         -4   -1    0    0    0  501 -0.00000000000E+00 -0.00000000000E+00 -0.98491790420E+03  0.98491872300E+03  0.12700000000E+01 0. -1.
     200001    2    1    2    0    0 -0.53719588060E+03  0.25249973382E+03 -0.44617136883E+03  0.10213894692E+04  0.70130737033E+03 0.  0.
    5000001    2    3    3    0    0  0.72653470941E+00  0.88324179075E+01 -0.16527521849E+03  0.19820241085E+03  0.10904016856E+03 0.  0.
        -13    1    4    4    0    0  0.49023291534E+01  0.54405177459E+02 -0.79461719845E+02  0.96426823292E+02  0.10566000000E+00 0. -1.
     200003    1    4    4    0    0 -0.41757944439E+01 -0.45572759551E+02 -0.85813498645E+02  0.10177558755E+03  0.30000000000E+02 0. -1.
     200000    1    3    3    0    0 -0.53792241531E+03  0.24366731591E+03 -0.28089615034E+03  0.82318705834E+03  0.50000000000E+03 0. -1.
    -200001    1    1    2    0    0  0.53719588060E+03 -0.25249973382E+03  0.58737949682E+03  0.10896560021E+04  0.70000000000E+03 0.  1.
<mgrwt>
<rscale>  0 0.21063175E+04</rscale>
<asrwt>0</asrwt>
<pdfrwt beam="1">  1        4 0.16087526E+00 0.21063175E+04</pdfrwt>
<pdfrwt beam="2">  1       -4 0.14070267E+00 0.21063175E+04</pdfrwt>
<totfact> 0.16155992E-01</totfact>
</mgrwt>
</event>
<event>
 8    1  0.5217667E-029  0.1845434E+04  0.7818608E-02  0.8682504E-01
         -4   -1    0    0    0  501 -0.00000000000E+00  0.00000000000E+00  0.13246871238E+04  0.13246877326E+04  0.12700000000E+01 0. -1.
          4   -1    0    0  501    0  0.00000000000E+00 -0.00000000000E+00 -0.64272177885E+03  0.64272303359E+03  0.12700000000E+01 0.  1.
     200001    2    1    2    0    0 -0.41121789270E+03 -0.21854626260E+03  0.74452871631E+03  0.11243349691E+04  0.70209934427E+03 0.  0.
    5000001    2    3    3    0    0 -0.15080814898E+03 -0.11806370100E+03  0.37330462207E+03  0.44190013125E+03  0.13869841328E+03 0.  0.
        -13    1    4    4    0    0 -0.14197769840E+02 -0.57555716264E+02  0.30321598743E+02  0.66585641526E+02  0.10566000000E+00 0. -1.
     200003    1    4    4    0    0 -0.13661037914E+03 -0.60507984733E+02  0.34298302333E+03  0.37531448973E+03  0.30000000000E+02 0. -1.
     200000    1    3    3    0    0 -0.26040974372E+03 -0.10048256160E+03  0.37122409423E+03  0.68243483788E+03  0.50000000000E+03 0. -1.
    -200001    1    1    2    0    0  0.41121789270E+03  0.21854626260E+03 -0.62563371326E+02  0.84307579707E+03  0.70000000000E+03 0.  1.
<mgrwt>
<rscale>  0 0.18454345E+04</rscale>
<asrwt>0</asrwt>
<pdfrwt beam="1">  1        4 0.91817531E-01 0.18454345E+04</pdfrwt>
<pdfrwt beam="2">  1       -4 0.18924115E+00 0.18454345E+04</pdfrwt>
<totfact> 0.29744580E-01</totfact>
</mgrwt>
</event>
<event>
 8    1  0.5217667E-029  0.2183478E+04  0.7818608E-02  0.8525336E-01
         -4   -1    0    0    0  501 -0.00000000000E+00  0.00000000000E+00  0.68723060606E+03  0.68723177953E+03  0.12700000000E+01 0. -1.
          4   -1    0    0  501    0  0.00000000000E+00 -0.00000000000E+00 -0.17343412936E+04  0.17343417586E+04  0.12700000000E+01 0.  1.
     200001    2    1    2    0    0 -0.15746831728E+03  0.79491050142E+03 -0.75704894699E+03  0.13121526128E+04  0.70138605269E+03 0.  0.
    5000001    2    3    3    0    0 -0.43887258867E+02  0.13709760951E+03 -0.53477757832E+02  0.22099227819E+03  0.15892095650E+03 0.  0.
        -13    1    4    4    0    0 -0.77352419252E+02  0.83414492645E+01 -0.24558800408E+02  0.81585062244E+02  0.10566000000E+00 0. -1.
     200003    1    4    4    0    0  0.33465160385E+02  0.12875616024E+03 -0.28918957425E+02  0.13940721595E+03  0.30000000000E+02 0. -1.
     200000    1    3    3    0    0 -0.11358105841E+03  0.65781289191E+03 -0.70357118916E+03  0.10911603346E+04  0.50000000000E+03 0.  1.
    -200001    1    1    2    0    0  0.15746831728E+03 -0.79491050142E+03 -0.29006174055E+03  0.11094209253E+04  0.70000000000E+03 0. -1.
<mgrwt>
<rscale>  0 0.21834783E+04</rscale>
<asrwt>0</asrwt>
<pdfrwt beam="1">  1        4 0.24776316E+00 0.21834783E+04</pdfrwt>
<pdfrwt beam="2">  1       -4 0.98175919E-01 0.21834783E+04</pdfrwt>
<totfact> 0.10380971E-01</totfact>
</mgrwt>
</event>
<event>
 8    1  0.5217667E-029  0.2336533E+04  0.7818608E-02  0.8463654E-01
          4   -1    0    0  501    0  0.00000000000E+00  0.00000000000E+00  0.25425906108E+04  0.25425909279E+04  0.12700000000E+01 0.  1.
         -4   -1    0    0    0  501 -0.00000000000E+00 -0.00000000000E+00 -0.53679264592E+03  0.53679414826E+03  0.12700000000E+01 0. -1.
     200001    2    1    2    0    0 -0.79665670678E+03 -0.43218525111E+03  0.69891107361E+03  0.13417431838E+04  0.70025144252E+03 0.  0.
    5000001    2    3    3    0    0 -0.24004357812E+03 -0.15358248743E+03  0.21953799147E+03  0.41048799493E+03  0.19772446597E+03 0.  0.
        -13    1    4    4    0    0  0.19149506686E+02 -0.54447870924E+01 -0.18739137183E+02  0.27340734064E+02  0.10566000000E+00 0. -1.
     200003    1    4    4    0    0 -0.25919308481E+03 -0.14813770034E+03  0.23827712865E+03  0.38314726087E+03  0.30000000000E+02 0. -1.
     200000    1    3    3    0    0 -0.55661312866E+03 -0.27860276368E+03  0.47937308215E+03  0.93125518887E+03  0.50000000000E+03 0. -1.
    -200001    1    1    2    0    0  0.79665670678E+03  0.43218525111E+03  0.13068868912E+04  0.17376418924E+04  0.70000000000E+03 0.  1.
<mgrwt>
<rscale>  0 0.23365331E+04</rscale>
<asrwt>0</asrwt>
<pdfrwt beam="1">  1        4 0.36322736E+00 0.23365331E+04</pdfrwt>
<pdfrwt beam="2">  1       -4 0.76684794E-01 0.23365331E+04</pdfrwt>
<totfact> 0.33766062E-02</totfact>
</mgrwt>
</event>
<event>
 8    1  0.5217667E-029  0.2035311E+04  0.7818608E-02  0.8590287E-01
         -4   -1    0    0    0  501 -0.00000000000E+00  0.00000000000E+00  0.71697405691E+03  0.71697518171E+03  0.12700000000E+01 0. -1.
          4   -1    0    0  501    0  0.00000000000E+00 -0.00000000000E+00 -0.14444325221E+04  0.14444330805E+04  0.12700000000E+01 0.  1.
     200001    2    1    2    0    0  0.46692956185E+01 -0.53614914619E+03 -0.90344976798E+03  0.12622694253E+04  0.69973202696E+03 0.  0.
    5000001    2    3    3    0    0 -0.12634053894E+01 -0.17340349831E+03 -0.22538869450E+03  0.34499824330E+03  0.19532883774E+03 0.  0.
        -13    1    4    4    0    0 -0.82973641120E+02 -0.13133810411E+03 -0.18126884591E+03  0.23873149849E+03  0.10566000000E+00 0. -1.
     200003    1    4    4    0    0  0.81710235731E+02 -0.42065394206E+02 -0.44119848594E+02  0.10626674481E+03  0.30000000000E+02 0. -1.
     200000    1    3    3    0    0  0.59327010080E+01 -0.36274564788E+03 -0.67806107348E+03  0.91727118202E+03  0.50000000000E+03 0.  1.
    -200001    1    1    2    0    0 -0.46692956185E+01  0.53614914619E+03  0.17599130275E+03  0.89913883685E+03  0.70000000000E+03 0. -1.
<mgrwt>
<rscale>  0 0.20353108E+04</rscale>
<asrwt>0</asrwt>
<pdfrwt beam="1">  1        4 0.20634762E+00 0.20353108E+04</pdfrwt>
<pdfrwt beam="2">  1       -4 0.10242499E+00 0.20353108E+04</pdfrwt>
<totfact> 0.17403139E-01</totfact>
</mgrwt>
</event>
<event>
 8    1  0.5217667E-029  0.1638096E+04  0.7818608E-02  0.8797480E-01
         -4   -1    0    0    0  501 -0.00000000000E+00  0.00000000000E+00  0.83752429434E+03  0.83752525724E+03  0.12700000000E+01 0. -1.
          4   -1    0    0  501    0  0.00000000000E+00 -0.00000000000E+00 -0.80097773610E+03  0.80097874293E+03  0.12700000000E+01 0.  1.
     200001    2    1    2    0    0  0.31207260852E+03  0.29418338381E+03 -0.46203377590E+02  0.81340962485E+03  0.68961386979E+03 0.  0.
    5000001    2    3    3    0    0  0.22219906242E+02  0.10558012110E+03  0.24375702278E+02  0.20139068214E+03  0.16829481806E+03 0.  0.
        -13    1    4    4    0    0  0.70263735759E+01  0.15778803661E+02 -0.66845467621E+02  0.69041062247E+02  0.10566000000E+00 0. -1.
     200003    1    4    4    0    0  0.15193532666E+02  0.89801317440E+02  0.91221169899E+02  0.13234961990E+03  0.30000000000E+02 0. -1.
     200000    1    3    3    0    0  0.28985270228E+03  0.18860326271E+03 -0.70579079868E+02  0.61201894271E+03  0.50000000000E+03 0. -1.
    -200001    1    1    2    0    0 -0.31207260852E+03 -0.29418338381E+03  0.82749935833E+02  0.82509437532E+03  0.70000000000E+03 0. -1.
<mgrwt>
<rscale>  0 0.16380964E+04</rscale>
<asrwt>0</asrwt>
<pdfrwt beam="1">  1        4 0.11442553E+00 0.16380964E+04</pdfrwt>
<pdfrwt beam="2">  1       -4 0.11964647E+00 0.16380964E+04</pdfrwt>
<totfact> 0.61162793E-01</totfact>
</mgrwt>
</event>
<event>
 8    1  0.5217667E-029  0.2730638E+04  0.7818608E-02  0.8325132E-01
         -4   -1    0    0    0  501 -0.00000000000E+00  0.00000000000E+00  0.58046405560E+03  0.58046544492E+03  0.12700000000E+01 0. -1.
          4   -1    0    0  501    0  0.00000000000E+00 -0.00000000000E+00 -0.32113835805E+04  0.32113838317E+04  0.12700000000E+01 0.  1.
     200001    2    1    2    0    0 -0.21695501524E+03 -0.16244197992E+03  0.26976654029E+03  0.79561221579E+03  0.69768756344E+03 0.  0.
    5000001    2    3    3    0    0  0.33743451582E+02 -0.16417474918E+02  0.66082912327E+02  0.18270121276E+03  0.16614640483E+03 0.  0.
        -13    1    4    4    0    0  0.24866789952E+01 -0.72106803082E+02 -0.16570315423E+02  0.74028110474E+02  0.10566000000E+00 0. -1.
     200003    1    4    4    0    0  0.31256772587E+02  0.55689328164E+02  0.82653227750E+02  0.10867310229E+03  0.30000000000E+02 0. -1.
     200000    1    3    3    0    0 -0.25069846682E+03 -0.14602450501E+03  0.20368362796E+03  0.61291100303E+03  0.50000000000E+03 0. -1.
    -200001    1    1    2    0    0  0.21695501524E+03  0.16244197992E+03 -0.29006860652E+04  0.29962370608E+04  0.70000000000E+03 0.  1.
<mgrwt>
<rscale>  0 0.27306379E+04</rscale>
<asrwt>0</asrwt>
<pdfrwt beam="1">  1        4 0.45876919E+00 0.27306379E+04</pdfrwt>
<pdfrwt beam="2">  1       -4 0.82923555E-01 0.27306379E+04</pdfrwt>
<totfact> 0.57105830E-03</totfact>
</mgrwt>
</event>
<event>
 8    1  0.5217667E-029  0.1890253E+04  0.7818608E-02  0.8659723E-01
         -4   -1    0    0    0  501 -0.00000000000E+00  0.00000000000E+00  0.12533304151E+04  0.12533310585E+04  0.12700000000E+01 0. -1.
          4   -1    0    0  501    0  0.00000000000E+00 -0.00000000000E+00 -0.71271087120E+03  0.71271200272E+03  0.12700000000E+01 0.  1.
     200001    2    1    2    0    0  0.12344372572E+02 -0.10199094619E+03  0.92093652432E+03  0.11628024110E+04  0.70244631721E+03 0.  0.
    5000001    2    3    3    0    0  0.44420049046E+02 -0.64703373745E+02  0.28260231466E+03  0.35046641198E+03  0.19184100277E+03 0.  0.
        -13    1    4    4    0    0  0.48240365205E+02 -0.57541549483E+02  0.95979061693E+01  0.75698703549E+02  0.10566000000E+00 0. -1.
     200003    1    4    4    0    0 -0.38203161593E+01 -0.71618242615E+01  0.27300440849E+03  0.27476770843E+03  0.30000000000E+02 0. -1.
     200000    1    3    3    0    0 -0.32075676473E+02 -0.37287572440E+02  0.63833420966E+03  0.81233599902E+03  0.50000000000E+03 0. -1.
    -200001    1    1    2    0    0 -0.12344372572E+02  0.10199094619E+03 -0.38031698043E+03  0.80324065027E+03  0.70000000000E+03 0.  1.
<mgrwt>
<rscale>  0 0.18902528E+04</rscale>
<asrwt>0</asrwt>
<pdfrwt beam="1">  1        4 0.10181597E+00 0.18902528E+04</pdfrwt>
<pdfrwt beam="2">  1       -4 0.17904733E+00 0.18902528E+04</pdfrwt>
<totfact> 0.27275690E-01</totfact>
</mgrwt>
</event>
<event>
 8    1  0.5217667E-029  0.1525974E+04  0.7818608E-02  0.8867362E-01
         -4   -1    0    0    0  501 -0.00000000000E+00  0.00000000000E+00  0.67442998319E+03  0.67443117894E+03  0.12700000000E+01 0. -1.
          4   -1    0    0  501    0  0.00000000000E+00 -0.00000000000E+00 -0.86317017306E+03  0.86317110735E+03  0.12700000000E+01 0.  1.
     200001    2    1    2    0    0  0.11581868499E+03 -0.14919367873E+03 -0.33543491754E+03  0.79787796960E+03  0.69887048078E+03 0.  0.
    5000001    2    3    3    0    0  0.55621140790E+02 -0.13192183572E+03 -0.93318302894E+02  0.23882294908E+03  0.16682629681E+03 0.  0.
        -13    1    4    4    0    0  0.94259014692E+02 -0.10995852450E+03 -0.17391019114E+02  0.14587013975E+03  0.10566000000E+00 0. -1.
     200003    1    4    4    0    0 -0.38637873901E+02 -0.21963311213E+02 -0.75927283779E+02  0.92952809324E+02  0.30000000000E+02 0. -1.
     200000    1    3    3    0    0  0.60197544195E+02 -0.17271843015E+02 -0.24211661465E+03  0.55905502053E+03  0.50000000000E+03 0.  1.
    -200001    1    1    2    0    0 -0.11581868499E+03  0.14919367873E+03  0.14669472768E+03  0.73972431668E+03  0.70000000000E+03 0. -1.
<mgrwt>
<rscale>  0 0.15259744E+04</rscale>
<asrwt>0</asrwt>
<pdfrwt beam="1">  1        4 0.12331018E+00 0.15259744E+04</pdfrwt>
<pdfrwt beam="2">  1       -4 0.96347293E-01 0.15259744E+04</pdfrwt>
<totfact> 0.86545604E-01</totfact>
</mgrwt>
</event>
<event>
 8    1  0.5217667E-029  0.2123453E+04  0.7818608E-02  0.8550982E-01
          4   -1    0    0  501    0  0.00000000000E+00  0.00000000000E+00  0.89050009235E+03  0.89050099797E+03  0.12700000000E+01 0.  1.
         -4   -1    0    0    0  501 -0.00000000000E+00 -0.00000000000E+00 -0.12658745001E+04  0.12658751371E+04  0.12700000000E+01 0. -1.
     200001    2    1    2    0    0 -0.24171362636E+03  0.23172681055E+03 -0.92348850872E+03  0.12063488409E+04  0.70023118211E+03 0.  0.
    5000001    2    3    3    0    0 -0.11432273114E+03  0.15376239778E+03 -0.36277652177E+03  0.44038224758E+03  0.16005360791E+03 0.  0.
        -13    1    4    4    0    0 -0.14621354156E+03  0.93161738593E+02 -0.23026600148E+03  0.28823593092E+03  0.10566000000E+00 0. -1.
     200003    1    4    4    0    0  0.31890810421E+02  0.60600659191E+02 -0.13251052029E+03  0.15214631665E+03  0.30000000000E+02 0. -1.
     200000    1    3    3    0    0 -0.12739089523E+03  0.77964412768E+02 -0.56071198695E+03  0.76596659337E+03  0.50000000000E+03 0. -1.
    -200001    1    1    2    0    0  0.24171362636E+03 -0.23172681055E+03  0.54811410102E+03  0.95002729415E+03  0.70000000000E+03 0.  1.
<mgrwt>
<rscale>  0 0.21234529E+04</rscale>
<asrwt>0</asrwt>
<pdfrwt beam="1">  1        4 0.12721441E+00 0.21234529E+04</pdfrwt>
<pdfrwt beam="2">  1       -4 0.18083932E+00 0.21234529E+04</pdfrwt>
<totfact> 0.15039041E-01</totfact>
</mgrwt>
</event>
<event>
 8    1  0.5217667E-029  0.1728172E+04  0.7818608E-02  0.8745458E-01
         -4   -1    0    0    0  501 -0.00000000000E+00  0.00000000000E+00  0.82713991361E+03  0.82714088860E+03  0.12700000000E+01 0. -1.
          4   -1    0    0  501    0  0.00000000000E+00 -0.00000000000E+00 -0.90268081858E+03  0.90268171197E+03  0.12700000000E+01 0.  1.
     200001    2    1    2    0    0 -0.11286054708E+03 -0.49033203513E+03 -0.10191184495E+03  0.86735032030E+03  0.69910481776E+03 0.  0.
    5000001    2    3    3    0    0 -0.10628817049E+03 -0.86315519929E+02  0.82792740781E+02  0.19847938754E+03  0.11743885723E+03 0.  0.
        -13    1    4    4    0    0 -0.65212277502E+01 -0.39458608635E+02  0.73741872544E+02  0.83889112148E+02  0.10566000000E+00 0. -1.
     200003    1    4    4    0    0 -0.99766942738E+02 -0.46856911295E+02  0.90508682369E+01  0.11459027540E+03  0.30000000000E+02 0. -1.
     200000    1    3    3    0    0 -0.65723765918E+01 -0.40401651520E+03 -0.18470458573E+03  0.66887093275E+03  0.50000000000E+03 0.  1.
    -200001    1    1    2    0    0  0.11286054708E+03  0.49033203513E+03  0.26370939986E+02  0.86247228027E+03  0.70000000000E+03 0.  1.
<mgrwt>
<rscale>  0 0.17281724E+04</rscale>
<asrwt>0</asrwt>
<pdfrwt beam="1">  1        4 0.12895453E+00 0.17281724E+04</pdfrwt>
<pdfrwt beam="2">  1       -4 0.11816298E+00 0.17281724E+04</pdfrwt>
<totfact> 0.46483536E-01</totfact>
</mgrwt>
</event>
<event>
 8    1  0.5217667E-029  0.1473431E+04  0.7818608E-02  0.8902316E-01
          4   -1    0    0  501    0  0.00000000000E+00  0.00000000000E+00  0.35913807517E+03  0.35914032068E+03  0.12700000000E+01 0.  1.
         -4   -1    0    0    0  501 -0.00000000000E+00 -0.00000000000E+00 -0.15112491757E+04  0.15112497094E+04  0.12700000000E+01 0. -1.
     200001    2    1    2    0    0  0.54955003793E+00  0.46797154879E+02 -0.29120139368E+03  0.75982449883E+03  0.70024620072E+03 0.  0.
    5000001    2    3    3    0    0 -0.26485728442E+02  0.19421100932E+01 -0.11629842117E+03  0.22753328989E+03  0.19375450869E+03 0.  0.
        -13    1    4    4    0    0 -0.90939167615E+02  0.54967530415E+02 -0.72336234233E+02  0.12854533657E+03  0.10566000000E+00 0. -1.
     200003    1    4    4    0    0  0.64453439173E+02 -0.53025420322E+02 -0.43962186938E+02  0.98987953318E+02  0.30000000000E+02 0. -1.
     200000    1    3    3    0    0  0.27035278480E+02  0.44855044786E+02 -0.17490297251E+03  0.53229120894E+03  0.50000000000E+03 0.  1.
    -200001    1    1    2    0    0 -0.54955003793E+00 -0.46797154879E+02 -0.86090970688E+03  0.11105655312E+04  0.70000000000E+03 0. -1.
<mgrwt>
<rscale>  0 0.14734310E+04</rscale>
<asrwt>0</asrwt>
<pdfrwt beam="1">  1        4 0.51305639E-01 0.14734310E+04</pdfrwt>
<pdfrwt beam="2">  1       -4 0.21589293E+00 0.14734310E+04</pdfrwt>
<totfact> 0.73819093E-01</totfact>
</mgrwt>
</event>
<event>
 8    1  0.5217667E-029  0.1727518E+04  0.7818608E-02  0.8745824E-01
          4   -1    0    0  501    0  0.00000000000E+00  0.00000000000E+00  0.27861515912E+03  0.27861805360E+03  0.12700000000E+01 0.  1.
         -4   -1    0    0    0  501 -0.00000000000E+00 -0.00000000000E+00 -0.26777962408E+04  0.26777965420E+04  0.12700000000E+01 0. -1.
     200001    2    1    2    0    0  0.35314910896E+03  0.16093173792E+03 -0.64453884864E+03  0.10278444819E+04  0.70030038846E+03 0.  0.
    5000001    2    3    3    0    0  0.16721642825E+02 -0.51363006959E+02 -0.15333712771E+03  0.22190923056E+03  0.15104191487E+03 0.  0.
        -13    1    4    4    0    0  0.25827673737E+02 -0.17284949679E+02 -0.16990857907E+03  0.17272745764E+03  0.10566000000E+00 0. -1.
     200003    1    4    4    0    0 -0.91060309125E+01 -0.34078057280E+02  0.16571451359E+02  0.49181772915E+02  0.30000000000E+02 0. -1.
     200000    1    3    3    0    0  0.33642746614E+03  0.21229474488E+03 -0.49120172092E+03  0.80593525132E+03  0.50000000000E+03 0.  1.
    -200001    1    1    2    0    0 -0.35314910896E+03 -0.16093173792E+03 -0.17546422331E+04  0.19285701137E+04  0.70000000000E+03 0. -1.
<mgrwt>
<rscale>  0 0.17275177E+04</rscale>
<asrwt>0</asrwt>
<pdfrwt beam="1">  1        4 0.39802396E-01 0.17275177E+04</pdfrwt>
<pdfrwt beam="2">  1       -4 0.38254253E+00 0.17275177E+04</pdfrwt>
<totfact> 0.10684215E-01</totfact>
</mgrwt>
</event>
<event>
 8    1  0.5217667E-029  0.1452007E+04  0.7818608E-02  0.8917010E-01
          4   -1    0    0  501    0  0.00000000000E+00  0.00000000000E+00  0.66430293077E+03  0.66430414475E+03  0.12700000000E+01 0.  1.
         -4   -1    0    0    0  501 -0.00000000000E+00 -0.00000000000E+00 -0.79343291195E+03  0.79343392836E+03  0.12700000000E+01 0. -1.
     200001    2    1    2    0    0 -0.76422597543E+02 -0.16108394058E+03  0.80142583717E+01  0.72248506103E+03  0.70009426919E+03 0.  0.
    5000001    2    3    3    0    0  0.22505626868E+01 -0.11027250006E+03 -0.26257431467E+01  0.21367814455E+03  0.18299280212E+03 0.  0.
        -13    1    4    4    0    0  0.60093933313E+02 -0.11689489768E+02  0.54916040359E+02  0.82241763386E+02  0.10566000000E+00 0. -1.
     200003    1    4    4    0    0 -0.57843370626E+02 -0.98583010296E+02 -0.57541783505E+02  0.13143638116E+03  0.30000000000E+02 0. -1.
     200000    1    3    3    0    0 -0.78673160230E+02 -0.50811440517E+02  0.10640001518E+02  0.50880691648E+03  0.50000000000E+03 0. -1.
    -200001    1    1    2    0    0  0.76422597543E+02  0.16108394058E+03 -0.13714423955E+03  0.73525301208E+03  0.70000000000E+03 0. -1.
<mgrwt>
<rscale>  0 0.14520075E+04</rscale>
<asrwt>0</asrwt>
<pdfrwt beam="1">  1        4 0.94900578E-01 0.14520075E+04</pdfrwt>
<pdfrwt beam="2">  1       -4 0.11334772E+00 0.14520075E+04</pdfrwt>
<totfact> 0.11107106E+00</totfact>
</mgrwt>
</event>
<event>
 8    1  0.5217667E-029  0.1528533E+04  0.7818608E-02  0.8865697E-01
         -4   -1    0    0    0  501 -0.00000000000E+00  0.00000000000E+00  0.79112356898E+03  0.79112458835E+03  0.12700000000E+01 0. -1.
          4   -1    0    0  501    0  0.00000000000E+00 -0.00000000000E+00 -0.73831953985E+03  0.73832063213E+03  0.12700000000E+01 0.  1.
     200001    2    1    2    0    0  0.18851584341E+03 -0.22748066220E+03  0.11203302078E+03  0.76734696675E+03  0.69927411989E+03 0.  0.
    5000001    2    3    3    0    0  0.82665567423E+02 -0.15778060392E+03  0.39019328518E+02  0.24639267096E+03  0.16570614138E+03 0.  0.
        -13    1    4    4    0    0 -0.45651446689E+02 -0.44585110321E+02 -0.12855051695E+02  0.65093395711E+02  0.10566000000E+00 0. -1.
     200003    1    4    4    0    0  0.12831701411E+03 -0.11319549360E+03  0.51874380213E+02  0.18129927524E+03  0.30000000000E+02 0. -1.
     200000    1    3    3    0    0  0.10585027599E+03 -0.69700058282E+02  0.73013692264E+02  0.52095429580E+03  0.50000000000E+03 0. -1.
    -200001    1    1    2    0    0 -0.18851584341E+03  0.22748066220E+03 -0.59228991654E+02  0.76209825373E+03  0.70000000000E+03 0. -1.
<mgrwt>
<rscale>  0 0.15285334E+04</rscale>
<asrwt>0</asrwt>
<pdfrwt beam="1">  1        4 0.10547437E+00 0.15285334E+04</pdfrwt>
<pdfrwt beam="2">  1       -4 0.11301780E+00 0.15285334E+04</pdfrwt>
<totfact> 0.86497949E-01</totfact>
</mgrwt>
</event>
<event>
 8    1  0.5217667E-029  0.1666062E+04  0.7818608E-02  0.8780961E-01
          4   -1    0    0  501    0  0.00000000000E+00  0.00000000000E+00  0.66928091609E+03  0.66928212104E+03  0.12700000000E+01 0.  1.
         -4   -1    0    0    0  501 -0.00000000000E+00 -0.00000000000E+00 -0.10368423699E+04  0.10368431477E+04  0.12700000000E+01 0. -1.
     200001    2    1    2    0    0 -0.30824376598E+03  0.29795160796E+03 -0.32974859806E+03  0.88440804728E+03  0.69975286796E+03 0.  0.
    5000001    2    3    3    0    0 -0.12181263996E+03  0.84066338890E+02 -0.81035790035E+02  0.25802036066E+03  0.19519794738E+03 0.  0.
        -13    1    4    4    0    0 -0.13058510761E+03  0.97138853328E+02  0.78038923445E+01  0.16293967919E+03  0.10566000000E+00 0. -1.
     200003    1    4    4    0    0  0.87724676545E+01 -0.13072514438E+02 -0.88839682380E+02  0.95080681465E+02  0.30000000000E+02 0. -1.
     200000    1    3    3    0    0 -0.18643112602E+03  0.21388526907E+03 -0.24871280802E+03  0.62638768662E+03  0.50000000000E+03 0. -1.
    -200001    1    1    2    0    0  0.30824376598E+03 -0.29795160796E+03 -0.37812855744E+02  0.82171722144E+03  0.70000000000E+03 0.  1.
<mgrwt>
<rscale>  0 0.16660618E+04</rscale>
<asrwt>0</asrwt>
<pdfrwt beam="1">  1        4 0.95611701E-01 0.16660618E+04</pdfrwt>
<pdfrwt beam="2">  1       -4 0.14812048E+00 0.16660618E+04</pdfrwt>
<totfact> 0.54364415E-01</totfact>
</mgrwt>
</event>
<event>
 8    1  0.5217667E-029  0.1913858E+04  0.7818608E-02  0.8647989E-01
         -4   -1    0    0    0  501 -0.00000000000E+00  0.00000000000E+00  0.85443637621E+03  0.85443732005E+03  0.12700000000E+01 0. -1.
          4   -1    0    0  501    0  0.00000000000E+00 -0.00000000000E+00 -0.10717137445E+04  0.10717144970E+04  0.12700000000E+01 0.  1.
     200001    2    1    2    0    0 -0.32740172314E+03 -0.29382367531E+03 -0.59362175228E+03  0.10177690036E+04  0.69995908407E+03 0.  0.
    5000001    2    3    3    0    0 -0.22107258170E+03 -0.14613602448E+03 -0.14250422503E+03  0.32018420448E+03  0.10946070813E+03 0.  0.
        -13    1    4    4    0    0 -0.25278725908E+02  0.13395233533E+02 -0.31878432840E+02  0.42833303740E+02  0.10566000000E+00 0. -1.
     200003    1    4    4    0    0 -0.19579385579E+03 -0.15953125801E+03 -0.11062579219E+03  0.27735090074E+03  0.30000000000E+02 0. -1.
     200000    1    3    3    0    0 -0.10632914145E+03 -0.14768765083E+03 -0.45111752726E+03  0.69758479909E+03  0.50000000000E+03 0.  1.
    -200001    1    1    2    0    0  0.32740172314E+03  0.29382367531E+03  0.37634438396E+03  0.90838281348E+03  0.70000000000E+03 0. -1.
<mgrwt>
<rscale>  0 0.19138577E+04</rscale>
<asrwt>0</asrwt>
<pdfrwt beam="1">  1        4 0.15310208E+00 0.19138577E+04</pdfrwt>
<pdfrwt beam="2">  1       -4 0.12206246E+00 0.19138577E+04</pdfrwt>
<totfact> 0.26990788E-01</totfact>
</mgrwt>
</event>
<event>
 8    1  0.5217667E-029  0.1689845E+04  0.7818608E-02  0.8767177E-01
          4   -1    0    0  501    0  0.00000000000E+00  0.00000000000E+00  0.74151471517E+03  0.74151580274E+03  0.12700000000E+01 0. -1.
         -4   -1    0    0    0  501 -0.00000000000E+00 -0.00000000000E+00 -0.96274859153E+03  0.96274942918E+03  0.12700000000E+01 0.  1.
     200001    2    1    2    0    0 -0.97726572820E+02 -0.11420909740E+03  0.34192161959E+03  0.79336550441E+03  0.69994587553E+03 0.  0.
    5000001    2    3    3    0    0 -0.11320964505E+03 -0.58080924535E+02  0.35641946785E+02  0.20413097106E+03  0.15559333998E+03 0.  0.
        -13    1    4    4    0    0 -0.25196160534E+02  0.41337406769E+02 -0.25713547282E+02  0.54816287561E+02  0.10566000000E+00 0. -1.
     200003    1    4    4    0    0 -0.88013484521E+02 -0.99418331304E+02  0.61355494067E+02  0.14931468350E+03  0.30000000000E+02 0. -1.
     200000    1    3    3    0    0  0.15483072235E+02 -0.56128172863E+02  0.30627967281E+03  0.58923453335E+03  0.50000000000E+03 0. -1.
    -200001    1    1    2    0    0  0.97726572820E+02  0.11420909740E+03 -0.56315549595E+03  0.91089972751E+03  0.70000000000E+03 0.  1.
<mgrwt>
<rscale>  0 0.16898448E+04</rscale>
<asrwt>0</asrwt>
<pdfrwt beam="1">  1        4 0.10593081E+00 0.16898448E+04</pdfrwt>
<pdfrwt beam="2">  1       -4 0.13753565E+00 0.16898448E+04</pdfrwt>
<totfact> 0.51616556E-01</totfact>
</mgrwt>
</event>
<event>
 8    1  0.5217667E-029  0.1998188E+04  0.7818608E-02  0.8607468E-01
         -4   -1    0    0    0  501 -0.00000000000E+00  0.00000000000E+00  0.13309496601E+04  0.13309502660E+04  0.12700000000E+01 0. -1.
          4   -1    0    0  501    0  0.00000000000E+00 -0.00000000000E+00 -0.74998136102E+03  0.74998243631E+03  0.12700000000E+01 0.  1.
     200001    2    1    2    0    0 -0.29173870739E+03  0.59814063048E+03  0.55895560696E+03  0.11148228504E+04  0.69822269376E+03 0.  0.
    5000001    2    3    3    0    0 -0.57684952141E+02  0.14009494254E+03  0.12471545342E+03  0.27628154344E+03  0.19448239071E+03 0.  0.
        -13    1    4    4    0    0 -0.15697743239E+02  0.17605641759E+03  0.11909374891E+03  0.21313285414E+03  0.10566000000E+00 0. -1.
     200003    1    4    4    0    0 -0.41987208902E+02 -0.35961475057E+02  0.56217045166E+01  0.63148689308E+02  0.30000000000E+02 0. -1.
     200000    1    3    3    0    0 -0.23405375525E+03  0.45804568795E+03  0.43424015353E+03  0.83854130699E+03  0.50000000000E+03 0.  1.
    -200001    1    1    2    0    0  0.29173870739E+03 -0.59814063048E+03  0.22012692078E+02  0.96610985185E+03  0.70000000000E+03 0.  1.
<mgrwt>
<rscale>  0 0.19981884E+04</rscale>
<asrwt>0</asrwt>
<pdfrwt beam="1">  1        4 0.10714032E+00 0.19981884E+04</pdfrwt>
<pdfrwt beam="2">  1       -4 0.19013578E+00 0.19981884E+04</pdfrwt>
<totfact> 0.20066642E-01</totfact>
</mgrwt>
</event>
<event>
 8    1  0.5217667E-029  0.1993040E+04  0.7818608E-02  0.8609882E-01
         -4   -1    0    0    0  501 -0.00000000000E+00  0.00000000000E+00  0.41882300051E+03  0.41882492603E+03  0.12700000000E+01 0. -1.
          4   -1    0    0  501    0  0.00000000000E+00 -0.00000000000E+00 -0.23710461827E+04  0.23710465229E+04  0.12700000000E+01 0.  1.
     200001    2    1    2    0    0 -0.36048894139E+03  0.42641925348E+03 -0.36301518479E+03  0.96576407384E+03  0.69938155919E+03 0.  0.
    5000001    2    3    3    0    0 -0.11606652734E+03  0.22606486253E+03 -0.15931389549E+03  0.34016163321E+03  0.16047510265E+03 0.  0.
        -13    1    4    4    0    0 -0.69228225100E+02  0.11819010365E+03  0.35848031373E+01  0.13701937720E+03  0.10566000000E+00 0. -1.
     200003    1    4    4    0    0 -0.46838302243E+02  0.10787475887E+03 -0.16289869863E+03  0.20314225600E+03  0.30000000000E+02 0. -1.
     200000    1    3    3    0    0 -0.24442241405E+03  0.20035439095E+03 -0.20370128930E+03  0.62560244063E+03  0.50000000000E+03 0. -1.
    -200001    1    1    2    0    0  0.36048894139E+03 -0.42641925348E+03 -0.15892079974E+04  0.18241073751E+04  0.70000000000E+03 0.  1.
<mgrwt>
<rscale>  0 0.19930397E+04</rscale>
<asrwt>0</asrwt>
<pdfrwt beam="1">  1        4 0.33872104E+00 0.19930397E+04</pdfrwt>
<pdfrwt beam="2">  1       -4 0.59832020E-01 0.19930397E+04</pdfrwt>
<totfact> 0.86954555E-02</totfact>
</mgrwt>
</event>
<event>
 8    1  0.5217667E-029  0.1438808E+04  0.7818608E-02  0.8926196E-01
          4   -1    0    0  501    0  0.00000000000E+00  0.00000000000E+00  0.77287185209E+03  0.77287289554E+03  0.12700000000E+01 0.  1.
         -4   -1    0    0    0  501 -0.00000000000E+00 -0.00000000000E+00 -0.66963338882E+03  0.66963459313E+03  0.12700000000E+01 0. -1.
     200001    2    1    2    0    0 -0.37354167629E+02  0.15643607218E+03  0.85002423198E+01  0.71804706254E+03  0.69975120678E+03 0.  0.
    5000001    2    3    3    0    0 -0.67241123931E+01 -0.38907933821E+02 -0.91231599068E+01  0.18008046017E+03  0.17546138916E+03 0.  0.
        -13    1    4    4    0    0 -0.71839256983E+02  0.29545003317E+02  0.12358203669E+02  0.78654449504E+02  0.10566000000E+00 0. -1.
     200003    1    4    4    0    0  0.65115144590E+02 -0.68452937138E+02 -0.21481363576E+02  0.10142601066E+03  0.30000000000E+02 0. -1.
     200000    1    3    3    0    0 -0.30630055236E+02  0.19534400600E+03  0.17623402227E+02  0.53796660237E+03  0.50000000000E+03 0.  1.
    -200001    1    1    2    0    0  0.37354167629E+02 -0.15643607218E+03  0.94738220954E+02  0.72446042613E+03  0.70000000000E+03 0.  1.
<mgrwt>
<rscale>  0 0.14388084E+04</rscale>
<asrwt>0</asrwt>
<pdfrwt beam="1">  1        4 0.11041043E+00 0.14388084E+04</pdfrwt>
<pdfrwt beam="2">  1       -4 0.95662073E-01 0.14388084E+04</pdfrwt>
<totfact> 0.11631922E+00</totfact>
</mgrwt>
</event>
<event>
 8    1  0.5217667E-029  0.1448813E+04  0.7818608E-02  0.8919223E-01
          4   -1    0    0  501    0  0.00000000000E+00  0.00000000000E+00  0.46306858413E+03  0.46307032566E+03  0.12700000000E+01 0. -1.
         -4   -1    0    0    0  501 -0.00000000000E+00 -0.00000000000E+00 -0.11332299147E+04  0.11332306263E+04  0.12700000000E+01 0.  1.
     200001    2    1    2    0    0  0.15415422061E+03 -0.81438757499E+02 -0.40755221424E+03  0.82860352269E+03  0.70006370819E+03 0.  0.
    5000001    2    3    3    0    0  0.78436287882E+02 -0.65378594705E+02 -0.11046248888E+03  0.24187237551E+03  0.18940346533E+03 0.  0.
        -13    1    4    4    0    0  0.73584839551E+02 -0.76712649884E+02  0.19369997464E+02  0.10804983679E+03  0.10566000000E+00 0. -1.
     200003    1    4    4    0    0  0.48514483306E+01  0.11334055179E+02 -0.12983248635E+03  0.13382253872E+03  0.30000000000E+02 0. -1.
     200000    1    3    3    0    0  0.75717932728E+02 -0.16060162794E+02 -0.29708972535E+03  0.58673114718E+03  0.50000000000E+03 0.  1.
    -200001    1    1    2    0    0 -0.15415422061E+03  0.81438757499E+02 -0.26260911630E+03  0.76769742928E+03  0.70000000000E+03 0. -1.
<mgrwt>
<rscale>  0 0.14488135E+04</rscale>
<asrwt>0</asrwt>
<pdfrwt beam="1">  1        4 0.66152830E-01 0.14488135E+04</pdfrwt>
<pdfrwt beam="2">  1       -4 0.16189016E+00 0.14488135E+04</pdfrwt>
<totfact> 0.10014542E+00</totfact>
</mgrwt>
</event>
