<event>
 8    1  0.3214020E-028  0.2070756E+04  0.7818608E-02  0.8574236E-01
          1   -1    0    0  501    0  0.00000000000E+00  0.00000000000E+00  0.23635336931E+04  0.23635336931E+04  0.50400000000E-02 0.  1.
         -1   -1    0    0    0  501 -0.00000000000E+00 -0.00000000000E+00 -0.45356159520E+03  0.45356159523E+03  0.50400000000E-02 0. -1.
     200001    2    1    2    0    0  0.18039188146E+03 -0.43728020485E+03  0.17680443787E+04  0.19604164185E+04  0.70249298967E+03 0.  0.
    5000001    2    3    3    0    0  0.29983280441E+02 -0.91175876188E+02  0.24984738015E+03  0.31806046442E+03  0.17183337324E+03 0.  0.
        -13    1    4    4    0    0  0.13789478235E+02 -0.81034348990E+02  0.26642620078E+03  0.27881830473E+03  0.10566000000E+00 0. -1.
     200003    1    4    4    0    0  0.16193802206E+02 -0.10141527198E+02 -0.16578820633E+02  0.39242159693E+02  0.30000000000E+02 0. -1.
     200000    1    3    3    0    0  0.15040860102E+03 -0.34610432866E+03  0.15181969986E+04  0.16423559541E+04  0.50000000000E+03 0.  1.
    -200001    1    1    2    0    0 -0.18039188146E+03  0.43728020485E+03  0.14192771916E+03  0.85667886977E+03  0.70000000000E+03 0. -1.
<mgrwt>
<rscale>  0 0.20707565E+04</rscale>
<asrwt>0</asrwt>
<pdfrwt beam="1">  1        1 0.33764768E+00 0.20707565E+04</pdfrwt>
<pdfrwt beam="2">  1       -1 0.64794512E-01 0.20707565E+04</pdfrwt>
<totfact> 0.49099821E+00</totfact>
</mgrwt>
</event>
<event>
 8    1  0.3214020E-028  0.1961607E+04  0.7818608E-02  0.8624784E-01
         -1   -1    0    0    0  501 -0.00000000000E+00  0.00000000000E+00  0.14831276580E+04  0.14831276580E+04  0.50400000000E-02 0.  1.
          1   -1    0    0  501    0  0.00000000000E+00 -0.00000000000E+00 -0.64861303573E+03  0.64861303575E+03  0.50400000000E-02 0. -1.
     200001    2    1    2    0    0 -0.20716626439E+03  0.46873784112E+03  0.91472744589E+03  0.12604961116E+04  0.69963642159E+03 0.  0.
    5000001    2    3    3    0    0 -0.54542483797E+02  0.14551967402E+03  0.23609508391E+03  0.34490565480E+03  0.19765668215E+03 0.  0.
        -13    1    4    4    0    0  0.69156339302E+02  0.83578734224E+02  0.12060445274E+03  0.16221420796E+03  0.10566000000E+00 0. -1.
     200003    1    4    4    0    0 -0.12369882310E+03  0.61940939793E+02  0.11549063117E+03  0.18269144684E+03  0.30000000000E+02 0. -1.
     200000    1    3    3    0    0 -0.15262378059E+03  0.32321816710E+03  0.67863236197E+03  0.91559045684E+03  0.50000000000E+03 0. -1.
    -200001    1    1    2    0    0  0.20716626439E+03 -0.46873784112E+03 -0.80212823620E+02  0.87124458212E+03  0.70000000000E+03 0. -1.
<mgrwt>
<rscale>  0 0.19616074E+04</rscale>
<asrwt>0</asrwt>
<pdfrwt beam="1">  1        1 0.92659006E-01 0.19616074E+04</pdfrwt>
<pdfrwt beam="2">  1       -1 0.21187538E+00 0.19616074E+04</pdfrwt>
<totfact> 0.39730948E+00</totfact>
</mgrwt>
</event>
<event>
 8    1  0.3214020E-028  0.1696027E+04  0.7818608E-02  0.8763634E-01
          1   -1    0    0  501    0  0.00000000000E+00  0.00000000000E+00  0.14249996325E+04  0.14249996325E+04  0.50400000000E-02 0.  1.
         -1   -1    0    0    0  501 -0.00000000000E+00 -0.00000000000E+00 -0.50465057299E+03  0.50465057301E+03  0.50400000000E-02 0. -1.
     200001    2    1    2    0    0  0.15192782389E+03  0.13098322620E+03 -0.32394897714E+02  0.73050062466E+03  0.70167162121E+03 0.  0.
    5000001    2    3    3    0    0  0.10332346510E+03  0.11923443134E+03 -0.59207908856E+02  0.22729156727E+03  0.15252308686E+03 0.  0.
        -13    1    4    4    0    0 -0.33675504463E+02  0.13961735269E+02  0.11480803884E+02  0.38220278314E+02  0.10566000000E+00 0. -1.
     200003    1    4    4    0    0  0.13699896956E+03  0.10527269607E+03 -0.70688712740E+02  0.18907128896E+03  0.30000000000E+02 0. -1.
     200000    1    3    3    0    0  0.48604358791E+02  0.11748794859E+02  0.26813011142E+02  0.50320905739E+03  0.50000000000E+03 0. -1.
    -200001    1    1    2    0    0 -0.15192782389E+03 -0.13098322620E+03  0.95274395719E+03  0.11991495808E+04  0.70000000000E+03 0.  1.
<mgrwt>
<rscale>  0 0.16960270E+04</rscale>
<asrwt>0</asrwt>
<pdfrwt beam="1">  1        1 0.20357138E+00 0.16960270E+04</pdfrwt>
<pdfrwt beam="2">  1       -1 0.72092938E-01 0.16960270E+04</pdfrwt>
<totfact> 0.16139402E+01</totfact>
</mgrwt>
</event>
<event>
 8    1  0.3214020E-028  0.1818020E+04  0.7818608E-02  0.8696775E-01
          1   -1    0    0  501    0  0.00000000000E+00  0.00000000000E+00  0.12809568715E+04  0.12809568715E+04  0.50400000000E-02 0.  1.
         -1   -1    0    0    0  501 -0.00000000000E+00 -0.00000000000E+00 -0.64506394146E+03  0.64506394148E+03  0.50400000000E-02 0. -1.
     200001    2    1    2    0    0 -0.37507767041E+03 -0.35894071200E+03  0.42261992816E+02  0.87154493220E+03  0.69877235151E+03 0.  0.
    5000001    2    3    3    0    0 -0.53085772460E+01 -0.76088379876E+02  0.14239403507E+01  0.18714565504E+03  0.17089132819E+03 0.  0.
        -13    1    4    4    0    0  0.62528416690E+02 -0.90908197523E+02  0.11080062085E+02  0.11089130809E+03  0.10566000000E+00 0. -1.
     200003    1    4    4    0    0 -0.67836993936E+02  0.14819817647E+02 -0.96561217346E+01  0.76254346947E+02  0.30000000000E+02 0. -1.
     200000    1    3    3    0    0 -0.36976909316E+03 -0.28285233212E+03  0.40838052465E+02  0.68439927716E+03  0.50000000000E+03 0. -1.
    -200001    1    1    2    0    0  0.37507767041E+03  0.35894071200E+03  0.59363093723E+03  0.10544758808E+04  0.70000000000E+03 0.  1.
<mgrwt>
<rscale>  0 0.18180199E+04</rscale>
<asrwt>0</asrwt>
<pdfrwt beam="1">  1        1 0.18299384E+00 0.18180199E+04</pdfrwt>
<pdfrwt beam="2">  1       -1 0.92151992E-01 0.18180199E+04</pdfrwt>
<totfact> 0.11791910E+01</totfact>
</mgrwt>
</event>
<event>
 8    1  0.3214020E-028  0.1814467E+04  0.7818608E-02  0.8698644E-01
         -1   -1    0    0    0  501 -0.00000000000E+00  0.00000000000E+00  0.76120222468E+03  0.76120222470E+03  0.50400000000E-02 0. -1.
          1   -1    0    0  501    0  0.00000000000E+00 -0.00000000000E+00 -0.10812793545E+04  0.10812793545E+04  0.50400000000E-02 0.  1.
     200001    2    1    2    0    0 -0.87111750751E+02 -0.22074066083E+03 -0.69431499062E+03  0.10140077577E+04  0.69987393860E+03 0.  0.
    5000001    2    3    3    0    0  0.64961860506E+01  0.18468252821E+02 -0.19351487405E+03  0.26115710384E+03  0.17427492537E+03 0.  0.
        -13    1    4    4    0    0 -0.70783630454E+02  0.37953084474E+02 -0.51008426992E+02  0.95145308605E+02  0.10566000000E+00 0. -1.
     200003    1    4    4    0    0  0.77279816504E+02 -0.19484831653E+02 -0.14250644706E+03  0.16601179524E+03  0.30000000000E+02 0. -1.
     200000    1    3    3    0    0 -0.93607936802E+02 -0.23920891365E+03 -0.50080011657E+03  0.75285065382E+03  0.50000000000E+03 0.  1.
    -200001    1    1    2    0    0  0.87111750751E+02  0.22074066083E+03  0.37423786083E+03  0.82847382152E+03  0.70000000000E+03 0. -1.
<mgrwt>
<rscale>  0 0.18144666E+04</rscale>
<asrwt>0</asrwt>
<pdfrwt beam="1">  1        1 0.15446848E+00 0.18144666E+04</pdfrwt>
<pdfrwt beam="2">  1       -1 0.10874318E+00 0.18144666E+04</pdfrwt>
<totfact> 0.11146310E+01</totfact>
</mgrwt>
</event>
<event>
 8    1  0.3214020E-028  0.2128031E+04  0.7818608E-02  0.8548995E-01
          1   -1    0    0  501    0  0.00000000000E+00  0.00000000000E+00  0.62368109515E+03  0.62368109517E+03  0.50400000000E-02 0.  1.
         -1   -1    0    0    0  501 -0.00000000000E+00 -0.00000000000E+00 -0.18152362265E+04  0.18152362265E+04  0.50400000000E-02 0. -1.
     200001    2    1    2    0    0 -0.38448188544E+03 -0.41581699195E+03  0.52108240015E+02  0.90352529607E+03  0.70207734682E+03 0.  0.
    5000001    2    3    3    0    0 -0.17572309828E+03 -0.15147329665E+03  0.90428935508E+01  0.29911447177E+03  0.18858665496E+03 0.  0.
        -13    1    4    4    0    0 -0.64368747355E+02 -0.13047589200E+03  0.75973145903E+02  0.16413172787E+03  0.10566000000E+00 0. -1.
     200003    1    4    4    0    0 -0.11135435092E+03 -0.20997404650E+02 -0.66930252352E+02  0.13498274390E+03  0.30000000000E+02 0. -1.
     200000    1    3    3    0    0 -0.20875878717E+03 -0.26434369530E+03  0.43065346464E+02  0.60441082430E+03  0.50000000000E+03 0.  1.
    -200001    1    1    2    0    0  0.38448188544E+03  0.41581699195E+03 -0.12436633713E+04  0.15353920256E+04  0.70000000000E+03 0.  1.
<mgrwt>
<rscale>  0 0.21280306E+04</rscale>
<asrwt>0</asrwt>
<pdfrwt beam="1">  1        1 0.89097300E-01 0.21280306E+04</pdfrwt>
<pdfrwt beam="2">  1       -1 0.25931946E+00 0.21280306E+04</pdfrwt>
<totfact> 0.20132661E+00</totfact>
</mgrwt>
</event>
<event>
 8    1  0.3214020E-028  0.1554504E+04  0.7818608E-02  0.8848996E-01
         -1   -1    0    0    0  501 -0.00000000000E+00  0.00000000000E+00  0.62618165081E+03  0.62618165083E+03  0.50400000000E-02 0. -1.
          1   -1    0    0  501    0  0.00000000000E+00 -0.00000000000E+00 -0.96476888881E+03  0.96476888883E+03  0.50400000000E-02 0.  1.
     200001    2    1    2    0    0  0.17478282108E+03  0.27330087867E+03 -0.26952340618E+03  0.81634598397E+03  0.69895314167E+03 0.  0.
    5000001    2    3    3    0    0  0.98359045641E+02  0.19575510165E+03 -0.53158247053E+02  0.26076716592E+03  0.13106927143E+03 0.  0.
        -13    1    4    4    0    0  0.87019950107E+00 -0.14368012687E+02 -0.20314418826E+02  0.24897465976E+02  0.10566000000E+00 0. -1.
     200003    1    4    4    0    0  0.97488846140E+02  0.21012311433E+03 -0.32843828227E+02  0.23586969994E+03  0.30000000000E+02 0. -1.
     200000    1    3    3    0    0  0.76423775437E+02  0.77545777022E+02 -0.21636515912E+03  0.55557881805E+03  0.50000000000E+03 0.  1.
    -200001    1    1    2    0    0 -0.17478282108E+03 -0.27330087867E+03 -0.69063831827E+02  0.77460455569E+03  0.70000000000E+03 0. -1.
<mgrwt>
<rscale>  0 0.15545039E+04</rscale>
<asrwt>0</asrwt>
<pdfrwt beam="1">  1        1 0.13782413E+00 0.15545039E+04</pdfrwt>
<pdfrwt beam="2">  1       -1 0.89454522E-01 0.15545039E+04</pdfrwt>
<totfact> 0.21690621E+01</totfact>
</mgrwt>
</event>
<event>
 8    1  0.3214020E-028  0.1603492E+04  0.7818608E-02  0.8818406E-01
         -1   -1    0    0    0  501 -0.00000000000E+00  0.00000000000E+00  0.33777350304E+03  0.33777350308E+03  0.50400000000E-02 0.  1.
          1   -1    0    0  501    0  0.00000000000E+00 -0.00000000000E+00 -0.19030408031E+04  0.19030408031E+04  0.50400000000E-02 0. -1.
     200001    2    1    2    0    0 -0.88412547809E+02  0.27287712274E+03 -0.11538362740E+04  0.13796788976E+04  0.69992643221E+03 0.  0.
    5000001    2    3    3    0    0 -0.79742888748E+01  0.19870330936E+03 -0.45588947435E+03  0.51417222329E+03  0.13035055791E+03 0.  0.
        -13    1    4    4    0    0  0.43278033620E+02  0.12588955663E+03 -0.33899236052E+03  0.36419363025E+03  0.10566000000E+00 0. -1.
     200003    1    4    4    0    0 -0.51252322494E+02  0.72813752737E+02 -0.11689711383E+03  0.14997859304E+03  0.30000000000E+02 0. -1.
     200000    1    3    3    0    0 -0.80438258934E+02  0.74173813380E+02 -0.69794679963E+03  0.86550667427E+03  0.50000000000E+03 0. -1.
    -200001    1    1    2    0    0  0.88412547809E+02 -0.27287712274E+03 -0.41143102604E+03  0.86113540858E+03  0.70000000000E+03 0.  1.
<mgrwt>
<rscale>  0 0.16034921E+04</rscale>
<asrwt>0</asrwt>
<pdfrwt beam="1">  1        1 0.27186297E+00 0.16034921E+04</pdfrwt>
<pdfrwt beam="2">  1       -1 0.48253359E-01 0.16034921E+04</pdfrwt>
<totfact> 0.17707568E+01</totfact>
</mgrwt>
</event>
<event>
 8    1  0.3214020E-028  0.1684711E+04  0.7818608E-02  0.8770133E-01
         -1   -1    0    0    0  501 -0.00000000000E+00  0.00000000000E+00  0.28085449990E+03  0.28085449994E+03  0.50400000000E-02 0.  1.
          1   -1    0    0  501    0  0.00000000000E+00 -0.00000000000E+00 -0.25264426553E+04  0.25264426553E+04  0.50400000000E-02 0. -1.
     200001    2    1    2    0    0 -0.38036511254E+03  0.25987247611E+03 -0.12635808975E+04  0.15163480559E+04  0.70033093552E+03 0.  0.
    5000001    2    3    3    0    0 -0.10164261237E+03  0.10601437851E+03 -0.42635366482E+03  0.49052741585E+03  0.19305291785E+03 0.  0.
        -13    1    4    4    0    0  0.20387348979E+02  0.98658526576E+02 -0.10554861400E+03  0.14590980072E+03  0.10566000000E+00 0. -1.
     200003    1    4    4    0    0 -0.12202996134E+03  0.73558519295E+01 -0.32080505082E+03  0.34461761513E+03  0.30000000000E+02 0. -1.
     200000    1    3    3    0    0 -0.27872250017E+03  0.15385809760E+03 -0.83722723273E+03  0.10258206400E+04  0.50000000000E+03 0.  1.
    -200001    1    1    2    0    0  0.38036511254E+03 -0.25987247611E+03 -0.98200725785E+03  0.12909490994E+04  0.70000000000E+03 0. -1.
<mgrwt>
<rscale>  0 0.16847110E+04</rscale>
<asrwt>0</asrwt>
<pdfrwt beam="1">  1        1 0.36092037E+00 0.16847110E+04</pdfrwt>
<pdfrwt beam="2">  1       -1 0.40122073E-01 0.16847110E+04</pdfrwt>
<totfact> 0.10018796E+01</totfact>
</mgrwt>
</event>
<event>
 8    1  0.3214020E-028  0.2174171E+04  0.7818608E-02  0.8529256E-01
         -1   -1    0    0    0  501 -0.00000000000E+00  0.00000000000E+00  0.37487385165E+04  0.37487385165E+04  0.50400000000E-02 0.  1.
          1   -1    0    0  501    0  0.00000000000E+00 -0.00000000000E+00 -0.31524054623E+03  0.31524054627E+03  0.50400000000E-02 0. -1.
     200001    2    1    2    0    0 -0.31288200387E+01 -0.50577585961E+03  0.48286493895E+03  0.98955972000E+03  0.70017917743E+03 0.  0.
    5000001    2    3    3    0    0 -0.93114985893E+02 -0.23000356727E+03  0.17551307232E+03  0.33487427096E+03  0.14058412870E+03 0.  0.
        -13    1    4    4    0    0 -0.84161169968E+02 -0.19263279701E+03  0.19068558949E+03  0.28381596540E+03  0.10566000000E+00 0. -1.
     200003    1    4    4    0    0 -0.89538159258E+01 -0.37370770258E+02 -0.15172517170E+02  0.51058305559E+02  0.30000000000E+02 0. -1.
     200000    1    3    3    0    0  0.89986165855E+02 -0.27577229234E+03  0.30735186663E+03  0.65468544904E+03  0.50000000000E+03 0. -1.
    -200001    1    1    2    0    0  0.31288200387E+01  0.50577585961E+03  0.29506330313E+04  0.30744193428E+04  0.70000000000E+03 0.  1.
<mgrwt>
<rscale>  0 0.21741705E+04</rscale>
<asrwt>0</asrwt>
<pdfrwt beam="1">  1        1 0.45034363E-01 0.21741705E+04</pdfrwt>
<pdfrwt beam="2">  1       -1 0.53553408E+00 0.21741705E+04</pdfrwt>
<totfact> 0.74177686E-02</totfact>
</mgrwt>
</event>
<event>
 8    1  0.3214020E-028  0.2401350E+04  0.7818608E-02  0.8438998E-01
          1   -1    0    0  501    0  0.00000000000E+00  0.00000000000E+00  0.30239247599E+04  0.30239247599E+04  0.50400000000E-02 0. -1.
         -1   -1    0    0    0  501 -0.00000000000E+00 -0.00000000000E+00 -0.47673803313E+03  0.47673803316E+03  0.50400000000E-02 0.  1.
     200001    2    1    2    0    0 -0.57211466936E+03 -0.87857263514E+02  0.12906087046E+03  0.91757031493E+03  0.70017460745E+03 0.  0.
    5000001    2    3    3    0    0 -0.18349549515E+03 -0.73294206808E+02  0.13127348052E+03  0.28413378234E+03  0.15638619533E+03 0.  0.
        -13    1    4    4    0    0 -0.15150647340E+03  0.10009229852E+02  0.50278981198E+02  0.15994493827E+03  0.10566000000E+00 0. -1.
     200003    1    4    4    0    0 -0.31989021753E+02 -0.83303436660E+02  0.80994499317E+02  0.12418884407E+03  0.30000000000E+02 0. -1.
     200000    1    3    3    0    0 -0.38861917421E+03 -0.14563056706E+02 -0.22126100533E+01  0.63343653259E+03  0.50000000000E+03 0.  1.
    -200001    1    1    2    0    0  0.57211466936E+03  0.87857263514E+02  0.24181258563E+04  0.25830924782E+04  0.70000000000E+03 0. -1.
<mgrwt>
<rscale>  0 0.24013496E+04</rscale>
<asrwt>0</asrwt>
<pdfrwt beam="1">  1        1 0.43198925E+00 0.24013496E+04</pdfrwt>
<pdfrwt beam="2">  1       -1 0.68105433E-01 0.24013496E+04</pdfrwt>
<totfact> 0.16162090E+00</totfact>
</mgrwt>
</event>
<event>
 8    1  0.3214020E-028  0.1741804E+04  0.7818608E-02  0.8737875E-01
          1   -1    0    0  501    0  0.00000000000E+00  0.00000000000E+00  0.18115393370E+04  0.18115393370E+04  0.50400000000E-02 0.  1.
         -1   -1    0    0    0  501 -0.00000000000E+00 -0.00000000000E+00 -0.41868845326E+03  0.41868845329E+03  0.50400000000E-02 0. -1.
     200001    2    1    2    0    0  0.45448648608E+03 -0.24198756461E+03  0.63044860671E+03  0.10742117093E+04  0.70096319679E+03 0.  0.
    5000001    2    3    3    0    0  0.15901978426E+03 -0.94955472437E+02  0.11153323675E+03  0.28162596051E+03  0.18047073226E+03 0.  0.
        -13    1    4    4    0    0  0.10688048408E+03 -0.18587693838E+02  0.14295709268E+03  0.17945941534E+03  0.10566000000E+00 0. -1.
     200003    1    4    4    0    0  0.52139300180E+02 -0.76367778599E+02 -0.31423855937E+02  0.10216654518E+03  0.30000000000E+02 0. -1.
     200000    1    3    3    0    0  0.29546670181E+03 -0.14703209218E+03  0.51891536996E+03  0.79258574879E+03  0.50000000000E+03 0.  1.
    -200001    1    1    2    0    0 -0.45448648608E+03  0.24198756461E+03  0.76240227701E+03  0.11560160810E+04  0.70000000000E+03 0.  1.
<mgrwt>
<rscale>  0 0.17418044E+04</rscale>
<asrwt>0</asrwt>
<pdfrwt beam="1">  1        1 0.25879133E+00 0.17418044E+04</pdfrwt>
<pdfrwt beam="2">  1       -1 0.59812637E-01 0.17418044E+04</pdfrwt>
<totfact> 0.13209392E+01</totfact>
</mgrwt>
</event>
<event>
 8    1  0.3214020E-028  0.1516381E+04  0.7818608E-02  0.8873633E-01
          1   -1    0    0  501    0  0.00000000000E+00  0.00000000000E+00  0.18724702437E+04  0.18724702437E+04  0.50400000000E-02 0.  1.
         -1   -1    0    0    0  501 -0.00000000000E+00 -0.00000000000E+00 -0.30700221712E+03  0.30700221716E+03  0.50400000000E-02 0. -1.
     200001    2    1    2    0    0 -0.35038877534E+02 -0.52147243941E+02  0.37318447188E+03  0.79546121352E+03  0.69967480602E+03 0.  0.
    5000001    2    3    3    0    0  0.78507779145E+02  0.13386656288E+02  0.17067723004E+03  0.24030653389E+03  0.14924422743E+03 0.  0.
        -13    1    4    4    0    0  0.50963220691E+01  0.34281461144E+02  0.15238956651E+03  0.15628110001E+03  0.10566000000E+00 0. -1.
     200003    1    4    4    0    0  0.73411457076E+02 -0.20894804856E+02  0.18287663535E+02  0.84025433873E+02  0.30000000000E+02 0. -1.
     200000    1    3    3    0    0 -0.11354665668E+03 -0.65533900230E+02  0.20250724183E+03  0.55515467963E+03  0.50000000000E+03 0.  1.
    -200001    1    1    2    0    0  0.35038877534E+02  0.52147243941E+02  0.11922835547E+04  0.13840112474E+04  0.70000000000E+03 0.  1.
<mgrwt>
<rscale>  0 0.15163806E+04</rscale>
<asrwt>0</asrwt>
<pdfrwt beam="1">  1        1 0.26749575E+00 0.15163806E+04</pdfrwt>
<pdfrwt beam="2">  1       -1 0.43857459E-01 0.15163806E+04</pdfrwt>
<totfact> 0.22299445E+01</totfact>
</mgrwt>
</event>
<event>
 8    1  0.3214020E-028  0.1565399E+04  0.7818608E-02  0.8842091E-01
          1   -1    0    0  501    0  0.00000000000E+00  0.00000000000E+00  0.16877085325E+04  0.16877085325E+04  0.50400000000E-02 0.  1.
         -1   -1    0    0    0  501 -0.00000000000E+00 -0.00000000000E+00 -0.36298844641E+03  0.36298844645E+03  0.50400000000E-02 0. -1.
     200001    2    1    2    0    0 -0.19389531719E+03 -0.44873397578E+02  0.10420785499E+04  0.12699952088E+04  0.69810537205E+03 0.  0.
    5000001    2    3    3    0    0 -0.52397251870E+01  0.78666479286E+01  0.38138176189E+03  0.41858890720E+03  0.17226516205E+03 0.  0.
        -13    1    4    4    0    0 -0.36968470943E+02  0.63161470245E+02  0.30911204764E+03  0.31765753308E+03  0.10566000000E+00 0. -1.
     200003    1    4    4    0    0  0.31728745756E+02 -0.55294822317E+02  0.72269714258E+02  0.10093137412E+03  0.30000000000E+02 0. -1.
     200000    1    3    3    0    0 -0.18865559201E+03 -0.52740045507E+02  0.66069678799E+03  0.85140630163E+03  0.50000000000E+03 0.  1.
    -200001    1    1    2    0    0  0.19389531719E+03  0.44873397578E+02  0.28264153615E+03  0.78070177007E+03  0.70000000000E+03 0. -1.
<mgrwt>
<rscale>  0 0.15653992E+04</rscale>
<asrwt>0</asrwt>
<pdfrwt beam="1">  1        1 0.24110122E+00 0.15653992E+04</pdfrwt>
<pdfrwt beam="2">  1       -1 0.51855492E-01 0.15653992E+04</pdfrwt>
<totfact> 0.21216520E+01</totfact>
</mgrwt>
</event>
<event>
 8    1  0.3214020E-028  0.1419585E+04  0.7818608E-02  0.8939762E-01
          1   -1    0    0  501    0  0.00000000000E+00  0.00000000000E+00  0.15262220146E+04  0.15262220146E+04  0.50400000000E-02 0.  1.
         -1   -1    0    0    0  501 -0.00000000000E+00 -0.00000000000E+00 -0.33009985411E+03  0.33009985415E+03  0.50400000000E-02 0. -1.
     200001    2    1    2    0    0  0.51285521292E+02  0.84013497915E+02  0.67949289825E+03  0.98076817701E+03  0.70036215327E+03 0.  0.
    5000001    2    3    3    0    0  0.49457825961E+02  0.99943205200E+02  0.22597998953E+03  0.30554150809E+03  0.17278291780E+03 0.  0.
        -13    1    4    4    0    0 -0.59248781660E+02  0.30349195175E+02  0.41662885975E+02  0.78532152701E+02  0.10566000000E+00 0. -1.
     200003    1    4    4    0    0  0.10870660762E+03  0.69594010025E+02  0.18431710355E+03  0.22700935539E+03  0.30000000000E+02 0. -1.
     200000    1    3    3    0    0  0.18276953307E+01 -0.15929707284E+02  0.45351290872E+03  0.67522666892E+03  0.50000000000E+03 0.  1.
    -200001    1    1    2    0    0 -0.51285521292E+02 -0.84013497915E+02  0.51662926225E+03  0.87555369175E+03  0.70000000000E+03 0. -1.
<mgrwt>
<rscale>  0 0.14195854E+04</rscale>
<asrwt>0</asrwt>
<pdfrwt beam="1">  1        1 0.21803171E+00 0.14195854E+04</pdfrwt>
<pdfrwt beam="2">  1       -1 0.47157124E-01 0.14195854E+04</pdfrwt>
<totfact> 0.32669664E+01</totfact>
</mgrwt>
</event>
<event>
 8    1  0.3214020E-028  0.1572454E+04  0.7818608E-02  0.8837651E-01
          1   -1    0    0  501    0  0.00000000000E+00  0.00000000000E+00  0.11412594656E+04  0.11412594656E+04  0.50400000000E-02 0.  1.
         -1   -1    0    0    0  501 -0.00000000000E+00 -0.00000000000E+00 -0.54164105327E+03  0.54164105329E+03  0.50400000000E-02 0. -1.
     200001    2    1    2    0    0  0.33354533535E+03  0.12033978140E+03  0.35562860614E+03  0.86115531556E+03  0.69955887407E+03 0.  0.
    5000001    2    3    3    0    0  0.44089506491E+02 -0.22056189125E+02  0.87327339381E+02  0.20843266464E+03  0.18272315513E+03 0.  0.
        -13    1    4    4    0    0 -0.59875746028E+02 -0.32116313437E+02 -0.16722047953E+01  0.67965947239E+02  0.10566000000E+00 0. -1.
     200003    1    4    4    0    0  0.10396525252E+03  0.10060124312E+02  0.88999544177E+02  0.14046671740E+03  0.30000000000E+02 0. -1.
     200000    1    3    3    0    0  0.28945582886E+03  0.14239597052E+03  0.26830126676E+03  0.65272265092E+03  0.50000000000E+03 0.  1.
    -200001    1    1    2    0    0 -0.33354533535E+03 -0.12033978140E+03  0.24398980622E+03  0.82174520337E+03  0.70000000000E+03 0.  1.
<mgrwt>
<rscale>  0 0.15724541E+04</rscale>
<asrwt>0</asrwt>
<pdfrwt beam="1">  1        1 0.16303707E+00 0.15724541E+04</pdfrwt>
<pdfrwt beam="2">  1       -1 0.77377294E-01 0.15724541E+04</pdfrwt>
<totfact> 0.21966052E+01</totfact>
</mgrwt>
</event>
<event>
 8    1  0.3214020E-028  0.1722837E+04  0.7818608E-02  0.8748446E-01
          1   -1    0    0  501    0  0.00000000000E+00  0.00000000000E+00  0.27598637484E+03  0.27598637489E+03  0.50400000000E-02 0.  1.
         -1   -1    0    0    0  501 -0.00000000000E+00 -0.00000000000E+00 -0.26886901729E+04  0.26886901729E+04  0.50400000000E-02 0. -1.
     200001    2    1    2    0    0  0.46183197328E+03 -0.17496896296E+03 -0.12477687485E+04  0.15186556008E+04  0.71097473546E+03 0.  0.
    5000001    2    3    3    0    0  0.65364441611E+02 -0.90317915536E+02 -0.16335588285E+03  0.25758321320E+03  0.16502766788E+03 0.  0.
        -13    1    4    4    0    0  0.51221744200E+02  0.35407233188E+02 -0.86367266806E+02  0.10647373000E+03  0.10566000000E+00 0. -1.
     200003    1    4    4    0    0  0.14142697411E+02 -0.12572514872E+03 -0.76988616047E+02  0.15110948320E+03  0.30000000000E+02 0. -1.
     200000    1    3    3    0    0  0.39646753167E+03 -0.84651047425E+02 -0.10844128657E+04  0.12610723876E+04  0.50000000000E+03 0. -1.
    -200001    1    1    2    0    0 -0.46183197328E+03  0.17496896296E+03 -0.11649350495E+04  0.14460209470E+04  0.70000000000E+03 0. -1.
<mgrwt>
<rscale>  0 0.17228370E+04</rscale>
<asrwt>0</asrwt>
<pdfrwt beam="1">  1        1 0.39426627E-01 0.17228370E+04</pdfrwt>
<pdfrwt beam="2">  1       -1 0.38409858E+00 0.17228370E+04</pdfrwt>
<totfact> 0.94422138E-01</totfact>
</mgrwt>
</event>
<event>
 8    1  0.3214020E-028  0.1875080E+04  0.7818608E-02  0.8667361E-01
          1   -1    0    0  501    0  0.00000000000E+00  0.00000000000E+00  0.56000565075E+03  0.56000565077E+03  0.50400000000E-02 0.  1.
         -1   -1    0    0    0  501 -0.00000000000E+00 -0.00000000000E+00 -0.15695930111E+04  0.15695930111E+04  0.50400000000E-02 0. -1.
     200001    2    1    2    0    0 -0.34630148759E+03 -0.21422094337E+03 -0.10426809615E+04  0.13190984957E+04  0.69786955876E+03 0.  0.
    5000001    2    3    3    0    0 -0.11985056077E+03 -0.12114816739E+03 -0.28233931223E+03  0.37672808686E+03  0.18211954540E+03 0.  0.
        -13    1    4    4    0    0 -0.40571510930E+02 -0.14553115416E+03 -0.12388381200E+03  0.19537802940E+03  0.10566000000E+00 0. -1.
     200003    1    4    4    0    0 -0.79279049839E+02  0.24382986776E+02 -0.15845550023E+03  0.18135005746E+03  0.30000000000E+02 0. -1.
     200000    1    3    3    0    0 -0.22645092683E+03 -0.93072775978E+02 -0.76034164927E+03  0.94237040887E+03  0.50000000000E+03 0. -1.
    -200001    1    1    2    0    0  0.34630148759E+03  0.21422094337E+03  0.33093601162E+02  0.81050016615E+03  0.70000000000E+03 0. -1.
<mgrwt>
<rscale>  0 0.18750797E+04</rscale>
<asrwt>0</asrwt>
<pdfrwt beam="1">  1        1 0.80000808E-01 0.18750797E+04</pdfrwt>
<pdfrwt beam="2">  1       -1 0.22422757E+00 0.18750797E+04</pdfrwt>
<totfact> 0.40717680E+00</totfact>
</mgrwt>
</event>
<event>
 8    1  0.3214020E-028  0.2080138E+04  0.7818608E-02  0.8570044E-01
         -1   -1    0    0    0  501 -0.00000000000E+00  0.00000000000E+00  0.51304741043E+03  0.51304741046E+03  0.50400000000E-02 0. -1.
          1   -1    0    0  501    0  0.00000000000E+00 -0.00000000000E+00 -0.21084663644E+04  0.21084663645E+04  0.50400000000E-02 0.  1.
     200001    2    1    2    0    0 -0.36389843009E+03 -0.43104055821E+03 -0.13878055678E+03  0.90978556911E+03  0.70016548656E+03 0.  0.
    5000001    2    3    3    0    0 -0.11318837429E+03 -0.77848881546E+02  0.50733003933E+02  0.22166110199E+03  0.16639636419E+03 0.  0.
        -13    1    4    4    0    0 -0.59840354100E+02 -0.71822939161E+02  0.10432777973E+03  0.14008461499E+03  0.10566000000E+00 0. -1.
     200003    1    4    4    0    0 -0.53348020188E+02 -0.60259423848E+01 -0.53594775797E+02  0.81576487007E+02  0.30000000000E+02 0. -1.
     200000    1    3    3    0    0 -0.25071005580E+03 -0.35319167666E+03 -0.18951356072E+03  0.68812446711E+03  0.50000000000E+03 0. -1.
    -200001    1    1    2    0    0  0.36389843009E+03  0.43104055821E+03 -0.14566383972E+04  0.17117282058E+04  0.70000000000E+03 0.  1.
<mgrwt>
<rscale>  0 0.20801377E+04</rscale>
<asrwt>0</asrwt>
<pdfrwt beam="1">  1        1 0.30120948E+00 0.20801377E+04</pdfrwt>
<pdfrwt beam="2">  1       -1 0.73292488E-01 0.20801377E+04</pdfrwt>
<totfact> 0.55225704E+00</totfact>
</mgrwt>
</event>
<event>
 8    1  0.3214020E-028  0.1949399E+04  0.7818608E-02  0.8630651E-01
         -1   -1    0    0    0  501 -0.00000000000E+00  0.00000000000E+00  0.34242272977E+03  0.34242272981E+03  0.50400000000E-02 0. -1.
          1   -1    0    0  501    0  0.00000000000E+00 -0.00000000000E+00 -0.27744617830E+04  0.27744617830E+04  0.50400000000E-02 0.  1.
     200001    2    1    2    0    0 -0.45863885598E+03  0.18869010596E+03 -0.47765244855E+03  0.98250391019E+03  0.70086269384E+03 0.  0.
    5000001    2    3    3    0    0 -0.22968998230E+03  0.11628152454E+03 -0.14660691838E+03  0.33655365477E+03  0.15967433452E+03 0.  0.
        -13    1    4    4    0    0 -0.23228806083E+03  0.11532992780E+03 -0.93852276607E+02  0.27580245909E+03  0.10566000000E+00 0. -1.
     200003    1    4    4    0    0  0.25980785286E+01  0.95159674121E+00 -0.52754641773E+02  0.60751195684E+02  0.30000000000E+02 0. -1.
     200000    1    3    3    0    0 -0.22894887368E+03  0.72408581417E+02 -0.33104553017E+03  0.64595025542E+03  0.50000000000E+03 0. -1.
    -200001    1    1    2    0    0  0.45863885598E+03 -0.18869010596E+03 -0.19543866047E+04  0.21343806026E+04  0.70000000000E+03 0.  1.
<mgrwt>
<rscale>  0 0.19493987E+04</rscale>
<asrwt>0</asrwt>
<pdfrwt beam="1">  1        1 0.39635167E+00 0.19493987E+04</pdfrwt>
<pdfrwt beam="2">  1       -1 0.48917534E-01 0.19493987E+04</pdfrwt>
<totfact> 0.46912262E+00</totfact>
</mgrwt>
</event>
<event>
 8    1  0.3214020E-028  0.2103686E+04  0.7818608E-02  0.8559621E-01
          1   -1    0    0  501    0  0.00000000000E+00  0.00000000000E+00  0.12648755221E+04  0.12648755222E+04  0.50400000000E-02 0.  1.
         -1   -1    0    0    0  501 -0.00000000000E+00 -0.00000000000E+00 -0.87468992111E+03  0.87468992113E+03  0.50400000000E-02 0. -1.
     200001    2    1    2    0    0 -0.99212689871E+02 -0.77797208972E+03  0.21674194518E+03  0.10741235481E+04  0.70119939791E+03 0.  0.
    5000001    2    3    3    0    0 -0.94947156625E+02 -0.17134909981E+03  0.77521450119E+02  0.27575521652E+03  0.17792101521E+03 0.  0.
        -13    1    4    4    0    0 -0.10187672386E+03 -0.15574646592E+03 -0.51382129269E+01  0.18617798180E+03  0.10566000000E+00 0. -1.
     200003    1    4    4    0    0  0.69295672330E+01 -0.15602633892E+02  0.82659663046E+02  0.89577234726E+02  0.30000000000E+02 0. -1.
     200000    1    3    3    0    0 -0.42655332456E+01 -0.60662298990E+03  0.13922049506E+03  0.79836833160E+03  0.50000000000E+03 0.  1.
    -200001    1    1    2    0    0  0.99212689871E+02  0.77797208972E+03  0.17344365585E+03  0.10654418952E+04  0.70000000000E+03 0. -1.
<mgrwt>
<rscale>  0 0.21036862E+04</rscale>
<asrwt>0</asrwt>
<pdfrwt beam="1">  1        1 0.18069650E+00 0.21036862E+04</pdfrwt>
<pdfrwt beam="2">  1       -1 0.12495570E+00 0.21036862E+04</pdfrwt>
<totfact> 0.57739709E+00</totfact>
</mgrwt>
</event>
<event>
 8    1  0.3214020E-028  0.1532988E+04  0.7818608E-02  0.8862808E-01
         -1   -1    0    0    0  501 -0.00000000000E+00  0.00000000000E+00  0.35350498680E+03  0.35350498683E+03  0.50400000000E-02 0. -1.
          1   -1    0    0  501    0  0.00000000000E+00 -0.00000000000E+00 -0.16619644995E+04  0.16619644995E+04  0.50400000000E-02 0.  1.
     200001    2    1    2    0    0  0.26864997957E+03  0.12278808449E+03 -0.77953418300E+03  0.10897202062E+04  0.70183107670E+03 0.  0.
    5000001    2    3    3    0    0  0.14301548899E+03  0.86328542272E+01 -0.19220739885E+03  0.29993023847E+03  0.18024013846E+03 0.  0.
        -13    1    4    4    0    0  0.77023463847E+02  0.17394805723E+01 -0.21108468008E+03  0.22470512478E+03  0.10566000000E+00 0. -1.
     200003    1    4    4    0    0  0.65992025141E+02  0.68933736549E+01  0.18877281228E+02  0.75225113686E+02  0.30000000000E+02 0. -1.
     200000    1    3    3    0    0  0.12563449059E+03  0.11415523026E+03 -0.58732678415E+03  0.78978996778E+03  0.50000000000E+03 0.  1.
    -200001    1    1    2    0    0 -0.26864997957E+03 -0.12278808449E+03 -0.52892532973E+03  0.92574928012E+03  0.70000000000E+03 0. -1.
<mgrwt>
<rscale>  0 0.15329876E+04</rscale>
<asrwt>0</asrwt>
<pdfrwt beam="1">  1        1 0.23742350E+00 0.15329876E+04</pdfrwt>
<pdfrwt beam="2">  1       -1 0.50500713E-01 0.15329876E+04</pdfrwt>
<totfact> 0.23241482E+01</totfact>
</mgrwt>
</event>
<event>
 8    1  0.3214020E-028  0.1895322E+04  0.7818608E-02  0.8657189E-01
          1   -1    0    0  501    0  0.00000000000E+00  0.00000000000E+00  0.93813636852E+03  0.93813636853E+03  0.50400000000E-02 0.  1.
         -1   -1    0    0    0  501 -0.00000000000E+00 -0.00000000000E+00 -0.95728184917E+03  0.95728184919E+03  0.50400000000E-02 0. -1.
     200001    2    1    2    0    0  0.91690740263E+02  0.21909622216E+03 -0.61019924965E+03  0.94897492609E+03  0.68687694652E+03 0.  0.
    5000001    2    3    3    0    0  0.49751449917E+02  0.35814642866E+02 -0.19081100027E+03  0.26983021022E+03  0.18066988988E+03 0.  0.
        -13    1    4    4    0    0  0.10256529672E+03 -0.74288469823E+01 -0.59444839458E+02  0.11877932464E+03  0.10566000000E+00 0. -1.
     200003    1    4    4    0    0 -0.52813846803E+02  0.43243489848E+02 -0.13136616081E+03  0.15105088558E+03  0.30000000000E+02 0. -1.
     200000    1    3    3    0    0  0.41939290346E+02  0.18328157929E+03 -0.41938824939E+03  0.67914471588E+03  0.50000000000E+03 0. -1.
    -200001    1    1    2    0    0 -0.91690740263E+02 -0.21909622216E+03  0.59105376899E+03  0.94644329162E+03  0.70000000000E+03 0.  1.
<mgrwt>
<rscale>  0 0.18953215E+04</rscale>
<asrwt>0</asrwt>
<pdfrwt beam="1">  1        1 0.13401948E+00 0.18953215E+04</pdfrwt>
<pdfrwt beam="2">  1       -1 0.13675455E+00 0.18953215E+04</pdfrwt>
<totfact> 0.80531713E+00</totfact>
</mgrwt>
</event>
<event>
 8    1  0.3214020E-028  0.2495851E+04  0.7818608E-02  0.8404465E-01
         -1   -1    0    0    0  501 -0.00000000000E+00  0.00000000000E+00  0.96918584050E+03  0.96918584051E+03  0.50400000000E-02 0. -1.
          1   -1    0    0  501    0  0.00000000000E+00 -0.00000000000E+00 -0.16068312925E+04  0.16068312925E+04  0.50400000000E-02 0.  1.
     200001    2    1    2    0    0  0.58833391514E+03 -0.76399677531E+03 -0.69818911479E+03  0.13829147051E+04  0.70367405316E+03 0.  0.
    5000001    2    3    3    0    0  0.27030091887E+03 -0.29444639925E+03 -0.23267655274E+03  0.49503831288E+03  0.17653125574E+03 0.  0.
        -13    1    4    4    0    0  0.40206803597E+02 -0.11771358249E+03 -0.40897549204E+01  0.12445807253E+03  0.10566000000E+00 0. -1.
     200003    1    4    4    0    0  0.23009411527E+03 -0.17673281675E+03 -0.22858679782E+03  0.37058024035E+03  0.30000000000E+02 0. -1.
     200000    1    3    3    0    0  0.31803299627E+03 -0.46955037607E+03 -0.46551256205E+03  0.88787639219E+03  0.50000000000E+03 0.  1.
    -200001    1    1    2    0    0 -0.58833391514E+03  0.76399677531E+03  0.60543662816E+02  0.11931024279E+04  0.70000000000E+03 0. -1.
<mgrwt>
<rscale>  0 0.24958511E+04</rscale>
<asrwt>0</asrwt>
<pdfrwt beam="1">  1        1 0.22954733E+00 0.24958511E+04</pdfrwt>
<pdfrwt beam="2">  1       -1 0.13845512E+00 0.24958511E+04</pdfrwt>
<totfact> 0.25564608E+00</totfact>
</mgrwt>
</event>
<event>
 8    1  0.3214020E-028  0.1595434E+04  0.7818608E-02  0.8823358E-01
          1   -1    0    0  501    0  0.00000000000E+00  0.00000000000E+00  0.22335931298E+04  0.22335931298E+04  0.50400000000E-02 0.  1.
         -1   -1    0    0    0  501 -0.00000000000E+00 -0.00000000000E+00 -0.28490091950E+03  0.28490091954E+03  0.50400000000E-02 0. -1.
     200001    2    1    2    0    0 -0.19224868606E+03  0.27030126617E+03  0.12653703548E+04  0.14855608037E+04  0.70406422641E+03 0.  0.
    5000001    2    3    3    0    0  0.57384001231E+02  0.45808504550E+02  0.84719431964E+02  0.16017403744E+03  0.11439841534E+03 0.  0.
        -13    1    4    4    0    0  0.85981969947E+02  0.31530676137E+02  0.50648741959E+02  0.10465366176E+03  0.10566000000E+00 0. -1.
     200003    1    4    4    0    0 -0.28597968716E+02  0.14277828412E+02  0.34070690004E+02  0.55520375685E+02  0.30000000000E+02 0. -1.
     200000    1    3    3    0    0 -0.24963268729E+03  0.22449276162E+03  0.11806509228E+04  0.13253867662E+04  0.50000000000E+03 0.  1.
    -200001    1    1    2    0    0  0.19224868606E+03 -0.27030126617E+03  0.68332185557E+03  0.10329332457E+04  0.70000000000E+03 0. -1.
<mgrwt>
<rscale>  0 0.15954344E+04</rscale>
<asrwt>0</asrwt>
<pdfrwt beam="1">  1        1 0.31908472E+00 0.15954344E+04</pdfrwt>
<pdfrwt beam="2">  1       -1 0.40700133E-01 0.15954344E+04</pdfrwt>
<totfact> 0.15065979E+01</totfact>
</mgrwt>
</event>
<event>
 8    1  0.3214020E-028  0.2025584E+04  0.7818608E-02  0.8594752E-01
         -1   -1    0    0    0  501 -0.00000000000E+00  0.00000000000E+00  0.55311050567E+03  0.55311050569E+03  0.50400000000E-02 0. -1.
          1   -1    0    0  501    0  0.00000000000E+00 -0.00000000000E+00 -0.18545072572E+04  0.18545072572E+04  0.50400000000E-02 0.  1.
     200001    2    1    2    0    0 -0.28605884025E+03  0.17941254891E+03  0.12182146011E+03  0.78602330043E+03  0.69926649990E+03 0.  0.
    5000001    2    3    3    0    0 -0.88235385640E+02  0.10137639401E+03 -0.19181220454E+02  0.22468069863E+03  0.17902748554E+03 0.  0.
        -13    1    4    4    0    0  0.49576799802E+02  0.50844568505E+02  0.10973956228E+02  0.71857275932E+02  0.10566000000E+00 0. -1.
     200003    1    4    4    0    0 -0.13781218544E+03  0.50531825505E+02 -0.30155176683E+02  0.15282342270E+03  0.30000000000E+02 0. -1.
     200000    1    3    3    0    0 -0.19782345461E+03  0.78036154902E+02  0.14100268056E+03  0.56134260180E+03  0.50000000000E+03 0. -1.
    -200001    1    1    2    0    0  0.28605884025E+03 -0.17941254891E+03 -0.14232182117E+04  0.16215944625E+04  0.70000000000E+03 0.  1.
<mgrwt>
<rscale>  0 0.20255838E+04</rscale>
<asrwt>0</asrwt>
<pdfrwt beam="1">  1        1 0.26492961E+00 0.20255838E+04</pdfrwt>
<pdfrwt beam="2">  1       -1 0.79015787E-01 0.20255838E+04</pdfrwt>
<totfact> 0.68516373E+00</totfact>
</mgrwt>
</event>
<event>
 8    1  0.3214020E-028  0.1462122E+04  0.7818608E-02  0.8910039E-01
         -1   -1    0    0    0  501 -0.00000000000E+00  0.00000000000E+00  0.84606044275E+03  0.84606044277E+03  0.50400000000E-02 0. -1.
          1   -1    0    0  501    0  0.00000000000E+00 -0.00000000000E+00 -0.63169277679E+03  0.63169277681E+03  0.50400000000E-02 0.  1.
     200001    2    1    2    0    0  0.86989377416E+02  0.16061494309E+03 -0.65898296803E+01  0.72132309947E+03  0.69778168236E+03 0.  0.
    5000001    2    3    3    0    0  0.27112054220E+02  0.10871811369E+03 -0.90631857475E+01  0.21507741581E+03  0.18336156011E+03 0.  0.
        -13    1    4    4    0    0 -0.84775456548E+01  0.95027366934E+01 -0.82292023997E+02  0.83271598776E+02  0.10566000000E+00 0. -1.
     200003    1    4    4    0    0  0.35589599875E+02  0.99215376996E+02  0.73228838250E+02  0.13180581703E+03  0.30000000000E+02 0. -1.
     200000    1    3    3    0    0  0.59877323196E+02  0.51896829404E+02  0.24733560672E+01  0.50624568366E+03  0.50000000000E+03 0.  1.
    -200001    1    1    2    0    0 -0.86989377416E+02 -0.16061494309E+03  0.22095749564E+03  0.75643012011E+03  0.70000000000E+03 0.  1.
<mgrwt>
<rscale>  0 0.14621221E+04</rscale>
<asrwt>0</asrwt>
<pdfrwt beam="1">  1        1 0.90241825E-01 0.14621221E+04</pdfrwt>
<pdfrwt beam="2">  1       -1 0.12086578E+00 0.14621221E+04</pdfrwt>
<totfact> 0.20940544E+01</totfact>
</mgrwt>
</event>
<event>
 8    1  0.3214020E-028  0.1716650E+04  0.7818608E-02  0.8751925E-01
          1   -1    0    0  501    0  0.00000000000E+00  0.00000000000E+00  0.15994070939E+04  0.15994070939E+04  0.50400000000E-02 0. -1.
         -1   -1    0    0    0  501 -0.00000000000E+00 -0.00000000000E+00 -0.46062199852E+03  0.46062199855E+03  0.50400000000E-02 0.  1.
     200001    2    1    2    0    0  0.13989178294E+03 -0.47039561987E+03  0.66009013154E+03  0.10802379828E+04  0.70025235996E+03 0.  0.
    5000001    2    3    3    0    0  0.28131599354E+02 -0.78339283383E+02  0.24343497825E+03  0.31225359080E+03  0.17695560496E+03 0.  0.
        -13    1    4    4    0    0  0.85875792490E+02 -0.93073028135E+02  0.13637721222E+03  0.18610748367E+03  0.10566000000E+00 0. -1.
     200003    1    4    4    0    0 -0.57744193136E+02  0.14733744753E+02  0.10705776604E+03  0.12614610713E+03  0.30000000000E+02 0. -1.
     200000    1    3    3    0    0  0.11176018359E+03 -0.39205633649E+03  0.41665515328E+03  0.76798439201E+03  0.50000000000E+03 0.  1.
    -200001    1    1    2    0    0 -0.13989178294E+03  0.47039561987E+03  0.47869496386E+03  0.97979110965E+03  0.70000000000E+03 0.  1.
<mgrwt>
<rscale>  0 0.17166503E+04</rscale>
<asrwt>0</asrwt>
<pdfrwt beam="1">  1        1 0.22848673E+00 0.17166503E+04</pdfrwt>
<pdfrwt beam="2">  1       -1 0.65803142E-01 0.17166503E+04</pdfrwt>
<totfact> 0.14943190E+01</totfact>
</mgrwt>
</event>
<event>
 8    1  0.3214020E-028  0.2108659E+04  0.7818608E-02  0.8557439E-01
          1   -1    0    0  501    0  0.00000000000E+00  0.00000000000E+00  0.17438787640E+04  0.17438787640E+04  0.50400000000E-02 0. -1.
         -1   -1    0    0    0  501 -0.00000000000E+00 -0.00000000000E+00 -0.63743551730E+03  0.63743551732E+03  0.50400000000E-02 0.  1.
     200001    2    1    2    0    0 -0.56000174143E+03  0.36192528325E+03  0.10273936109E+04  0.14113448458E+04  0.70125942474E+03 0.  0.
    5000001    2    3    3    0    0 -0.20610331638E+03  0.94188641927E+02  0.25485061495E+03  0.38970416284E+03  0.18860122295E+03 0.  0.
        -13    1    4    4    0    0 -0.20620761906E+03  0.61041335826E+02  0.11707300468E+03  0.24485450052E+03  0.10566000000E+00 0. -1.
     200003    1    4    4    0    0  0.10430267302E+00  0.33147306101E+02  0.13777761027E+03  0.14484966231E+03  0.30000000000E+02 0. -1.
     200000    1    3    3    0    0 -0.35389842505E+03  0.26773664133E+03  0.77254299598E+03  0.10216406829E+04  0.50000000000E+03 0. -1.
    -200001    1    1    2    0    0  0.56000174143E+03 -0.36192528325E+03  0.79049635792E+02  0.96996943559E+03  0.70000000000E+03 0.  1.
<mgrwt>
<rscale>  0 0.21086586E+04</rscale>
<asrwt>0</asrwt>
<pdfrwt beam="1">  1        1 0.24912554E+00 0.21086586E+04</pdfrwt>
<pdfrwt beam="2">  1       -1 0.91062216E-01 0.21086586E+04</pdfrwt>
<totfact> 0.58799963E+00</totfact>
</mgrwt>
</event>
<event>
 8    1  0.3214020E-028  0.1457431E+04  0.7818608E-02  0.8913265E-01
         -1   -1    0    0    0  501 -0.00000000000E+00  0.00000000000E+00  0.29997433736E+03  0.29997433741E+03  0.50400000000E-02 0.  1.
          1   -1    0    0  501    0  0.00000000000E+00 -0.00000000000E+00 -0.17702391096E+04  0.17702391096E+04  0.50400000000E-02 0. -1.
     200001    2    1    2    0    0 -0.11521394956E+02  0.16766821074E+03 -0.89341056402E+03  0.11477135018E+04  0.70058438094E+03 0.  0.
    5000001    2    3    3    0    0 -0.20657685392E+02  0.94851332826E+02 -0.85418640285E+02  0.19469895922E+03  0.14556038371E+03 0.  0.
        -13    1    4    4    0    0 -0.41794308810E+01  0.64645408445E+01 -0.98691618195E+02  0.98991436988E+02  0.10566000000E+00 0. -1.
     200003    1    4    4    0    0 -0.16478254511E+02  0.88386791981E+02  0.13272977910E+02  0.95707522228E+02  0.30000000000E+02 0. -1.
     200000    1    3    3    0    0  0.91362904361E+01  0.72816877913E+02 -0.80799192373E+03  0.95301454256E+03  0.50000000000E+03 0. -1.
    -200001    1    1    2    0    0  0.11521394956E+02 -0.16766821074E+03 -0.57685420823E+03  0.92249994525E+03  0.70000000000E+03 0.  1.
<mgrwt>
<rscale>  0 0.14574310E+04</rscale>
<asrwt>0</asrwt>
<pdfrwt beam="1">  1        1 0.25289130E+00 0.14574310E+04</pdfrwt>
<pdfrwt beam="2">  1       -1 0.42853478E-01 0.14574310E+04</pdfrwt>
<totfact> 0.27150018E+01</totfact>
</mgrwt>
</event>
<event>
 8    1  0.3214020E-028  0.1834471E+04  0.7818608E-02  0.8688180E-01
          1   -1    0    0  501    0  0.00000000000E+00  0.00000000000E+00  0.13080816230E+04  0.13080816230E+04  0.50400000000E-02 0.  1.
         -1   -1    0    0    0  501 -0.00000000000E+00 -0.00000000000E+00 -0.64317178181E+03  0.64317178183E+03  0.50400000000E-02 0. -1.
     200001    2    1    2    0    0 -0.56467358007E+03 -0.23284165802E+02  0.51625975761E+03  0.10393897902E+04  0.70314194456E+03 0.  0.
    5000001    2    3    3    0    0 -0.61123040303E+02  0.90179958993E+02  0.17720915298E+03  0.24478764683E+03  0.12903277522E+03 0.  0.
        -13    1    4    4    0    0 -0.54813330526E+02  0.10143067574E+03  0.75130471454E+02  0.13761279770E+03  0.10566000000E+00 0. -1.
     200003    1    4    4    0    0 -0.63097097763E+01 -0.11250716750E+02  0.10207868153E+03  0.10717484913E+03  0.30000000000E+02 0. -1.
     200000    1    3    3    0    0 -0.50355053977E+03 -0.11346412479E+03  0.33905060463E+03  0.79460214335E+03  0.50000000000E+03 0.  1.
    -200001    1    1    2    0    0  0.56467358007E+03  0.23284165802E+02  0.14865008360E+03  0.91186361467E+03  0.70000000000E+03 0. -1.
<mgrwt>
<rscale>  0 0.18344712E+04</rscale>
<asrwt>0</asrwt>
<pdfrwt beam="1">  1        1 0.18686880E+00 0.18344712E+04</pdfrwt>
<pdfrwt beam="2">  1       -1 0.91881683E-01 0.18344712E+04</pdfrwt>
<totfact> 0.11360391E+01</totfact>
</mgrwt>
</event>
<event>
 8    1  0.3214020E-028  0.1429013E+04  0.7818608E-02  0.8933081E-01
          1   -1    0    0  501    0  0.00000000000E+00  0.00000000000E+00  0.23916752678E+04  0.23916752678E+04  0.50400000000E-02 0.  1.
         -1   -1    0    0    0  501 -0.00000000000E+00 -0.00000000000E+00 -0.21345700120E+03  0.21345700126E+03  0.50400000000E-02 0. -1.
     200001    2    1    2    0    0  0.60444194213E+02 -0.12339254597E+03  0.10181762182E+04  0.12433038015E+04  0.70017305754E+03 0.  0.
    5000001    2    3    3    0    0  0.60745060485E+01  0.61347118844E+02  0.42059147495E+03  0.44068787087E+03  0.11622496338E+03 0.  0.
        -13    1    4    4    0    0  0.14355081536E+02 -0.27047536132E+02  0.51780518704E+02  0.60157051607E+02  0.10566000000E+00 0. -1.
     200003    1    4    4    0    0 -0.82805754872E+01  0.88394654976E+02  0.36881095625E+03  0.38053081926E+03  0.30000000000E+02 0. -1.
     200000    1    3    3    0    0  0.54369688165E+02 -0.18473966481E+03  0.59758474324E+03  0.80261593063E+03  0.50000000000E+03 0. -1.
    -200001    1    1    2    0    0 -0.60444194213E+02  0.12339254597E+03  0.11600420484E+04  0.13618284675E+04  0.70000000000E+03 0.  1.
<mgrwt>
<rscale>  0 0.14290134E+04</rscale>
<asrwt>0</asrwt>
<pdfrwt beam="1">  1        1 0.34166790E+00 0.14290134E+04</pdfrwt>
<pdfrwt beam="2">  1       -1 0.30493857E-01 0.14290134E+04</pdfrwt>
<totfact> 0.20389698E+01</totfact>
</mgrwt>
</event>
<event>
 8    1  0.3214020E-028  0.1713511E+04  0.7818608E-02  0.8753696E-01
         -1   -1    0    0    0  501 -0.00000000000E+00  0.00000000000E+00  0.21664073054E+03  0.21664073060E+03  0.50400000000E-02 0. -1.
          1   -1    0    0  501    0  0.00000000000E+00 -0.00000000000E+00 -0.33882344641E+04  0.33882344641E+04  0.50400000000E-02 0.  1.
     200001    2    1    2    0    0 -0.18705597178E+02 -0.43382882841E+03 -0.20782510459E+04  0.22359502207E+04  0.70127642771E+03 0.  0.
    5000001    2    3    3    0    0  0.50238158321E+01 -0.57341025163E+02 -0.63477989569E+03  0.66244613350E+03  0.18048859222E+03 0.  0.
        -13    1    4    4    0    0 -0.69592799884E+02  0.19371432336E+02 -0.17293442392E+03  0.18741594469E+03  0.10566000000E+00 0. -1.
     200003    1    4    4    0    0  0.74616615717E+02 -0.76712457500E+02 -0.46184547178E+03  0.47503018880E+03  0.30000000000E+02 0. -1.
     200000    1    3    3    0    0 -0.23729413010E+02 -0.37648780324E+03 -0.14434711502E+04  0.15735040872E+04  0.50000000000E+03 0.  1.
    -200001    1    1    2    0    0  0.18705597178E+02  0.43382882841E+03 -0.10933426876E+04  0.13689249740E+04  0.70000000000E+03 0. -1.
<mgrwt>
<rscale>  0 0.17135105E+04</rscale>
<asrwt>0</asrwt>
<pdfrwt beam="1">  1        1 0.48403346E+00 0.17135105E+04</pdfrwt>
<pdfrwt beam="2">  1       -1 0.30948678E-01 0.17135105E+04</pdfrwt>
<totfact> 0.43099626E+00</totfact>
</mgrwt>
</event>
<event>
 8    1  0.3214020E-028  0.2385281E+04  0.7818608E-02  0.8445035E-01
          1   -1    0    0  501    0  0.00000000000E+00  0.00000000000E+00  0.24568241398E+04  0.24568241398E+04  0.50400000000E-02 0. -1.
         -1   -1    0    0    0  501 -0.00000000000E+00 -0.00000000000E+00 -0.57895518121E+03  0.57895518123E+03  0.50400000000E-02 0.  1.
     200001    2    1    2    0    0 -0.40782255802E+03 -0.47166533531E+03  0.18772148236E+04  0.20983424671E+04  0.70022724014E+03 0.  0.
    5000001    2    3    3    0    0 -0.99124499938E+02 -0.20102103465E+03  0.44991943371E+03  0.53127036965E+03  0.17200461034E+03 0.  0.
        -13    1    4    4    0    0 -0.12733621574E+02 -0.16121472459E+02 -0.13109865769E+02  0.24370612162E+02  0.10566000000E+00 0. -1.
     200003    1    4    4    0    0 -0.86390878364E+02 -0.18489956219E+03  0.46302929948E+03  0.50689975748E+03  0.30000000000E+02 0. -1.
     200000    1    3    3    0    0 -0.30869805809E+03 -0.27064430067E+03  0.14272953899E+04  0.15670720974E+04  0.50000000000E+03 0. -1.
    -200001    1    1    2    0    0  0.40782255802E+03  0.47166533531E+03  0.65413504652E+00  0.93743685401E+03  0.70000000000E+03 0.  1.
<mgrwt>
<rscale>  0 0.23852808E+04</rscale>
<asrwt>0</asrwt>
<pdfrwt beam="1">  1        1 0.35097488E+00 0.23852808E+04</pdfrwt>
<pdfrwt beam="2">  1       -1 0.82707882E-01 0.23852808E+04</pdfrwt>
<totfact> 0.25099537E+00</totfact>
</mgrwt>
</event>
<event>
 8    1  0.3214020E-028  0.1602265E+04  0.7818608E-02  0.8819158E-01
         -1   -1    0    0    0  501 -0.00000000000E+00  0.00000000000E+00  0.74237473565E+03  0.74237473566E+03  0.50400000000E-02 0. -1.
          1   -1    0    0  501    0  0.00000000000E+00 -0.00000000000E+00 -0.86454048195E+03  0.86454048197E+03  0.50400000000E-02 0.  1.
     200001    2    1    2    0    0 -0.36115697108E+03  0.34839492477E+02 -0.20471863707E+03  0.81415855398E+03  0.69949716415E+03 0.  0.
    5000001    2    3    3    0    0 -0.15158776555E+03 -0.35279388030E+01 -0.81383605213E+02  0.25684101274E+03  0.19066388648E+03 0.  0.
        -13    1    4    4    0    0 -0.13056305320E+02 -0.40440781830E+02  0.46073331995E+02  0.62679239217E+02  0.10566000000E+00 0. -1.
     200003    1    4    4    0    0 -0.13853146023E+03  0.36912843027E+02 -0.12745693721E+03  0.19416177352E+03  0.30000000000E+02 0. -1.
     200000    1    3    3    0    0 -0.20956920553E+03  0.38367431280E+02 -0.12333503186E+03  0.55731754124E+03  0.50000000000E+03 0.  1.
    -200001    1    1    2    0    0  0.36115697108E+03 -0.34839492477E+02  0.82552890762E+02  0.79275666365E+03  0.70000000000E+03 0. -1.
<mgrwt>
<rscale>  0 0.16022647E+04</rscale>
<asrwt>0</asrwt>
<pdfrwt beam="1">  1        1 0.12350578E+00 0.16022647E+04</pdfrwt>
<pdfrwt beam="2">  1       -1 0.10605353E+00 0.16022647E+04</pdfrwt>
<totfact> 0.17601751E+01</totfact>
</mgrwt>
</event>
<event>
 8    1  0.3214020E-028  0.3088578E+04  0.7818608E-02  0.8218880E-01
         -1   -1    0    0    0  501 -0.00000000000E+00  0.00000000000E+00  0.11087486589E+04  0.11087486589E+04  0.50400000000E-02 0. -1.
          1   -1    0    0  501    0  0.00000000000E+00 -0.00000000000E+00 -0.21509193189E+04  0.21509193189E+04  0.50400000000E-02 0.  1.
     200001    2    1    2    0    0 -0.47767265155E+03  0.35093365250E+03 -0.18327447345E+04  0.20487456196E+04  0.69791099814E+03 0.  0.
    5000001    2    3    3    0    0 -0.15014872400E+03  0.55016051028E+02 -0.57741429743E+03  0.62723457275E+03  0.18559238449E+03 0.  0.
        -13    1    4    4    0    0  0.44661629583E+01 -0.51529441030E+02 -0.86560802828E+02  0.10083656904E+03  0.10566000000E+00 0. -1.
     200003    1    4    4    0    0 -0.15461488696E+03  0.10654549206E+03 -0.49085349460E+03  0.52639800371E+03  0.30000000000E+02 0. -1.
     200000    1    3    3    0    0 -0.32752392754E+03  0.29591760147E+03 -0.12553304371E+04  0.14215110468E+04  0.50000000000E+03 0.  1.
    -200001    1    1    2    0    0  0.47767265155E+03 -0.35093365250E+03  0.79057407450E+03  0.12109223583E+04  0.70000000000E+03 0. -1.
<mgrwt>
<rscale>  0 0.30885783E+04</rscale>
<asrwt>0</asrwt>
<pdfrwt beam="1">  1        1 0.30727419E+00 0.30885783E+04</pdfrwt>
<pdfrwt beam="2">  1       -1 0.15839267E+00 0.30885783E+04</pdfrwt>
<totfact> 0.76579645E-01</totfact>
</mgrwt>
</event>
<event>
 8    1  0.3214020E-028  0.1407710E+04  0.7818608E-02  0.8948257E-01
          1   -1    0    0  501    0  0.00000000000E+00  0.00000000000E+00  0.19036833934E+04  0.19036833934E+04  0.50400000000E-02 0.  1.
         -1   -1    0    0    0  501 -0.00000000000E+00 -0.00000000000E+00 -0.26023856781E+03  0.26023856786E+03  0.50400000000E-02 0. -1.
     200001    2    1    2    0    0 -0.41873996169E+01  0.51216302472E+02  0.73768594332E+03  0.10180424751E+04  0.69970657149E+03 0.  0.
    5000001    2    3    3    0    0 -0.14508054115E+02  0.12743539853E+03  0.72383031691E+02  0.18225312919E+03  0.10736216927E+03 0.  0.
        -13    1    4    4    0    0 -0.49868192980E+02  0.83520133679E+02  0.67091249765E+02  0.11816808520E+03  0.10566000000E+00 0. -1.
     200003    1    4    4    0    0  0.35360138866E+02  0.43915264854E+02  0.52917819257E+01  0.64085043994E+02  0.30000000000E+02 0. -1.
     200000    1    3    3    0    0  0.10320654498E+02 -0.76219096062E+02  0.66530291163E+03  0.83578934591E+03  0.50000000000E+03 0.  1.
    -200001    1    1    2    0    0  0.41873996169E+01 -0.51216302472E+02  0.90575888222E+03  0.11458794861E+04  0.70000000000E+03 0.  1.
<mgrwt>
<rscale>  0 0.14077100E+04</rscale>
<asrwt>0</asrwt>
<pdfrwt beam="1">  1        1 0.27195478E+00 0.14077100E+04</pdfrwt>
<pdfrwt beam="2">  1       -1 0.37176937E-01 0.14077100E+04</pdfrwt>
<totfact> 0.29101563E+01</totfact>
</mgrwt>
</event>
<event>
 8    1  0.3214020E-028  0.1728804E+04  0.7818608E-02  0.8745105E-01
          1   -1    0    0  501    0  0.00000000000E+00  0.00000000000E+00  0.22633231996E+04  0.22633231996E+04  0.50400000000E-02 0.  1.
         -1   -1    0    0    0  501 -0.00000000000E+00 -0.00000000000E+00 -0.33012982726E+03  0.33012982730E+03  0.50400000000E-02 0. -1.
     200001    2    1    2    0    0  0.88534668977E+02 -0.36830071989E+03  0.14715310126E+04  0.16733356745E+04  0.70083161347E+03 0.  0.
    5000001    2    3    3    0    0  0.80519326990E+00 -0.25333062343E+03  0.39535576089E+03  0.47789945432E+03  0.88908141748E+02 0.  0.
        -13    1    4    4    0    0 -0.32499065592E+02 -0.16633148673E+03  0.22901453032E+03  0.28490352578E+03  0.10566000000E+00 0. -1.
     200003    1    4    4    0    0  0.33304258862E+02 -0.86999136696E+02  0.16634123057E+03  0.19299592854E+03  0.30000000000E+02 0. -1.
     200000    1    3    3    0    0  0.87729475707E+02 -0.11497009646E+03  0.10761752517E+04  0.11954362201E+04  0.50000000000E+03 0.  1.
    -200001    1    1    2    0    0 -0.88534668977E+02  0.36830071989E+03  0.46166235971E+03  0.92011735243E+03  0.70000000000E+03 0.  1.
<mgrwt>
<rscale>  0 0.17288036E+04</rscale>
<asrwt>0</asrwt>
<pdfrwt beam="1">  1        1 0.32333188E+00 0.17288036E+04</pdfrwt>
<pdfrwt beam="2">  1       -1 0.47161404E-01 0.17288036E+04</pdfrwt>
<totfact> 0.10850326E+01</totfact>
</mgrwt>
</event>
<event>
 8    1  0.3214020E-028  0.1850529E+04  0.7818608E-02  0.8679881E-01
          1   -1    0    0  501    0  0.00000000000E+00  0.00000000000E+00  0.20751223299E+04  0.20751223299E+04  0.50400000000E-02 0.  1.
         -1   -1    0    0    0  501 -0.00000000000E+00 -0.00000000000E+00 -0.41256087727E+03  0.41256087730E+03  0.50400000000E-02 0. -1.
     200001    2    1    2    0    0 -0.51728623692E+03 -0.14565684570E+03  0.45595026533E+03  0.99278805203E+03  0.69923994751E+03 0.  0.
    5000001    2    3    3    0    0 -0.92209348431E+02  0.46076970428E+02  0.52814904881E+02  0.19908134536E+03  0.16192071131E+03 0.  0.
        -13    1    4    4    0    0  0.20496712833E+01  0.79736793641E+02 -0.45298313190E+01  0.79891726407E+02  0.10566000000E+00 0. -1.
     200003    1    4    4    0    0 -0.94259019714E+02 -0.33659823213E+02  0.57344736200E+02  0.11918961895E+03  0.30000000000E+02 0. -1.
     200000    1    3    3    0    0 -0.42507688849E+03 -0.19173381613E+03  0.40313536045E+03  0.79370670668E+03  0.50000000000E+03 0.  1.
    -200001    1    1    2    0    0  0.51728623692E+03  0.14565684570E+03  0.12066111873E+04  0.14948951552E+04  0.70000000000E+03 0.  1.
<mgrwt>
<rscale>  0 0.18505289E+04</rscale>
<asrwt>0</asrwt>
<pdfrwt beam="1">  1        1 0.29644605E+00 0.18505289E+04</pdfrwt>
<pdfrwt beam="2">  1       -1 0.58937267E-01 0.18505289E+04</pdfrwt>
<totfact> 0.91865535E+00</totfact>
</mgrwt>
</event>
<event>
 8    1  0.3214020E-028  0.2050144E+04  0.7818608E-02  0.8583529E-01
          1   -1    0    0  501    0  0.00000000000E+00  0.00000000000E+00  0.20753222477E+04  0.20753222477E+04  0.50400000000E-02 0. -1.
         -1   -1    0    0    0  501 -0.00000000000E+00 -0.00000000000E+00 -0.50631778367E+03  0.50631778369E+03  0.50400000000E-02 0.  1.
     200001    2    1    2    0    0 -0.50948761387E+03  0.52026700269E+03  0.56093421484E+03  0.11545937777E+04  0.69870180723E+03 0.  0.
    5000001    2    3    3    0    0 -0.22026258563E+03  0.16470415200E+03  0.27328941917E+03  0.41783358186E+03  0.15573930519E+03 0.  0.
        -13    1    4    4    0    0 -0.28475294877E+02  0.73955700680E+02  0.12383232053E+02  0.80209997392E+02  0.10566000000E+00 0. -1.
     200003    1    4    4    0    0 -0.19178729075E+03  0.90748451323E+02  0.26090618712E+03  0.33762358447E+03  0.30000000000E+02 0. -1.
     200000    1    3    3    0    0 -0.28922502825E+03  0.35556285069E+03  0.28764479567E+03  0.73676019588E+03  0.50000000000E+03 0.  1.
    -200001    1    1    2    0    0  0.50948761387E+03 -0.52026700269E+03  0.10080702492E+04  0.14270462536E+04  0.70000000000E+03 0.  1.
<mgrwt>
<rscale>  0 0.20501440E+04</rscale>
<asrwt>0</asrwt>
<pdfrwt beam="1">  1        1 0.29647460E+00 0.20501440E+04</pdfrwt>
<pdfrwt beam="2">  1       -1 0.72331112E-01 0.20501440E+04</pdfrwt>
<totfact> 0.59708278E+00</totfact>
</mgrwt>
</event>
<event>
 8    1  0.3214020E-028  0.1566609E+04  0.7818608E-02  0.8841328E-01
          1   -1    0    0  501    0  0.00000000000E+00  0.00000000000E+00  0.15316071277E+04  0.15316071277E+04  0.50400000000E-02 0.  1.
         -1   -1    0    0    0  501 -0.00000000000E+00 -0.00000000000E+00 -0.40060252304E+03  0.40060252307E+03  0.50400000000E-02 0. -1.
     200001    2    1    2    0    0  0.33692427864E+03 -0.11247962808E+02  0.68495373566E+03  0.10363269219E+04  0.70083334879E+03 0.  0.
    5000001    2    3    3    0    0  0.10219717953E+03 -0.68316322083E+02  0.23563775770E+03  0.32201714541E+03  0.18181998162E+03 0.  0.
        -13    1    4    4    0    0  0.53336238526E+02  0.56080917015E+02  0.11981593986E+03  0.14263833357E+03  0.10566000000E+00 0. -1.
     200003    1    4    4    0    0  0.48860941005E+02 -0.12439723910E+03  0.11582181784E+03  0.17937881184E+03  0.30000000000E+02 0. -1.
     200000    1    3    3    0    0  0.23472709911E+03  0.57068359275E+02  0.44931597795E+03  0.71430977645E+03  0.50000000000E+03 0.  1.
    -200001    1    1    2    0    0 -0.33692427864E+03  0.11247962808E+02  0.44605086899E+03  0.89588272890E+03  0.70000000000E+03 0.  1.
<mgrwt>
<rscale>  0 0.15666087E+04</rscale>
<asrwt>0</asrwt>
<pdfrwt beam="1">  1        1 0.21880102E+00 0.15666087E+04</pdfrwt>
<pdfrwt beam="2">  1       -1 0.57228931E-01 0.15666087E+04</pdfrwt>
<totfact> 0.22096329E+01</totfact>
</mgrwt>
</event>
<event>
 8    1  0.3214020E-028  0.1978736E+04  0.7818608E-02  0.8616627E-01
          1   -1    0    0  501    0  0.00000000000E+00  0.00000000000E+00  0.67752803512E+03  0.67752803514E+03  0.50400000000E-02 0.  1.
         -1   -1    0    0    0  501 -0.00000000000E+00 -0.00000000000E+00 -0.14447365323E+04  0.14447365323E+04  0.50400000000E-02 0. -1.
     200001    2    1    2    0    0  0.49890318301E+03 -0.46610392876E+03 -0.54198542552E+03  0.11188291234E+04  0.70133668621E+03 0.  0.
    5000001    2    3    3    0    0  0.14047397546E+03 -0.12880063196E+03 -0.16849162872E+03  0.32400673624E+03  0.20066986720E+03 0.  0.
        -13    1    4    4    0    0 -0.39146092259E+02  0.26508226635E+01 -0.66782066900E+02  0.77455142007E+02  0.10566000000E+00 0. -1.
     200003    1    4    4    0    0  0.17962006772E+03 -0.13145145462E+03 -0.10170956182E+03  0.24655159423E+03  0.30000000000E+02 0. -1.
     200000    1    3    3    0    0  0.35842920755E+03 -0.33730329680E+03 -0.37349379680E+03  0.79482238715E+03  0.50000000000E+03 0.  1.
    -200001    1    1    2    0    0 -0.49890318301E+03  0.46610392876E+03 -0.22522307167E+03  0.10034354441E+04  0.70000000000E+03 0. -1.
<mgrwt>
<rscale>  0 0.19787365E+04</rscale>
<asrwt>0</asrwt>
<pdfrwt beam="1">  1        1 0.96789720E-01 0.19787365E+04</pdfrwt>
<pdfrwt beam="2">  1       -1 0.20639093E+00 0.19787365E+04</pdfrwt>
<totfact> 0.40569649E+00</totfact>
</mgrwt>
</event>
<event>
 8    1  0.3214020E-028  0.2169012E+04  0.7818608E-02  0.8531438E-01
         -1   -1    0    0    0  501 -0.00000000000E+00  0.00000000000E+00  0.43218201659E+03  0.43218201662E+03  0.50400000000E-02 0. -1.
          1   -1    0    0  501    0  0.00000000000E+00 -0.00000000000E+00 -0.27214292771E+04  0.27214292771E+04  0.50400000000E-02 0.  1.
     200001    2    1    2    0    0 -0.45987474659E+03 -0.72768210698E+01 -0.14363018197E+03  0.85030706231E+03  0.70061025997E+03 0.  0.
    5000001    2    3    3    0    0  0.61407413515E+01 -0.24954429874E+02 -0.88964441243E+02  0.16439797499E+03  0.13583663019E+03 0.  0.
        -13    1    4    4    0    0  0.53031920924E+02 -0.36299566163E+02 -0.69657980800E+01  0.64641910920E+02  0.10566000000E+00 0. -1.
     200003    1    4    4    0    0 -0.46891179572E+02  0.11345136289E+02 -0.81998643163E+02  0.99756064074E+02  0.30000000000E+02 0. -1.
     200000    1    3    3    0    0 -0.46601548794E+03  0.17677608804E+02 -0.54665740723E+02  0.68590908732E+03  0.50000000000E+03 0. -1.
    -200001    1    1    2    0    0  0.45987474659E+03  0.72768210698E+01 -0.21456170786E+04  0.23033042314E+04  0.70000000000E+03 0.  1.
<mgrwt>
<rscale>  0 0.21690116E+04</rscale>
<asrwt>0</asrwt>
<pdfrwt beam="1">  1        1 0.38877560E+00 0.21690116E+04</pdfrwt>
<pdfrwt beam="2">  1       -1 0.61740290E-01 0.21690116E+04</pdfrwt>
<totfact> 0.31686639E+00</totfact>
</mgrwt>
</event>
<event>
 8    1  0.3214020E-028  0.1607980E+04  0.7818608E-02  0.8815660E-01
         -1   -1    0    0    0  501 -0.00000000000E+00  0.00000000000E+00  0.63339816364E+03  0.63339816366E+03  0.50400000000E-02 0. -1.
          1   -1    0    0  501    0  0.00000000000E+00 -0.00000000000E+00 -0.10205275404E+04  0.10205275404E+04  0.50400000000E-02 0.  1.
     200001    2    1    2    0    0  0.74749418589E+02  0.31851834332E+03 -0.42860416595E+03  0.88012885166E+03  0.69561760605E+03 0.  0.
    5000001    2    3    3    0    0  0.46663919150E+02  0.16522711908E+03 -0.15764042198E+03  0.29046085587E+03  0.17331902355E+03 0.  0.
        -13    1    4    4    0    0  0.26456324659E+02  0.70181136282E+02  0.26960965590E+02  0.79700902341E+02  0.10566000000E+00 0. -1.
     200003    1    4    4    0    0  0.20207594491E+02  0.95045982796E+02 -0.18460138757E+03  0.21075995353E+03  0.30000000000E+02 0. -1.
     200000    1    3    3    0    0  0.28085499438E+02  0.15329122424E+03 -0.27096374397E+03  0.58966799579E+03  0.50000000000E+03 0.  1.
    -200001    1    1    2    0    0 -0.74749418589E+02 -0.31851834332E+03  0.41474789219E+02  0.77379685238E+03  0.70000000000E+03 0. -1.
<mgrwt>
<rscale>  0 0.16079804E+04</rscale>
<asrwt>0</asrwt>
<pdfrwt beam="1">  1        1 0.14578965E+00 0.16079804E+04</pdfrwt>
<pdfrwt beam="2">  1       -1 0.90485452E-01 0.16079804E+04</pdfrwt>
<totfact> 0.19115917E+01</totfact>
</mgrwt>
</event>
<event>
 8    1  0.3214020E-028  0.1887140E+04  0.7818608E-02  0.8661284E-01
          1   -1    0    0  501    0  0.00000000000E+00  0.00000000000E+00  0.11056523925E+04  0.11056523925E+04  0.50400000000E-02 0.  1.
         -1   -1    0    0    0  501 -0.00000000000E+00 -0.00000000000E+00 -0.80524824861E+03  0.80524824863E+03  0.50400000000E-02 0. -1.
     200001    2    1    2    0    0  0.47161245484E+03 -0.23468080800E+03  0.50362119341E+03  0.10115728041E+04  0.70153534643E+03 0.  0.
    5000001    2    3    3    0    0  0.16871490820E+03  0.44807697286E+02  0.16248007506E+03  0.27929006430E+03  0.14536407822E+03 0.  0.
        -13    1    4    4    0    0  0.69740258879E+01 -0.41003619509E+02  0.27887977187E+02  0.50076783898E+02  0.10566000000E+00 0. -1.
     200003    1    4    4    0    0  0.16174088231E+03  0.85811316795E+02  0.13459209787E+03  0.22921328040E+03  0.30000000000E+02 0. -1.
     200000    1    3    3    0    0  0.30289754664E+03 -0.27948850529E+03  0.34114111835E+03  0.73228273978E+03  0.50000000000E+03 0. -1.
    -200001    1    1    2    0    0 -0.47161245484E+03  0.23468080800E+03 -0.20321704956E+03  0.89932783702E+03  0.70000000000E+03 0.  1.
<mgrwt>
<rscale>  0 0.18871403E+04</rscale>
<asrwt>0</asrwt>
<pdfrwt beam="1">  1        1 0.15795034E+00 0.18871403E+04</pdfrwt>
<pdfrwt beam="2">  1       -1 0.11503546E+00 0.18871403E+04</pdfrwt>
<totfact> 0.93065031E+00</totfact>
</mgrwt>
</event>
<event>
 8    1  0.3214020E-028  0.1451649E+04  0.7818608E-02  0.8917258E-01
          1   -1    0    0  501    0  0.00000000000E+00  0.00000000000E+00  0.89720698084E+03  0.89720698085E+03  0.50400000000E-02 0.  1.
         -1   -1    0    0    0  501 -0.00000000000E+00 -0.00000000000E+00 -0.58717926924E+03  0.58717926926E+03  0.50400000000E-02 0. -1.
     200001    2    1    2    0    0 -0.16518745099E+03  0.23208142413E+02  0.25234896921E+03  0.76247742681E+03  0.69990450227E+03 0.  0.
    5000001    2    3    3    0    0 -0.99100096538E+02  0.10981067009E+03  0.32646414820E+01  0.19334603729E+03  0.12447015647E+03 0.  0.
        -13    1    4    4    0    0 -0.20853063209E+02  0.10721153112E+03  0.67813295432E+01  0.10943107532E+03  0.10566000000E+00 0. -1.
     200003    1    4    4    0    0 -0.78247033329E+02  0.25991389688E+01 -0.35166880612E+01  0.83914961974E+02  0.30000000000E+02 0. -1.
     200000    1    3    3    0    0 -0.66087354448E+02 -0.86602527678E+02  0.24908432772E+03  0.56913138952E+03  0.50000000000E+03 0. -1.
    -200001    1    1    2    0    0  0.16518745099E+03 -0.23208142413E+02  0.57678742393E+02  0.72190882330E+03  0.70000000000E+03 0. -1.
<mgrwt>
<rscale>  0 0.14516492E+04</rscale>
<asrwt>0</asrwt>
<pdfrwt beam="1">  1        1 0.12817242E+00 0.14516492E+04</pdfrwt>
<pdfrwt beam="2">  1       -1 0.83882754E-01 0.14516492E+04</pdfrwt>
<totfact> 0.28398109E+01</totfact>
</mgrwt>
</event>
<event>
 8    1  0.3214020E-028  0.1823474E+04  0.7818608E-02  0.8693915E-01
          1   -1    0    0  501    0  0.00000000000E+00  0.00000000000E+00  0.47447663093E+03  0.47447663096E+03  0.50400000000E-02 0.  1.
         -1   -1    0    0    0  501 -0.00000000000E+00 -0.00000000000E+00 -0.17519605560E+04  0.17519605561E+04  0.50400000000E-02 0. -1.
     200001    2    1    2    0    0  0.46436819652E-01 -0.33232588856E+03 -0.51647387109E+02  0.77622488660E+03  0.69958353584E+03 0.  0.
    5000001    2    3    3    0    0  0.10065717768E+02 -0.49394891784E+02  0.73740358216E+02  0.18811569469E+03  0.16555573125E+03 0.  0.
        -13    1    4    4    0    0 -0.31524322571E+02  0.88242369999E+01 -0.39214623626E+02  0.51082755822E+02  0.10566000000E+00 0. -1.
     200003    1    4    4    0    0  0.41590040339E+02 -0.58219128784E+02  0.11295498184E+03  0.13703293887E+03  0.30000000000E+02 0. -1.
     200000    1    3    3    0    0 -0.10019280948E+02 -0.28293099678E+03 -0.12538774533E+03  0.58810919191E+03  0.50000000000E+03 0. -1.
    -200001    1    1    2    0    0 -0.46436819652E-01  0.33232588856E+03 -0.12258365380E+04  0.14502123004E+04  0.70000000000E+03 0. -1.
<mgrwt>
<rscale>  0 0.18234740E+04</rscale>
<asrwt>0</asrwt>
<pdfrwt beam="1">  1        1 0.67782377E-01 0.18234740E+04</pdfrwt>
<pdfrwt beam="2">  1       -1 0.25028008E+00 0.18234740E+04</pdfrwt>
<totfact> 0.34562109E+00</totfact>
</mgrwt>
</event>
<event>
 8    1  0.3214020E-028  0.2012996E+04  0.7818608E-02  0.8600568E-01
         -1   -1    0    0    0  501 -0.00000000000E+00  0.00000000000E+00  0.20140352883E+04  0.20140352883E+04  0.50400000000E-02 0. -1.
          1   -1    0    0  501    0  0.00000000000E+00 -0.00000000000E+00 -0.50298954809E+03  0.50298954812E+03  0.50400000000E-02 0.  1.
     200001    2    1    2    0    0  0.38350329152E+03 -0.15232149228E+03  0.13187246069E+02  0.81295421580E+03  0.70031710097E+03 0.  0.
    5000001    2    3    3    0    0  0.18108704735E+03  0.66419790259E+01  0.43615620032E+02  0.24977786060E+03  0.16628295983E+03 0.  0.
        -13    1    4    4    0    0  0.20184150059E+03  0.25611207560E+02  0.26257138719E+02  0.20514720035E+03  0.10566000000E+00 0. -1.
     200003    1    4    4    0    0 -0.20754453240E+02 -0.18969228534E+02  0.17358481313E+02  0.44630660246E+02  0.30000000000E+02 0. -1.
     200000    1    3    3    0    0  0.20241624417E+03 -0.15896347131E+03 -0.30428373963E+02  0.56317635520E+03  0.50000000000E+03 0.  1.
    -200001    1    1    2    0    0 -0.38350329152E+03  0.15232149228E+03  0.14978584941E+04  0.17040706206E+04  0.70000000000E+03 0.  1.
<mgrwt>
<rscale>  0 0.20129965E+04</rscale>
<asrwt>0</asrwt>
<pdfrwt beam="1">  1        1 0.71855648E-01 0.20129965E+04</pdfrwt>
<pdfrwt beam="2">  1       -1 0.28771933E+00 0.20129965E+04</pdfrwt>
<totfact> 0.17966214E+00</totfact>
</mgrwt>
</event>
<event>
 8    1  0.3214020E-028  0.1487444E+04  0.7818608E-02  0.8892846E-01
          1   -1    0    0  501    0  0.00000000000E+00  0.00000000000E+00  0.84733559496E+03  0.84733559498E+03  0.50400000000E-02 0.  1.
         -1   -1    0    0    0  501 -0.00000000000E+00 -0.00000000000E+00 -0.65277847777E+03  0.65277847779E+03  0.50400000000E-02 0. -1.
     200001    2    1    2    0    0  0.76759329654E+02 -0.17034116910E+03 -0.72387176966E+02  0.72799532233E+03  0.69987797320E+03 0.  0.
    5000001    2    3    3    0    0  0.39999130593E+02 -0.14223854720E+03 -0.63872094801E+02  0.22578662446E+03  0.15832946831E+03 0.  0.
        -13    1    4    4    0    0 -0.34331426372E+02  0.53667314287E+01  0.17772318427E+02  0.39029669602E+02  0.10566000000E+00 0. -1.
     200003    1    4    4    0    0  0.74330556964E+02 -0.14760527863E+03 -0.81644413228E+02  0.18675695486E+03  0.30000000000E+02 0. -1.
     200000    1    3    3    0    0  0.36760199061E+02 -0.28102621899E+02 -0.85150821646E+01  0.50220869787E+03  0.50000000000E+03 0. -1.
    -200001    1    1    2    0    0 -0.76759329654E+02  0.17034116910E+03  0.26694429416E+03  0.77211875043E+03  0.70000000000E+03 0.  1.
<mgrwt>
<rscale>  0 0.14874440E+04</rscale>
<asrwt>0</asrwt>
<pdfrwt beam="1">  1        1 0.12104794E+00 0.14874440E+04</pdfrwt>
<pdfrwt beam="2">  1       -1 0.93254069E-01 0.14874440E+04</pdfrwt>
<totfact> 0.24614505E+01</totfact>
</mgrwt>
</event>
<event>
 8    1  0.3214020E-028  0.1514129E+04  0.7818608E-02  0.8875111E-01
         -1   -1    0    0    0  501 -0.00000000000E+00  0.00000000000E+00  0.28774380531E+03  0.28774380536E+03  0.50400000000E-02 0. -1.
          1   -1    0    0  501    0  0.00000000000E+00 -0.00000000000E+00 -0.19918638815E+04  0.19918638815E+04  0.50400000000E-02 0.  1.
     200001    2    1    2    0    0 -0.20383934922E+03 -0.13708139700E+00 -0.11575129630E+04  0.13683833263E+04  0.70077540559E+03 0.  0.
    5000001    2    3    3    0    0 -0.22500532587E+02 -0.37321333415E+02 -0.41789668250E+02  0.13181351206E+03  0.11717196634E+03 0.  0.
        -13    1    4    4    0    0 -0.41474563783E+01 -0.47178970378E+02  0.26572433291E+02  0.54306187635E+02  0.10566000000E+00 0. -1.
     200003    1    4    4    0    0 -0.18353076208E+02  0.98576369637E+01 -0.68362101541E+02  0.77507324428E+02  0.30000000000E+02 0. -1.
     200000    1    3    3    0    0 -0.18133881664E+03  0.37184252018E+02 -0.11157232948E+04  0.12365698142E+04  0.50000000000E+03 0.  1.
    -200001    1    1    2    0    0  0.20383934922E+03  0.13708139700E+00 -0.54660711315E+03  0.91122436053E+03  0.70000000000E+03 0. -1.
<mgrwt>
<rscale>  0 0.15141288E+04</rscale>
<asrwt>0</asrwt>
<pdfrwt beam="1">  1        1 0.28455198E+00 0.15141288E+04</pdfrwt>
<pdfrwt beam="2">  1       -1 0.41106259E-01 0.15141288E+04</pdfrwt>
<totfact> 0.21139036E+01</totfact>
</mgrwt>
</event>
<event>
 8    1  0.3214020E-028  0.1608343E+04  0.7818608E-02  0.8815439E-01
          1   -1    0    0  501    0  0.00000000000E+00  0.00000000000E+00  0.82210625048E+03  0.82210625049E+03  0.50400000000E-02 0.  1.
         -1   -1    0    0    0  501 -0.00000000000E+00 -0.00000000000E+00 -0.78662781540E+03  0.78662781541E+03  0.50400000000E-02 0. -1.
     200001    2    1    2    0    0  0.15844187805E+03 -0.69332961222E+02 -0.32952295975E+03  0.80056520579E+03  0.70880771687E+03 0.  0.
    5000001    2    3    3    0    0  0.65463511100E+00  0.33229417576E+02 -0.17497117516E+03  0.24441584663E+03  0.16739047525E+03 0.  0.
        -13    1    4    4    0    0 -0.12125663849E+02  0.82755288030E+02 -0.31851697069E+02  0.89498665861E+02  0.10566000000E+00 0. -1.
     200003    1    4    4    0    0  0.12780298960E+02 -0.49525870454E+02 -0.14311947810E+03  0.15491718077E+03  0.30000000000E+02 0. -1.
     200000    1    3    3    0    0  0.15778724294E+03 -0.10256237880E+03 -0.15455178458E+03  0.55614935916E+03  0.50000000000E+03 0. -1.
    -200001    1    1    2    0    0 -0.15844187805E+03  0.69332961222E+02  0.36500139483E+03  0.80816886011E+03  0.70000000000E+03 0.  1.
<mgrwt>
<rscale>  0 0.16083428E+04</rscale>
<asrwt>0</asrwt>
<pdfrwt beam="1">  1        1 0.11744375E+00 0.16083428E+04</pdfrwt>
<pdfrwt beam="2">  1       -1 0.11237540E+00 0.16083428E+04</pdfrwt>
<totfact> 0.16625574E+01</totfact>
</mgrwt>
</event>
<event>
 8    1  0.3214020E-028  0.1642947E+04  0.7818608E-02  0.8794590E-01
          1   -1    0    0  501    0  0.00000000000E+00  0.00000000000E+00  0.86084111987E+03  0.86084111989E+03  0.50400000000E-02 0. -1.
         -1   -1    0    0    0  501 -0.00000000000E+00 -0.00000000000E+00 -0.78390627397E+03  0.78390627399E+03  0.50400000000E-02 0.  1.
     200001    2    1    2    0    0  0.16742321513E+03 -0.47239583516E+02  0.43243853693E+03  0.84060500254E+03  0.69953668299E+03 0.  0.
    5000001    2    3    3    0    0  0.55633977483E+02 -0.36552737922E+02  0.14061777760E+03  0.25088439250E+03  0.19682067199E+03 0.  0.
        -13    1    4    4    0    0  0.88921933685E+02  0.64889031920E+01 -0.82803656442E+01  0.89542122904E+02  0.10566000000E+00 0. -1.
     200003    1    4    4    0    0 -0.33287956201E+02 -0.43041641114E+02  0.14889814324E+03  0.16134226960E+03  0.30000000000E+02 0. -1.
     200000    1    3    3    0    0  0.11178923764E+03 -0.10686845594E+02  0.29182075934E+03  0.58972061004E+03  0.50000000000E+03 0. -1.
    -200001    1    1    2    0    0 -0.16742321513E+03  0.47239583516E+02 -0.35550369103E+03  0.80414239134E+03  0.70000000000E+03 0.  1.
<mgrwt>
<rscale>  0 0.16429471E+04</rscale>
<asrwt>0</asrwt>
<pdfrwt beam="1">  1        1 0.12297730E+00 0.16429471E+04</pdfrwt>
<pdfrwt beam="2">  1       -1 0.11198661E+00 0.16429471E+04</pdfrwt>
<totfact> 0.15536160E+01</totfact>
</mgrwt>
</event>
<event>
 8    1  0.3214020E-028  0.1429467E+04  0.7818608E-02  0.8932761E-01
          1   -1    0    0  501    0  0.00000000000E+00  0.00000000000E+00  0.12612215479E+04  0.12612215479E+04  0.50400000000E-02 0.  1.
         -1   -1    0    0    0  501 -0.00000000000E+00 -0.00000000000E+00 -0.40503890543E+03  0.40503890546E+03  0.50400000000E-02 0. -1.
     200001    2    1    2    0    0  0.13537654097E+03 -0.41729405259E+02  0.46456694421E+03  0.85174771179E+03  0.69970248519E+03 0.  0.
    5000001    2    3    3    0    0  0.75725558936E+02 -0.42320391956E+02  0.23769300528E+03  0.29945216311E+03  0.16015073332E+03 0.  0.
        -13    1    4    4    0    0  0.99228768421E+02 -0.78468788981E+02  0.14114714000E+03  0.18954214735E+03  0.10566000000E+00 0. -1.
     200003    1    4    4    0    0 -0.23503209485E+02  0.36148397025E+02  0.96545865274E+02  0.10991001576E+03  0.30000000000E+02 0. -1.
     200000    1    3    3    0    0  0.59650982034E+02  0.59098669695E+00  0.22687393893E+03  0.55229554868E+03  0.50000000000E+03 0. -1.
    -200001    1    1    2    0    0 -0.13537654097E+03  0.41729405259E+02  0.39161569830E+03  0.81451274162E+03  0.70000000000E+03 0. -1.
<mgrwt>
<rscale>  0 0.14294667E+04</rscale>
<asrwt>0</asrwt>
<pdfrwt beam="1">  1        1 0.18017451E+00 0.14294667E+04</pdfrwt>
<pdfrwt beam="2">  1       -1 0.57862701E-01 0.14294667E+04</pdfrwt>
<totfact> 0.33085790E+01</totfact>
</mgrwt>
</event>
<event>
 8    1  0.3214020E-028  0.1948371E+04  0.7818608E-02  0.8631147E-01
          1   -1    0    0  501    0  0.00000000000E+00  0.00000000000E+00  0.46168377309E+03  0.46168377311E+03  0.50400000000E-02 0.  1.
         -1   -1    0    0    0  501 -0.00000000000E+00 -0.00000000000E+00 -0.20556006574E+04  0.20556006574E+04  0.50400000000E-02 0. -1.
     200001    2    1    2    0    0 -0.63188233248E+01 -0.56138491510E+02  0.74954503454E+02  0.70667040023E+03  0.70040946540E+03 0.  0.
    5000001    2    3    3    0    0 -0.32970598563E+02 -0.75194717896E+02  0.41252288800E+02  0.20446596361E+03  0.18265616052E+03 0.  0.
        -13    1    4    4    0    0  0.10247689694E+00 -0.78697354896E+02  0.10210087581E+03  0.12891037264E+03  0.10566000000E+00 0. -1.
     200003    1    4    4    0    0 -0.33073075460E+02  0.35026370001E+01 -0.60848587010E+02  0.75555590974E+02  0.30000000000E+02 0. -1.
     200000    1    3    3    0    0  0.26651775238E+02  0.19056226386E+02  0.33702214654E+02  0.50220443662E+03  0.50000000000E+03 0.  1.
    -200001    1    1    2    0    0  0.63188233248E+01  0.56138491510E+02 -0.16688713878E+04  0.18106140303E+04  0.70000000000E+03 0. -1.
<mgrwt>
<rscale>  0 0.19483711E+04</rscale>
<asrwt>0</asrwt>
<pdfrwt beam="1">  1        1 0.65954826E-01 0.19483711E+04</pdfrwt>
<pdfrwt beam="2">  1       -1 0.29365723E+00 0.19483711E+04</pdfrwt>
<totfact> 0.18569749E+00</totfact>
</mgrwt>
</event>
<event>
 8    1  0.3214020E-028  0.1605291E+04  0.7818608E-02  0.8817304E-01
         -1   -1    0    0    0  501 -0.00000000000E+00  0.00000000000E+00  0.20226043949E+04  0.20226043949E+04  0.50400000000E-02 0. -1.
          1   -1    0    0  501    0  0.00000000000E+00 -0.00000000000E+00 -0.31851986356E+03  0.31851986360E+03  0.50400000000E-02 0.  1.
     200001    2    1    2    0    0 -0.20672316964E+03  0.18215822397E+03  0.12601333255E+04  0.14676205318E+04  0.70004138441E+03 0.  0.
    5000001    2    3    3    0    0  0.42868995728E+02 -0.12207709127E+02  0.29243534444E+03  0.33337463803E+03  0.15373171322E+03 0.  0.
        -13    1    4    4    0    0  0.90681843125E+02 -0.93129369067E+01  0.11264501092E+03  0.14490975507E+03  0.10566000000E+00 0. -1.
     200003    1    4    4    0    0 -0.47812847397E+02 -0.28947722204E+01  0.17979033352E+03  0.18846488296E+03  0.30000000000E+02 0. -1.
     200000    1    3    3    0    0 -0.24959216537E+03  0.19436593310E+03  0.96769798104E+03  0.11342458937E+04  0.50000000000E+03 0. -1.
    -200001    1    1    2    0    0  0.20672316964E+03 -0.18215822397E+03  0.44395120585E+03  0.87350372672E+03  0.70000000000E+03 0.  1.
<mgrwt>
<rscale>  0 0.16052908E+04</rscale>
<asrwt>0</asrwt>
<pdfrwt beam="1">  1        1 0.45502838E-01 0.16052908E+04</pdfrwt>
<pdfrwt beam="2">  1       -1 0.28894348E+00 0.16052908E+04</pdfrwt>
<totfact> 0.33484017E+00</totfact>
</mgrwt>
</event>
<event>
 8    1  0.3214020E-028  0.1412693E+04  0.7818608E-02  0.8944682E-01
         -1   -1    0    0    0  501 -0.00000000000E+00  0.00000000000E+00  0.14928683054E+03  0.14928683062E+03  0.50400000000E-02 0. -1.
          1   -1    0    0  501    0  0.00000000000E+00 -0.00000000000E+00 -0.33420574955E+04  0.33420574955E+04  0.50400000000E-02 0.  1.
     200001    2    1    2    0    0  0.32628750918E+02  0.72345164876E+02 -0.15229516096E+04  0.16789993988E+04  0.70239512914E+03 0.  0.
    5000001    2    3    3    0    0 -0.99522485457E+02 -0.53100997092E+02 -0.31205387338E+03  0.35632256123E+03  0.12986033555E+03 0.  0.
        -13    1    4    4    0    0 -0.44179783576E+02 -0.13358409866E+02 -0.26334051796E+03  0.26735470812E+03  0.10566000000E+00 0. -1.
     200003    1    4    4    0    0 -0.55342701881E+02 -0.39742587226E+02 -0.48713355414E+02  0.88967853108E+02  0.30000000000E+02 0. -1.
     200000    1    3    3    0    0  0.13215123637E+03  0.12544616197E+03 -0.12108977363E+04  0.13226768375E+04  0.50000000000E+03 0.  1.
    -200001    1    1    2    0    0 -0.32628750918E+02 -0.72345164876E+02 -0.16698190553E+04  0.18123449273E+04  0.70000000000E+03 0.  1.
<mgrwt>
<rscale>  0 0.14126927E+04</rscale>
<asrwt>0</asrwt>
<pdfrwt beam="1">  1        1 0.47743674E+00 0.14126927E+04</pdfrwt>
<pdfrwt beam="2">  1       -1 0.21326692E-01 0.14126927E+04</pdfrwt>
<totfact> 0.90637772E+00</totfact>
</mgrwt>
</event>
<event>
 8    1  0.3214020E-028  0.2030399E+04  0.7818608E-02  0.8592539E-01
         -1   -1    0    0    0  501 -0.00000000000E+00  0.00000000000E+00  0.11078360329E+04  0.11078360329E+04  0.50400000000E-02 0. -1.
          1   -1    0    0  501    0  0.00000000000E+00 -0.00000000000E+00 -0.93030924354E+03  0.93030924355E+03  0.50400000000E-02 0.  1.
     200001    2    1    2    0    0  0.45394124650E+03  0.14439995323E+03  0.65106952412E+03  0.10680129539E+04  0.69989009328E+03 0.  0.
    5000001    2    3    3    0    0  0.22032009554E+03  0.12809863730E+03  0.24436325373E+03  0.38226185804E+03  0.14649410556E+03 0.  0.
        -13    1    4    4    0    0  0.16606409235E+03  0.23987096726E+02  0.10658201802E+03  0.19877726557E+03  0.10566000000E+00 0. -1.
     200003    1    4    4    0    0  0.54256003199E+02  0.10411154058E+03  0.13778123571E+03  0.18348459248E+03  0.30000000000E+02 0. -1.
     200000    1    3    3    0    0  0.23362115096E+03  0.16301315928E+02  0.40670627039E+03  0.68575109584E+03  0.50000000000E+03 0. -1.
    -200001    1    1    2    0    0 -0.45394124650E+03 -0.14439995323E+03 -0.47354273472E+03  0.97013232261E+03  0.70000000000E+03 0.  1.
<mgrwt>
<rscale>  0 0.20303991E+04</rscale>
<asrwt>0</asrwt>
<pdfrwt beam="1">  1        1 0.13290132E+00 0.20303991E+04</pdfrwt>
<pdfrwt beam="2">  1       -1 0.15826229E+00 0.20303991E+04</pdfrwt>
<totfact> 0.54603680E+00</totfact>
</mgrwt>
</event>
<event>
 8    1  0.3214020E-028  0.1921452E+04  0.7818608E-02  0.8644251E-01
         -1   -1    0    0    0  501 -0.00000000000E+00  0.00000000000E+00  0.70747605537E+03  0.70747605539E+03  0.50400000000E-02 0. -1.
          1   -1    0    0  501    0  0.00000000000E+00 -0.00000000000E+00 -0.13046304172E+04  0.13046304172E+04  0.50400000000E-02 0.  1.
     200001    2    1    2    0    0  0.16398395596E+02  0.57118014894E+03  0.43635111643E+02  0.90434890921E+03  0.69959077802E+03 0.  0.
    5000001    2    3    3    0    0 -0.66754523444E+02  0.16468444720E+03 -0.72781858068E+02  0.24426855477E+03  0.15097282681E+03 0.  0.
        -13    1    4    4    0    0 -0.10144258496E+03  0.76445940778E+02 -0.11693409504E+02  0.12755911138E+03  0.10566000000E+00 0. -1.
     200003    1    4    4    0    0  0.34688061521E+02  0.88238506422E+02 -0.61088448565E+02  0.11670944339E+03  0.30000000000E+02 0. -1.
     200000    1    3    3    0    0  0.83152919040E+02  0.40649570174E+03  0.11641696971E+03  0.66008035444E+03  0.50000000000E+03 0. -1.
    -200001    1    1    2    0    0 -0.16398395596E+02 -0.57118014894E+03 -0.64078947345E+03  0.11077575634E+04  0.70000000000E+03 0.  1.
<mgrwt>
<rscale>  0 0.19214523E+04</rscale>
<asrwt>0</asrwt>
<pdfrwt beam="1">  1        1 0.18637577E+00 0.19214523E+04</pdfrwt>
<pdfrwt beam="2">  1       -1 0.10106801E+00 0.19214523E+04</pdfrwt>
<totfact> 0.91435300E+00</totfact>
</mgrwt>
</event>
<event>
 8    1  0.3214020E-028  0.1416836E+04  0.7818608E-02  0.8941721E-01
          1   -1    0    0  501    0  0.00000000000E+00  0.00000000000E+00  0.82189650333E+03  0.82189650335E+03  0.50400000000E-02 0. -1.
         -1   -1    0    0    0  501 -0.00000000000E+00 -0.00000000000E+00 -0.61060711334E+03  0.61060711336E+03  0.50400000000E-02 0.  1.
     200001    2    1    2    0    0  0.83270689198E+02 -0.51633051608E+02  0.15740778222E+03  0.72362901048E+03  0.69947248353E+03 0.  0.
    5000001    2    3    3    0    0 -0.97914012450E+02  0.34062991535E+02  0.88132689140E+02  0.18051691667E+03  0.11862354355E+03 0.  0.
        -13    1    4    4    0    0 -0.11693811638E+03  0.29767363674E+02  0.58713614275E+02  0.13419358654E+03  0.10566000000E+00 0. -1.
     200003    1    4    4    0    0  0.19024103929E+02  0.42956278608E+01  0.29419074865E+02  0.46323330136E+02  0.30000000000E+02 0. -1.
     200000    1    3    3    0    0  0.18118470165E+03 -0.85696043144E+02  0.69275093083E+02  0.54311209381E+03  0.50000000000E+03 0. -1.
    -200001    1    1    2    0    0 -0.83270689198E+02  0.51633051608E+02  0.53881607762E+02  0.70887460623E+03  0.70000000000E+03 0.  1.
<mgrwt>
<rscale>  0 0.14168357E+04</rscale>
<asrwt>0</asrwt>
<pdfrwt beam="1">  1        1 0.11741379E+00 0.14168357E+04</pdfrwt>
<pdfrwt beam="2">  1       -1 0.87229588E-01 0.14168357E+04</pdfrwt>
<totfact> 0.30106653E+01</totfact>
</mgrwt>
</event>
<event>
 8    1  0.3214020E-028  0.1547284E+04  0.7818608E-02  0.8853604E-01
          1   -1    0    0  501    0  0.00000000000E+00  0.00000000000E+00  0.89148329743E+03  0.89148329745E+03  0.50400000000E-02 0.  1.
         -1   -1    0    0    0  501 -0.00000000000E+00 -0.00000000000E+00 -0.67137754621E+03  0.67137754622E+03  0.50400000000E-02 0. -1.
     200001    2    1    2    0    0  0.95840426221E+02  0.96353092972E+02  0.41384428881E+03  0.82394005849E+03  0.69938602987E+03 0.  0.
    5000001    2    3    3    0    0 -0.19868306078E+02  0.38135665558E+02  0.19216707377E+02  0.17393336036E+03  0.16743492297E+03 0.  0.
        -13    1    4    4    0    0 -0.44098344846E+02  0.13798699640E-01  0.80694746219E+02  0.91958237477E+02  0.10566000000E+00 0. -1.
     200003    1    4    4    0    0  0.24230038769E+02  0.38121866858E+02 -0.61478038842E+02  0.81975122881E+02  0.30000000000E+02 0. -1.
     200000    1    3    3    0    0  0.11570873230E+03  0.58217427414E+02  0.39462758144E+03  0.65000669813E+03  0.50000000000E+03 0.  1.
    -200001    1    1    2    0    0 -0.95840426221E+02 -0.96353092972E+02 -0.19373853759E+03  0.73892078518E+03  0.70000000000E+03 0. -1.
<mgrwt>
<rscale>  0 0.15472839E+04</rscale>
<asrwt>0</asrwt>
<pdfrwt beam="1">  1        1 0.12735476E+00 0.15472839E+04</pdfrwt>
<pdfrwt beam="2">  1       -1 0.95911079E-01 0.15472839E+04</pdfrwt>
<totfact> 0.21190899E+01</totfact>
</mgrwt>
</event>
<event>
 8    1  0.3214020E-028  0.1503507E+04  0.7818608E-02  0.8882124E-01
          1   -1    0    0  501    0  0.00000000000E+00  0.00000000000E+00  0.37503071301E+03  0.37503071304E+03  0.50400000000E-02 0. -1.
         -1   -1    0    0    0  501 -0.00000000000E+00 -0.00000000000E+00 -0.15068985131E+04  0.15068985131E+04  0.50400000000E-02 0.  1.
     200001    2    1    2    0    0 -0.42776868777E+02 -0.26876264412E+03 -0.56617298277E+03  0.94167721434E+03  0.70152755486E+03 0.  0.
    5000001    2    3    3    0    0  0.43006284063E+02 -0.10250945877E+03 -0.12824374224E+03  0.25118399160E+03  0.18517346085E+03 0.  0.
        -13    1    4    4    0    0  0.10672960500E+03 -0.26200243401E+02 -0.47883644747E+02  0.11987708679E+03  0.10566000000E+00 0. -1.
     200003    1    4    4    0    0 -0.63723320939E+02 -0.76309215373E+02 -0.80360097491E+02  0.13130690481E+03  0.30000000000E+02 0. -1.
     200000    1    3    3    0    0 -0.85783152841E+02 -0.16625318534E+03 -0.43792924053E+03  0.69049322275E+03  0.50000000000E+03 0.  1.
    -200001    1    1    2    0    0  0.42776868777E+02  0.26876264412E+03 -0.56569481735E+03  0.94025201183E+03  0.70000000000E+03 0. -1.
<mgrwt>
<rscale>  0 0.15035069E+04</rscale>
<asrwt>0</asrwt>
<pdfrwt beam="1">  1        1 0.53575817E-01 0.15035069E+04</pdfrwt>
<pdfrwt beam="2">  1       -1 0.21527121E+00 0.15035069E+04</pdfrwt>
<totfact> 0.82714058E+00</totfact>
</mgrwt>
</event>
<event>
 8    1  0.3214020E-028  0.1593768E+04  0.7818608E-02  0.8824385E-01
          1   -1    0    0  501    0  0.00000000000E+00  0.00000000000E+00  0.35134588035E+04  0.35134588035E+04  0.50400000000E-02 0. -1.
         -1   -1    0    0    0  501 -0.00000000000E+00 -0.00000000000E+00 -0.18074054366E+03  0.18074054373E+03  0.50400000000E-02 0.  1.
     200001    2    1    2    0    0  0.32290231709E+03 -0.14587699212E+03  0.13448974846E+04  0.15571505790E+04  0.70030184809E+03 0.  0.
    5000001    2    3    3    0    0  0.67167632999E+02 -0.28043194666E+02  0.47628079858E+03  0.51610303942E+03  0.18498928757E+03 0.  0.
        -13    1    4    4    0    0  0.11709888826E+03 -0.39821663787E+02  0.40410024639E+03  0.42260493943E+03  0.10566000000E+00 0. -1.
     200003    1    4    4    0    0 -0.49931255261E+02  0.11778469121E+02  0.72180552193E+02  0.93498099990E+02  0.30000000000E+02 0. -1.
     200000    1    3    3    0    0  0.25573468410E+03 -0.11783379746E+03  0.86861668605E+03  0.10410475396E+04  0.50000000000E+03 0.  1.
    -200001    1    1    2    0    0 -0.32290231709E+03  0.14587699212E+03  0.19878207752E+04  0.21370487681E+04  0.70000000000E+03 0.  1.
<mgrwt>
<rscale>  0 0.15937684E+04</rscale>
<asrwt>0</asrwt>
<pdfrwt beam="1">  1        1 0.50192265E+00 0.15937684E+04</pdfrwt>
<pdfrwt beam="2">  1       -1 0.25820080E-01 0.15937684E+04</pdfrwt>
<totfact> 0.48934909E+00</totfact>
</mgrwt>
</event>
<event>
 8    1  0.3214020E-028  0.1981133E+04  0.7818608E-02  0.8615493E-01
          1   -1    0    0  501    0  0.00000000000E+00  0.00000000000E+00  0.13102890212E+04  0.13102890212E+04  0.50400000000E-02 0.  1.
         -1   -1    0    0    0  501 -0.00000000000E+00 -0.00000000000E+00 -0.74885927157E+03  0.74885927158E+03  0.50400000000E-02 0. -1.
     200001    2    1    2    0    0 -0.30361340538E+03 -0.88720094459E+02  0.93062322636E+03  0.12068829713E+04  0.70032461172E+03 0.  0.
    5000001    2    3    3    0    0 -0.10567246690E+03 -0.28402928564E+02  0.27878989299E+03  0.35970797745E+03  0.19923008809E+03 0.  0.
        -13    1    4    4    0    0  0.14594242727E+02 -0.69699118076E+02  0.18682473237E+03  0.19993611673E+03  0.10566000000E+00 0. -1.
     200003    1    4    4    0    0 -0.12026670963E+03  0.41296189512E+02  0.91965160612E+02  0.15977186073E+03  0.30000000000E+02 0. -1.
     200000    1    3    3    0    0 -0.19794093848E+03 -0.60317165895E+02  0.65183333337E+03  0.84717499380E+03  0.50000000000E+03 0.  1.
    -200001    1    1    2    0    0  0.30361340538E+03  0.88720094459E+02 -0.36919347670E+03  0.85226532156E+03  0.70000000000E+03 0. -1.
<mgrwt>
<rscale>  0 0.19811331E+04</rscale>
<asrwt>0</asrwt>
<pdfrwt beam="1">  1        1 0.18718415E+00 0.19811331E+04</pdfrwt>
<pdfrwt beam="2">  1       -1 0.10697990E+00 0.19811331E+04</pdfrwt>
<totfact> 0.79023586E+00</totfact>
</mgrwt>
</event>
<event>
 8    1  0.3214020E-028  0.1683254E+04  0.7818608E-02  0.8770973E-01
         -1   -1    0    0    0  501 -0.00000000000E+00  0.00000000000E+00  0.93536107443E+03  0.93536107444E+03  0.50400000000E-02 0. -1.
          1   -1    0    0  501    0  0.00000000000E+00 -0.00000000000E+00 -0.75728623748E+03  0.75728623750E+03  0.50400000000E-02 0.  1.
     200001    2    1    2    0    0  0.75548511475E+02  0.81852325266E+01 -0.37745817879E+03  0.79576855358E+03  0.69641822098E+03 0.  0.
    5000001    2    3    3    0    0  0.75181410807E+02 -0.23146115283E+02 -0.59981423509E+02  0.20266377510E+03  0.17688088474E+03 0.  0.
        -13    1    4    4    0    0  0.47359430097E+02 -0.20479206490E+02  0.58077566878E+02  0.77687376427E+02  0.10566000000E+00 0. -1.
     200003    1    4    4    0    0  0.27821980710E+02 -0.26669087928E+01 -0.11805899039E+03  0.12497639867E+03  0.30000000000E+02 0. -1.
     200000    1    3    3    0    0  0.36710066868E+00  0.31331347810E+02 -0.31747675528E+03  0.59310477848E+03  0.50000000000E+03 0.  1.
    -200001    1    1    2    0    0 -0.75548511475E+02 -0.81852325266E+01  0.55553301573E+03  0.89687875836E+03  0.70000000000E+03 0. -1.
<mgrwt>
<rscale>  0 0.16832541E+04</rscale>
<asrwt>0</asrwt>
<pdfrwt beam="1">  1        1 0.10818375E+00 0.16832541E+04</pdfrwt>
<pdfrwt beam="2">  1       -1 0.13362301E+00 0.16832541E+04</pdfrwt>
<totfact> 0.12235444E+01</totfact>
</mgrwt>
</event>
<event>
 8    1  0.3214020E-028  0.1808055E+04  0.7818608E-02  0.8702028E-01
         -1   -1    0    0    0  501 -0.00000000000E+00  0.00000000000E+00  0.11855133407E+04  0.11855133407E+04  0.50400000000E-02 0. -1.
          1   -1    0    0  501    0  0.00000000000E+00 -0.00000000000E+00 -0.68937705624E+03  0.68937705626E+03  0.50400000000E-02 0.  1.
     200001    2    1    2    0    0 -0.46309666196E+03 -0.33419941129E+03  0.22257325231E+03  0.93097064539E+03  0.70072799652E+03 0.  0.
    5000001    2    3    3    0    0 -0.18773533792E+03 -0.84871407775E+02  0.13431879030E+03  0.30186241767E+03  0.17501905272E+03 0.  0.
        -13    1    4    4    0    0 -0.16874268148E+03 -0.28919971563E+01  0.43103711352E+02  0.17418495141E+03  0.10566000000E+00 0. -1.
     200003    1    4    4    0    0 -0.18992656433E+02 -0.81979410618E+02  0.91215078949E+02  0.12767746626E+03  0.30000000000E+02 0. -1.
     200000    1    3    3    0    0 -0.27536132405E+03 -0.24932800352E+03  0.88254462007E+02  0.62910822772E+03  0.50000000000E+03 0.  1.
    -200001    1    1    2    0    0  0.46309666196E+03  0.33419941129E+03  0.27356303213E+03  0.94391975156E+03  0.70000000000E+03 0.  1.
<mgrwt>
<rscale>  0 0.18080550E+04</rscale>
<asrwt>0</asrwt>
<pdfrwt beam="1">  1        1 0.98482436E-01 0.18080550E+04</pdfrwt>
<pdfrwt beam="2">  1       -1 0.16935905E+00 0.18080550E+04</pdfrwt>
<totfact> 0.73342689E+00</totfact>
</mgrwt>
</event>
<event>
 8    1  0.3214020E-028  0.2284151E+04  0.7818608E-02  0.8484197E-01
          1   -1    0    0  501    0  0.00000000000E+00  0.00000000000E+00  0.16799131215E+04  0.16799131215E+04  0.50400000000E-02 0.  1.
         -1   -1    0    0    0  501 -0.00000000000E+00 -0.00000000000E+00 -0.77643058739E+03  0.77643058741E+03  0.50400000000E-02 0. -1.
     200001    2    1    2    0    0  0.41515058948E+03 -0.78433433208E+03  0.62730047629E+03  0.12928116356E+04  0.70023259083E+03 0.  0.
    5000001    2    3    3    0    0  0.18256196477E+03 -0.21311346176E+03  0.12775597604E+03  0.35476288490E+03  0.17546765093E+03 0.  0.
        -13    1    4    4    0    0  0.11300271512E+03 -0.21346036006E+03  0.13823586145E+03  0.27828780695E+03  0.10566000000E+00 0. -1.
     200003    1    4    4    0    0  0.69559249643E+02  0.34689830383E+00 -0.10479885402E+02  0.76475077949E+02  0.30000000000E+02 0. -1.
     200000    1    3    3    0    0  0.23258862471E+03 -0.57122087032E+03  0.49954450025E+03  0.93804875074E+03  0.50000000000E+03 0.  1.
    -200001    1    1    2    0    0 -0.41515058948E+03  0.78433433208E+03  0.27618205777E+03  0.11635320732E+04  0.70000000000E+03 0.  1.
<mgrwt>
<rscale>  0 0.22841505E+04</rscale>
<asrwt>0</asrwt>
<pdfrwt beam="1">  1        1 0.23998759E+00 0.22841505E+04</pdfrwt>
<pdfrwt beam="2">  1       -1 0.11091865E+00 0.22841505E+04</pdfrwt>
<totfact> 0.40485253E+00</totfact>
</mgrwt>
</event>
<event>
 8    1  0.3214020E-028  0.1446668E+04  0.7818608E-02  0.8920713E-01
          1   -1    0    0  501    0  0.00000000000E+00  0.00000000000E+00  0.32349980637E+04  0.32349980637E+04  0.50400000000E-02 0. -1.
         -1   -1    0    0    0  501 -0.00000000000E+00 -0.00000000000E+00 -0.16173498450E+03  0.16173498458E+03  0.50400000000E-02 0.  1.
     200001    2    1    2    0    0  0.13727421536E+03 -0.36451879107E+02  0.12714471332E+04  0.14585086926E+04  0.70035479878E+03 0.  0.
    5000001    2    3    3    0    0 -0.13408574390E+02  0.41707257309E+01  0.50530509892E+03  0.53043050848E+03  0.16070499840E+03 0.  0.
        -13    1    4    4    0    0 -0.15983293121E+02 -0.55390327282E+01  0.49757528529E+03  0.49786275442E+03  0.10566000000E+00 0. -1.
     200003    1    4    4    0    0  0.25747187307E+01  0.97097584591E+01  0.77298136325E+01  0.32567754062E+02  0.30000000000E+02 0. -1.
     200000    1    3    3    0    0  0.15068278975E+03 -0.40622604838E+02  0.76614203427E+03  0.92807818411E+03  0.50000000000E+03 0. -1.
    -200001    1    1    2    0    0 -0.13727421536E+03  0.36451879107E+02  0.18018159460E+04  0.19382243557E+04  0.70000000000E+03 0. -1.
<mgrwt>
<rscale>  0 0.14466684E+04</rscale>
<asrwt>0</asrwt>
<pdfrwt beam="1">  1        1 0.46214256E+00 0.14466684E+04</pdfrwt>
<pdfrwt beam="2">  1       -1 0.23104999E-01 0.14466684E+04</pdfrwt>
<totfact> 0.93229259E+00</totfact>
</mgrwt>
</event>
<event>
 8    1  0.3214020E-028  0.1534862E+04  0.7818608E-02  0.8861595E-01
          1   -1    0    0  501    0  0.00000000000E+00  0.00000000000E+00  0.18963701215E+03  0.18963701221E+03  0.50400000000E-02 0.  1.
         -1   -1    0    0    0  501 -0.00000000000E+00 -0.00000000000E+00 -0.31056731184E+04  0.31056731184E+04  0.50400000000E-02 0. -1.
     200001    2    1    2    0    0  0.69232152726E+02  0.10937606266E+03 -0.85104855389E+03  0.11110643099E+04  0.70244148904E+03 0.  0.
    5000001    2    3    3    0    0  0.60750805519E+02  0.11063374970E+03 -0.29611206411E+03  0.36405157723E+03  0.17006089919E+03 0.  0.
        -13    1    4    4    0    0  0.41398878735E+02  0.12897560484E+02  0.66862172595E+01  0.43874034373E+02  0.10566000000E+00 0. -1.
     200003    1    4    4    0    0  0.19351926784E+02  0.97736189212E+02 -0.30279828137E+03  0.32017754286E+03  0.30000000000E+02 0. -1.
     200000    1    3    3    0    0  0.84813472078E+01 -0.12576870396E+01 -0.55493648978E+03  0.74701273263E+03  0.50000000000E+03 0.  1.
    -200001    1    1    2    0    0 -0.69232152726E+02 -0.10937606266E+03 -0.20649875524E+04  0.21842458208E+04  0.70000000000E+03 0. -1.
<mgrwt>
<rscale>  0 0.15348623E+04</rscale>
<asrwt>0</asrwt>
<pdfrwt beam="1">  1        1 0.27091004E-01 0.15348623E+04</pdfrwt>
<pdfrwt beam="2">  1       -1 0.44366756E+00 0.15348623E+04</pdfrwt>
<totfact> 0.61133670E-01</totfact>
</mgrwt>
</event>
<event>
 8    1  0.3214020E-028  0.1841747E+04  0.7818608E-02  0.8684409E-01
          1   -1    0    0  501    0  0.00000000000E+00  0.00000000000E+00  0.14865743827E+04  0.14865743827E+04  0.50400000000E-02 0.  1.
         -1   -1    0    0    0  501 -0.00000000000E+00 -0.00000000000E+00 -0.57044450906E+03  0.57044450909E+03  0.50400000000E-02 0. -1.
     200001    2    1    2    0    0 -0.18571178799E+03  0.53471732518E+03  0.67714021461E+03  0.11256073054E+04  0.69861394902E+03 0.  0.
    5000001    2    3    3    0    0 -0.19704391659E+02  0.17371730256E+02  0.14975573821E+03  0.21822684159E+03  0.15654434899E+03 0.  0.
        -13    1    4    4    0    0 -0.34670428990E+02 -0.15887348899E+02  0.16441443935E+03  0.16877963602E+03  0.10566000000E+00 0. -1.
     200003    1    4    4    0    0  0.14966037331E+02  0.33259079155E+02 -0.14658701143E+02  0.49447205571E+02  0.30000000000E+02 0. -1.
     200000    1    3    3    0    0 -0.16600739633E+03  0.51734559493E+03  0.52738447640E+03  0.90738046385E+03  0.50000000000E+03 0.  1.
    -200001    1    1    2    0    0  0.18571178799E+03 -0.53471732518E+03  0.23898965900E+03  0.93141158633E+03  0.70000000000E+03 0. -1.
<mgrwt>
<rscale>  0 0.18417472E+04</rscale>
<asrwt>0</asrwt>
<pdfrwt beam="1">  1        1 0.21236777E+00 0.18417472E+04</pdfrwt>
<pdfrwt beam="2">  1       -1 0.81492072E-01 0.18417472E+04</pdfrwt>
<totfact> 0.11222045E+01</totfact>
</mgrwt>
</event>
<event>
 8    1  0.3214020E-028  0.1685021E+04  0.7818608E-02  0.8769954E-01
          1   -1    0    0  501    0  0.00000000000E+00  0.00000000000E+00  0.69164464037E+03  0.69164464039E+03  0.50400000000E-02 0.  1.
         -1   -1    0    0    0  501 -0.00000000000E+00 -0.00000000000E+00 -0.10262839798E+04  0.10262839798E+04  0.50400000000E-02 0. -1.
     200001    2    1    2    0    0  0.11283054681E+03 -0.45699185913E+02  0.29201648987E+03  0.77055505278E+03  0.70261106675E+03 0.  0.
    5000001    2    3    3    0    0  0.38031845747E+02 -0.88514191445E+02  0.38572268082E+02  0.20340256540E+03  0.17493884751E+03 0.  0.
        -13    1    4    4    0    0 -0.55641068480E+02 -0.29105304490E+02  0.59612321342E+02  0.86583412216E+02  0.10566000000E+00 0. -1.
     200003    1    4    4    0    0  0.93672914228E+02 -0.59408886954E+02 -0.21040053260E+02  0.11681915318E+03  0.30000000000E+02 0. -1.
     200000    1    3    3    0    0  0.74798701058E+02  0.42815005532E+02  0.25344422179E+03  0.56715248738E+03  0.50000000000E+03 0.  1.
    -200001    1    1    2    0    0 -0.11283054681E+03  0.45699185913E+02 -0.62665582934E+03  0.94737356746E+03  0.70000000000E+03 0. -1.
<mgrwt>
<rscale>  0 0.16850208E+04</rscale>
<asrwt>0</asrwt>
<pdfrwt beam="1">  1        1 0.98806378E-01 0.16850208E+04</pdfrwt>
<pdfrwt beam="2">  1       -1 0.14661200E+00 0.16850208E+04</pdfrwt>
<totfact> 0.10995780E+01</totfact>
</mgrwt>
</event>
<event>
 8    1  0.3214020E-028  0.1511503E+04  0.7818608E-02  0.8876839E-01
         -1   -1    0    0    0  501 -0.00000000000E+00  0.00000000000E+00  0.81285541922E+03  0.81285541924E+03  0.50400000000E-02 0. -1.
          1   -1    0    0  501    0  0.00000000000E+00 -0.00000000000E+00 -0.70265914038E+03  0.70265914040E+03  0.50400000000E-02 0.  1.
     200001    2    1    2    0    0  0.83401161161E+02  0.17130017767E+03 -0.15707124999E+03  0.74238362861E+03  0.70011611172E+03 0.  0.
    5000001    2    3    3    0    0  0.10179764742E+03  0.15192821975E+03 -0.78890749444E+02  0.23560370189E+03  0.12585868670E+03 0.  0.
        -13    1    4    4    0    0  0.48611230104E+02  0.13951084513E+02  0.20880703636E+02  0.54714709171E+02  0.10566000000E+00 0. -1.
     200003    1    4    4    0    0  0.53186417318E+02  0.13797713524E+03 -0.99771453080E+02  0.18088899272E+03  0.30000000000E+02 0. -1.
     200000    1    3    3    0    0 -0.18396486261E+02  0.19371957919E+02 -0.78180500545E+02  0.50677992672E+03  0.50000000000E+03 0.  1.
    -200001    1    1    2    0    0 -0.83401161161E+02 -0.17130017767E+03  0.26726752883E+03  0.77313093103E+03  0.70000000000E+03 0. -1.
<mgrwt>
<rscale>  0 0.15115029E+04</rscale>
<asrwt>0</asrwt>
<pdfrwt beam="1">  1        1 0.10037988E+00 0.15115029E+04</pdfrwt>
<pdfrwt beam="2">  1       -1 0.11612220E+00 0.15115029E+04</pdfrwt>
<totfact> 0.19684817E+01</totfact>
</mgrwt>
</event>
<event>
 8    1  0.3214020E-028  0.1903005E+04  0.7818608E-02  0.8653362E-01
          1   -1    0    0  501    0  0.00000000000E+00  0.00000000000E+00  0.23953757924E+04  0.23953757924E+04  0.50400000000E-02 0.  1.
         -1   -1    0    0    0  501 -0.00000000000E+00 -0.00000000000E+00 -0.37796039639E+03  0.37796039642E+03  0.50400000000E-02 0. -1.
     200001    2    1    2    0    0  0.19463419942E+02 -0.54266608606E+03  0.50267062386E+03  0.10185379012E+04  0.69991170467E+03 0.  0.
    5000001    2    3    3    0    0 -0.52967185446E+01 -0.11828811040E+02  0.11974412463E+03  0.19450271938E+03  0.15272418428E+03 0.  0.
        -13    1    4    4    0    0 -0.33002798723E+02 -0.41124553422E+02 -0.11496221100E+02  0.53968397061E+02  0.10566000000E+00 0. -1.
     200003    1    4    4    0    0  0.27706080179E+02  0.29295742382E+02  0.13124034573E+03  0.14053432232E+03  0.30000000000E+02 0. -1.
     200000    1    3    3    0    0  0.24760138486E+02 -0.53083727502E+03  0.38292649923E+03  0.82403518178E+03  0.50000000000E+03 0. -1.
    -200001    1    1    2    0    0 -0.19463419942E+02  0.54266608606E+03  0.15147447722E+04  0.17547982877E+04  0.70000000000E+03 0.  1.
<mgrwt>
<rscale>  0 0.19030052E+04</rscale>
<asrwt>0</asrwt>
<pdfrwt beam="1">  1        1 0.34219656E+00 0.19030052E+04</pdfrwt>
<pdfrwt beam="2">  1       -1 0.53994340E-01 0.19030052E+04</pdfrwt>
<totfact> 0.68145497E+00</totfact>
</mgrwt>
</event>
<event>
 8    1  0.3214020E-028  0.1668562E+04  0.7818608E-02  0.8779501E-01
          1   -1    0    0  501    0  0.00000000000E+00  0.00000000000E+00  0.59509585608E+03  0.59509585610E+03  0.50400000000E-02 0. -1.
         -1   -1    0    0    0  501 -0.00000000000E+00 -0.00000000000E+00 -0.11696011732E+04  0.11696011732E+04  0.50400000000E-02 0.  1.
     200001    2    1    2    0    0 -0.32635629557E+03 -0.22562612620E+03 -0.53085228432E+02  0.80589856805E+03  0.69945613159E+03 0.  0.
    5000001    2    3    3    0    0 -0.49952764602E+02 -0.97137403187E+02 -0.43558261417E+02  0.22023738018E+03  0.18621554098E+03 0.  0.
        -13    1    4    4    0    0  0.84569090158E+01  0.39458546319E+02  0.31421784891E+02  0.51145243351E+02  0.10566000000E+00 0. -1.
     200003    1    4    4    0    0 -0.58409673618E+02 -0.13659594951E+03 -0.74980046307E+02  0.16909213683E+03  0.30000000000E+02 0. -1.
     200000    1    3    3    0    0 -0.27640353097E+03 -0.12848872301E+03 -0.95269670154E+01  0.58566118787E+03  0.50000000000E+03 0. -1.
    -200001    1    1    2    0    0  0.32635629557E+03  0.22562612620E+03 -0.52142008872E+03  0.95879846131E+03  0.70000000000E+03 0.  1.
<mgrwt>
<rscale>  0 0.16685620E+04</rscale>
<asrwt>0</asrwt>
<pdfrwt beam="1">  1        1 0.85013694E-01 0.16685620E+04</pdfrwt>
<pdfrwt beam="2">  1       -1 0.16708588E+00 0.16685620E+04</pdfrwt>
<totfact> 0.95351687E+00</totfact>
</mgrwt>
</event>
<event>
 8    1  0.3214020E-028  0.1978528E+04  0.7818608E-02  0.8616726E-01
          1   -1    0    0  501    0  0.00000000000E+00  0.00000000000E+00  0.26094389732E+04  0.26094389732E+04  0.50400000000E-02 0. -1.
         -1   -1    0    0    0  501 -0.00000000000E+00 -0.00000000000E+00 -0.37503971408E+03  0.37503971411E+03  0.50400000000E-02 0.  1.
     200001    2    1    2    0    0 -0.63135731119E+02 -0.13704145978E+03  0.87444637728E+02  0.72125518342E+03  0.69985426533E+03 0.  0.
    5000001    2    3    3    0    0 -0.79209319410E+02  0.62391856220E+02  0.95491043161E+02  0.18264887784E+03  0.11863900391E+03 0.  0.
        -13    1    4    4    0    0 -0.70668597921E+02 -0.13496866460E+02  0.58125667136E+02  0.92492272544E+02  0.10566000000E+00 0. -1.
     200003    1    4    4    0    0 -0.85407214887E+01  0.75888722680E+02  0.37365376026E+02  0.90156605299E+02  0.30000000000E+02 0. -1.
     200000    1    3    3    0    0  0.16073588291E+02 -0.19943331600E+03 -0.80464054328E+01  0.53860630558E+03  0.50000000000E+03 0.  1.
    -200001    1    1    2    0    0  0.63135731119E+02  0.13704145978E+03  0.21469546214E+04  0.22632235039E+04  0.70000000000E+03 0. -1.
<mgrwt>
<rscale>  0 0.19785280E+04</rscale>
<asrwt>0</asrwt>
<pdfrwt beam="1">  1        1 0.37277699E+00 0.19785280E+04</pdfrwt>
<pdfrwt beam="2">  1       -1 0.53577103E-01 0.19785280E+04</pdfrwt>
<totfact> 0.50215922E+00</totfact>
</mgrwt>
</event>
<event>
 8    1  0.3214020E-028  0.2243838E+04  0.7818608E-02  0.8500400E-01
         -1   -1    0    0    0  501 -0.00000000000E+00  0.00000000000E+00  0.30604239846E+03  0.30604239850E+03  0.50400000000E-02 0. -1.
          1   -1    0    0  501    0  0.00000000000E+00 -0.00000000000E+00 -0.41128348514E+04  0.41128348514E+04  0.50400000000E-02 0.  1.
     200001    2    1    2    0    0  0.28243483219E+03  0.76782921941E+03 -0.25230932539E+04  0.27434027565E+04  0.70066252325E+03 0.  0.
    5000001    2    3    3    0    0  0.78717145056E+02  0.23237517042E+03 -0.30341336164E+03  0.39708846402E+03  0.73654405728E+02 0.  0.
        -13    1    4    4    0    0  0.15226353592E+02  0.10263028376E+02 -0.60250828367E+01  0.19325744031E+02  0.10566000000E+00 0. -1.
     200003    1    4    4    0    0  0.63490791464E+02  0.22211214205E+03 -0.29738827880E+03  0.37776271999E+03  0.30000000000E+02 0. -1.
     200000    1    3    3    0    0  0.20371768713E+03  0.53545404899E+03 -0.22196798923E+04  0.23463142924E+04  0.50000000000E+03 0.  1.
    -200001    1    1    2    0    0 -0.28243483219E+03 -0.76782921941E+03 -0.12836991989E+04  0.16754744934E+04  0.70000000000E+03 0. -1.
<mgrwt>
<rscale>  0 0.22438376E+04</rscale>
<asrwt>0</asrwt>
<pdfrwt beam="1">  1        1 0.58754780E+00 0.22438376E+04</pdfrwt>
<pdfrwt beam="2">  1       -1 0.43720345E-01 0.22438376E+04</pdfrwt>
<totfact> 0.64957664E-01</totfact>
</mgrwt>
</event>
<event>
 8    1  0.3214020E-028  0.2032237E+04  0.7818608E-02  0.8591695E-01
          1   -1    0    0  501    0  0.00000000000E+00  0.00000000000E+00  0.11546518713E+04  0.11546518713E+04  0.50400000000E-02 0.  1.
         -1   -1    0    0    0  501 -0.00000000000E+00 -0.00000000000E+00 -0.89420619274E+03  0.89420619276E+03  0.50400000000E-02 0. -1.
     200001    2    1    2    0    0  0.32748664373E+03 -0.57186945975E+03 -0.20143805613E+03  0.98226593718E+03  0.69999064284E+03 0.  0.
    5000001    2    3    3    0    0  0.22556463990E+02 -0.17077667699E+03 -0.97892363594E+02  0.26492393692E+03  0.17586446494E+03 0.  0.
        -13    1    4    4    0    0  0.23242546812E+02 -0.15864574627E+03  0.15497992334E+01  0.16034681735E+03  0.10566000000E+00 0. -1.
     200003    1    4    4    0    0 -0.68608282143E+00 -0.12130930725E+02 -0.99442162827E+02  0.10457711957E+03  0.30000000000E+02 0. -1.
     200000    1    3    3    0    0  0.30493017974E+03 -0.40109278276E+03 -0.10354569253E+03  0.71734200026E+03  0.50000000000E+03 0. -1.
    -200001    1    1    2    0    0 -0.32748664373E+03  0.57186945975E+03  0.46188373472E+03  0.10665921269E+04  0.70000000000E+03 0.  1.
<mgrwt>
<rscale>  0 0.20322370E+04</rscale>
<asrwt>0</asrwt>
<pdfrwt beam="1">  1        1 0.16495027E+00 0.20322370E+04</pdfrwt>
<pdfrwt beam="2">  1       -1 0.12774374E+00 0.20322370E+04</pdfrwt>
<totfact> 0.65572777E+00</totfact>
</mgrwt>
</event>
<event>
 8    1  0.3214020E-028  0.1641430E+04  0.7818608E-02  0.8795493E-01
          1   -1    0    0  501    0  0.00000000000E+00  0.00000000000E+00  0.22786451413E+04  0.22786451413E+04  0.50400000000E-02 0.  1.
         -1   -1    0    0    0  501 -0.00000000000E+00 -0.00000000000E+00 -0.29560232002E+03  0.29560232006E+03  0.50400000000E-02 0. -1.
     200001    2    1    2    0    0  0.39334220255E+03 -0.12105303791E+03  0.11759950768E+04  0.14293902702E+04  0.70058561047E+03 0.  0.
    5000001    2    3    3    0    0  0.16375016829E+03 -0.72293902333E+02  0.39668803657E+03  0.47418902520E+03  0.18829048657E+03 0.  0.
        -13    1    4    4    0    0 -0.91483824732E+01  0.34956425050E+02  0.12173415494E+02  0.38129355659E+02  0.10566000000E+00 0. -1.
     200003    1    4    4    0    0  0.17289855076E+03 -0.10725032738E+03  0.38451462108E+03  0.43605966954E+03  0.30000000000E+02 0. -1.
     200000    1    3    3    0    0  0.22959203426E+03 -0.48759135577E+02  0.77930704021E+03  0.95520124498E+03  0.50000000000E+03 0.  1.
    -200001    1    1    2    0    0 -0.39334220255E+03  0.12105303791E+03  0.80704774450E+03  0.11448571912E+04  0.70000000000E+03 0.  1.
<mgrwt>
<rscale>  0 0.16414296E+04</rscale>
<asrwt>0</asrwt>
<pdfrwt beam="1">  1        1 0.32552073E+00 0.16414296E+04</pdfrwt>
<pdfrwt beam="2">  1       -1 0.42228904E-01 0.16414296E+04</pdfrwt>
<totfact> 0.13135621E+01</totfact>
</mgrwt>
</event>
<event>
 8    1  0.3214020E-028  0.2140992E+04  0.7818608E-02  0.8543398E-01
          1   -1    0    0  501    0  0.00000000000E+00  0.00000000000E+00  0.12527564259E+04  0.12527564259E+04  0.50400000000E-02 0.  1.
         -1   -1    0    0    0  501 -0.00000000000E+00 -0.00000000000E+00 -0.91475210675E+03  0.91475210676E+03  0.50400000000E-02 0. -1.
     200001    2    1    2    0    0 -0.31958270314E+02  0.80349657482E+03  0.26017981397E+03  0.10985442066E+04  0.70176759793E+03 0.  0.
    5000001    2    3    3    0    0  0.40069790503E+02  0.20274360397E+03 -0.12142953581E+02  0.26773023029E+03  0.16976886590E+03 0.  0.
        -13    1    4    4    0    0  0.50896085720E+02  0.16925204946E+03 -0.73061630798E+02  0.19124508059E+03  0.10566000000E+00 0. -1.
     200003    1    4    4    0    0 -0.10826295218E+02  0.33491554505E+02  0.60918677218E+02  0.76485149704E+02  0.30000000000E+02 0. -1.
     200000    1    3    3    0    0 -0.72028060817E+02  0.60075297085E+03  0.27232276755E+03  0.83081397632E+03  0.50000000000E+03 0. -1.
    -200001    1    1    2    0    0  0.31958270314E+02 -0.80349657482E+03  0.77824505190E+02  0.10689643261E+04  0.70000000000E+03 0. -1.
<mgrwt>
<rscale>  0 0.21409919E+04</rscale>
<asrwt>0</asrwt>
<pdfrwt beam="1">  1        1 0.17896520E+00 0.21409919E+04</pdfrwt>
<pdfrwt beam="2">  1       -1 0.13067887E+00 0.21409919E+04</pdfrwt>
<totfact> 0.52428280E+00</totfact>
</mgrwt>
</event>
<event>
 8    1  0.3214020E-028  0.1594279E+04  0.7818608E-02  0.8824070E-01
         -1   -1    0    0    0  501 -0.00000000000E+00  0.00000000000E+00  0.29121065450E+03  0.29121065454E+03  0.50400000000E-02 0.  1.
          1   -1    0    0  501    0  0.00000000000E+00 -0.00000000000E+00 -0.21820339316E+04  0.21820339316E+04  0.50400000000E-02 0. -1.
     200001    2    1    2    0    0  0.32720118955E+03 -0.11576169492E+03 -0.11909993818E+04  0.14243333063E+04  0.69984601998E+03 0.  0.
    5000001    2    3    3    0    0  0.11593839445E+03 -0.11251673259E+03 -0.24867263200E+03  0.33684896082E+03  0.15977302051E+03 0.  0.
        -13    1    4    4    0    0  0.13126488336E+03 -0.36932413387E+02 -0.10929621432E+03  0.17475739295E+03  0.10566000000E+00 0. -1.
     200003    1    4    4    0    0 -0.15326488903E+02 -0.75584319206E+02 -0.13937641768E+03  0.16209156788E+03  0.30000000000E+02 0. -1.
     200000    1    3    3    0    0  0.21126279510E+03 -0.32449623314E+01 -0.94232674978E+03  0.10874843455E+04  0.50000000000E+03 0. -1.
    -200001    1    1    2    0    0 -0.32720118955E+03  0.11576169492E+03 -0.69982389531E+03  0.10489112798E+04  0.70000000000E+03 0.  1.
<mgrwt>
<rscale>  0 0.15942792E+04</rscale>
<asrwt>0</asrwt>
<pdfrwt beam="1">  1        1 0.31171913E+00 0.15942792E+04</pdfrwt>
<pdfrwt beam="2">  1       -1 0.41601523E-01 0.15942792E+04</pdfrwt>
<totfact> 0.15595739E+01</totfact>
</mgrwt>
</event>
<event>
 8    1  0.3214020E-028  0.1591359E+04  0.7818608E-02  0.8825874E-01
         -1   -1    0    0    0  501 -0.00000000000E+00  0.00000000000E+00  0.61326607910E+03  0.61326607912E+03  0.50400000000E-02 0. -1.
          1   -1    0    0  501    0  0.00000000000E+00 -0.00000000000E+00 -0.10323514805E+04  0.10323514805E+04  0.50400000000E-02 0.  1.
     200001    2    1    2    0    0  0.12168049723E+03  0.16272647321E+03 -0.53940622417E+03  0.90685971774E+03  0.70010672365E+03 0.  0.
    5000001    2    3    3    0    0 -0.20923575663E+02  0.56421927680E+02 -0.83193717549E+02  0.20702657391E+03  0.17977090344E+03 0.  0.
        -13    1    4    4    0    0 -0.85048214515E+02  0.11312139903E+02 -0.88052216775E+02  0.12294050327E+03  0.10566000000E+00 0. -1.
     200003    1    4    4    0    0  0.64124638853E+02  0.45109787777E+02  0.48584992264E+01  0.84086070642E+02  0.30000000000E+02 0. -1.
     200000    1    3    3    0    0  0.14260407289E+03  0.10630454553E+03 -0.45621250662E+03  0.69983314383E+03  0.50000000000E+03 0.  1.
    -200001    1    1    2    0    0 -0.12168049723E+03 -0.16272647321E+03  0.12032082280E+03  0.73875784185E+03  0.70000000000E+03 0. -1.
<mgrwt>
<rscale>  0 0.15913593E+04</rscale>
<asrwt>0</asrwt>
<pdfrwt beam="1">  1        1 0.14747878E+00 0.15913593E+04</pdfrwt>
<pdfrwt beam="2">  1       -1 0.87609440E-01 0.15913593E+04</pdfrwt>
<totfact> 0.20140524E+01</totfact>
</mgrwt>
</event>
<event>
 8    1  0.3214020E-028  0.2048119E+04  0.7818608E-02  0.8584448E-01
          1   -1    0    0  501    0  0.00000000000E+00  0.00000000000E+00  0.13486716827E+04  0.13486716827E+04  0.50400000000E-02 0.  1.
         -1   -1    0    0    0  501 -0.00000000000E+00 -0.00000000000E+00 -0.77757854271E+03  0.77757854273E+03  0.50400000000E-02 0. -1.
     200001    2    1    2    0    0  0.28699429748E+03 -0.61904877520E+03 -0.32592966359E+02  0.97732723941E+03  0.69894142713E+03 0.  0.
    5000001    2    3    3    0    0  0.16439685319E+03 -0.23966679556E+03  0.57241759580E+02  0.33154778959E+03  0.14893226483E+03 0.  0.
        -13    1    4    4    0    0  0.14319364907E+03 -0.15393777401E+03  0.95276277258E+02  0.23082209507E+03  0.10566000000E+00 0. -1.
     200003    1    4    4    0    0  0.21203204123E+02 -0.85729021545E+02 -0.38034517678E+02  0.10072569451E+03  0.30000000000E+02 0. -1.
     200000    1    3    3    0    0  0.12259744428E+03 -0.37938197965E+03 -0.89834725939E+02  0.64577944982E+03  0.50000000000E+03 0. -1.
    -200001    1    1    2    0    0 -0.28699429748E+03  0.61904877520E+03  0.60368610638E+03  0.11489229861E+04  0.70000000000E+03 0.  1.
<mgrwt>
<rscale>  0 0.20481193E+04</rscale>
<asrwt>0</asrwt>
<pdfrwt beam="1">  1        1 0.19266738E+00 0.20481193E+04</pdfrwt>
<pdfrwt beam="2">  1       -1 0.11108265E+00 0.20481193E+04</pdfrwt>
<totfact> 0.67746379E+00</totfact>
</mgrwt>
</event>
<event>
 8    1  0.3214020E-028  0.1560181E+04  0.7818608E-02  0.8845391E-01
          1   -1    0    0  501    0  0.00000000000E+00  0.00000000000E+00  0.10291634277E+04  0.10291634277E+04  0.50400000000E-02 0.  1.
         -1   -1    0    0    0  501 -0.00000000000E+00 -0.00000000000E+00 -0.59129714360E+03  0.59129714362E+03  0.50400000000E-02 0. -1.
     200001    2    1    2    0    0 -0.22693976340E+03  0.24188091177E+03  0.32871117341E+03  0.83820558104E+03  0.69608155331E+03 0.  0.
    5000001    2    3    3    0    0 -0.58191890921E+02  0.11636009944E+03  0.10634652292E+03  0.25196556485E+03  0.18775274704E+03 0.  0.
        -13    1    4    4    0    0 -0.11704111235E+02  0.10902676630E+03 -0.22153430743E+02  0.11186870719E+03  0.10566000000E+00 0. -1.
     200003    1    4    4    0    0 -0.46487779686E+02  0.73333331379E+01  0.12849995366E+03  0.14009685766E+03  0.30000000000E+02 0. -1.
     200000    1    3    3    0    0 -0.16874787248E+03  0.12552081233E+03  0.22236465050E+03  0.58624001619E+03  0.50000000000E+03 0.  1.
    -200001    1    1    2    0    0  0.22693976340E+03 -0.24188091177E+03  0.10915511072E+03  0.78225499032E+03  0.70000000000E+03 0.  1.
<mgrwt>
<rscale>  0 0.15601813E+04</rscale>
<asrwt>0</asrwt>
<pdfrwt beam="1">  1        1 0.14702335E+00 0.15601813E+04</pdfrwt>
<pdfrwt beam="2">  1       -1 0.84471021E-01 0.15601813E+04</pdfrwt>
<totfact> 0.21979078E+01</totfact>
</mgrwt>
</event>
<event>
 8    1  0.3214020E-028  0.2387079E+04  0.7818608E-02  0.8444357E-01
         -1   -1    0    0    0  501 -0.00000000000E+00  0.00000000000E+00  0.14009077513E+04  0.14009077513E+04  0.50400000000E-02 0. -1.
          1   -1    0    0  501    0  0.00000000000E+00 -0.00000000000E+00 -0.10168670635E+04  0.10168670635E+04  0.50400000000E-02 0.  1.
     200001    2    1    2    0    0 -0.64874367751E+02 -0.91789167888E+03  0.49284442335E+03  0.12564944565E+04  0.69939178995E+03 0.  0.
    5000001    2    3    3    0    0  0.83492176507E+01 -0.24492140052E+03  0.22579291536E+03  0.37356343036E+03  0.16885198845E+03 0.  0.
        -13    1    4    4    0    0 -0.66477919045E+02 -0.18645960590E+03  0.14657810954E+03  0.24631616211E+03  0.10566000000E+00 0. -1.
     200003    1    4    4    0    0  0.74827136695E+02 -0.58461794617E+02  0.79214805819E+02  0.12724726825E+03  0.30000000000E+02 0. -1.
     200000    1    3    3    0    0 -0.73223585402E+02 -0.67297027836E+03  0.26705150799E+03  0.88293102615E+03  0.50000000000E+03 0. -1.
    -200001    1    1    2    0    0  0.64874367751E+02  0.91789167888E+03 -0.10880373559E+03  0.11612803583E+04  0.70000000000E+03 0.  1.
<mgrwt>
<rscale>  0 0.23870793E+04</rscale>
<asrwt>0</asrwt>
<pdfrwt beam="1">  1        1 0.14526672E+00 0.23870793E+04</pdfrwt>
<pdfrwt beam="2">  1       -1 0.20012968E+00 0.23870793E+04</pdfrwt>
<totfact> 0.22704113E+00</totfact>
</mgrwt>
</event>
<event>
 8    1  0.3214020E-028  0.3060336E+04  0.7818608E-02  0.8226709E-01
          1   -1    0    0  501    0  0.00000000000E+00  0.00000000000E+00  0.31703945634E+04  0.31703945634E+04  0.50400000000E-02 0.  1.
         -1   -1    0    0    0  501 -0.00000000000E+00 -0.00000000000E+00 -0.73852430025E+03  0.73852430027E+03  0.50400000000E-02 0. -1.
     200001    2    1    2    0    0 -0.86661090377E+03  0.99697787047E+03  0.79838681699E+03  0.16945910872E+04  0.69945558155E+03 0.  0.
    5000001    2    3    3    0    0 -0.23529444722E+03  0.20013415597E+03  0.51992142385E+02  0.33789459059E+03  0.12669812234E+03 0.  0.
        -13    1    4    4    0    0 -0.67986904323E+02  0.44401392106E+02 -0.38967582312E+02  0.90067676864E+02  0.10566000000E+00 0. -1.
     200003    1    4    4    0    0 -0.16730754290E+03  0.15573276387E+03  0.90959724698E+02  0.24782691373E+03  0.30000000000E+02 0. -1.
     200000    1    3    3    0    0 -0.63131645656E+03  0.79684371450E+03  0.74639467460E+03  0.13566964966E+04  0.50000000000E+03 0.  1.
    -200001    1    1    2    0    0  0.86661090377E+03 -0.99697787047E+03  0.16334834462E+04  0.22143277765E+04  0.70000000000E+03 0. -1.
<mgrwt>
<rscale>  0 0.30603356E+04</rscale>
<asrwt>0</asrwt>
<pdfrwt beam="1">  1        1 0.45291351E+00 0.30603356E+04</pdfrwt>
<pdfrwt beam="2">  1       -1 0.10550347E+00 0.30603356E+04</pdfrwt>
<totfact> 0.47094490E-01</totfact>
</mgrwt>
</event>
<event>
 8    1  0.3214020E-028  0.1626154E+04  0.7818608E-02  0.8804640E-01
         -1   -1    0    0    0  501 -0.00000000000E+00  0.00000000000E+00  0.29558666992E+03  0.29558666997E+03  0.50400000000E-02 0. -1.
          1   -1    0    0  501    0  0.00000000000E+00 -0.00000000000E+00 -0.22365495533E+04  0.22365495533E+04  0.50400000000E-02 0.  1.
     200001    2    1    2    0    0  0.33439206359E+03  0.14582847369E+03 -0.12817588017E+04  0.15037228739E+04  0.69655786533E+03 0.  0.
    5000001    2    3    3    0    0  0.58974265473E+02  0.55097600190E+02 -0.26951200503E+03  0.33807685887E+03  0.18747141679E+03 0.  0.
        -13    1    4    4    0    0  0.21674403162E+02  0.89964806642E+02 -0.39592077976E+02  0.10065281908E+03  0.10566000000E+00 0. -1.
     200003    1    4    4    0    0  0.37299862310E+02 -0.34867206452E+02 -0.22991992705E+03  0.23742403979E+03  0.30000000000E+02 0. -1.
     200000    1    3    3    0    0  0.27541779811E+03  0.90730873504E+02 -0.10122467967E+04  0.11656460150E+04  0.50000000000E+03 0.  1.
    -200001    1    1    2    0    0 -0.33439206359E+03 -0.14582847369E+03 -0.65920408170E+03  0.10284133494E+04  0.70000000000E+03 0. -1.
<mgrwt>
<rscale>  0 0.16261540E+04</rscale>
<asrwt>0</asrwt>
<pdfrwt beam="1">  1        1 0.31950707E+00 0.16261540E+04</pdfrwt>
<pdfrwt beam="2">  1       -1 0.42226669E-01 0.16261540E+04</pdfrwt>
<totfact> 0.13982331E+01</totfact>
</mgrwt>
</event>
<event>
 8    1  0.3214020E-028  0.1854613E+04  0.7818608E-02  0.8677784E-01
          1   -1    0    0  501    0  0.00000000000E+00  0.00000000000E+00  0.97671649558E+03  0.97671649560E+03  0.50400000000E-02 0.  1.
         -1   -1    0    0    0  501 -0.00000000000E+00 -0.00000000000E+00 -0.88039642033E+03  0.88039642035E+03  0.50400000000E-02 0. -1.
     200001    2    1    2    0    0  0.26939896474E+03  0.52789906845E+03  0.18367620241E+03  0.93576373044E+03  0.70047382764E+03 0.  0.
    5000001    2    3    3    0    0  0.53209368606E+01  0.71161517066E+02  0.13395696736E+03  0.20719088028E+03  0.14103658351E+03 0.  0.
        -13    1    4    4    0    0 -0.38185133016E+02 -0.18893141659E+02  0.76034264021E+01  0.43276765617E+02  0.10566000000E+00 0. -1.
     200003    1    4    4    0    0  0.43506069876E+02  0.90054658725E+02  0.12635354096E+03  0.16391411467E+03  0.30000000000E+02 0. -1.
     200000    1    3    3    0    0  0.26407802788E+03  0.45673755139E+03  0.49719235051E+02  0.72857285016E+03  0.50000000000E+03 0.  1.
    -200001    1    1    2    0    0 -0.26939896474E+03 -0.52789906845E+03 -0.87356127162E+02  0.92134918550E+03  0.70000000000E+03 0. -1.
<mgrwt>
<rscale>  0 0.18546134E+04</rscale>
<asrwt>0</asrwt>
<pdfrwt beam="1">  1        1 0.13953093E+00 0.18546134E+04</pdfrwt>
<pdfrwt beam="2">  1       -1 0.12577092E+00 0.18546134E+04</pdfrwt>
<totfact> 0.93353035E+00</totfact>
</mgrwt>
</event>
<event>
 8    1  0.3214020E-028  0.1610839E+04  0.7818608E-02  0.8813917E-01
          1   -1    0    0  501    0  0.00000000000E+00  0.00000000000E+00  0.10292518579E+04  0.10292518579E+04  0.50400000000E-02 0.  1.
         -1   -1    0    0    0  501 -0.00000000000E+00 -0.00000000000E+00 -0.63026433650E+03  0.63026433652E+03  0.50400000000E-02 0. -1.
     200001    2    1    2    0    0 -0.37692240769E+03  0.95816093079E+02  0.11166501202E+03  0.80874862953E+03  0.70025284415E+03 0.  0.
    5000001    2    3    3    0    0 -0.12105746532E+03  0.93409880615E+02  0.14894997225E+02  0.23880381259E+03  0.18282528343E+03 0.  0.
        -13    1    4    4    0    0 -0.65777074535E+02 -0.40110935103E+02 -0.32745295008E+02  0.83712461190E+02  0.10566000000E+00 0. -1.
     200003    1    4    4    0    0 -0.55280390785E+02  0.13352081572E+03  0.47640292233E+02  0.15509135140E+03  0.30000000000E+02 0. -1.
     200000    1    3    3    0    0 -0.25586494237E+03  0.24062124640E+01  0.96770014796E+02  0.56994481694E+03  0.50000000000E+03 0.  1.
    -200001    1    1    2    0    0  0.37692240769E+03 -0.95816093079E+02  0.28732250939E+03  0.85076756492E+03  0.70000000000E+03 0.  1.
<mgrwt>
<rscale>  0 0.16108392E+04</rscale>
<asrwt>0</asrwt>
<pdfrwt beam="1">  1        1 0.14703598E+00 0.16108392E+04</pdfrwt>
<pdfrwt beam="2">  1       -1 0.90037762E-01 0.16108392E+04</pdfrwt>
<totfact> 0.19036071E+01</totfact>
</mgrwt>
</event>
<event>
 8    1  0.3214020E-028  0.2328507E+04  0.7818608E-02  0.8466765E-01
          1   -1    0    0  501    0  0.00000000000E+00  0.00000000000E+00  0.11423007972E+04  0.11423007972E+04  0.50400000000E-02 0. -1.
         -1   -1    0    0    0  501 -0.00000000000E+00 -0.00000000000E+00 -0.11866275909E+04  0.11866275909E+04  0.50400000000E-02 0.  1.
     200001    2    1    2    0    0 -0.39116614760E+03  0.39818130438E+03  0.72226978653E+03  0.11502725337E+04  0.69992424670E+03 0.  0.
    5000001    2    3    3    0    0 -0.12578402927E+03  0.12879654718E+03  0.22156203196E+03  0.34796082894E+03  0.19893926683E+03 0.  0.
        -13    1    4    4    0    0 -0.28500053245E+02  0.15884715348E+03  0.14643794435E+03  0.21791914536E+03  0.10566000000E+00 0. -1.
     200003    1    4    4    0    0 -0.97283976029E+02 -0.30050606298E+02  0.75124087608E+02  0.13004168359E+03  0.30000000000E+02 0. -1.
     200000    1    3    3    0    0 -0.26538211833E+03  0.26938475720E+03  0.50070775457E+03  0.80231170478E+03  0.50000000000E+03 0. -1.
    -200001    1    1    2    0    0  0.39116614760E+03 -0.39818130438E+03 -0.76659658025E+03  0.11786558544E+04  0.70000000000E+03 0.  1.
<mgrwt>
<rscale>  0 0.23285065E+04</rscale>
<asrwt>0</asrwt>
<pdfrwt beam="1">  1        1 0.16318583E+00 0.23285065E+04</pdfrwt>
<pdfrwt beam="2">  1       -1 0.16951823E+00 0.23285065E+04</pdfrwt>
<totfact> 0.30553963E+00</totfact>
</mgrwt>
</event>
<event>
 8    1  0.3214020E-028  0.1786855E+04  0.7818608E-02  0.8713321E-01
         -1   -1    0    0    0  501 -0.00000000000E+00  0.00000000000E+00  0.79087371607E+03  0.79087371608E+03  0.50400000000E-02 0. -1.
          1   -1    0    0  501    0  0.00000000000E+00 -0.00000000000E+00 -0.10092792774E+04  0.10092792774E+04  0.50400000000E-02 0.  1.
     200001    2    1    2    0    0 -0.12360314934E+03  0.21732478441E+03 -0.60883210580E+03  0.96054553338E+03  0.69961660085E+03 0.  0.
    5000001    2    3    3    0    0  0.30160871183E+02 -0.13719710448E+02 -0.98114445628E+02  0.19382690113E+03  0.16384295700E+03 0.  0.
        -13    1    4    4    0    0  0.50838775992E+02  0.61010803013E+02 -0.25411445243E+02  0.83382563777E+02  0.10566000000E+00 0. -1.
     200003    1    4    4    0    0 -0.20677904809E+02 -0.74730513461E+02 -0.72703000385E+02  0.11044433736E+03  0.30000000000E+02 0. -1.
     200000    1    3    3    0    0 -0.15376402053E+03  0.23104449485E+03 -0.51071766018E+03  0.76671863224E+03  0.50000000000E+03 0.  1.
    -200001    1    1    2    0    0  0.12360314934E+03 -0.21732478441E+03  0.39042654448E+03  0.83960746011E+03  0.70000000000E+03 0. -1.
<mgrwt>
<rscale>  0 0.17868547E+04</rscale>
<asrwt>0</asrwt>
<pdfrwt beam="1">  1        1 0.14418275E+00 0.17868547E+04</pdfrwt>
<pdfrwt beam="2">  1       -1 0.11298196E+00 0.17868547E+04</pdfrwt>
<totfact> 0.11527546E+01</totfact>
</mgrwt>
</event>
<event>
 8    1  0.3214020E-028  0.1591301E+04  0.7818608E-02  0.8825910E-01
         -1   -1    0    0    0  501 -0.00000000000E+00  0.00000000000E+00  0.33735033195E+03  0.33735033199E+03  0.50400000000E-02 0.  1.
          1   -1    0    0  501    0  0.00000000000E+00 -0.00000000000E+00 -0.18765635091E+04  0.18765635091E+04  0.50400000000E-02 0. -1.
     200001    2    1    2    0    0 -0.13138166263E+03 -0.21102104237E+02 -0.12620559495E+04  0.14493730842E+04  0.70013618492E+03 0.  0.
    5000001    2    3    3    0    0  0.25994975620E+02 -0.15319703984E+02 -0.52268802816E+03  0.54302559812E+03  0.14409577836E+03 0.  0.
        -13    1    4    4    0    0 -0.41283226009E+02 -0.28488502521E+02 -0.82722207731E+02  0.96741275273E+02  0.10566000000E+00 0. -1.
     200003    1    4    4    0    0  0.67278201629E+02  0.13168798537E+02 -0.43996582043E+03  0.44628432284E+03  0.30000000000E+02 0. -1.
     200000    1    3    3    0    0 -0.15737663825E+03 -0.57824002533E+01 -0.73936792139E+03  0.90634748612E+03  0.50000000000E+03 0. -1.
    -200001    1    1    2    0    0  0.13138166263E+03  0.21102104237E+02 -0.27715722760E+03  0.76454075685E+03  0.70000000000E+03 0.  1.
<mgrwt>
<rscale>  0 0.15913005E+04</rscale>
<asrwt>0</asrwt>
<pdfrwt beam="1">  1        1 0.26808050E+00 0.15913005E+04</pdfrwt>
<pdfrwt beam="2">  1       -1 0.48192905E-01 0.15913005E+04</pdfrwt>
<totfact> 0.18464821E+01</totfact>
</mgrwt>
</event>
<event>
 8    1  0.3214020E-028  0.1528847E+04  0.7818608E-02  0.8865494E-01
         -1   -1    0    0    0  501 -0.00000000000E+00  0.00000000000E+00  0.60498217745E+03  0.60498217747E+03  0.50400000000E-02 0. -1.
          1   -1    0    0  501    0  0.00000000000E+00 -0.00000000000E+00 -0.96588458706E+03  0.96588458708E+03  0.50400000000E-02 0.  1.
     200001    2    1    2    0    0 -0.22726762731E+03  0.10795107482E+03 -0.59623903482E+01  0.74667842063E+03  0.70298584961E+03 0.  0.
    5000001    2    3    3    0    0 -0.34373579747E+02  0.38455492073E+02  0.42215180453E+02  0.20412996386E+03  0.19294183795E+03 0.  0.
        -13    1    4    4    0    0 -0.45070703798E+02 -0.40361470772E+02  0.88602246163E+02  0.10728833046E+03  0.10566000000E+00 0. -1.
     200003    1    4    4    0    0  0.10697124051E+02  0.78816962846E+02 -0.46387065709E+02  0.96841633404E+02  0.30000000000E+02 0. -1.
     200000    1    3    3    0    0 -0.19289404756E+03  0.69495582742E+02 -0.48177570801E+02  0.54254845676E+03  0.50000000000E+03 0.  1.
    -200001    1    1    2    0    0  0.22726762731E+03 -0.10795107482E+03 -0.35494001927E+03  0.82418834392E+03  0.70000000000E+03 0.  1.
<mgrwt>
<rscale>  0 0.15288466E+04</rscale>
<asrwt>0</asrwt>
<pdfrwt beam="1">  1        1 0.13798351E+00 0.15288466E+04</pdfrwt>
<pdfrwt beam="2">  1       -1 0.86426026E-01 0.15288466E+04</pdfrwt>
<totfact> 0.23393291E+01</totfact>
</mgrwt>
</event>
<event>
 8    1  0.3214020E-028  0.1495898E+04  0.7818608E-02  0.8887185E-01
          1   -1    0    0  501    0  0.00000000000E+00  0.00000000000E+00  0.12832548767E+04  0.12832548767E+04  0.50400000000E-02 0.  1.
         -1   -1    0    0    0  501 -0.00000000000E+00 -0.00000000000E+00 -0.43594422848E+03  0.43594422851E+03  0.50400000000E-02 0. -1.
     200001    2    1    2    0    0  0.25377437506E+03 -0.61767389568E+02  0.46268577914E+03  0.87887004246E+03  0.70008412170E+03 0.  0.
    5000001    2    3    3    0    0  0.31702225503E+02  0.28367499415E+02  0.25363627459E+03  0.28629765602E+03  0.12579841782E+03 0.  0.
        -13    1    4    4    0    0  0.25449372645E+02  0.60322186583E+02  0.22311524146E+03  0.23252281372E+03  0.10566000000E+00 0. -1.
     200003    1    4    4    0    0  0.62528528581E+01 -0.31954687168E+02  0.30521033134E+02  0.53774842300E+02  0.30000000000E+02 0. -1.
     200000    1    3    3    0    0  0.22207214955E+03 -0.90134888983E+02  0.20904950455E+03  0.59257238644E+03  0.50000000000E+03 0. -1.
    -200001    1    1    2    0    0 -0.25377437506E+03  0.61767389568E+02  0.38462486911E+03  0.84032906280E+03  0.70000000000E+03 0. -1.
<mgrwt>
<rscale>  0 0.14958978E+04</rscale>
<asrwt>0</asrwt>
<pdfrwt beam="1">  1        1 0.18332212E+00 0.14958978E+04</pdfrwt>
<pdfrwt beam="2">  1       -1 0.62277747E-01 0.14958978E+04</pdfrwt>
<totfact> 0.27486519E+01</totfact>
</mgrwt>
</event>
<event>
 8    1  0.3214020E-028  0.1622236E+04  0.7818608E-02  0.8807003E-01
         -1   -1    0    0    0  501 -0.00000000000E+00  0.00000000000E+00  0.62975107604E+03  0.62975107606E+03  0.50400000000E-02 0. -1.
          1   -1    0    0  501    0  0.00000000000E+00 -0.00000000000E+00 -0.10447184364E+04  0.10447184364E+04  0.50400000000E-02 0.  1.
     200001    2    1    2    0    0  0.32932058244E+03 -0.12876370498E+03 -0.42047908343E+03  0.89021029713E+03  0.70045669086E+03 0.  0.
    5000001    2    3    3    0    0  0.13213704249E+03  0.31037741776E+02 -0.12248118595E+03  0.25521376350E+03  0.17806988729E+03 0.  0.
        -13    1    4    4    0    0  0.14946707378E+03  0.16401219073E+02 -0.27235269342E+02  0.15281091974E+03  0.10566000000E+00 0. -1.
     200003    1    4    4    0    0 -0.17330031288E+02  0.14636522703E+02 -0.95245916605E+02  0.10240284377E+03  0.30000000000E+02 0. -1.
     200000    1    3    3    0    0  0.19718353995E+03 -0.15980144676E+03 -0.29799789749E+03  0.63499653363E+03  0.50000000000E+03 0.  1.
    -200001    1    1    2    0    0 -0.32932058244E+03  0.12876370498E+03  0.55117230948E+01  0.78425921533E+03  0.70000000000E+03 0.  1.
<mgrwt>
<rscale>  0 0.16222362E+04</rscale>
<asrwt>0</asrwt>
<pdfrwt beam="1">  1        1 0.14924549E+00 0.16222362E+04</pdfrwt>
<pdfrwt beam="2">  1       -1 0.89964440E-01 0.16222362E+04</pdfrwt>
<totfact> 0.18558146E+01</totfact>
</mgrwt>
</event>
<event>
 8    1  0.3214020E-028  0.1592421E+04  0.7818608E-02  0.8825218E-01
          1   -1    0    0  501    0  0.00000000000E+00  0.00000000000E+00  0.39547160908E+03  0.39547160911E+03  0.50400000000E-02 0. -1.
         -1   -1    0    0    0  501 -0.00000000000E+00 -0.00000000000E+00 -0.16030256590E+04  0.16030256590E+04  0.50400000000E-02 0.  1.
     200001    2    1    2    0    0 -0.82000801173E+02 -0.36589779357E+03 -0.67109910464E+03  0.10401710006E+04  0.70069706400E+03 0.  0.
    5000001    2    3    3    0    0 -0.75196721484E+02 -0.15612331577E+03 -0.21727472192E+03  0.33305842300E+03  0.18354991609E+03 0.  0.
        -13    1    4    4    0    0 -0.33512440054E+02  0.32268153214E+02 -0.86709940514E+01  0.47323510564E+02  0.10566000000E+00 0. -1.
     200003    1    4    4    0    0 -0.41684281429E+02 -0.18839146899E+03 -0.20860372787E+03  0.28573491244E+03  0.30000000000E+02 0. -1.
     200000    1    3    3    0    0 -0.68040796888E+01 -0.20977447779E+03 -0.45382438272E+03  0.70711257759E+03  0.50000000000E+03 0.  1.
    -200001    1    1    2    0    0  0.82000801173E+02  0.36589779357E+03 -0.53645494529E+03  0.95832626754E+03  0.70000000000E+03 0. -1.
<mgrwt>
<rscale>  0 0.15924210E+04</rscale>
<asrwt>0</asrwt>
<pdfrwt beam="1">  1        1 0.56495945E-01 0.15924210E+04</pdfrwt>
<pdfrwt beam="2">  1       -1 0.22900366E+00 0.15924210E+04</pdfrwt>
<totfact> 0.61991923E+00</totfact>
</mgrwt>
</event>
<event>
 8    1  0.3214020E-028  0.1488210E+04  0.7818608E-02  0.8892331E-01
         -1   -1    0    0    0  501 -0.00000000000E+00  0.00000000000E+00  0.30632733406E+03  0.30632733410E+03  0.50400000000E-02 0. -1.
          1   -1    0    0  501    0  0.00000000000E+00 -0.00000000000E+00 -0.18075186145E+04  0.18075186145E+04  0.50400000000E-02 0.  1.
     200001    2    1    2    0    0 -0.20884196426E+03 -0.10805910770E+03 -0.62971801566E+03  0.97158617603E+03  0.70152917360E+03 0.  0.
    5000001    2    3    3    0    0  0.45810903828E+02  0.51701267401E+02 -0.11971889012E+03  0.19668581552E+03  0.13993226009E+03 0.  0.
        -13    1    4    4    0    0  0.61724565601E+02  0.71527194280E+02 -0.30654147425E+02  0.99326479040E+02  0.10566000000E+00 0. -1.
     200003    1    4    4    0    0 -0.15913661773E+02 -0.19825926879E+02 -0.89064742699E+02  0.97359336479E+02  0.30000000000E+02 0. -1.
     200000    1    3    3    0    0 -0.25465286808E+03 -0.15976037510E+03 -0.50999912554E+03  0.77490036051E+03  0.50000000000E+03 0.  1.
    -200001    1    1    2    0    0  0.20884196426E+03  0.10805910770E+03 -0.87147326475E+03  0.11422597725E+04  0.70000000000E+03 0.  1.
<mgrwt>
<rscale>  0 0.14882101E+04</rscale>
<asrwt>0</asrwt>
<pdfrwt beam="1">  1        1 0.25821694E+00 0.14882101E+04</pdfrwt>
<pdfrwt beam="2">  1       -1 0.43761049E-01 0.14882101E+04</pdfrwt>
<totfact> 0.24669847E+01</totfact>
</mgrwt>
</event>
<event>
 8    1  0.3214020E-028  0.1623197E+04  0.7818608E-02  0.8806423E-01
         -1   -1    0    0    0  501 -0.00000000000E+00  0.00000000000E+00  0.16692533015E+03  0.16692533023E+03  0.50400000000E-02 0.  1.
          1   -1    0    0  501    0  0.00000000000E+00 -0.00000000000E+00 -0.39460289624E+04  0.39460289624E+04  0.50400000000E-02 0. -1.
     200001    2    1    2    0    0 -0.14792577418E+03 -0.29335683693E+03 -0.25132092939E+04  0.26295700726E+04  0.70034101925E+03 0.  0.
    5000001    2    3    3    0    0 -0.66617961617E+02 -0.23382015744E+02 -0.88514161923E+03  0.90327296091E+03  0.16565531791E+03 0.  0.
        -13    1    4    4    0    0 -0.45114817795E+02 -0.78108410628E+02 -0.71677956351E+03  0.72243285115E+03  0.10566000000E+00 0. -1.
     200003    1    4    4    0    0 -0.21503143823E+02  0.54726394884E+02 -0.16836205572E+03  0.18084010976E+03  0.30000000000E+02 0. -1.
     200000    1    3    3    0    0 -0.81307812566E+02 -0.26997482119E+03 -0.16280676747E+04  0.17262971117E+04  0.50000000000E+03 0. -1.
    -200001    1    1    2    0    0  0.14792577418E+03  0.29335683693E+03 -0.12658943384E+04  0.14833842201E+04  0.70000000000E+03 0.  1.
<mgrwt>
<rscale>  0 0.16231971E+04</rscale>
<asrwt>0</asrwt>
<pdfrwt beam="1">  1        1 0.56371836E+00 0.16231971E+04</pdfrwt>
<pdfrwt beam="2">  1       -1 0.23846478E-01 0.16231971E+04</pdfrwt>
<totfact> 0.27190474E+00</totfact>
</mgrwt>
</event>
<event>
 8    1  0.3214020E-028  0.2403488E+04  0.7818608E-02  0.8438199E-01
          1   -1    0    0  501    0  0.00000000000E+00  0.00000000000E+00  0.25639233964E+04  0.25639233964E+04  0.50400000000E-02 0.  1.
         -1   -1    0    0    0  501 -0.00000000000E+00 -0.00000000000E+00 -0.56327283950E+03  0.56327283952E+03  0.50400000000E-02 0. -1.
     200001    2    1    2    0    0 -0.11211450793E+03  0.89958295675E+03  0.52714871551E+03  0.12609093246E+04  0.70013384260E+03 0.  0.
    5000001    2    3    3    0    0  0.76814032700E+02  0.21707369339E+03  0.57020721057E+02  0.27473833574E+03  0.13859439567E+03 0.  0.
        -13    1    4    4    0    0  0.10788014558E+03  0.12057602044E+03  0.21525315237E+02  0.16321780808E+03  0.10566000000E+00 0. -1.
     200003    1    4    4    0    0 -0.31066112878E+02  0.96497672952E+02  0.35495405820E+02  0.11152052766E+03  0.30000000000E+02 0. -1.
     200000    1    3    3    0    0 -0.18892854063E+03  0.68250926336E+03  0.47012799445E+03  0.98617098883E+03  0.50000000000E+03 0.  1.
    -200001    1    1    2    0    0  0.11211450793E+03 -0.89958295675E+03  0.14735018414E+04  0.18662869114E+04  0.70000000000E+03 0.  1.
<mgrwt>
<rscale>  0 0.24034878E+04</rscale>
<asrwt>0</asrwt>
<pdfrwt beam="1">  1        1 0.36627477E+00 0.24034878E+04</pdfrwt>
<pdfrwt beam="2">  1       -1 0.80467549E-01 0.24034878E+04</pdfrwt>
<totfact> 0.22712632E+00</totfact>
</mgrwt>
</event>
<event>
 8    1  0.3214020E-028  0.1697420E+04  0.7818608E-02  0.8762837E-01
         -1   -1    0    0    0  501 -0.00000000000E+00  0.00000000000E+00  0.88448729705E+03  0.88448729706E+03  0.50400000000E-02 0. -1.
          1   -1    0    0  501    0  0.00000000000E+00 -0.00000000000E+00 -0.81438021966E+03  0.81438021967E+03  0.50400000000E-02 0.  1.
     200001    2    1    2    0    0 -0.67404638087E+02  0.44960427626E+03  0.18962076787E+03  0.85567660557E+03  0.69967065627E+03 0.  0.
    5000001    2    3    3    0    0 -0.11799294133E+03  0.10104999082E+03  0.54761707132E+02  0.22938894596E+03  0.15964651299E+03 0.  0.
        -13    1    4    4    0    0  0.35562049315E+02  0.36111335985E+02  0.27957658900E+02  0.57882033424E+02  0.10566000000E+00 0. -1.
     200003    1    4    4    0    0 -0.15355499065E+03  0.64938654839E+02  0.26804048232E+02  0.17150691253E+03  0.30000000000E+02 0. -1.
     200000    1    3    3    0    0  0.50588303245E+02  0.34855428543E+03  0.13485906074E+03  0.62628765961E+03  0.50000000000E+03 0.  1.
    -200001    1    1    2    0    0  0.67404638087E+02 -0.44960427626E+03 -0.11951369048E+03  0.84319091117E+03  0.70000000000E+03 0.  1.
<mgrwt>
<rscale>  0 0.16974203E+04</rscale>
<asrwt>0</asrwt>
<pdfrwt beam="1">  1        1 0.11634003E+00 0.16974203E+04</pdfrwt>
<pdfrwt beam="2">  1       -1 0.12635533E+00 0.16974203E+04</pdfrwt>
<totfact> 0.12582182E+01</totfact>
</mgrwt>
</event>
<event>
 8    1  0.3214020E-028  0.2440773E+04  0.7818608E-02  0.8424395E-01
         -1   -1    0    0    0  501 -0.00000000000E+00  0.00000000000E+00  0.62229975394E+03  0.62229975396E+03  0.50400000000E-02 0.  1.
          1   -1    0    0  501    0  0.00000000000E+00 -0.00000000000E+00 -0.23932888580E+04  0.23932888580E+04  0.50400000000E-02 0. -1.
     200001    2    1    2    0    0 -0.65333766832E+02  0.11556117201E+03  0.33990320530E+03  0.78769964991E+03  0.69807855140E+03 0.  0.
    5000001    2    3    3    0    0 -0.11346501598E+03  0.96763961447E+02  0.16162739122E+02  0.18980514273E+03  0.11630642280E+03 0.  0.
        -13    1    4    4    0    0 -0.26294429076E+02 -0.18313303086E+02 -0.20275689482E+02  0.37919504459E+02  0.10566000000E+00 0. -1.
     200003    1    4    4    0    0 -0.87170586907E+02  0.11507726453E+03  0.36438428604E+02  0.15188563827E+03  0.30000000000E+02 0. -1.
     200000    1    3    3    0    0  0.48131249152E+02  0.18797210566E+02  0.32374046618E+03  0.59789450718E+03  0.50000000000E+03 0.  1.
    -200001    1    1    2    0    0  0.65333766832E+02 -0.11556117201E+03 -0.21108923094E+04  0.22278889621E+04  0.70000000000E+03 0. -1.
<mgrwt>
<rscale>  0 0.24407729E+04</rscale>
<asrwt>0</asrwt>
<pdfrwt beam="1">  1        1 0.34189841E+00 0.24407729E+04</pdfrwt>
<pdfrwt beam="2">  1       -1 0.88899966E-01 0.24407729E+04</pdfrwt>
<totfact> 0.23429187E+00</totfact>
</mgrwt>
</event>
<event>
 8    1  0.3214020E-028  0.2786785E+04  0.7818608E-02  0.8307383E-01
         -1   -1    0    0    0  501 -0.00000000000E+00  0.00000000000E+00  0.16379179703E+04  0.16379179703E+04  0.50400000000E-02 0. -1.
          1   -1    0    0  501    0  0.00000000000E+00 -0.00000000000E+00 -0.11853724639E+04  0.11853724639E+04  0.50400000000E-02 0.  1.
     200001    2    1    2    0    0 -0.13875450429E+03 -0.11275275978E+04  0.63270511714E+03  0.14768028621E+04  0.70004259303E+03 0.  0.
    5000001    2    3    3    0    0  0.44496859942E+02 -0.19144282521E+03  0.16780947137E+03  0.30378806024E+03  0.15967730270E+03 0.  0.
        -13    1    4    4    0    0 -0.38455120046E+02 -0.39340936892E+02 -0.74671351740E+01  0.55518238851E+02  0.10566000000E+00 0. -1.
     200003    1    4    4    0    0  0.82951979988E+02 -0.15210188832E+03  0.17527660654E+03  0.24826982139E+03  0.30000000000E+02 0. -1.
     200000    1    3    3    0    0 -0.18325136423E+03 -0.93608477261E+03  0.46489564578E+03  0.11730148019E+04  0.50000000000E+03 0.  1.
    -200001    1    1    2    0    0  0.13875450429E+03  0.11275275978E+04 -0.18015961071E+03  0.13464875720E+04  0.70000000000E+03 0. -1.
<mgrwt>
<rscale>  0 0.27867851E+04</rscale>
<asrwt>0</asrwt>
<pdfrwt beam="1">  1        1 0.16933892E+00 0.27867851E+04</pdfrwt>
<pdfrwt beam="2">  1       -1 0.23398828E+00 0.27867851E+04</pdfrwt>
<totfact> 0.98176288E-01</totfact>
</mgrwt>
</event>
<event>
 8    1  0.3214020E-028  0.2322564E+04  0.7818608E-02  0.8469077E-01
          1   -1    0    0  501    0  0.00000000000E+00  0.00000000000E+00  0.18374162526E+04  0.18374162526E+04  0.50400000000E-02 0.  1.
         -1   -1    0    0    0  501 -0.00000000000E+00 -0.00000000000E+00 -0.73395244160E+03  0.73395244162E+03  0.50400000000E-02 0. -1.
     200001    2    1    2    0    0 -0.32744916223E+03  0.68864321440E+03  0.11344479297E+04  0.15357952076E+04  0.70017310988E+03 0.  0.
    5000001    2    3    3    0    0 -0.12727921263E+03  0.18666450669E+03  0.33228500942E+03  0.44698118194E+03  0.19579380353E+03 0.  0.
        -13    1    4    4    0    0 -0.12433784689E+03  0.10822487120E+03  0.84301188461E+02  0.18514649458E+03  0.10566000000E+00 0. -1.
     200003    1    4    4    0    0 -0.29413657367E+01  0.78439635490E+02  0.24798382096E+03  0.26183468736E+03  0.30000000000E+02 0. -1.
     200000    1    3    3    0    0 -0.20016994960E+03  0.50197870772E+03  0.80216292026E+03  0.10888140256E+04  0.50000000000E+03 0. -1.
    -200001    1    1    2    0    0  0.32744916223E+03 -0.68864321440E+03 -0.30984118724E+02  0.10355734866E+04  0.70000000000E+03 0. -1.
<mgrwt>
<rscale>  0 0.23225642E+04</rscale>
<asrwt>0</asrwt>
<pdfrwt beam="1">  1        1 0.26248803E+00 0.23225642E+04</pdfrwt>
<pdfrwt beam="2">  1       -1 0.10485035E+00 0.23225642E+04</pdfrwt>
<totfact> 0.36562264E+00</totfact>
</mgrwt>
</event>
<event>
 8    1  0.3214020E-028  0.2348402E+04  0.7818608E-02  0.8459078E-01
          1   -1    0    0  501    0  0.00000000000E+00  0.00000000000E+00  0.23442065631E+04  0.23442065631E+04  0.50400000000E-02 0.  1.
         -1   -1    0    0    0  501 -0.00000000000E+00 -0.00000000000E+00 -0.58815114078E+03  0.58815114080E+03  0.50400000000E-02 0. -1.
     200001    2    1    2    0    0  0.90276386218E+03 -0.26665444411E+03  0.93980456992E+03  0.15032486677E+04  0.70031189038E+03 0.  0.
    5000001    2    3    3    0    0  0.12191821226E+03 -0.91161800538E+02  0.17989877173E+03  0.29164872584E+03  0.17181643359E+03 0.  0.
        -13    1    4    4    0    0 -0.11849252275E+02  0.11658093573E+02 -0.21522259184E+02  0.27194387834E+02  0.10566000000E+00 0. -1.
     200003    1    4    4    0    0  0.13376746454E+03 -0.10281989411E+03  0.20142103091E+03  0.26445433800E+03  0.30000000000E+02 0. -1.
     200000    1    3    3    0    0  0.78084564992E+03 -0.17549264357E+03  0.75990579819E+03  0.12115999418E+04  0.50000000000E+03 0.  1.
    -200001    1    1    2    0    0 -0.90276386218E+03  0.26665444411E+03  0.81625085242E+03  0.14291090363E+04  0.70000000000E+03 0. -1.
<mgrwt>
<rscale>  0 0.23484018E+04</rscale>
<asrwt>0</asrwt>
<pdfrwt beam="1">  1        1 0.33488665E+00 0.23484018E+04</pdfrwt>
<pdfrwt beam="2">  1       -1 0.84021592E-01 0.23484018E+04</pdfrwt>
<totfact> 0.28688015E+00</totfact>
</mgrwt>
</event>
<event>
 8    1  0.3214020E-028  0.1568451E+04  0.7818608E-02  0.8840168E-01
          1   -1    0    0  501    0  0.00000000000E+00  0.00000000000E+00  0.14871605790E+04  0.14871605790E+04  0.50400000000E-02 0.  1.
         -1   -1    0    0    0  501 -0.00000000000E+00 -0.00000000000E+00 -0.41354611186E+03  0.41354611189E+03  0.50400000000E-02 0. -1.
     200001    2    1    2    0    0 -0.24183231479E+03 -0.25772680030E+03  0.52931912468E+03  0.94615790121E+03  0.70009289827E+03 0.  0.
    5000001    2    3    3    0    0 -0.57292360080E+02 -0.40479523453E+02  0.10630901210E+03  0.23188279348E+03  0.19377052798E+03 0.  0.
        -13    1    4    4    0    0 -0.31781834786E+02 -0.11552024674E+03  0.75979836139E+02  0.14187303864E+03  0.10566000000E+00 0. -1.
     200003    1    4    4    0    0 -0.25510525293E+02  0.75040723285E+02  0.30329175959E+02  0.90009754839E+02  0.30000000000E+02 0. -1.
     200000    1    3    3    0    0 -0.18453995471E+03 -0.21724727685E+03  0.42301011258E+03  0.71427510773E+03  0.50000000000E+03 0.  1.
    -200001    1    1    2    0    0  0.24183231479E+03  0.25772680030E+03  0.54429534247E+03  0.95454878970E+03  0.70000000000E+03 0.  1.
<mgrwt>
<rscale>  0 0.15684508E+04</rscale>
<asrwt>0</asrwt>
<pdfrwt beam="1">  1        1 0.21245151E+00 0.15684508E+04</pdfrwt>
<pdfrwt beam="2">  1       -1 0.59078017E-01 0.15684508E+04</pdfrwt>
<totfact> 0.22187756E+01</totfact>
</mgrwt>
</event>
<event>
 8    1  0.3214020E-028  0.2326754E+04  0.7818608E-02  0.8467446E-01
          1   -1    0    0  501    0  0.00000000000E+00  0.00000000000E+00  0.16241813866E+04  0.16241813866E+04  0.50400000000E-02 0.  1.
         -1   -1    0    0    0  501 -0.00000000000E+00 -0.00000000000E+00 -0.83330968851E+03  0.83330968853E+03  0.50400000000E-02 0. -1.
     200001    2    1    2    0    0 -0.17674825773E+03 -0.83443422822E+03  0.78477237994E+03  0.13540611365E+04  0.70006674339E+03 0.  0.
    5000001    2    3    3    0    0 -0.12152654962E+02 -0.99868511666E+02  0.87032023358E+02  0.21234308478E+03  0.16551013842E+03 0.  0.
        -13    1    4    4    0    0 -0.52300770267E+02  0.24928746043E+02  0.15303116969E+02  0.59925032356E+02  0.10566000000E+00 0. -1.
     200003    1    4    4    0    0  0.40148115306E+02 -0.12479725771E+03  0.71728906389E+02  0.15241805243E+03  0.30000000000E+02 0. -1.
     200000    1    3    3    0    0 -0.16459560277E+03 -0.73456571656E+03  0.69774035658E+03  0.11417180517E+04  0.50000000000E+03 0. -1.
    -200001    1    1    2    0    0  0.17674825773E+03  0.83443422822E+03  0.60993181641E+01  0.11034299387E+04  0.70000000000E+03 0. -1.
<mgrwt>
<rscale>  0 0.23267540E+04</rscale>
<asrwt>0</asrwt>
<pdfrwt beam="1">  1        1 0.23202591E+00 0.23267540E+04</pdfrwt>
<pdfrwt beam="2">  1       -1 0.11904424E+00 0.23267540E+04</pdfrwt>
<totfact> 0.36965179E+00</totfact>
</mgrwt>
</event>
<event>
 8    1  0.3214020E-028  0.3048398E+04  0.7818608E-02  0.8230044E-01
          1   -1    0    0  501    0  0.00000000000E+00  0.00000000000E+00  0.12526979771E+04  0.12526979771E+04  0.50400000000E-02 0.  1.
         -1   -1    0    0    0  501 -0.00000000000E+00 -0.00000000000E+00 -0.18545429186E+04  0.18545429186E+04  0.50400000000E-02 0. -1.
     200001    2    1    2    0    0  0.37252325766E+03 -0.18456162315E+03 -0.16141517699E+04  0.18081636521E+04  0.70080902285E+03 0.  0.
    5000001    2    3    3    0    0  0.16031726014E+03  0.76273116660E+01 -0.36031824157E+03  0.42828449484E+03  0.16684895424E+03 0.  0.
        -13    1    4    4    0    0  0.80818656948E+02  0.61999549165E+02 -0.77434338557E+02  0.12795189471E+03  0.10566000000E+00 0. -1.
     200003    1    4    4    0    0  0.79498603195E+02 -0.54372237499E+02 -0.28288390301E+03  0.30033260013E+03  0.30000000000E+02 0. -1.
     200000    1    3    3    0    0  0.21220599752E+03 -0.19218893481E+03 -0.12538335283E+04  0.13798791573E+04  0.50000000000E+03 0. -1.
    -200001    1    1    2    0    0 -0.37252325766E+03  0.18456162315E+03  0.10123068284E+04  0.12990772436E+04  0.70000000000E+03 0.  1.
<mgrwt>
<rscale>  0 0.30483977E+04</rscale>
<asrwt>0</asrwt>
<pdfrwt beam="1">  1        1 0.17895686E+00 0.30483977E+04</pdfrwt>
<pdfrwt beam="2">  1       -1 0.26493470E+00 0.30483977E+04</pdfrwt>
<totfact> 0.54140167E-01</totfact>
</mgrwt>
</event>
<event>
 8    1  0.3214020E-028  0.2744048E+04  0.7818608E-02  0.8320853E-01
         -1   -1    0    0    0  501 -0.00000000000E+00  0.00000000000E+00  0.56366326928E+03  0.56366326930E+03  0.50400000000E-02 0. -1.
          1   -1    0    0  501    0  0.00000000000E+00 -0.00000000000E+00 -0.33396715453E+04  0.33396715453E+04  0.50400000000E-02 0.  1.
     200001    2    1    2    0    0 -0.27038591012E+03 -0.43268926247E+03 -0.29014223985E+04  0.30280878550E+04  0.70052522084E+03 0.  0.
    5000001    2    3    3    0    0 -0.90346700508E+02 -0.68919653730E+02 -0.80273235709E+03  0.83281057525E+03  0.19047774715E+03 0.  0.
        -13    1    4    4    0    0 -0.34321169179E+02  0.64136776327E+02 -0.31415793421E+03  0.32246966915E+03  0.10566000000E+00 0. -1.
     200003    1    4    4    0    0 -0.56025531329E+02 -0.13305643006E+03 -0.48857442288E+03  0.51034090609E+03  0.30000000000E+02 0. -1.
     200000    1    3    3    0    0 -0.18003920961E+03 -0.36376960874E+03 -0.20986900414E+04  0.21952772798E+04  0.50000000000E+03 0.  1.
    -200001    1    1    2    0    0  0.27038591012E+03  0.43268926247E+03  0.12541412241E+03  0.87524695964E+03  0.70000000000E+03 0. -1.
<mgrwt>
<rscale>  0 0.27440482E+04</rscale>
<asrwt>0</asrwt>
<pdfrwt beam="1">  1        1 0.47709593E+00 0.27440482E+04</pdfrwt>
<pdfrwt beam="2">  1       -1 0.80523326E-01 0.27440482E+04</pdfrwt>
<totfact> 0.67753999E-01</totfact>
</mgrwt>
</event>
<event>
 8    1  0.3214020E-028  0.1628687E+04  0.7818608E-02  0.8803116E-01
         -1   -1    0    0    0  501 -0.00000000000E+00  0.00000000000E+00  0.33613982735E+03  0.33613982739E+03  0.50400000000E-02 0. -1.
          1   -1    0    0  501    0  0.00000000000E+00 -0.00000000000E+00 -0.19728556928E+04  0.19728556928E+04  0.50400000000E-02 0.  1.
     200001    2    1    2    0    0 -0.24420460382E+03  0.33478439043E+03 -0.86610432656E+03  0.11884783983E+04  0.70044822942E+03 0.  0.
    5000001    2    3    3    0    0 -0.79491031809E+02  0.49103649105E+02 -0.23071131356E+03  0.31528407413E+03  0.19351058033E+03 0.  0.
        -13    1    4    4    0    0 -0.74637709037E+02 -0.49754895924E+01 -0.24105484273E+03  0.25239451554E+03  0.10566000000E+00 0. -1.
     200003    1    4    4    0    0 -0.48533227719E+01  0.54079138697E+02  0.10343529165E+02  0.62889558591E+02  0.30000000000E+02 0. -1.
     200000    1    3    3    0    0 -0.16471357201E+03  0.28568074132E+03 -0.63539301300E+03  0.87319432415E+03  0.50000000000E+03 0.  1.
    -200001    1    1    2    0    0  0.24420460382E+03 -0.33478439043E+03 -0.77061153884E+03  0.11205171219E+04  0.70000000000E+03 0.  1.
<mgrwt>
<rscale>  0 0.16286870E+04</rscale>
<asrwt>0</asrwt>
<pdfrwt beam="1">  1        1 0.28183652E+00 0.16286870E+04</pdfrwt>
<pdfrwt beam="2">  1       -1 0.48019976E-01 0.16286870E+04</pdfrwt>
<totfact> 0.16114123E+01</totfact>
</mgrwt>
</event>
<event>
 8    1  0.3214020E-028  0.1688927E+04  0.7818608E-02  0.8767705E-01
          1   -1    0    0  501    0  0.00000000000E+00  0.00000000000E+00  0.76117449351E+03  0.76117449352E+03  0.50400000000E-02 0. -1.
         -1   -1    0    0    0  501 -0.00000000000E+00 -0.00000000000E+00 -0.93686656414E+03  0.93686656415E+03  0.50400000000E-02 0.  1.
     200001    2    1    2    0    0  0.49285010602E+02 -0.33667035674E+03  0.23966952944E+03  0.81582725128E+03  0.70168132312E+03 0.  0.
    5000001    2    3    3    0    0  0.50267543233E+02 -0.73135975855E+02  0.82516871782E+02  0.22918571415E+03  0.19452855979E+03 0.  0.
        -13    1    4    4    0    0  0.96127623950E+02 -0.61379261562E+02 -0.16664424897E+02  0.11526338559E+03  0.10566000000E+00 0. -1.
     200003    1    4    4    0    0 -0.45860080717E+02 -0.11756714293E+02  0.99181296679E+02  0.11392232856E+03  0.30000000000E+02 0. -1.
     200000    1    3    3    0    0 -0.98253263117E+00 -0.26353438088E+03  0.15715265766E+03  0.58664153713E+03  0.50000000000E+03 0. -1.
    -200001    1    1    2    0    0 -0.49285010602E+02  0.33667035674E+03 -0.41536160007E+03  0.88221380639E+03  0.70000000000E+03 0.  1.
<mgrwt>
<rscale>  0 0.16889274E+04</rscale>
<asrwt>0</asrwt>
<pdfrwt beam="1">  1        1 0.10873921E+00 0.16889274E+04</pdfrwt>
<pdfrwt beam="2">  1       -1 0.13383808E+00 0.16889274E+04</pdfrwt>
<totfact> 0.12084807E+01</totfact>
</mgrwt>
</event>
<event>
 8    1  0.3214020E-028  0.1686341E+04  0.7818608E-02  0.8769193E-01
         -1   -1    0    0    0  501 -0.00000000000E+00  0.00000000000E+00  0.33971295747E+03  0.33971295750E+03  0.50400000000E-02 0. -1.
          1   -1    0    0  501    0  0.00000000000E+00 -0.00000000000E+00 -0.20927576250E+04  0.20927576250E+04  0.50400000000E-02 0.  1.
     200001    2    1    2    0    0  0.19249341996E+03 -0.10344562509E+02 -0.14946081919E+04  0.16617889760E+04  0.70037720309E+03 0.  0.
    5000001    2    3    3    0    0 -0.25536912916E+02 -0.73593292761E+02 -0.46535384895E+03  0.49521187588E+03  0.15037450123E+03 0.  0.
        -13    1    4    4    0    0 -0.18472813432E+02 -0.13681941138E+02 -0.40223185531E+03  0.40288821892E+03  0.10566000000E+00 0. -1.
     200003    1    4    4    0    0 -0.70640994838E+01 -0.59911351623E+02 -0.63121993639E+02  0.92323656967E+02  0.30000000000E+02 0. -1.
     200000    1    3    3    0    0  0.21803033288E+03  0.63248730252E+02 -0.10292543430E+04  0.11665771001E+04  0.50000000000E+03 0.  1.
    -200001    1    1    2    0    0 -0.19249341996E+03  0.10344562509E+02 -0.25843647559E+03  0.77068160651E+03  0.70000000000E+03 0. -1.
<mgrwt>
<rscale>  0 0.16863415E+04</rscale>
<asrwt>0</asrwt>
<pdfrwt beam="1">  1        1 0.29896537E+00 0.16863415E+04</pdfrwt>
<pdfrwt beam="2">  1       -1 0.48530424E-01 0.16863415E+04</pdfrwt>
<totfact> 0.13211393E+01</totfact>
</mgrwt>
</event>
<event>
 8    1  0.3214020E-028  0.1717622E+04  0.7818608E-02  0.8751377E-01
         -1   -1    0    0    0  501 -0.00000000000E+00  0.00000000000E+00  0.76845610119E+03  0.76845610121E+03  0.50400000000E-02 0. -1.
          1   -1    0    0  501    0  0.00000000000E+00 -0.00000000000E+00 -0.95978932868E+03  0.95978932869E+03  0.50400000000E-02 0.  1.
     200001    2    1    2    0    0  0.32615728014E+03 -0.36547040588E+03 -0.10886052877E+02  0.85502817642E+03  0.70071926430E+03 0.  0.
    5000001    2    3    3    0    0  0.67658545988E+02 -0.11232424649E+03  0.37421744291E+02  0.23596580732E+03  0.19257481684E+03 0.  0.
        -13    1    4    4    0    0  0.10695058283E+03 -0.11565890775E+03 -0.21489836764E+02  0.15898815792E+03  0.10566000000E+00 0. -1.
     200003    1    4    4    0    0 -0.39292036845E+02  0.33346612516E+01  0.58911581055E+02  0.76977649403E+02  0.30000000000E+02 0. -1.
     200000    1    3    3    0    0  0.25849873415E+03 -0.25314615938E+03 -0.48307797168E+02  0.61906236910E+03  0.50000000000E+03 0. -1.
    -200001    1    1    2    0    0 -0.32615728014E+03  0.36547040588E+03 -0.18044717461E+03  0.87321725348E+03  0.70000000000E+03 0.  1.
<mgrwt>
<rscale>  0 0.17176216E+04</rscale>
<asrwt>0</asrwt>
<pdfrwt beam="1">  1        1 0.13711276E+00 0.17176216E+04</pdfrwt>
<pdfrwt beam="2">  1       -1 0.10977944E+00 0.17176216E+04</pdfrwt>
<totfact> 0.13531205E+01</totfact>
</mgrwt>
</event>
<event>
 8    1  0.3214020E-028  0.1460875E+04  0.7818608E-02  0.8910895E-01
         -1   -1    0    0    0  501 -0.00000000000E+00  0.00000000000E+00  0.24571550283E+03  0.24571550288E+03  0.50400000000E-02 0. -1.
          1   -1    0    0  501    0  0.00000000000E+00 -0.00000000000E+00 -0.21713700940E+04  0.21713700940E+04  0.50400000000E-02 0.  1.
     200001    2    1    2    0    0  0.18591949705E+03  0.93563817839E+01 -0.80913315295E+03  0.10861935189E+04  0.70033299224E+03 0.  0.
    5000001    2    3    3    0    0  0.12341185214E+03 -0.54589154990E+02 -0.13699128165E+03  0.24371447910E+03  0.14973201054E+03 0.  0.
        -13    1    4    4    0    0  0.13596067598E+03 -0.72964170269E+02 -0.13702809043E+03  0.20636323386E+03  0.10566000000E+00 0. -1.
     200003    1    4    4    0    0 -0.12548823835E+02  0.18375015279E+02  0.36808781094E-01  0.37351245241E+02  0.30000000000E+02 0. -1.
     200000    1    3    3    0    0  0.62507644907E+02  0.63945536774E+02 -0.67214187130E+03  0.84247903980E+03  0.50000000000E+03 0. -1.
    -200001    1    1    2    0    0 -0.18591949705E+03 -0.93563817839E+01 -0.11165214382E+04  0.13308920780E+04  0.70000000000E+03 0.  1.
<mgrwt>
<rscale>  0 0.14608755E+04</rscale>
<asrwt>0</asrwt>
<pdfrwt beam="1">  1        1 0.31019572E+00 0.14608755E+04</pdfrwt>
<pdfrwt beam="2">  1       -1 0.35102216E-01 0.14608755E+04</pdfrwt>
<totfact> 0.21803476E+01</totfact>
</mgrwt>
</event>
<event>
 8    1  0.3214020E-028  0.1493593E+04  0.7818608E-02  0.8888724E-01
          1   -1    0    0  501    0  0.00000000000E+00  0.00000000000E+00  0.12275355260E+04  0.12275355260E+04  0.50400000000E-02 0. -1.
         -1   -1    0    0    0  501 -0.00000000000E+00 -0.00000000000E+00 -0.45432924571E+03  0.45432924574E+03  0.50400000000E-02 0.  1.
     200001    2    1    2    0    0 -0.58897252126E+02  0.22888492566E+03  0.26490672300E+03  0.78507848984E+03  0.70022529790E+03 0.  0.
    5000001    2    3    3    0    0  0.29519757393E+02 -0.91068963478E+02  0.40438656958E+02  0.14431802647E+03  0.10013708405E+03 0.  0.
        -13    1    4    4    0    0 -0.26441546562E+02 -0.48998596070E+02 -0.45369608175E+01  0.55862446947E+02  0.10566000000E+00 0. -1.
     200003    1    4    4    0    0  0.55961303955E+02 -0.42070367409E+02  0.44975617775E+02  0.88455579521E+02  0.30000000000E+02 0. -1.
     200000    1    3    3    0    0 -0.88417009519E+02  0.31995388913E+03  0.22446806604E+03  0.64076046337E+03  0.50000000000E+03 0.  1.
    -200001    1    1    2    0    0  0.58897252126E+02 -0.22888492566E+03  0.50829955731E+03  0.89678628193E+03  0.70000000000E+03 0. -1.
<mgrwt>
<rscale>  0 0.14935934E+04</rscale>
<asrwt>0</asrwt>
<pdfrwt beam="1">  1        1 0.17536222E+00 0.14935934E+04</pdfrwt>
<pdfrwt beam="2">  1       -1 0.64904179E-01 0.14935934E+04</pdfrwt>
<totfact> 0.27633908E+01</totfact>
</mgrwt>
</event>
<event>
 8    1  0.3214020E-028  0.1622098E+04  0.7818608E-02  0.8807086E-01
          1   -1    0    0  501    0  0.00000000000E+00  0.00000000000E+00  0.13783941882E+04  0.13783941882E+04  0.50400000000E-02 0.  1.
         -1   -1    0    0    0  501 -0.00000000000E+00 -0.00000000000E+00 -0.47722218376E+03  0.47722218379E+03  0.50400000000E-02 0. -1.
     200001    2    1    2    0    0  0.12232867841E+03 -0.11146506956E+03  0.87917151130E+03  0.11359825839E+04  0.70008936383E+03 0.  0.
    5000001    2    3    3    0    0 -0.22984658585E+01 -0.40024806746E+02  0.30800062864E+03  0.36340778918E+03  0.18866257153E+03 0.  0.
        -13    1    4    4    0    0  0.16223506252E+02 -0.10451444622E+03  0.11184374488E+03  0.15393344684E+03  0.10566000000E+00 0. -1.
     200003    1    4    4    0    0 -0.18521972110E+02  0.64489639478E+02  0.19615688376E+03  0.20947434234E+03  0.30000000000E+02 0. -1.
     200000    1    3    3    0    0  0.12462714426E+03 -0.71440262819E+02  0.57117088266E+03  0.77257479472E+03  0.50000000000E+03 0.  1.
    -200001    1    1    2    0    0 -0.12232867841E+03  0.11146506956E+03  0.22000493155E+02  0.71963378811E+03  0.70000000000E+03 0. -1.
<mgrwt>
<rscale>  0 0.16220978E+04</rscale>
<asrwt>0</asrwt>
<pdfrwt beam="1">  1        1 0.19691346E+00 0.16220978E+04</pdfrwt>
<pdfrwt beam="2">  1       -1 0.68174597E-01 0.16220978E+04</pdfrwt>
<totfact> 0.19558721E+01</totfact>
</mgrwt>
</event>
<event>
 8    1  0.3214020E-028  0.2001169E+04  0.7818608E-02  0.8606074E-01
         -1   -1    0    0    0  501 -0.00000000000E+00  0.00000000000E+00  0.10882959944E+04  0.10882959944E+04  0.50400000000E-02 0. -1.
          1   -1    0    0  501    0  0.00000000000E+00 -0.00000000000E+00 -0.91994209718E+03  0.91994209720E+03  0.50400000000E-02 0.  1.
     200001    2    1    2    0    0 -0.57609048834E+02  0.34394071961E+03  0.71054193843E+03  0.10566174250E+04  0.69996893886E+03 0.  0.
    5000001    2    3    3    0    0  0.33760586383E+02  0.63915782763E+02  0.23742038010E+03  0.30788089958E+03  0.18220100702E+03 0.  0.
        -13    1    4    4    0    0  0.98334608127E+02  0.71941842061E+02  0.17250297090E+03  0.21119329992E+03  0.10566000000E+00 0. -1.
     200003    1    4    4    0    0 -0.64574021744E+02 -0.80260592978E+01  0.64917409199E+02  0.96687599666E+02  0.30000000000E+02 0. -1.
     200000    1    3    3    0    0 -0.91369635216E+02  0.28002493684E+03  0.47312155833E+03  0.74873652539E+03  0.50000000000E+03 0. -1.
    -200001    1    1    2    0    0  0.57609048834E+02 -0.34394071961E+03 -0.54218804123E+03  0.95162066663E+03  0.70000000000E+03 0.  1.
<mgrwt>
<rscale>  0 0.20011690E+04</rscale>
<asrwt>0</asrwt>
<pdfrwt beam="1">  1        1 0.13142030E+00 0.20011690E+04</pdfrwt>
<pdfrwt beam="2">  1       -1 0.15547085E+00 0.20011690E+04</pdfrwt>
<totfact> 0.58579658E+00</totfact>
</mgrwt>
</event>
<event>
 8    1  0.3214020E-028  0.1629898E+04  0.7818608E-02  0.8802388E-01
         -1   -1    0    0    0  501 -0.00000000000E+00  0.00000000000E+00  0.49999283122E+03  0.49999283125E+03  0.50400000000E-02 0. -1.
          1   -1    0    0  501    0  0.00000000000E+00 -0.00000000000E+00 -0.13283019764E+04  0.13283019764E+04  0.50400000000E-02 0.  1.
     200001    2    1    2    0    0 -0.32823526168E+03  0.10118469989E+02 -0.70343322023E+03  0.10450740424E+04  0.69965755077E+03 0.  0.
    5000001    2    3    3    0    0 -0.10637656003E+03  0.72018691451E+02 -0.10837695882E+03  0.23442931434E+03  0.16342849744E+03 0.  0.
        -13    1    4    4    0    0 -0.66081843196E+02  0.11594054102E+02 -0.13558173758E+03  0.15127343065E+03  0.10566000000E+00 0. -1.
     200003    1    4    4    0    0 -0.40294716837E+02  0.60424637349E+02  0.27204778763E+02  0.83155883684E+02  0.30000000000E+02 0. -1.
     200000    1    3    3    0    0 -0.22185870165E+03 -0.61900221461E+02 -0.59505626141E+03  0.81064472807E+03  0.50000000000E+03 0.  1.
    -200001    1    1    2    0    0  0.32823526168E+03 -0.10118469989E+02 -0.12487592492E+03  0.78322076522E+03  0.70000000000E+03 0. -1.
<mgrwt>
<rscale>  0 0.16298975E+04</rscale>
<asrwt>0</asrwt>
<pdfrwt beam="1">  1        1 0.18975742E+00 0.16298975E+04</pdfrwt>
<pdfrwt beam="2">  1       -1 0.71427548E-01 0.16298975E+04</pdfrwt>
<totfact> 0.19191168E+01</totfact>
</mgrwt>
</event>
<event>
 8    1  0.3214020E-028  0.1728367E+04  0.7818608E-02  0.8745349E-01
          1   -1    0    0  501    0  0.00000000000E+00  0.00000000000E+00  0.17939466416E+04  0.17939466416E+04  0.50400000000E-02 0.  1.
         -1   -1    0    0    0  501 -0.00000000000E+00 -0.00000000000E+00 -0.41629633201E+03  0.41629633204E+03  0.50400000000E-02 0. -1.
     200001    2    1    2    0    0  0.48272008696E+03  0.15343109434E+03  0.69697185672E+03  0.11102961844E+04  0.70030569389E+03 0.  0.
    5000001    2    3    3    0    0  0.11477856482E+03 -0.16626450260E+02  0.24790051358E+03  0.32546142251E+03  0.17612471467E+03 0.  0.
        -13    1    4    4    0    0 -0.39115792135E+02 -0.32343261821E+02  0.40178418835E+02  0.64733671947E+02  0.10566000000E+00 0. -1.
     200003    1    4    4    0    0  0.15389435696E+03  0.15716811561E+02  0.20772209475E+03  0.26072775057E+03  0.30000000000E+02 0. -1.
     200000    1    3    3    0    0  0.36794152214E+03  0.17005754460E+03  0.44907134314E+03  0.78483476186E+03  0.50000000000E+03 0. -1.
    -200001    1    1    2    0    0 -0.48272008696E+03 -0.15343109434E+03  0.68067845291E+03  0.10999467893E+04  0.70000000000E+03 0. -1.
<mgrwt>
<rscale>  0 0.17283673E+04</rscale>
<asrwt>0</asrwt>
<pdfrwt beam="1">  1        1 0.25627809E+00 0.17283673E+04</pdfrwt>
<pdfrwt beam="2">  1       -1 0.59470906E-01 0.17283673E+04</pdfrwt>
<totfact> 0.13723070E+01</totfact>
</mgrwt>
</event>
<event>
 8    1  0.3214020E-028  0.1744196E+04  0.7818608E-02  0.8736552E-01
          1   -1    0    0  501    0  0.00000000000E+00  0.00000000000E+00  0.56565434004E+03  0.56565434007E+03  0.50400000000E-02 0.  1.
         -1   -1    0    0    0  501 -0.00000000000E+00 -0.00000000000E+00 -0.13445577957E+04  0.13445577957E+04  0.50400000000E-02 0. -1.
     200001    2    1    2    0    0  0.28725917014E+03  0.38062684996E+03 -0.16540871071E+03  0.86437733436E+03  0.70170756362E+03 0.  0.
    5000001    2    3    3    0    0  0.34466477304E+02  0.60180470816E+02 -0.15405372802E+03  0.21883960263E+03  0.13909922156E+03 0.  0.
        -13    1    4    4    0    0  0.83871322433E+02  0.34311282611E+02 -0.75564275052E+02  0.11798997275E+03  0.10566000000E+00 0. -1.
     200003    1    4    4    0    0 -0.49404845130E+02  0.25869188205E+02 -0.78489452966E+02  0.10084962988E+03  0.30000000000E+02 0. -1.
     200000    1    3    3    0    0  0.25279269284E+03  0.32044637914E+03 -0.11354982690E+02  0.64553773173E+03  0.50000000000E+03 0.  1.
    -200001    1    1    2    0    0 -0.28725917014E+03 -0.38062684996E+03 -0.61349474491E+03  0.10458348014E+04  0.70000000000E+03 0. -1.
<mgrwt>
<rscale>  0 0.17441960E+04</rscale>
<asrwt>0</asrwt>
<pdfrwt beam="1">  1        1 0.80807763E-01 0.17441960E+04</pdfrwt>
<pdfrwt beam="2">  1       -1 0.19207968E+00 0.17441960E+04</pdfrwt>
<totfact> 0.67248374E+00</totfact>
</mgrwt>
</event>
<event>
 8    1  0.3214020E-028  0.1628447E+04  0.7818608E-02  0.8803260E-01
          1   -1    0    0  501    0  0.00000000000E+00  0.00000000000E+00  0.31374843312E+04  0.31374843312E+04  0.50400000000E-02 0.  1.
         -1   -1    0    0    0  501 -0.00000000000E+00 -0.00000000000E+00 -0.21130301938E+03  0.21130301944E+03  0.50400000000E-02 0. -1.
     200001    2    1    2    0    0  0.27614706464E+03  0.29786992793E+03  0.16433556860E+04  0.18320061266E+04  0.70046045001E+03 0.  0.
    5000001    2    3    3    0    0  0.32487999153E+02  0.51848337423E+02  0.27570593135E+03  0.33522216941E+03  0.18060017193E+03 0.  0.
        -13    1    4    4    0    0  0.16164788710E+02 -0.64352508535E+02  0.69568981149E+02  0.96137401936E+02  0.10566000000E+00 0. -1.
     200003    1    4    4    0    0  0.16323210443E+02  0.11620084596E+03  0.20613695020E+03  0.23908476747E+03  0.30000000000E+02 0. -1.
     200000    1    3    3    0    0  0.24365906549E+03  0.24602159051E+03  0.13676497547E+04  0.14967839572E+04  0.50000000000E+03 0.  1.
    -200001    1    1    2    0    0 -0.27614706464E+03 -0.29786992793E+03  0.12828256258E+04  0.15167812240E+04  0.70000000000E+03 0. -1.
<mgrwt>
<rscale>  0 0.16284470E+04</rscale>
<asrwt>0</asrwt>
<pdfrwt beam="1">  1        1 0.44821207E+00 0.16284470E+04</pdfrwt>
<pdfrwt beam="2">  1       -1 0.30186144E-01 0.16284470E+04</pdfrwt>
<totfact> 0.67137461E+00</totfact>
</mgrwt>
</event>
<event>
 8    1  0.4698274E-028  0.2689654E+04  0.7818608E-02  0.8338370E-01
         -1   -1    0    0    0  501 -0.00000000000E+00  0.00000000000E+00  0.15187908769E+04  0.15187908769E+04  0.50400000000E-02 0.  1.
          1   -1    0    0  501    0  0.00000000000E+00 -0.00000000000E+00 -0.11907890277E+04  0.11907890277E+04  0.50400000000E-02 0. -1.
     200001    2    1    2    0    0 -0.55755267418E+03 -0.99516880190E+03  0.49452138524E+02  0.13425335008E+04  0.70620447327E+03 0.  0.
    5000001    2    3    3    0    0 -0.26431501760E+03 -0.27367549058E+03  0.95047868241E+01  0.41617681335E+03  0.16838080748E+03 0.  0.
        -13    1    4    4    0    0 -0.11110931179E+03 -0.18580250967E+03  0.69304801484E+02  0.22731260070E+03  0.10566000000E+00 0. -1.
     200003    1    4    4    0    0 -0.15320570581E+03 -0.87872980907E+02 -0.59800014660E+02  0.18886421265E+03  0.30000000000E+02 0. -1.
     200000    1    3    3    0    0 -0.29323765659E+03 -0.72149331133E+03  0.39947351699E+02  0.92635668748E+03  0.50000000000E+03 0. -1.
    -200001    1    1    2    0    0  0.55755267418E+03  0.99516880190E+03  0.27854971073E+03  0.13670464038E+04  0.70000000000E+03 0. -1.
<mgrwt>
<rscale>  0 0.26896539E+04</rscale>
<asrwt>0</asrwt>
<pdfrwt beam="1">  1        1 0.17011272E+00 0.26896539E+04</pdfrwt>
<pdfrwt beam="2">  1       -1 0.21697013E+00 0.26896539E+04</pdfrwt>
<totfact> 0.12739543E+00</totfact>
</mgrwt>
</event>
<event>
 8    1  0.3214020E-028  0.1782048E+04  0.7818608E-02  0.8715905E-01
          1   -1    0    0  501    0  0.00000000000E+00  0.00000000000E+00  0.14161973162E+04  0.14161973162E+04  0.50400000000E-02 0.  1.
         -1   -1    0    0    0  501 -0.00000000000E+00 -0.00000000000E+00 -0.56060262199E+03  0.56060262201E+03  0.50400000000E-02 0. -1.
     200001    2    1    2    0    0 -0.36170857063E+02 -0.43850116380E+03  0.60388441716E+02  0.82965365916E+03  0.70077587623E+03 0.  0.
    5000001    2    3    3    0    0 -0.84335641596E+02 -0.14714973478E+03 -0.41876607264E+02  0.24002357012E+03  0.16459683802E+03 0.  0.
        -13    1    4    4    0    0  0.23548103413E+02 -0.77747970619E+02 -0.67734313242E+02  0.10576960085E+03  0.10566000000E+00 0. -1.
     200003    1    4    4    0    0 -0.10788374501E+03 -0.69401764164E+02  0.25857705978E+02  0.13425396927E+03  0.30000000000E+02 0. -1.
     200000    1    3    3    0    0  0.48164784533E+02 -0.29135142901E+03  0.10226504898E+03  0.58963008904E+03  0.50000000000E+03 0.  1.
    -200001    1    1    2    0    0  0.36170857063E+02  0.43850116380E+03  0.79520625248E+03  0.11471462791E+04  0.70000000000E+03 0.  1.
<mgrwt>
<rscale>  0 0.17820482E+04</rscale>
<asrwt>0</asrwt>
<pdfrwt beam="1">  1        1 0.20231390E+00 0.17820482E+04</pdfrwt>
<pdfrwt beam="2">  1       -1 0.80086090E-01 0.17820482E+04</pdfrwt>
<totfact> 0.13023631E+01</totfact>
</mgrwt>
</event>
<event>
 8    1  0.3214020E-028  0.1439892E+04  0.7818608E-02  0.8925439E-01
         -1   -1    0    0    0  501 -0.00000000000E+00  0.00000000000E+00  0.42569465506E+03  0.42569465509E+03  0.50400000000E-02 0. -1.
          1   -1    0    0  501    0  0.00000000000E+00 -0.00000000000E+00 -0.12175910755E+04  0.12175910755E+04  0.50400000000E-02 0.  1.
     200001    2    1    2    0    0 -0.86343784486E+02 -0.14732701169E+03 -0.39699367813E+03  0.82163576050E+03  0.69879957424E+03 0.  0.
    5000001    2    3    3    0    0 -0.86251141803E+02 -0.87112101303E+02 -0.59985681974E+02  0.21566527154E+03  0.16698936987E+03 0.  0.
        -13    1    4    4    0    0 -0.83576058228E+02 -0.60628281165E+02  0.37816991248E+02  0.10995854663E+03  0.10566000000E+00 0. -1.
     200003    1    4    4    0    0 -0.26750835749E+01 -0.26483820138E+02 -0.97802673221E+02  0.10570672491E+03  0.30000000000E+02 0. -1.
     200000    1    3    3    0    0 -0.92642682505E-01 -0.60214910389E+02 -0.33700799616E+03  0.60597048896E+03  0.50000000000E+03 0.  1.
    -200001    1    1    2    0    0  0.86343784486E+02  0.14732701169E+03 -0.39490274231E+03  0.82164997011E+03  0.70000000000E+03 0.  1.
<mgrwt>
<rscale>  0 0.14398917E+04</rscale>
<asrwt>0</asrwt>
<pdfrwt beam="1">  1        1 0.17394158E+00 0.14398917E+04</pdfrwt>
<pdfrwt beam="2">  1       -1 0.60813523E-01 0.14398917E+04</pdfrwt>
<totfact> 0.32115179E+01</totfact>
</mgrwt>
</event>
<event>
 8    1  0.3214020E-028  0.1567835E+04  0.7818608E-02  0.8840555E-01
         -1   -1    0    0    0  501 -0.00000000000E+00  0.00000000000E+00  0.31348006608E+03  0.31348006612E+03  0.50400000000E-02 0. -1.
          1   -1    0    0  501    0  0.00000000000E+00 -0.00000000000E+00 -0.19603377807E+04  0.19603377807E+04  0.50400000000E-02 0.  1.
     200001    2    1    2    0    0  0.27529878348E+03 -0.14632927395E+03 -0.10620160099E+04  0.13098461169E+04  0.70044069553E+03 0.  0.
    5000001    2    3    3    0    0  0.92940817753E+02 -0.16777348367E+02 -0.35500862511E+03  0.41547618711E+03  0.19408725649E+03 0.  0.
        -13    1    4    4    0    0  0.95518857983E+02 -0.62043951395E+02 -0.90608750258E+02  0.14554470421E+03  0.10566000000E+00 0. -1.
     200003    1    4    4    0    0 -0.25780402306E+01  0.45266603028E+02 -0.26439987485E+03  0.26993148290E+03  0.30000000000E+02 0. -1.
     200000    1    3    3    0    0  0.18235796573E+03 -0.12955192559E+03 -0.70700738483E+03  0.89436992978E+03  0.50000000000E+03 0.  1.
    -200001    1    1    2    0    0 -0.27529878348E+03  0.14632927395E+03 -0.58484170469E+03  0.96397172995E+03  0.70000000000E+03 0.  1.
<mgrwt>
<rscale>  0 0.15678352E+04</rscale>
<asrwt>0</asrwt>
<pdfrwt beam="1">  1        1 0.28004825E+00 0.15678352E+04</pdfrwt>
<pdfrwt beam="2">  1       -1 0.44782868E-01 0.15678352E+04</pdfrwt>
<totfact> 0.18799922E+01</totfact>
</mgrwt>
</event>
<event>
 8    1  0.3214020E-028  0.1831145E+04  0.7818608E-02  0.8689910E-01
          1   -1    0    0  501    0  0.00000000000E+00  0.00000000000E+00  0.13551299384E+04  0.13551299384E+04  0.50400000000E-02 0.  1.
         -1   -1    0    0    0  501 -0.00000000000E+00 -0.00000000000E+00 -0.61859243983E+03  0.61859243985E+03  0.50400000000E-02 0. -1.
     200001    2    1    2    0    0  0.44337310274E+03 -0.25375826667E+03  0.68670926765E+03  0.11057040497E+04  0.70002775743E+03 0.  0.
    5000001    2    3    3    0    0  0.10089666230E+03 -0.77577663355E+02  0.20200552551E+03  0.30992302779E+03  0.19760470769E+03 0.  0.
        -13    1    4    4    0    0  0.15682050628E+03 -0.56055207824E+02  0.15930305272E+03  0.23046112749E+03  0.10566000000E+00 0. -1.
     200003    1    4    4    0    0 -0.55923843973E+02 -0.21522455531E+02  0.42702472786E+02  0.79461900297E+02  0.30000000000E+02 0. -1.
     200000    1    3    3    0    0  0.34247644044E+03 -0.17618060332E+03  0.48470374214E+03  0.79578102194E+03  0.50000000000E+03 0. -1.
    -200001    1    1    2    0    0 -0.44337310274E+03  0.25375826667E+03  0.49828230959E+02  0.86801832857E+03  0.70000000000E+03 0. -1.
<mgrwt>
<rscale>  0 0.18311451E+04</rscale>
<asrwt>0</asrwt>
<pdfrwt beam="1">  1        1 0.19358999E+00 0.18311451E+04</pdfrwt>
<pdfrwt beam="2">  1       -1 0.88370350E-01 0.18311451E+04</pdfrwt>
<totfact> 0.11513131E+01</totfact>
</mgrwt>
</event>
<event>
 8    1  0.3214020E-028  0.1654903E+04  0.7818608E-02  0.8787511E-01
          1   -1    0    0  501    0  0.00000000000E+00  0.00000000000E+00  0.24346945494E+04  0.24346945494E+04  0.50400000000E-02 0.  1.
         -1   -1    0    0    0  501 -0.00000000000E+00 -0.00000000000E+00 -0.28121649050E+03  0.28121649055E+03  0.50400000000E-02 0. -1.
     200001    2    1    2    0    0 -0.41780968296E+03 -0.17054640848E+02  0.84599897263E+03  0.11750160555E+04  0.70006619482E+03 0.  0.
    5000001    2    3    3    0    0 -0.20457169843E+03 -0.11958204596E+02  0.26497164473E+03  0.37934704931E+03  0.17804952360E+03 0.  0.
        -13    1    4    4    0    0 -0.11255744037E+03 -0.65308315922E+02  0.22852707907E+03  0.26298096993E+03  0.10566000000E+00 0. -1.
     200003    1    4    4    0    0 -0.92014258052E+02  0.53350111326E+02  0.36444565656E+02  0.11636607938E+03  0.30000000000E+02 0. -1.
     200000    1    3    3    0    0 -0.21323798453E+03 -0.50964362521E+01  0.58102732790E+03  0.79566900623E+03  0.50000000000E+03 0. -1.
    -200001    1    1    2    0    0  0.41780968296E+03  0.17054640848E+02  0.13074790863E+04  0.15408949844E+04  0.70000000000E+03 0.  1.
<mgrwt>
<rscale>  0 0.16549033E+04</rscale>
<asrwt>0</asrwt>
<pdfrwt beam="1">  1        1 0.34781353E+00 0.16549033E+04</pdfrwt>
<pdfrwt beam="2">  1       -1 0.40173781E-01 0.16549033E+04</pdfrwt>
<totfact> 0.11459821E+01</totfact>
</mgrwt>
</event>
<event>
 8    1  0.3214020E-028  0.2164568E+04  0.7818608E-02  0.8533322E-01
         -1   -1    0    0    0  501 -0.00000000000E+00  0.00000000000E+00  0.64183283250E+03  0.64183283252E+03  0.50400000000E-02 0. -1.
          1   -1    0    0  501    0  0.00000000000E+00 -0.00000000000E+00 -0.18249895046E+04  0.18249895046E+04  0.50400000000E-02 0.  1.
     200001    2    1    2    0    0 -0.15621341114E+03  0.71343732251E+01 -0.15153238269E+04  0.16763866675E+04  0.69972310906E+03 0.  0.
    5000001    2    3    3    0    0 -0.87547982091E+02  0.28905318295E+02 -0.55224438094E+03  0.58886152548E+03  0.18243868372E+03 0.  0.
        -13    1    4    4    0    0 -0.73568949192E+01  0.40878659991E+02 -0.14169702376E+02  0.43885992925E+02  0.10566000000E+00 0. -1.
     200003    1    4    4    0    0 -0.80191087171E+02 -0.11973341696E+02 -0.53807467856E+03  0.54497553255E+03  0.30000000000E+02 0. -1.
     200000    1    3    3    0    0 -0.68665429050E+02 -0.21770945070E+02 -0.96307944596E+03  0.10875251420E+04  0.50000000000E+03 0.  1.
    -200001    1    1    2    0    0  0.15621341114E+03 -0.71343732251E+01  0.33216715483E+03  0.79043566965E+03  0.70000000000E+03 0. -1.
<mgrwt>
<rscale>  0 0.21645676E+04</rscale>
<asrwt>0</asrwt>
<pdfrwt beam="1">  1        1 0.26071278E+00 0.21645676E+04</pdfrwt>
<pdfrwt beam="2">  1       -1 0.91690405E-01 0.21645676E+04</pdfrwt>
<totfact> 0.51184382E+00</totfact>
</mgrwt>
</event>
<event>
 8    1  0.3214020E-028  0.2779347E+04  0.7818608E-02  0.8309709E-01
         -1   -1    0    0    0  501 -0.00000000000E+00  0.00000000000E+00  0.14937249278E+04  0.14937249278E+04  0.50400000000E-02 0.  1.
          1   -1    0    0  501    0  0.00000000000E+00 -0.00000000000E+00 -0.12928706011E+04  0.12928706011E+04  0.50400000000E-02 0. -1.
     200001    2    1    2    0    0  0.25837682691E+03 -0.92135254622E+03 -0.62668042966E+03  0.13407522207E+04  0.69945625825E+03 0.  0.
    5000001    2    3    3    0    0  0.13629131894E+03 -0.35476462171E+03 -0.12847333224E+03  0.42744117871E+03  0.14753746548E+03 0.  0.
        -13    1    4    4    0    0  0.64675788241E+02 -0.11050009585E+03  0.22464258392E+02  0.12999185681E+03  0.10566000000E+00 0. -1.
     200003    1    4    4    0    0  0.71615530702E+02 -0.24426452587E+03 -0.15093759063E+03  0.29744932190E+03  0.30000000000E+02 0. -1.
     200000    1    3    3    0    0  0.12208550797E+03 -0.56658792451E+03 -0.49820709742E+03  0.91331104196E+03  0.50000000000E+03 0. -1.
    -200001    1    1    2    0    0 -0.25837682691E+03  0.92135254622E+03  0.82753475639E+03  0.14458433083E+04  0.70000000000E+03 0.  1.
<mgrwt>
<rscale>  0 0.27793474E+04</rscale>
<asrwt>0</asrwt>
<pdfrwt beam="1">  1        1 0.18469580E+00 0.27793474E+04</pdfrwt>
<pdfrwt beam="2">  1       -1 0.21338928E+00 0.27793474E+04</pdfrwt>
<totfact> 0.11371043E+00</totfact>
</mgrwt>
</event>
<event>
 8    1  0.3214020E-028  0.1671117E+04  0.7818608E-02  0.8778011E-01
          1   -1    0    0  501    0  0.00000000000E+00  0.00000000000E+00  0.10218654621E+04  0.10218654622E+04  0.50400000000E-02 0.  1.
         -1   -1    0    0    0  501 -0.00000000000E+00 -0.00000000000E+00 -0.68321950141E+03  0.68321950142E+03  0.50400000000E-02 0. -1.
     200001    2    1    2    0    0 -0.32782038983E+03  0.21063975442E+03  0.41158805666E+03  0.90062498106E+03  0.69991807663E+03 0.  0.
    5000001    2    3    3    0    0 -0.12894449343E+03  0.13022525501E+03  0.78286704728E+02  0.26257490067E+03  0.17097213485E+03 0.  0.
        -13    1    4    4    0    0 -0.13459765385E+03  0.38562120752E+02  0.29214801027E+01  0.14004324971E+03  0.10566000000E+00 0. -1.
     200003    1    4    4    0    0  0.56531604173E+01  0.91663134255E+02  0.75365224625E+02  0.12253165096E+03  0.30000000000E+02 0. -1.
     200000    1    3    3    0    0 -0.19887589640E+03  0.80414499414E+02  0.33330135194E+03  0.63805008039E+03  0.50000000000E+03 0.  1.
    -200001    1    1    2    0    0  0.32782038983E+03 -0.21063975442E+03 -0.72942095920E+02  0.80445998253E+03  0.70000000000E+03 0. -1.
<mgrwt>
<rscale>  0 0.16711175E+04</rscale>
<asrwt>0</asrwt>
<pdfrwt beam="1">  1        1 0.14598078E+00 0.16711175E+04</pdfrwt>
<pdfrwt beam="2">  1       -1 0.97602786E-01 0.16711175E+04</pdfrwt>
<totfact> 0.16015513E+01</totfact>
</mgrwt>
</event>
<event>
 8    1  0.3214020E-028  0.1541879E+04  0.7818608E-02  0.8857072E-01
         -1   -1    0    0    0  501 -0.00000000000E+00  0.00000000000E+00  0.41997428833E+03  0.41997428836E+03  0.50400000000E-02 0. -1.
          1   -1    0    0  501    0  0.00000000000E+00 -0.00000000000E+00 -0.14151996616E+04  0.14151996616E+04  0.50400000000E-02 0.  1.
     200001    2    1    2    0    0 -0.13648281490E+03 -0.26875401902E+03 -0.63441724520E+03  0.99194279139E+03  0.70043484984E+03 0.  0.
    5000001    2    3    3    0    0 -0.13325743396E+03 -0.15042495037E+03 -0.88529001698E+02  0.24227209970E+03  0.10233853993E+03 0.  0.
        -13    1    4    4    0    0 -0.13102881887E+03 -0.10552134221E+03 -0.83980414059E+02  0.18803198171E+03  0.10566000000E+00 0. -1.
     200003    1    4    4    0    0 -0.22286150901E+01 -0.44903608152E+02 -0.45485876383E+01  0.54240117992E+02  0.30000000000E+02 0. -1.
     200000    1    3    3    0    0 -0.32253809394E+01 -0.11832906865E+03 -0.54588824350E+03  0.74967069168E+03  0.50000000000E+03 0.  1.
    -200001    1    1    2    0    0  0.13648281490E+03  0.26875401902E+03 -0.36080812803E+03  0.84323115855E+03  0.70000000000E+03 0. -1.
<mgrwt>
<rscale>  0 0.15418787E+04</rscale>
<asrwt>0</asrwt>
<pdfrwt beam="1">  1        1 0.20217138E+00 0.15418787E+04</pdfrwt>
<pdfrwt beam="2">  1       -1 0.59996327E-01 0.15418787E+04</pdfrwt>
<totfact> 0.24053366E+01</totfact>
</mgrwt>
</event>
<event>
 8    1  0.3214020E-028  0.1767513E+04  0.7818608E-02  0.8723769E-01
         -1   -1    0    0    0  501 -0.00000000000E+00  0.00000000000E+00  0.62284973629E+03  0.62284973631E+03  0.50400000000E-02 0. -1.
          1   -1    0    0  501    0  0.00000000000E+00 -0.00000000000E+00 -0.12539547694E+04  0.12539547694E+04  0.50400000000E-02 0.  1.
     200001    2    1    2    0    0  0.12022568019E+03 -0.50094259371E+03 -0.48479322339E+03  0.99543917735E+03  0.70034062426E+03 0.  0.
    5000001    2    3    3    0    0 -0.11656871021E+02 -0.72090450881E+02 -0.20123619663E+03  0.26625349787E+03  0.15830983086E+03 0.  0.
        -13    1    4    4    0    0 -0.60741617203E+02 -0.83365426324E+02 -0.76469272424E+02  0.12840132069E+03  0.10566000000E+00 0. -1.
     200003    1    4    4    0    0  0.49084746182E+02  0.11274975443E+02 -0.12476692420E+03  0.13785217718E+03  0.30000000000E+02 0. -1.
     200000    1    3    3    0    0  0.13188255121E+03 -0.42885214283E+03 -0.28355702676E+03  0.72918567948E+03  0.50000000000E+03 0.  1.
    -200001    1    1    2    0    0 -0.12022568019E+03  0.50094259371E+03 -0.14631180972E+03  0.88136532836E+03  0.70000000000E+03 0.  1.
<mgrwt>
<rscale>  0 0.17675128E+04</rscale>
<asrwt>0</asrwt>
<pdfrwt beam="1">  1        1 0.17913640E+00 0.17675128E+04</pdfrwt>
<pdfrwt beam="2">  1       -1 0.88978534E-01 0.17675128E+04</pdfrwt>
<totfact> 0.13352073E+01</totfact>
</mgrwt>
</event>
<event>
 8    1  0.3214020E-028  0.1669484E+04  0.7818608E-02  0.8778963E-01
         -1   -1    0    0    0  501 -0.00000000000E+00  0.00000000000E+00  0.61846274490E+03  0.61846274492E+03  0.50400000000E-02 0. -1.
          1   -1    0    0  501    0  0.00000000000E+00 -0.00000000000E+00 -0.11266545068E+04  0.11266545068E+04  0.50400000000E-02 0.  1.
     200001    2    1    2    0    0  0.12552072711E+03  0.28404383184E+03 -0.60135474202E+03  0.97367983221E+03  0.69999181322E+03 0.  0.
    5000001    2    3    3    0    0  0.11979433678E+03  0.65604985720E+02 -0.17671135512E+03  0.28225353312E+03  0.17258463620E+03 0.  0.
        -13    1    4    4    0    0  0.16919890257E+01  0.93722085714E+02 -0.60703497154E+02  0.11167639817E+03  0.10566000000E+00 0. -1.
     200003    1    4    4    0    0  0.11810234776E+03 -0.28117099993E+02 -0.11600785796E+03  0.17057713495E+03  0.30000000000E+02 0. -1.
     200000    1    3    3    0    0  0.57263903234E+01  0.21843884612E+03 -0.42464338690E+03  0.69142629909E+03  0.50000000000E+03 0. -1.
    -200001    1    1    2    0    0 -0.12552072711E+03 -0.28404383184E+03  0.93162980137E+02  0.77143741950E+03  0.70000000000E+03 0. -1.
<mgrwt>
<rscale>  0 0.16694836E+04</rscale>
<asrwt>0</asrwt>
<pdfrwt beam="1">  1        1 0.16095064E+00 0.16694836E+04</pdfrwt>
<pdfrwt beam="2">  1       -1 0.88351821E-01 0.16694836E+04</pdfrwt>
<totfact> 0.16780479E+01</totfact>
</mgrwt>
</event>
<event>
 8    1  0.3214020E-028  0.1629890E+04  0.7818608E-02  0.8802393E-01
          1   -1    0    0  501    0  0.00000000000E+00  0.00000000000E+00  0.38211252592E+03  0.38211252596E+03  0.50400000000E-02 0. -1.
         -1   -1    0    0    0  501 -0.00000000000E+00 -0.00000000000E+00 -0.17380612989E+04  0.17380612989E+04  0.50400000000E-02 0.  1.
     200001    2    1    2    0    0  0.13080198615E+02  0.38802058762E+02 -0.13937378625E+03  0.71599029352E+03  0.70109939150E+03 0.  0.
    5000001    2    3    3    0    0 -0.55989036202E+02  0.71218062899E+02 -0.41830682297E+02  0.20088252455E+03  0.17434792236E+03 0.  0.
        -13    1    4    4    0    0 -0.89013585629E+02 -0.10333738736E+02 -0.57697223900E+02  0.10657947923E+03  0.10566000000E+00 0. -1.
     200003    1    4    4    0    0  0.33024549427E+02  0.81551801635E+02  0.15866541602E+02  0.94303045323E+02  0.30000000000E+02 0. -1.
     200000    1    3    3    0    0  0.69069234817E+02 -0.32416004137E+02 -0.97543103951E+02  0.51510776897E+03  0.50000000000E+03 0. -1.
    -200001    1    1    2    0    0 -0.13080198615E+02 -0.38802058762E+02 -0.12165749867E+04  0.14041835313E+04  0.70000000000E+03 0.  1.
<mgrwt>
<rscale>  0 0.16298896E+04</rscale>
<asrwt>0</asrwt>
<pdfrwt beam="1">  1        1 0.54587504E-01 0.16298896E+04</pdfrwt>
<pdfrwt beam="2">  1       -1 0.24829447E+00 0.16298896E+04</pdfrwt>
<totfact> 0.48286082E+00</totfact>
</mgrwt>
</event>
<event>
 8    1  0.3214020E-028  0.1729210E+04  0.7818608E-02  0.8744878E-01
         -1   -1    0    0    0  501 -0.00000000000E+00  0.00000000000E+00  0.77624932488E+03  0.77624932489E+03  0.50400000000E-02 0. -1.
          1   -1    0    0  501    0  0.00000000000E+00 -0.00000000000E+00 -0.96301793390E+03  0.96301793392E+03  0.50400000000E-02 0.  1.
     200001    2    1    2    0    0  0.42981303890E+02  0.38250751743E+03  0.23629816786E+03  0.83530658982E+03  0.70266697766E+03 0.  0.
    5000001    2    3    3    0    0  0.11323677391E+02  0.12399275668E+03  0.38620224595E+02  0.23788826394E+03  0.19898963540E+03 0.  0.
        -13    1    4    4    0    0 -0.63358146183E+02  0.79238281341E+02  0.87193189538E+02  0.13377452442E+03  0.10566000000E+00 0. -1.
     200003    1    4    4    0    0  0.74681823573E+02  0.44754475336E+02 -0.48572964943E+02  0.10411373953E+03  0.30000000000E+02 0. -1.
     200000    1    3    3    0    0  0.31657626500E+02  0.25851476076E+03  0.19767794326E+03  0.59741832588E+03  0.50000000000E+03 0. -1.
    -200001    1    1    2    0    0 -0.42981303890E+02 -0.38250751743E+03 -0.42306677688E+03  0.90396066899E+03  0.70000000000E+03 0.  1.
<mgrwt>
<rscale>  0 0.17292102E+04</rscale>
<asrwt>0</asrwt>
<pdfrwt beam="1">  1        1 0.13757399E+00 0.17292102E+04</pdfrwt>
<pdfrwt beam="2">  1       -1 0.11089276E+00 0.17292102E+04</pdfrwt>
<totfact> 0.13124161E+01</totfact>
</mgrwt>
</event>
<event>
 8    1  0.3214020E-028  0.1465895E+04  0.7818608E-02  0.8907455E-01
          1   -1    0    0  501    0  0.00000000000E+00  0.00000000000E+00  0.74913756466E+03  0.74913756468E+03  0.50400000000E-02 0.  1.
         -1   -1    0    0    0  501 -0.00000000000E+00 -0.00000000000E+00 -0.71710693565E+03  0.71710693566E+03  0.50400000000E-02 0. -1.
     200001    2    1    2    0    0 -0.14242798769E+03  0.35695374038E+02 -0.14409823995E+03  0.72964333968E+03  0.70003943388E+03 0.  0.
    5000001    2    3    3    0    0  0.52057966634E+02  0.62362646211E+02  0.17217149925E+01  0.17304708647E+03  0.15278481043E+03 0.  0.
        -13    1    4    4    0    0 -0.39537408483E+02  0.65418603028E+02  0.45549979669E+01  0.76573882377E+02  0.10566000000E+00 0. -1.
     200003    1    4    4    0    0  0.91595375118E+02 -0.30559568171E+01 -0.28332829744E+01  0.96473204090E+02  0.30000000000E+02 0. -1.
     200000    1    3    3    0    0 -0.19448595432E+03 -0.26667272173E+02 -0.14581995494E+03  0.55659625321E+03  0.50000000000E+03 0. -1.
    -200001    1    1    2    0    0  0.14242798769E+03 -0.35695374038E+02  0.17612886896E+03  0.73660116066E+03  0.70000000000E+03 0.  1.
<mgrwt>
<rscale>  0 0.14658946E+04</rscale>
<asrwt>0</asrwt>
<pdfrwt beam="1">  1        1 0.10701965E+00 0.14658946E+04</pdfrwt>
<pdfrwt beam="2">  1       -1 0.10244385E+00 0.14658946E+04</pdfrwt>
<totfact> 0.24121916E+01</totfact>
</mgrwt>
</event>
<event>
 8    1  0.3214020E-028  0.2025532E+04  0.7818608E-02  0.8594776E-01
         -1   -1    0    0    0  501 -0.00000000000E+00  0.00000000000E+00  0.15106413129E+04  0.15106413129E+04  0.50400000000E-02 0.  1.
          1   -1    0    0  501    0  0.00000000000E+00 -0.00000000000E+00 -0.67897986275E+03  0.67897986277E+03  0.50400000000E-02 0. -1.
     200001    2    1    2    0    0 -0.57647041416E+03  0.33982166999E+03  0.97574943156E+02  0.97443398617E+03  0.70157238976E+03 0.  0.
    5000001    2    3    3    0    0 -0.29095672955E+03  0.10174099668E+03 -0.15429343090E+02  0.34121171886E+03  0.14553461301E+03 0.  0.
        -13    1    4    4    0    0 -0.27128521623E+03  0.47766662257E+02 -0.45499632176E+01  0.27549598163E+03  0.10566000000E+00 0. -1.
     200003    1    4    4    0    0 -0.19671513317E+02  0.53974334421E+02 -0.10879379873E+02  0.65715737223E+02  0.30000000000E+02 0. -1.
     200000    1    3    3    0    0 -0.28551368461E+03  0.23808067331E+03  0.11300428625E+03  0.63322226731E+03  0.50000000000E+03 0.  1.
    -200001    1    1    2    0    0  0.57647041416E+03 -0.33982166999E+03  0.73408650698E+03  0.12151871895E+04  0.70000000000E+03 0. -1.
<mgrwt>
<rscale>  0 0.20255321E+04</rscale>
<asrwt>0</asrwt>
<pdfrwt beam="1">  1        1 0.96997124E-01 0.20255321E+04</pdfrwt>
<pdfrwt beam="2">  1       -1 0.21580590E+00 0.20255321E+04</pdfrwt>
<totfact> 0.34775154E+00</totfact>
</mgrwt>
</event>
<event>
 8    1  0.3214020E-028  0.1523807E+04  0.7818608E-02  0.8868774E-01
         -1   -1    0    0    0  501 -0.00000000000E+00  0.00000000000E+00  0.91064657405E+03  0.91064657406E+03  0.50400000000E-02 0. -1.
          1   -1    0    0  501    0  0.00000000000E+00 -0.00000000000E+00 -0.63745555226E+03  0.63745555228E+03  0.50400000000E-02 0.  1.
     200001    2    1    2    0    0 -0.96625506542E+02 -0.23738236982E+03 -0.21883346373E+02  0.74638162594E+03  0.70065667247E+03 0.  0.
    5000001    2    3    3    0    0 -0.80433310877E+02 -0.42889877201E+02  0.18888886007E+02  0.20809555718E+03  0.18611263213E+03 0.  0.
        -13    1    4    4    0    0 -0.35307503400E+02  0.57141122209E+02 -0.41841269000E+02  0.79135520465E+02  0.10566000000E+00 0. -1.
     200003    1    4    4    0    0 -0.45125807477E+02 -0.10003099941E+03  0.60730155007E+02  0.12896003672E+03  0.30000000000E+02 0. -1.
     200000    1    3    3    0    0 -0.16192195665E+02 -0.19449249262E+03 -0.40772232380E+02  0.53828606876E+03  0.50000000000E+03 0.  1.
    -200001    1    1    2    0    0  0.96625506542E+02  0.23738236982E+03  0.29507436816E+03  0.80172050040E+03  0.70000000000E+03 0.  1.
<mgrwt>
<rscale>  0 0.15238067E+04</rscale>
<asrwt>0</asrwt>
<pdfrwt beam="1">  1        1 0.91065079E-01 0.15238067E+04</pdfrwt>
<pdfrwt beam="2">  1       -1 0.13009237E+00 0.15238067E+04</pdfrwt>
<totfact> 0.17119528E+01</totfact>
</mgrwt>
</event>
<event>
 8    1  0.3214020E-028  0.1833377E+04  0.7818608E-02  0.8688748E-01
          1   -1    0    0  501    0  0.00000000000E+00  0.00000000000E+00  0.26199780733E+04  0.26199780733E+04  0.50400000000E-02 0.  1.
         -1   -1    0    0    0  501 -0.00000000000E+00 -0.00000000000E+00 -0.32073484472E+03  0.32073484476E+03  0.50400000000E-02 0. -1.
     200001    2    1    2    0    0  0.41934338680E+03  0.37887732164E+03  0.91495806078E+03  0.12897609725E+04  0.71199593552E+03 0.  0.
    5000001    2    3    3    0    0  0.47823710243E+02 -0.14023219168E+01  0.15706083283E+03  0.23759763651E+03  0.17174241730E+03 0.  0.
        -13    1    4    4    0    0 -0.32372687215E+02  0.42714858205E+02  0.12512416079E+03  0.13611986177E+03  0.10566000000E+00 0. -1.
     200003    1    4    4    0    0  0.80196397458E+02 -0.44117180122E+02  0.31936672033E+02  0.10147777475E+03  0.30000000000E+02 0. -1.
     200000    1    3    3    0    0  0.37151967656E+03  0.38027964355E+03  0.75789722795E+03  0.10521633359E+04  0.50000000000E+03 0. -1.
    -200001    1    1    2    0    0 -0.41934338680E+03 -0.37887732164E+03  0.13842851678E+04  0.16509519456E+04  0.70000000000E+03 0.  1.
<mgrwt>
<rscale>  0 0.18333775E+04</rscale>
<asrwt>0</asrwt>
<pdfrwt beam="1">  1        1 0.37428257E+00 0.18333775E+04</pdfrwt>
<pdfrwt beam="2">  1       -1 0.45819265E-01 0.18333775E+04</pdfrwt>
<totfact> 0.67402888E+00</totfact>
</mgrwt>
</event>
<event>
 8    1  0.3214020E-028  0.1487161E+04  0.7818608E-02  0.8893036E-01
         -1   -1    0    0    0  501 -0.00000000000E+00  0.00000000000E+00  0.52567753206E+03  0.52567753208E+03  0.50400000000E-02 0. -1.
          1   -1    0    0  501    0  0.00000000000E+00 -0.00000000000E+00 -0.10518083882E+04  0.10518083882E+04  0.50400000000E-02 0.  1.
     200001    2    1    2    0    0  0.12383235300E+03  0.11105456759E+03 -0.64690824655E+02  0.72273772854E+03  0.70035516192E+03 0.  0.
    5000001    2    3    3    0    0  0.34646463165E+02  0.53647503888E+02  0.40317587287E+02  0.20093655904E+03  0.18620300973E+03 0.  0.
        -13    1    4    4    0    0  0.53441020002E+02  0.99602527391E+02  0.72803114390E+02  0.13445040242E+03  0.10566000000E+00 0. -1.
     200003    1    4    4    0    0 -0.18794556837E+02 -0.45955023503E+02 -0.32485527103E+02  0.66486156627E+02  0.30000000000E+02 0. -1.
     200000    1    3    3    0    0  0.89185889831E+02  0.57407063706E+02 -0.10500841194E+03  0.52180116950E+03  0.50000000000E+03 0.  1.
    -200001    1    1    2    0    0 -0.12383235300E+03 -0.11105456759E+03 -0.46144003147E+03  0.85474819174E+03  0.70000000000E+03 0. -1.
<mgrwt>
<rscale>  0 0.14871611E+04</rscale>
<asrwt>0</asrwt>
<pdfrwt beam="1">  1        1 0.15025834E+00 0.14871611E+04</pdfrwt>
<pdfrwt beam="2">  1       -1 0.75096791E-01 0.14871611E+04</pdfrwt>
<totfact> 0.27323644E+01</totfact>
</mgrwt>
</event>
<event>
 8    1  0.3214020E-028  0.2486712E+04  0.7818608E-02  0.8407735E-01
          1   -1    0    0  501    0  0.00000000000E+00  0.00000000000E+00  0.24590446423E+04  0.24590446423E+04  0.50400000000E-02 0.  1.
         -1   -1    0    0    0  501 -0.00000000000E+00 -0.00000000000E+00 -0.62867247983E+03  0.62867247985E+03  0.50400000000E-02 0. -1.
     200001    2    1    2    0    0  0.50683766369E+02  0.97541003086E+03  0.13128846297E+04  0.17793643719E+04  0.69891197207E+03 0.  0.
    5000001    2    3    3    0    0 -0.40840721696E+02  0.20422713875E+03  0.28702864635E+03  0.39897302033E+03  0.18280409834E+03 0.  0.
        -13    1    4    4    0    0 -0.17326290269E+02  0.21209145739E+03  0.16034642727E+03  0.26644694506E+03  0.10566000000E+00 0. -1.
     200003    1    4    4    0    0 -0.23514431427E+02 -0.78643186373E+01  0.12668221908E+03  0.13252607526E+03  0.30000000000E+02 0. -1.
     200000    1    3    3    0    0  0.91524488065E+02  0.77118289211E+03  0.10258559834E+04  0.13803913516E+04  0.50000000000E+03 0.  1.
    -200001    1    1    2    0    0 -0.50683766369E+02 -0.97541003086E+03  0.51748753277E+03  0.13083527502E+04  0.70000000000E+03 0. -1.
<mgrwt>
<rscale>  0 0.24867116E+04</rscale>
<asrwt>0</asrwt>
<pdfrwt beam="1">  1        1 0.35129209E+00 0.24867116E+04</pdfrwt>
<pdfrwt beam="2">  1       -1 0.89810354E-01 0.24867116E+04</pdfrwt>
<totfact> 0.20727945E+00</totfact>
</mgrwt>
</event>
<event>
 8    1  0.3214020E-028  0.1534808E+04  0.7818608E-02  0.8861631E-01
          1   -1    0    0  501    0  0.00000000000E+00  0.00000000000E+00  0.60244162609E+03  0.60244162611E+03  0.50400000000E-02 0.  1.
         -1   -1    0    0    0  501 -0.00000000000E+00 -0.00000000000E+00 -0.97753629603E+03  0.97753629604E+03  0.50400000000E-02 0. -1.
     200001    2    1    2    0    0  0.14769953311E+03  0.47209851661E+02 -0.46904135259E+03  0.85688048656E+03  0.70014316795E+03 0.  0.
    5000001    2    3    3    0    0  0.79662238630E+02 -0.10221259586E+03 -0.16162204155E+03  0.24740302671E+03  0.13525193638E+03 0.  0.
        -13    1    4    4    0    0  0.39998424984E+02 -0.12597976990E+03 -0.11561806795E+03  0.17560844292E+03  0.10566000000E+00 0. -1.
     200003    1    4    4    0    0  0.39663813646E+02  0.23767174033E+02 -0.46003973604E+02  0.71794583792E+02  0.30000000000E+02 0. -1.
     200000    1    3    3    0    0  0.68037294479E+02  0.14942244753E+03 -0.30741931104E+03  0.60947745985E+03  0.50000000000E+03 0. -1.
    -200001    1    1    2    0    0 -0.14769953311E+03 -0.47209851661E+02  0.93946682659E+02  0.72309743559E+03  0.70000000000E+03 0.  1.
<mgrwt>
<rscale>  0 0.15348076E+04</rscale>
<asrwt>0</asrwt>
<pdfrwt beam="1">  1        1 0.86063089E-01 0.15348076E+04</pdfrwt>
<pdfrwt beam="2">  1       -1 0.13964804E+00 0.15348076E+04</pdfrwt>
<totfact> 0.15455676E+01</totfact>
</mgrwt>
</event>
<event>
 8    1  0.3214020E-028  0.1696020E+04  0.7818608E-02  0.8763638E-01
         -1   -1    0    0    0  501 -0.00000000000E+00  0.00000000000E+00  0.30655801916E+03  0.30655801920E+03  0.50400000000E-02 0. -1.
          1   -1    0    0  501    0  0.00000000000E+00 -0.00000000000E+00 -0.23457902999E+04  0.23457902999E+04  0.50400000000E-02 0.  1.
     200001    2    1    2    0    0 -0.11168583259E+03 -0.14588788607E+03 -0.17115475712E+04  0.18579087246E+04  0.69905131417E+03 0.  0.
    5000001    2    3    3    0    0 -0.11028381033E+03  0.57660918375E+02 -0.28509475131E+03  0.33271964487E+03  0.11805102511E+03 0.  0.
        -13    1    4    4    0    0 -0.66710765660E+02  0.68537201269E+02 -0.25160549846E+03  0.26917097212E+03  0.10566000000E+00 0. -1.
     200003    1    4    4    0    0 -0.43573044675E+02 -0.10876282895E+02 -0.33489252848E+02  0.63548672749E+02  0.30000000000E+02 0. -1.
     200000    1    3    3    0    0 -0.14020222515E+01 -0.20354880444E+03 -0.14264528199E+04  0.15251890797E+04  0.50000000000E+03 0.  1.
    -200001    1    1    2    0    0  0.11168583259E+03  0.14588788607E+03 -0.32768470954E+03  0.79443959454E+03  0.70000000000E+03 0. -1.
<mgrwt>
<rscale>  0 0.16960198E+04</rscale>
<asrwt>0</asrwt>
<pdfrwt beam="1">  1        1 0.33511289E+00 0.16960198E+04</pdfrwt>
<pdfrwt beam="2">  1       -1 0.43794004E-01 0.16960198E+04</pdfrwt>
<totfact> 0.11086219E+01</totfact>
</mgrwt>
</event>
<event>
 8    1  0.3214020E-028  0.1614798E+04  0.7818608E-02  0.8811508E-01
         -1   -1    0    0    0  501 -0.00000000000E+00  0.00000000000E+00  0.35135179401E+03  0.35135179404E+03  0.50400000000E-02 0. -1.
          1   -1    0    0  501    0  0.00000000000E+00 -0.00000000000E+00 -0.18553865061E+04  0.18553865061E+04  0.50400000000E-02 0.  1.
     200001    2    1    2    0    0  0.17579008470E+03  0.75233586406E+02 -0.26760905545E+03  0.77310283364E+03  0.69965072602E+03 0.  0.
    5000001    2    3    3    0    0  0.91854278619E+02  0.63316004489E+02 -0.18852995302E+03  0.25983803576E+03  0.13973595355E+03 0.  0.
        -13    1    4    4    0    0  0.10370025243E+03 -0.11640247980E+01 -0.13398968817E+03  0.16943537118E+03  0.10566000000E+00 0. -1.
     200003    1    4    4    0    0 -0.11845973809E+02  0.64480029287E+02 -0.54540264850E+02  0.90402664574E+02  0.30000000000E+02 0. -1.
     200000    1    3    3    0    0  0.83935806086E+02  0.11917581918E+02 -0.79079102423E+02  0.51326479788E+03  0.50000000000E+03 0. -1.
    -200001    1    1    2    0    0 -0.17579008470E+03 -0.75233586406E+02 -0.12364256566E+04  0.14336354665E+04  0.70000000000E+03 0.  1.
<mgrwt>
<rscale>  0 0.16147983E+04</rscale>
<asrwt>0</asrwt>
<pdfrwt beam="1">  1        1 0.26505521E+00 0.16147983E+04</pdfrwt>
<pdfrwt beam="2">  1       -1 0.50193115E-01 0.16147983E+04</pdfrwt>
<totfact> 0.17594975E+01</totfact>
</mgrwt>
</event>
<event>
 8    1  0.3214020E-028  0.1669610E+04  0.7818608E-02  0.8778889E-01
         -1   -1    0    0    0  501 -0.00000000000E+00  0.00000000000E+00  0.52084062616E+03  0.52084062618E+03  0.50400000000E-02 0. -1.
          1   -1    0    0  501    0  0.00000000000E+00 -0.00000000000E+00 -0.13380275169E+04  0.13380275169E+04  0.50400000000E-02 0.  1.
     200001    2    1    2    0    0 -0.35603724248E+03 -0.11906703198E+03 -0.69399623043E+03  0.10550550958E+04  0.70040774639E+03 0.  0.
    5000001    2    3    3    0    0 -0.12068111779E+03  0.22974869559E+01 -0.45132194804E+02  0.19415650212E+03  0.14522610533E+03 0.  0.
        -13    1    4    4    0    0 -0.31611330737E+02 -0.57469561858E+01  0.50484116478E+02  0.59841130645E+02  0.10566000000E+00 0. -1.
     200003    1    4    4    0    0 -0.89069787056E+02  0.80444431417E+01 -0.95616311282E+02  0.13431537148E+03  0.30000000000E+02 0. -1.
     200000    1    3    3    0    0 -0.23535612469E+03 -0.12136451893E+03 -0.64886403563E+03  0.86089859369E+03  0.50000000000E+03 0.  1.
    -200001    1    1    2    0    0  0.35603724248E+03  0.11906703198E+03 -0.12319066027E+03  0.80381304724E+03  0.70000000000E+03 0. -1.
<mgrwt>
<rscale>  0 0.16696096E+04</rscale>
<asrwt>0</asrwt>
<pdfrwt beam="1">  1        1 0.19114679E+00 0.16696096E+04</pdfrwt>
<pdfrwt beam="2">  1       -1 0.74405804E-01 0.16696096E+04</pdfrwt>
<totfact> 0.17310664E+01</totfact>
</mgrwt>
</event>
<event>
 8    1  0.3214020E-028  0.1658431E+04  0.7818608E-02  0.8785434E-01
         -1   -1    0    0    0  501 -0.00000000000E+00  0.00000000000E+00  0.48974427536E+03  0.48974427539E+03  0.50400000000E-02 0.  1.
          1   -1    0    0  501    0  0.00000000000E+00 -0.00000000000E+00 -0.14039944272E+04  0.14039944272E+04  0.50400000000E-02 0. -1.
     200001    2    1    2    0    0  0.30346576109E+03 -0.32482249955E+03 -0.46871940784E+03  0.95241050892E+03  0.69984767618E+03 0.  0.
    5000001    2    3    3    0    0 -0.33240992152E+02 -0.11744315975E+03 -0.15490792028E+03  0.24187882210E+03  0.14003942832E+03 0.  0.
        -13    1    4    4    0    0  0.29693135983E+02 -0.34896136087E+02  0.78833040861E+01  0.46492798213E+02  0.10566000000E+00 0. -1.
     200003    1    4    4    0    0 -0.62934128135E+02 -0.82547023658E+02 -0.16279122437E+03  0.19538602389E+03  0.30000000000E+02 0. -1.
     200000    1    3    3    0    0  0.33670675324E+03 -0.20737933981E+03 -0.31381148755E+03  0.71053168682E+03  0.50000000000E+03 0. -1.
    -200001    1    1    2    0    0 -0.30346576109E+03  0.32482249955E+03 -0.44553074402E+03  0.94132819369E+03  0.70000000000E+03 0.  1.
<mgrwt>
<rscale>  0 0.16584309E+04</rscale>
<asrwt>0</asrwt>
<pdfrwt beam="1">  1        1 0.20057063E+00 0.16584309E+04</pdfrwt>
<pdfrwt beam="2">  1       -1 0.69963468E-01 0.16584309E+04</pdfrwt>
<totfact> 0.17782507E+01</totfact>
</mgrwt>
</event>
<event>
 8    1  0.3214020E-028  0.2324276E+04  0.7818608E-02  0.8468410E-01
         -1   -1    0    0    0  501 -0.00000000000E+00  0.00000000000E+00  0.61637971630E+03  0.61637971632E+03  0.50400000000E-02 0. -1.
          1   -1    0    0  501    0  0.00000000000E+00 -0.00000000000E+00 -0.21911246852E+04  0.21911246852E+04  0.50400000000E-02 0.  1.
     200001    2    1    2    0    0 -0.61803453332E+03 -0.40096785944E+03 -0.14683391202E+04  0.17857098462E+04  0.69999855297E+03 0.  0.
    5000001    2    3    3    0    0 -0.25123897183E+03 -0.12796971278E+03 -0.42037318155E+03  0.53779174768E+03  0.18168402172E+03 0.  0.
        -13    1    4    4    0    0 -0.11633190602E+03 -0.55891919652E+02 -0.33733979473E+03  0.36118577950E+03  0.10566000000E+00 0. -1.
     200003    1    4    4    0    0 -0.13490706581E+03 -0.72077793131E+02 -0.83033386817E+02  0.17660596817E+03  0.30000000000E+02 0. -1.
     200000    1    3    3    0    0 -0.36679556149E+03 -0.27299814665E+03 -0.10479659386E+04  0.12479180985E+04  0.50000000000E+03 0.  1.
    -200001    1    1    2    0    0  0.61803453332E+03  0.40096785944E+03 -0.10640584869E+03  0.10217945553E+04  0.70000000000E+03 0. -1.
<mgrwt>
<rscale>  0 0.23242761E+04</rscale>
<asrwt>0</asrwt>
<pdfrwt beam="1">  1        1 0.31301781E+00 0.23242761E+04</pdfrwt>
<pdfrwt beam="2">  1       -1 0.88054246E-01 0.23242761E+04</pdfrwt>
<totfact> 0.32430485E+00</totfact>
</mgrwt>
</event>
<event>
 8    1  0.4366578E-028  0.2096139E+04  0.7818608E-02  0.8562946E-01
         -1   -1    0    0    0  501 -0.00000000000E+00  0.00000000000E+00  0.46613323492E+03  0.46613323494E+03  0.50400000000E-02 0. -1.
          1   -1    0    0  501    0  0.00000000000E+00 -0.00000000000E+00 -0.23565151071E+04  0.23565151071E+04  0.50400000000E-02 0.  1.
     200001    2    1    2    0    0 -0.94448745886E+02 -0.16957403498E+02  0.91540213545E+02  0.71855155886E+03  0.70620720253E+03 0.  0.
    5000001    2    3    3    0    0 -0.64384786551E+02 -0.32050402240E+02  0.57914568621E+02  0.21629432968E+03  0.19559271656E+03 0.  0.
        -13    1    4    4    0    0  0.58520272604E+02  0.11730090721E+02  0.56833780755E+02  0.82415454454E+02  0.10566000000E+00 0. -1.
     200003    1    4    4    0    0 -0.12290505915E+03 -0.43780492960E+02  0.10807878667E+01  0.13387887523E+03  0.30000000000E+02 0. -1.
     200000    1    3    3    0    0 -0.30063959335E+02  0.15092998742E+02  0.33625644924E+02  0.50225722917E+03  0.50000000000E+03 0. -1.
    -200001    1    1    2    0    0  0.94448745886E+02  0.16957403498E+02 -0.19819220857E+04  0.21040967832E+04  0.70000000000E+03 0.  1.
<mgrwt>
<rscale>  0 0.20961393E+04</rscale>
<asrwt>0</asrwt>
<pdfrwt beam="1">  1        1 0.33664501E+00 0.20961393E+04</pdfrwt>
<pdfrwt beam="2">  1       -1 0.66590463E-01 0.20961393E+04</pdfrwt>
<totfact> 0.46834014E+00</totfact>
</mgrwt>
</event>
<event>
 8    1  0.3214020E-028  0.1558493E+04  0.7818608E-02  0.8846461E-01
          1   -1    0    0  501    0  0.00000000000E+00  0.00000000000E+00  0.33952556903E+03  0.33952556906E+03  0.50400000000E-02 0.  1.
         -1   -1    0    0    0  501 -0.00000000000E+00 -0.00000000000E+00 -0.17884507219E+04  0.17884507219E+04  0.50400000000E-02 0. -1.
     200001    2    1    2    0    0  0.31716007869E+03  0.42724472607E+02 -0.89044768563E+03  0.11770225710E+04  0.70004939521E+03 0.  0.
    5000001    2    3    3    0    0  0.20641638647E+03  0.57987781539E+02 -0.28074742719E+03  0.38063601969E+03  0.14175455619E+03 0.  0.
        -13    1    4    4    0    0  0.67321983880E+02 -0.42144279245E+02 -0.11901501452E+03  0.14308380283E+03  0.10566000000E+00 0. -1.
     200003    1    4    4    0    0  0.13909440259E+03  0.10013206078E+03 -0.16173241267E+03  0.23755221687E+03  0.30000000000E+02 0. -1.
     200000    1    3    3    0    0  0.11074369222E+03 -0.15263308932E+02 -0.60970025844E+03  0.79638655131E+03  0.50000000000E+03 0.  1.
    -200001    1    1    2    0    0 -0.31716007869E+03 -0.42724472607E+02 -0.55847746720E+03  0.95095371993E+03  0.70000000000E+03 0.  1.
<mgrwt>
<rscale>  0 0.15584925E+04</rscale>
<asrwt>0</asrwt>
<pdfrwt beam="1">  1        1 0.48503654E-01 0.15584925E+04</pdfrwt>
<pdfrwt beam="2">  1       -1 0.25549296E+00 0.15584925E+04</pdfrwt>
<totfact> 0.50908858E+00</totfact>
</mgrwt>
</event>
<event>
 8    1  0.3214020E-028  0.2538717E+04  0.7818608E-02  0.8389321E-01
         -1   -1    0    0    0  501 -0.00000000000E+00  0.00000000000E+00  0.11588476553E+04  0.11588476553E+04  0.50400000000E-02 0.  1.
          1   -1    0    0  501    0  0.00000000000E+00 -0.00000000000E+00 -0.13904083351E+04  0.13904083351E+04  0.50400000000E-02 0. -1.
     200001    2    1    2    0    0 -0.99222103624E+03  0.21739931837E+03  0.18495077885E+03  0.12472395375E+04  0.69973896918E+03 0.  0.
    5000001    2    3    3    0    0 -0.20456403935E+03  0.13343649787E+03  0.11663456078E+03  0.30802688555E+03  0.14705507913E+03 0.  0.
        -13    1    4    4    0    0 -0.30016290137E+02  0.97817535378E+02  0.24393671040E+02  0.10518702511E+03  0.10566000000E+00 0. -1.
     200003    1    4    4    0    0 -0.17454774921E+03  0.35618962488E+02  0.92240889737E+02  0.20283986044E+03  0.30000000000E+02 0. -1.
     200000    1    3    3    0    0 -0.78765699689E+03  0.83962820502E+02  0.68316218075E+02  0.93921265198E+03  0.50000000000E+03 0.  1.
    -200001    1    1    2    0    0  0.99222103624E+03 -0.21739931837E+03 -0.41651145864E+03  0.13020164529E+04  0.70000000000E+03 0. -1.
<mgrwt>
<rscale>  0 0.25387173E+04</rscale>
<asrwt>0</asrwt>
<pdfrwt beam="1">  1        1 0.19862976E+00 0.25387173E+04</pdfrwt>
<pdfrwt beam="2">  1       -1 0.16554967E+00 0.25387173E+04</pdfrwt>
<totfact> 0.21717450E+00</totfact>
</mgrwt>
</event>
<event>
 8    1  0.3214020E-028  0.1692006E+04  0.7818608E-02  0.8765937E-01
         -1   -1    0    0    0  501 -0.00000000000E+00  0.00000000000E+00  0.79557598395E+03  0.79557598397E+03  0.50400000000E-02 0. -1.
          1   -1    0    0  501    0  0.00000000000E+00 -0.00000000000E+00 -0.89962653228E+03  0.89962653229E+03  0.50400000000E-02 0.  1.
     200001    2    1    2    0    0  0.11713998593E+03 -0.16225500556E+03  0.38045792680E+03  0.82067582964E+03  0.69907948057E+03 0.  0.
    5000001    2    3    3    0    0  0.10499962598E+03  0.58517232087E+02  0.67526950641E+02  0.19074443251E+03  0.13181184151E+03 0.  0.
        -13    1    4    4    0    0  0.96443776325E+02  0.90989286601E+02  0.42547704334E+02  0.13925074713E+03  0.10566000000E+00 0. -1.
     200003    1    4    4    0    0  0.85558496548E+01 -0.32472054514E+02  0.24979246307E+02  0.51493685378E+02  0.30000000000E+02 0. -1.
     200000    1    3    3    0    0  0.12140359952E+02 -0.22077223765E+03  0.31293097616E+03  0.62993139713E+03  0.50000000000E+03 0. -1.
    -200001    1    1    2    0    0 -0.11713998593E+03  0.16225500556E+03 -0.48450847513E+03  0.87452668662E+03  0.70000000000E+03 0.  1.
<mgrwt>
<rscale>  0 0.16920062E+04</rscale>
<asrwt>0</asrwt>
<pdfrwt beam="1">  1        1 0.12851808E+00 0.16920062E+04</pdfrwt>
<pdfrwt beam="2">  1       -1 0.11365371E+00 0.16920062E+04</pdfrwt>
<totfact> 0.13907042E+01</totfact>
</mgrwt>
</event>
<event>
 8    1  0.3214020E-028  0.1788669E+04  0.7818608E-02  0.8712349E-01
         -1   -1    0    0    0  501 -0.00000000000E+00  0.00000000000E+00  0.62828311624E+03  0.62828311626E+03  0.50400000000E-02 0. -1.
          1   -1    0    0  501    0  0.00000000000E+00 -0.00000000000E+00 -0.12730470359E+04  0.12730470359E+04  0.50400000000E-02 0.  1.
     200001    2    1    2    0    0  0.22989059947E+03 -0.18794757197E+03 -0.82289163109E+03  0.11203669910E+04  0.69992683944E+03 0.  0.
    5000001    2    3    3    0    0  0.82659455071E+02 -0.93915216732E+02 -0.94895086576E+02  0.22009033215E+03  0.15421421272E+03 0.  0.
        -13    1    4    4    0    0  0.79307996664E+02 -0.78747376202E+02  0.77476152758E+01  0.11203099705E+03  0.10566000000E+00 0. -1.
     200003    1    4    4    0    0  0.33514584063E+01 -0.15167840530E+02 -0.10264270185E+03  0.10805933510E+03  0.30000000000E+02 0. -1.
     200000    1    3    3    0    0  0.14723114440E+03 -0.94032355234E+02 -0.72799654451E+03  0.90027665888E+03  0.50000000000E+03 0.  1.
    -200001    1    1    2    0    0 -0.22989059947E+03  0.18794757197E+03  0.17812771139E+03  0.78096316117E+03  0.70000000000E+03 0. -1.
<mgrwt>
<rscale>  0 0.17886687E+04</rscale>
<asrwt>0</asrwt>
<pdfrwt beam="1">  1        1 0.18186386E+00 0.17886687E+04</pdfrwt>
<pdfrwt beam="2">  1       -1 0.89754731E-01 0.17886687E+04</pdfrwt>
<totfact> 0.12688290E+01</totfact>
</mgrwt>
</event>
<event>
 8    1  0.3214020E-028  0.1465154E+04  0.7818608E-02  0.8907962E-01
         -1   -1    0    0    0  501 -0.00000000000E+00  0.00000000000E+00  0.84933622936E+03  0.84933622937E+03  0.50400000000E-02 0. -1.
          1   -1    0    0  501    0  0.00000000000E+00 -0.00000000000E+00 -0.63186849763E+03  0.63186849765E+03  0.50400000000E-02 0.  1.
     200001    2    1    2    0    0 -0.12314436917E+03 -0.90835546091E+02 -0.47146336819E+02  0.71737474767E+03  0.69927685463E+03 0.  0.
    5000001    2    3    3    0    0 -0.10753777384E+02 -0.36260174735E+02  0.10076190636E+03  0.18119663857E+03  0.14576973641E+03 0.  0.
        -13    1    4    4    0    0  0.45975944987E+02  0.31774063201E+02  0.26909630697E+02  0.62028364464E+02  0.10566000000E+00 0. -1.
     200003    1    4    4    0    0 -0.56729722371E+02 -0.68034237936E+02  0.73852275665E+02  0.11916827410E+03  0.30000000000E+02 0. -1.
     200000    1    3    3    0    0 -0.11239059178E+03 -0.54575371356E+02 -0.14790824318E+03  0.53617810910E+03  0.50000000000E+03 0.  1.
    -200001    1    1    2    0    0  0.12314436917E+03  0.90835546091E+02  0.26461406854E+03  0.76382997936E+03  0.70000000000E+03 0. -1.
<mgrwt>
<rscale>  0 0.14651537E+04</rscale>
<asrwt>0</asrwt>
<pdfrwt beam="1">  1        1 0.90266929E-01 0.14651537E+04</pdfrwt>
<pdfrwt beam="2">  1       -1 0.12133375E+00 0.14651537E+04</pdfrwt>
<totfact> 0.20729054E+01</totfact>
</mgrwt>
</event>
<event>
 8    1  0.3214020E-028  0.1641749E+04  0.7818608E-02  0.8795303E-01
         -1   -1    0    0    0  501 -0.00000000000E+00  0.00000000000E+00  0.86528785680E+03  0.86528785681E+03  0.50400000000E-02 0. -1.
          1   -1    0    0  501    0  0.00000000000E+00 -0.00000000000E+00 -0.77874042655E+03  0.77874042657E+03  0.50400000000E-02 0.  1.
     200001    2    1    2    0    0 -0.22991095179E+03  0.99082934571E+01 -0.31910391519E+03  0.80289200780E+03  0.69989359725E+03 0.  0.
    5000001    2    3    3    0    0  0.55118868013E+02  0.18174472293E+02 -0.20836920516E+02  0.15460694087E+03  0.14177703571E+03 0.  0.
        -13    1    4    4    0    0 -0.69633748292E+01 -0.31236662118E+02 -0.54615604371E+02  0.63301603882E+02  0.10566000000E+00 0. -1.
     200003    1    4    4    0    0  0.62082242843E+02  0.49411134410E+02  0.33778683855E+02  0.91305336991E+02  0.30000000000E+02 0. -1.
     200000    1    3    3    0    0 -0.28502981981E+03 -0.82661788356E+01 -0.29826699467E+03  0.64828506693E+03  0.50000000000E+03 0.  1.
    -200001    1    1    2    0    0  0.22991095179E+03 -0.99082934571E+01  0.40565134544E+03  0.84113627557E+03  0.70000000000E+03 0. -1.
<mgrwt>
<rscale>  0 0.16417486E+04</rscale>
<asrwt>0</asrwt>
<pdfrwt beam="1">  1        1 0.11124863E+00 0.16417486E+04</pdfrwt>
<pdfrwt beam="2">  1       -1 0.12361255E+00 0.16417486E+04</pdfrwt>
<totfact> 0.14310613E+01</totfact>
</mgrwt>
</event>
<event>
 8    1  0.3214020E-028  0.1440208E+04  0.7818608E-02  0.8925217E-01
         -1   -1    0    0    0  501 -0.00000000000E+00  0.00000000000E+00  0.61796242340E+03  0.61796242342E+03  0.50400000000E-02 0. -1.
          1   -1    0    0  501    0  0.00000000000E+00 -0.00000000000E+00 -0.83912878679E+03  0.83912878681E+03  0.50400000000E-02 0.  1.
     200001    2    1    2    0    0 -0.28302187705E+02 -0.15552653414E+03 -0.51959130022E+02  0.71978489364E+03  0.70028638804E+03 0.  0.
    5000001    2    3    3    0    0  0.47107501931E+01 -0.58998395406E+02  0.74024159755E+01  0.20604242043E+03  0.19721988091E+03 0.  0.
        -13    1    4    4    0    0 -0.87844747645E+02 -0.50376228790E+02 -0.22805577783E+02  0.10380062456E+03  0.10566000000E+00 0. -1.
     200003    1    4    4    0    0  0.92555497839E+02 -0.86221666159E+01  0.30207993758E+02  0.10224179588E+03  0.30000000000E+02 0. -1.
     200000    1    3    3    0    0 -0.33012937898E+02 -0.96528138738E+02 -0.59361545997E+02  0.51374247321E+03  0.50000000000E+03 0. -1.
    -200001    1    1    2    0    0  0.28302187705E+02  0.15552653414E+03 -0.16920723337E+03  0.73730631659E+03  0.70000000000E+03 0.  1.
<mgrwt>
<rscale>  0 0.14402084E+04</rscale>
<asrwt>0</asrwt>
<pdfrwt beam="1">  1        1 0.11987554E+00 0.14402084E+04</pdfrwt>
<pdfrwt beam="2">  1       -1 0.88280346E-01 0.14402084E+04</pdfrwt>
<totfact> 0.28329036E+01</totfact>
</mgrwt>
</event>
<event>
 8    1  0.3214020E-028  0.1853760E+04  0.7818608E-02  0.8678222E-01
         -1   -1    0    0    0  501 -0.00000000000E+00  0.00000000000E+00  0.12779950955E+04  0.12779950955E+04  0.50400000000E-02 0. -1.
          1   -1    0    0  501    0  0.00000000000E+00 -0.00000000000E+00 -0.67222969683E+03  0.67222969685E+03  0.50400000000E-02 0.  1.
     200001    2    1    2    0    0 -0.31681186035E+03  0.20073403859E+03  0.80615517127E+03  0.11311887919E+04  0.69931252930E+03 0.  0.
    5000001    2    3    3    0    0 -0.10079622716E+03  0.12699952363E+03  0.78152877480E+02  0.21900083306E+03  0.12475870395E+03 0.  0.
        -13    1    4    4    0    0  0.46922491941E+00  0.88093419762E+02  0.55708094680E+02  0.10423086757E+03  0.10566000000E+00 0. -1.
     200003    1    4    4    0    0 -0.10126545208E+03  0.38906103866E+02  0.22444782800E+02  0.11476996549E+03  0.30000000000E+02 0. -1.
     200000    1    3    3    0    0 -0.21601563318E+03  0.73734514962E+02  0.72800229379E+03  0.91218795883E+03  0.50000000000E+03 0. -1.
    -200001    1    1    2    0    0  0.31681186035E+03 -0.20073403859E+03 -0.20038977260E+03  0.81903600047E+03  0.70000000000E+03 0.  1.
<mgrwt>
<rscale>  0 0.18537597E+04</rscale>
<asrwt>0</asrwt>
<pdfrwt beam="1">  1        1 0.96032814E-01 0.18537597E+04</pdfrwt>
<pdfrwt beam="2">  1       -1 0.18257073E+00 0.18537597E+04</pdfrwt>
<totfact> 0.60796715E+00</totfact>
</mgrwt>
</event>
<event>
 8    1  0.3214020E-028  0.1648060E+04  0.7818608E-02  0.8791555E-01
         -1   -1    0    0    0  501 -0.00000000000E+00  0.00000000000E+00  0.11931552852E+04  0.11931552852E+04  0.50400000000E-02 0. -1.
          1   -1    0    0  501    0  0.00000000000E+00 -0.00000000000E+00 -0.56910079884E+03  0.56910079886E+03  0.50400000000E-02 0.  1.
     200001    2    1    2    0    0  0.14870039880E+03  0.81082855126E+01 -0.12454575094E+03  0.72660176519E+03  0.70018635249E+03 0.  0.
    5000001    2    3    3    0    0  0.51644233103E+01 -0.42330269358E+02 -0.42853731500E+02  0.19762141573E+03  0.18814690718E+03 0.  0.
        -13    1    4    4    0    0 -0.47561767200E+02 -0.49687870280E+02 -0.95001502999E+02  0.11728726652E+03  0.10566000000E+00 0. -1.
     200003    1    4    4    0    0  0.52726190510E+02  0.73576009219E+01  0.52147771499E+02  0.80334149211E+02  0.30000000000E+02 0. -1.
     200000    1    3    3    0    0  0.14353597549E+03  0.50438554871E+02 -0.81692019436E+02  0.52898034946E+03  0.50000000000E+03 0.  1.
    -200001    1    1    2    0    0 -0.14870039880E+03 -0.81082855126E+01  0.74860023726E+03  0.10356543188E+04  0.70000000000E+03 0. -1.
<mgrwt>
<rscale>  0 0.16480602E+04</rscale>
<asrwt>0</asrwt>
<pdfrwt beam="1">  1        1 0.81300115E-01 0.16480602E+04</pdfrwt>
<pdfrwt beam="2">  1       -1 0.17045075E+00 0.16480602E+04</pdfrwt>
<totfact> 0.96045387E+00</totfact>
</mgrwt>
</event>
<event>
 8    1  0.3214020E-028  0.1590974E+04  0.7818608E-02  0.8826112E-01
         -1   -1    0    0    0  501 -0.00000000000E+00  0.00000000000E+00  0.25283078098E+03  0.25283078103E+03  0.50400000000E-02 0. -1.
          1   -1    0    0  501    0  0.00000000000E+00 -0.00000000000E+00 -0.25028573558E+04  0.25028573558E+04  0.50400000000E-02 0.  1.
     200001    2    1    2    0    0 -0.24026444743E+03  0.66264654564E+02 -0.63123870847E+03  0.97451095155E+03  0.69935061197E+03 0.  0.
    5000001    2    3    3    0    0 -0.14815648334E+03 -0.32561748130E+02 -0.22295356669E+03  0.31500561274E+03  0.16281778821E+03 0.  0.
        -13    1    4    4    0    0 -0.11042573133E+03 -0.92330962824E+02 -0.16393572591E+03  0.21815999227E+03  0.10566000000E+00 0. -1.
     200003    1    4    4    0    0 -0.37730752007E+02  0.59769214694E+02 -0.59017840789E+02  0.96845620467E+02  0.30000000000E+02 0. -1.
     200000    1    3    3    0    0 -0.92107964092E+02  0.98826402694E+02 -0.40828514178E+03  0.65950533881E+03  0.50000000000E+03 0. -1.
    -200001    1    1    2    0    0  0.24026444743E+03 -0.66264654564E+02 -0.16187878663E+04  0.17811771853E+04  0.70000000000E+03 0.  1.
<mgrwt>
<rscale>  0 0.15909738E+04</rscale>
<asrwt>0</asrwt>
<pdfrwt beam="1">  1        1 0.35755104E+00 0.15909738E+04</pdfrwt>
<pdfrwt beam="2">  1       -1 0.36118684E-01 0.15909738E+04</pdfrwt>
<totfact> 0.12652436E+01</totfact>
</mgrwt>
</event>
<event>
 8    1  0.3214020E-028  0.1785659E+04  0.7818608E-02  0.8713963E-01
         -1   -1    0    0    0  501 -0.00000000000E+00  0.00000000000E+00  0.80597314670E+03  0.80597314672E+03  0.50400000000E-02 0. -1.
          1   -1    0    0  501    0  0.00000000000E+00 -0.00000000000E+00 -0.98904557010E+03  0.98904557011E+03  0.50400000000E-02 0.  1.
     200001    2    1    2    0    0 -0.53718535670E+03 -0.80343643485E+02 -0.20132661641E+03  0.90881534058E+03  0.70027830775E+03 0.  0.
    5000001    2    3    3    0    0 -0.12931822440E+03  0.72288507457E+02 -0.80236983970E+02  0.23478650574E+03  0.16351727190E+03 0.  0.
        -13    1    4    4    0    0 -0.22267648603E+02  0.64932894701E+02 -0.10033556266E+03  0.12157041288E+03  0.10566000000E+00 0. -1.
     200003    1    4    4    0    0 -0.10705057580E+03  0.73556127558E+01  0.20098578694E+02  0.11321609286E+03  0.30000000000E+02 0. -1.
     200000    1    3    3    0    0 -0.40786713231E+03 -0.15263215094E+03 -0.12108963244E+03  0.67402883484E+03  0.50000000000E+03 0. -1.
    -200001    1    1    2    0    0  0.53718535670E+03  0.80343643485E+02  0.18254193014E+02  0.88620337625E+03  0.70000000000E+03 0.  1.
<mgrwt>
<rscale>  0 0.17856586E+04</rscale>
<asrwt>0</asrwt>
<pdfrwt beam="1">  1        1 0.14129222E+00 0.17856586E+04</pdfrwt>
<pdfrwt beam="2">  1       -1 0.11513902E+00 0.17856586E+04</pdfrwt>
<totfact> 0.11410704E+01</totfact>
</mgrwt>
</event>
<event>
 8    1  0.3214020E-028  0.1611199E+04  0.7818608E-02  0.8813697E-01
         -1   -1    0    0    0  501 -0.00000000000E+00  0.00000000000E+00  0.26338619382E+03  0.26338619387E+03  0.50400000000E-02 0. -1.
          1   -1    0    0  501    0  0.00000000000E+00 -0.00000000000E+00 -0.24640276137E+04  0.24640276137E+04  0.50400000000E-02 0.  1.
     200001    2    1    2    0    0 -0.88822800767E+02  0.28518103774E+03 -0.15471339189E+04  0.17242738532E+04  0.70019943129E+03 0.  0.
    5000001    2    3    3    0    0 -0.11455809083E+03 -0.38720712470E+02 -0.22146177630E+03  0.27066411238E+03  0.97933107872E+02 0.  0.
        -13    1    4    4    0    0 -0.72230368157E+02  0.13922856408E+02 -0.67307645568E+02  0.99706581180E+02  0.10566000000E+00 0. -1.
     200003    1    4    4    0    0 -0.42327722674E+02 -0.52643568878E+02 -0.15415413073E+03  0.17095753120E+03  0.30000000000E+02 0. -1.
     200000    1    3    3    0    0  0.25735290064E+02  0.32390175021E+03 -0.13256721426E+04  0.14536097408E+04  0.50000000000E+03 0.  1.
    -200001    1    1    2    0    0  0.88822800767E+02 -0.28518103774E+03 -0.65350750100E+03  0.10031399544E+04  0.70000000000E+03 0. -1.
<mgrwt>
<rscale>  0 0.16111994E+04</rscale>
<asrwt>0</asrwt>
<pdfrwt beam="1">  1        1 0.35200393E+00 0.16111994E+04</pdfrwt>
<pdfrwt beam="2">  1       -1 0.37626601E-01 0.16111994E+04</pdfrwt>
<totfact> 0.12416621E+01</totfact>
</mgrwt>
</event>
<event>
 8    1  0.3214020E-028  0.1472719E+04  0.7818608E-02  0.8902800E-01
         -1   -1    0    0    0  501 -0.00000000000E+00  0.00000000000E+00  0.52435252077E+03  0.52435252079E+03  0.50400000000E-02 0. -1.
          1   -1    0    0  501    0  0.00000000000E+00 -0.00000000000E+00 -0.10340849954E+04  0.10340849954E+04  0.50400000000E-02 0.  1.
     200001    2    1    2    0    0 -0.99465906989E+02  0.18850016862E+03 -0.16370905407E+03  0.74901921410E+03  0.69914472642E+03 0.  0.
    5000001    2    3    3    0    0  0.12937810031E+02  0.88012136585E+02 -0.10592339079E+03  0.22359403097E+03  0.17567299979E+03 0.  0.
        -13    1    4    4    0    0 -0.24998837297E+02 -0.18297635890E+02 -0.10214364913E+03  0.10673837907E+03  0.10566000000E+00 0. -1.
     200003    1    4    4    0    0  0.37936647328E+02  0.10630977248E+03 -0.37797416574E+01  0.11685565190E+03  0.30000000000E+02 0. -1.
     200000    1    3    3    0    0 -0.11240371702E+03  0.10048803203E+03 -0.57785663289E+02  0.52542518313E+03  0.50000000000E+03 0. -1.
    -200001    1    1    2    0    0  0.99465906989E+02 -0.18850016862E+03 -0.34602342056E+03  0.80941830212E+03  0.70000000000E+03 0.  1.
<mgrwt>
<rscale>  0 0.14727187E+04</rscale>
<asrwt>0</asrwt>
<pdfrwt beam="1">  1        1 0.14772643E+00 0.14727187E+04</pdfrwt>
<pdfrwt beam="2">  1       -1 0.74907503E-01 0.14727187E+04</pdfrwt>
<totfact> 0.28338982E+01</totfact>
</mgrwt>
</event>
<event>
 8    1  0.3214020E-028  0.1664900E+04  0.7818608E-02  0.8781640E-01
          1   -1    0    0  501    0  0.00000000000E+00  0.00000000000E+00  0.35274523891E+03  0.35274523895E+03  0.50400000000E-02 0.  1.
         -1   -1    0    0    0  501 -0.00000000000E+00 -0.00000000000E+00 -0.19645141735E+04  0.19645141736E+04  0.50400000000E-02 0. -1.
     200001    2    1    2    0    0 -0.26427875468E+03 -0.79021207046E+02 -0.30920568168E+03  0.81301254470E+03  0.69949527012E+03 0.  0.
    5000001    2    3    3    0    0 -0.93488799561E+02  0.85590436423E+02 -0.19287060609E+03  0.24750387833E+03  0.89404813305E+02 0.  0.
        -13    1    4    4    0    0 -0.35087972888E+01  0.54320337875E+02 -0.56291118047E+02  0.78305248229E+02  0.10566000000E+00 0. -1.
     200003    1    4    4    0    0 -0.89980002272E+02  0.31270098548E+02 -0.13657948804E+03  0.16919863010E+03  0.30000000000E+02 0. -1.
     200000    1    3    3    0    0 -0.17078995512E+03 -0.16461164347E+03 -0.11633507559E+03  0.56550866638E+03  0.50000000000E+03 0.  1.
    -200001    1    1    2    0    0  0.26427875468E+03  0.79021207046E+02 -0.13025632530E+04  0.15042468678E+04  0.70000000000E+03 0. -1.
<mgrwt>
<rscale>  0 0.16649000E+04</rscale>
<asrwt>0</asrwt>
<pdfrwt beam="1">  1        1 0.50392178E-01 0.16649000E+04</pdfrwt>
<pdfrwt beam="2">  1       -1 0.28064488E+00 0.16649000E+04</pdfrwt>
<totfact> 0.32985775E+00</totfact>
</mgrwt>
</event>
<event>
 8    1  0.3214020E-028  0.1842961E+04  0.7818608E-02  0.8683781E-01
         -1   -1    0    0    0  501 -0.00000000000E+00  0.00000000000E+00  0.52027340623E+03  0.52027340625E+03  0.50400000000E-02 0. -1.
          1   -1    0    0  501    0  0.00000000000E+00 -0.00000000000E+00 -0.16320775434E+04  0.16320775434E+04  0.50400000000E-02 0.  1.
     200001    2    1    2    0    0  0.37928646397E+03  0.46215505980E+03 -0.61292498721E+03  0.11052951119E+04  0.69896689722E+03 0.  0.
    5000001    2    3    3    0    0  0.15984538050E+03  0.16950909725E+03 -0.23763193591E+03  0.38097410374E+03  0.18544123339E+03 0.  0.
        -13    1    4    4    0    0 -0.24380260417E+02 -0.18890322644E+01 -0.77364985909E+02  0.81137646932E+02  0.10566000000E+00 0. -1.
     200003    1    4    4    0    0  0.18422564091E+03  0.17139812952E+03 -0.16026695000E+03  0.29983645681E+03  0.30000000000E+02 0. -1.
     200000    1    3    3    0    0  0.21944108348E+03  0.29264596255E+03 -0.37529305130E+03  0.72432100817E+03  0.50000000000E+03 0. -1.
    -200001    1    1    2    0    0 -0.37928646397E+03 -0.46215505980E+03 -0.49887914992E+03  0.10470558377E+04  0.70000000000E+03 0. -1.
<mgrwt>
<rscale>  0 0.18429613E+04</rscale>
<asrwt>0</asrwt>
<pdfrwt beam="1">  1        1 0.23315393E+00 0.18429613E+04</pdfrwt>
<pdfrwt beam="2">  1       -1 0.74324773E-01 0.18429613E+04</pdfrwt>
<totfact> 0.10969240E+01</totfact>
</mgrwt>
</event>
<event>
 8    1  0.3214020E-028  0.1589237E+04  0.7818608E-02  0.8827187E-01
         -1   -1    0    0    0  501 -0.00000000000E+00  0.00000000000E+00  0.30524545186E+03  0.30524545190E+03  0.50400000000E-02 0. -1.
          1   -1    0    0  501    0  0.00000000000E+00 -0.00000000000E+00 -0.20685608166E+04  0.20685608166E+04  0.50400000000E-02 0.  1.
     200001    2    1    2    0    0  0.24009238912E+03  0.22636969034E+03 -0.61567271742E+03  0.98962014015E+03  0.70100466104E+03 0.  0.
    5000001    2    3    3    0    0 -0.76350731091E+01 -0.47185216822E+02 -0.12700725945E+03  0.19905381619E+03  0.14562568028E+03 0.  0.
        -13    1    4    4    0    0  0.24303769785E+02 -0.69639203279E+02 -0.13027781543E+03  0.14970842400E+03  0.10566000000E+00 0. -1.
     200003    1    4    4    0    0 -0.31938842894E+02  0.22453986458E+02  0.32705559806E+01  0.49345392183E+02  0.30000000000E+02 0. -1.
     200000    1    3    3    0    0  0.24772746223E+03  0.27355490716E+03 -0.48866545797E+03  0.79056632397E+03  0.50000000000E+03 0.  1.
    -200001    1    1    2    0    0 -0.24009238912E+03 -0.22636969034E+03 -0.11476426474E+04  0.13841861284E+04  0.70000000000E+03 0.  1.
<mgrwt>
<rscale>  0 0.15892373E+04</rscale>
<asrwt>0</asrwt>
<pdfrwt beam="1">  1        1 0.29550868E+00 0.15892373E+04</pdfrwt>
<pdfrwt beam="2">  1       -1 0.43606494E-01 0.15892373E+04</pdfrwt>
<totfact> 0.16856803E+01</totfact>
</mgrwt>
</event>
<event>
 8    1  0.3214020E-028  0.3356614E+04  0.7818608E-02  0.8148638E-01
         -1   -1    0    0    0  501 -0.00000000000E+00  0.00000000000E+00  0.80195571478E+03  0.80195571480E+03  0.50400000000E-02 0. -1.
          1   -1    0    0  501    0  0.00000000000E+00 -0.00000000000E+00 -0.35123064386E+04  0.35123064386E+04  0.50400000000E-02 0.  1.
     200001    2    1    2    0    0 -0.39455740767E+03 -0.11802498201E+04 -0.22106531235E+03  0.14445571083E+04  0.69943561612E+03 0.  0.
    5000001    2    3    3    0    0 -0.13444076719E+03 -0.44133008254E+03 -0.35741872663E+02  0.49692436168E+03  0.18113469611E+03 0.  0.
        -13    1    4    4    0    0 -0.24360403036E+02 -0.19784802212E+03  0.65168146118E+02  0.20972402706E+03  0.10566000000E+00 0. -1.
     200003    1    4    4    0    0 -0.11008036415E+03 -0.24348206041E+03 -0.10091001878E+03  0.28720033462E+03  0.30000000000E+02 0. -1.
     200000    1    3    3    0    0 -0.26011664049E+03 -0.73891973759E+03 -0.18532343969E+03  0.94763274666E+03  0.50000000000E+03 0. -1.
    -200001    1    1    2    0    0  0.39455740767E+03  0.11802498201E+04 -0.24892854114E+04  0.28697050450E+04  0.70000000000E+03 0.  1.
<mgrwt>
<rscale>  0 0.33566139E+04</rscale>
<asrwt>0</asrwt>
<pdfrwt beam="1">  1        1 0.50175805E+00 0.33566139E+04</pdfrwt>
<pdfrwt beam="2">  1       -1 0.11456510E+00 0.33566139E+04</pdfrwt>
<totfact> 0.21994284E-01</totfact>
</mgrwt>
</event>
<event>
 8    1  0.3214020E-028  0.1910936E+04  0.7818608E-02  0.8649432E-01
          1   -1    0    0  501    0  0.00000000000E+00  0.00000000000E+00  0.13078103379E+04  0.13078103379E+04  0.50400000000E-02 0.  1.
         -1   -1    0    0    0  501 -0.00000000000E+00 -0.00000000000E+00 -0.69805183022E+03  0.69805183024E+03  0.50400000000E-02 0. -1.
     200001    2    1    2    0    0 -0.15387857531E+03 -0.62849668887E+03  0.37300562649E+03  0.10236510754E+04  0.70002973009E+03 0.  0.
    5000001    2    3    3    0    0  0.22878542954E+02 -0.92613835894E+02  0.68628996539E+02  0.21059594580E+03  0.17475686795E+03 0.  0.
        -13    1    4    4    0    0  0.59966021100E+02 -0.10327685669E+03 -0.80147647139E+01  0.11969244100E+03  0.10566000000E+00 0. -1.
     200003    1    4    4    0    0 -0.37087478146E+02  0.10663020795E+02  0.76643761253E+02  0.90903504810E+02  0.30000000000E+02 0. -1.
     200000    1    3    3    0    0 -0.17675711827E+03 -0.53588285297E+03  0.30437662995E+03  0.81305512964E+03  0.50000000000E+03 0. -1.
    -200001    1    1    2    0    0  0.15387857531E+03  0.62849668887E+03  0.23675288116E+03  0.98221109269E+03  0.70000000000E+03 0. -1.
<mgrwt>
<rscale>  0 0.19109363E+04</rscale>
<asrwt>0</asrwt>
<pdfrwt beam="1">  1        1 0.18683005E+00 0.19109363E+04</pdfrwt>
<pdfrwt beam="2">  1       -1 0.99721690E-01 0.19109363E+04</pdfrwt>
<totfact> 0.93908673E+00</totfact>
</mgrwt>
</event>
<event>
 8    1  0.3214020E-028  0.1833768E+04  0.7818608E-02  0.8688546E-01
         -1   -1    0    0    0  501 -0.00000000000E+00  0.00000000000E+00  0.88199594572E+03  0.88199594574E+03  0.50400000000E-02 0.  1.
          1   -1    0    0  501    0  0.00000000000E+00 -0.00000000000E+00 -0.95315169361E+03  0.95315169362E+03  0.50400000000E-02 0. -1.
     200001    2    1    2    0    0  0.39399281416E+03 -0.42955807576E+03  0.69243468086E+02  0.91348478457E+03  0.69993522251E+03 0.  0.
    5000001    2    3    3    0    0  0.93418767471E+02 -0.24457235296E+03  0.55950214168E+02  0.30132370627E+03  0.13828538443E+03 0.  0.
        -13    1    4    4    0    0  0.10438195594E+03 -0.24026415637E+03  0.38805243261E+02  0.26481751383E+03  0.10566000000E+00 0. -1.
     200003    1    4    4    0    0 -0.10963188473E+02 -0.43081965969E+01  0.17144970907E+02  0.36506192445E+02  0.30000000000E+02 0. -1.
     200000    1    3    3    0    0  0.30057404669E+03 -0.18498572280E+03  0.13293253918E+02  0.61216107830E+03  0.50000000000E+03 0. -1.
    -200001    1    1    2    0    0 -0.39399281416E+03  0.42955807576E+03 -0.14039921597E+03  0.92166285479E+03  0.70000000000E+03 0. -1.
<mgrwt>
<rscale>  0 0.18337676E+04</rscale>
<asrwt>0</asrwt>
<pdfrwt beam="1">  1        1 0.13616453E+00 0.18337676E+04</pdfrwt>
<pdfrwt beam="2">  1       -1 0.12599942E+00 0.18337676E+04</pdfrwt>
<totfact> 0.97030749E+00</totfact>
</mgrwt>
</event>
<event>
 8    1  0.3214020E-028  0.1905534E+04  0.7818608E-02  0.8652106E-01
         -1   -1    0    0    0  501 -0.00000000000E+00  0.00000000000E+00  0.33914211658E+03  0.33914211662E+03  0.50400000000E-02 0. -1.
          1   -1    0    0  501    0  0.00000000000E+00 -0.00000000000E+00 -0.26766518854E+04  0.26766518854E+04  0.50400000000E-02 0.  1.
     200001    2    1    2    0    0 -0.63322111352E+03 -0.92622331894E+02 -0.13086125695E+04  0.16164451100E+04  0.70062833332E+03 0.  0.
    5000001    2    3    3    0    0 -0.18203287033E+03  0.26642738607E+02 -0.50804640124E+03  0.56349630892E+03  0.15990979629E+03 0.  0.
        -13    1    4    4    0    0 -0.11587542407E+03 -0.26843952944E+02 -0.13602724679E+03  0.18069624995E+03  0.10566000000E+00 0. -1.
     200003    1    4    4    0    0 -0.66157446260E+02  0.53486691551E+02 -0.37201915445E+03  0.38280005897E+03  0.30000000000E+02 0. -1.
     200000    1    3    3    0    0 -0.45118824319E+03 -0.11926507050E+03 -0.80056616830E+03  0.10529488011E+04  0.50000000000E+03 0. -1.
    -200001    1    1    2    0    0  0.63322111352E+03  0.92622331894E+02 -0.10288971993E+04  0.13993488920E+04  0.70000000000E+03 0. -1.
<mgrwt>
<rscale>  0 0.19055345E+04</rscale>
<asrwt>0</asrwt>
<pdfrwt beam="1">  1        1 0.38237883E+00 0.19055345E+04</pdfrwt>
<pdfrwt beam="2">  1       -1 0.48448875E-01 0.19055345E+04</pdfrwt>
<totfact> 0.55458428E+00</totfact>
</mgrwt>
</event>
<event>
 8    1  0.3214020E-028  0.1861260E+04  0.7818608E-02  0.8674384E-01
          1   -1    0    0  501    0  0.00000000000E+00  0.00000000000E+00  0.70333438876E+03  0.70333438878E+03  0.50400000000E-02 0.  1.
         -1   -1    0    0    0  501 -0.00000000000E+00 -0.00000000000E+00 -0.12313802211E+04  0.12313802211E+04  0.50400000000E-02 0. -1.
     200001    2    1    2    0    0 -0.14327426614E+02  0.40041542002E+03 -0.74650701748E+03  0.10990932404E+04  0.70013958625E+03 0.  0.
    5000001    2    3    3    0    0 -0.44990075977E+02  0.12638757503E+03 -0.18704873162E+03  0.29970282797E+03  0.19192871341E+03 0.  0.
        -13    1    4    4    0    0 -0.89937084230E+02  0.27791171061E+02 -0.15744035839E+03  0.18343529083E+03  0.10566000000E+00 0. -1.
     200003    1    4    4    0    0  0.44947008253E+02  0.98596403968E+02 -0.29608373233E+02  0.11626753714E+03  0.30000000000E+02 0. -1.
     200000    1    3    3    0    0  0.30662649363E+02  0.27402784499E+03 -0.55945828586E+03  0.79939041245E+03  0.50000000000E+03 0. -1.
    -200001    1    1    2    0    0  0.14327426614E+02 -0.40041542002E+03  0.21846118512E+03  0.83562136949E+03  0.70000000000E+03 0.  1.
<mgrwt>
<rscale>  0 0.18612598E+04</rscale>
<asrwt>0</asrwt>
<pdfrwt beam="1">  1        1 0.10047634E+00 0.18612598E+04</pdfrwt>
<pdfrwt beam="2">  1       -1 0.17591146E+00 0.18612598E+04</pdfrwt>
<totfact> 0.63479204E+00</totfact>
</mgrwt>
</event>
<event>
 8    1  0.3214020E-028  0.2207299E+04  0.7818608E-02  0.8515396E-01
          1   -1    0    0  501    0  0.00000000000E+00  0.00000000000E+00  0.27949692630E+04  0.27949692630E+04  0.50400000000E-02 0.  1.
         -1   -1    0    0    0  501 -0.00000000000E+00 -0.00000000000E+00 -0.43579817226E+03  0.43579817229E+03  0.50400000000E-02 0. -1.
     200001    2    1    2    0    0 -0.20195233551E+03 -0.71272468255E+03  0.17995028854E+04  0.20680165080E+04  0.69980027427E+03 0.  0.
    5000001    2    3    3    0    0 -0.11362038796E+02 -0.25171335345E+03  0.46042695206E+03  0.55408769131E+03  0.17757106534E+03 0.  0.
        -13    1    4    4    0    0 -0.18264388798E+02 -0.15865104370E+03  0.41764512448E+03  0.44713667120E+03  0.10566000000E+00 0. -1.
     200003    1    4    4    0    0  0.69023500022E+01 -0.93062309754E+02  0.42781827585E+02  0.10695102012E+03  0.30000000000E+02 0. -1.
     200000    1    3    3    0    0 -0.19059029672E+03 -0.46101132909E+03  0.13390759333E+04  0.15139288167E+04  0.50000000000E+03 0.  1.
    -200001    1    1    2    0    0  0.20195233551E+03  0.71272468255E+03  0.55966820540E+03  0.11627509274E+04  0.70000000000E+03 0. -1.
<mgrwt>
<rscale>  0 0.22072993E+04</rscale>
<asrwt>0</asrwt>
<pdfrwt beam="1">  1        1 0.39928133E+00 0.22072993E+04</pdfrwt>
<pdfrwt beam="2">  1       -1 0.62256880E-01 0.22072993E+04</pdfrwt>
<totfact> 0.27835550E+00</totfact>
</mgrwt>
</event>
<event>
 8    1  0.3214020E-028  0.2349349E+04  0.7818608E-02  0.8458714E-01
         -1   -1    0    0    0  501 -0.00000000000E+00  0.00000000000E+00  0.88773998892E+03  0.88773998894E+03  0.50400000000E-02 0. -1.
          1   -1    0    0  501    0  0.00000000000E+00 -0.00000000000E+00 -0.15543515464E+04  0.15543515464E+04  0.50400000000E-02 0.  1.
     200001    2    1    2    0    0  0.11269793451E+02  0.82116590892E+03  0.14951307480E+03  0.10891318635E+04  0.69958101630E+03 0.  0.
    5000001    2    3    3    0    0  0.30755921322E+02  0.13683948350E+03  0.90387415078E+02  0.23932117321E+03  0.17156272382E+03 0.  0.
        -13    1    4    4    0    0  0.51747785431E+00  0.12490050691E+03 -0.14255016454E+02  0.12571245391E+03  0.10566000000E+00 0. -1.
     200003    1    4    4    0    0  0.30238443468E+02  0.11938976589E+02  0.10464243153E+03  0.11360871930E+03  0.30000000000E+02 0. -1.
     200000    1    3    3    0    0 -0.19486127871E+02  0.68432642542E+03  0.59125659721E+02  0.84981069030E+03  0.50000000000E+03 0. -1.
    -200001    1    1    2    0    0 -0.11269793451E+02 -0.82116590892E+03 -0.81612463229E+03  0.13529596719E+04  0.70000000000E+03 0.  1.
<mgrwt>
<rscale>  0 0.23493489E+04</rscale>
<asrwt>0</asrwt>
<pdfrwt beam="1">  1        1 0.22205022E+00 0.23493489E+04</pdfrwt>
<pdfrwt beam="2">  1       -1 0.12682000E+00 0.23493489E+04</pdfrwt>
<totfact> 0.35002754E+00</totfact>
</mgrwt>
</event>
<event>
 8    1  0.3214020E-028  0.2054302E+04  0.7818608E-02  0.8581645E-01
          1   -1    0    0  501    0  0.00000000000E+00  0.00000000000E+00  0.92995464956E+03  0.92995464958E+03  0.50400000000E-02 0.  1.
         -1   -1    0    0    0  501 -0.00000000000E+00 -0.00000000000E+00 -0.11345060144E+04  0.11345060145E+04  0.50400000000E-02 0. -1.
     200001    2    1    2    0    0  0.72331194014E+03  0.20369135645E+03 -0.10303728696E+03  0.10324841917E+04  0.70052593967E+03 0.  0.
    5000001    2    3    3    0    0  0.14784969409E+03 -0.18984879470E+02  0.72487442083E+01  0.23067092706E+03  0.17588796038E+03 0.  0.
        -13    1    4    4    0    0  0.15372965345E+03  0.14131411442E+02  0.56053568640E+02  0.16423920622E+03  0.10566000000E+00 0. -1.
     200003    1    4    4    0    0 -0.58799593583E+01 -0.33116290912E+02 -0.48804824432E+02  0.66431720839E+02  0.30000000000E+02 0. -1.
     200000    1    3    3    0    0  0.57546224605E+03  0.22267623592E+03 -0.11028603117E+03  0.80181326463E+03  0.50000000000E+03 0. -1.
    -200001    1    1    2    0    0 -0.72331194014E+03 -0.20369135645E+03 -0.10151407792E+03  0.10319764723E+04  0.70000000000E+03 0.  1.
<mgrwt>
<rscale>  0 0.20543020E+04</rscale>
<asrwt>0</asrwt>
<pdfrwt beam="1">  1        1 0.13285067E+00 0.20543020E+04</pdfrwt>
<pdfrwt beam="2">  1       -1 0.16207229E+00 0.20543020E+04</pdfrwt>
<totfact> 0.51021241E+00</totfact>
</mgrwt>
</event>
<event>
 8    1  0.3214020E-028  0.1687519E+04  0.7818608E-02  0.8768515E-01
         -1   -1    0    0    0  501 -0.00000000000E+00  0.00000000000E+00  0.10314753315E+04  0.10314753315E+04  0.50400000000E-02 0. -1.
          1   -1    0    0  501    0  0.00000000000E+00 -0.00000000000E+00 -0.69020555911E+03  0.69020555913E+03  0.50400000000E-02 0.  1.
     200001    2    1    2    0    0 -0.11065361936E+03 -0.44555774830E+03  0.27805728440E+03  0.88217999773E+03  0.70011410815E+03 0.  0.
    5000001    2    3    3    0    0 -0.15549559916E+02 -0.39521624331E+02  0.54809961394E+02  0.19388537816E+03  0.18106258695E+03 0.  0.
        -13    1    4    4    0    0  0.89527216514E+01 -0.92683772311E+02 -0.18984643718E+02  0.95030840972E+02  0.10566000000E+00 0. -1.
     200003    1    4    4    0    0 -0.24502281567E+02  0.53162147980E+02  0.73794605112E+02  0.98854537192E+02  0.30000000000E+02 0. -1.
     200000    1    3    3    0    0 -0.95104059443E+02 -0.40603612397E+03  0.22324732301E+03  0.68829461956E+03  0.50000000000E+03 0.  1.
    -200001    1    1    2    0    0  0.11065361936E+03  0.44555774830E+03  0.63212487974E+02  0.83950089290E+03  0.70000000000E+03 0.  1.
<mgrwt>
<rscale>  0 0.16875189E+04</rscale>
<asrwt>0</asrwt>
<pdfrwt beam="1">  1        1 0.98600796E-01 0.16875189E+04</pdfrwt>
<pdfrwt beam="2">  1       -1 0.14735362E+00 0.16875189E+04</pdfrwt>
<totfact> 0.10879533E+01</totfact>
</mgrwt>
</event>
<event>
 8    1  0.3214020E-028  0.1486731E+04  0.7818608E-02  0.8893325E-01
          1   -1    0    0  501    0  0.00000000000E+00  0.00000000000E+00  0.12466184793E+04  0.12466184793E+04  0.50400000000E-02 0.  1.
         -1   -1    0    0    0  501 -0.00000000000E+00 -0.00000000000E+00 -0.44327274029E+03  0.44327274032E+03  0.50400000000E-02 0. -1.
     200001    2    1    2    0    0  0.65185542483E+02  0.10590975314E+03  0.14982458822E+03  0.72420186726E+03  0.69753487837E+03 0.  0.
    5000001    2    3    3    0    0  0.38677799255E+02  0.37968433550E+02  0.98626634111E+02  0.21632401397E+03  0.18474656144E+03 0.  0.
        -13    1    4    4    0    0  0.83752364932E+02 -0.15222235738E+02  0.11051435845E+03  0.13949770493E+03  0.10566000000E+00 0. -1.
     200003    1    4    4    0    0 -0.45074565676E+02  0.53190669288E+02 -0.11887724344E+02  0.76826309038E+02  0.30000000000E+02 0. -1.
     200000    1    3    3    0    0  0.26507743228E+02  0.67941319585E+02  0.51197954107E+02  0.50787785329E+03  0.50000000000E+03 0. -1.
    -200001    1    1    2    0    0 -0.65185542483E+02 -0.10590975314E+03  0.65352115080E+03  0.96568935238E+03  0.70000000000E+03 0.  1.
<mgrwt>
<rscale>  0 0.14867306E+04</rscale>
<asrwt>0</asrwt>
<pdfrwt beam="1">  1        1 0.17808836E+00 0.14867306E+04</pdfrwt>
<pdfrwt beam="2">  1       -1 0.63324676E-01 0.14867306E+04</pdfrwt>
<totfact> 0.28185580E+01</totfact>
</mgrwt>
</event>
<event>
 8    1  0.3214020E-028  0.1794798E+04  0.7818608E-02  0.8709071E-01
          1   -1    0    0  501    0  0.00000000000E+00  0.00000000000E+00  0.50256403963E+03  0.50256403966E+03  0.50400000000E-02 0.  1.
         -1   -1    0    0    0  501 -0.00000000000E+00 -0.00000000000E+00 -0.16024316903E+04  0.16024316903E+04  0.50400000000E-02 0. -1.
     200001    2    1    2    0    0 -0.39660499738E+03  0.30944259412E+03 -0.25642396228E+03  0.89899096278E+03  0.69955790306E+03 0.  0.
    5000001    2    3    3    0    0 -0.67110209532E+02  0.12792925041E+03 -0.11346457856E+02  0.22699625124E+03  0.17472516315E+03 0.  0.
        -13    1    4    4    0    0 -0.56981677799E+02  0.61538702571E+02  0.75737880201E+02  0.11300513785E+03  0.10566000000E+00 0. -1.
     200003    1    4    4    0    0 -0.10128531733E+02  0.66390547840E+02 -0.87084338057E+02  0.11399111339E+03  0.30000000000E+02 0. -1.
     200000    1    3    3    0    0 -0.32949478784E+03  0.18151334371E+03 -0.24507750442E+03  0.67199471154E+03  0.50000000000E+03 0.  1.
    -200001    1    1    2    0    0  0.39660499738E+03 -0.30944259412E+03 -0.84344368840E+03  0.12060047672E+04  0.70000000000E+03 0. -1.
<mgrwt>
<rscale>  0 0.17947975E+04</rscale>
<asrwt>0</asrwt>
<pdfrwt beam="1">  1        1 0.71794863E-01 0.17947975E+04</pdfrwt>
<pdfrwt beam="2">  1       -1 0.22891881E+00 0.17947975E+04</pdfrwt>
<totfact> 0.44283404E+00</totfact>
</mgrwt>
</event>
<event>
 8    1  0.3214020E-028  0.1987234E+04  0.7818608E-02  0.8612612E-01
         -1   -1    0    0    0  501 -0.00000000000E+00  0.00000000000E+00  0.36398093761E+03  0.36398093764E+03  0.50400000000E-02 0. -1.
          1   -1    0    0  501    0  0.00000000000E+00 -0.00000000000E+00 -0.27124355056E+04  0.27124355056E+04  0.50400000000E-02 0.  1.
     200001    2    1    2    0    0 -0.59883491664E+03 -0.31366255661E+03 -0.14838347875E+04  0.17746657676E+04  0.70048943833E+03 0.  0.
    5000001    2    3    3    0    0 -0.85645579832E+02 -0.13688528265E+03 -0.37464426010E+03  0.44240561052E+03  0.17114805475E+03 0.  0.
        -13    1    4    4    0    0 -0.10762428366E+03 -0.32104684221E+02 -0.25734665379E+03  0.28078641094E+03  0.10566000000E+00 0. -1.
     200003    1    4    4    0    0  0.21978703831E+02 -0.10478059843E+03 -0.11729760630E+03  0.16161919958E+03  0.30000000000E+02 0. -1.
     200000    1    3    3    0    0 -0.51318933681E+03 -0.17677727396E+03 -0.11091905275E+04  0.13322601571E+04  0.50000000000E+03 0.  1.
    -200001    1    1    2    0    0  0.59883491664E+03  0.31366255661E+03 -0.86461978048E+03  0.13017506757E+04  0.70000000000E+03 0. -1.
<mgrwt>
<rscale>  0 0.19872341E+04</rscale>
<asrwt>0</asrwt>
<pdfrwt beam="1">  1        1 0.38749077E+00 0.19872341E+04</pdfrwt>
<pdfrwt beam="2">  1       -1 0.51997279E-01 0.19872341E+04</pdfrwt>
<totfact> 0.45641014E+00</totfact>
</mgrwt>
</event>
<event>
 8    1  0.3589640E-028  0.2342220E+04  0.7818608E-02  0.8461458E-01
         -1   -1    0    0    0  501 -0.00000000000E+00  0.00000000000E+00  0.14877772617E+04  0.14877772617E+04  0.50400000000E-02 0. -1.
          1   -1    0    0  501    0  0.00000000000E+00 -0.00000000000E+00 -0.92184370373E+03  0.92184370374E+03  0.50400000000E-02 0.  1.
     200001    2    1    2    0    0 -0.81399642048E+03  0.12552791048E+03  0.74245758341E+03  0.13144003665E+04  0.70573198264E+03 0.  0.
    5000001    2    3    3    0    0 -0.15308103841E+03  0.37568530710E+01  0.21814740455E+03  0.32620074273E+03  0.18807104025E+03 0.  0.
        -13    1    4    4    0    0 -0.11739419398E+03  0.31947424643E+02  0.23874331282E+03  0.26795599508E+03  0.10566000000E+00 0. -1.
     200003    1    4    4    0    0 -0.35686844431E+02 -0.28190571572E+02 -0.20595908270E+02  0.58244747647E+02  0.30000000000E+02 0. -1.
     200000    1    3    3    0    0 -0.66091538207E+03  0.12177105741E+03  0.52431017886E+03  0.98819962373E+03  0.50000000000E+03 0. -1.
    -200001    1    1    2    0    0  0.81399642048E+03 -0.12552791048E+03 -0.17652402545E+03  0.10952205990E+04  0.70000000000E+03 0.  1.
<mgrwt>
<rscale>  0 0.23422195E+04</rscale>
<asrwt>0</asrwt>
<pdfrwt beam="1">  1        1 0.13169196E+00 0.23422195E+04</pdfrwt>
<pdfrwt beam="2">  1       -1 0.21253961E+00 0.23422195E+04</pdfrwt>
<totfact> 0.22150706E+00</totfact>
</mgrwt>
</event>
<event>
 8    1  0.3214020E-028  0.2044792E+04  0.7818608E-02  0.8585961E-01
          1   -1    0    0  501    0  0.00000000000E+00  0.00000000000E+00  0.32189793376E+04  0.32189793376E+04  0.50400000000E-02 0.  1.
         -1   -1    0    0    0  501 -0.00000000000E+00 -0.00000000000E+00 -0.32472822557E+03  0.32472822561E+03  0.50400000000E-02 0. -1.
     200001    2    1    2    0    0  0.29710804989E+03 -0.22917159306E+03  0.33021139353E+03  0.85947722837E+03  0.69919148257E+03 0.  0.
    5000001    2    3    3    0    0  0.57296761107E+02 -0.15607338487E+03  0.77315774452E+02  0.24562953031E+03  0.16344514947E+03 0.  0.
        -13    1    4    4    0    0  0.41318358188E+01 -0.10000420037E+03 -0.35006920585E+02  0.10603493675E+03  0.10566000000E+00 0. -1.
     200003    1    4    4    0    0  0.53164925289E+02 -0.56069184499E+02  0.11232269504E+03  0.13959459356E+03  0.30000000000E+02 0.  1.
     200000    1    3    3    0    0  0.23981128878E+03 -0.73098208189E+02  0.25289561907E+03  0.61384769806E+03  0.50000000000E+03 0. -1.
    -200001    1    1    2    0    0 -0.29710804989E+03  0.22917159306E+03  0.25640397185E+04  0.26842303349E+04  0.70000000000E+03 0.  1.
<mgrwt>
<rscale>  0 0.20447919E+04</rscale>
<asrwt>0</asrwt>
<pdfrwt beam="1">  1        1 0.45985421E+00 0.20447919E+04</pdfrwt>
<pdfrwt beam="2">  1       -1 0.46389745E-01 0.20447919E+04</pdfrwt>
<totfact> 0.26149324E+00</totfact>
</mgrwt>
</event>
<event>
 8    1  0.3214020E-028  0.1755744E+04  0.7818608E-02  0.8730195E-01
         -1   -1    0    0    0  501 -0.00000000000E+00  0.00000000000E+00  0.10839940239E+04  0.10839940239E+04  0.50400000000E-02 0. -1.
          1   -1    0    0  501    0  0.00000000000E+00 -0.00000000000E+00 -0.71094432431E+03  0.71094432433E+03  0.50400000000E-02 0.  1.
     200001    2    1    2    0    0 -0.24047342943E+02  0.50995421618E+03  0.43317887196E+02  0.86792451587E+03  0.70056045320E+03 0.  0.
    5000001    2    3    3    0    0  0.86943705504E+00  0.27079684051E+03  0.71165601636E+02  0.31241340755E+03  0.13858538743E+03 0.  0.
        -13    1    4    4    0    0 -0.29274501137E+02  0.13496746569E+03 -0.25391368453E+02  0.14042060378E+03  0.10566000000E+00 0. -1.
     200003    1    4    4    0    0  0.30143938192E+02  0.13582937483E+03  0.96556970089E+02  0.17199280377E+03  0.30000000000E+02 0. -1.
     200000    1    3    3    0    0 -0.24916779999E+02  0.23915737567E+03 -0.27847714440E+02  0.55551110831E+03  0.50000000000E+03 0.  1.
    -200001    1    1    2    0    0  0.24047342943E+02 -0.50995421618E+03  0.32973181239E+03  0.92701383237E+03  0.70000000000E+03 0. -1.
<mgrwt>
<rscale>  0 0.17557442E+04</rscale>
<asrwt>0</asrwt>
<pdfrwt beam="1">  1        1 0.10156348E+00 0.17557442E+04</pdfrwt>
<pdfrwt beam="2">  1       -1 0.15485629E+00 0.17557442E+04</pdfrwt>
<totfact> 0.90508788E+00</totfact>
</mgrwt>
</event>
<event>
 8    1  0.3214020E-028  0.1611774E+04  0.7818608E-02  0.8813347E-01
         -1   -1    0    0    0  501 -0.00000000000E+00  0.00000000000E+00  0.64344088590E+03  0.64344088592E+03  0.50400000000E-02 0. -1.
          1   -1    0    0  501    0  0.00000000000E+00 -0.00000000000E+00 -0.10093450561E+04  0.10093450561E+04  0.50400000000E-02 0.  1.
     200001    2    1    2    0    0 -0.19659028114E+03 -0.32814611029E+03 -0.30166472205E+03  0.85250204548E+03  0.69959311367E+03 0.  0.
    5000001    2    3    3    0    0 -0.35710863845E+02 -0.45346500672E+02 -0.97225291442E+02  0.22190448214E+03  0.19093787204E+03 0.  0.
        -13    1    4    4    0    0  0.68976183085E+02 -0.37130069127E+01 -0.77229707355E+02  0.10361437697E+03  0.10566000000E+00 0. -1.
     200003    1    4    4    0    0 -0.10468704693E+03 -0.41633493759E+02 -0.19995584087E+02  0.11829010517E+03  0.30000000000E+02 0. -1.
     200000    1    3    3    0    0 -0.16087941729E+03 -0.28279960961E+03 -0.20443943060E+03  0.63059756334E+03  0.50000000000E+03 0. -1.
    -200001    1    1    2    0    0  0.19659028114E+03  0.32814611029E+03 -0.64239448117E+02  0.80028389652E+03  0.70000000000E+03 0. -1.
<mgrwt>
<rscale>  0 0.16117740E+04</rscale>
<asrwt>0</asrwt>
<pdfrwt beam="1">  1        1 0.14419215E+00 0.16117740E+04</pdfrwt>
<pdfrwt beam="2">  1       -1 0.91920126E-01 0.16117740E+04</pdfrwt>
<totfact> 0.18812836E+01</totfact>
</mgrwt>
</event>
<event>
 8    1  0.3214020E-028  0.1821670E+04  0.7818608E-02  0.8694860E-01
         -1   -1    0    0    0  501 -0.00000000000E+00  0.00000000000E+00  0.18982554848E+03  0.18982554855E+03  0.50400000000E-02 0. -1.
          1   -1    0    0  501    0  0.00000000000E+00 -0.00000000000E+00 -0.43704353409E+04  0.43704353409E+04  0.50400000000E-02 0.  1.
     200001    2    1    2    0    0  0.45313149245E+02  0.28631523152E+03 -0.82735574857E+03  0.11224792827E+04  0.70100821112E+03 0.  0.
    5000001    2    3    3    0    0  0.10049444277E+03  0.12359109798E+03 -0.18738679966E+03  0.29236822122E+03  0.15808691143E+03 0.  0.
        -13    1    4    4    0    0  0.65902248843E+02  0.14320304077E+03 -0.86399246292E+02  0.17976389574E+03  0.10566000000E+00 0. -1.
     200003    1    4    4    0    0  0.34592193927E+02 -0.19611942791E+02 -0.10098755337E+03  0.11260432548E+03  0.30000000000E+02 0. -1.
     200000    1    3    3    0    0 -0.55181293525E+02  0.16272413354E+03 -0.63996894891E+03  0.83011106146E+03  0.50000000000E+03 0. -1.
    -200001    1    1    2    0    0 -0.45313149245E+02 -0.28631523152E+03 -0.33532540438E+04  0.34377816068E+04  0.70000000000E+03 0.  1.
<mgrwt>
<rscale>  0 0.18216699E+04</rscale>
<asrwt>0</asrwt>
<pdfrwt beam="1">  1        1 0.62434784E+00 0.18216699E+04</pdfrwt>
<pdfrwt beam="2">  1       -1 0.27117938E-01 0.18216699E+04</pdfrwt>
<totfact> 0.99022726E-01</totfact>
</mgrwt>
</event>
<event>
 8    1  0.3214020E-028  0.1692726E+04  0.7818608E-02  0.8765524E-01
         -1   -1    0    0    0  501 -0.00000000000E+00  0.00000000000E+00  0.50267871088E+03  0.50267871090E+03  0.50400000000E-02 0.  1.
          1   -1    0    0  501    0  0.00000000000E+00 -0.00000000000E+00 -0.14250260098E+04  0.14250260098E+04  0.50400000000E-02 0. -1.
     200001    2    1    2    0    0 -0.40197029252E+03 -0.11506105453E+03 -0.20288095851E+03  0.84029910305E+03  0.70008766375E+03 0.  0.
    5000001    2    3    3    0    0 -0.21038544612E+03  0.20195468265E+02 -0.15885475020E+03  0.28627980073E+03  0.10977886758E+03 0.  0.
        -13    1    4    4    0    0 -0.19820352671E+03  0.12324371013E+02 -0.10963118906E+03  0.22683812928E+03  0.10566000000E+00 0. -1.
     200003    1    4    4    0    0 -0.12181919415E+02  0.78710972514E+01 -0.49223561143E+02  0.59441671445E+02  0.30000000000E+02 0. -1.
     200000    1    3    3    0    0 -0.19158484640E+03 -0.13525652280E+03 -0.44026208310E+02  0.55401930232E+03  0.50000000000E+03 0.  1.
    -200001    1    1    2    0    0  0.40197029252E+03  0.11506105453E+03 -0.71946634042E+03  0.10874056177E+04  0.70000000000E+03 0. -1.
<mgrwt>
<rscale>  0 0.16927259E+04</rscale>
<asrwt>0</asrwt>
<pdfrwt beam="1">  1        1 0.20357514E+00 0.16927259E+04</pdfrwt>
<pdfrwt beam="2">  1       -1 0.71811245E-01 0.16927259E+04</pdfrwt>
<totfact> 0.16274427E+01</totfact>
</mgrwt>
</event>
<event>
 8    1  0.3214020E-028  0.1505183E+04  0.7818608E-02  0.8881014E-01
          1   -1    0    0  501    0  0.00000000000E+00  0.00000000000E+00  0.10078006078E+04  0.10078006078E+04  0.50400000000E-02 0.  1.
         -1   -1    0    0    0  501 -0.00000000000E+00 -0.00000000000E+00 -0.56200997181E+03  0.56200997183E+03  0.50400000000E-02 0. -1.
     200001    2    1    2    0    0 -0.22527231160E+03 -0.15739254742E+03  0.23692966545E+03  0.78933448562E+03  0.70099446179E+03 0.  0.
    5000001    2    3    3    0    0 -0.10263749339E+03 -0.88820563403E+02  0.15133489146E+03  0.26296210700E+03  0.16680309594E+03 0.  0.
        -13    1    4    4    0    0 -0.45674630864E+02 -0.11070124227E+03  0.15379614976E+03  0.19492101937E+03  0.10566000000E+00 0. -1.
     200003    1    4    4    0    0 -0.56962862522E+02  0.21880678869E+02 -0.24612583054E+01  0.68041087638E+02  0.30000000000E+02 0. -1.
     200000    1    3    3    0    0 -0.12263481821E+03 -0.68571984015E+02  0.85594773993E+02  0.52637237861E+03  0.50000000000E+03 0.  1.
    -200001    1    1    2    0    0  0.22527231160E+03  0.15739254742E+03  0.20886097056E+03  0.78047609405E+03  0.70000000000E+03 0. -1.
<mgrwt>
<rscale>  0 0.15051830E+04</rscale>
<asrwt>0</asrwt>
<pdfrwt beam="1">  1        1 0.14397152E+00 0.15051830E+04</pdfrwt>
<pdfrwt beam="2">  1       -1 0.80287139E-01 0.15051830E+04</pdfrwt>
<totfact> 0.25539906E+01</totfact>
</mgrwt>
</event>
<event>
 8    1  0.3214020E-028  0.1708273E+04  0.7818608E-02  0.8756660E-01
         -1   -1    0    0    0  501 -0.00000000000E+00  0.00000000000E+00  0.36383532187E+03  0.36383532191E+03  0.50400000000E-02 0. -1.
          1   -1    0    0  501    0  0.00000000000E+00 -0.00000000000E+00 -0.20051628020E+04  0.20051628020E+04  0.50400000000E-02 0.  1.
     200001    2    1    2    0    0 -0.22957897504E+03  0.32661248467E+03 -0.43016184046E+03  0.91424576435E+03  0.70101632486E+03 0.  0.
    5000001    2    3    3    0    0 -0.80331622082E+02  0.41930706113E+02 -0.21764523591E+03  0.28299162011E+03  0.15653579372E+03 0.  0.
        -13    1    4    4    0    0 -0.16394620994E+02  0.32629237302E+02 -0.20791209435E+03  0.21109453063E+03  0.10566000000E+00 0. -1.
     200003    1    4    4    0    0 -0.63937001088E+02  0.93014688111E+01 -0.97331415663E+01  0.71897089474E+02  0.30000000000E+02 0. -1.
     200000    1    3    3    0    0 -0.14924735296E+03  0.28468177856E+03 -0.21251660455E+03  0.63125414424E+03  0.50000000000E+03 0. -1.
    -200001    1    1    2    0    0  0.22957897504E+03 -0.32661248467E+03 -0.12111656396E+04  0.14547523595E+04  0.70000000000E+03 0.  1.
<mgrwt>
<rscale>  0 0.17082729E+04</rscale>
<asrwt>0</asrwt>
<pdfrwt beam="1">  1        1 0.28645182E+00 0.17082729E+04</pdfrwt>
<pdfrwt beam="2">  1       -1 0.51976475E-01 0.17082729E+04</pdfrwt>
<totfact> 0.13138052E+01</totfact>
</mgrwt>
</event>
<event>
 8    1  0.3214020E-028  0.1656024E+04  0.7818608E-02  0.8786850E-01
          1   -1    0    0  501    0  0.00000000000E+00  0.00000000000E+00  0.11976235578E+04  0.11976235578E+04  0.50400000000E-02 0. -1.
         -1   -1    0    0    0  501 -0.00000000000E+00 -0.00000000000E+00 -0.57247059871E+03  0.57247059874E+03  0.50400000000E-02 0.  1.
     200001    2    1    2    0    0  0.23724644467E+03  0.10604384792E+03  0.69577565551E+03  0.10200816643E+04  0.69923648785E+03 0.  0.
    5000001    2    3    3    0    0 -0.20708319832E+02  0.88233333163E+02  0.15475608957E+03  0.23933839944E+03  0.15849121931E+03 0.  0.
        -13    1    4    4    0    0 -0.67654275747E+02  0.75065371205E+01  0.11472436991E+03  0.13339843080E+03  0.10566000000E+00 0. -1.
     200003    1    4    4    0    0  0.46945955915E+02  0.80726796043E+02  0.40031719664E+02  0.10593996864E+03  0.30000000000E+02 0. -1.
     200000    1    3    3    0    0  0.25795476450E+03  0.17810514761E+02  0.54101956594E+03  0.78074326491E+03  0.50000000000E+03 0. -1.
    -200001    1    1    2    0    0 -0.23724644467E+03 -0.10604384792E+03 -0.70622696433E+02  0.75001249219E+03  0.70000000000E+03 0.  1.
<mgrwt>
<rscale>  0 0.16560245E+04</rscale>
<asrwt>0</asrwt>
<pdfrwt beam="1">  1        1 0.17108908E+00 0.16560245E+04</pdfrwt>
<pdfrwt beam="2">  1       -1 0.81781515E-01 0.16560245E+04</pdfrwt>
<totfact> 0.17702786E+01</totfact>
</mgrwt>
</event>
<event>
 8    1  0.3214020E-028  0.1780748E+04  0.7818608E-02  0.8716605E-01
          1   -1    0    0  501    0  0.00000000000E+00  0.00000000000E+00  0.15195136004E+04  0.15195136004E+04  0.50400000000E-02 0.  1.
         -1   -1    0    0    0  501 -0.00000000000E+00 -0.00000000000E+00 -0.52172336599E+03  0.52172336601E+03  0.50400000000E-02 0. -1.
     200001    2    1    2    0    0 -0.39357323265E+03 -0.36417141022E+03  0.36066947633E+03  0.95337504235E+03  0.70094278991E+03 0.  0.
    5000001    2    3    3    0    0 -0.23457603285E+03 -0.19549252961E+03  0.11423950702E+03  0.34966948159E+03  0.12639160207E+03 0.  0.
        -13    1    4    4    0    0 -0.21950141139E+03 -0.14638053758E+03  0.63232199908E+02  0.27130509331E+03  0.10566000000E+00 0. -1.
     200003    1    4    4    0    0 -0.15074621463E+02 -0.49111992030E+02  0.51007307110E+02  0.78364388290E+02  0.30000000000E+02 0.  1.
     200000    1    3    3    0    0 -0.15899719980E+03 -0.16867888061E+03  0.24642996931E+03  0.60370556075E+03  0.50000000000E+03 0. -1.
    -200001    1    1    2    0    0  0.39357323265E+03  0.36417141022E+03  0.63712075809E+03  0.10878619241E+04  0.70000000000E+03 0. -1.
<mgrwt>
<rscale>  0 0.17807479E+04</rscale>
<asrwt>0</asrwt>
<pdfrwt beam="1">  1        1 0.21707337E+00 0.17807479E+04</pdfrwt>
<pdfrwt beam="2">  1       -1 0.74531910E-01 0.17807479E+04</pdfrwt>
<totfact> 0.12964753E+01</totfact>
</mgrwt>
</event>
<event>
 8    1  0.3214020E-028  0.1984679E+04  0.7818608E-02  0.8613817E-01
         -1   -1    0    0    0  501 -0.00000000000E+00  0.00000000000E+00  0.11432758740E+04  0.11432758740E+04  0.50400000000E-02 0. -1.
          1   -1    0    0  501    0  0.00000000000E+00 -0.00000000000E+00 -0.86133002697E+03  0.86133002699E+03  0.50400000000E-02 0.  1.
     200001    2    1    2    0    0  0.29454171116E+02  0.68005897703E+03  0.32135886831E+03  0.10274154658E+04  0.69925907693E+03 0.  0.
    5000001    2    3    3    0    0 -0.35131045932E+01  0.69479652179E+02  0.92219910328E+02  0.20498089984E+03  0.16933072216E+03 0.  0.
        -13    1    4    4    0    0  0.17435581894E+02  0.42163601960E+02 -0.42732501190E+02  0.62512772040E+02  0.10566000000E+00 0. -1.
     200003    1    4    4    0    0 -0.20948686487E+02  0.27316050219E+02  0.13495241152E+03  0.14246812780E+03  0.30000000000E+02 0. -1.
     200000    1    3    3    0    0  0.32967275709E+02  0.61057932485E+03  0.22913895798E+03  0.82243456595E+03  0.50000000000E+03 0. -1.
    -200001    1    1    2    0    0 -0.29454171116E+02 -0.68005897703E+03 -0.39413021278E+02  0.97719043521E+03  0.70000000000E+03 0.  1.
<mgrwt>
<rscale>  0 0.19846792E+04</rscale>
<asrwt>0</asrwt>
<pdfrwt beam="1">  1        1 0.12304715E+00 0.19846792E+04</pdfrwt>
<pdfrwt beam="2">  1       -1 0.16332513E+00 0.19846792E+04</pdfrwt>
<totfact> 0.56924997E+00</totfact>
</mgrwt>
</event>
<event>
 8    1  0.3214020E-028  0.2169493E+04  0.7818608E-02  0.8531234E-01
          1   -1    0    0  501    0  0.00000000000E+00  0.00000000000E+00  0.92603951673E+03  0.92603951674E+03  0.50400000000E-02 0.  1.
         -1   -1    0    0    0  501 -0.00000000000E+00 -0.00000000000E+00 -0.12706530195E+04  0.12706530195E+04  0.50400000000E-02 0. -1.
     200001    2    1    2    0    0 -0.34805727869E+03  0.51808009894E+03  0.37983173736E+03  0.10116306121E+04  0.69969528257E+03 0.  0.
    5000001    2    3    3    0    0 -0.43643588696E+02  0.10673519491E+03  0.70837997243E+02  0.23230432859E+03  0.18881237926E+03 0.  0.
        -13    1    4    4    0    0  0.55480522871E+02  0.74614148625E+02 -0.14777287220E+02  0.94147432120E+02  0.10566000000E+00 0. -1.
     200003    1    4    4    0    0 -0.99124111567E+02  0.32121046286E+02  0.85615284463E+02  0.13815689647E+03  0.30000000000E+02 0. -1.
     200000    1    3    3    0    0 -0.30441368999E+03  0.41134490403E+03  0.30899374012E+03  0.77932628350E+03  0.50000000000E+03 0.  1.
    -200001    1    1    2    0    0  0.34805727869E+03 -0.51808009894E+03 -0.72444524016E+03  0.11850619242E+04  0.70000000000E+03 0. -1.
<mgrwt>
<rscale>  0 0.21694929E+04</rscale>
<asrwt>0</asrwt>
<pdfrwt beam="1">  1        1 0.13229136E+00 0.21694929E+04</pdfrwt>
<pdfrwt beam="2">  1       -1 0.18152186E+00 0.21694929E+04</pdfrwt>
<totfact> 0.36635397E+00</totfact>
</mgrwt>
</event>
<event>
 8    1  0.3214020E-028  0.1644833E+04  0.7818608E-02  0.8793469E-01
          1   -1    0    0  501    0  0.00000000000E+00  0.00000000000E+00  0.90300714001E+03  0.90300714003E+03  0.50400000000E-02 0.  1.
         -1   -1    0    0    0  501 -0.00000000000E+00 -0.00000000000E+00 -0.74901831962E+03  0.74901831963E+03  0.50400000000E-02 0. -1.
     200001    2    1    2    0    0  0.38713724892E+02 -0.29448533647E+03  0.39153875516E+03  0.85537601518E+03  0.70010368137E+03 0.  0.
    5000001    2    3    3    0    0 -0.10430265116E+03 -0.11743365611E+03  0.11704683503E+03  0.24125322977E+03  0.14083129148E+03 0.  0.
        -13    1    4    4    0    0  0.25074368407E+02 -0.36610283971E+02 -0.35177503348E+01  0.44513173049E+02  0.10566000000E+00 0. -1.
     200003    1    4    4    0    0 -0.12937701957E+03 -0.80823372136E+02  0.12056458537E+03  0.19674005673E+03  0.30000000000E+02 0. -1.
     200000    1    3    3    0    0  0.14301637605E+03 -0.17705168036E+03  0.27449192013E+03  0.61412278541E+03  0.50000000000E+03 0. -1.
    -200001    1    1    2    0    0 -0.38713724892E+02  0.29448533647E+03 -0.23754993476E+03  0.79664944448E+03  0.70000000000E+03 0. -1.
<mgrwt>
<rscale>  0 0.16448330E+04</rscale>
<asrwt>0</asrwt>
<pdfrwt beam="1">  1        1 0.12900102E+00 0.16448330E+04</pdfrwt>
<pdfrwt beam="2">  1       -1 0.10700262E+00 0.16448330E+04</pdfrwt>
<totfact> 0.16005209E+01</totfact>
</mgrwt>
</event>
<event>
 8    1  0.3214020E-028  0.2283103E+04  0.7818608E-02  0.8484613E-01
          1   -1    0    0  501    0  0.00000000000E+00  0.00000000000E+00  0.35766013891E+04  0.35766013891E+04  0.50400000000E-02 0. -1.
         -1   -1    0    0    0  501 -0.00000000000E+00 -0.00000000000E+00 -0.36435127586E+03  0.36435127589E+03  0.50400000000E-02 0.  1.
     200001    2    1    2    0    0  0.55820782383E+03  0.36490229739E+01  0.38328294853E+03  0.97368717148E+03  0.69967964049E+03 0.  0.
    5000001    2    3    3    0    0 -0.14628864832E+01  0.74789411825E+02  0.87001210701E+02  0.16370252528E+03  0.11676347872E+03 0.  0.
        -13    1    4    4    0    0  0.28812281616E+02  0.33422798940E+02  0.94052866750E+02  0.10389024963E+03  0.10566000000E+00 0. -1.
     200003    1    4    4    0    0 -0.30275168099E+02  0.41366612886E+02 -0.70516560488E+01  0.59812275647E+02  0.30000000000E+02 0. -1.
     200000    1    3    3    0    0  0.55967071032E+03 -0.71140388851E+02  0.29628173783E+03  0.80998464620E+03  0.50000000000E+03 0.  1.
    -200001    1    1    2    0    0 -0.55820782383E+03 -0.36490229739E+01  0.28289671647E+04  0.29672654935E+04  0.70000000000E+03 0. -1.
<mgrwt>
<rscale>  0 0.22831025E+04</rscale>
<asrwt>0</asrwt>
<pdfrwt beam="1">  1        1 0.51094305E+00 0.22831025E+04</pdfrwt>
<pdfrwt beam="2">  1       -1 0.52050183E-01 0.22831025E+04</pdfrwt>
<totfact> 0.11638713E+00</totfact>
</mgrwt>
</event>
<event>
 8    1  0.3214020E-028  0.2463727E+04  0.7818608E-02  0.8416023E-01
         -1   -1    0    0    0  501 -0.00000000000E+00  0.00000000000E+00  0.58415615684E+03  0.58415615686E+03  0.50400000000E-02 0. -1.
          1   -1    0    0  501    0  0.00000000000E+00 -0.00000000000E+00 -0.25977435575E+04  0.25977435575E+04  0.50400000000E-02 0.  1.
     200001    2    1    2    0    0 -0.70407666175E+03  0.32836076684E+03 -0.16563077399E+03  0.10585795706E+04  0.69972309894E+03 0.  0.
    5000001    2    3    3    0    0 -0.18795530311E+03  0.14040955181E+03 -0.20165532294E+03  0.31493672339E+03  0.58976539944E+02 0.  0.
        -13    1    4    4    0    0 -0.12577083537E+03  0.92588411506E+02 -0.14872830282E+03  0.21566417459E+03  0.10566000000E+00 0. -1.
     200003    1    4    4    0    0 -0.62184467735E+02  0.47821140307E+02 -0.52927020120E+02  0.99272548806E+02  0.30000000000E+02 0.  1.
     200000    1    3    3    0    0 -0.51612135865E+03  0.18795121503E+03  0.36024548955E+02  0.74364284721E+03  0.50000000000E+03 0. -1.
    -200001    1    1    2    0    0  0.70407666175E+03 -0.32836076684E+03 -0.18479566266E+04  0.21233201437E+04  0.70000000000E+03 0.  1.
<mgrwt>
<rscale>  0 0.24637272E+04</rscale>
<asrwt>0</asrwt>
<pdfrwt beam="1">  1        1 0.37110622E+00 0.24637272E+04</pdfrwt>
<pdfrwt beam="2">  1       -1 0.83450881E-01 0.24637272E+04</pdfrwt>
<totfact> 0.19882400E+00</totfact>
</mgrwt>
</event>
<event>
 8    1  0.3214020E-028  0.1561817E+04  0.7818608E-02  0.8844355E-01
          1   -1    0    0  501    0  0.00000000000E+00  0.00000000000E+00  0.15843941801E+04  0.15843941801E+04  0.50400000000E-02 0.  1.
         -1   -1    0    0    0  501 -0.00000000000E+00 -0.00000000000E+00 -0.38489056476E+03  0.38489056479E+03  0.50400000000E-02 0. -1.
     200001    2    1    2    0    0 -0.33669122444E+03  0.55049572941E+02  0.67170144036E+03  0.10285581257E+04  0.70025535125E+03 0.  0.
    5000001    2    3    3    0    0 -0.13893354091E+03  0.10378266159E+03  0.16248967281E+03  0.28641283031E+03  0.15986258461E+03 0.  0.
        -13    1    4    4    0    0 -0.77128740134E+02  0.13317727042E+03  0.74527638087E+02  0.17099534472E+03  0.10566000000E+00 0. -1.
     200003    1    4    4    0    0 -0.61804800774E+02 -0.29394608834E+02  0.87962034727E+02  0.11541748559E+03  0.30000000000E+02 0. -1.
     200000    1    3    3    0    0 -0.19775768353E+03 -0.48733088646E+02  0.50921176755E+03  0.74214529543E+03  0.50000000000E+03 0. -1.
    -200001    1    1    2    0    0  0.33669122444E+03 -0.55049572941E+02  0.52780217498E+03  0.94072661917E+03  0.70000000000E+03 0. -1.
<mgrwt>
<rscale>  0 0.15618174E+04</rscale>
<asrwt>0</asrwt>
<pdfrwt beam="1">  1        1 0.22634203E+00 0.15618174E+04</pdfrwt>
<pdfrwt beam="2">  1       -1 0.54984366E-01 0.15618174E+04</pdfrwt>
<totfact> 0.22086273E+01</totfact>
</mgrwt>
</event>
<event>
 8    1  0.3214020E-028  0.1707249E+04  0.7818608E-02  0.8757240E-01
         -1   -1    0    0    0  501 -0.00000000000E+00  0.00000000000E+00  0.51223256091E+03  0.51223256093E+03  0.50400000000E-02 0. -1.
          1   -1    0    0  501    0  0.00000000000E+00 -0.00000000000E+00 -0.14225476095E+04  0.14225476095E+04  0.50400000000E-02 0.  1.
     200001    2    1    2    0    0 -0.13698754229E+03  0.47050718334E+03 -0.42733006141E+03  0.95324204374E+03  0.69707733879E+03 0.  0.
    5000001    2    3    3    0    0 -0.11116630884E+03 -0.64518701373E+01 -0.57941581731E+02  0.16927487370E+03  0.11356575682E+03 0.  0.
        -13    1    4    4    0    0 -0.95198640391E+02 -0.35894536768E+02 -0.79717945389E+01  0.10205272938E+03  0.10566000000E+00 0. -1.
     200003    1    4    4    0    0 -0.15967668451E+02  0.29442666631E+02 -0.49969787192E+02  0.67222144314E+02  0.30000000000E+02 0. -1.
     200000    1    3    3    0    0 -0.25821233443E+02  0.47695905348E+03 -0.36938847967E+03  0.78396717004E+03  0.50000000000E+03 0.  1.
    -200001    1    1    2    0    0  0.13698754229E+03 -0.47050718334E+03 -0.48298498717E+03  0.98153812669E+03  0.70000000000E+03 0. -1.
<mgrwt>
<rscale>  0 0.17072495E+04</rscale>
<asrwt>0</asrwt>
<pdfrwt beam="1">  1        1 0.20322109E+00 0.17072495E+04</pdfrwt>
<pdfrwt beam="2">  1       -1 0.73176080E-01 0.17072495E+04</pdfrwt>
<totfact> 0.15691889E+01</totfact>
</mgrwt>
</event>
<event>
 8    1  0.3214020E-028  0.1455227E+04  0.7818608E-02  0.8914785E-01
          1   -1    0    0  501    0  0.00000000000E+00  0.00000000000E+00  0.82807544892E+03  0.82807544894E+03  0.50400000000E-02 0.  1.
         -1   -1    0    0    0  501 -0.00000000000E+00 -0.00000000000E+00 -0.63933930044E+03  0.63933930046E+03  0.50400000000E-02 0. -1.
     200001    2    1    2    0    0  0.85758271396E+02  0.35700813718E+02 -0.81825028554E+02  0.71121875646E+03  0.70036258826E+03 0.  0.
    5000001    2    3    3    0    0 -0.24698296935E+02 -0.95191211771E+02  0.33540068437E+01  0.17587882343E+03  0.14577633038E+03 0.  0.
        -13    1    4    4    0    0  0.92362608124E+01 -0.12216142601E+03  0.91176975619E+01  0.12284895641E+03  0.10566000000E+00 0. -1.
     200003    1    4    4    0    0 -0.33934557748E+02  0.26970214238E+02 -0.57636907182E+01  0.53029867021E+02  0.30000000000E+02 0. -1.
     200000    1    3    3    0    0  0.11045656833E+03  0.13089202549E+03 -0.85179035398E+02  0.53533993303E+03  0.50000000000E+03 0. -1.
    -200001    1    1    2    0    0 -0.85758271396E+02 -0.35700813718E+02  0.27056117704E+03  0.75619599294E+03  0.70000000000E+03 0.  1.
<mgrwt>
<rscale>  0 0.14552267E+04</rscale>
<asrwt>0</asrwt>
<pdfrwt beam="1">  1        1 0.11829649E+00 0.14552267E+04</pdfrwt>
<pdfrwt beam="2">  1       -1 0.91334186E-01 0.14552267E+04</pdfrwt>
<totfact> 0.26807660E+01</totfact>
</mgrwt>
</event>
<event>
 8    1  0.3214020E-028  0.2018582E+04  0.7818608E-02  0.8597982E-01
          1   -1    0    0  501    0  0.00000000000E+00  0.00000000000E+00  0.67195871562E+03  0.67195871564E+03  0.50400000000E-02 0.  1.
         -1   -1    0    0    0  501 -0.00000000000E+00 -0.00000000000E+00 -0.15159692687E+04  0.15159692687E+04  0.50400000000E-02 0. -1.
     200001    2    1    2    0    0 -0.22895793458E+03  0.66900532060E+03 -0.24389272755E+03  0.10259764969E+04  0.70224942488E+03 0.  0.
    5000001    2    3    3    0    0 -0.56557740056E+02  0.25047664133E+03 -0.31338964286E+02  0.31882221049E+03  0.18635489101E+03 0.  0.
        -13    1    4    4    0    0 -0.40787199245E+01  0.24850636178E+03 -0.53816515521E+02  0.25429957985E+03  0.10566000000E+00 0. -1.
     200003    1    4    4    0    0 -0.52479020131E+02  0.19702795485E+01  0.22477551235E+02  0.64522630642E+02  0.30000000000E+02 0. -1.
     200000    1    3    3    0    0 -0.17240019453E+03  0.41852867927E+03 -0.21255376326E+03  0.70715428636E+03  0.50000000000E+03 0.  1.
    -200001    1    1    2    0    0  0.22895793458E+03 -0.66900532060E+03 -0.60011782555E+03  0.11619514875E+04  0.70000000000E+03 0. -1.
<mgrwt>
<rscale>  0 0.20185824E+04</rscale>
<asrwt>0</asrwt>
<pdfrwt beam="1">  1        1 0.95994102E-01 0.20185824E+04</pdfrwt>
<pdfrwt beam="2">  1       -1 0.21656704E+00 0.20185824E+04</pdfrwt>
<totfact> 0.34914731E+00</totfact>
</mgrwt>
</event>
<event>
 8    1  0.3214020E-028  0.1782862E+04  0.7818608E-02  0.8715467E-01
         -1   -1    0    0    0  501 -0.00000000000E+00  0.00000000000E+00  0.62838617075E+03  0.62838617077E+03  0.50400000000E-02 0. -1.
          1   -1    0    0  501    0  0.00000000000E+00 -0.00000000000E+00 -0.12645874430E+04  0.12645874430E+04  0.50400000000E-02 0.  1.
     200001    2    1    2    0    0 -0.25790715729E+03 -0.19838573896E+03  0.15501423694E+03  0.78758002541E+03  0.70027128997E+03 0.  0.
    5000001    2    3    3    0    0 -0.84730882564E+02  0.24607529489E+02 -0.34913266729E+01  0.19189551696E+03  0.17037267123E+03 0.  0.
        -13    1    4    4    0    0 -0.10838082288E+03  0.67276448450E+02  0.21581730774E+02  0.12937660357E+03  0.10566000000E+00 0. -1.
     200003    1    4    4    0    0  0.23649940315E+02 -0.42668918961E+02 -0.25073057447E+02  0.62518913394E+02  0.30000000000E+02 0. -1.
     200000    1    3    3    0    0 -0.17317627472E+03 -0.22299326845E+03  0.15850556361E+03  0.59568450844E+03  0.50000000000E+03 0. -1.
    -200001    1    1    2    0    0  0.25790715729E+03  0.19838573896E+03 -0.79121550914E+03  0.11053935883E+04  0.70000000000E+03 0.  1.
<mgrwt>
<rscale>  0 0.17828620E+04</rscale>
<asrwt>0</asrwt>
<pdfrwt beam="1">  1        1 0.18065535E+00 0.17828620E+04</pdfrwt>
<pdfrwt beam="2">  1       -1 0.89769454E-01 0.17828620E+04</pdfrwt>
<totfact> 0.12859974E+01</totfact>
</mgrwt>
</event>
<event>
 8    1  0.3214020E-028  0.1991318E+04  0.7818608E-02  0.8610690E-01
         -1   -1    0    0    0  501 -0.00000000000E+00  0.00000000000E+00  0.81780639485E+03  0.81780639487E+03  0.50400000000E-02 0. -1.
          1   -1    0    0  501    0  0.00000000000E+00 -0.00000000000E+00 -0.12121903773E+04  0.12121903773E+04  0.50400000000E-02 0.  1.
     200001    2    1    2    0    0 -0.59966631809E+03  0.25216565163E+03 -0.48218633002E+03  0.10703632686E+04  0.69999047204E+03 0.  0.
    5000001    2    3    3    0    0 -0.37609830522E+02 -0.86156157938E+01 -0.87814551848E+02  0.18185695792E+03  0.15450511137E+03 0.  0.
        -13    1    4    4    0    0 -0.36322532371E+02 -0.65303343850E+02 -0.90852965641E+02  0.11763556267E+03  0.10566000000E+00 0. -1.
     200003    1    4    4    0    0 -0.12872981505E+01  0.56687728056E+02  0.30384137932E+01  0.64221395244E+02  0.30000000000E+02 0. -1.
     200000    1    3    3    0    0 -0.56205648757E+03  0.26078126742E+03 -0.39437177817E+03  0.88850631065E+03  0.50000000000E+03 0. -1.
    -200001    1    1    2    0    0  0.59966631809E+03 -0.25216565163E+03  0.87802347611E+02  0.95963350356E+03  0.70000000000E+03 0. -1.
<mgrwt>
<rscale>  0 0.19913182E+04</rscale>
<asrwt>0</asrwt>
<pdfrwt beam="1">  1        1 0.17317005E+00 0.19913182E+04</pdfrwt>
<pdfrwt beam="2">  1       -1 0.11682948E+00 0.19913182E+04</pdfrwt>
<totfact> 0.74751395E+00</totfact>
</mgrwt>
</event>
<event>
 8    1  0.3214020E-028  0.1539552E+04  0.7818608E-02  0.8858569E-01
          1   -1    0    0  501    0  0.00000000000E+00  0.00000000000E+00  0.11879906451E+04  0.11879906451E+04  0.50400000000E-02 0.  1.
         -1   -1    0    0    0  501 -0.00000000000E+00 -0.00000000000E+00 -0.49878770308E+03  0.49878770311E+03  0.50400000000E-02 0. -1.
     200001    2    1    2    0    0  0.16958325674E+02 -0.12925409107E+02 -0.56701478565E+01  0.70021701608E+03  0.69986932211E+03 0.  0.
    5000001    2    3    3    0    0  0.62021361757E+02 -0.56389118831E+02 -0.12703322814E+03  0.18190362773E+03  0.99624829704E+02 0.  0.
        -13    1    4    4    0    0  0.18565179301E+02 -0.34892709140E+02 -0.11766467751E+03  0.12412555954E+03  0.10566000000E+00 0. -1.
     200003    1    4    4    0    0  0.43456182457E+02 -0.21496409691E+02 -0.93685506336E+01  0.57778068194E+02  0.30000000000E+02 0.  1.
     200000    1    3    3    0    0 -0.45063036084E+02  0.43463709724E+02  0.12136308029E+03  0.51831338835E+03  0.50000000000E+03 0.  1.
    -200001    1    1    2    0    0 -0.16958325674E+02  0.12925409107E+02  0.69487308982E+03  0.98656133209E+03  0.70000000000E+03 0.  1.
<mgrwt>
<rscale>  0 0.15395520E+04</rscale>
<asrwt>0</asrwt>
<pdfrwt beam="1">  1        1 0.16971295E+00 0.15395520E+04</pdfrwt>
<pdfrwt beam="2">  1       -1 0.71255388E-01 0.15395520E+04</pdfrwt>
<totfact> 0.24247116E+01</totfact>
</mgrwt>
</event>
<event>
 8    1  0.3214020E-028  0.1479015E+04  0.7818608E-02  0.8898529E-01
         -1   -1    0    0    0  501 -0.00000000000E+00  0.00000000000E+00  0.31013671520E+04  0.31013671520E+04  0.50400000000E-02 0. -1.
          1   -1    0    0  501    0  0.00000000000E+00 -0.00000000000E+00 -0.17633223432E+03  0.17633223439E+03  0.50400000000E-02 0.  1.
     200001    2    1    2    0    0  0.16970100330E+03  0.14535104151E+03  0.16451049335E+04  0.18018450169E+04  0.70024986012E+03 0.  0.
    5000001    2    3    3    0    0  0.19227267761E+02  0.68050263489E+02  0.14800985612E+03  0.21442212858E+03  0.13809201834E+03 0.  0.
        -13    1    4    4    0    0  0.91641007201E+01 -0.67230078759E+01  0.13096748491E+03  0.13145977653E+03  0.10566000000E+00 0. -1.
     200003    1    4    4    0    0  0.10063167041E+02  0.74773271365E+02  0.17042371211E+02  0.82962352052E+02  0.30000000000E+02 0. -1.
     200000    1    3    3    0    0  0.15047373554E+03  0.77300778021E+02  0.14970950774E+04  0.15874228883E+04  0.50000000000E+03 0. -1.
    -200001    1    1    2    0    0 -0.16970100330E+03 -0.14535104151E+03  0.12799299841E+04  0.14758543695E+04  0.70000000000E+03 0. -1.
<mgrwt>
<rscale>  0 0.14790145E+04</rscale>
<asrwt>0</asrwt>
<pdfrwt beam="1">  1        1 0.25190323E-01 0.14790145E+04</pdfrwt>
<pdfrwt beam="2">  1       -1 0.44305239E+00 0.14790145E+04</pdfrwt>
<totfact> 0.68312378E-01</totfact>
</mgrwt>
</event>
<event>
 8    1  0.3214020E-028  0.1443006E+04  0.7818608E-02  0.8923264E-01
         -1   -1    0    0    0  501 -0.00000000000E+00  0.00000000000E+00  0.65246719810E+03  0.65246719812E+03  0.50400000000E-02 0. -1.
          1   -1    0    0  501    0  0.00000000000E+00 -0.00000000000E+00 -0.79784326497E+03  0.79784326499E+03  0.50400000000E-02 0.  1.
     200001    2    1    2    0    0  0.11737749241E+03 -0.85301054743E+02  0.24168002977E+02  0.71560035886E+03  0.70031852437E+03 0.  0.
    5000001    2    3    3    0    0  0.51126075206E+02  0.15676302246E+02 -0.41317001886E+02  0.19706977850E+03  0.18512098999E+03 0.  0.
        -13    1    4    4    0    0  0.11034329124E+02 -0.81872673266E+02 -0.24256150253E+02  0.86100307990E+02  0.10566000000E+00 0. -1.
     200003    1    4    4    0    0  0.40091746082E+02  0.97548975512E+02 -0.17060851633E+02  0.11096947051E+03  0.30000000000E+02 0. -1.
     200000    1    3    3    0    0  0.66251417202E+02 -0.10097735699E+03  0.65485004863E+02  0.51853058036E+03  0.50000000000E+03 0. -1.
    -200001    1    1    2    0    0 -0.11737749241E+03  0.85301054743E+02 -0.16954406985E+03  0.73471010425E+03  0.70000000000E+03 0.  1.
<mgrwt>
<rscale>  0 0.14430060E+04</rscale>
<asrwt>0</asrwt>
<pdfrwt beam="1">  1        1 0.11397761E+00 0.14430060E+04</pdfrwt>
<pdfrwt beam="2">  1       -1 0.93209601E-01 0.14430060E+04</pdfrwt>
<totfact> 0.27184788E+01</totfact>
</mgrwt>
</event>
<event>
 8    1  0.3214020E-028  0.1554608E+04  0.7818608E-02  0.8848930E-01
          1   -1    0    0  501    0  0.00000000000E+00  0.00000000000E+00  0.10672644378E+04  0.10672644378E+04  0.50400000000E-02 0.  1.
         -1   -1    0    0    0  501 -0.00000000000E+00 -0.00000000000E+00 -0.56612133328E+03  0.56612133330E+03  0.50400000000E-02 0. -1.
     200001    2    1    2    0    0  0.66882079547E+02  0.22827755896E+02  0.59700545551E+03  0.92332668245E+03  0.70080120548E+03 0.  0.
    5000001    2    3    3    0    0 -0.38987372267E+02 -0.52857728089E+02  0.10610523026E+03  0.21064185416E+03  0.16969889870E+03 0.  0.
        -13    1    4    4    0    0  0.32113065414E+02  0.19199529054E+02  0.97824913928E+02  0.10473583835E+03  0.10566000000E+00 0. -1.
     200003    1    4    4    0    0 -0.71100437681E+02 -0.72057257143E+02  0.82803163283E+01  0.10590601581E+03  0.30000000000E+02 0. -1.
     200000    1    3    3    0    0  0.10586945181E+03  0.75685483985E+02  0.49090022526E+03  0.71268482829E+03  0.50000000000E+03 0.  1.
    -200001    1    1    2    0    0 -0.66882079547E+02 -0.22827755896E+02 -0.95862351034E+02  0.71005908863E+03  0.70000000000E+03 0. -1.
<mgrwt>
<rscale>  0 0.15546076E+04</rscale>
<asrwt>0</asrwt>
<pdfrwt beam="1">  1        1 0.15246635E+00 0.15546076E+04</pdfrwt>
<pdfrwt beam="2">  1       -1 0.80874476E-01 0.15546076E+04</pdfrwt>
<totfact> 0.22637849E+01</totfact>
</mgrwt>
</event>
<event>
 8    1  0.3214020E-028  0.1759119E+04  0.7818608E-02  0.8728347E-01
         -1   -1    0    0    0  501 -0.00000000000E+00  0.00000000000E+00  0.33985110642E+03  0.33985110646E+03  0.50400000000E-02 0. -1.
          1   -1    0    0  501    0  0.00000000000E+00 -0.00000000000E+00 -0.22763644236E+04  0.22763644236E+04  0.50400000000E-02 0.  1.
     200001    2    1    2    0    0  0.37116295752E+03  0.70818513969E+02 -0.15264839955E+04  0.17212846681E+04  0.69992165089E+03 0.  0.
    5000001    2    3    3    0    0  0.63491724029E+02  0.24756207979E+02 -0.32406652369E+03  0.38240786261E+03  0.19123962130E+03 0.  0.
        -13    1    4    4    0    0  0.94837571980E+02  0.80577646911E+02 -0.15242080791E+03  0.19677153272E+03  0.10566000000E+00 0. -1.
     200003    1    4    4    0    0 -0.31345847950E+02 -0.55821438932E+02 -0.17164571579E+03  0.18563632989E+03  0.30000000000E+02 0. -1.
     200000    1    3    3    0    0  0.30767123349E+03  0.46062305990E+02 -0.12024174718E+04  0.13388768055E+04  0.50000000000E+03 0.  1.
    -200001    1    1    2    0    0 -0.37116295752E+03 -0.70818513969E+02 -0.41002932171E+03  0.89493086192E+03  0.70000000000E+03 0. -1.
<mgrwt>
<rscale>  0 0.17591191E+04</rscale>
<asrwt>0</asrwt>
<pdfrwt beam="1">  1        1 0.32519491E+00 0.17591191E+04</pdfrwt>
<pdfrwt beam="2">  1       -1 0.48550159E-01 0.17591191E+04</pdfrwt>
<totfact> 0.10053064E+01</totfact>
</mgrwt>
</event>
<event>
 8    1  0.3214020E-028  0.1478690E+04  0.7818608E-02  0.8898748E-01
         -1   -1    0    0    0  501 -0.00000000000E+00  0.00000000000E+00  0.11471706646E+04  0.11471706646E+04  0.50400000000E-02 0. -1.
          1   -1    0    0  501    0  0.00000000000E+00 -0.00000000000E+00 -0.47650393069E+03  0.47650393072E+03  0.50400000000E-02 0.  1.
     200001    2    1    2    0    0 -0.19377132071E+03  0.11632671905E+03  0.25420819004E+03  0.77838355135E+03  0.70012850166E+03 0.  0.
    5000001    2    3    3    0    0  0.45453017381E+01 -0.94403928442E+01  0.11214889514E+03  0.20800850593E+03  0.17487247660E+03 0.  0.
        -13    1    4    4    0    0  0.49932293317E+01  0.79584282702E+02  0.38027971823E+02  0.88344372754E+02  0.10566000000E+00 0. -1.
     200003    1    4    4    0    0 -0.44792759364E+00 -0.89024675546E+02  0.74120923314E+02  0.11966413317E+03  0.30000000000E+02 0. -1.
     200000    1    3    3    0    0 -0.19831662245E+03  0.12576711189E+03  0.14205929490E+03  0.57037504542E+03  0.50000000000E+03 0.  1.
    -200001    1    1    2    0    0  0.19377132071E+03 -0.11632671905E+03  0.41645854389E+03  0.84529104400E+03  0.70000000000E+03 0. -1.
<mgrwt>
<rscale>  0 0.14786904E+04</rscale>
<asrwt>0</asrwt>
<pdfrwt beam="1">  1        1 0.68071989E-01 0.14786904E+04</pdfrwt>
<pdfrwt beam="2">  1       -1 0.16388153E+00 0.14786904E+04</pdfrwt>
<totfact> 0.13898258E+01</totfact>
</mgrwt>
</event>
<event>
 8    1  0.3214020E-028  0.1663893E+04  0.7818608E-02  0.8782230E-01
          1   -1    0    0  501    0  0.00000000000E+00  0.00000000000E+00  0.15127476068E+04  0.15127476068E+04  0.50400000000E-02 0. -1.
         -1   -1    0    0    0  501 -0.00000000000E+00 -0.00000000000E+00 -0.45753517300E+03  0.45753517302E+03  0.50400000000E-02 0.  1.
     200001    2    1    2    0    0  0.23030372636E+03 -0.36175824045E+03  0.68738088325E+03  0.10707223981E+04  0.70003224507E+03 0.  0.
    5000001    2    3    3    0    0  0.21005248057E+02 -0.19253515655E+03  0.15351433728E+03  0.29132789330E+03  0.15425395524E+03 0.  0.
        -13    1    4    4    0    0 -0.85219896327E+01  0.20967628241E+02  0.39824027174E+02  0.45806441094E+02  0.10566000000E+00 0. -1.
     200003    1    4    4    0    0  0.29527237690E+02 -0.21350278480E+03  0.11369031011E+03  0.24552145221E+03  0.30000000000E+02 0. -1.
     200000    1    3    3    0    0  0.20929847830E+03 -0.16922308389E+03  0.53386654597E+03  0.77939450475E+03  0.50000000000E+03 0. -1.
    -200001    1    1    2    0    0 -0.23030372636E+03  0.36175824045E+03  0.36783155059E+03  0.89956038180E+03  0.70000000000E+03 0. -1.
<mgrwt>
<rscale>  0 0.16638933E+04</rscale>
<asrwt>0</asrwt>
<pdfrwt beam="1">  1        1 0.21610680E+00 0.16638933E+04</pdfrwt>
<pdfrwt beam="2">  1       -1 0.65362167E-01 0.16638933E+04</pdfrwt>
<totfact> 0.17315504E+01</totfact>
</mgrwt>
</event>
<event>
 8    1  0.3214020E-028  0.1670668E+04  0.7818608E-02  0.8778273E-01
          1   -1    0    0  501    0  0.00000000000E+00  0.00000000000E+00  0.93638862664E+03  0.93638862666E+03  0.50400000000E-02 0.  1.
         -1   -1    0    0    0  501 -0.00000000000E+00 -0.00000000000E+00 -0.74518507300E+03  0.74518507302E+03  0.50400000000E-02 0. -1.
     200001    2    1    2    0    0 -0.36879356457E+03  0.33653754448E+02 -0.17226175972E+03  0.81022514572E+03  0.69974952979E+03 0.  0.
    5000001    2    3    3    0    0 -0.68306100946E+02 -0.18529598329E+02  0.48321839029E+01  0.19836071386E+03  0.18524187799E+03 0.  0.
        -13    1    4    4    0    0 -0.91700652351E+02  0.46470129608E+02  0.45891435758E+02  0.11258116018E+03  0.10566000000E+00 0. -1.
     200003    1    4    4    0    0  0.23394551404E+02 -0.64999727938E+02 -0.41059251855E+02  0.85779553684E+02  0.30000000000E+02 0. -1.
     200000    1    3    3    0    0 -0.30048746362E+03  0.52183352777E+02 -0.17709394363E+03  0.61186443186E+03  0.50000000000E+03 0. -1.
    -200001    1    1    2    0    0  0.36879356457E+03 -0.33653754448E+02  0.36346531337E+03  0.87134855395E+03  0.70000000000E+03 0.  1.
<mgrwt>
<rscale>  0 0.16706679E+04</rscale>
<asrwt>0</asrwt>
<pdfrwt beam="1">  1        1 0.13376980E+00 0.16706679E+04</pdfrwt>
<pdfrwt beam="2">  1       -1 0.10645501E+00 0.16706679E+04</pdfrwt>
<totfact> 0.15221468E+01</totfact>
</mgrwt>
</event>
<event>
 8    1  0.3214020E-028  0.1662241E+04  0.7818608E-02  0.8783197E-01
         -1   -1    0    0    0  501 -0.00000000000E+00  0.00000000000E+00  0.61891927392E+03  0.61891927394E+03  0.50400000000E-02 0. -1.
          1   -1    0    0  501    0  0.00000000000E+00 -0.00000000000E+00 -0.11160771182E+04  0.11160771182E+04  0.50400000000E-02 0.  1.
     200001    2    1    2    0    0  0.10494781071E+03 -0.12621265572E+03 -0.68465610009E+03  0.99196256154E+03  0.69877898557E+03 0.  0.
    5000001    2    3    3    0    0  0.12947398107E+02 -0.87189304221E+02 -0.16367785726E+03  0.26298709736E+03  0.18601656521E+03 0.  0.
        -13    1    4    4    0    0  0.59319655641E+02 -0.92931259941E+02 -0.24217194187E+02  0.11287836054E+03  0.10566000000E+00 0. -1.
     200003    1    4    4    0    0 -0.46372257535E+02  0.57419557199E+01 -0.13946066308E+03  0.15010873682E+03  0.30000000000E+02 0. -1.
     200000    1    3    3    0    0  0.92000412604E+02 -0.39023351497E+02 -0.52097824283E+03  0.72897546418E+03  0.50000000000E+03 0.  1.
    -200001    1    1    2    0    0 -0.10494781071E+03  0.12621265572E+03  0.18749825585E+03  0.74303383058E+03  0.70000000000E+03 0.  1.
<mgrwt>
<rscale>  0 0.16622414E+04</rscale>
<asrwt>0</asrwt>
<pdfrwt beam="1">  1        1 0.15943959E+00 0.16622414E+04</pdfrwt>
<pdfrwt beam="2">  1       -1 0.88417040E-01 0.16622414E+04</pdfrwt>
<totfact> 0.17057613E+01</totfact>
</mgrwt>
</event>
<event>
 8    1  0.3214020E-028  0.1521001E+04  0.7818608E-02  0.8870606E-01
          1   -1    0    0  501    0  0.00000000000E+00  0.00000000000E+00  0.26120023401E+04  0.26120023401E+04  0.50400000000E-02 0.  1.
         -1   -1    0    0    0  501 -0.00000000000E+00 -0.00000000000E+00 -0.22142443523E+03  0.22142443529E+03  0.50400000000E-02 0. -1.
     200001    2    1    2    0    0 -0.88326652747E+02  0.13315776360E+03  0.16632651198E+04  0.18114108876E+04  0.69944689388E+03 0.  0.
    5000001    2    3    3    0    0 -0.86879786964E+02 -0.75694057744E+01  0.35889146138E+03  0.40741770015E+03  0.17199043012E+03 0.  0.
        -13    1    4    4    0    0 -0.83596028547E+02 -0.25668508984E+02  0.59049732568E+02  0.10551800994E+03  0.10566000000E+00 0. -1.
     200003    1    4    4    0    0 -0.32837584174E+01  0.18099103209E+02  0.29984172882E+03  0.30189969020E+03  0.30000000000E+02 0. -1.
     200000    1    3    3    0    0 -0.14468657829E+01  0.14072716937E+03  0.13043736584E+04  0.14039931874E+04  0.50000000000E+03 0.  1.
    -200001    1    1    2    0    0  0.88326652747E+02 -0.13315776360E+03  0.72731278507E+03  0.10220158878E+04  0.70000000000E+03 0. -1.
<mgrwt>
<rscale>  0 0.15210012E+04</rscale>
<asrwt>0</asrwt>
<pdfrwt beam="1">  1        1 0.37314319E+00 0.15210012E+04</pdfrwt>
<pdfrwt beam="2">  1       -1 0.31632063E-01 0.15210012E+04</pdfrwt>
<totfact> 0.13739445E+01</totfact>
</mgrwt>
</event>
<event>
 8    1  0.3214020E-028  0.2055179E+04  0.7818608E-02  0.8581249E-01
         -1   -1    0    0    0  501 -0.00000000000E+00  0.00000000000E+00  0.13257963167E+04  0.13257963167E+04  0.50400000000E-02 0. -1.
          1   -1    0    0  501    0  0.00000000000E+00 -0.00000000000E+00 -0.79645729162E+03  0.79645729164E+03  0.50400000000E-02 0.  1.
     200001    2    1    2    0    0 -0.32629297447E+03 -0.46626108333E+03  0.77458068583E+03  0.11873686020E+04  0.69713876313E+03 0.  0.
    5000001    2    3    3    0    0 -0.13178766815E+03 -0.22023654911E+03  0.28728204596E+03  0.42197958320E+03  0.17223143635E+03 0.  0.
        -13    1    4    4    0    0  0.32979687982E+02 -0.54637538106E+02  0.22654617652E+02  0.67721217167E+02  0.10566000000E+00 0. -1.
     200003    1    4    4    0    0 -0.16476735613E+03 -0.16559901101E+03  0.26462742830E+03  0.35425836603E+03  0.30000000000E+02 0. -1.
     200000    1    3    3    0    0 -0.19450530632E+03 -0.24602453422E+03  0.48729863988E+03  0.76538901877E+03  0.50000000000E+03 0. -1.
    -200001    1    1    2    0    0  0.32629297447E+03  0.46626108333E+03 -0.24524166074E+03  0.93488500639E+03  0.70000000000E+03 0.  1.
<mgrwt>
<rscale>  0 0.20551790E+04</rscale>
<asrwt>0</asrwt>
<pdfrwt beam="1">  1        1 0.11377961E+00 0.20551790E+04</pdfrwt>
<pdfrwt beam="2">  1       -1 0.18939947E+00 0.20551790E+04</pdfrwt>
<totfact> 0.41425089E+00</totfact>
</mgrwt>
</event>
<event>
 8    1  0.3214020E-028  0.2333760E+04  0.7818608E-02  0.8464728E-01
          1   -1    0    0  501    0  0.00000000000E+00  0.00000000000E+00  0.31534011281E+04  0.31534011281E+04  0.50400000000E-02 0. -1.
         -1   -1    0    0    0  501 -0.00000000000E+00 -0.00000000000E+00 -0.43179075921E+03  0.43179075924E+03  0.50400000000E-02 0.  1.
     200001    2    1    2    0    0 -0.45737383089E+02  0.24627656802E+03 -0.20501470897E+02  0.74407918312E+03  0.70034953008E+03 0.  0.
    5000001    2    3    3    0    0 -0.15798474843E+02 -0.54225942248E+02  0.10698594070E+02  0.15912487640E+03  0.14837864319E+03 0.  0.
        -13    1    4    4    0    0 -0.26445048640E+01 -0.98729682231E+02  0.25329214648E+02  0.10196138405E+03  0.10566000000E+00 0. -1.
     200003    1    4    4    0    0 -0.13153969979E+02  0.44503739983E+02 -0.14630620578E+02  0.57163492346E+02  0.30000000000E+02 0. -1.
     200000    1    3    3    0    0 -0.29938908246E+02  0.30050251027E+03 -0.31200064968E+02  0.58495430673E+03  0.50000000000E+03 0.  1.
    -200001    1    1    2    0    0  0.45737383089E+02 -0.24627656802E+03  0.27421118398E+04  0.28411127042E+04  0.70000000000E+03 0. -1.
<mgrwt>
<rscale>  0 0.23337605E+04</rscale>
<asrwt>0</asrwt>
<pdfrwt beam="1">  1        1 0.45048589E+00 0.23337605E+04</pdfrwt>
<pdfrwt beam="2">  1       -1 0.61684393E-01 0.23337605E+04</pdfrwt>
<totfact> 0.16270758E+00</totfact>
</mgrwt>
</event>
<event>
 8    1  0.3214020E-028  0.1441191E+04  0.7818608E-02  0.8924531E-01
         -1   -1    0    0    0  501 -0.00000000000E+00  0.00000000000E+00  0.30235360716E+03  0.30235360720E+03  0.50400000000E-02 0. -1.
          1   -1    0    0  501    0  0.00000000000E+00 -0.00000000000E+00 -0.17173856686E+04  0.17173856686E+04  0.50400000000E-02 0.  1.
     200001    2    1    2    0    0  0.11369447424E+03  0.91680184412E+02 -0.83351183501E+03  0.10980574091E+04  0.69975453189E+03 0.  0.
    5000001    2    3    3    0    0 -0.60479011837E+02  0.25926079077E+02 -0.18819326677E+03  0.26074261756E+03  0.16804801250E+03 0.  0.
        -13    1    4    4    0    0  0.42585322929E+02 -0.18057788398E+02 -0.87620937651E+01  0.47078433512E+02  0.10566000000E+00 0. -1.
     200003    1    4    4    0    0 -0.10306433477E+03  0.43983867475E+02 -0.17943117300E+03  0.21366418405E+03  0.30000000000E+02 0. -1.
     200000    1    3    3    0    0  0.17417348607E+03  0.65754105335E+02 -0.64531856824E+03  0.83731479155E+03  0.50000000000E+03 0.  1.
    -200001    1    1    2    0    0 -0.11369447424E+03 -0.91680184412E+02 -0.58152022645E+03  0.92168186673E+03  0.70000000000E+03 0. -1.
<mgrwt>
<rscale>  0 0.14411908E+04</rscale>
<asrwt>0</asrwt>
<pdfrwt beam="1">  1        1 0.24534080E+00 0.14411908E+04</pdfrwt>
<pdfrwt beam="2">  1       -1 0.43193373E-01 0.14411908E+04</pdfrwt>
<totfact> 0.28947363E+01</totfact>
</mgrwt>
</event>
<event>
 8    1  0.3214020E-028  0.1575905E+04  0.7818608E-02  0.8835489E-01
         -1   -1    0    0    0  501 -0.00000000000E+00  0.00000000000E+00  0.52358475474E+03  0.52358475476E+03  0.50400000000E-02 0. -1.
          1   -1    0    0  501    0  0.00000000000E+00 -0.00000000000E+00 -0.11858047283E+04  0.11858047283E+04  0.50400000000E-02 0.  1.
     200001    2    1    2    0    0 -0.18642356122E+03 -0.23543891365E+03 -0.11198597827E+03  0.76973918866E+03  0.69983736182E+03 0.  0.
    5000001    2    3    3    0    0 -0.12416959568E+03  0.14092492678E+02 -0.19143102478E+02  0.19986088713E+03  0.15479415038E+03 0.  0.
        -13    1    4    4    0    0 -0.13007292759E+02  0.16882985978E+02  0.57630201186E+02  0.61444903233E+02  0.10566000000E+00 0. -1.
     200003    1    4    4    0    0 -0.11116230292E+03 -0.27904932999E+01 -0.76773303664E+02  0.13841598390E+03  0.30000000000E+02 0. -1.
     200000    1    3    3    0    0 -0.62253965540E+02 -0.24953140633E+03 -0.92842875790E+02  0.56987830153E+03  0.50000000000E+03 0.  1.
    -200001    1    1    2    0    0  0.18642356122E+03  0.23543891365E+03 -0.55023399533E+03  0.93965029444E+03  0.70000000000E+03 0.  1.
<mgrwt>
<rscale>  0 0.15759052E+04</rscale>
<asrwt>0</asrwt>
<pdfrwt beam="1">  1        1 0.16940067E+00 0.15759052E+04</pdfrwt>
<pdfrwt beam="2">  1       -1 0.74797823E-01 0.15759052E+04</pdfrwt>
<totfact> 0.21936433E+01</totfact>
</mgrwt>
</event>
<event>
 8    1  0.3214020E-028  0.1709883E+04  0.7818608E-02  0.8755748E-01
          1   -1    0    0  501    0  0.00000000000E+00  0.00000000000E+00  0.55838735575E+03  0.55838735577E+03  0.50400000000E-02 0.  1.
         -1   -1    0    0    0  501 -0.00000000000E+00 -0.00000000000E+00 -0.13089929845E+04  0.13089929845E+04  0.50400000000E-02 0. -1.
     200001    2    1    2    0    0 -0.43559228419E+03 -0.15566450346E+02 -0.62205917017E+03  0.10328103047E+04  0.69982609395E+03 0.  0.
    5000001    2    3    3    0    0 -0.19211747085E+03  0.66838865376E+02 -0.20691405935E+03  0.33394258911E+03  0.16531082340E+03 0.  0.
        -13    1    4    4    0    0 -0.16360067964E+03  0.10128284626E+03 -0.20338358120E+03  0.27997908777E+03  0.10566000000E+00 0. -1.
     200003    1    4    4    0    0 -0.28516791214E+02 -0.34443980886E+02 -0.35304781518E+01  0.53963501336E+02  0.30000000000E+02 0. -1.
     200000    1    3    3    0    0 -0.24347481333E+03 -0.82405315722E+02 -0.41514511082E+03  0.69886771554E+03  0.50000000000E+03 0. -1.
    -200001    1    1    2    0    0  0.43559228419E+03  0.15566450346E+02 -0.12854645862E+03  0.83457003567E+03  0.70000000000E+03 0.  1.
<mgrwt>
<rscale>  0 0.17098832E+04</rscale>
<asrwt>0</asrwt>
<pdfrwt beam="1">  1        1 0.79769623E-01 0.17098832E+04</pdfrwt>
<pdfrwt beam="2">  1       -1 0.18699900E+00 0.17098832E+04</pdfrwt>
<totfact> 0.74553658E+00</totfact>
</mgrwt>
</event>
<event>
 8    1  0.3214020E-028  0.1546491E+04  0.7818608E-02  0.8854112E-01
         -1   -1    0    0    0  501 -0.00000000000E+00  0.00000000000E+00  0.36553503495E+03  0.36553503499E+03  0.50400000000E-02 0. -1.
          1   -1    0    0  501    0  0.00000000000E+00 -0.00000000000E+00 -0.16357089579E+04  0.16357089579E+04  0.50400000000E-02 0.  1.
     200001    2    1    2    0    0  0.30565378888E+03  0.74412157798E+02 -0.75744264868E+03  0.10782842064E+04  0.70001146837E+03 0.  0.
    5000001    2    3    3    0    0  0.53806611315E+02  0.29649408393E+01 -0.15424621744E+03  0.25222268307E+03  0.19214693328E+03 0.  0.
        -13    1    4    4    0    0  0.48706996634E+02  0.75891813396E+02 -0.14754176302E+03  0.17291767365E+03  0.10566000000E+00 0. -1.
     200003    1    4    4    0    0  0.50996146809E+01 -0.72926872557E+02 -0.67044544183E+01  0.79305009425E+02  0.30000000000E+02 0. -1.
     200000    1    3    3    0    0  0.25184717756E+03  0.71447216958E+02 -0.60319643124E+03  0.82606152333E+03  0.50000000000E+03 0. -1.
    -200001    1    1    2    0    0 -0.30565378888E+03 -0.74412157798E+02 -0.51273127428E+03  0.92295978650E+03  0.70000000000E+03 0. -1.
<mgrwt>
<rscale>  0 0.15464914E+04</rscale>
<asrwt>0</asrwt>
<pdfrwt beam="1">  1        1 0.23367270E+00 0.15464914E+04</pdfrwt>
<pdfrwt beam="2">  1       -1 0.52219292E-01 0.15464914E+04</pdfrwt>
<totfact> 0.22637908E+01</totfact>
</mgrwt>
</event>
<event>
 8    1  0.3214020E-028  0.1724140E+04  0.7818608E-02  0.8747715E-01
          1   -1    0    0  501    0  0.00000000000E+00  0.00000000000E+00  0.59222794481E+03  0.59222794484E+03  0.50400000000E-02 0.  1.
         -1   -1    0    0    0  501 -0.00000000000E+00 -0.00000000000E+00 -0.12548629347E+04  0.12548629348E+04  0.50400000000E-02 0. -1.
     200001    2    1    2    0    0 -0.35126724834E+03 -0.25994222579E+03 -0.59827343887E+03  0.10193825676E+04  0.70017931341E+03 0.  0.
    5000001    2    3    3    0    0 -0.84703403380E+02 -0.60872674007E+02 -0.18221524201E+03  0.28877364821E+03  0.19826163647E+03 0.  0.
        -13    1    4    4    0    0  0.40446274624E+02  0.29132173588E+02 -0.99475684190E+02  0.11126548242E+03  0.10566000000E+00 0. -1.
     200003    1    4    4    0    0 -0.12514967800E+03 -0.90004847594E+02 -0.82739557821E+02  0.17750816579E+03  0.30000000000E+02 0. -1.
     200000    1    3    3    0    0 -0.26656384496E+03 -0.19906955179E+03 -0.41605819686E+03  0.73060891937E+03  0.50000000000E+03 0. -1.
    -200001    1    1    2    0    0  0.35126724834E+03  0.25994222579E+03 -0.64361551055E+02  0.82770831200E+03  0.70000000000E+03 0.  1.
<mgrwt>
<rscale>  0 0.17241402E+04</rscale>
<asrwt>0</asrwt>
<pdfrwt beam="1">  1        1 0.84603992E-01 0.17241402E+04</pdfrwt>
<pdfrwt beam="2">  1       -1 0.17926613E+00 0.17241402E+04</pdfrwt>
<totfact> 0.77860576E+00</totfact>
</mgrwt>
</event>
<event>
 8    1  0.3214020E-028  0.1517671E+04  0.7818608E-02  0.8872786E-01
          1   -1    0    0  501    0  0.00000000000E+00  0.00000000000E+00  0.26913515600E+03  0.26913515604E+03  0.50400000000E-02 0.  1.
         -1   -1    0    0    0  501 -0.00000000000E+00 -0.00000000000E+00 -0.21395627941E+04  0.21395627941E+04  0.50400000000E-02 0. -1.
     200001    2    1    2    0    0 -0.22482665949E+03  0.15495443119E+03 -0.77451066525E+03  0.10799421735E+04  0.70132048664E+03 0.  0.
    5000001    2    3    3    0    0 -0.10130221774E+03  0.10747594010E+03 -0.28837543800E+03  0.37012532812E+03  0.17893895120E+03 0.  0.
        -13    1    4    4    0    0 -0.89415630994E+02  0.30622759705E+00 -0.40515024691E+02  0.98166833662E+02  0.10566000000E+00 0. -1.
     200003    1    4    4    0    0 -0.11886586745E+02  0.10716971251E+03 -0.24786041331E+03  0.27195849446E+03  0.30000000000E+02 0. -1.
     200000    1    3    3    0    0 -0.12352444175E+03  0.47478491084E+02 -0.48613522726E+03  0.70981684539E+03  0.50000000000E+03 0.  1.
    -200001    1    1    2    0    0  0.22482665949E+03 -0.15495443119E+03 -0.10959169728E+04  0.13287557766E+04  0.70000000000E+03 0. -1.
<mgrwt>
<rscale>  0 0.15176713E+04</rscale>
<asrwt>0</asrwt>
<pdfrwt beam="1">  1        1 0.38447881E-01 0.15176713E+04</pdfrwt>
<pdfrwt beam="2">  1       -1 0.30565182E+00 0.15176713E+04</pdfrwt>
<totfact> 0.32759783E+00</totfact>
</mgrwt>
</event>
<event>
 8    1  0.3214020E-028  0.2154189E+04  0.7818608E-02  0.8537741E-01
          1   -1    0    0  501    0  0.00000000000E+00  0.00000000000E+00  0.27946137664E+04  0.27946137664E+04  0.50400000000E-02 0. -1.
         -1   -1    0    0    0  501 -0.00000000000E+00 -0.00000000000E+00 -0.41513147950E+03  0.41513147953E+03  0.50400000000E-02 0.  1.
     200001    2    1    2    0    0  0.35752878446E+02 -0.75698044078E+03  0.16497864387E+04  0.19461180513E+04  0.70091548737E+03 0.  0.
    5000001    2    3    3    0    0  0.51894941936E+02 -0.12271028095E+03  0.41427878453E+03  0.46996143182E+03  0.17744277399E+03 0.  0.
        -13    1    4    4    0    0  0.74799419731E+02 -0.67939670156E+02  0.38364575718E+03  0.39673017296E+03  0.10566000000E+00 0. -1.
     200003    1    4    4    0    0 -0.22904477795E+02 -0.54770610798E+02  0.30633027353E+02  0.73231258866E+02  0.30000000000E+02 0. -1.
     200000    1    3    3    0    0 -0.16142063490E+02 -0.63427015983E+03  0.12355076541E+04  0.14761566195E+04  0.50000000000E+03 0. -1.
    -200001    1    1    2    0    0 -0.35752878446E+02  0.75698044078E+03  0.72969584826E+03  0.12636271946E+04  0.70000000000E+03 0.  1.
<mgrwt>
<rscale>  0 0.21541886E+04</rscale>
<asrwt>0</asrwt>
<pdfrwt beam="1">  1        1 0.39923053E+00 0.21541886E+04</pdfrwt>
<pdfrwt beam="2">  1       -1 0.59304499E-01 0.21541886E+04</pdfrwt>
<totfact> 0.30814397E+00</totfact>
</mgrwt>
</event>
<event>
 8    1  0.3214020E-028  0.2042039E+04  0.7818608E-02  0.8587215E-01
          1   -1    0    0  501    0  0.00000000000E+00  0.00000000000E+00  0.79991532807E+03  0.79991532808E+03  0.50400000000E-02 0. -1.
         -1   -1    0    0    0  501 -0.00000000000E+00 -0.00000000000E+00 -0.13032385726E+04  0.13032385726E+04  0.50400000000E-02 0.  1.
     200001    2    1    2    0    0  0.21957624059E+03 -0.64931637982E+03  0.44161707551E+02  0.98085035029E+03  0.70020830238E+03 0.  0.
    5000001    2    3    3    0    0  0.10881272002E+03 -0.22006439866E+03  0.23348124236E+02  0.31230040745E+03  0.19161905436E+03 0.  0.
        -13    1    4    4    0    0 -0.25851790626E+02 -0.15633947637E+03  0.24368807725E+02  0.16032528467E+03  0.10566000000E+00 0. -1.
     200003    1    4    4    0    0  0.13466451065E+03 -0.63724922285E+02 -0.10206834889E+01  0.15197512278E+03  0.30000000000E+02 0. -1.
     200000    1    3    3    0    0  0.11076352056E+03 -0.42925198116E+03  0.20813583315E+02  0.66854994284E+03  0.50000000000E+03 0.  1.
    -200001    1    1    2    0    0 -0.21957624059E+03  0.64931637982E+03 -0.54748495212E+03  0.11223035504E+04  0.70000000000E+03 0. -1.
<mgrwt>
<rscale>  0 0.20420387E+04</rscale>
<asrwt>0</asrwt>
<pdfrwt beam="1">  1        1 0.11427362E+00 0.20420387E+04</pdfrwt>
<pdfrwt beam="2">  1       -1 0.18617694E+00 0.20420387E+04</pdfrwt>
<totfact> 0.43407832E+00</totfact>
</mgrwt>
</event>
<event>
 8    1  0.3214020E-028  0.1703140E+04  0.7818608E-02  0.8759576E-01
         -1   -1    0    0    0  501 -0.00000000000E+00  0.00000000000E+00  0.63322891408E+03  0.63322891410E+03  0.50400000000E-02 0. -1.
          1   -1    0    0  501    0  0.00000000000E+00 -0.00000000000E+00 -0.11451959383E+04  0.11451959383E+04  0.50400000000E-02 0.  1.
     200001    2    1    2    0    0  0.10854533817E+03 -0.38061129935E+03  0.37090143688E+02  0.80471502640E+03  0.69967388356E+03 0.  0.
    5000001    2    3    3    0    0 -0.25607311503E+02 -0.41071135321E+02 -0.18636144918E+02  0.18311235939E+03  0.17561394507E+03 0.  0.
        -13    1    4    4    0    0  0.68247171577E+02  0.19857058212E+01 -0.30791379504E+02  0.74898195383E+02  0.10566000000E+00 0. -1.
     200003    1    4    4    0    0 -0.93854483080E+02 -0.43056841142E+02  0.12155234586E+02  0.10821416400E+03  0.30000000000E+02 0. -1.
     200000    1    3    3    0    0  0.13415264967E+03 -0.33954016403E+03  0.55726288606E+02  0.62160266702E+03  0.50000000000E+03 0. -1.
    -200001    1    1    2    0    0 -0.10854533817E+03  0.38061129935E+03 -0.54905716791E+03  0.97370982601E+03  0.70000000000E+03 0. -1.
<mgrwt>
<rscale>  0 0.17031397E+04</rscale>
<asrwt>0</asrwt>
<pdfrwt beam="1">  1        1 0.16359942E+00 0.17031397E+04</pdfrwt>
<pdfrwt beam="2">  1       -1 0.90461274E-01 0.17031397E+04</pdfrwt>
<totfact> 0.15411461E+01</totfact>
</mgrwt>
</event>
<event>
 8    1  0.3214020E-028  0.1837206E+04  0.7818608E-02  0.8686760E-01
         -1   -1    0    0    0  501 -0.00000000000E+00  0.00000000000E+00  0.18100168695E+04  0.18100168695E+04  0.50400000000E-02 0.  1.
          1   -1    0    0  501    0  0.00000000000E+00 -0.00000000000E+00 -0.46620081050E+03  0.46620081053E+03  0.50400000000E-02 0. -1.
     200001    2    1    2    0    0 -0.56245684797E+02 -0.36623028582E+03  0.12479864386E+04  0.14784260309E+04  0.70070334569E+03 0.  0.
    5000001    2    3    3    0    0 -0.43822549643E+02 -0.10142661533E+03  0.34089470193E+03  0.40927181523E+03  0.19770292558E+03 0.  0.
        -13    1    4    4    0    0 -0.10841179722E+03 -0.29585062697E+02  0.11029127886E+03  0.15745656883E+03  0.10566000000E+00 0. -1.
     200003    1    4    4    0    0  0.64589247577E+02 -0.71841552630E+02  0.23060342307E+03  0.25181524639E+03  0.30000000000E+02 0. -1.
     200000    1    3    3    0    0 -0.12423135154E+02 -0.26480367049E+03  0.90709173667E+03  0.10691542157E+04  0.50000000000E+03 0.  1.
    -200001    1    1    2    0    0  0.56245684797E+02  0.36623028582E+03  0.95829620441E+02  0.79779164916E+03  0.70000000000E+03 0. -1.
<mgrwt>
<rscale>  0 0.18372058E+04</rscale>
<asrwt>0</asrwt>
<pdfrwt beam="1">  1        1 0.66600116E-01 0.18372058E+04</pdfrwt>
<pdfrwt beam="2">  1       -1 0.25857384E+00 0.18372058E+04</pdfrwt>
<totfact> 0.31216037E+00</totfact>
</mgrwt>
</event>
<event>
 8    1  0.3214020E-028  0.1501069E+04  0.7818608E-02  0.8883742E-01
         -1   -1    0    0    0  501 -0.00000000000E+00  0.00000000000E+00  0.33568378820E+03  0.33568378824E+03  0.50400000000E-02 0. -1.
          1   -1    0    0  501    0  0.00000000000E+00 -0.00000000000E+00 -0.16780730070E+04  0.16780730070E+04  0.50400000000E-02 0.  1.
     200001    2    1    2    0    0  0.21109149604E+03 -0.14764646672E+03 -0.56886838682E+03  0.93919010289E+03  0.70150389094E+03 0.  0.
    5000001    2    3    3    0    0  0.65755748533E+02 -0.41113565190E+02 -0.19327498275E+03  0.28838894755E+03  0.19949642203E+03 0.  0.
        -13    1    4    4    0    0  0.12354324965E+03 -0.42412448137E+02 -0.17921457425E+03  0.22176479675E+03  0.10566000000E+00 0. -1.
     200003    1    4    4    0    0 -0.57787501115E+02  0.12988829467E+01 -0.14060408504E+02  0.66624150796E+02  0.30000000000E+02 0. -1.
     200000    1    3    3    0    0  0.14533574751E+03 -0.10653290153E+03 -0.37559340407E+03  0.65080115534E+03  0.50000000000E+03 0.  1.
    -200001    1    1    2    0    0 -0.21109149604E+03  0.14764646672E+03 -0.77352083197E+03  0.10745666924E+04  0.70000000000E+03 0.  1.
<mgrwt>
<rscale>  0 0.15010688E+04</rscale>
<asrwt>0</asrwt>
<pdfrwt beam="1">  1        1 0.23972471E+00 0.15010688E+04</pdfrwt>
<pdfrwt beam="2">  1       -1 0.47954828E-01 0.15010688E+04</pdfrwt>
<totfact> 0.25101125E+01</totfact>
</mgrwt>
</event>
<event>
 8    1  0.3214020E-028  0.2125381E+04  0.7818608E-02  0.8550144E-01
         -1   -1    0    0    0  501 -0.00000000000E+00  0.00000000000E+00  0.66834665246E+03  0.66834665248E+03  0.50400000000E-02 0. -1.
          1   -1    0    0  501    0  0.00000000000E+00 -0.00000000000E+00 -0.16897090455E+04  0.16897090455E+04  0.50400000000E-02 0.  1.
     200001    2    1    2    0    0 -0.78683717980E+03 -0.11187561096E+03 -0.42652807843E+03  0.11433718866E+04  0.70266931733E+03 0.  0.
    5000001    2    3    3    0    0 -0.35498462375E+03 -0.28272515763E+02 -0.16125260592E+03  0.42653356172E+03  0.17063135149E+03 0.  0.
        -13    1    4    4    0    0 -0.16807706258E+03 -0.70085957895E+02 -0.14351907101E+03  0.23186132788E+03  0.10566000000E+00 0. -1.
     200003    1    4    4    0    0 -0.18690756117E+03  0.41813442131E+02 -0.17733534904E+02  0.19467223384E+03  0.30000000000E+02 0. -1.
     200000    1    3    3    0    0 -0.43185255604E+03 -0.83603095199E+02 -0.26527547251E+03  0.71683832487E+03  0.50000000000E+03 0.  1.
    -200001    1    1    2    0    0  0.78683717980E+03  0.11187561096E+03 -0.59483431462E+03  0.12146838114E+04  0.70000000000E+03 0. -1.
<mgrwt>
<rscale>  0 0.21253813E+04</rscale>
<asrwt>0</asrwt>
<pdfrwt beam="1">  1        1 0.24138701E+00 0.21253813E+04</pdfrwt>
<pdfrwt beam="2">  1       -1 0.95478094E-01 0.21253813E+04</pdfrwt>
<totfact> 0.57203539E+00</totfact>
</mgrwt>
</event>
<event>
 8    1  0.3214020E-028  0.1829602E+04  0.7818608E-02  0.8690714E-01
         -1   -1    0    0    0  501 -0.00000000000E+00  0.00000000000E+00  0.56696343765E+03  0.56696343768E+03  0.50400000000E-02 0.  1.
          1   -1    0    0  501    0  0.00000000000E+00 -0.00000000000E+00 -0.14760399080E+04  0.14760399080E+04  0.50400000000E-02 0. -1.
     200001    2    1    2    0    0  0.51068892946E+03  0.29228098646E+03 -0.46963266463E+03  0.10284383078E+04  0.70064195956E+03 0.  0.
    5000001    2    3    3    0    0  0.20313555733E+03  0.28707026561E+02 -0.17478263369E+03  0.32062699832E+03  0.17367946047E+03 0.  0.
        -13    1    4    4    0    0  0.16509939820E+03  0.70582476943E+02 -0.60220524400E+02  0.18938379038E+03  0.10566000000E+00 0. -1.
     200003    1    4    4    0    0  0.38036159129E+02 -0.41875450381E+02 -0.11456210929E+03  0.13124320794E+03  0.30000000000E+02 0. -1.
     200000    1    3    3    0    0  0.30755337213E+03  0.26357395990E+03 -0.29485003094E+03  0.70781130945E+03  0.50000000000E+03 0.  1.
    -200001    1    1    2    0    0 -0.51068892946E+03 -0.29228098646E+03 -0.43944380567E+03  0.10145650379E+04  0.70000000000E+03 0. -1.
<mgrwt>
<rscale>  0 0.18296018E+04</rscale>
<asrwt>0</asrwt>
<pdfrwt beam="1">  1        1 0.21086284E+00 0.18296018E+04</pdfrwt>
<pdfrwt beam="2">  1       -1 0.80994777E-01 0.18296018E+04</pdfrwt>
<totfact> 0.11563965E+01</totfact>
</mgrwt>
</event>
<event>
 8    1  0.3214020E-028  0.1480197E+04  0.7818608E-02  0.8897730E-01
         -1   -1    0    0    0  501 -0.00000000000E+00  0.00000000000E+00  0.21416330629E+03  0.21416330635E+03  0.50400000000E-02 0. -1.
          1   -1    0    0  501    0  0.00000000000E+00 -0.00000000000E+00 -0.25576065856E+04  0.25576065856E+04  0.50400000000E-02 0.  1.
     200001    2    1    2    0    0  0.10660680551E+03 -0.21374942338E+03 -0.12137046157E+04  0.14214501983E+04  0.70027704885E+03 0.  0.
    5000001    2    3    3    0    0 -0.89144322351E+01 -0.16437252962E+03 -0.48955734387E+03  0.53253372007E+03  0.12972268297E+03 0.  0.
        -13    1    4    4    0    0  0.45293432567E+02 -0.12529052430E+03 -0.35754826451E+03  0.38156255468E+03  0.10566000000E+00 0. -1.
     200003    1    4    4    0    0 -0.54207864802E+02 -0.39082005323E+02 -0.13200907936E+03  0.15097116539E+03  0.30000000000E+02 0. -1.
     200000    1    3    3    0    0  0.11552123774E+03 -0.49376893766E+02 -0.72414727184E+03  0.88891647826E+03  0.50000000000E+03 0.  1.
    -200001    1    1    2    0    0 -0.10660680551E+03  0.21374942338E+03 -0.11297386636E+04  0.13503196936E+04  0.70000000000E+03 0. -1.
<mgrwt>
<rscale>  0 0.14801966E+04</rscale>
<asrwt>0</asrwt>
<pdfrwt beam="1">  1        1 0.36537235E+00 0.14801966E+04</pdfrwt>
<pdfrwt beam="2">  1       -1 0.30594760E-01 0.14801966E+04</pdfrwt>
<totfact> 0.15839951E+01</totfact>
</mgrwt>
</event>
<event>
 8    1  0.3214020E-028  0.1565403E+04  0.7818608E-02  0.8842089E-01
         -1   -1    0    0    0  501 -0.00000000000E+00  0.00000000000E+00  0.21666663619E+03  0.21666663625E+03  0.50400000000E-02 0. -1.
          1   -1    0    0  501    0  0.00000000000E+00 -0.00000000000E+00 -0.28274845540E+04  0.28274845540E+04  0.50400000000E-02 0.  1.
     200001    2    1    2    0    0  0.32507541681E+01  0.22386416300E+03 -0.77750665607E+03  0.10690167864E+04  0.69868058401E+03 0.  0.
    5000001    2    3    3    0    0  0.67865105848E+02  0.59889293073E+01 -0.77984174765E+02  0.17964828360E+03  0.14680066220E+03 0.  0.
        -13    1    4    4    0    0 -0.40234210256E+02  0.25348464153E+02 -0.17008385154E+02  0.50503788367E+02  0.10566000000E+00 0. -1.
     200003    1    4    4    0    0  0.10809931610E+03 -0.19359534846E+02 -0.60975789610E+02  0.12914449524E+03  0.30000000000E+02 0. -1.
     200000    1    3    3    0    0 -0.64614351680E+02  0.21787523369E+03 -0.69952248130E+03  0.88936850279E+03  0.50000000000E+03 0. -1.
    -200001    1    1    2    0    0 -0.32507541681E+01 -0.22386416300E+03 -0.18333112617E+04  0.19751344039E+04  0.70000000000E+03 0.  1.
<mgrwt>
<rscale>  0 0.15654029E+04</rscale>
<asrwt>0</asrwt>
<pdfrwt beam="1">  1        1 0.40392634E+00 0.15654029E+04</pdfrwt>
<pdfrwt beam="2">  1       -1 0.30952378E-01 0.15654029E+04</pdfrwt>
<totfact> 0.10333202E+01</totfact>
</mgrwt>
</event>
<event>
 8    1  0.3214020E-028  0.1502342E+04  0.7818608E-02  0.8882897E-01
          1   -1    0    0  501    0  0.00000000000E+00  0.00000000000E+00  0.85177175783E+03  0.85177175784E+03  0.50400000000E-02 0.  1.
         -1   -1    0    0    0  501 -0.00000000000E+00 -0.00000000000E+00 -0.66245211000E+03  0.66245211002E+03  0.50400000000E-02 0. -1.
     200001    2    1    2    0    0  0.25931011762E+03  0.62352226878E+02  0.67795174334E+02  0.75534460542E+03  0.70343425420E+03 0.  0.
    5000001    2    3    3    0    0  0.74220031202E+02  0.81544634193E+01  0.38044808075E+01  0.21563121249E+03  0.20225537674E+03 0.  0.
        -13    1    4    4    0    0  0.76283337502E+02 -0.13644214164E+02  0.91789936487E+02  0.12012791418E+03  0.10566000000E+00 0. -1.
     200003    1    4    4    0    0 -0.20633062996E+01  0.21798677583E+02 -0.87985455679E+02  0.95503298311E+02  0.30000000000E+02 0. -1.
     200000    1    3    3    0    0  0.18509008642E+03  0.54197763459E+02  0.63990693526E+02  0.53971339293E+03  0.50000000000E+03 0.  1.
    -200001    1    1    2    0    0 -0.25931011762E+03 -0.62352226878E+02  0.12152447350E+03  0.75887926244E+03  0.70000000000E+03 0.  1.
<mgrwt>
<rscale>  0 0.15023422E+04</rscale>
<asrwt>0</asrwt>
<pdfrwt beam="1">  1        1 0.12168168E+00 0.15023422E+04</pdfrwt>
<pdfrwt beam="2">  1       -1 0.94636016E-01 0.15023422E+04</pdfrwt>
<totfact> 0.23591282E+01</totfact>
</mgrwt>
</event>
<event>
 8    1  0.3214020E-028  0.1646816E+04  0.7818608E-02  0.8792292E-01
         -1   -1    0    0    0  501 -0.00000000000E+00  0.00000000000E+00  0.53653171320E+03  0.53653171323E+03  0.50400000000E-02 0. -1.
          1   -1    0    0  501    0  0.00000000000E+00 -0.00000000000E+00 -0.12636734100E+04  0.12636734100E+04  0.50400000000E-02 0.  1.
     200001    2    1    2    0    0  0.72617864476E+02  0.42326750692E+03 -0.29984665461E+03  0.87445689086E+03  0.70024145909E+03 0.  0.
    5000001    2    3    3    0    0 -0.22728655433E+02  0.12297269389E+03 -0.15884456758E+03  0.26688012852E+03  0.17422551801E+03 0.  0.
        -13    1    4    4    0    0 -0.82382253374E+02  0.12034996353E+03 -0.92442987179E+02  0.17267503130E+03  0.10566000000E+00 0. -1.
     200003    1    4    4    0    0  0.59653597941E+02  0.26227303670E+01 -0.66401580403E+02  0.94205097218E+02  0.30000000000E+02 0. -1.
     200000    1    3    3    0    0  0.95346519909E+02  0.30029481302E+03 -0.14100208702E+03  0.60757676234E+03  0.50000000000E+03 0. -1.
    -200001    1    1    2    0    0 -0.72617864476E+02 -0.42326750692E+03 -0.42729504216E+03  0.92574823236E+03  0.70000000000E+03 0.  1.
<mgrwt>
<rscale>  0 0.16468162E+04</rscale>
<asrwt>0</asrwt>
<pdfrwt beam="1">  1        1 0.18052477E+00 0.16468162E+04</pdfrwt>
<pdfrwt beam="2">  1       -1 0.76647388E-01 0.16468162E+04</pdfrwt>
<totfact> 0.18304117E+01</totfact>
</mgrwt>
</event>
<event>
 8    1  0.3214020E-028  0.1532115E+04  0.7818608E-02  0.8863373E-01
         -1   -1    0    0    0  501 -0.00000000000E+00  0.00000000000E+00  0.11219805976E+03  0.11219805987E+03  0.50400000000E-02 0. -1.
          1   -1    0    0  501    0  0.00000000000E+00 -0.00000000000E+00 -0.52304305057E+04  0.52304305057E+04  0.50400000000E-02 0.  1.
     200001    2    1    2    0    0 -0.16368803647E+03 -0.47457218736E+02 -0.16519179126E+04  0.18022355924E+04  0.70012454567E+03 0.  0.
    5000001    2    3    3    0    0 -0.28999267688E+02 -0.11899024627E+03 -0.52348650374E+03  0.55860563011E+03  0.15166573165E+03 0.  0.
        -13    1    4    4    0    0 -0.37163114993E+02 -0.70883316061E+02 -0.86365941660E+02  0.11774815775E+03  0.10566000000E+00 0. -1.
     200003    1    4    4    0    0  0.81638473046E+01 -0.48106930213E+02 -0.43712056208E+03  0.44085747236E+03  0.30000000000E+02 0. -1.
     200000    1    3    3    0    0 -0.13468876878E+03  0.71533027537E+02 -0.11284314089E+04  0.12436299623E+04  0.50000000000E+03 0.  1.
    -200001    1    1    2    0    0  0.16368803647E+03  0.47457218736E+02 -0.34663145333E+04  0.35403929732E+04  0.70000000000E+03 0.  1.
<mgrwt>
<rscale>  0 0.15321151E+04</rscale>
<asrwt>0</asrwt>
<pdfrwt beam="1">  1        1 0.74720421E+00 0.15321151E+04</pdfrwt>
<pdfrwt beam="2">  1       -1 0.16028298E-01 0.15321151E+04</pdfrwt>
<totfact> 0.38523499E-01</totfact>
</mgrwt>
</event>
<event>
 8    1  0.3214020E-028  0.1853469E+04  0.7818608E-02  0.8678371E-01
          1   -1    0    0  501    0  0.00000000000E+00  0.00000000000E+00  0.96402406662E+03  0.96402406663E+03  0.50400000000E-02 0. -1.
         -1   -1    0    0    0  501 -0.00000000000E+00 -0.00000000000E+00 -0.89088774146E+03  0.89088774147E+03  0.50400000000E-02 0.  1.
     200001    2    1    2    0    0  0.56637747999E+03 -0.59209134876E+02 -0.17476006654E+03  0.91910104063E+03  0.69994033356E+03 0.  0.
    5000001    2    3    3    0    0  0.51344040070E+02 -0.19506185860E+02 -0.89218573521E+02  0.19511684507E+03  0.16460233179E+03 0.  0.
        -13    1    4    4    0    0 -0.19947777368E+02 -0.22108600057E+02  0.36734387409E+02  0.47287740491E+02  0.10566000000E+00 0. -1.
     200003    1    4    4    0    0  0.71291817439E+02  0.26024141968E+01 -0.12595296093E+03  0.14782910458E+03  0.30000000000E+02 0. -1.
     200000    1    3    3    0    0  0.51503343992E+03 -0.39702949017E+02 -0.85541493023E+02  0.72398419556E+03  0.50000000000E+03 0.  1.
    -200001    1    1    2    0    0 -0.56637747999E+03  0.59209134876E+02  0.24789639170E+03  0.93581076747E+03  0.70000000000E+03 0. -1.
<mgrwt>
<rscale>  0 0.18534694E+04</rscale>
<asrwt>0</asrwt>
<pdfrwt beam="1">  1        1 0.13771772E+00 0.18534694E+04</pdfrwt>
<pdfrwt beam="2">  1       -1 0.12726968E+00 0.18534694E+04</pdfrwt>
<totfact> 0.92675190E+00</totfact>
</mgrwt>
</event>
<event>
 8    1  0.3214020E-028  0.1451463E+04  0.7818608E-02  0.8917387E-01
          1   -1    0    0  501    0  0.00000000000E+00  0.00000000000E+00  0.27222119544E+03  0.27222119549E+03  0.50400000000E-02 0.  1.
         -1   -1    0    0    0  501 -0.00000000000E+00 -0.00000000000E+00 -0.19347717972E+04  0.19347717972E+04  0.50400000000E-02 0. -1.
     200001    2    1    2    0    0  0.14920236224E+03 -0.47513691264E+02 -0.65932758848E+03  0.97371471504E+03  0.69920567903E+03 0.  0.
    5000001    2    3    3    0    0  0.92856256665E+02  0.25132545016E+02 -0.25724408940E+03  0.32554537027E+03  0.17478940859E+03 0.  0.
        -13    1    4    4    0    0  0.58759947397E+02  0.97638667848E+02 -0.14743903813E+03  0.18634463235E+03  0.10566000000E+00 0. -1.
     200003    1    4    4    0    0  0.34096309268E+02 -0.72506122832E+02 -0.10980505127E+03  0.13920073792E+03  0.30000000000E+02 0. -1.
     200000    1    3    3    0    0  0.56346105578E+02 -0.72646236280E+02 -0.40208349908E+03  0.64816934477E+03  0.50000000000E+03 0.  1.
    -200001    1    1    2    0    0 -0.14920236224E+03  0.47513691264E+02 -0.10032230133E+04  0.12332782776E+04  0.70000000000E+03 0. -1.
<mgrwt>
<rscale>  0 0.14514626E+04</rscale>
<asrwt>0</asrwt>
<pdfrwt beam="1">  1        1 0.38888743E-01 0.14514626E+04</pdfrwt>
<pdfrwt beam="2">  1       -1 0.27639596E+00 0.14514626E+04</pdfrwt>
<totfact> 0.50158975E+00</totfact>
</mgrwt>
</event>
<event>
 8    1  0.3214020E-028  0.1688500E+04  0.7818608E-02  0.8767951E-01
         -1   -1    0    0    0  501 -0.00000000000E+00  0.00000000000E+00  0.41143344889E+03  0.41143344892E+03  0.50400000000E-02 0. -1.
          1   -1    0    0  501    0  0.00000000000E+00 -0.00000000000E+00 -0.17323769661E+04  0.17323769661E+04  0.50400000000E-02 0.  1.
     200001    2    1    2    0    0 -0.20803413935E+03  0.40224785358E+03 -0.82942526296E+03  0.11759923882E+04  0.69995020636E+03 0.  0.
    5000001    2    3    3    0    0 -0.11136049955E+03  0.88100797349E+02 -0.25951321644E+03  0.34965474149E+03  0.18640927388E+03 0.  0.
        -13    1    4    4    0    0 -0.11746866591E+03  0.12887520758E+03 -0.15475034350E+03  0.23314241694E+03  0.10566000000E+00 0. -1.
     200003    1    4    4    0    0  0.61081663606E+01 -0.40774410232E+02 -0.10476287294E+03  0.11651232455E+03  0.30000000000E+02 0. -1.
     200000    1    3    3    0    0 -0.96673639799E+02  0.31414705623E+03 -0.56991204653E+03  0.82633764670E+03  0.50000000000E+03 0. -1.
    -200001    1    1    2    0    0  0.20803413935E+03 -0.40224785358E+03 -0.49151825426E+03  0.96781802686E+03  0.70000000000E+03 0. -1.
<mgrwt>
<rscale>  0 0.16884997E+04</rscale>
<asrwt>0</asrwt>
<pdfrwt beam="1">  1        1 0.24748242E+00 0.16884997E+04</pdfrwt>
<pdfrwt beam="2">  1       -1 0.58776208E-01 0.16884997E+04</pdfrwt>
<totfact> 0.15421083E+01</totfact>
</mgrwt>
</event>
<event>
 8    1  0.3218906E-028  0.1792729E+04  0.7818608E-02  0.8710176E-01
         -1   -1    0    0    0  501 -0.00000000000E+00  0.00000000000E+00  0.43694473079E+03  0.43694473082E+03  0.50400000000E-02 0. -1.
          1   -1    0    0  501    0  0.00000000000E+00 -0.00000000000E+00 -0.18388341631E+04  0.18388341631E+04  0.50400000000E-02 0.  1.
     200001    2    1    2    0    0  0.41654948683E+03  0.30012700738E+03 -0.40642594463E+03  0.95496957733E+03  0.69512239902E+03 0.  0.
    5000001    2    3    3    0    0  0.10264091194E+01  0.46573923425E+02 -0.80479455578E+02  0.18478147808E+03  0.15967801356E+03 0.  0.
        -13    1    4    4    0    0 -0.91063321166E+01  0.85145791294E+02  0.50253728229E+01  0.85778765413E+02  0.10566000000E+00 0. -1.
     200003    1    4    4    0    0  0.10132741236E+02 -0.38571867869E+02 -0.85504828400E+02  0.99002712668E+02  0.30000000000E+02 0. -1.
     200000    1    3    3    0    0  0.41552307771E+03  0.25355308396E+03 -0.32594648905E+03  0.77018809925E+03  0.50000000000E+03 0. -1.
    -200001    1    1    2    0    0 -0.41654948683E+03 -0.30012700738E+03 -0.99546348769E+03  0.13208093166E+04  0.70000000000E+03 0. -1.
<mgrwt>
<rscale>  0 0.17927285E+04</rscale>
<asrwt>0</asrwt>
<pdfrwt beam="1">  1        1 0.26269059E+00 0.17927285E+04</pdfrwt>
<pdfrwt beam="2">  1       -1 0.62420677E-01 0.17927285E+04</pdfrwt>
<totfact> 0.11611411E+01</totfact>
</mgrwt>
</event>
<event>
 8    1  0.3214020E-028  0.1514539E+04  0.7818608E-02  0.8874842E-01
         -1   -1    0    0    0  501 -0.00000000000E+00  0.00000000000E+00  0.95519148240E+03  0.95519148241E+03  0.50400000000E-02 0.  1.
          1   -1    0    0  501    0  0.00000000000E+00 -0.00000000000E+00 -0.60035863798E+03  0.60035863800E+03  0.50400000000E-02 0. -1.
     200001    2    1    2    0    0  0.13750855126E+03  0.15995567963E+03  0.38337812033E+03  0.82390180743E+03  0.69809811920E+03 0.  0.
    5000001    2    3    3    0    0  0.60839739887E+02  0.68101931132E+02  0.56980334214E+02  0.21492665808E+03  0.18603054290E+03 0.  0.
        -13    1    4    4    0    0 -0.32457670823E+02 -0.15190813433E+01  0.85422233920E+02  0.91393529395E+02  0.10566000000E+00 0. -1.
     200003    1    4    4    0    0  0.93297410710E+02  0.69621012476E+02 -0.28441899706E+02  0.12353312868E+03  0.30000000000E+02 0. -1.
     200000    1    3    3    0    0  0.76668811369E+02  0.91853748496E+02  0.32639778611E+03  0.60897514935E+03  0.50000000000E+03 0.  1.
    -200001    1    1    2    0    0 -0.13750855126E+03 -0.15995567963E+03 -0.28545275906E+02  0.73164831298E+03  0.70000000000E+03 0. -1.
<mgrwt>
<rscale>  0 0.15145395E+04</rscale>
<asrwt>0</asrwt>
<pdfrwt beam="1">  1        1 0.85765520E-01 0.15145395E+04</pdfrwt>
<pdfrwt beam="2">  1       -1 0.13645593E+00 0.15145395E+04</pdfrwt>
<totfact> 0.16521521E+01</totfact>
</mgrwt>
</event>
<event>
 8    1  0.3214020E-028  0.1633655E+04  0.7818608E-02  0.8800135E-01
         -1   -1    0    0    0  501 -0.00000000000E+00  0.00000000000E+00  0.28442625478E+03  0.28442625482E+03  0.50400000000E-02 0.  1.
          1   -1    0    0  501    0  0.00000000000E+00 -0.00000000000E+00 -0.23458003629E+04  0.23458003629E+04  0.50400000000E-02 0. -1.
     200001    2    1    2    0    0 -0.13612296519E+03  0.31032460440E+03 -0.14326652842E+04  0.16301738156E+04  0.70007573216E+03 0.  0.
    5000001    2    3    3    0    0 -0.32202787764E+02  0.96722692162E+02 -0.63656392535E+03  0.66053339062E+03  0.14386949068E+03 0.  0.
        -13    1    4    4    0    0  0.68745335762E+01  0.51363410320E+02 -0.56693678621E+02  0.76809136769E+02  0.10566000000E+00 0. -1.
     200003    1    4    4    0    0 -0.39077321340E+02  0.45359281842E+02 -0.57987024673E+03  0.58372425385E+03  0.30000000000E+02 0. -1.
     200000    1    3    3    0    0 -0.10392017742E+03  0.21360191224E+03 -0.79610135890E+03  0.96964042501E+03  0.50000000000E+03 0.  1.
    -200001    1    1    2    0    0  0.13612296519E+03 -0.31032460440E+03 -0.62870882386E+03  0.10000528021E+04  0.70000000000E+03 0.  1.
<mgrwt>
<rscale>  0 0.16336551E+04</rscale>
<asrwt>0</asrwt>
<pdfrwt beam="1">  1        1 0.33511433E+00 0.16336551E+04</pdfrwt>
<pdfrwt beam="2">  1       -1 0.40632324E-01 0.16336551E+04</pdfrwt>
<totfact> 0.12798778E+01</totfact>
</mgrwt>
</event>
<event>
 8    1  0.3214020E-028  0.1419423E+04  0.7818608E-02  0.8939878E-01
         -1   -1    0    0    0  501 -0.00000000000E+00  0.00000000000E+00  0.28120396588E+03  0.28120396593E+03  0.50400000000E-02 0. -1.
          1   -1    0    0  501    0  0.00000000000E+00 -0.00000000000E+00 -0.17911913857E+04  0.17911913857E+04  0.50400000000E-02 0.  1.
     200001    2    1    2    0    0 -0.42157998686E+02 -0.10399021530E+03 -0.70346740223E+03  0.99858633673E+03  0.69979784522E+03 0.  0.
    5000001    2    3    3    0    0 -0.21444533819E+02 -0.30352651529E+02 -0.23493284607E+03  0.30911105165E+03  0.19742099331E+03 0.  0.
        -13    1    4    4    0    0  0.33981329177E+02  0.60981701465E+02 -0.29836794315E+02  0.75919326296E+02  0.10566000000E+00 0. -1.
     200003    1    4    4    0    0 -0.55425862995E+02 -0.91334352994E+02 -0.20509605176E+03  0.23319172535E+03  0.30000000000E+02 0. -1.
     200000    1    3    3    0    0 -0.20713464868E+02 -0.73637563770E+02 -0.46853455615E+03  0.68947528508E+03  0.50000000000E+03 0. -1.
    -200001    1    1    2    0    0  0.42157998686E+02  0.10399021530E+03 -0.80652001760E+03  0.10738090149E+04  0.70000000000E+03 0. -1.
<mgrwt>
<rscale>  0 0.14194226E+04</rscale>
<asrwt>0</asrwt>
<pdfrwt beam="1">  1        1 0.25588448E+00 0.14194226E+04</pdfrwt>
<pdfrwt beam="2">  1       -1 0.40171996E-01 0.14194226E+04</pdfrwt>
<totfact> 0.29746973E+01</totfact>
</mgrwt>
</event>
<event>
 8    1  0.3214020E-028  0.1441736E+04  0.7818608E-02  0.8924150E-01
          1   -1    0    0  501    0  0.00000000000E+00  0.00000000000E+00  0.57851062556E+03  0.57851062559E+03  0.50400000000E-02 0.  1.
         -1   -1    0    0    0  501 -0.00000000000E+00 -0.00000000000E+00 -0.89825585534E+03  0.89825585535E+03  0.50400000000E-02 0. -1.
     200001    2    1    2    0    0 -0.80521973518E+02 -0.20753064461E+02 -0.54678899027E+01  0.70496033671E+03  0.70001764308E+03 0.  0.
    5000001    2    3    3    0    0 -0.51355172700E+01 -0.14440289815E+02  0.33381798582E+01  0.19919308217E+03  0.19857453268E+03 0.  0.
        -13    1    4    4    0    0  0.67534573878E+02  0.46626326238E+02 -0.39185272823E+02  0.90941903089E+02  0.10566000000E+00 0. -1.
     200003    1    4    4    0    0 -0.72670091148E+02 -0.61066616053E+02  0.42523452681E+02  0.10825117908E+03  0.30000000000E+02 0. -1.
     200000    1    3    3    0    0 -0.75386456248E+02 -0.63127746457E+01 -0.88060697609E+01  0.50576725455E+03  0.50000000000E+03 0.  1.
    -200001    1    1    2    0    0  0.80521973518E+02  0.20753064461E+02 -0.31427733987E+03  0.77180614422E+03  0.70000000000E+03 0. -1.
<mgrwt>
<rscale>  0 0.14417358E+04</rscale>
<asrwt>0</asrwt>
<pdfrwt beam="1">  1        1 0.82644375E-01 0.14417358E+04</pdfrwt>
<pdfrwt beam="2">  1       -1 0.12832227E+00 0.14417358E+04</pdfrwt>
<totfact> 0.20475604E+01</totfact>
</mgrwt>
</event>
<event>
 8    1  0.3214020E-028  0.1896784E+04  0.7818608E-02  0.8656459E-01
         -1   -1    0    0    0  501 -0.00000000000E+00  0.00000000000E+00  0.34185915810E+03  0.34185915813E+03  0.50400000000E-02 0. -1.
          1   -1    0    0  501    0  0.00000000000E+00 -0.00000000000E+00 -0.26310467935E+04  0.26310467935E+04  0.50400000000E-02 0.  1.
     200001    2    1    2    0    0 -0.47086356547E+03  0.80731691800E+02 -0.18117137944E+04  0.20001719838E+04  0.70010784065E+03 0.  0.
    5000001    2    3    3    0    0  0.53620334188E+01  0.12385010601E+03 -0.22315222248E+03  0.26749258861E+03  0.79923528456E+02 0.  0.
        -13    1    4    4    0    0  0.12181650698E+02 -0.43393263549E+01 -0.38475142422E+02  0.40590271191E+02  0.10566000000E+00 0. -1.
     200003    1    4    4    0    0 -0.68196172793E+01  0.12818943237E+03 -0.18467708006E+03  0.22690231742E+03  0.30000000000E+02 0. -1.
     200000    1    3    3    0    0 -0.47622559888E+03 -0.43118414211E+02 -0.15885615719E+04  0.17326793952E+04  0.50000000000E+03 0.  1.
    -200001    1    1    2    0    0  0.47086356547E+03 -0.80731691800E+02 -0.47747384097E+03  0.97273396782E+03  0.70000000000E+03 0. -1.
<mgrwt>
<rscale>  0 0.18967841E+04</rscale>
<asrwt>0</asrwt>
<pdfrwt beam="1">  1        1 0.37586382E+00 0.18967841E+04</pdfrwt>
<pdfrwt beam="2">  1       -1 0.48837024E-01 0.18967841E+04</pdfrwt>
<totfact> 0.58480342E+00</totfact>
</mgrwt>
</event>
<event>
 8    1  0.3214020E-028  0.1655972E+04  0.7818608E-02  0.8786881E-01
         -1   -1    0    0    0  501 -0.00000000000E+00  0.00000000000E+00  0.42307068354E+03  0.42307068357E+03  0.50400000000E-02 0. -1.
          1   -1    0    0  501    0  0.00000000000E+00 -0.00000000000E+00 -0.16204406326E+04  0.16204406326E+04  0.50400000000E-02 0.  1.
     200001    2    1    2    0    0 -0.12272216552E+03  0.38081133950E+03 -0.36650197825E+03  0.88574640432E+03  0.70010355413E+03 0.  0.
    5000001    2    3    3    0    0  0.41846496780E+02  0.13440964826E+03 -0.16727068761E+03  0.27134446322E+03  0.16072103767E+03 0.  0.
        -13    1    4    4    0    0  0.69771047505E+02  0.14618378645E+03 -0.96002354337E+02  0.18829275529E+03  0.10566000000E+00 0. -1.
     200003    1    4    4    0    0 -0.27924550724E+02 -0.11774138195E+02 -0.71268333270E+02  0.83051707933E+02  0.30000000000E+02 0. -1.
     200000    1    3    3    0    0 -0.16456866230E+03  0.24640169124E+03 -0.19923129064E+03  0.61440194110E+03  0.50000000000E+03 0.  1.
    -200001    1    1    2    0    0  0.12272216552E+03 -0.38081133950E+03 -0.83086797083E+03  0.11577649119E+04  0.70000000000E+03 0.  1.
<mgrwt>
<rscale>  0 0.16559721E+04</rscale>
<asrwt>0</asrwt>
<pdfrwt beam="1">  1        1 0.23149152E+00 0.16559721E+04</pdfrwt>
<pdfrwt beam="2">  1       -1 0.60438670E-01 0.16559721E+04</pdfrwt>
<totfact> 0.17258811E+01</totfact>
</mgrwt>
</event>
<event>
 8    1  0.3214020E-028  0.1857606E+04  0.7818608E-02  0.8676251E-01
         -1   -1    0    0    0  501 -0.00000000000E+00  0.00000000000E+00  0.76129704886E+03  0.76129704888E+03  0.50400000000E-02 0. -1.
          1   -1    0    0  501    0  0.00000000000E+00 -0.00000000000E+00 -0.11331653058E+04  0.11331653058E+04  0.50400000000E-02 0.  1.
     200001    2    1    2    0    0  0.21935948986E+03 -0.48246084316E+03 -0.49573624441E+03  0.10077660542E+04  0.69925027349E+03 0.  0.
    5000001    2    3    3    0    0  0.76981777448E+02  0.26529877103E+02 -0.13339245285E+03  0.19497088344E+03  0.11657645763E+03 0.  0.
        -13    1    4    4    0    0  0.47040841986E+02 -0.19015055935E+02 -0.12144541629E+03  0.13161843894E+03  0.10566000000E+00 0. -1.
     200003    1    4    4    0    0  0.29940935462E+02  0.45544933038E+02 -0.11947036561E+02  0.63352444502E+02  0.30000000000E+02 0. -1.
     200000    1    3    3    0    0  0.14237771241E+03 -0.50899072026E+03 -0.36234379156E+03  0.81279517075E+03  0.50000000000E+03 0. -1.
    -200001    1    1    2    0    0 -0.21935948986E+03  0.48246084316E+03  0.12386798750E+03  0.88669630049E+03  0.70000000000E+03 0. -1.
<mgrwt>
<rscale>  0 0.18576064E+04</rscale>
<asrwt>0</asrwt>
<pdfrwt beam="1">  1        1 0.16188076E+00 0.18576064E+04</pdfrwt>
<pdfrwt beam="2">  1       -1 0.10875672E+00 0.18576064E+04</pdfrwt>
<totfact> 0.10189756E+01</totfact>
</mgrwt>
</event>
<event>
 8    1  0.3214020E-028  0.2132711E+04  0.7818608E-02  0.8546969E-01
          1   -1    0    0  501    0  0.00000000000E+00  0.00000000000E+00  0.10341715612E+04  0.10341715613E+04  0.50400000000E-02 0.  1.
         -1   -1    0    0    0  501 -0.00000000000E+00 -0.00000000000E+00 -0.10995409612E+04  0.10995409612E+04  0.50400000000E-02 0. -1.
     200001    2    1    2    0    0  0.32997530768E+03  0.71272593490E+03 -0.20540873146E+03  0.10723582101E+04  0.70064072244E+03 0.  0.
    5000001    2    3    3    0    0  0.76227015907E+02  0.17762723689E+03 -0.48861073124E+02  0.28164588476E+03  0.19893467946E+03 0.  0.
        -13    1    4    4    0    0  0.38842765119E+02  0.78861289783E+01 -0.91907551961E+02  0.10008976323E+03  0.10566000000E+00 0. -1.
     200003    1    4    4    0    0  0.37384250788E+02  0.16974110791E+03  0.43046478838E+02  0.18155612152E+03  0.30000000000E+02 0. -1.
     200000    1    3    3    0    0  0.25374829177E+03  0.53509869801E+03 -0.15654765833E+03  0.79071232539E+03  0.50000000000E+03 0. -1.
    -200001    1    1    2    0    0 -0.32997530768E+03 -0.71272593490E+03  0.14003933149E+03  0.10613543123E+04  0.70000000000E+03 0.  1.
<mgrwt>
<rscale>  0 0.21327109E+04</rscale>
<asrwt>0</asrwt>
<pdfrwt beam="1">  1        1 0.14773879E+00 0.21327109E+04</pdfrwt>
<pdfrwt beam="2">  1       -1 0.15707728E+00 0.21327109E+04</pdfrwt>
<totfact> 0.46116755E+00</totfact>
</mgrwt>
</event>
<event>
 8    1  0.3214020E-028  0.1686321E+04  0.7818608E-02  0.8769204E-01
         -1   -1    0    0    0  501 -0.00000000000E+00  0.00000000000E+00  0.34914805778E+03  0.34914805782E+03  0.50400000000E-02 0. -1.
          1   -1    0    0  501    0  0.00000000000E+00 -0.00000000000E+00 -0.20361559467E+04  0.20361559467E+04  0.50400000000E-02 0.  1.
     200001    2    1    2    0    0  0.24043772780E+03  0.34619466184E+03 -0.54936329758E+03  0.98462693215E+03  0.70002079823E+03 0.  0.
    5000001    2    3    3    0    0  0.11521267330E+03  0.44923566305E+02 -0.19583094653E+03  0.29077485100E+03  0.17580718830E+03 0.  0.
        -13    1    4    4    0    0  0.16140649176E+02 -0.61437943490E+02 -0.37539879891E+02  0.73786145057E+02  0.10566000000E+00 0. -1.
     200003    1    4    4    0    0  0.99072024122E+02  0.10636150980E+03 -0.15829106664E+03  0.21698870594E+03  0.30000000000E+02 0. -1.
     200000    1    3    3    0    0  0.12522505450E+03  0.30127109554E+03 -0.35353235105E+03  0.69385208115E+03  0.50000000000E+03 0.  1.
    -200001    1    1    2    0    0 -0.24043772780E+03 -0.34619466184E+03 -0.11376445913E+04  0.14006770723E+04  0.70000000000E+03 0. -1.
<mgrwt>
<rscale>  0 0.16863213E+04</rscale>
<asrwt>0</asrwt>
<pdfrwt beam="1">  1        1 0.29087942E+00 0.16863213E+04</pdfrwt>
<pdfrwt beam="2">  1       -1 0.49878295E-01 0.16863213E+04</pdfrwt>
<totfact> 0.13614380E+01</totfact>
</mgrwt>
</event>
<event>
 8    1  0.3214020E-028  0.1926988E+04  0.7818608E-02  0.8641538E-01
          1   -1    0    0  501    0  0.00000000000E+00  0.00000000000E+00  0.29121924595E+04  0.29121924595E+04  0.50400000000E-02 0.  1.
         -1   -1    0    0    0  501 -0.00000000000E+00 -0.00000000000E+00 -0.31877047094E+03  0.31877047098E+03  0.50400000000E-02 0. -1.
     200001    2    1    2    0    0  0.22269933671E+03  0.52782029225E+03  0.74124301697E+03  0.11697118060E+04  0.70042504478E+03 0.  0.
    5000001    2    3    3    0    0  0.39675518356E+02  0.14687138000E+03  0.28100389796E+03  0.36943695413E+03  0.18540529494E+03 0.  0.
        -13    1    4    4    0    0 -0.22453986975E+02  0.30140248214E+02 -0.17589764181E+02  0.41497313907E+02  0.10566000000E+00 0. -1.
     200003    1    4    4    0    0  0.62129505331E+02  0.11673113179E+03  0.29859366214E+03  0.32793964022E+03  0.30000000000E+02 0. -1.
     200000    1    3    3    0    0  0.18302381836E+03  0.38094891225E+03  0.46023911901E+03  0.80027485185E+03  0.50000000000E+03 0.  1.
    -200001    1    1    2    0    0 -0.22269933671E+03 -0.52782029225E+03  0.18521789716E+04  0.20612511245E+04  0.70000000000E+03 0.  1.
<mgrwt>
<rscale>  0 0.19269883E+04</rscale>
<asrwt>0</asrwt>
<pdfrwt beam="1">  1        1 0.41602750E+00 0.19269883E+04</pdfrwt>
<pdfrwt beam="2">  1       -1 0.45538638E-01 0.19269883E+04</pdfrwt>
<totfact> 0.43754192E+00</totfact>
</mgrwt>
</event>
<event>
 8    1  0.3214020E-028  0.1906740E+04  0.7818608E-02  0.8651509E-01
         -1   -1    0    0    0  501 -0.00000000000E+00  0.00000000000E+00  0.76473353128E+03  0.76473353130E+03  0.50400000000E-02 0. -1.
          1   -1    0    0  501    0  0.00000000000E+00 -0.00000000000E+00 -0.11885371061E+04  0.11885371061E+04  0.50400000000E-02 0.  1.
     200001    2    1    2    0    0  0.56727864619E+03 -0.15862056570E+03  0.61654066993E+02  0.91758986211E+03  0.70085974686E+03 0.  0.
    5000001    2    3    3    0    0  0.49516965596E+01 -0.31069683989E+02  0.61449357202E+02  0.15438552013E+03  0.13809062518E+03 0.  0.
        -13    1    4    4    0    0 -0.55520601355E+02 -0.36615358387E+02  0.55080611780E+02  0.86354540140E+02  0.10566000000E+00 0. -1.
     200003    1    4    4    0    0  0.60472297915E+02  0.55456743986E+01  0.63687454222E+01  0.68030979986E+02  0.30000000000E+02 0. -1.
     200000    1    3    3    0    0  0.56232694963E+03 -0.12755088171E+03  0.20470979123E+00  0.76320434198E+03  0.50000000000E+03 0. -1.
    -200001    1    1    2    0    0 -0.56727864619E+03  0.15862056570E+03 -0.48545764177E+03  0.10356807753E+04  0.70000000000E+03 0.  1.
<mgrwt>
<rscale>  0 0.19067398E+04</rscale>
<asrwt>0</asrwt>
<pdfrwt beam="1">  1        1 0.16979102E+00 0.19067398E+04</pdfrwt>
<pdfrwt beam="2">  1       -1 0.10924765E+00 0.19067398E+04</pdfrwt>
<totfact> 0.91774490E+00</totfact>
</mgrwt>
</event>
<event>
 8    1  0.3214020E-028  0.1524019E+04  0.7818608E-02  0.8868636E-01
         -1   -1    0    0    0  501 -0.00000000000E+00  0.00000000000E+00  0.44691186533E+03  0.44691186535E+03  0.50400000000E-02 0. -1.
          1   -1    0    0  501    0  0.00000000000E+00 -0.00000000000E+00 -0.12992690352E+04  0.12992690352E+04  0.50400000000E-02 0.  1.
     200001    2    1    2    0    0 -0.22600711745E+03  0.19738093022E+03 -0.39335017277E+03  0.85695321758E+03  0.69971852195E+03 0.  0.
    5000001    2    3    3    0    0 -0.17487295631E+03  0.56365403159E+02 -0.24681471120E+02  0.21787834491E+03  0.11447352812E+03 0.  0.
        -13    1    4    4    0    0 -0.12570452668E+03 -0.28732465817E+01 -0.43661337572E+02  0.13310224317E+03  0.10566000000E+00 0. -1.
     200003    1    4    4    0    0 -0.49168429631E+02  0.59238649740E+02  0.18979866451E+02  0.84776101739E+02  0.30000000000E+02 0. -1.
     200000    1    3    3    0    0 -0.51134161134E+02  0.14101552706E+03 -0.36866870165E+03  0.63907487267E+03  0.50000000000E+03 0.  1.
    -200001    1    1    2    0    0  0.22600711745E+03 -0.19738093022E+03 -0.45900699706E+03  0.88922768294E+03  0.70000000000E+03 0. -1.
<mgrwt>
<rscale>  0 0.15240194E+04</rscale>
<asrwt>0</asrwt>
<pdfrwt beam="1">  1        1 0.18560986E+00 0.15240194E+04</pdfrwt>
<pdfrwt beam="2">  1       -1 0.63844553E-01 0.15240194E+04</pdfrwt>
<totfact> 0.25448112E+01</totfact>
</mgrwt>
</event>
<event>
 8    1  0.3214020E-028  0.1760458E+04  0.7818608E-02  0.8727615E-01
          1   -1    0    0  501    0  0.00000000000E+00  0.00000000000E+00  0.36419712625E+03  0.36419712628E+03  0.50400000000E-02 0.  1.
         -1   -1    0    0    0  501 -0.00000000000E+00 -0.00000000000E+00 -0.21274280511E+04  0.21274280511E+04  0.50400000000E-02 0. -1.
     200001    2    1    2    0    0  0.27449030541E+03 -0.43988038004E+03 -0.10615225881E+04  0.13730393441E+04  0.69969075950E+03 0.  0.
    5000001    2    3    3    0    0  0.40515287292E+02 -0.64271097234E+02 -0.91988964449E+02  0.19582989383E+03  0.15529042242E+03 0.  0.
        -13    1    4    4    0    0  0.10516400614E+02  0.34071131393E+02 -0.80584604983E+02  0.88121089420E+02  0.10566000000E+00 0. -1.
     200003    1    4    4    0    0  0.29998886678E+02 -0.98342228627E+02 -0.11404359466E+02  0.10770880441E+03  0.30000000000E+02 0. -1.
     200000    1    3    3    0    0  0.23397501812E+03 -0.37560928281E+03 -0.96953362369E+03  0.11772094503E+04  0.50000000000E+03 0. -1.
    -200001    1    1    2    0    0 -0.27449030541E+03  0.43988038004E+03 -0.70170833670E+03  0.11185858332E+04  0.70000000000E+03 0.  1.
<mgrwt>
<rscale>  0 0.17604581E+04</rscale>
<asrwt>0</asrwt>
<pdfrwt beam="1">  1        1 0.52028162E-01 0.17604581E+04</pdfrwt>
<pdfrwt beam="2">  1       -1 0.30391828E+00 0.17604581E+04</pdfrwt>
<totfact> 0.22184864E+00</totfact>
</mgrwt>
</event>
<event>
 8    1  0.3214020E-028  0.1449131E+04  0.7818608E-02  0.8919003E-01
         -1   -1    0    0    0  501 -0.00000000000E+00  0.00000000000E+00  0.25088358031E+03  0.25088358036E+03  0.50400000000E-02 0.  1.
          1   -1    0    0  501    0  0.00000000000E+00 -0.00000000000E+00 -0.20925860018E+04  0.20925860018E+04  0.50400000000E-02 0. -1.
     200001    2    1    2    0    0 -0.31761971757E+02 -0.38321742831E+02 -0.63083681743E+03  0.94394363031E+03  0.70042637597E+03 0.  0.
    5000001    2    3    3    0    0 -0.59415645077E+02 -0.50466333826E+02 -0.15348380159E+03  0.25200568622E+03  0.18404488259E+03 0.  0.
        -13    1    4    4    0    0  0.28851782739E+02  0.46775423705E+02 -0.84129694013E+02  0.10048971195E+03  0.10566000000E+00 0. -1.
     200003    1    4    4    0    0 -0.88267427816E+02 -0.97241757531E+02 -0.69354107576E+02  0.15151597427E+03  0.30000000000E+02 0. -1.
     200000    1    3    3    0    0  0.27653673320E+02  0.12144590994E+02 -0.47735301584E+03  0.69193794409E+03  0.50000000000E+03 0.  1.
    -200001    1    1    2    0    0  0.31761971757E+02  0.38321742831E+02 -0.12108656040E+04  0.13995259518E+04  0.70000000000E+03 0. -1.
<mgrwt>
<rscale>  0 0.14491314E+04</rscale>
<asrwt>0</asrwt>
<pdfrwt beam="1">  1        1 0.29894085E+00 0.14491314E+04</pdfrwt>
<pdfrwt beam="2">  1       -1 0.35840513E-01 0.14491314E+04</pdfrwt>
<totfact> 0.23563698E+01</totfact>
</mgrwt>
</event>
<event>
 8    1  0.3214020E-028  0.1737921E+04  0.7818608E-02  0.8740027E-01
         -1   -1    0    0    0  501 -0.00000000000E+00  0.00000000000E+00  0.55522036924E+03  0.55522036926E+03  0.50400000000E-02 0. -1.
          1   -1    0    0  501    0  0.00000000000E+00 -0.00000000000E+00 -0.13599866652E+04  0.13599866652E+04  0.50400000000E-02 0.  1.
     200001    2    1    2    0    0  0.37033714656E+03  0.11711207991E+03 -0.77521576282E+03  0.11141214738E+04  0.69960155672E+03 0.  0.
    5000001    2    3    3    0    0  0.80919268508E+02 -0.79510502762E+01 -0.32012233956E+03  0.36812313701E+03  0.16255824955E+03 0.  0.
        -13    1    4    4    0    0  0.76704442932E+02 -0.33524716374E+02 -0.55249142680E+02  0.10029933751E+03  0.10566000000E+00 0. -1.
     200003    1    4    4    0    0  0.42148255757E+01  0.25573666098E+02 -0.26487319688E+03  0.26782379950E+03  0.30000000000E+02 0. -1.
     200000    1    3    3    0    0  0.28941787805E+03  0.12506313018E+03 -0.45509342326E+03  0.74599833683E+03  0.50000000000E+03 0.  1.
    -200001    1    1    2    0    0 -0.37033714656E+03 -0.11711207991E+03 -0.29550533107E+02  0.80108556059E+03  0.70000000000E+03 0. -1.
<mgrwt>
<rscale>  0 0.17379209E+04</rscale>
<asrwt>0</asrwt>
<pdfrwt beam="1">  1        1 0.19428381E+00 0.17379209E+04</pdfrwt>
<pdfrwt beam="2">  1       -1 0.79317196E-01 0.17379209E+04</pdfrwt>
<totfact> 0.14543577E+01</totfact>
</mgrwt>
</event>
<event>
 8    1  0.3214020E-028  0.1797266E+04  0.7818608E-02  0.8707755E-01
         -1   -1    0    0    0  501 -0.00000000000E+00  0.00000000000E+00  0.86214796120E+03  0.86214796121E+03  0.50400000000E-02 0. -1.
          1   -1    0    0  501    0  0.00000000000E+00 -0.00000000000E+00 -0.93666193783E+03  0.93666193784E+03  0.50400000000E-02 0.  1.
     200001    2    1    2    0    0 -0.44716683525E+03 -0.10860163608E+03 -0.36253174674E+03  0.91297315913E+03  0.70024154974E+03 0.  0.
    5000001    2    3    3    0    0 -0.21660340541E+03 -0.89540703804E+02 -0.82638617206E+02  0.29502253142E+03  0.15897981042E+03 0.  0.
        -13    1    4    4    0    0 -0.84638060005E+02 -0.83075046950E+02  0.25935919162E+02  0.12139912559E+03  0.10566000000E+00 0. -1.
     200003    1    4    4    0    0 -0.13196534540E+03 -0.64656568542E+01 -0.10857453637E+03  0.17362340583E+03  0.30000000000E+02 0. -1.
     200000    1    3    3    0    0 -0.23056342985E+03 -0.19060932273E+02 -0.27989312953E+03  0.61795062771E+03  0.50000000000E+03 0.  1.
    -200001    1    1    2    0    0  0.44716683525E+03  0.10860163608E+03  0.28801777011E+03  0.88583673993E+03  0.70000000000E+03 0.  1.
<mgrwt>
<rscale>  0 0.17972659E+04</rscale>
<asrwt>0</asrwt>
<pdfrwt beam="1">  1        1 0.13380885E+00 0.17972659E+04</pdfrwt>
<pdfrwt beam="2">  1       -1 0.12316399E+00 0.17972659E+04</pdfrwt>
<totfact> 0.10605782E+01</totfact>
</mgrwt>
</event>
<event>
 8    1  0.3214020E-028  0.2037438E+04  0.7818608E-02  0.8589314E-01
         -1   -1    0    0    0  501 -0.00000000000E+00  0.00000000000E+00  0.13442237182E+04  0.13442237182E+04  0.50400000000E-02 0. -1.
          1   -1    0    0  501    0  0.00000000000E+00 -0.00000000000E+00 -0.77203581048E+03  0.77203581050E+03  0.50400000000E-02 0.  1.
     200001    2    1    2    0    0 -0.50963173503E+03 -0.50977940657E+03  0.45726524368E+03  0.11049204325E+04  0.70153981388E+03 0.  0.
    5000001    2    3    3    0    0 -0.18708673436E+03 -0.16102819086E+03  0.18471530127E+03  0.36333688430E+03  0.19225614306E+03 0.  0.
        -13    1    4    4    0    0  0.37769240354E+01  0.71611100074E+01 -0.28766118625E+02  0.29883898616E+02  0.10566000000E+00 0. -1.
     200003    1    4    4    0    0 -0.19086365840E+03 -0.16818930087E+03  0.21348141989E+03  0.33345298569E+03  0.30000000000E+02 0. -1.
     200000    1    3    3    0    0 -0.32254500067E+03 -0.34875121571E+03  0.27254994241E+03  0.74158354824E+03  0.50000000000E+03 0. -1.
    -200001    1    1    2    0    0  0.50963173503E+03  0.50977940657E+03  0.11492266403E+03  0.10113390962E+04  0.70000000000E+03 0. -1.
<mgrwt>
<rscale>  0 0.20374384E+04</rscale>
<asrwt>0</asrwt>
<pdfrwt beam="1">  1        1 0.11029083E+00 0.20374384E+04</pdfrwt>
<pdfrwt beam="2">  1       -1 0.19203196E+00 0.20374384E+04</pdfrwt>
<totfact> 0.41717474E+00</totfact>
</mgrwt>
</event>
<event>
 8    1  0.3214020E-028  0.1654885E+04  0.7818608E-02  0.8787522E-01
         -1   -1    0    0    0  501 -0.00000000000E+00  0.00000000000E+00  0.15967971341E+04  0.15967971341E+04  0.50400000000E-02 0. -1.
          1   -1    0    0  501    0  0.00000000000E+00 -0.00000000000E+00 -0.42877170441E+03  0.42877170444E+03  0.50400000000E-02 0.  1.
     200001    2    1    2    0    0 -0.10809255643E+03 -0.37399656487E+03  0.83878420304E+03  0.11595681361E+04  0.69962982475E+03 0.  0.
    5000001    2    3    3    0    0 -0.53309445186E+02 -0.78124903997E+02  0.16328064176E+03  0.26690566333E+03  0.18876617168E+03 0.  0.
        -13    1    4    4    0    0 -0.29627626614E+02 -0.10167645042E+03  0.90698381793E+01  0.10629284998E+03  0.10566000000E+00 0. -1.
     200003    1    4    4    0    0 -0.23681818572E+02  0.23551546422E+02  0.15421080358E+03  0.16061281334E+03  0.30000000000E+02 0. -1.
     200000    1    3    3    0    0 -0.54783111245E+02 -0.29587166087E+03  0.67550356128E+03  0.89266247277E+03  0.50000000000E+03 0.  1.
    -200001    1    1    2    0    0  0.10809255643E+03  0.37399656487E+03  0.32924122662E+03  0.86600070242E+03  0.70000000000E+03 0.  1.
<mgrwt>
<rscale>  0 0.16548854E+04</rscale>
<asrwt>0</asrwt>
<pdfrwt beam="1">  1        1 0.61253099E-01 0.16548854E+04</pdfrwt>
<pdfrwt beam="2">  1       -1 0.22811388E+00 0.16548854E+04</pdfrwt>
<totfact> 0.56164665E+00</totfact>
</mgrwt>
</event>
<event>
 8    1  0.3214020E-028  0.1524637E+04  0.7818608E-02  0.8868233E-01
         -1   -1    0    0    0  501 -0.00000000000E+00  0.00000000000E+00  0.21284913194E+03  0.21284913200E+03  0.50400000000E-02 0.  1.
          1   -1    0    0  501    0  0.00000000000E+00 -0.00000000000E+00 -0.27302426691E+04  0.27302426691E+04  0.50400000000E-02 0. -1.
     200001    2    1    2    0    0 -0.11505460890E+03  0.13615919576E+03 -0.16980426297E+04  0.18507947723E+04  0.71436379189E+03 0.  0.
    5000001    2    3    3    0    0 -0.47960048004E+02 -0.46052918359E+01 -0.29709713129E+03  0.35514621375E+03  0.18852255251E+03 0.  0.
        -13    1    4    4    0    0  0.70817428436E+02  0.49533412639E+01 -0.12370264977E+03  0.14262538514E+03  0.10566000000E+00 0. -1.
     200003    1    4    4    0    0 -0.11877747644E+03 -0.95586330997E+01 -0.17339448151E+03  0.21252082862E+03  0.30000000000E+02 0. -1.
     200000    1    3    3    0    0 -0.67094560894E+02  0.14076448760E+03 -0.14009454985E+04  0.14956485586E+04  0.50000000000E+03 0. -1.
    -200001    1    1    2    0    0  0.11505460890E+03 -0.13615919576E+03 -0.81935090742E+03  0.10922970288E+04  0.70000000000E+03 0.  1.
<mgrwt>
<rscale>  0 0.15246374E+04</rscale>
<asrwt>0</asrwt>
<pdfrwt beam="1">  1        1 0.39003465E+00 0.15246374E+04</pdfrwt>
<pdfrwt beam="2">  1       -1 0.30407021E-01 0.15246374E+04</pdfrwt>
<totfact> 0.12365979E+01</totfact>
</mgrwt>
</event>
<event>
 8    1  0.3214020E-028  0.1836939E+04  0.7818608E-02  0.8686899E-01
         -1   -1    0    0    0  501 -0.00000000000E+00  0.00000000000E+00  0.51285466257E+03  0.51285466259E+03  0.50400000000E-02 0. -1.
          1   -1    0    0  501    0  0.00000000000E+00 -0.00000000000E+00 -0.16448829618E+04  0.16448829618E+04  0.50400000000E-02 0.  1.
     200001    2    1    2    0    0  0.39097617542E+03 -0.37296852802E+03 -0.27407627018E+03  0.92564607878E+03  0.69981066628E+03 0.  0.
    5000001    2    3    3    0    0  0.22272784643E+03 -0.20235491380E+03 -0.15137595000E+03  0.35778000818E+03  0.12056803598E+03 0.  0.
        -13    1    4    4    0    0  0.10191139919E+02 -0.43302478107E+02 -0.61527364999E+02  0.75924908632E+02  0.10566000000E+00 0. -1.
     200003    1    4    4    0    0  0.21253670651E+03 -0.15905243569E+03 -0.89848585002E+02  0.28185509955E+03  0.30000000000E+02 0. -1.
     200000    1    3    3    0    0  0.16824832899E+03 -0.17061361422E+03 -0.12270032018E+03  0.56786607060E+03  0.50000000000E+03 0. -1.
    -200001    1    1    2    0    0 -0.39097617542E+03  0.37296852802E+03 -0.85795202906E+03  0.12320915456E+04  0.70000000000E+03 0. -1.
<mgrwt>
<rscale>  0 0.18369386E+04</rscale>
<asrwt>0</asrwt>
<pdfrwt beam="1">  1        1 0.23498328E+00 0.18369386E+04</pdfrwt>
<pdfrwt beam="2">  1       -1 0.73264952E-01 0.18369386E+04</pdfrwt>
<totfact> 0.11095811E+01</totfact>
</mgrwt>
</event>
<event>
 8    1  0.3214020E-028  0.1839976E+04  0.7818608E-02  0.8685325E-01
         -1   -1    0    0    0  501 -0.00000000000E+00  0.00000000000E+00  0.16440108925E+04  0.16440108925E+04  0.50400000000E-02 0. -1.
          1   -1    0    0  501    0  0.00000000000E+00 -0.00000000000E+00 -0.51482514042E+03  0.51482514044E+03  0.50400000000E-02 0.  1.
     200001    2    1    2    0    0 -0.23360518587E+03 -0.18724364484E+03 -0.39452816681E+02  0.76407882476E+03  0.70187488936E+03 0.  0.
    5000001    2    3    3    0    0 -0.94833422353E+02 -0.10999767938E+03  0.58927320650E+02  0.23031558797E+03  0.16876010630E+03 0.  0.
        -13    1    4    4    0    0 -0.35138439706E+00 -0.47889689760E+02 -0.50879337460E+02  0.69873199445E+02  0.10566000000E+00 0. -1.
     200003    1    4    4    0    0 -0.94482037956E+02 -0.62107989616E+02  0.10980665811E+03  0.16044238853E+03  0.30000000000E+02 0. -1.
     200000    1    3    3    0    0 -0.13877176352E+03 -0.77245965459E+02 -0.98380137331E+02  0.53376323679E+03  0.50000000000E+03 0.  1.
    -200001    1    1    2    0    0  0.23360518587E+03  0.18724364484E+03  0.11686385688E+04  0.13947572082E+04  0.70000000000E+03 0. -1.
<mgrwt>
<rscale>  0 0.18399762E+04</rscale>
<asrwt>0</asrwt>
<pdfrwt beam="1">  1        1 0.73546448E-01 0.18399762E+04</pdfrwt>
<pdfrwt beam="2">  1       -1 0.23485870E+00 0.18399762E+04</pdfrwt>
<totfact> 0.38991547E+00</totfact>
</mgrwt>
</event>
<event>
 8    1  0.3214020E-028  0.2183270E+04  0.7818608E-02  0.8525424E-01
         -1   -1    0    0    0  501 -0.00000000000E+00  0.00000000000E+00  0.16765151164E+04  0.16765151164E+04  0.50400000000E-02 0. -1.
          1   -1    0    0  501    0  0.00000000000E+00 -0.00000000000E+00 -0.71079998526E+03  0.71079998528E+03  0.50400000000E-02 0.  1.
     200001    2    1    2    0    0  0.49229067875E+03 -0.66724648848E+03  0.61351886352E+03  0.12464337758E+04  0.69973121471E+03 0.  0.
    5000001    2    3    3    0    0 -0.16874342758E+02 -0.11729899705E+03  0.10641877119E+03  0.21258573762E+03  0.14079752422E+03 0.  0.
        -13    1    4    4    0    0  0.11445995512E+00 -0.12330553740E+03  0.12273133847E+03  0.17397488686E+03  0.10566000000E+00 0. -1.
     200003    1    4    4    0    0 -0.16988802713E+02  0.60065403509E+01 -0.16312567278E+02  0.38610850752E+02  0.30000000000E+02 0. -1.
     200000    1    3    3    0    0  0.50916502151E+03 -0.54994749143E+03  0.50710009234E+03  0.10338480382E+04  0.50000000000E+03 0. -1.
    -200001    1    1    2    0    0 -0.49229067875E+03  0.66724648848E+03  0.35219626761E+03  0.11408813259E+04  0.70000000000E+03 0.  1.
<mgrwt>
<rscale>  0 0.21832700E+04</rscale>
<asrwt>0</asrwt>
<pdfrwt beam="1">  1        1 0.10154285E+00 0.21832700E+04</pdfrwt>
<pdfrwt beam="2">  1       -1 0.23950216E+00 0.21832700E+04</pdfrwt>
<totfact> 0.22308823E+00</totfact>
</mgrwt>
</event>
<event>
 8    1  0.3214020E-028  0.2830858E+04  0.7818608E-02  0.8293752E-01
          1   -1    0    0  501    0  0.00000000000E+00  0.00000000000E+00  0.15975294885E+04  0.15975294885E+04  0.50400000000E-02 0.  1.
         -1   -1    0    0    0  501 -0.00000000000E+00 -0.00000000000E+00 -0.12540855631E+04  0.12540855631E+04  0.50400000000E-02 0. -1.
     200001    2    1    2    0    0 -0.72208665905E+03 -0.98746047414E+03  0.73702118031E+02  0.14166070468E+04  0.71053232982E+03 0.  0.
    5000001    2    3    3    0    0 -0.18095050845E+03 -0.32385825077E+03  0.13652148165E+02  0.42322784267E+03  0.20324412061E+03 0.  0.
        -13    1    4    4    0    0 -0.10089897068E+02  0.27454707688E+02  0.11453819831E+02  0.31412865992E+02  0.10566000000E+00 0. -1.
     200003    1    4    4    0    0 -0.17086061138E+03 -0.35131295846E+03  0.21983283336E+01  0.39181497668E+03  0.30000000000E+02 0. -1.
     200000    1    3    3    0    0 -0.54113615061E+03 -0.66360222337E+03  0.60049969866E+02  0.99337920415E+03  0.50000000000E+03 0. -1.
    -200001    1    1    2    0    0  0.72208665905E+03  0.98746047414E+03  0.26974180741E+03  0.14350080048E+04  0.70000000000E+03 0. -1.
<mgrwt>
<rscale>  0 0.28308576E+04</rscale>
<asrwt>0</asrwt>
<pdfrwt beam="1">  1        1 0.22821850E+00 0.28308576E+04</pdfrwt>
<pdfrwt beam="2">  1       -1 0.17915508E+00 0.28308576E+04</pdfrwt>
<totfact> 0.12331939E+00</totfact>
</mgrwt>
</event>
<event>
 8    1  0.3214020E-028  0.1652140E+04  0.7818608E-02  0.8789141E-01
         -1   -1    0    0    0  501 -0.00000000000E+00  0.00000000000E+00  0.74247137314E+03  0.74247137316E+03  0.50400000000E-02 0.  1.
          1   -1    0    0  501    0  0.00000000000E+00 -0.00000000000E+00 -0.91908169771E+03  0.91908169772E+03  0.50400000000E-02 0. -1.
     200001    2    1    2    0    0  0.40254028488E+03  0.19048490331E+02 -0.26615921516E+03  0.84889045346E+03  0.69812086936E+03 0.  0.
    5000001    2    3    3    0    0  0.10641527281E+03  0.30625940941E+02 -0.51064190752E+02  0.22914056064E+03  0.19399919177E+03 0.  0.
        -13    1    4    4    0    0 -0.13710547502E+02 -0.40863087825E+02  0.40677463582E+02  0.59265827142E+02  0.10566000000E+00 0. -1.
     200003    1    4    4    0    0  0.12012582032E+03  0.71489028766E+02 -0.91741654333E+02  0.16987473350E+03  0.30000000000E+02 0. -1.
     200000    1    3    3    0    0  0.29612501207E+03 -0.11577450609E+02 -0.21509502441E+03  0.61974989283E+03  0.50000000000E+03 0.  1.
    -200001    1    1    2    0    0 -0.40254028488E+03 -0.19048490331E+02  0.89548890592E+02  0.81266261741E+03  0.70000000000E+03 0. -1.
<mgrwt>
<rscale>  0 0.16521402E+04</rscale>
<asrwt>0</asrwt>
<pdfrwt beam="1">  1        1 0.13129738E+00 0.16521402E+04</pdfrwt>
<pdfrwt beam="2">  1       -1 0.10606734E+00 0.16521402E+04</pdfrwt>
<totfact> 0.15859766E+01</totfact>
</mgrwt>
</event>
<event>
 8    1  0.3214020E-028  0.1680057E+04  0.7818608E-02  0.8772821E-01
         -1   -1    0    0    0  501 -0.00000000000E+00  0.00000000000E+00  0.76772607035E+03  0.76772607036E+03  0.50400000000E-02 0.  1.
          1   -1    0    0  501    0  0.00000000000E+00 -0.00000000000E+00 -0.91913984376E+03  0.91913984378E+03  0.50400000000E-02 0. -1.
     200001    2    1    2    0    0  0.45281511019E+03  0.78690938969E+02 -0.78851059107E+01  0.83725761246E+03  0.69978878731E+03 0.  0.
    5000001    2    3    3    0    0  0.14227747366E+03 -0.91168676149E+01 -0.80612556211E+02  0.23773020139E+03  0.17231154241E+03 0.  0.
        -13    1    4    4    0    0  0.77000342572E+02  0.73528639011E+02 -0.89145338903E+01  0.10684097336E+03  0.10566000000E+00 0. -1.
     200003    1    4    4    0    0  0.65277131089E+02 -0.82645506626E+02 -0.71698022321E+02  0.13088922803E+03  0.30000000000E+02 0. -1.
     200000    1    3    3    0    0  0.31053763652E+03  0.87807806584E+02  0.72727450300E+02  0.59952741107E+03  0.50000000000E+03 0.  1.
    -200001    1    1    2    0    0 -0.45281511019E+03 -0.78690938969E+02 -0.14352866751E+03  0.84960830168E+03  0.70000000000E+03 0. -1.
<mgrwt>
<rscale>  0 0.16800567E+04</rscale>
<asrwt>0</asrwt>
<pdfrwt beam="1">  1        1 0.13130569E+00 0.16800567E+04</pdfrwt>
<pdfrwt beam="2">  1       -1 0.10967515E+00 0.16800567E+04</pdfrwt>
<totfact> 0.14625307E+01</totfact>
</mgrwt>
</event>
<event>
 8    1  0.3214020E-028  0.2134274E+04  0.7818608E-02  0.8546294E-01
         -1   -1    0    0    0  501 -0.00000000000E+00  0.00000000000E+00  0.11435632467E+04  0.11435632467E+04  0.50400000000E-02 0. -1.
          1   -1    0    0  501    0  0.00000000000E+00 -0.00000000000E+00 -0.99581808591E+03  0.99581808593E+03  0.50400000000E-02 0.  1.
     200001    2    1    2    0    0  0.66839730319E+03  0.32106752414E+03  0.38978713911E+03  0.10913242592E+04  0.69943928612E+03 0.  0.
    5000001    2    3    3    0    0  0.89598505096E+02  0.55822849833E+02  0.48379857662E+02  0.21273350252E+03  0.17824379313E+03 0.  0.
        -13    1    4    4    0    0  0.18081380014E+02 -0.61061415213E+02  0.32697714643E+02  0.71586202846E+02  0.10566000000E+00 0. -1.
     200003    1    4    4    0    0  0.71517125082E+02  0.11688426505E+03  0.15682143019E+02  0.14114729967E+03  0.30000000000E+02 0. -1.
     200000    1    3    3    0    0  0.57879879810E+03  0.26524467431E+03  0.34140728145E+03  0.87859075670E+03  0.50000000000E+03 0.  1.
    -200001    1    1    2    0    0 -0.66839730319E+03 -0.32106752414E+03 -0.24204197829E+03  0.10480570735E+04  0.70000000000E+03 0.  1.
<mgrwt>
<rscale>  0 0.21342736E+04</rscale>
<asrwt>0</asrwt>
<pdfrwt beam="1">  1        1 0.14225973E+00 0.21342736E+04</pdfrwt>
<pdfrwt beam="2">  1       -1 0.16336618E+00 0.21342736E+04</pdfrwt>
<totfact> 0.44131194E+00</totfact>
</mgrwt>
</event>
<event>
 8    1  0.3214020E-028  0.1626175E+04  0.7818608E-02  0.8804627E-01
          1   -1    0    0  501    0  0.00000000000E+00  0.00000000000E+00  0.35991987813E+04  0.35991987813E+04  0.50400000000E-02 0. -1.
         -1   -1    0    0    0  501 -0.00000000000E+00 -0.00000000000E+00 -0.18368281011E+03  0.18368281018E+03  0.50400000000E-02 0.  1.
     200001    2    1    2    0    0  0.16393353751E+03 -0.18663534482E+03  0.93559530873E+03  0.11941148100E+04  0.69918855910E+03 0.  0.
    5000001    2    3    3    0    0  0.74261313623E+02 -0.71839940003E+02  0.27591887231E+03  0.35364345808E+03  0.19559333235E+03 0.  0.
        -13    1    4    4    0    0  0.29664822273E+02  0.66433827216E+02  0.95781387509E+02  0.12028108927E+03  0.10566000000E+00 0. -1.
     200003    1    4    4    0    0  0.44596491350E+02 -0.13827376722E+03  0.18013748481E+03  0.23336236880E+03  0.30000000000E+02 0. -1.
     200000    1    3    3    0    0  0.89672223884E+02 -0.11479540482E+03  0.65967643642E+03  0.84047135196E+03  0.50000000000E+03 0.  1.
    -200001    1    1    2    0    0 -0.16393353751E+03  0.18663534482E+03  0.24799206624E+04  0.25887667814E+04  0.70000000000E+03 0.  1.
<mgrwt>
<rscale>  0 0.16261746E+04</rscale>
<asrwt>0</asrwt>
<pdfrwt beam="1">  1        1 0.51417124E+00 0.16261746E+04</pdfrwt>
<pdfrwt beam="2">  1       -1 0.26240402E-01 0.16261746E+04</pdfrwt>
<totfact> 0.41285096E+00</totfact>
</mgrwt>
</event>
<event>
 8    1  0.3214020E-028  0.1561868E+04  0.7818608E-02  0.8844323E-01
          1   -1    0    0  501    0  0.00000000000E+00  0.00000000000E+00  0.67674255733E+03  0.67674255735E+03  0.50400000000E-02 0.  1.
         -1   -1    0    0    0  501 -0.00000000000E+00 -0.00000000000E+00 -0.90116669188E+03  0.90116669190E+03  0.50400000000E-02 0. -1.
     200001    2    1    2    0    0  0.11331762452E+03 -0.25217340192E+03 -0.32249172317E+03  0.81892996060E+03  0.70015216931E+03 0.  0.
    5000001    2    3    3    0    0 -0.14122201631E+02 -0.52720904557E+02 -0.12799886982E+03  0.23254299110E+03  0.18631586534E+03 0.  0.
        -13    1    4    4    0    0  0.25684121310E+02 -0.53704191968E+02 -0.16173737210E+03  0.17234501159E+03  0.10566000000E+00 0. -1.
     200003    1    4    4    0    0 -0.39806322942E+02  0.98328741088E+00  0.33738502283E+02  0.60197979506E+02  0.30000000000E+02 0. -1.
     200000    1    3    3    0    0  0.12743982615E+03 -0.19945249737E+03 -0.19449285336E+03  0.58638696950E+03  0.50000000000E+03 0. -1.
    -200001    1    1    2    0    0 -0.11331762452E+03  0.25217340192E+03  0.98067588623E+02  0.75897928865E+03  0.70000000000E+03 0.  1.
<mgrwt>
<rscale>  0 0.15618679E+04</rscale>
<asrwt>0</asrwt>
<pdfrwt beam="1">  1        1 0.96677508E-01 0.15618679E+04</pdfrwt>
<pdfrwt beam="2">  1       -1 0.12873810E+00 0.15618679E+04</pdfrwt>
<totfact> 0.16066015E+01</totfact>
</mgrwt>
</event>
<event>
 8    1  0.3214020E-028  0.1431064E+04  0.7818608E-02  0.8931635E-01
         -1   -1    0    0    0  501 -0.00000000000E+00  0.00000000000E+00  0.34422778305E+03  0.34422778309E+03  0.50400000000E-02 0. -1.
          1   -1    0    0  501    0  0.00000000000E+00 -0.00000000000E+00 -0.14873462516E+04  0.14873462516E+04  0.50400000000E-02 0.  1.
     200001    2    1    2    0    0  0.14192470545E+03  0.49375602584E+02 -0.55646649990E+03  0.90597093159E+03  0.69896193833E+03 0.  0.
    5000001    2    3    3    0    0  0.22342449632E+02 -0.33445182279E+02 -0.77774595470E+02  0.19864841839E+03  0.17831023851E+03 0.  0.
        -13    1    4    4    0    0 -0.94806443725E+01  0.59592790190E+02 -0.74392164919E+02  0.95788248892E+02  0.10566000000E+00 0. -1.
     200003    1    4    4    0    0  0.31823094004E+02 -0.93037972469E+02 -0.33824305506E+01  0.10286016950E+03  0.30000000000E+02 0. -1.
     200000    1    3    3    0    0  0.11958225581E+03  0.82820784862E+02 -0.47869190443E+03  0.70732251320E+03  0.50000000000E+03 0. -1.
    -200001    1    1    2    0    0 -0.14192470545E+03 -0.49375602584E+02 -0.58665196862E+03  0.92560310308E+03  0.70000000000E+03 0. -1.
<mgrwt>
<rscale>  0 0.14310638E+04</rscale>
<asrwt>0</asrwt>
<pdfrwt beam="1">  1        1 0.21247803E+00 0.14310638E+04</pdfrwt>
<pdfrwt beam="2">  1       -1 0.49175398E-01 0.14310638E+04</pdfrwt>
<totfact> 0.31969022E+01</totfact>
</mgrwt>
</event>
<event>
 8    1  0.3214020E-028  0.1859654E+04  0.7818608E-02  0.8675204E-01
         -1   -1    0    0    0  501 -0.00000000000E+00  0.00000000000E+00  0.30670246472E+03  0.30670246476E+03  0.50400000000E-02 0.  1.
          1   -1    0    0  501    0  0.00000000000E+00 -0.00000000000E+00 -0.28189470003E+04  0.28189470003E+04  0.50400000000E-02 0. -1.
     200001    2    1    2    0    0 -0.34136616853E+03  0.35788153662E+03 -0.65189784590E+03  0.10773575276E+04  0.70079839149E+03 0.  0.
    5000001    2    3    3    0    0 -0.18515881717E+02  0.59250989716E+02 -0.21176430300E+03  0.27915326375E+03  0.17096463664E+03 0.  0.
        -13    1    4    4    0    0  0.22209807116E+02  0.10412766332E+03 -0.88036853435E+02  0.13815333701E+03  0.10566000000E+00 0. -1.
     200003    1    4    4    0    0 -0.40725688833E+02 -0.44876673605E+02 -0.12372744956E+03  0.14099992674E+03  0.30000000000E+02 0. -1.
     200000    1    3    3    0    0 -0.32285028682E+03  0.29863054691E+03 -0.44013354290E+03  0.79820426385E+03  0.50000000000E+03 0.  1.
    -200001    1    1    2    0    0  0.34136616853E+03 -0.35788153662E+03 -0.18603466897E+04  0.20482919375E+04  0.70000000000E+03 0. -1.
<mgrwt>
<rscale>  0 0.18596537E+04</rscale>
<asrwt>0</asrwt>
<pdfrwt beam="1">  1        1 0.40270670E+00 0.18596537E+04</pdfrwt>
<pdfrwt beam="2">  1       -1 0.43814639E-01 0.18596537E+04</pdfrwt>
<totfact> 0.54405864E+00</totfact>
</mgrwt>
</event>
<event>
 8    1  0.3214020E-028  0.1536990E+04  0.7818608E-02  0.8860221E-01
          1   -1    0    0  501    0  0.00000000000E+00  0.00000000000E+00  0.15390484312E+04  0.15390484313E+04  0.50400000000E-02 0.  1.
         -1   -1    0    0    0  501 -0.00000000000E+00 -0.00000000000E+00 -0.38373336270E+03  0.38373336273E+03  0.50400000000E-02 0. -1.
     200001    2    1    2    0    0  0.36305668071E+02  0.63418304631E+02  0.18830873945E+03  0.72677124912E+03  0.69813772588E+03 0.  0.
    5000001    2    3    3    0    0 -0.53432309790E+02  0.37270087855E+02  0.57816565739E+02  0.20163808381E+03  0.18185458584E+03 0.  0.
        -13    1    4    4    0    0 -0.90267155884E+02 -0.42566843873E+02  0.22919915475E+02  0.10239838533E+03  0.10566000000E+00 0. -1.
     200003    1    4    4    0    0  0.36834846094E+02  0.79836931728E+02  0.34896650264E+02  0.99239698479E+02  0.30000000000E+02 0. -1.
     200000    1    3    3    0    0  0.89737977860E+02  0.26148216775E+02  0.13049217371E+03  0.52513316531E+03  0.50000000000E+03 0. -1.
    -200001    1    1    2    0    0 -0.36305668071E+02 -0.63418304631E+02  0.96700632910E+03  0.11960105449E+04  0.70000000000E+03 0.  1.
<mgrwt>
<rscale>  0 0.15369896E+04</rscale>
<asrwt>0</asrwt>
<pdfrwt beam="1">  1        1 0.21986406E+00 0.15369896E+04</pdfrwt>
<pdfrwt beam="2">  1       -1 0.54819051E-01 0.15369896E+04</pdfrwt>
<totfact> 0.23817653E+01</totfact>
</mgrwt>
</event>
<event>
 8    1  0.3214020E-028  0.1634144E+04  0.7818608E-02  0.8799842E-01
          1   -1    0    0  501    0  0.00000000000E+00  0.00000000000E+00  0.59409705223E+03  0.59409705225E+03  0.50400000000E-02 0.  1.
         -1   -1    0    0    0  501 -0.00000000000E+00 -0.00000000000E+00 -0.11237334527E+04  0.11237334527E+04  0.50400000000E-02 0. -1.
     200001    2    1    2    0    0  0.20126241528E+03  0.15324155709E+03  0.89118206295E+02  0.74992203924E+03  0.70032240834E+03 0.  0.
    5000001    2    3    3    0    0  0.38775126481E+02 -0.63239653275E+02  0.30621720721E+02  0.17835570688E+03  0.15928058330E+03 0.  0.
        -13    1    4    4    0    0  0.46064575262E+02 -0.10460741276E+03  0.47886963433E+02  0.12392670547E+03  0.10566000000E+00 0. -1.
     200003    1    4    4    0    0 -0.72894487808E+01  0.41367759483E+02 -0.17265242713E+02  0.54429001407E+02  0.30000000000E+02 0. -1.
     200000    1    3    3    0    0  0.16248728880E+03  0.21648121037E+03  0.58496485574E+02  0.57156633236E+03  0.50000000000E+03 0.  1.
    -200001    1    1    2    0    0 -0.20126241528E+03 -0.15324155709E+03 -0.61875460679E+03  0.96790846574E+03  0.70000000000E+03 0. -1.
<mgrwt>
<rscale>  0 0.16341441E+04</rscale>
<asrwt>0</asrwt>
<pdfrwt beam="1">  1        1 0.84871008E-01 0.16341441E+04</pdfrwt>
<pdfrwt beam="2">  1       -1 0.16053335E+00 0.16341441E+04</pdfrwt>
<totfact> 0.10732088E+01</totfact>
</mgrwt>
</event>
<event>
 8    1  0.3214020E-028  0.2767853E+04  0.7818608E-02  0.8313319E-01
         -1   -1    0    0    0  501 -0.00000000000E+00  0.00000000000E+00  0.10200581061E+04  0.10200581062E+04  0.50400000000E-02 0. -1.
          1   -1    0    0  501    0  0.00000000000E+00 -0.00000000000E+00 -0.18775920439E+04  0.18775920439E+04  0.50400000000E-02 0.  1.
     200001    2    1    2    0    0 -0.36149632156E+03 -0.10372275007E+04  0.61110060011E+02  0.13037783631E+04  0.69970215239E+03 0.  0.
    5000001    2    3    3    0    0 -0.14141325991E+03 -0.44478644668E+03  0.76256114608E+02  0.49776821464E+03  0.15532387861E+03 0.  0.
        -13    1    4    4    0    0 -0.72083951806E+02 -0.28641841041E+03  0.11692849810E+03  0.31765372147E+03  0.10566000000E+00 0. -1.
     200003    1    4    4    0    0 -0.69329308102E+02 -0.15836803626E+03 -0.40672383489E+02  0.18011449317E+03  0.30000000000E+02 0. -1.
     200000    1    3    3    0    0 -0.22008306165E+03 -0.59244105398E+03 -0.15146054597E+02  0.80601014847E+03  0.50000000000E+03 0.  1.
    -200001    1    1    2    0    0  0.36149632156E+03  0.10372275007E+04 -0.91864399774E+03  0.15938717869E+04  0.70000000000E+03 0.  1.
<mgrwt>
<rscale>  0 0.27678533E+04</rscale>
<asrwt>0</asrwt>
<pdfrwt beam="1">  1        1 0.26822743E+00 0.27678533E+04</pdfrwt>
<pdfrwt beam="2">  1       -1 0.14572259E+00 0.27678533E+04</pdfrwt>
<totfact> 0.14672365E+00</totfact>
</mgrwt>
</event>
<event>
 8    1  0.3214020E-028  0.1523172E+04  0.7818608E-02  0.8869188E-01
          1   -1    0    0  501    0  0.00000000000E+00  0.00000000000E+00  0.95586510582E+03  0.95586510583E+03  0.50400000000E-02 0.  1.
         -1   -1    0    0    0  501 -0.00000000000E+00 -0.00000000000E+00 -0.60679415615E+03  0.60679415617E+03  0.50400000000E-02 0. -1.
     200001    2    1    2    0    0  0.33597039365E+02 -0.18071907195E+03 -0.70928660671E+02  0.72588700104E+03  0.69863647153E+03 0.  0.
    5000001    2    3    3    0    0  0.23075230829E+02 -0.34996750778E+02 -0.71440720652E+02  0.20497821291E+03  0.18749680627E+03 0.  0.
        -13    1    4    4    0    0  0.45621260063E+01 -0.74744047151E+02 -0.11434929670E+03  0.13668671624E+03  0.10566000000E+00 0. -1.
     200003    1    4    4    0    0  0.18513104822E+02  0.39747296373E+02  0.42908576047E+02  0.68291496670E+02  0.30000000000E+02 0. -1.
     200000    1    3    3    0    0  0.10521808537E+02 -0.14572232117E+03  0.51205998109E+00  0.52090878813E+03  0.50000000000E+03 0.  1.
    -200001    1    1    2    0    0 -0.33597039365E+02  0.18071907195E+03  0.41999961034E+03  0.83677226096E+03  0.70000000000E+03 0.  1.
<mgrwt>
<rscale>  0 0.15231722E+04</rscale>
<asrwt>0</asrwt>
<pdfrwt beam="1">  1        1 0.13655216E+00 0.15231722E+04</pdfrwt>
<pdfrwt beam="2">  1       -1 0.86684880E-01 0.15231722E+04</pdfrwt>
<totfact> 0.23665971E+01</totfact>
</mgrwt>
</event>
<event>
 8    1  0.3214020E-028  0.1588221E+04  0.7818608E-02  0.8827817E-01
         -1   -1    0    0    0  501 -0.00000000000E+00  0.00000000000E+00  0.82145011514E+03  0.82145011516E+03  0.50400000000E-02 0. -1.
          1   -1    0    0  501    0  0.00000000000E+00 -0.00000000000E+00 -0.76768081773E+03  0.76768081774E+03  0.50400000000E-02 0.  1.
     200001    2    1    2    0    0 -0.23544237464E+03 -0.28822817790E+03 -0.14960865963E+02  0.79337190551E+03  0.70050450293E+03 0.  0.
    5000001    2    3    3    0    0 -0.45781414290E+02 -0.15394079446E+03  0.19542872130E+02  0.24092743846E+03  0.17852282951E+03 0.  0.
        -13    1    4    4    0    0 -0.77994256123E+02 -0.33464095531E+01  0.30120563804E+02  0.83675336707E+02  0.10566000000E+00 0. -1.
     200003    1    4    4    0    0  0.32212841833E+02 -0.15059438490E+03 -0.10577691674E+02  0.15725210175E+03  0.30000000000E+02 0. -1.
     200000    1    3    3    0    0 -0.18966096035E+03 -0.13428738345E+03 -0.34503738092E+02  0.55244446705E+03  0.50000000000E+03 0.  1.
    -200001    1    1    2    0    0  0.23544237464E+03  0.28822817790E+03  0.68730163378E+02  0.79575902739E+03  0.70000000000E+03 0.  1.
<mgrwt>
<rscale>  0 0.15882210E+04</rscale>
<asrwt>0</asrwt>
<pdfrwt beam="1">  1        1 0.10966869E+00 0.15882210E+04</pdfrwt>
<pdfrwt beam="2">  1       -1 0.11735002E+00 0.15882210E+04</pdfrwt>
<totfact> 0.16691271E+01</totfact>
</mgrwt>
</event>
<event>
 8    1  0.3214020E-028  0.1760722E+04  0.7818608E-02  0.8727471E-01
         -1   -1    0    0    0  501 -0.00000000000E+00  0.00000000000E+00  0.22011233588E+04  0.22011233588E+04  0.50400000000E-02 0. -1.
          1   -1    0    0  501    0  0.00000000000E+00 -0.00000000000E+00 -0.35210891769E+03  0.35210891772E+03  0.50400000000E-02 0.  1.
     200001    2    1    2    0    0  0.18983644624E+03  0.23720209552E+03  0.28812953581E+03  0.81580187561E+03  0.70015095544E+03 0.  0.
    5000001    2    3    3    0    0  0.98684425347E+01  0.57987943497E+02  0.73739460914E+02  0.21541092060E+03  0.19366044736E+03 0.  0.
        -13    1    4    4    0    0 -0.21329588619E+02 -0.52642846927E+02 -0.23914786982E+02  0.61629123664E+02  0.10566000000E+00 0. -1.
     200003    1    4    4    0    0  0.31198031154E+02  0.11063079042E+03  0.97654247896E+02  0.15378179694E+03  0.30000000000E+02 0. -1.
     200000    1    3    3    0    0  0.17996800370E+03  0.17921415202E+03  0.21439007489E+03  0.60039095501E+03  0.50000000000E+03 0.  1.
    -200001    1    1    2    0    0 -0.18983644624E+03 -0.23720209552E+03  0.15608849053E+04  0.17374304009E+04  0.70000000000E+03 0. -1.
<mgrwt>
<rscale>  0 0.17607216E+04</rscale>
<asrwt>0</asrwt>
<pdfrwt beam="1">  1        1 0.50301273E-01 0.17607216E+04</pdfrwt>
<pdfrwt beam="2">  1       -1 0.31444620E+00 0.17607216E+04</pdfrwt>
<totfact> 0.19812655E+00</totfact>
</mgrwt>
</event>
<event>
 8    1  0.3214020E-028  0.1816150E+04  0.7818608E-02  0.8697758E-01
         -1   -1    0    0    0  501 -0.00000000000E+00  0.00000000000E+00  0.58257641106E+03  0.58257641109E+03  0.50400000000E-02 0. -1.
          1   -1    0    0  501    0  0.00000000000E+00 -0.00000000000E+00 -0.14154376368E+04  0.14154376368E+04  0.50400000000E-02 0.  1.
     200001    2    1    2    0    0  0.25410312117E+02  0.19772167124E+03 -0.10125949018E+04  0.12483182845E+04  0.70228951366E+03 0.  0.
    5000001    2    3    3    0    0 -0.31523229930E+02  0.71356919067E+02 -0.19734538876E+03  0.28196366671E+03  0.18566847592E+03 0.  0.
        -13    1    4    4    0    0 -0.59036527900E+02  0.12250313140E+03 -0.13579173177E+03  0.19217631074E+03  0.10566000000E+00 0. -1.
     200003    1    4    4    0    0  0.27513297970E+02 -0.51146212334E+02 -0.61553656994E+02  0.89787355962E+02  0.30000000000E+02 0. -1.
     200000    1    3    3    0    0  0.56933542047E+02  0.12636475217E+03 -0.81524951308E+03  0.96635461782E+03  0.50000000000E+03 0.  1.
    -200001    1    1    2    0    0 -0.25410312117E+02 -0.19772167124E+03  0.17973367614E+03  0.74969576334E+03  0.70000000000E+03 0. -1.
<mgrwt>
<rscale>  0 0.18161504E+04</rscale>
<asrwt>0</asrwt>
<pdfrwt beam="1">  1        1 0.20220538E+00 0.18161504E+04</pdfrwt>
<pdfrwt beam="2">  1       -1 0.83225202E-01 0.18161504E+04</pdfrwt>
<totfact> 0.11973414E+01</totfact>
</mgrwt>
</event>
<event>
 8    1  0.3214020E-028  0.1612097E+04  0.7818608E-02  0.8813151E-01
          1   -1    0    0  501    0  0.00000000000E+00  0.00000000000E+00  0.40904075925E+03  0.40904075928E+03  0.50400000000E-02 0.  1.
         -1   -1    0    0    0  501 -0.00000000000E+00 -0.00000000000E+00 -0.15883845961E+04  0.15883845961E+04  0.50400000000E-02 0. -1.
     200001    2    1    2    0    0  0.34227806729E+03 -0.13518934891E+03 -0.42743020495E+03  0.90618544354E+03  0.70925668314E+03 0.  0.
    5000001    2    3    3    0    0  0.25746509126E+02  0.34884020461E+02 -0.18640375774E+03  0.24496617088E+03  0.15291267561E+03 0.  0.
        -13    1    4    4    0    0  0.69113852434E+02  0.46413862255E+02 -0.47287619789E+02  0.95744980846E+02  0.10566000000E+00 0. -1.
     200003    1    4    4    0    0 -0.43367343308E+02 -0.11529841794E+02 -0.13911613795E+03  0.14922119004E+03  0.30000000000E+02 0. -1.
     200000    1    3    3    0    0  0.31653155816E+03 -0.17007336937E+03 -0.24102644721E+03  0.66121927266E+03  0.50000000000E+03 0.  1.
    -200001    1    1    2    0    0 -0.34227806729E+03  0.13518934891E+03 -0.75191363194E+03  0.10912399119E+04  0.70000000000E+03 0. -1.
<mgrwt>
<rscale>  0 0.16120968E+04</rscale>
<asrwt>0</asrwt>
<pdfrwt beam="1">  1        1 0.58434395E-01 0.16120968E+04</pdfrwt>
<pdfrwt beam="2">  1       -1 0.22691208E+00 0.16120968E+04</pdfrwt>
<totfact> 0.61113198E+00</totfact>
</mgrwt>
</event>
<event>
 8    1  0.3214020E-028  0.1688422E+04  0.7818608E-02  0.8767995E-01
          1   -1    0    0  501    0  0.00000000000E+00  0.00000000000E+00  0.73738883778E+03  0.73738883780E+03  0.50400000000E-02 0.  1.
         -1   -1    0    0    0  501 -0.00000000000E+00 -0.00000000000E+00 -0.96650854163E+03  0.96650854164E+03  0.50400000000E-02 0. -1.
     200001    2    1    2    0    0 -0.37298967696E+02 -0.44251936938E+03  0.42875020824E+02  0.83143205891E+03  0.70158848046E+03 0.  0.
    5000001    2    3    3    0    0  0.34819922242E+02 -0.96624171090E+02  0.91226927187E+02  0.21728018085E+03  0.16834389600E+03 0.  0.
        -13    1    4    4    0    0 -0.16571500619E+02  0.60515527209E+01 -0.37959667751E+02  0.41859090565E+02  0.10566000000E+00 0. -1.
     200003    1    4    4    0    0  0.51391422861E+02 -0.10267572381E+03  0.12918659494E+03  0.17542109028E+03  0.30000000000E+02 0. -1.
     200000    1    3    3    0    0 -0.72118889938E+02 -0.34589519829E+03 -0.48351906363E+02  0.61415187807E+03  0.50000000000E+03 0. -1.
    -200001    1    1    2    0    0  0.37298967696E+02  0.44251936938E+03 -0.27199472468E+03  0.87246532053E+03  0.70000000000E+03 0.  1.
<mgrwt>
<rscale>  0 0.16884225E+04</rscale>
<asrwt>0</asrwt>
<pdfrwt beam="1">  1        1 0.10534126E+00 0.16884225E+04</pdfrwt>
<pdfrwt beam="2">  1       -1 0.13807265E+00 0.16884225E+04</pdfrwt>
<totfact> 0.11703450E+01</totfact>
</mgrwt>
</event>
<event>
 8    1  0.3214020E-028  0.3133860E+04  0.7818608E-02  0.8206506E-01
         -1   -1    0    0    0  501 -0.00000000000E+00  0.00000000000E+00  0.26315375370E+04  0.26315375370E+04  0.50400000000E-02 0. -1.
          1   -1    0    0  501    0  0.00000000000E+00 -0.00000000000E+00 -0.93301728916E+03  0.93301728917E+03  0.50400000000E-02 0.  1.
     200001    2    1    2    0    0 -0.98127331875E+02 -0.65395345014E+03  0.22553420186E+04  0.24521994097E+04  0.69959290724E+03 0.  0.
    5000001    2    3    3    0    0 -0.64721112320E+02 -0.28374427122E+03  0.67448343558E+03  0.75299822351E+03  0.16546536162E+03 0.  0.
        -13    1    4    4    0    0 -0.37698982914E+02 -0.51703352179E+01  0.26080413218E+02  0.46131819785E+02  0.10566000000E+00 0. -1.
     200003    1    4    4    0    0 -0.27022129406E+02 -0.27857393601E+03  0.64840302237E+03  0.70686640372E+03  0.30000000000E+02 0. -1.
     200000    1    3    3    0    0 -0.33406219554E+02 -0.37020917891E+03  0.15808585830E+04  0.16992011862E+04  0.50000000000E+03 0. -1.
    -200001    1    1    2    0    0  0.98127331875E+02  0.65395345014E+03 -0.55682177074E+03  0.11123554165E+04  0.70000000000E+03 0.  1.
<mgrwt>
<rscale>  0 0.31338603E+04</rscale>
<asrwt>0</asrwt>
<pdfrwt beam="1">  1        1 0.13328818E+00 0.31338603E+04</pdfrwt>
<pdfrwt beam="2">  1       -1 0.37593394E+00 0.31338603E+04</pdfrwt>
<totfact> 0.17133395E-01</totfact>
</mgrwt>
</event>
<event>
 8    1  0.3214020E-028  0.1485745E+04  0.7818608E-02  0.8893988E-01
          1   -1    0    0  501    0  0.00000000000E+00  0.00000000000E+00  0.42854030054E+03  0.42854030057E+03  0.50400000000E-02 0. -1.
         -1   -1    0    0    0  501 -0.00000000000E+00 -0.00000000000E+00 -0.12877666715E+04  0.12877666715E+04  0.50400000000E-02 0.  1.
     200001    2    1    2    0    0  0.24550926713E+03 -0.37057134439E+02 -0.41223486229E+03  0.84944513748E+03  0.69997959145E+03 0.  0.
    5000001    2    3    3    0    0  0.10269563075E+03 -0.14383817995E+02 -0.19379886455E+03  0.28497715866E+03  0.18138548525E+03 0.  0.
        -13    1    4    4    0    0  0.19570229845E+02  0.18516025114E+02 -0.18862217698E+03  0.19053654215E+03  0.10566000000E+00 0. -1.
     200003    1    4    4    0    0  0.83125400904E+02 -0.32899843108E+02 -0.51766875697E+01  0.94440616507E+02  0.30000000000E+02 0. -1.
     200000    1    3    3    0    0  0.14281363638E+03 -0.22673316444E+02 -0.21843599774E+03  0.56446797883E+03  0.50000000000E+03 0. -1.
    -200001    1    1    2    0    0 -0.24550926713E+03  0.37057134439E+02 -0.44699150866E+03  0.86686183459E+03  0.70000000000E+03 0. -1.
<mgrwt>
<rscale>  0 0.14857455E+04</rscale>
<asrwt>0</asrwt>
<pdfrwt beam="1">  1        1 0.61220044E-01 0.14857455E+04</pdfrwt>
<pdfrwt beam="2">  1       -1 0.18396667E+00 0.14857455E+04</pdfrwt>
<totfact> 0.11427248E+01</totfact>
</mgrwt>
</event>
<event>
 8    1  0.3214020E-028  0.1456161E+04  0.7818608E-02  0.8914141E-01
          1   -1    0    0  501    0  0.00000000000E+00  0.00000000000E+00  0.25040659281E+04  0.25040659281E+04  0.50400000000E-02 0.  1.
         -1   -1    0    0    0  501 -0.00000000000E+00 -0.00000000000E+00 -0.21169608045E+03  0.21169608051E+03  0.50400000000E-02 0. -1.
     200001    2    1    2    0    0  0.84676663015E+02  0.56748549987E+01  0.14852721737E+04  0.16440302341E+04  0.69971396965E+03 0.  0.
    5000001    2    3    3    0    0  0.76707754763E+02  0.38769612460E+01  0.14045740470E+03  0.20925028618E+03  0.13475269668E+03 0.  0.
        -13    1    4    4    0    0  0.28024597995E+02 -0.40902319362E+02  0.12571366411E+03  0.13513813056E+03  0.10566000000E+00 0. -1.
     200003    1    4    4    0    0  0.48683156767E+02  0.44779280608E+02  0.14743740583E+02  0.74112155622E+02  0.30000000000E+02 0. -1.
     200000    1    3    3    0    0  0.79689082519E+01  0.17978937527E+01  0.13448147690E+04  0.14347799479E+04  0.50000000000E+03 0.  1.
    -200001    1    1    2    0    0 -0.84676663015E+02 -0.56748549987E+01  0.80709767388E+03  0.10717317745E+04  0.70000000000E+03 0. -1.
<mgrwt>
<rscale>  0 0.14561606E+04</rscale>
<asrwt>0</asrwt>
<pdfrwt beam="1">  1        1 0.35772370E+00 0.14561606E+04</pdfrwt>
<pdfrwt beam="2">  1       -1 0.30242297E-01 0.14561606E+04</pdfrwt>
<totfact> 0.17520671E+01</totfact>
</mgrwt>
</event>
<event>
 8    1  0.3214020E-028  0.2170262E+04  0.7818608E-02  0.8530909E-01
         -1   -1    0    0    0  501 -0.00000000000E+00  0.00000000000E+00  0.55910269635E+03  0.55910269637E+03  0.50400000000E-02 0. -1.
          1   -1    0    0  501    0  0.00000000000E+00 -0.00000000000E+00 -0.21060693372E+04  0.21060693372E+04  0.50400000000E-02 0.  1.
     200001    2    1    2    0    0 -0.86760945870E+02 -0.43718264954E+03 -0.16323541778E+04  0.18309375568E+04  0.69935401926E+03 0.  0.
    5000001    2    3    3    0    0 -0.23092238605E+02 -0.16832855460E+03 -0.61308044210E+03  0.66249621168E+03  0.18484006121E+03 0.  0.
        -13    1    4    4    0    0  0.18043450488E+02  0.26341340025E+02 -0.20535250575E+03  0.20781986210E+03  0.10566000000E+00 0. -1.
     200003    1    4    4    0    0 -0.41135689093E+02 -0.19466989463E+03 -0.40772793635E+03  0.45467634958E+03  0.30000000000E+02 0. -1.
     200000    1    3    3    0    0 -0.63668707264E+02 -0.26885409493E+03 -0.10192737357E+04  0.11684413451E+04  0.50000000000E+03 0. -1.
    -200001    1    1    2    0    0  0.86760945870E+02  0.43718264954E+03  0.85387536958E+02  0.83423447678E+03  0.70000000000E+03 0. -1.
<mgrwt>
<rscale>  0 0.21702618E+04</rscale>
<asrwt>0</asrwt>
<pdfrwt beam="1">  1        1 0.30086704E+00 0.21702618E+04</pdfrwt>
<pdfrwt beam="2">  1       -1 0.79871815E-01 0.21702618E+04</pdfrwt>
<totfact> 0.45893983E+00</totfact>
</mgrwt>
</event>
<event>
 8    1  0.3214020E-028  0.1614621E+04  0.7818608E-02  0.8811616E-01
          1   -1    0    0  501    0  0.00000000000E+00  0.00000000000E+00  0.33354392477E+04  0.33354392477E+04  0.50400000000E-02 0. -1.
         -1   -1    0    0    0  501 -0.00000000000E+00 -0.00000000000E+00 -0.19540160177E+03  0.19540160183E+03  0.50400000000E-02 0.  1.
     200001    2    1    2    0    0  0.15294217447E+03 -0.10214163130E+03  0.78981662363E+03  0.10717021639E+04  0.70065041750E+03 0.  0.
    5000001    2    3    3    0    0 -0.43006523396E+02  0.93012169989E+02  0.48383106829E+02  0.13564417520E+03  0.74549261684E+02 0.  0.
        -13    1    4    4    0    0  0.11929828395E+02  0.11101326903E+02  0.25151850793E+02  0.29969768550E+02  0.10566000000E+00 0. -1.
     200003    1    4    4    0    0 -0.54936351791E+02  0.81910843085E+02  0.23231256036E+02  0.10567440665E+03  0.30000000000E+02 0. -1.
     200000    1    3    3    0    0  0.19594869787E+03 -0.19515380129E+03  0.74143351680E+03  0.93605798869E+03  0.50000000000E+03 0. -1.
    -200001    1    1    2    0    0 -0.15294217447E+03  0.10214163130E+03  0.23502210223E+04  0.24591386856E+04  0.70000000000E+03 0. -1.
<mgrwt>
<rscale>  0 0.16146209E+04</rscale>
<asrwt>0</asrwt>
<pdfrwt beam="1">  1        1 0.47649128E+00 0.16146209E+04</pdfrwt>
<pdfrwt beam="2">  1       -1 0.27914517E-01 0.16146209E+04</pdfrwt>
<totfact> 0.56649131E+00</totfact>
</mgrwt>
</event>
<event>
 8    1  0.3214020E-028  0.1930555E+04  0.7818608E-02  0.8639795E-01
         -1   -1    0    0    0  501 -0.00000000000E+00  0.00000000000E+00  0.63679155347E+03  0.63679155349E+03  0.50400000000E-02 0. -1.
          1   -1    0    0  501    0  0.00000000000E+00 -0.00000000000E+00 -0.14632115458E+04  0.14632115458E+04  0.50400000000E-02 0.  1.
     200001    2    1    2    0    0 -0.47813394808E+03  0.30799886207E+03 -0.42427986634E+02  0.90496383790E+03  0.70262653131E+03 0.  0.
    5000001    2    3    3    0    0 -0.19405863248E+03  0.76452772336E+02  0.19834826279E+02  0.28191565799E+03  0.18862459715E+03 0.  0.
        -13    1    4    4    0    0 -0.15433291428E+03  0.12944553306E+03 -0.13597118303E+02  0.20189028518E+03  0.10566000000E+00 0. -1.
     200003    1    4    4    0    0 -0.39725718196E+02 -0.52992760724E+02  0.33431944583E+02  0.80025372814E+02  0.30000000000E+02 0. -1.
     200000    1    3    3    0    0 -0.28407531561E+03  0.23154608974E+03 -0.62262812913E+02  0.62304817990E+03  0.50000000000E+03 0. -1.
    -200001    1    1    2    0    0  0.47813394808E+03 -0.30799886207E+03 -0.78399200573E+03  0.11950392614E+04  0.70000000000E+03 0.  1.
<mgrwt>
<rscale>  0 0.19305551E+04</rscale>
<asrwt>0</asrwt>
<pdfrwt beam="1">  1        1 0.20903022E+00 0.19305551E+04</pdfrwt>
<pdfrwt beam="2">  1       -1 0.90970223E-01 0.19305551E+04</pdfrwt>
<totfact> 0.90807236E+00</totfact>
</mgrwt>
</event>
<event>
 8    1  0.3214020E-028  0.1726078E+04  0.7818608E-02  0.8746629E-01
          1   -1    0    0  501    0  0.00000000000E+00  0.00000000000E+00  0.14969059159E+04  0.14969059159E+04  0.50400000000E-02 0.  1.
         -1   -1    0    0    0  501 -0.00000000000E+00 -0.00000000000E+00 -0.49758388626E+03  0.49758388628E+03  0.50400000000E-02 0. -1.
     200001    2    1    2    0    0  0.36227057299E+03  0.26716367167E+03  0.23634215919E+03  0.86543945866E+03  0.70036522250E+03 0.  0.
    5000001    2    3    3    0    0  0.14819436079E+03  0.14342760093E+03  0.11121328960E+03  0.29377830567E+03  0.17721244827E+03 0.  0.
        -13    1    4    4    0    0 -0.30309995293E+02  0.70528242074E+02  0.30133528865E+02  0.82467990582E+02  0.10566000000E+00 0. -1.
     200003    1    4    4    0    0  0.17850435608E+03  0.72899358857E+02  0.81079760736E+02  0.21131031509E+03  0.30000000000E+02 0. -1.
     200000    1    3    3    0    0  0.21407621220E+03  0.12373607074E+03  0.12512886959E+03  0.57166115299E+03  0.50000000000E+03 0. -1.
    -200001    1    1    2    0    0 -0.36227057299E+03 -0.26716367167E+03  0.76297987047E+03  0.11290503435E+04  0.70000000000E+03 0.  1.
<mgrwt>
<rscale>  0 0.17260779E+04</rscale>
<asrwt>0</asrwt>
<pdfrwt beam="1">  1        1 0.21384370E+00 0.17260779E+04</pdfrwt>
<pdfrwt beam="2">  1       -1 0.71083413E-01 0.17260779E+04</pdfrwt>
<totfact> 0.14865941E+01</totfact>
</mgrwt>
</event>
<event>
 8    1  0.3214020E-028  0.2907377E+04  0.7818608E-02  0.8270686E-01
         -1   -1    0    0    0  501 -0.00000000000E+00  0.00000000000E+00  0.78004181408E+03  0.78004181409E+03  0.50400000000E-02 0. -1.
          1   -1    0    0  501    0  0.00000000000E+00 -0.00000000000E+00 -0.27090986333E+04  0.27090986333E+04  0.50400000000E-02 0.  1.
     200001    2    1    2    0    0  0.10379070003E+04  0.90513929472E+02 -0.82429245217E+02  0.12563222484E+04  0.69721395464E+03 0.  0.
    5000001    2    3    3    0    0  0.22762166795E+03  0.43520032674E+02  0.99072312763E+02  0.28590297726E+03  0.13497989586E+03 0.  0.
        -13    1    4    4    0    0  0.86606256795E+02  0.85812566409E+01  0.10629997688E+03  0.13738259690E+03  0.10566000000E+00 0. -1.
     200003    1    4    4    0    0  0.14101541116E+03  0.34938776034E+02 -0.72276641217E+01  0.14852038036E+03  0.30000000000E+02 0. -1.
     200000    1    3    3    0    0  0.81028533238E+03  0.46993896797E+02 -0.18150155798E+03  0.97041927112E+03  0.50000000000E+03 0. -1.
    -200001    1    1    2    0    0 -0.10379070003E+04 -0.90513929472E+02 -0.18466275740E+04  0.22328181990E+04  0.70000000000E+03 0.  1.
<mgrwt>
<rscale>  0 0.29073770E+04</rscale>
<asrwt>0</asrwt>
<pdfrwt beam="1">  1        1 0.38701409E+00 0.29073770E+04</pdfrwt>
<pdfrwt beam="2">  1       -1 0.11143455E+00 0.29073770E+04</pdfrwt>
<totfact> 0.84415700E-01</totfact>
</mgrwt>
</event>
<event>
 8    1  0.3214020E-028  0.1554770E+04  0.7818608E-02  0.8848827E-01
          1   -1    0    0  501    0  0.00000000000E+00  0.00000000000E+00  0.10625792721E+04  0.10625792721E+04  0.50400000000E-02 0.  1.
         -1   -1    0    0    0  501 -0.00000000000E+00 -0.00000000000E+00 -0.56873644495E+03  0.56873644497E+03  0.50400000000E-02 0. -1.
     200001    2    1    2    0    0  0.27702320086E+03 -0.15638227838E+03  0.12612097900E+03  0.77901493190E+03  0.69982890193E+03 0.  0.
    5000001    2    3    3    0    0 -0.10734221899E+02  0.10357382984E+02  0.23000370638E+02  0.16972000422E+03  0.16749138450E+03 0.  0.
        -13    1    4    4    0    0  0.29945842732E+02  0.61626742205E+02 -0.35302795316E+02  0.77077281821E+02  0.10566000000E+00 0. -1.
     200003    1    4    4    0    0 -0.40680064632E+02 -0.51269359221E+02  0.58303165954E+02  0.92642722400E+02  0.30000000000E+02 0. -1.
     200000    1    3    3    0    0  0.28775742276E+03 -0.16673966136E+03  0.10312060837E+03  0.60929492768E+03  0.50000000000E+03 0.  1.
    -200001    1    1    2    0    0 -0.27702320086E+03  0.15638227838E+03  0.36772184814E+03  0.85230078517E+03  0.70000000000E+03 0. -1.
<mgrwt>
<rscale>  0 0.15547702E+04</rscale>
<asrwt>0</asrwt>
<pdfrwt beam="1">  1        1 0.15179704E+00 0.15547702E+04</pdfrwt>
<pdfrwt beam="2">  1       -1 0.81248063E-01 0.15547702E+04</pdfrwt>
<totfact> 0.22592798E+01</totfact>
</mgrwt>
</event>
<event>
 8    1  0.3214020E-028  0.1482015E+04  0.7818608E-02  0.8896502E-01
         -1   -1    0    0    0  501 -0.00000000000E+00  0.00000000000E+00  0.39922452435E+03  0.39922452439E+03  0.50400000000E-02 0. -1.
          1   -1    0    0  501    0  0.00000000000E+00 -0.00000000000E+00 -0.13753963369E+04  0.13753963369E+04  0.50400000000E-02 0.  1.
     200001    2    1    2    0    0 -0.15668279122E+03 -0.16844212465E+03 -0.38641888812E+03  0.83083552643E+03  0.69860279735E+03 0.  0.
    5000001    2    3    3    0    0 -0.14728093562E+03 -0.34504090387E+02 -0.16315397689E+03  0.26703147138E+03  0.14766306335E+03 0.  0.
        -13    1    4    4    0    0 -0.14832567259E+03 -0.14317681324E+02 -0.17416942969E+03  0.22921715152E+03  0.10566000000E+00 0. -1.
     200003    1    4    4    0    0  0.10447369632E+01 -0.20186409063E+02  0.11015452796E+02  0.37814319860E+02  0.30000000000E+02 0. -1.
     200000    1    3    3    0    0 -0.94018555983E+01 -0.13393803426E+03 -0.22326491123E+03  0.56380405505E+03  0.50000000000E+03 0. -1.
    -200001    1    1    2    0    0  0.15668279122E+03  0.16844212465E+03 -0.58975292440E+03  0.94378533484E+03  0.70000000000E+03 0. -1.
<mgrwt>
<rscale>  0 0.14820148E+04</rscale>
<asrwt>0</asrwt>
<pdfrwt beam="1">  1        1 0.19648519E+00 0.14820148E+04</pdfrwt>
<pdfrwt beam="2">  1       -1 0.57032076E-01 0.14820148E+04</pdfrwt>
<totfact> 0.28379787E+01</totfact>
</mgrwt>
</event>
<event>
 8    1  0.3214020E-028  0.1447137E+04  0.7818608E-02  0.8920388E-01
         -1   -1    0    0    0  501 -0.00000000000E+00  0.00000000000E+00  0.23620302802E+04  0.23620302802E+04  0.50400000000E-02 0. -1.
          1   -1    0    0  501    0  0.00000000000E+00 -0.00000000000E+00 -0.22165297650E+03  0.22165297655E+03  0.50400000000E-02 0.  1.
     200001    2    1    2    0    0 -0.61541018278E+02 -0.80689242985E+02  0.80104376080E+03  0.10690504993E+04  0.70064242838E+03 0.  0.
    5000001    2    3    3    0    0 -0.41420221080E+02  0.83422422937E+01  0.10444933019E+03  0.20674240319E+03  0.17334223656E+03 0.  0.
        -13    1    4    4    0    0  0.36161108398E+02  0.65107651487E+02  0.25294865125E+02  0.78654137898E+02  0.10566000000E+00 0. -1.
     200003    1    4    4    0    0 -0.77581329478E+02 -0.56765409193E+02  0.79154465070E+02  0.12808826529E+03  0.30000000000E+02 0. -1.
     200000    1    3    3    0    0 -0.20120797198E+02 -0.89031485278E+02  0.69659443061E+03  0.86230809610E+03  0.50000000000E+03 0.  1.
    -200001    1    1    2    0    0  0.61541018278E+02  0.80689242985E+02  0.13393335429E+04  0.15146327575E+04  0.70000000000E+03 0. -1.
<mgrwt>
<rscale>  0 0.14471365E+04</rscale>
<asrwt>0</asrwt>
<pdfrwt beam="1">  1        1 0.31664712E-01 0.14471365E+04</pdfrwt>
<pdfrwt beam="2">  1       -1 0.33743288E+00 0.14471365E+04</pdfrwt>
<totfact> 0.26363142E+00</totfact>
</mgrwt>
</event>
<event>
 8    1  0.3214020E-028  0.2269863E+04  0.7818608E-02  0.8489899E-01
          1   -1    0    0  501    0  0.00000000000E+00  0.00000000000E+00  0.89993516300E+03  0.89993516301E+03  0.50400000000E-02 0.  1.
         -1   -1    0    0    0  501 -0.00000000000E+00 -0.00000000000E+00 -0.14312916480E+04  0.14312916480E+04  0.50400000000E-02 0. -1.
     200001    2    1    2    0    0 -0.75600686450E+03  0.30109900841E+03  0.11453681344E+03  0.10784757803E+04  0.69841558899E+03 0.  0.
    5000001    2    3    3    0    0 -0.27314401851E+03  0.18892716907E+03 -0.33433122261E+02  0.35900781611E+03  0.13216545805E+03 0.  0.
        -13    1    4    4    0    0 -0.67889353108E+02  0.16151539803E+02 -0.54034078103E+02  0.88258309886E+02  0.10566000000E+00 0. -1.
     200003    1    4    4    0    0 -0.20525466541E+03  0.17277562926E+03  0.20600955842E+02  0.27074950622E+03  0.30000000000E+02 0. -1.
     200000    1    3    3    0    0 -0.48286284599E+03  0.11217183934E+03  0.14796993570E+03  0.71946796416E+03  0.50000000000E+03 0. -1.
    -200001    1    1    2    0    0  0.75600686450E+03 -0.30109900841E+03 -0.64589329840E+03  0.12527510307E+04  0.70000000000E+03 0. -1.
<mgrwt>
<rscale>  0 0.22698632E+04</rscale>
<asrwt>0</asrwt>
<pdfrwt beam="1">  1        1 0.12856217E+00 0.22698632E+04</pdfrwt>
<pdfrwt beam="2">  1       -1 0.20447024E+00 0.22698632E+04</pdfrwt>
<totfact> 0.26313075E+00</totfact>
</mgrwt>
</event>
<event>
 8    1  0.3214020E-028  0.1774509E+04  0.7818608E-02  0.8719974E-01
         -1   -1    0    0    0  501 -0.00000000000E+00  0.00000000000E+00  0.76722034763E+03  0.76722034764E+03  0.50400000000E-02 0. -1.
          1   -1    0    0  501    0  0.00000000000E+00 -0.00000000000E+00 -0.10260678496E+04  0.10260678496E+04  0.50400000000E-02 0.  1.
     200001    2    1    2    0    0 -0.19219145344E+03  0.25904200750E+03 -0.57360806930E+03  0.96075319430E+03  0.69998583326E+03 0.  0.
    5000001    2    3    3    0    0 -0.18193961468E+02  0.43651947658E+02 -0.16049837212E+03  0.25553859789E+03  0.19314174792E+03 0.  0.
        -13    1    4    4    0    0  0.75222003126E+02 -0.88829362372E+01 -0.10942918719E+03  0.13308649249E+03  0.10566000000E+00 0. -1.
     200003    1    4    4    0    0 -0.93415964594E+02  0.52534883895E+02 -0.51069184934E+02  0.12245210540E+03  0.30000000000E+02 0. -1.
     200000    1    3    3    0    0 -0.17399749197E+03  0.21539005984E+03 -0.41310969718E+03  0.70521459642E+03  0.50000000000E+03 0. -1.
    -200001    1    1    2    0    0  0.19219145344E+03 -0.25904200750E+03  0.31476056732E+03  0.83253500297E+03  0.70000000000E+03 0.  1.
<mgrwt>
<rscale>  0 0.17745085E+04</rscale>
<asrwt>0</asrwt>
<pdfrwt beam="1">  1        1 0.14658112E+00 0.17745085E+04</pdfrwt>
<pdfrwt beam="2">  1       -1 0.10960291E+00 0.17745085E+04</pdfrwt>
<totfact> 0.12050312E+01</totfact>
</mgrwt>
</event>
<event>
 8    1  0.3214020E-028  0.1974201E+04  0.7818608E-02  0.8618779E-01
         -1   -1    0    0    0  501 -0.00000000000E+00  0.00000000000E+00  0.49465432845E+03  0.49465432848E+03  0.50400000000E-02 0. -1.
          1   -1    0    0  501    0  0.00000000000E+00 -0.00000000000E+00 -0.19697940452E+04  0.19697940452E+04  0.50400000000E-02 0.  1.
     200001    2    1    2    0    0 -0.67584053436E+02  0.19807127153E+03  0.92371052013E+02  0.73502944147E+03  0.69852418405E+03 0.  0.
    5000001    2    3    3    0    0 -0.30680976996E+02  0.11261570214E+03 -0.15681415125E+02  0.21508730330E+03  0.17998061714E+03 0.  0.
        -13    1    4    4    0    0 -0.14184488909E+02  0.63764776921E+02 -0.95337744756E+02  0.11557007935E+03  0.10566000000E+00 0. -1.
     200003    1    4    4    0    0 -0.16496488087E+02  0.48850925216E+02  0.79656329631E+02  0.99517223956E+02  0.30000000000E+02 0. -1.
     200000    1    3    3    0    0 -0.36903076440E+02  0.85455569388E+02  0.10805246714E+03  0.51994213817E+03  0.50000000000E+03 0. -1.
    -200001    1    1    2    0    0  0.67584053436E+02 -0.19807127153E+03 -0.15675107687E+04  0.17294189322E+04  0.70000000000E+03 0.  1.
<mgrwt>
<rscale>  0 0.19742008E+04</rscale>
<asrwt>0</asrwt>
<pdfrwt beam="1">  1        1 0.28139915E+00 0.19742008E+04</pdfrwt>
<pdfrwt beam="2">  1       -1 0.70664905E-01 0.19742008E+04</pdfrwt>
<totfact> 0.73493773E+00</totfact>
</mgrwt>
</event>
<event>
 8    1  0.3214020E-028  0.2491944E+04  0.7818608E-02  0.8405861E-01
          1   -1    0    0  501    0  0.00000000000E+00  0.00000000000E+00  0.12494894087E+04  0.12494894087E+04  0.50400000000E-02 0. -1.
         -1   -1    0    0    0  501 -0.00000000000E+00 -0.00000000000E+00 -0.12424640832E+04  0.12424640832E+04  0.50400000000E-02 0.  1.
     200001    2    1    2    0    0 -0.84349516589E+02  0.15612813360E+03  0.10188389541E+04  0.12488695630E+04  0.70010823151E+03 0.  0.
    5000001    2    3    3    0    0 -0.83038032741E+02  0.27780735931E+00  0.37863252587E+03  0.42173274542E+03  0.16613406289E+03 0.  0.
        -13    1    4    4    0    0 -0.14172411706E+02  0.71842484660E+02  0.22277562497E+03  0.23450200447E+03  0.10566000000E+00 0. -1.
     200003    1    4    4    0    0 -0.68865621035E+02 -0.71564677301E+02  0.15585690090E+03  0.18723074095E+03  0.30000000000E+02 0. -1.
     200000    1    3    3    0    0 -0.13114838478E+01  0.15585032624E+03  0.64020642826E+03  0.82713681756E+03  0.50000000000E+03 0. -1.
    -200001    1    1    2    0    0  0.84349516589E+02 -0.15612813360E+03 -0.10118136287E+04  0.12430839289E+04  0.70000000000E+03 0.  1.
<mgrwt>
<rscale>  0 0.24919436E+04</rscale>
<asrwt>0</asrwt>
<pdfrwt beam="1">  1        1 0.17849849E+00 0.24919436E+04</pdfrwt>
<pdfrwt beam="2">  1       -1 0.17749487E+00 0.24919436E+04</pdfrwt>
<totfact> 0.22187248E+00</totfact>
</mgrwt>
</event>
<event>
 8    1  0.3214020E-028  0.2125613E+04  0.7818608E-02  0.8550044E-01
         -1   -1    0    0    0  501 -0.00000000000E+00  0.00000000000E+00  0.16586729750E+04  0.16586729750E+04  0.50400000000E-02 0. -1.
          1   -1    0    0  501    0  0.00000000000E+00 -0.00000000000E+00 -0.68100075215E+03  0.68100075216E+03  0.50400000000E-02 0.  1.
     200001    2    1    2    0    0  0.60760061941E+03 -0.36230493321E+03  0.78301650565E+02  0.99828981357E+03  0.70000573289E+03 0.  0.
    5000001    2    3    3    0    0  0.23276584369E+03 -0.16344776734E+03  0.80231336980E+02  0.34250859610E+03  0.17314722155E+03 0.  0.
        -13    1    4    4    0    0  0.32373448993E+02  0.25200902109E+02 -0.23007012608E+02  0.47036788369E+02  0.10566000000E+00 0. -1.
     200003    1    4    4    0    0  0.20039239469E+03 -0.18864866945E+03  0.10323834959E+03  0.29547180773E+03  0.30000000000E+02 0. -1.
     200000    1    3    3    0    0  0.37483477572E+03 -0.19885716586E+03 -0.19296864152E+01  0.65578121748E+03  0.50000000000E+03 0.  1.
    -200001    1    1    2    0    0 -0.60760061941E+03  0.36230493321E+03  0.89937057226E+03  0.13413839136E+04  0.70000000000E+03 0. -1.
<mgrwt>
<rscale>  0 0.21256129E+04</rscale>
<asrwt>0</asrwt>
<pdfrwt beam="1">  1        1 0.97285822E-01 0.21256129E+04</pdfrwt>
<pdfrwt beam="2">  1       -1 0.23695328E+00 0.21256129E+04</pdfrwt>
<totfact> 0.24825701E+00</totfact>
</mgrwt>
</event>
<event>
 8    1  0.3214020E-028  0.1892443E+04  0.7818608E-02  0.8658627E-01
         -1   -1    0    0    0  501 -0.00000000000E+00  0.00000000000E+00  0.15855010218E+04  0.15855010218E+04  0.50400000000E-02 0. -1.
          1   -1    0    0  501    0  0.00000000000E+00 -0.00000000000E+00 -0.56470175613E+03  0.56470175615E+03  0.50400000000E-02 0.  1.
     200001    2    1    2    0    0 -0.32765678072E+03 -0.54599163312E+03  0.53762639527E+03  0.10876954358E+04  0.69898025070E+03 0.  0.
    5000001    2    3    3    0    0 -0.64641017625E+02 -0.18897037597E+03  0.85249940609E+02  0.28067255734E+03  0.17782369897E+03 0.  0.
        -13    1    4    4    0    0  0.37300071315E+02 -0.98973610461E+02  0.93505652166E+02  0.14117502980E+03  0.10566000000E+00 0. -1.
     200003    1    4    4    0    0 -0.10194108894E+03 -0.89996765509E+02 -0.82557115565E+01  0.13949752754E+03  0.30000000000E+02 0. -1.
     200000    1    3    3    0    0 -0.26301576310E+03 -0.35702125715E+03  0.45237645466E+03  0.80702287850E+03  0.50000000000E+03 0. -1.
    -200001    1    1    2    0    0  0.32765678072E+03  0.54599163312E+03  0.48317287042E+03  0.10625073421E+04  0.70000000000E+03 0.  1.
<mgrwt>
<rscale>  0 0.18924431E+04</rscale>
<asrwt>0</asrwt>
<pdfrwt beam="1">  1        1 0.80671679E-01 0.18924431E+04</pdfrwt>
<pdfrwt beam="2">  1       -1 0.22650015E+00 0.18924431E+04</pdfrwt>
<totfact> 0.38812471E+00</totfact>
</mgrwt>
</event>
<event>
 8    1  0.3214020E-028  0.2098958E+04  0.7818608E-02  0.8561702E-01
          1   -1    0    0  501    0  0.00000000000E+00  0.00000000000E+00  0.15557979945E+04  0.15557979945E+04  0.50400000000E-02 0. -1.
         -1   -1    0    0    0  501 -0.00000000000E+00 -0.00000000000E+00 -0.70793668828E+03  0.70793668830E+03  0.50400000000E-02 0.  1.
     200001    2    1    2    0    0  0.59957001495E+03 -0.46053181815E+03  0.63944152666E+03  0.12125389052E+04  0.69985096436E+03 0.  0.
    5000001    2    3    3    0    0  0.14012090274E+03 -0.85412868998E+02  0.27043952399E+03  0.35348699137E+03  0.15775389490E+03 0.  0.
        -13    1    4    4    0    0  0.80241763570E+01 -0.89536854311E+02  0.84302160419E+02  0.12324001421E+03  0.10566000000E+00 0. -1.
     200003    1    4    4    0    0  0.13209672639E+03  0.41239853131E+01  0.18613736357E+03  0.23024697716E+03  0.30000000000E+02 0. -1.
     200000    1    3    3    0    0  0.45944911221E+03 -0.37511894915E+03  0.36900200267E+03  0.85905191385E+03  0.50000000000E+03 0.  1.
    -200001    1    1    2    0    0 -0.59957001495E+03  0.46053181815E+03  0.20841977961E+03  0.10511957776E+04  0.70000000000E+03 0. -1.
<mgrwt>
<rscale>  0 0.20989583E+04</rscale>
<asrwt>0</asrwt>
<pdfrwt beam="1">  1        1 0.22225686E+00 0.20989583E+04</pdfrwt>
<pdfrwt beam="2">  1       -1 0.10113381E+00 0.20989583E+04</pdfrwt>
<totfact> 0.61347866E+00</totfact>
</mgrwt>
</event>
<event>
 8    1  0.3214020E-028  0.1526345E+04  0.7818608E-02  0.8867120E-01
         -1   -1    0    0    0  501 -0.00000000000E+00  0.00000000000E+00  0.11923627387E+04  0.11923627387E+04  0.50400000000E-02 0. -1.
          1   -1    0    0  501    0  0.00000000000E+00 -0.00000000000E+00 -0.48846898545E+03  0.48846898547E+03  0.50400000000E-02 0.  1.
     200001    2    1    2    0    0 -0.55166248453E+02  0.30514428581E+02  0.67881422324E+03  0.97755124800E+03  0.70060206071E+03 0.  0.
    5000001    2    3    3    0    0  0.49577859356E+02 -0.28767224667E+01  0.62170937643E+02  0.17609305273E+03  0.15709009537E+03 0.  0.
        -13    1    4    4    0    0  0.16496921052E+02  0.74000303394E+02  0.26963482950E+02  0.80468837965E+02  0.10566000000E+00 0. -1.
     200003    1    4    4    0    0  0.33080938304E+02 -0.76877025861E+02  0.35207454693E+02  0.95624214769E+02  0.30000000000E+02 0. -1.
     200000    1    3    3    0    0 -0.10474410781E+03  0.33391151047E+02  0.61664328559E+03  0.80145819526E+03  0.50000000000E+03 0. -1.
    -200001    1    1    2    0    0  0.55166248453E+02 -0.30514428581E+02  0.25079529993E+02  0.70328047616E+03  0.70000000000E+03 0.  1.
<mgrwt>
<rscale>  0 0.15263449E+04</rscale>
<asrwt>0</asrwt>
<pdfrwt beam="1">  1        1 0.69781283E-01 0.15263449E+04</pdfrwt>
<pdfrwt beam="2">  1       -1 0.17033754E+00 0.15263449E+04</pdfrwt>
<totfact> 0.11990258E+01</totfact>
</mgrwt>
</event>
<event>
 8    1  0.3214020E-028  0.1968793E+04  0.7818608E-02  0.8621351E-01
         -1   -1    0    0    0  501 -0.00000000000E+00  0.00000000000E+00  0.11257743368E+04  0.11257743368E+04  0.50400000000E-02 0. -1.
          1   -1    0    0  501    0  0.00000000000E+00 -0.00000000000E+00 -0.86077357329E+03  0.86077357330E+03  0.50400000000E-02 0.  1.
     200001    2    1    2    0    0 -0.40830408409E+03 -0.53374648252E+03 -0.34627961343E+02  0.97098161219E+03  0.70000618770E+03 0.  0.
    5000001    2    3    3    0    0 -0.15822435581E+03 -0.38596531572E+02  0.41279601540E+02  0.22033169211E+03  0.14253915259E+03 0.  0.
        -13    1    4    4    0    0 -0.11038929131E+03 -0.88157808402E+02  0.25233213115E+02  0.14350721593E+03  0.10566000000E+00 0. -1.
     200003    1    4    4    0    0 -0.47835064508E+02  0.49561276830E+02  0.16046388425E+02  0.76824476172E+02  0.30000000000E+02 0. -1.
     200000    1    3    3    0    0 -0.25007972828E+03 -0.49514995095E+03 -0.75907562883E+02  0.75064992009E+03  0.50000000000E+03 0.  1.
    -200001    1    1    2    0    0  0.40830408409E+03  0.53374648252E+03  0.29962872485E+03  0.10155662979E+04  0.70000000000E+03 0. -1.
<mgrwt>
<rscale>  0 0.19687933E+04</rscale>
<asrwt>0</asrwt>
<pdfrwt beam="1">  1        1 0.12296765E+00 0.19687933E+04</pdfrwt>
<pdfrwt beam="2">  1       -1 0.16082490E+00 0.19687933E+04</pdfrwt>
<totfact> 0.59589104E+00</totfact>
</mgrwt>
</event>
<event>
 8    1  0.3214020E-028  0.1617089E+04  0.7818608E-02  0.8810118E-01
         -1   -1    0    0    0  501 -0.00000000000E+00  0.00000000000E+00  0.48541431789E+03  0.48541431792E+03  0.50400000000E-02 0.  1.
          1   -1    0    0  501    0  0.00000000000E+00 -0.00000000000E+00 -0.13467754644E+04  0.13467754644E+04  0.50400000000E-02 0. -1.
     200001    2    1    2    0    0  0.32117872001E+02 -0.29068682039E+03 -0.11434764435E+03  0.76750224240E+03  0.70032415570E+03 0.  0.
    5000001    2    3    3    0    0  0.60154148547E+02 -0.47344543132E+02 -0.98154883458E+02  0.21048904488E+03  0.16973870954E+03 0.  0.
        -13    1    4    4    0    0  0.76784139040E+02  0.49143242734E+01 -0.12145693093E+03  0.14377674299E+03  0.10566000000E+00 0. -1.
     200003    1    4    4    0    0 -0.16629990494E+02 -0.52258867406E+02  0.23302047471E+02  0.66712301884E+02  0.30000000000E+02 0. -1.
     200000    1    3    3    0    0 -0.28036276546E+02 -0.24334227726E+03 -0.16192760895E+02  0.55701319752E+03  0.50000000000E+03 0. -1.
    -200001    1    1    2    0    0 -0.32117872001E+02  0.29068682039E+03 -0.74701350211E+03  0.10646875399E+04  0.70000000000E+03 0. -1.
<mgrwt>
<rscale>  0 0.16170889E+04</rscale>
<asrwt>0</asrwt>
<pdfrwt beam="1">  1        1 0.19239649E+00 0.16170889E+04</pdfrwt>
<pdfrwt beam="2">  1       -1 0.69344903E-01 0.16170889E+04</pdfrwt>
<totfact> 0.19840862E+01</totfact>
</mgrwt>
</event>
<event>
 8    1  0.3214020E-028  0.2105154E+04  0.7818608E-02  0.8558976E-01
         -1   -1    0    0    0  501 -0.00000000000E+00  0.00000000000E+00  0.45877227408E+03  0.45877227411E+03  0.50400000000E-02 0.  1.
          1   -1    0    0  501    0  0.00000000000E+00 -0.00000000000E+00 -0.24149633456E+04  0.24149633457E+04  0.50400000000E-02 0. -1.
     200001    2    1    2    0    0  0.76445254044E+03 -0.18017941426E+03 -0.93782731839E+03  0.14095235307E+04  0.70027437237E+03 0.  0.
    5000001    2    3    3    0    0  0.29651151270E+03 -0.91167283816E+02 -0.39756856805E+03  0.53272738443E+03  0.17177645072E+03 0.  0.
        -13    1    4    4    0    0  0.20825205719E+03 -0.86443935562E+02 -0.15719181296E+03  0.27486496784E+03  0.10566000000E+00 0. -1.
     200003    1    4    4    0    0  0.88259455509E+02 -0.47233482544E+01 -0.24037675508E+03  0.25786241659E+03  0.30000000000E+02 0. -1.
     200000    1    3    3    0    0  0.46794102774E+03 -0.89012130445E+02 -0.54025875034E+03  0.87679614628E+03  0.50000000000E+03 0.  1.
    -200001    1    1    2    0    0 -0.76445254044E+03  0.18017941426E+03 -0.10183637532E+04  0.14642120890E+04  0.70000000000E+03 0.  1.
<mgrwt>
<rscale>  0 0.21051539E+04</rscale>
<asrwt>0</asrwt>
<pdfrwt beam="1">  1        1 0.34499476E+00 0.21051539E+04</pdfrwt>
<pdfrwt beam="2">  1       -1 0.65538898E-01 0.21051539E+04</pdfrwt>
<totfact> 0.44380516E+00</totfact>
</mgrwt>
</event>
<event>
 8    1  0.3214020E-028  0.1473043E+04  0.7818608E-02  0.8902580E-01
         -1   -1    0    0    0  501 -0.00000000000E+00  0.00000000000E+00  0.11507189916E+04  0.11507189916E+04  0.50400000000E-02 0. -1.
          1   -1    0    0  501    0  0.00000000000E+00 -0.00000000000E+00 -0.47141296087E+03  0.47141296090E+03  0.50400000000E-02 0.  1.
     200001    2    1    2    0    0  0.13338951224E+03 -0.38806599780E+02  0.53789160107E+03  0.89460411452E+03  0.70120641259E+03 0.  0.
    5000001    2    3    3    0    0  0.82168012337E+02  0.78927634789E+02  0.23456613465E+03  0.29586265895E+03  0.13975796096E+03 0.  0.
        -13    1    4    4    0    0 -0.69113169582E+01  0.48256503154E+02  0.89924169733E+01  0.49571474921E+02  0.10566000000E+00 0. -1.
     200003    1    4    4    0    0  0.89079329295E+02  0.30671131635E+02  0.22557371768E+03  0.24629118403E+03  0.30000000000E+02 0. -1.
     200000    1    3    3    0    0  0.51221499898E+02 -0.11773423457E+03  0.30332546641E+03  0.59874145557E+03  0.50000000000E+03 0.  1.
    -200001    1    1    2    0    0 -0.13338951224E+03  0.38806599780E+02  0.14141442969E+03  0.72752783801E+03  0.70000000000E+03 0. -1.
<mgrwt>
<rscale>  0 0.14730429E+04</rscale>
<asrwt>0</asrwt>
<pdfrwt beam="1">  1        1 0.67344708E-01 0.14730429E+04</pdfrwt>
<pdfrwt beam="2">  1       -1 0.16438843E+00 0.14730429E+04</pdfrwt>
<totfact> 0.13984741E+01</totfact>
</mgrwt>
</event>
<event>
 8    1  0.3214020E-028  0.1500419E+04  0.7818608E-02  0.8884174E-01
         -1   -1    0    0    0  501 -0.00000000000E+00  0.00000000000E+00  0.43824279980E+03  0.43824279983E+03  0.50400000000E-02 0. -1.
          1   -1    0    0  501    0  0.00000000000E+00 -0.00000000000E+00 -0.12842525085E+04  0.12842525086E+04  0.50400000000E-02 0.  1.
     200001    2    1    2    0    0 -0.22016247878E+03  0.80856334250E+01 -0.59984982586E+03  0.94845940323E+03  0.70086983917E+03 0.  0.
    5000001    2    3    3    0    0 -0.99237560149E+02 -0.10915315424E+03 -0.18073360309E+03  0.27464475701E+03  0.14492274783E+03 0.  0.
        -13    1    4    4    0    0 -0.74478631144E+02 -0.29742973207E+02 -0.16686759890E+03  0.18513918461E+03  0.10566000000E+00 0. -1.
     200003    1    4    4    0    0 -0.24758929005E+02 -0.79410181031E+02 -0.13866004193E+02  0.89505572392E+02  0.30000000000E+02 0. -1.
     200000    1    3    3    0    0 -0.12092491863E+03  0.11723878766E+03 -0.41911622276E+03  0.67381464622E+03  0.50000000000E+03 0.  1.
    -200001    1    1    2    0    0  0.22016247878E+03 -0.80856334250E+01 -0.24615988289E+03  0.77403590516E+03  0.70000000000E+03 0. -1.
<mgrwt>
<rscale>  0 0.15004192E+04</rscale>
<asrwt>0</asrwt>
<pdfrwt beam="1">  1        1 0.18346464E+00 0.15004192E+04</pdfrwt>
<pdfrwt beam="2">  1       -1 0.62606115E-01 0.15004192E+04</pdfrwt>
<totfact> 0.27147051E+01</totfact>
</mgrwt>
</event>
<event>
 8    1  0.3214020E-028  0.1630883E+04  0.7818608E-02  0.8801797E-01
          1   -1    0    0  501    0  0.00000000000E+00  0.00000000000E+00  0.10494005629E+04  0.10494005629E+04  0.50400000000E-02 0.  1.
         -1   -1    0    0    0  501 -0.00000000000E+00 -0.00000000000E+00 -0.63364267024E+03  0.63364267026E+03  0.50400000000E-02 0. -1.
     200001    2    1    2    0    0 -0.34101265430E+03 -0.88535207057E+02 -0.25161167485E+02  0.78385597185E+03  0.69976352219E+03 0.  0.
    5000001    2    3    3    0    0  0.88742634335E+01 -0.65911184320E+02  0.47413101128E+00  0.17263598680E+03  0.15931077291E+03 0.  0.
        -13    1    4    4    0    0  0.37087584728E+02 -0.81199460461E+01  0.65939147267E+02  0.76088138176E+02  0.10566000000E+00 0. -1.
     200003    1    4    4    0    0 -0.28213321294E+02 -0.57791238274E+02 -0.65465016256E+02  0.96547848620E+02  0.30000000000E+02 0. -1.
     200000    1    3    3    0    0 -0.34988691773E+03 -0.22624022737E+02 -0.25635298496E+02  0.61121998506E+03  0.50000000000E+03 0. -1.
    -200001    1    1    2    0    0  0.34101265430E+03  0.88535207057E+02  0.44091906010E+03  0.89918726128E+03  0.70000000000E+03 0.  1.
<mgrwt>
<rscale>  0 0.16308832E+04</rscale>
<asrwt>0</asrwt>
<pdfrwt beam="1">  1        1 0.14991437E+00 0.16308832E+04</pdfrwt>
<pdfrwt beam="2">  1       -1 0.90520382E-01 0.16308832E+04</pdfrwt>
<totfact> 0.18149918E+01</totfact>
</mgrwt>
</event>
<event>
 8    1  0.3214020E-028  0.1573226E+04  0.7818608E-02  0.8837167E-01
         -1   -1    0    0    0  501 -0.00000000000E+00  0.00000000000E+00  0.12002053883E+04  0.12002053883E+04  0.50400000000E-02 0. -1.
          1   -1    0    0  501    0  0.00000000000E+00 -0.00000000000E+00 -0.51554497877E+03  0.51554497879E+03  0.50400000000E-02 0.  1.
     200001    2    1    2    0    0  0.19399661037E+03  0.53704632765E+02  0.19347769067E+02  0.72926175490E+03  0.70066361300E+03 0.  0.
    5000001    2    3    3    0    0 -0.23742799789E+02  0.69703901093E+02 -0.26346970462E+02  0.18176341103E+03  0.16407748281E+03 0.  0.
        -13    1    4    4    0    0 -0.10568000247E+01  0.11818397780E+03 -0.12387443762E+02  0.11883614501E+03  0.10566000000E+00 0. -1.
     200003    1    4    4    0    0 -0.22685999765E+02 -0.48480076704E+02 -0.13959526700E+02  0.62927266016E+02  0.30000000000E+02 0. -1.
     200000    1    3    3    0    0  0.21773941016E+03 -0.15999268328E+02  0.45694739529E+02  0.54749834387E+03  0.50000000000E+03 0.  1.
    -200001    1    1    2    0    0 -0.19399661037E+03 -0.53704632765E+02  0.66531264043E+03  0.98648861217E+03  0.70000000000E+03 0. -1.
<mgrwt>
<rscale>  0 0.15732258E+04</rscale>
<asrwt>0</asrwt>
<pdfrwt beam="1">  1        1 0.73649284E-01 0.15732258E+04</pdfrwt>
<pdfrwt beam="2">  1       -1 0.17145791E+00 0.15732258E+04</pdfrwt>
<totfact> 0.10890892E+01</totfact>
</mgrwt>
</event>
<event>
 8    1  0.3214020E-028  0.3221430E+04  0.7818608E-02  0.8183180E-01
          1   -1    0    0  501    0  0.00000000000E+00  0.00000000000E+00  0.19724415593E+04  0.19724415593E+04  0.50400000000E-02 0.  1.
         -1   -1    0    0    0  501 -0.00000000000E+00 -0.00000000000E+00 -0.13153252908E+04  0.13153252908E+04  0.50400000000E-02 0. -1.
     200001    2    1    2    0    0 -0.56564630176E+03 -0.12321591153E+04 -0.19758853342E+03  0.15388551534E+04  0.70061553693E+03 0.  0.
    5000001    2    3    3    0    0 -0.15351565773E+03 -0.24664184164E+03 -0.70691342684E+02  0.35260102322E+03  0.18689826223E+03 0.  0.
        -13    1    4    4    0    0 -0.34984496766E+02 -0.12355513161E+03 -0.11626006813E+03  0.17322297817E+03  0.10566000000E+00 0. -1.
     200003    1    4    4    0    0 -0.11853116096E+03 -0.12308671003E+03  0.45568725444E+02  0.17937804504E+03  0.30000000000E+02 0. -1.
     200000    1    3    3    0    0 -0.41213064404E+03 -0.98551727368E+03 -0.12689719074E+03  0.11862541302E+04  0.50000000000E+03 0.  1.
    -200001    1    1    2    0    0  0.56564630176E+03  0.12321591153E+04  0.85470480188E+03  0.17489116966E+04  0.70000000000E+03 0. -1.
<mgrwt>
<rscale>  0 0.32214297E+04</rscale>
<asrwt>0</asrwt>
<pdfrwt beam="1">  1        1 0.28177737E+00 0.32214297E+04</pdfrwt>
<pdfrwt beam="2">  1       -1 0.18790361E+00 0.32214297E+04</pdfrwt>
<totfact> 0.59707478E-01</totfact>
</mgrwt>
</event>
<event>
 8    1  0.3214020E-028  0.2502331E+04  0.7818608E-02  0.8402156E-01
          1   -1    0    0  501    0  0.00000000000E+00  0.00000000000E+00  0.10919703769E+04  0.10919703769E+04  0.50400000000E-02 0. -1.
         -1   -1    0    0    0  501 -0.00000000000E+00 -0.00000000000E+00 -0.14335691140E+04  0.14335691140E+04  0.50400000000E-02 0.  1.
     200001    2    1    2    0    0 -0.83675207976E+03 -0.53073224628E+03 -0.47983319041E+03  0.13044991458E+04  0.69974807651E+03 0.  0.
    5000001    2    3    3    0    0 -0.13582676383E+03 -0.10776221296E+03 -0.16460390537E+03  0.29476182861E+03  0.17241950478E+03 0.  0.
        -13    1    4    4    0    0 -0.35632500935E+02 -0.12461038833E+02 -0.14747848757E+03  0.15223294017E+03  0.10566000000E+00 0. -1.
     200003    1    4    4    0    0 -0.10019426289E+03 -0.95301174122E+02 -0.17125417800E+02  0.14252888844E+03  0.30000000000E+02 0. -1.
     200000    1    3    3    0    0 -0.70092531593E+03 -0.42297003332E+03 -0.31522928504E+03  0.10097373172E+04  0.50000000000E+03 0.  1.
    -200001    1    1    2    0    0  0.83675207976E+03  0.53073224628E+03  0.13823445331E+03  0.12210403451E+04  0.70000000000E+03 0. -1.
<mgrwt>
<rscale>  0 0.25023309E+04</rscale>
<asrwt>0</asrwt>
<pdfrwt beam="1">  1        1 0.15599577E+00 0.25023309E+04</pdfrwt>
<pdfrwt beam="2">  1       -1 0.20479559E+00 0.25023309E+04</pdfrwt>
<totfact> 0.18397935E+00</totfact>
</mgrwt>
</event>
<event>
 8    1  0.3214020E-028  0.1941887E+04  0.7818608E-02  0.8634283E-01
         -1   -1    0    0    0  501 -0.00000000000E+00  0.00000000000E+00  0.49736556687E+03  0.49736556689E+03  0.50400000000E-02 0. -1.
          1   -1    0    0  501    0  0.00000000000E+00 -0.00000000000E+00 -0.18954500991E+04  0.18954500991E+04  0.50400000000E-02 0.  1.
     200001    2    1    2    0    0  0.17322638422E+03 -0.25692653714E+03  0.36223288863E+02  0.76700585199E+03  0.70069053416E+03 0.  0.
    5000001    2    3    3    0    0  0.16878005705E+02 -0.84191423804E+02  0.14239274063E+03  0.20526375162E+03  0.12035136985E+03 0.  0.
        -13    1    4    4    0    0 -0.19461811407E+02  0.14539811439E+02  0.69960189518E+02  0.74058135956E+02  0.10566000000E+00 0. -1.
     200003    1    4    4    0    0  0.36339817112E+02 -0.98731235242E+02  0.72432551112E+02  0.13120561566E+03  0.30000000000E+02 0. -1.
     200000    1    3    3    0    0  0.15634837852E+03 -0.17273511333E+03 -0.10616945177E+03  0.56174210037E+03  0.50000000000E+03 0. -1.
    -200001    1    1    2    0    0 -0.17322638422E+03  0.25692653714E+03 -0.14343078211E+04  0.16258098140E+04  0.70000000000E+03 0.  1.
<mgrwt>
<rscale>  0 0.19418873E+04</rscale>
<asrwt>0</asrwt>
<pdfrwt beam="1">  1        1 0.27077858E+00 0.19418873E+04</pdfrwt>
<pdfrwt beam="2">  1       -1 0.71052225E-01 0.19418873E+04</pdfrwt>
<totfact> 0.81185441E+00</totfact>
</mgrwt>
</event>
<event>
 8    1  0.3214020E-028  0.1530279E+04  0.7818608E-02  0.8864564E-01
         -1   -1    0    0    0  501 -0.00000000000E+00  0.00000000000E+00  0.47721246838E+03  0.47721246840E+03  0.50400000000E-02 0. -1.
          1   -1    0    0  501    0  0.00000000000E+00 -0.00000000000E+00 -0.12267882631E+04  0.12267882631E+04  0.50400000000E-02 0.  1.
     200001    2    1    2    0    0  0.26354838256E+03 -0.12096471244E+03 -0.49564044476E+03  0.90489287049E+03  0.69934358149E+03 0.  0.
    5000001    2    3    3    0    0  0.95626456510E+02 -0.64634326574E+02 -0.13887248392E+03  0.26563215411E+03  0.19481493565E+03 0.  0.
        -13    1    4    4    0    0  0.36482110027E+01 -0.10983579261E+03 -0.31784468488E+02  0.11440049993E+03  0.10566000000E+00 0. -1.
     200003    1    4    4    0    0  0.91978245507E+02  0.45201466038E+02 -0.10708801544E+03  0.15123165419E+03  0.30000000000E+02 0. -1.
     200000    1    3    3    0    0  0.16792192605E+03 -0.56330385861E+02 -0.35676796084E+03  0.63926071638E+03  0.50000000000E+03 0.  1.
    -200001    1    1    2    0    0 -0.26354838256E+03  0.12096471244E+03 -0.25393534997E+03  0.79910786104E+03  0.70000000000E+03 0. -1.
<mgrwt>
<rscale>  0 0.15302793E+04</rscale>
<asrwt>0</asrwt>
<pdfrwt beam="1">  1        1 0.17525546E+00 0.15302793E+04</pdfrwt>
<pdfrwt beam="2">  1       -1 0.68173210E-01 0.15302793E+04</pdfrwt>
<totfact> 0.24969554E+01</totfact>
</mgrwt>
</event>
<event>
 8    1  0.3214020E-028  0.2282237E+04  0.7818608E-02  0.8484958E-01
         -1   -1    0    0    0  501 -0.00000000000E+00  0.00000000000E+00  0.83076258314E+03  0.83076258316E+03  0.50400000000E-02 0. -1.
          1   -1    0    0  501    0  0.00000000000E+00 -0.00000000000E+00 -0.15674165955E+04  0.15674165955E+04  0.50400000000E-02 0.  1.
     200001    2    1    2    0    0  0.15573519801E+03  0.15669197489E+03  0.54962251562E+03  0.91719533901E+03  0.70025463465E+03 0.  0.
    5000001    2    3    3    0    0  0.71656099273E+01 -0.40083810325E+01  0.26226255020E+03  0.30037018014E+03  0.14619571401E+03 0.  0.
        -13    1    4    4    0    0 -0.18155243071E+02 -0.58340461033E+02  0.53850417506E+02  0.81443851052E+02  0.10566000000E+00 0. -1.
     200003    1    4    4    0    0  0.25320852999E+02  0.54332080001E+02  0.20841213270E+03  0.21892632909E+03  0.30000000000E+02 0. -1.
     200000    1    3    3    0    0  0.14856958808E+03  0.16070035592E+03  0.28735996541E+03  0.61682515887E+03  0.50000000000E+03 0. -1.
    -200001    1    1    2    0    0 -0.15573519801E+03 -0.15669197489E+03 -0.12862765280E+04  0.14809838396E+04  0.70000000000E+03 0.  1.
<mgrwt>
<rscale>  0 0.22822367E+04</rscale>
<asrwt>0</asrwt>
<pdfrwt beam="1">  1        1 0.22391666E+00 0.22822367E+04</pdfrwt>
<pdfrwt beam="2">  1       -1 0.11868037E+00 0.22822367E+04</pdfrwt>
<totfact> 0.40674327E+00</totfact>
</mgrwt>
</event>
<event>
 8    1  0.3214020E-028  0.1548310E+04  0.7818608E-02  0.8852948E-01
          1   -1    0    0  501    0  0.00000000000E+00  0.00000000000E+00  0.46806939210E+03  0.46806939212E+03  0.50400000000E-02 0.  1.
         -1   -1    0    0    0  501 -0.00000000000E+00 -0.00000000000E+00 -0.12804003517E+04  0.12804003517E+04  0.50400000000E-02 0. -1.
     200001    2    1    2    0    0 -0.20562769342E+03 -0.10623458597E+03 -0.14190115964E+03  0.75195348594E+03  0.70123431915E+03 0.  0.
    5000001    2    3    3    0    0 -0.64296111554E+02 -0.14214938804E+03 -0.20494392472E+02  0.21715998172E+03  0.14965961064E+03 0.  0.
        -13    1    4    4    0    0  0.21396299041E+02 -0.11829230454E+03 -0.26485297630E+02  0.12309489462E+03  0.10566000000E+00 0. -1.
     200003    1    4    4    0    0 -0.85692410595E+02 -0.23857083493E+02  0.59909051586E+01  0.94065087100E+02  0.30000000000E+02 0. -1.
     200000    1    3    3    0    0 -0.14133158186E+03  0.35914802071E+02 -0.12140676717E+03  0.53479350422E+03  0.50000000000E+03 0. -1.
    -200001    1    1    2    0    0  0.20562769342E+03  0.10623458597E+03 -0.67042979995E+03  0.99651625788E+03  0.70000000000E+03 0.  1.
<mgrwt>
<rscale>  0 0.15483103E+04</rscale>
<asrwt>0</asrwt>
<pdfrwt beam="1">  1        1 0.66867057E-01 0.15483103E+04</pdfrwt>
<pdfrwt beam="2">  1       -1 0.18291433E+00 0.15483103E+04</pdfrwt>
<totfact> 0.10279589E+01</totfact>
</mgrwt>
</event>
<event>
 8    1  0.3214020E-028  0.1798531E+04  0.7818608E-02  0.8707081E-01
          1   -1    0    0  501    0  0.00000000000E+00  0.00000000000E+00  0.13152743830E+04  0.13152743830E+04  0.50400000000E-02 0.  1.
         -1   -1    0    0    0  501 -0.00000000000E+00 -0.00000000000E+00 -0.61483645419E+03  0.61483645421E+03  0.50400000000E-02 0. -1.
     200001    2    1    2    0    0  0.36892167471E+03 -0.22763296535E+03  0.73851225408E+03  0.11058720228E+04  0.69973753109E+03 0.  0.
    5000001    2    3    3    0    0  0.18360929812E+03 -0.18284122411E+02  0.33326552310E+03  0.40416515528E+03  0.13504399420E+03 0.  0.
        -13    1    4    4    0    0  0.23096958396E+02  0.36421374894E+01  0.17212648191E+03  0.17370743102E+03  0.10566000000E+00 0. -1.
     200003    1    4    4    0    0  0.16051233972E+03 -0.21926259901E+02  0.16113904119E+03  0.23045772426E+03  0.30000000000E+02 0.  1.
     200000    1    3    3    0    0  0.18531237659E+03 -0.20934884293E+03  0.40524673098E+03  0.70170686752E+03  0.50000000000E+03 0.  1.
    -200001    1    1    2    0    0 -0.36892167471E+03  0.22763296535E+03 -0.38074325255E+02  0.82423881444E+03  0.70000000000E+03 0. -1.
<mgrwt>
<rscale>  0 0.17985312E+04</rscale>
<asrwt>0</asrwt>
<pdfrwt beam="1">  1        1 0.18789634E+00 0.17985312E+04</pdfrwt>
<pdfrwt beam="2">  1       -1 0.87833780E-01 0.17985312E+04</pdfrwt>
<totfact> 0.12445374E+01</totfact>
</mgrwt>
</event>
<event>
 8    1  0.3214020E-028  0.1634961E+04  0.7818608E-02  0.8799353E-01
          1   -1    0    0  501    0  0.00000000000E+00  0.00000000000E+00  0.15978525186E+04  0.15978525186E+04  0.50400000000E-02 0.  1.
         -1   -1    0    0    0  501 -0.00000000000E+00 -0.00000000000E+00 -0.41823295123E+03  0.41823295126E+03  0.50400000000E-02 0. -1.
     200001    2    1    2    0    0  0.38747955145E+03 -0.14369276385E+03  0.69653334839E+03  0.10704849685E+04  0.69999382089E+03 0.  0.
    5000001    2    3    3    0    0  0.17301458253E+03  0.30127485013E+02  0.18790644538E+03  0.30569086012E+03  0.16521609675E+03 0.  0.
        -13    1    4    4    0    0 -0.23764895464E+02  0.16604871066E+02  0.65480699047E+02  0.71611626928E+02  0.10566000000E+00 0. -1.
     200003    1    4    4    0    0  0.19677947799E+03  0.13522613947E+02  0.12242574633E+03  0.23407923319E+03  0.30000000000E+02 0. -1.
     200000    1    3    3    0    0  0.21446496892E+03 -0.17382024887E+03  0.50862690301E+03  0.76479410842E+03  0.50000000000E+03 0. -1.
    -200001    1    1    2    0    0 -0.38747955145E+03  0.14369276385E+03  0.48308621902E+03  0.94560050137E+03  0.70000000000E+03 0. -1.
<mgrwt>
<rscale>  0 0.16349613E+04</rscale>
<asrwt>0</asrwt>
<pdfrwt beam="1">  1        1 0.22826465E+00 0.16349613E+04</pdfrwt>
<pdfrwt beam="2">  1       -1 0.59747565E-01 0.16349613E+04</pdfrwt>
<totfact> 0.18289516E+01</totfact>
</mgrwt>
</event>
<event>
 8    1  0.3214020E-028  0.1936825E+04  0.7818608E-02  0.8636740E-01
         -1   -1    0    0    0  501 -0.00000000000E+00  0.00000000000E+00  0.35822561908E+03  0.35822561912E+03  0.50400000000E-02 0. -1.
          1   -1    0    0  501    0  0.00000000000E+00 -0.00000000000E+00 -0.26179667503E+04  0.26179667503E+04  0.50400000000E-02 0.  1.
     200001    2    1    2    0    0 -0.55515244291E+03  0.17995396792E+03 -0.63168632387E+03  0.11104109993E+04  0.70242957664E+03 0.  0.
    5000001    2    3    3    0    0 -0.26509517168E+02 -0.37790981229E+02 -0.63411642167E+02  0.16182662261E+03  0.14154824852E+03 0.  0.
        -13    1    4    4    0    0  0.32189472723E+02 -0.10144372519E+02  0.29343201665E+02  0.44722534543E+02  0.10566000000E+00 0. -1.
     200003    1    4    4    0    0 -0.58698989891E+02 -0.27646608710E+02 -0.92754843832E+02  0.11710408807E+03  0.30000000000E+02 0. -1.
     200000    1    3    3    0    0 -0.52864292575E+03  0.21774494915E+03 -0.56827468171E+03  0.94858437668E+03  0.50000000000E+03 0.  1.
    -200001    1    1    2    0    0  0.55515244291E+03 -0.17995396792E+03 -0.16280548074E+04  0.18657813702E+04  0.70000000000E+03 0. -1.
<mgrwt>
<rscale>  0 0.19368250E+04</rscale>
<asrwt>0</asrwt>
<pdfrwt beam="1">  1        1 0.37399524E+00 0.19368250E+04</pdfrwt>
<pdfrwt beam="2">  1       -1 0.51175090E-01 0.19368250E+04</pdfrwt>
<totfact> 0.54352700E+00</totfact>
</mgrwt>
</event>
<event>
 8    1  0.3214020E-028  0.1559534E+04  0.7818608E-02  0.8845801E-01
         -1   -1    0    0    0  501 -0.00000000000E+00  0.00000000000E+00  0.54581284803E+03  0.54581284805E+03  0.50400000000E-02 0. -1.
          1   -1    0    0  501    0  0.00000000000E+00 -0.00000000000E+00 -0.11140021451E+04  0.11140021451E+04  0.50400000000E-02 0.  1.
     200001    2    1    2    0    0  0.16652025967E+03  0.29994949913E+03 -0.27331243380E+03  0.82635769767E+03  0.70033467651E+03 0.  0.
    5000001    2    3    3    0    0  0.70821099698E+02  0.12060578594E+03 -0.60106412399E+02  0.24603080337E+03  0.19327956859E+03 0.  0.
        -13    1    4    4    0    0 -0.58086826081E+02  0.66592644529E+02 -0.52702322800E+02  0.10288928837E+03  0.10566000000E+00 0. -1.
     200003    1    4    4    0    0  0.12890792578E+03  0.54013141414E+02 -0.74040895987E+01  0.14314151500E+03  0.30000000000E+02 0. -1.
     200000    1    3    3    0    0  0.95699159970E+02  0.17934371319E+03 -0.21320602140E+03  0.58032689430E+03  0.50000000000E+03 0. -1.
    -200001    1    1    2    0    0 -0.16652025967E+03 -0.29994949913E+03 -0.29487686326E+03  0.83345729548E+03  0.70000000000E+03 0. -1.
<mgrwt>
<rscale>  0 0.15595341E+04</rscale>
<asrwt>0</asrwt>
<pdfrwt beam="1">  1        1 0.15914316E+00 0.15595341E+04</pdfrwt>
<pdfrwt beam="2">  1       -1 0.77973264E-01 0.15595341E+04</pdfrwt>
<totfact> 0.22625741E+01</totfact>
</mgrwt>
</event>
<event>
 8    1  0.3214020E-028  0.1551187E+04  0.7818608E-02  0.8851110E-01
         -1   -1    0    0    0  501 -0.00000000000E+00  0.00000000000E+00  0.48619647089E+04  0.48619647089E+04  0.50400000000E-02 0. -1.
          1   -1    0    0  501    0  0.00000000000E+00 -0.00000000000E+00 -0.12372477300E+03  0.12372477311E+03  0.50400000000E-02 0.  1.
     200001    2    1    2    0    0  0.19254278891E+03 -0.25194861926E+03  0.27045293998E+04  0.28116312084E+04  0.70017136867E+03 0.  0.
    5000001    2    3    3    0    0 -0.94123980523E+01 -0.56738560886E+02  0.96413290569E+03  0.97918125791E+03  0.16104601355E+03 0.  0.
        -13    1    4    4    0    0 -0.74928120716E+02 -0.48035703904E+02  0.36627672126E+03  0.37693540537E+03  0.10566000000E+00 0. -1.
     200003    1    4    4    0    0  0.65515722664E+02 -0.87028569817E+01  0.59785618443E+03  0.60224585254E+03  0.30000000000E+02 0. -1.
     200000    1    3    3    0    0  0.20195518696E+03 -0.19521005837E+03  0.17403964941E+04  0.18324499505E+04  0.50000000000E+03 0.  1.
    -200001    1    1    2    0    0 -0.19254278891E+03  0.25194861926E+03  0.20337105361E+04  0.21740582736E+04  0.70000000000E+03 0.  1.
<mgrwt>
<rscale>  0 0.15511873E+04</rscale>
<asrwt>0</asrwt>
<pdfrwt beam="1">  1        1 0.17674970E-01 0.15511873E+04</pdfrwt>
<pdfrwt beam="2">  1       -1 0.69456628E+00 0.15511873E+04</pdfrwt>
<totfact> 0.61877530E-02</totfact>
</mgrwt>
</event>
<event>
 8    1  0.3214020E-028  0.1967088E+04  0.7818608E-02  0.8622164E-01
          1   -1    0    0  501    0  0.00000000000E+00  0.00000000000E+00  0.11170605678E+04  0.11170605678E+04  0.50400000000E-02 0.  1.
         -1   -1    0    0    0  501 -0.00000000000E+00 -0.00000000000E+00 -0.86598607704E+03  0.86598607705E+03  0.50400000000E-02 0. -1.
     200001    2    1    2    0    0 -0.31358653251E+03  0.54253676559E+03 -0.16842414652E+03  0.95413374179E+03  0.69951543850E+03 0.  0.
    5000001    2    3    3    0    0 -0.20951645967E+02  0.13892062870E+03 -0.14367584315E+03  0.24762568006E+03  0.14469905656E+03 0.  0.
        -13    1    4    4    0    0 -0.11309496569E+02  0.16081813476E+03 -0.12925312951E+03  0.20663194291E+03  0.10566000000E+00 0. -1.
     200003    1    4    4    0    0 -0.96421493984E+01 -0.21897506053E+02 -0.14422713641E+02  0.40993737145E+02  0.30000000000E+02 0. -1.
     200000    1    3    3    0    0 -0.29263488654E+03  0.40361613688E+03 -0.24748303371E+02  0.70650806173E+03  0.50000000000E+03 0. -1.
    -200001    1    1    2    0    0  0.31358653251E+03 -0.54253676559E+03  0.41949863725E+03  0.10289129030E+04  0.70000000000E+03 0.  1.
<mgrwt>
<rscale>  0 0.19670881E+04</rscale>
<asrwt>0</asrwt>
<pdfrwt beam="1">  1        1 0.15958008E+00 0.19670881E+04</pdfrwt>
<pdfrwt beam="2">  1       -1 0.12371230E+00 0.19670881E+04</pdfrwt>
<totfact> 0.75961104E+00</totfact>
</mgrwt>
</event>
<event>
 8    1  0.3214020E-028  0.1748882E+04  0.7818608E-02  0.8733966E-01
          1   -1    0    0  501    0  0.00000000000E+00  0.00000000000E+00  0.20535323222E+04  0.20535323222E+04  0.50400000000E-02 0.  1.
         -1   -1    0    0    0  501 -0.00000000000E+00 -0.00000000000E+00 -0.37235694465E+03  0.37235694469E+03  0.50400000000E-02 0. -1.
     200001    2    1    2    0    0  0.16484011451E+03  0.24075505076E+02  0.15298260172E+04  0.16905944130E+04  0.69999280916E+03 0.  0.
    5000001    2    3    3    0    0  0.40798290927E+02  0.60914628757E+02  0.31990452389E+03  0.37505136348E+03  0.18152004930E+03 0.  0.
        -13    1    4    4    0    0  0.46654356322E+02 -0.67014999665E+01  0.29199127620E+03  0.29577095125E+03  0.10566000000E+00 0. -1.
     200003    1    4    4    0    0 -0.58560653953E+01  0.67616128724E+02  0.27913247698E+02  0.79280412225E+02  0.30000000000E+02 0. -1.
     200000    1    3    3    0    0  0.12404182358E+03 -0.36839123681E+02  0.12099214934E+04  0.13155430495E+04  0.50000000000E+03 0.  1.
    -200001    1    1    2    0    0 -0.16484011451E+03 -0.24075505076E+02  0.15134936028E+03  0.73529485389E+03  0.70000000000E+03 0. -1.
<mgrwt>
<rscale>  0 0.17488820E+04</rscale>
<asrwt>0</asrwt>
<pdfrwt beam="1">  1        1 0.29336175E+00 0.17488820E+04</pdfrwt>
<pdfrwt beam="2">  1       -1 0.53193852E-01 0.17488820E+04</pdfrwt>
<totfact> 0.11675017E+01</totfact>
</mgrwt>
</event>
<event>
 8    1  0.3214020E-028  0.1477753E+04  0.7818608E-02  0.8899383E-01
          1   -1    0    0  501    0  0.00000000000E+00  0.00000000000E+00  0.15563320278E+04  0.15563320278E+04  0.50400000000E-02 0.  1.
         -1   -1    0    0    0  501 -0.00000000000E+00 -0.00000000000E+00 -0.35078526036E+03  0.35078526040E+03  0.50400000000E-02 0. -1.
     200001    2    1    2    0    0  0.17359851821E+02 -0.10591322179E+03  0.33177812953E+03  0.78239927573E+03  0.70039483466E+03 0.  0.
    5000001    2    3    3    0    0 -0.37477443676E+02 -0.93083353582E+02  0.15497403397E+03  0.24907815042E+03  0.16719421136E+03 0.  0.
        -13    1    4    4    0    0  0.35955252815E+02 -0.54972205773E+02  0.14663984305E+03  0.16067973844E+03  0.10566000000E+00 0. -1.
     200003    1    4    4    0    0 -0.73432696491E+02 -0.38111147809E+02  0.83341909212E+01  0.88398411974E+02  0.30000000000E+02 0. -1.
     200000    1    3    3    0    0  0.54837295497E+02 -0.12829868208E+02  0.17680409556E+03  0.53332112531E+03  0.50000000000E+03 0. -1.
    -200001    1    1    2    0    0 -0.17359851821E+02  0.10591322179E+03  0.87376863791E+03  0.11247180125E+04  0.70000000000E+03 0.  1.
<mgrwt>
<rscale>  0 0.14777528E+04</rscale>
<asrwt>0</asrwt>
<pdfrwt beam="1">  1        1 0.22233315E+00 0.14777528E+04</pdfrwt>
<pdfrwt beam="2">  1       -1 0.50112180E-01 0.14777528E+04</pdfrwt>
<totfact> 0.27710053E+01</totfact>
</mgrwt>
</event>
<event>
 8    1  0.3214020E-028  0.1682690E+04  0.7818608E-02  0.8771299E-01
         -1   -1    0    0    0  501 -0.00000000000E+00  0.00000000000E+00  0.64013938020E+03  0.64013938022E+03  0.50400000000E-02 0. -1.
          1   -1    0    0  501    0  0.00000000000E+00 -0.00000000000E+00 -0.11057928880E+04  0.11057928880E+04  0.50400000000E-02 0.  1.
     200001    2    1    2    0    0 -0.17124884363E+03  0.26588511697E+03 -0.58892064484E+03  0.96797606836E+03  0.70009219474E+03 0.  0.
    5000001    2    3    3    0    0 -0.86845320670E+02  0.94709801753E+00 -0.19790164935E+03  0.27500279081E+03  0.17005430138E+03 0.  0.
        -13    1    4    4    0    0 -0.35972136067E+02 -0.74047979446E+02 -0.14266973995E+03  0.16471722343E+03  0.10566000000E+00 0. -1.
     200003    1    4    4    0    0 -0.50873184602E+02  0.74995077464E+02 -0.55231909399E+02  0.11028556738E+03  0.30000000000E+02 0. -1.
     200000    1    3    3    0    0 -0.84403522964E+02  0.26493801896E+03 -0.39101899549E+03  0.69297327756E+03  0.50000000000E+03 0.  1.
    -200001    1    1    2    0    0  0.17124884363E+03 -0.26588511697E+03  0.12326713701E+03  0.77795619989E+03  0.70000000000E+03 0. -1.
<mgrwt>
<rscale>  0 0.16826902E+04</rscale>
<asrwt>0</asrwt>
<pdfrwt beam="1">  1        1 0.15797041E+00 0.16826902E+04</pdfrwt>
<pdfrwt beam="2">  1       -1 0.91448483E-01 0.16826902E+04</pdfrwt>
<totfact> 0.16078861E+01</totfact>
</mgrwt>
</event>
<event>
 8    1  0.3214020E-028  0.1612722E+04  0.7818608E-02  0.8812770E-01
         -1   -1    0    0    0  501 -0.00000000000E+00  0.00000000000E+00  0.24652509222E+03  0.24652509227E+03  0.50400000000E-02 0. -1.
          1   -1    0    0  501    0  0.00000000000E+00 -0.00000000000E+00 -0.26375345997E+04  0.26375345997E+04  0.50400000000E-02 0.  1.
     200001    2    1    2    0    0 -0.27721227931E+03  0.24480550674E+03 -0.14724891979E+04  0.16714361135E+04  0.69906928103E+03 0.  0.
    5000001    2    3    3    0    0 -0.37579580837E+02 -0.11026759143E+02 -0.11037845193E+03  0.17871388124E+03  0.13498679336E+03 0.  0.
        -13    1    4    4    0    0  0.74628095490E+01 -0.37927963642E+02 -0.11176622732E+03  0.11826210165E+03  0.10566000000E+00 0. -1.
     200003    1    4    4    0    0 -0.45042390386E+02  0.26901204499E+02  0.13877753856E+01  0.60451779591E+02  0.30000000000E+02 0. -1.
     200000    1    3    3    0    0 -0.23963269847E+03  0.25583226588E+03 -0.13621107460E+04  0.14927222323E+04  0.50000000000E+03 0.  1.
    -200001    1    1    2    0    0  0.27721227931E+03 -0.24480550674E+03 -0.91852030954E+03  0.12126235784E+04  0.70000000000E+03 0. -1.
<mgrwt>
<rscale>  0 0.16127225E+04</rscale>
<asrwt>0</asrwt>
<pdfrwt beam="1">  1        1 0.37679064E+00 0.16127225E+04</pdfrwt>
<pdfrwt beam="2">  1       -1 0.35217872E-01 0.16127225E+04</pdfrwt>
<totfact> 0.10843477E+01</totfact>
</mgrwt>
</event>
<event>
 8    1  0.3214020E-028  0.1730531E+04  0.7818608E-02  0.8744141E-01
         -1   -1    0    0    0  501 -0.00000000000E+00  0.00000000000E+00  0.34321928308E+03  0.34321928312E+03  0.50400000000E-02 0.  1.
          1   -1    0    0  501    0  0.00000000000E+00 -0.00000000000E+00 -0.21813584179E+04  0.21813584179E+04  0.50400000000E-02 0. -1.
     200001    2    1    2    0    0  0.46575206062E+03 -0.18785582635E+03 -0.10278751087E+04  0.13418932184E+04  0.70138104978E+03 0.  0.
    5000001    2    3    3    0    0  0.49420686415E+02  0.31077490014E+02 -0.12871425796E+03  0.21063115959E+03  0.15617269466E+03 0.  0.
        -13    1    4    4    0    0  0.16973148770E+02  0.58600387168E+02 -0.14398468811E+03  0.15637677171E+03  0.10566000000E+00 0. -1.
     200003    1    4    4    0    0  0.32447537645E+02 -0.27522897155E+02  0.15270430154E+02  0.54254387878E+02  0.30000000000E+02 0. -1.
     200000    1    3    3    0    0  0.41633137421E+03 -0.21893331636E+03 -0.89916085073E+03  0.11312620588E+04  0.50000000000E+03 0.  1.
    -200001    1    1    2    0    0 -0.46575206062E+03  0.18785582635E+03 -0.81026402615E+03  0.11826844827E+04  0.70000000000E+03 0. -1.
<mgrwt>
<rscale>  0 0.17305309E+04</rscale>
<asrwt>0</asrwt>
<pdfrwt beam="1">  1        1 0.31162262E+00 0.17305309E+04</pdfrwt>
<pdfrwt beam="2">  1       -1 0.49031328E-01 0.17305309E+04</pdfrwt>
<totfact> 0.11353006E+01</totfact>
</mgrwt>
</event>
<event>
 8    1  0.3214020E-028  0.2365730E+04  0.7818608E-02  0.8452446E-01
          1   -1    0    0  501    0  0.00000000000E+00  0.00000000000E+00  0.28971374131E+04  0.28971374131E+04  0.50400000000E-02 0. -1.
         -1   -1    0    0    0  501 -0.00000000000E+00 -0.00000000000E+00 -0.48294898906E+03  0.48294898909E+03  0.50400000000E-02 0.  1.
     200001    2    1    2    0    0  0.69229211152E+03 -0.30567125463E+03  0.37982558489E+03  0.10994427551E+04  0.70128711189E+03 0.  0.
    5000001    2    3    3    0    0  0.86334601647E+02 -0.92213436142E+01  0.82128495215E+02  0.20854960177E+03  0.17090684612E+03 0.  0.
        -13    1    4    4    0    0  0.12237229242E+03 -0.44776143751E+02  0.71881131091E+02  0.14881797329E+03  0.10566000000E+00 0. -1.
     200003    1    4    4    0    0 -0.36037690777E+02  0.35554800137E+02  0.10247364124E+02  0.59731628480E+02  0.30000000000E+02 0. -1.
     200000    1    3    3    0    0  0.60595750987E+03 -0.29644991102E+03  0.29769708967E+03  0.89089315336E+03  0.50000000000E+03 0. -1.
    -200001    1    1    2    0    0 -0.69229211152E+03  0.30567125463E+03  0.20343628391E+04  0.22806436470E+04  0.70000000000E+03 0.  1.
<mgrwt>
<rscale>  0 0.23657300E+04</rscale>
<asrwt>0</asrwt>
<pdfrwt beam="1">  1        1 0.41387676E+00 0.23657300E+04</pdfrwt>
<pdfrwt beam="2">  1       -1 0.68992715E-01 0.23657300E+04</pdfrwt>
<totfact> 0.19136200E+00</totfact>
</mgrwt>
</event>
<event>
 8    1  0.3214020E-028  0.1741520E+04  0.7818608E-02  0.8738032E-01
          1   -1    0    0  501    0  0.00000000000E+00  0.00000000000E+00  0.43360017955E+03  0.43360017957E+03  0.50400000000E-02 0.  1.
         -1   -1    0    0    0  501 -0.00000000000E+00 -0.00000000000E+00 -0.17486691780E+04  0.17486691780E+04  0.50400000000E-02 0. -1.
     200001    2    1    2    0    0 -0.17249020368E+03 -0.14789393434E+03 -0.12406380807E+04  0.14425630322E+04  0.70012839427E+03 0.  0.
    5000001    2    3    3    0    0 -0.29010491437E+02 -0.60144283096E+02 -0.29737143538E+03  0.36180478299E+03  0.19497175952E+03 0.  0.
        -13    1    4    4    0    0 -0.58314189561E+02 -0.11824533945E+03 -0.21891591820E+03  0.25555174703E+03  0.10566000000E+00 0. -1.
     200003    1    4    4    0    0  0.29303698124E+02  0.58101056355E+02 -0.78455517183E+02  0.10625303596E+03  0.30000000000E+02 0. -1.
     200000    1    3    3    0    0 -0.14347971225E+03 -0.87749651247E+02 -0.94326664533E+03  0.10807582492E+04  0.50000000000E+03 0. -1.
    -200001    1    1    2    0    0  0.17249020368E+03  0.14789393434E+03 -0.74430917695E+02  0.73970632530E+03  0.70000000000E+03 0.  1.
<mgrwt>
<rscale>  0 0.17415203E+04</rscale>
<asrwt>0</asrwt>
<pdfrwt beam="1">  1        1 0.61942884E-01 0.17415203E+04</pdfrwt>
<pdfrwt beam="2">  1       -1 0.24980988E+00 0.17415203E+04</pdfrwt>
<totfact> 0.39550781E+00</totfact>
</mgrwt>
</event>
<event>
 8    1  0.3214020E-028  0.1498892E+04  0.7818608E-02  0.8885190E-01
         -1   -1    0    0    0  501 -0.00000000000E+00  0.00000000000E+00  0.64895593767E+03  0.64895593769E+03  0.50400000000E-02 0. -1.
          1   -1    0    0  501    0  0.00000000000E+00 -0.00000000000E+00 -0.86549642057E+03  0.86549642058E+03  0.50400000000E-02 0.  1.
     200001    2    1    2    0    0  0.23955216057E+02  0.20790403372E+03 -0.28384957582E+03  0.78074366021E+03  0.69655734987E+03 0.  0.
    5000001    2    3    3    0    0  0.91224594272E+01  0.82371320106E+02  0.17348233662E+02  0.18350116902E+03  0.16279884575E+03 0.  0.
        -13    1    4    4    0    0 -0.50858433905E+02 -0.16809508201E+02  0.32757026169E+02  0.62786732617E+02  0.10566000000E+00 0. -1.
     200003    1    4    4    0    0  0.59980893332E+02  0.99180828307E+02 -0.15408792508E+02  0.12071443640E+03  0.30000000000E+02 0. -1.
     200000    1    3    3    0    0  0.14832756630E+02  0.12553271362E+03 -0.30119780948E+03  0.59724249120E+03  0.50000000000E+03 0.  1.
    -200001    1    1    2    0    0 -0.23955216057E+02 -0.20790403372E+03  0.67309092921E+02  0.73370869806E+03  0.70000000000E+03 0. -1.
<mgrwt>
<rscale>  0 0.14988916E+04</rscale>
<asrwt>0</asrwt>
<pdfrwt beam="1">  1        1 0.12364235E+00 0.14988916E+04</pdfrwt>
<pdfrwt beam="2">  1       -1 0.92707991E-01 0.14988916E+04</pdfrwt>
<totfact> 0.24083680E+01</totfact>
</mgrwt>
</event>
<event>
 8    1  0.3214020E-028  0.2229058E+04  0.7818608E-02  0.8506430E-01
          1   -1    0    0  501    0  0.00000000000E+00  0.00000000000E+00  0.18122058881E+04  0.18122058881E+04  0.50400000000E-02 0.  1.
         -1   -1    0    0    0  501 -0.00000000000E+00 -0.00000000000E+00 -0.68544917367E+03  0.68544917369E+03  0.50400000000E-02 0. -1.
     200001    2    1    2    0    0  0.50065892296E+03 -0.36057137665E+02  0.13557723967E+04  0.16063595681E+04  0.70022339003E+03 0.  0.
    5000001    2    3    3    0    0  0.19881071471E+03 -0.62131995249E+02  0.52111349857E+03  0.58731701976E+03  0.17319329720E+03 0.  0.
        -13    1    4    4    0    0  0.33889953404E+02 -0.27867489832E+02  0.56964717140E+01  0.44244625496E+02  0.10566000000E+00 0. -1.
     200003    1    4    4    0    0  0.16492076130E+03 -0.34264505416E+02  0.51541702686E+03  0.54307239427E+03  0.30000000000E+02 0. -1.
     200000    1    3    3    0    0  0.30184820825E+03  0.26074857583E+02  0.83465889815E+03  0.10190425483E+04  0.50000000000E+03 0.  1.
    -200001    1    1    2    0    0 -0.50065892296E+03  0.36057137665E+02 -0.22901568233E+03  0.89129549369E+03  0.70000000000E+03 0.  1.
<mgrwt>
<rscale>  0 0.22290581E+04</rscale>
<asrwt>0</asrwt>
<pdfrwt beam="1">  1        1 0.25888656E+00 0.22290581E+04</pdfrwt>
<pdfrwt beam="2">  1       -1 0.97921310E-01 0.22290581E+04</pdfrwt>
<totfact> 0.44746884E+00</totfact>
</mgrwt>
</event>
<event>
 8    1  0.3214020E-028  0.2281949E+04  0.7818608E-02  0.8485073E-01
          1   -1    0    0  501    0  0.00000000000E+00  0.00000000000E+00  0.15265518891E+04  0.15265518891E+04  0.50400000000E-02 0.  1.
         -1   -1    0    0    0  501 -0.00000000000E+00 -0.00000000000E+00 -0.85278648630E+03  0.85278648631E+03  0.50400000000E-02 0. -1.
     200001    2    1    2    0    0 -0.37259696198E+03  0.14417669082E+03  0.11791487506E+04  0.14280089150E+04  0.69942996152E+03 0.  0.
    5000001    2    3    3    0    0 -0.83979267598E+02  0.51264503830E+02  0.24638643289E+03  0.32711001442E+03  0.19134816561E+03 0.  0.
        -13    1    4    4    0    0  0.18878995244E+02  0.10227993763E+02 -0.24709154575E+02  0.32735024082E+02  0.10566000000E+00 0. -1.
     200003    1    4    4    0    0 -0.10285826284E+03  0.41036510067E+02  0.27109558746E+03  0.29437499033E+03  0.30000000000E+02 0. -1.
     200000    1    3    3    0    0 -0.28861769438E+03  0.92912186987E+02  0.93276231767E+03  0.11008989006E+04  0.50000000000E+03 0.  1.
    -200001    1    1    2    0    0  0.37259696198E+03 -0.14417669082E+03 -0.50538334771E+03  0.95132946049E+03  0.70000000000E+03 0. -1.
<mgrwt>
<rscale>  0 0.22819490E+04</rscale>
<asrwt>0</asrwt>
<pdfrwt beam="1">  1        1 0.21807884E+00 0.22819490E+04</pdfrwt>
<pdfrwt beam="2">  1       -1 0.12182664E+00 0.22819490E+04</pdfrwt>
<totfact> 0.40549455E+00</totfact>
</mgrwt>
</event>
<event>
 8    1  0.3214020E-028  0.2055809E+04  0.7818608E-02  0.8580964E-01
         -1   -1    0    0    0  501 -0.00000000000E+00  0.00000000000E+00  0.46429537107E+03  0.46429537109E+03  0.50400000000E-02 0. -1.
          1   -1    0    0  501    0  0.00000000000E+00 -0.00000000000E+00 -0.22756798203E+04  0.22756798203E+04  0.50400000000E-02 0.  1.
     200001    2    1    2    0    0 -0.44701151035E+02  0.74524951728E+03 -0.84125116965E+03  0.13298143438E+04  0.70944176832E+03 0.  0.
    5000001    2    3    3    0    0  0.41438597810E+02  0.13881853850E+03 -0.18142370119E+03  0.29998383519E+03  0.18996841316E+03 0.  0.
        -13    1    4    4    0    0  0.11020498571E+03  0.11697902279E+03 -0.12496749063E+03  0.20358319067E+03  0.10566000000E+00 0. -1.
     200003    1    4    4    0    0 -0.68766387898E+02  0.21839515719E+02 -0.56456210565E+02  0.96400644514E+02  0.30000000000E+02 0. -1.
     200000    1    3    3    0    0 -0.86139748845E+02  0.60643097877E+03 -0.65982746845E+03  0.10298305086E+04  0.50000000000E+03 0. -1.
    -200001    1    1    2    0    0  0.44701151035E+02 -0.74524951728E+03 -0.97013327954E+03  0.14101608476E+04  0.70000000000E+03 0.  1.
<mgrwt>
<rscale>  0 0.20558089E+04</rscale>
<asrwt>0</asrwt>
<pdfrwt beam="1">  1        1 0.32509711E+00 0.20558089E+04</pdfrwt>
<pdfrwt beam="2">  1       -1 0.66327912E-01 0.20558089E+04</pdfrwt>
<totfact> 0.53289139E+00</totfact>
</mgrwt>
</event>
<event>
 8    1  0.3214020E-028  0.1899640E+04  0.7818608E-02  0.8655036E-01
         -1   -1    0    0    0  501 -0.00000000000E+00  0.00000000000E+00  0.53848140796E+03  0.53848140799E+03  0.50400000000E-02 0. -1.
          1   -1    0    0  501    0  0.00000000000E+00 -0.00000000000E+00 -0.16753738501E+04  0.16753738502E+04  0.50400000000E-02 0.  1.
     200001    2    1    2    0    0 -0.44108147778E+03  0.46300135922E+03 -0.50886898431E+03  0.10766056847E+04  0.70086305969E+03 0.  0.
    5000001    2    3    3    0    0 -0.20718652857E+03  0.18816162613E+03 -0.18522600002E+03  0.38019452207E+03  0.17862852056E+03 0.  0.
        -13    1    4    4    0    0  0.12220358243E+02  0.70866379250E+02 -0.61162434544E+01  0.72172019936E+02  0.10566000000E+00 0. -1.
     200003    1    4    4    0    0 -0.21940688681E+03  0.11729524688E+03 -0.17910975656E+03  0.30802250213E+03  0.30000000000E+02 0. -1.
     200000    1    3    3    0    0 -0.23389494921E+03  0.27483973308E+03 -0.32364298429E+03  0.69641116262E+03  0.50000000000E+03 0. -1.
    -200001    1    1    2    0    0  0.44108147778E+03 -0.46300135922E+03 -0.62802345788E+03  0.11372495735E+04  0.70000000000E+03 0.  1.
<mgrwt>
<rscale>  0 0.18996396E+04</rscale>
<asrwt>0</asrwt>
<pdfrwt beam="1">  1        1 0.23933912E+00 0.18996396E+04</pdfrwt>
<pdfrwt beam="2">  1       -1 0.76925916E-01 0.18996396E+04</pdfrwt>
<totfact> 0.95282966E+00</totfact>
</mgrwt>
</event>
<event>
 8    1  0.3214020E-028  0.1430000E+04  0.7818608E-02  0.8932385E-01
         -1   -1    0    0    0  501 -0.00000000000E+00  0.00000000000E+00  0.14099158878E+04  0.14099158879E+04  0.50400000000E-02 0. -1.
          1   -1    0    0  501    0  0.00000000000E+00 -0.00000000000E+00 -0.36259231386E+03  0.36259231390E+03  0.50400000000E-02 0.  1.
     200001    2    1    2    0    0 -0.20582809117E+02  0.10839971584E+03  0.40805643194E+03  0.81813058816E+03  0.70046659964E+03 0.  0.
    5000001    2    3    3    0    0  0.84271488299E+02  0.10260302070E+03  0.16398806633E+03  0.25191738410E+03  0.13762710096E+03 0.  0.
        -13    1    4    4    0    0 -0.30607355488E+02  0.55169217874E+02  0.47778171047E+02  0.79140492818E+02  0.10566000000E+00 0. -1.
     200003    1    4    4    0    0  0.11487884379E+03  0.47433802822E+02  0.11620989529E+03  0.17277689129E+03  0.30000000000E+02 0. -1.
     200000    1    3    3    0    0 -0.10485429742E+03  0.57966951484E+01  0.24406836561E+03  0.56621320406E+03  0.50000000000E+03 0.  1.
    -200001    1    1    2    0    0  0.20582809117E+02 -0.10839971584E+03  0.63926714204E+03  0.95437761359E+03  0.70000000000E+03 0.  1.
<mgrwt>
<rscale>  0 0.14299995E+04</rscale>
<asrwt>0</asrwt>
<pdfrwt beam="1">  1        1 0.51798901E-01 0.14299995E+04</pdfrwt>
<pdfrwt beam="2">  1       -1 0.20141656E+00 0.14299995E+04</pdfrwt>
<totfact> 0.10805773E+01</totfact>
</mgrwt>
</event>
<event>
 8    1  0.3214020E-028  0.1550647E+04  0.7818608E-02  0.8851454E-01
          1   -1    0    0  501    0  0.00000000000E+00  0.00000000000E+00  0.64148192756E+03  0.64148192758E+03  0.50400000000E-02 0. -1.
         -1   -1    0    0    0  501 -0.00000000000E+00 -0.00000000000E+00 -0.93709067943E+03  0.93709067945E+03  0.50400000000E-02 0.  1.
     200001    2    1    2    0    0  0.11777168259E+03  0.20284073371E+03  0.92503609635E+02  0.74451880922E+03  0.70052609303E+03 0.  0.
    5000001    2    3    3    0    0  0.66045439388E+02  0.40032082860E+02  0.13257155771E+03  0.21462476180E+03  0.15007998781E+03 0.  0.
        -13    1    4    4    0    0  0.53671439960E+02  0.65452809306E+02  0.14809328866E+03  0.17057645507E+03  0.10566000000E+00 0. -1.
     200003    1    4    4    0    0  0.12373999428E+02 -0.25420726446E+02 -0.15521730944E+02  0.44048306737E+02  0.30000000000E+02 0. -1.
     200000    1    3    3    0    0  0.51726243207E+02  0.16280865085E+03 -0.40067948079E+02  0.52989404742E+03  0.50000000000E+03 0. -1.
    -200001    1    1    2    0    0 -0.11777168259E+03 -0.20284073371E+03 -0.38811236151E+03  0.83405379780E+03  0.70000000000E+03 0.  1.
<mgrwt>
<rscale>  0 0.15506473E+04</rscale>
<asrwt>0</asrwt>
<pdfrwt beam="1">  1        1 0.91640276E-01 0.15506473E+04</pdfrwt>
<pdfrwt beam="2">  1       -1 0.13387010E+00 0.15506473E+04</pdfrwt>
<totfact> 0.15739756E+01</totfact>
</mgrwt>
</event>
<event>
 8    1  0.3214020E-028  0.2224212E+04  0.7818608E-02  0.8508418E-01
          1   -1    0    0  501    0  0.00000000000E+00  0.00000000000E+00  0.15216463417E+04  0.15216463417E+04  0.50400000000E-02 0.  1.
         -1   -1    0    0    0  501 -0.00000000000E+00 -0.00000000000E+00 -0.81279044301E+03  0.81279044302E+03  0.50400000000E-02 0. -1.
     200001    2    1    2    0    0 -0.74582330228E+03 -0.42986828927E+03  0.27286282838E+03  0.11423255895E+04  0.69958165003E+03 0.  0.
    5000001    2    3    3    0    0 -0.22109448835E+03 -0.68101575689E+02  0.70716906881E+02  0.30741334457E+03  0.18968786495E+03 0.  0.
        -13    1    4    4    0    0 -0.13046927548E+03  0.10147108067E+02  0.11704743700E+03  0.17557137955E+03  0.10566000000E+00 0. -1.
     200003    1    4    4    0    0 -0.90625212877E+02 -0.78248683756E+02 -0.46330530122E+02  0.13184196502E+03  0.30000000000E+02 0. -1.
     200000    1    3    3    0    0 -0.52472881393E+03 -0.36176671358E+03  0.20214592150E+03  0.83491224497E+03  0.50000000000E+03 0.  1.
    -200001    1    1    2    0    0  0.74582330228E+03  0.42986828927E+03  0.43599307032E+03  0.11921111952E+04  0.70000000000E+03 0.  1.
<mgrwt>
<rscale>  0 0.22242119E+04</rscale>
<asrwt>0</asrwt>
<pdfrwt beam="1">  1        1 0.21737805E+00 0.22242119E+04</pdfrwt>
<pdfrwt beam="2">  1       -1 0.11611292E+00 0.22242119E+04</pdfrwt>
<totfact> 0.46147915E+00</totfact>
</mgrwt>
</event>
<event>
 8    1  0.3214020E-028  0.1464497E+04  0.7818608E-02  0.8908411E-01
          1   -1    0    0  501    0  0.00000000000E+00  0.00000000000E+00  0.87091777839E+03  0.87091777840E+03  0.50400000000E-02 0.  1.
         -1   -1    0    0    0  501 -0.00000000000E+00 -0.00000000000E+00 -0.61565876461E+03  0.61565876463E+03  0.50400000000E-02 0. -1.
     200001    2    1    2    0    0  0.11120879915E+03 -0.18990632559E+03  0.15499006266E+03  0.74597835774E+03  0.69572263237E+03 0.  0.
    5000001    2    3    3    0    0  0.56532085650E+02 -0.40927877032E+02 -0.40419167584E+02  0.18618474542E+03  0.16780966149E+03 0.  0.
        -13    1    4    4    0    0  0.27519233776E+02  0.39477136864E+02  0.41878722051E+02  0.63793346732E+02  0.10566000000E+00 0. -1.
     200003    1    4    4    0    0  0.29012851874E+02 -0.80405013895E+02 -0.82297889635E+02  0.12239139868E+03  0.30000000000E+02 0. -1.
     200000    1    3    3    0    0  0.54676713499E+02 -0.14897844855E+03  0.19540923025E+03  0.55979361232E+03  0.50000000000E+03 0.  1.
    -200001    1    1    2    0    0 -0.11120879915E+03  0.18990632559E+03  0.10026895112E+03  0.74059818530E+03  0.70000000000E+03 0.  1.
<mgrwt>
<rscale>  0 0.14644974E+04</rscale>
<asrwt>0</asrwt>
<pdfrwt beam="1">  1        1 0.12441683E+00 0.14644974E+04</pdfrwt>
<pdfrwt beam="2">  1       -1 0.87951252E-01 0.14644974E+04</pdfrwt>
<totfact> 0.26859175E+01</totfact>
</mgrwt>
</event>
<event>
 8    1  0.3214020E-028  0.1804694E+04  0.7818608E-02  0.8703807E-01
          1   -1    0    0  501    0  0.00000000000E+00  0.00000000000E+00  0.73435621311E+03  0.73435621312E+03  0.50400000000E-02 0.  1.
         -1   -1    0    0    0  501 -0.00000000000E+00 -0.00000000000E+00 -0.11087668117E+04  0.11087668117E+04  0.50400000000E-02 0. -1.
     200001    2    1    2    0    0  0.56765513355E+03  0.32727084578E+02 -0.23181287159E+03  0.93008549852E+03  0.69858314782E+03 0.  0.
    5000001    2    3    3    0    0  0.32438552136E+03  0.27142117654E+02 -0.32186862355E+02  0.33927094248E+03  0.90033978482E+02 0.  0.
        -13    1    4    4    0    0  0.34412939761E+02 -0.19556990681E+02  0.10532240438E+02  0.40959315914E+02  0.10566000000E+00 0. -1.
     200003    1    4    4    0    0  0.28997258160E+03  0.46699108335E+02 -0.42719102793E+02  0.29831162656E+03  0.30000000000E+02 0. -1.
     200000    1    3    3    0    0  0.24326961218E+03  0.55849669236E+01 -0.19962600923E+03  0.59081455604E+03  0.50000000000E+03 0. -1.
    -200001    1    1    2    0    0 -0.56765513355E+03 -0.32727084578E+02 -0.14259772700E+03  0.91303752631E+03  0.70000000000E+03 0. -1.
<mgrwt>
<rscale>  0 0.18046937E+04</rscale>
<asrwt>0</asrwt>
<pdfrwt beam="1">  1        1 0.10490803E+00 0.18046937E+04</pdfrwt>
<pdfrwt beam="2">  1       -1 0.15839526E+00 0.18046937E+04</pdfrwt>
<totfact> 0.80670697E+00</totfact>
</mgrwt>
</event>
<event>
 8    1  0.3214020E-028  0.1469129E+04  0.7818608E-02  0.8905245E-01
          1   -1    0    0  501    0  0.00000000000E+00  0.00000000000E+00  0.15248690737E+04  0.15248690737E+04  0.50400000000E-02 0.  1.
         -1   -1    0    0    0  501 -0.00000000000E+00 -0.00000000000E+00 -0.35385656039E+03  0.35385656043E+03  0.50400000000E-02 0. -1.
     200001    2    1    2    0    0  0.28733604044E+02 -0.53608659160E+02  0.31163017695E+03  0.76866369514E+03  0.70002214301E+03 0.  0.
    5000001    2    3    3    0    0  0.42820342015E+00  0.90417068562E+01  0.13622489501E+03  0.23434798604E+03  0.19047262459E+03 0.  0.
        -13    1    4    4    0    0  0.23235088584E+02  0.80665036983E+02  0.10184039808E+02  0.84560294251E+02  0.10566000000E+00 0. -1.
     200003    1    4    4    0    0 -0.22806885164E+02 -0.71623330127E+02  0.12604085521E+03  0.14978769179E+03  0.30000000000E+02 0. -1.
     200000    1    3    3    0    0  0.28305400624E+02 -0.62650366016E+02  0.17540528193E+03  0.53431570910E+03  0.50000000000E+03 0. -1.
    -200001    1    1    2    0    0 -0.28733604044E+02  0.53608659160E+02  0.85938233633E+03  0.11100619390E+04  0.70000000000E+03 0.  1.
<mgrwt>
<rscale>  0 0.14691289E+04</rscale>
<asrwt>0</asrwt>
<pdfrwt beam="1">  1        1 0.21783844E+00 0.14691289E+04</pdfrwt>
<pdfrwt beam="2">  1       -1 0.50550937E-01 0.14691289E+04</pdfrwt>
<totfact> 0.28586112E+01</totfact>
</mgrwt>
</event>
<event>
 8    1  0.3214020E-028  0.1504125E+04  0.7818608E-02  0.8881715E-01
         -1   -1    0    0    0  501 -0.00000000000E+00  0.00000000000E+00  0.10476725962E+04  0.10476725962E+04  0.50400000000E-02 0. -1.
          1   -1    0    0  501    0  0.00000000000E+00 -0.00000000000E+00 -0.53986129615E+03  0.53986129617E+03  0.50400000000E-02 0.  1.
     200001    2    1    2    0    0  0.11786038168E+03  0.24212000327E+03  0.19149944397E+03  0.77355210153E+03  0.69942665891E+03 0.  0.
    5000001    2    3    3    0    0  0.14852452979E+02  0.13109125053E+03  0.15921323119E+03  0.25012071458E+03  0.14073381808E+03 0.  0.
        -13    1    4    4    0    0  0.55984112678E+01  0.13845477541E+03  0.16694474905E+03  0.21695996738E+03  0.10566000000E+00 0. -1.
     200003    1    4    4    0    0  0.92540417115E+01 -0.73635248802E+01 -0.77315178650E+01  0.33160747204E+02  0.30000000000E+02 0. -1.
     200000    1    3    3    0    0  0.10300792870E+03  0.11102875274E+03  0.32286212783E+02  0.52343138695E+03  0.50000000000E+03 0. -1.
    -200001    1    1    2    0    0 -0.11786038168E+03 -0.24212000327E+03  0.31631185608E+03  0.81398179086E+03  0.70000000000E+03 0.  1.
<mgrwt>
<rscale>  0 0.15041248E+04</rscale>
<asrwt>0</asrwt>
<pdfrwt beam="1">  1        1 0.77123042E-01 0.15041248E+04</pdfrwt>
<pdfrwt beam="2">  1       -1 0.14966751E+00 0.15041248E+04</pdfrwt>
<totfact> 0.15027065E+01</totfact>
</mgrwt>
</event>
<event>
 8    1  0.3214020E-028  0.1597575E+04  0.7818608E-02  0.8822039E-01
         -1   -1    0    0    0  501 -0.00000000000E+00  0.00000000000E+00  0.95335798734E+03  0.95335798735E+03  0.50400000000E-02 0. -1.
          1   -1    0    0  501    0  0.00000000000E+00 -0.00000000000E+00 -0.66927778329E+03  0.66927778331E+03  0.50400000000E-02 0.  1.
     200001    2    1    2    0    0 -0.17672312812E+03 -0.24147460354E+03  0.38805749932E+03  0.85429188535E+03  0.69977493127E+03 0.  0.
    5000001    2    3    3    0    0 -0.44691610970E+02 -0.43505399627E+02  0.17444961089E+03  0.26078328624E+03  0.18353527115E+03 0.  0.
        -13    1    4    4    0    0 -0.69734548033E+02 -0.51666345735E+02  0.52607955419E+01  0.86948292708E+02  0.10566000000E+00 0. -1.
     200003    1    4    4    0    0  0.25042937063E+02  0.81609461084E+01  0.16918881535E+03  0.17383499353E+03  0.30000000000E+02 0. -1.
     200000    1    3    3    0    0 -0.13203151715E+03 -0.19796920391E+03  0.21360788844E+03  0.59350859911E+03  0.50000000000E+03 0.  1.
    -200001    1    1    2    0    0  0.17672312812E+03  0.24147460354E+03 -0.10397729527E+03  0.76834388531E+03  0.70000000000E+03 0.  1.
<mgrwt>
<rscale>  0 0.15975748E+04</rscale>
<asrwt>0</asrwt>
<pdfrwt beam="1">  1        1 0.95611112E-01 0.15975748E+04</pdfrwt>
<pdfrwt beam="2">  1       -1 0.13619400E+00 0.15975748E+04</pdfrwt>
<totfact> 0.14106830E+01</totfact>
</mgrwt>
</event>
<event>
 8    1  0.3214020E-028  0.1514482E+04  0.7818608E-02  0.8874879E-01
          1   -1    0    0  501    0  0.00000000000E+00  0.00000000000E+00  0.15093221893E+04  0.15093221893E+04  0.50400000000E-02 0.  1.
         -1   -1    0    0    0  501 -0.00000000000E+00 -0.00000000000E+00 -0.37991509218E+03  0.37991509221E+03  0.50400000000E-02 0. -1.
     200001    2    1    2    0    0  0.27489974587E+02 -0.26248871942E+03  0.41559351589E+03  0.85522284482E+03  0.69930831350E+03 0.  0.
    5000001    2    3    3    0    0  0.12811413702E+03 -0.49690789821E+02  0.80185856966E+02  0.20876597962E+03  0.13517046974E+03 0.  0.
        -13    1    4    4    0    0 -0.12180993300E+02  0.94314081991E+01  0.47839709804E+02  0.50259099242E+02  0.10566000000E+00 0. -1.
     200003    1    4    4    0    0  0.14029513032E+03 -0.59122198020E+02  0.32346147162E+02  0.15850688037E+03  0.30000000000E+02 0. -1.
     200000    1    3    3    0    0 -0.10062416243E+03 -0.21279792960E+03  0.33540765893E+03  0.64645686521E+03  0.50000000000E+03 0. -1.
    -200001    1    1    2    0    0 -0.27489974587E+02  0.26248871942E+03  0.71381358120E+03  0.10340144367E+04  0.70000000000E+03 0.  1.
<mgrwt>
<rscale>  0 0.15144825E+04</rscale>
<asrwt>0</asrwt>
<pdfrwt beam="1">  1        1 0.21561746E+00 0.15144825E+04</pdfrwt>
<pdfrwt beam="2">  1       -1 0.54273584E-01 0.15144825E+04</pdfrwt>
<totfact> 0.25435713E+01</totfact>
</mgrwt>
</event>
<event>
 8    1  0.3214020E-028  0.1467288E+04  0.7818608E-02  0.8906503E-01
         -1   -1    0    0    0  501 -0.00000000000E+00  0.00000000000E+00  0.64931243682E+03  0.64931243684E+03  0.50400000000E-02 0. -1.
          1   -1    0    0  501    0  0.00000000000E+00 -0.00000000000E+00 -0.82892788956E+03  0.82892788958E+03  0.50400000000E-02 0.  1.
     200001    2    1    2    0    0 -0.19669516207E+03 -0.66726143301E+02 -0.16227989281E+03  0.74786926550E+03  0.69988021096E+03 0.  0.
    5000001    2    3    3    0    0 -0.10169267940E+03  0.79049706352E+01  0.36055536675E+01  0.20739423719E+03  0.18054218343E+03 0.  0.
        -13    1    4    4    0    0 -0.72271390465E+02 -0.31291353511E+02 -0.75847337317E+02  0.10933952820E+03  0.10566000000E+00 0. -1.
     200003    1    4    4    0    0 -0.29421288939E+02  0.39196324146E+02  0.79452890984E+02  0.98054708990E+02  0.30000000000E+02 0.  1.
     200000    1    3    3    0    0 -0.95002482667E+02 -0.74631113936E+02 -0.16588544648E+03  0.54047502832E+03  0.50000000000E+03 0.  1.
    -200001    1    1    2    0    0  0.19669516207E+03  0.66726143301E+02 -0.17335559930E+02  0.73037106091E+03  0.70000000000E+03 0.  1.
<mgrwt>
<rscale>  0 0.14672875E+04</rscale>
<asrwt>0</asrwt>
<pdfrwt beam="1">  1        1 0.11841827E+00 0.14672875E+04</pdfrwt>
<pdfrwt beam="2">  1       -1 0.92758920E-01 0.14672875E+04</pdfrwt>
<totfact> 0.25833987E+01</totfact>
</mgrwt>
</event>
<event>
 8    1  0.3214020E-028  0.1860820E+04  0.7818608E-02  0.8674608E-01
          1   -1    0    0  501    0  0.00000000000E+00  0.00000000000E+00  0.58620078359E+03  0.58620078361E+03  0.50400000000E-02 0.  1.
         -1   -1    0    0    0  501 -0.00000000000E+00 -0.00000000000E+00 -0.14767343279E+04  0.14767343279E+04  0.50400000000E-02 0. -1.
     200001    2    1    2    0    0 -0.21466955876E+03  0.20363876543E+03 -0.10401298291E+04  0.12883831025E+04  0.70036361366E+03 0.  0.
    5000001    2    3    3    0    0 -0.11642667196E+03  0.14603612630E+03 -0.31872697566E+03  0.40328886702E+03  0.16178165879E+03 0.  0.
        -13    1    4    4    0    0 -0.33814933421E+02  0.34809345561E+02 -0.23217889664E+03  0.23719652499E+03  0.10566000000E+00 0. -1.
     200003    1    4    4    0    0 -0.82611738542E+02  0.11122678074E+03 -0.86548079021E+02  0.16609234203E+03  0.30000000000E+02 0. -1.
     200000    1    3    3    0    0 -0.98242886797E+02  0.57602639137E+02 -0.72140285342E+03  0.88509423552E+03  0.50000000000E+03 0. -1.
    -200001    1    1    2    0    0  0.21466955876E+03 -0.20363876543E+03  0.14959628473E+03  0.77455200900E+03  0.70000000000E+03 0.  1.
<mgrwt>
<rscale>  0 0.18608201E+04</rscale>
<asrwt>0</asrwt>
<pdfrwt beam="1">  1        1 0.83742970E-01 0.18608201E+04</pdfrwt>
<pdfrwt beam="2">  1       -1 0.21096205E+00 0.18608201E+04</pdfrwt>
<totfact> 0.46956960E+00</totfact>
</mgrwt>
</event>
<event>
 8    1  0.3214020E-028  0.1846577E+04  0.7818608E-02  0.8681915E-01
          1   -1    0    0  501    0  0.00000000000E+00  0.00000000000E+00  0.15620375479E+04  0.15620375479E+04  0.50400000000E-02 0.  1.
         -1   -1    0    0    0  501 -0.00000000000E+00 -0.00000000000E+00 -0.54573721254E+03  0.54573721257E+03  0.50400000000E-02 0. -1.
     200001    2    1    2    0    0  0.83537727252E+01  0.48577965971E+02 -0.17817602730E+03  0.72242159783E+03  0.69836714128E+03 0.  0.
    5000001    2    3    3    0    0 -0.76925328595E+01  0.52536873443E+02 -0.24031743250E+02  0.19893939453E+03  0.19021056721E+03 0.  0.
        -13    1    4    4    0    0 -0.44759182758E+02  0.10875910042E+02 -0.93935004928E+02  0.10462058199E+03  0.10566000000E+00 0. -1.
     200003    1    4    4    0    0  0.37066649899E+02  0.41660963402E+02  0.69903261678E+02  0.94318812543E+02  0.30000000000E+02 0. -1.
     200000    1    3    3    0    0  0.16046305585E+02 -0.39589074724E+01 -0.15414428405E+03  0.52348220330E+03  0.50000000000E+03 0. -1.
    -200001    1    1    2    0    0 -0.83537727252E+01 -0.48577965971E+02  0.11944763626E+04  0.13853531626E+04  0.70000000000E+03 0.  1.
<mgrwt>
<rscale>  0 0.18465774E+04</rscale>
<asrwt>0</asrwt>
<pdfrwt beam="1">  1        1 0.22314822E+00 0.18465774E+04</pdfrwt>
<pdfrwt beam="2">  1       -1 0.77962459E-01 0.18465774E+04</pdfrwt>
<totfact> 0.11006899E+01</totfact>
</mgrwt>
</event>
<event>
 8    1  0.3214020E-028  0.1507241E+04  0.7818608E-02  0.8879652E-01
         -1   -1    0    0    0  501 -0.00000000000E+00  0.00000000000E+00  0.20034296840E+03  0.20034296847E+03  0.50400000000E-02 0. -1.
          1   -1    0    0  501    0  0.00000000000E+00 -0.00000000000E+00 -0.28348565736E+04  0.28348565736E+04  0.50400000000E-02 0.  1.
     200001    2    1    2    0    0  0.23310733243E+03 -0.67501721822E+02 -0.10423447712E+04  0.12790967243E+04  0.70050717128E+03 0.  0.
    5000001    2    3    3    0    0  0.74564113199E+02  0.14145007508E+02 -0.31283683972E+03  0.37688612639E+03  0.19600095857E+03 0.  0.
        -13    1    4    4    0    0  0.11965075991E+03 -0.31677726040E+02 -0.26151874725E+03  0.28933000018E+03  0.10566000000E+00 0. -1.
     200003    1    4    4    0    0 -0.45086646715E+02  0.45822733548E+02 -0.51318092469E+02  0.87556126207E+02  0.30000000000E+02 0. -1.
     200000    1    3    3    0    0  0.15854321923E+03 -0.81646729330E+02 -0.72950793151E+03  0.90221059787E+03  0.50000000000E+03 0. -1.
    -200001    1    1    2    0    0 -0.23310733243E+03  0.67501721822E+02 -0.15921688340E+04  0.17561028178E+04  0.70000000000E+03 0.  1.
<mgrwt>
<rscale>  0 0.15072406E+04</rscale>
<asrwt>0</asrwt>
<pdfrwt beam="1">  1        1 0.40497949E+00 0.15072406E+04</pdfrwt>
<pdfrwt beam="2">  1       -1 0.28620426E-01 0.15072406E+04</pdfrwt>
<totfact> 0.11785532E+01</totfact>
</mgrwt>
</event>
<event>
 8    1  0.3214020E-028  0.2126889E+04  0.7818608E-02  0.8549490E-01
          1   -1    0    0  501    0  0.00000000000E+00  0.00000000000E+00  0.26235599963E+04  0.26235599963E+04  0.50400000000E-02 0.  1.
         -1   -1    0    0    0  501 -0.00000000000E+00 -0.00000000000E+00 -0.43106074267E+03  0.43106074270E+03  0.50400000000E-02 0. -1.
     200001    2    1    2    0    0 -0.14840472095E+03  0.58637666375E+02 -0.32780954513E+02  0.71638757230E+03  0.69762040226E+03 0.  0.
    5000001    2    3    3    0    0  0.60232875429E+02  0.11577572545E+02  0.41339679654E+02  0.16753589155E+03  0.15032387161E+03 0.  0.
        -13    1    4    4    0    0  0.77309924746E+02  0.57656481496E+02 -0.36544598329E+00  0.96442931506E+02  0.10566000000E+00 0. -1.
     200003    1    4    4    0    0 -0.17077049317E+02 -0.46078908951E+02  0.41705125638E+02  0.71092960045E+02  0.30000000000E+02 0. -1.
     200000    1    3    3    0    0 -0.20863759638E+03  0.47060093831E+02 -0.74120634167E+02  0.54885168075E+03  0.50000000000E+03 0. -1.
    -200001    1    1    2    0    0  0.14840472095E+03 -0.58637666375E+02  0.22252802081E+04  0.23382331667E+04  0.70000000000E+03 0.  1.
<mgrwt>
<rscale>  0 0.21268885E+04</rscale>
<asrwt>0</asrwt>
<pdfrwt beam="1">  1        1 0.37479428E+00 0.21268885E+04</pdfrwt>
<pdfrwt beam="2">  1       -1 0.61580107E-01 0.21268885E+04</pdfrwt>
<totfact> 0.36955525E+00</totfact>
</mgrwt>
</event>
<event>
 8    1  0.3214020E-028  0.2294823E+04  0.7818608E-02  0.8479965E-01
          1   -1    0    0  501    0  0.00000000000E+00  0.00000000000E+00  0.10808702422E+04  0.10808702422E+04  0.50400000000E-02 0.  1.
         -1   -1    0    0    0  501 -0.00000000000E+00 -0.00000000000E+00 -0.12180495148E+04  0.12180495148E+04  0.50400000000E-02 0. -1.
     200001    2    1    2    0    0  0.77975757378E+03  0.24457613228E+03  0.33066280058E+03  0.11255845262E+04  0.69983089356E+03 0.  0.
    5000001    2    3    3    0    0  0.28859104046E+03 -0.36961227696E+01 -0.94589540850E+01  0.30792537712E+03  0.10691172108E+03 0.  0.
        -13    1    4    4    0    0  0.10505421989E+03 -0.48384666210E+01  0.44629481101E+02  0.11424360649E+03  0.10566000000E+00 0. -1.
     200003    1    4    4    0    0  0.18353682056E+03  0.11423438514E+01 -0.54088435186E+02  0.19368177063E+03  0.30000000000E+02 0. -1.
     200000    1    3    3    0    0  0.49116653332E+03  0.24827225505E+03  0.34012175467E+03  0.81765914908E+03  0.50000000000E+03 0.  1.
    -200001    1    1    2    0    0 -0.77975757378E+03 -0.24457613228E+03 -0.46784207324E+03  0.11733352308E+04  0.70000000000E+03 0. -1.
<mgrwt>
<rscale>  0 0.22948233E+04</rscale>
<asrwt>0</asrwt>
<pdfrwt beam="1">  1        1 0.15441004E+00 0.22948233E+04</pdfrwt>
<pdfrwt beam="2">  1       -1 0.17400707E+00 0.22948233E+04</pdfrwt>
<totfact> 0.31439166E+00</totfact>
</mgrwt>
</event>
<event>
 8    1  0.3214020E-028  0.1550550E+04  0.7818608E-02  0.8851517E-01
          1   -1    0    0  501    0  0.00000000000E+00  0.00000000000E+00  0.49478086832E+03  0.49478086835E+03  0.50400000000E-02 0.  1.
         -1   -1    0    0    0  501 -0.00000000000E+00 -0.00000000000E+00 -0.12147823337E+04  0.12147823337E+04  0.50400000000E-02 0. -1.
     200001    2    1    2    0    0  0.30084006217E+03 -0.43312147562E+02 -0.50759762892E+03  0.91741670367E+03  0.70115431266E+03 0.  0.
    5000001    2    3    3    0    0 -0.39549947400E+01  0.86381516170E+02 -0.15456678233E+03  0.22146321976E+03  0.13295735853E+03 0.  0.
        -13    1    4    4    0    0 -0.41723694614E+02 -0.73344299845E+00 -0.53494688469E+01  0.42071755512E+02  0.10566000000E+00 0. -1.
     200003    1    4    4    0    0  0.37768699874E+02  0.87114959169E+02 -0.14921731348E+03  0.17939146425E+03  0.30000000000E+02 0. -1.
     200000    1    3    3    0    0  0.30479505691E+03 -0.12969366373E+03 -0.35303084658E+03  0.69595348391E+03  0.50000000000E+03 0.  1.
    -200001    1    1    2    0    0 -0.30084006217E+03  0.43312147562E+02 -0.21240383643E+03  0.79214649836E+03  0.70000000000E+03 0.  1.
<mgrwt>
<rscale>  0 0.15505497E+04</rscale>
<asrwt>0</asrwt>
<pdfrwt beam="1">  1        1 0.70682982E-01 0.15505497E+04</pdfrwt>
<pdfrwt beam="2">  1       -1 0.17354033E+00 0.15505497E+04</pdfrwt>
<totfact> 0.11142434E+01</totfact>
</mgrwt>
</event>
<event>
 8    1  0.3214020E-028  0.1674136E+04  0.7818608E-02  0.8776255E-01
         -1   -1    0    0    0  501 -0.00000000000E+00  0.00000000000E+00  0.15378639704E+04  0.15378639704E+04  0.50400000000E-02 0. -1.
          1   -1    0    0  501    0  0.00000000000E+00 -0.00000000000E+00 -0.45562062123E+03  0.45562062126E+03  0.50400000000E-02 0.  1.
     200001    2    1    2    0    0  0.38127504169E+03 -0.12654390540E+03  0.80837778391E+03  0.11412015605E+04  0.69819935745E+03 0.  0.
    5000001    2    3    3    0    0  0.24154654452E+03 -0.85435798388E+02  0.30488695400E+03  0.41682807590E+03  0.12306738529E+03 0.  0.
        -13    1    4    4    0    0  0.14086556508E+03 -0.10544219229E+03  0.20884685057E+03  0.27309006114E+03  0.10566000000E+00 0. -1.
     200003    1    4    4    0    0  0.10068097944E+03  0.20006393902E+02  0.96040103435E+02  0.14373801476E+03  0.30000000000E+02 0. -1.
     200000    1    3    3    0    0  0.13972849717E+03 -0.41108107007E+02  0.50349082991E+03  0.72437348460E+03  0.50000000000E+03 0. -1.
    -200001    1    1    2    0    0 -0.38127504169E+03  0.12654390540E+03  0.27386556528E+03  0.85228303119E+03  0.70000000000E+03 0.  1.
<mgrwt>
<rscale>  0 0.16741356E+04</rscale>
<asrwt>0</asrwt>
<pdfrwt beam="1">  1        1 0.65088660E-01 0.16741356E+04</pdfrwt>
<pdfrwt beam="2">  1       -1 0.21969485E+00 0.16741356E+04</pdfrwt>
<totfact> 0.58836183E+00</totfact>
</mgrwt>
</event>
<event>
 8    1  0.3214020E-028  0.1525994E+04  0.7818608E-02  0.8867349E-01
          1   -1    0    0  501    0  0.00000000000E+00  0.00000000000E+00  0.11551930397E+04  0.11551930397E+04  0.50400000000E-02 0. -1.
         -1   -1    0    0    0  501 -0.00000000000E+00 -0.00000000000E+00 -0.50395454989E+03  0.50395454992E+03  0.50400000000E-02 0.  1.
     200001    2    1    2    0    0  0.58452926596E+02  0.25966736046E+03  0.48408122329E+03  0.89182403697E+03  0.70012256031E+03 0.  0.
    5000001    2    3    3    0    0  0.77225964734E+02  0.10482908350E+03  0.13467703535E+03  0.26221256509E+03  0.18347898807E+03 0.  0.
        -13    1    4    4    0    0  0.10555327742E+01 -0.26083243070E+02  0.10081646202E+03  0.10414134576E+03  0.10566000000E+00 0. -1.
     200003    1    4    4    0    0  0.76170431960E+02  0.13091232657E+03  0.33860573324E+02  0.15807121932E+03  0.30000000000E+02 0. -1.
     200000    1    3    3    0    0 -0.18773038138E+02  0.15483827696E+03  0.34940418794E+03  0.62961147188E+03  0.50000000000E+03 0. -1.
    -200001    1    1    2    0    0 -0.58452926596E+02 -0.25966736046E+03  0.16715726652E+03  0.76732355266E+03  0.70000000000E+03 0. -1.
<mgrwt>
<rscale>  0 0.15259945E+04</rscale>
<asrwt>0</asrwt>
<pdfrwt beam="1">  1        1 0.16502757E+00 0.15259945E+04</pdfrwt>
<pdfrwt beam="2">  1       -1 0.71993508E-01 0.15259945E+04</pdfrwt>
<totfact> 0.25057069E+01</totfact>
</mgrwt>
</event>
<event>
 8    1  0.3214020E-028  0.1608045E+04  0.7818608E-02  0.8815621E-01
          1   -1    0    0  501    0  0.00000000000E+00  0.00000000000E+00  0.88113900571E+03  0.88113900573E+03  0.50400000000E-02 0. -1.
         -1   -1    0    0    0  501 -0.00000000000E+00 -0.00000000000E+00 -0.73365556709E+03  0.73365556711E+03  0.50400000000E-02 0.  1.
     200001    2    1    2    0    0  0.20019770275E+02 -0.25438922751E+03  0.37712382964E+03  0.83514761462E+03  0.70009605416E+03 0.  0.
    5000001    2    3    3    0    0 -0.17581736463E+02 -0.20110531745E+02  0.16532294962E+03  0.24256007393E+03  0.17547125363E+03 0.  0.
        -13    1    4    4    0    0  0.18722614610E+02  0.71012166815E+02  0.53787380836E+02  0.91029432794E+02  0.10566000000E+00 0. -1.
     200003    1    4    4    0    0 -0.36304351073E+02 -0.91122698560E+02  0.11153556879E+03  0.15153064114E+03  0.30000000000E+02 0. -1.
     200000    1    3    3    0    0  0.37601506738E+02 -0.23427869576E+03  0.21180088002E+03  0.59258754068E+03  0.50000000000E+03 0. -1.
    -200001    1    1    2    0    0 -0.20019770275E+02  0.25438922751E+03 -0.22964039102E+03  0.77964695822E+03  0.70000000000E+03 0.  1.
<mgrwt>
<rscale>  0 0.16080454E+04</rscale>
<asrwt>0</asrwt>
<pdfrwt beam="1">  1        1 0.12587700E+00 0.16080454E+04</pdfrwt>
<pdfrwt beam="2">  1       -1 0.10480794E+00 0.16080454E+04</pdfrwt>
<totfact> 0.17537886E+01</totfact>
</mgrwt>
</event>
<event>
 8    1  0.3214020E-028  0.1555110E+04  0.7818608E-02  0.8848610E-01
          1   -1    0    0  501    0  0.00000000000E+00  0.00000000000E+00  0.18753954355E+04  0.18753954355E+04  0.50400000000E-02 0.  1.
         -1   -1    0    0    0  501 -0.00000000000E+00 -0.00000000000E+00 -0.32238116269E+03  0.32238116273E+03  0.50400000000E-02 0. -1.
     200001    2    1    2    0    0 -0.44522131971E+02 -0.18358892817E+03  0.38161578185E+03  0.82014764260E+03  0.70094538726E+03 0.  0.
    5000001    2    3    3    0    0 -0.68627851060E+02 -0.49411199412E+02  0.17422034745E+03  0.26193834959E+03  0.17637381029E+03 0.  0.
        -13    1    4    4    0    0 -0.46178973541E+02  0.31930443964E+02  0.16212200810E+03  0.17156808422E+03  0.10566000000E+00 0. -1.
     200003    1    4    4    0    0 -0.22448877519E+02 -0.81341643375E+02  0.12098339346E+02  0.90370265374E+02  0.30000000000E+02 0. -1.
     200000    1    3    3    0    0  0.24105719089E+02 -0.13417772876E+03  0.20739543440E+03  0.55820929301E+03  0.50000000000E+03 0. -1.
    -200001    1    1    2    0    0  0.44522131971E+02  0.18358892817E+03  0.11713984910E+04  0.13776289556E+04  0.70000000000E+03 0.  1.
<mgrwt>
<rscale>  0 0.15551105E+04</rscale>
<asrwt>0</asrwt>
<pdfrwt beam="1">  1        1 0.26791364E+00 0.15551105E+04</pdfrwt>
<pdfrwt beam="2">  1       -1 0.46054451E-01 0.15551105E+04</pdfrwt>
<totfact> 0.20205230E+01</totfact>
</mgrwt>
</event>
<event>
 8    1  0.3214020E-028  0.1618009E+04  0.7818608E-02  0.8809560E-01
         -1   -1    0    0    0  501 -0.00000000000E+00  0.00000000000E+00  0.35420475094E+03  0.35420475098E+03  0.50400000000E-02 0. -1.
          1   -1    0    0  501    0  0.00000000000E+00 -0.00000000000E+00 -0.18477684876E+04  0.18477684876E+04  0.50400000000E-02 0.  1.
     200001    2    1    2    0    0  0.20066793543E+03  0.30670430434E+03 -0.50919948439E+03  0.93971013932E+03  0.69959694141E+03 0.  0.
    5000001    2    3    3    0    0 -0.42432901495E+02  0.51984908928E+01 -0.57284917369E+02  0.16238745964E+03  0.14580997859E+03 0.  0.
        -13    1    4    4    0    0  0.40672507805E+02 -0.20342903019E+02 -0.53667610768E+02  0.70344226515E+02  0.10566000000E+00 0. -1.
     200003    1    4    4    0    0 -0.83105409301E+02  0.25541393912E+02 -0.36173066009E+01  0.92043233130E+02  0.30000000000E+02 0. -1.
     200000    1    3    3    0    0  0.24310083693E+03  0.30150581345E+03 -0.45191456702E+03  0.77732267968E+03  0.50000000000E+03 0. -1.
    -200001    1    1    2    0    0 -0.20066793543E+03 -0.30670430434E+03 -0.98436425228E+03  0.12622630993E+04  0.70000000000E+03 0.  1.
<mgrwt>
<rscale>  0 0.16180091E+04</rscale>
<asrwt>0</asrwt>
<pdfrwt beam="1">  1        1 0.26396692E+00 0.16180091E+04</pdfrwt>
<pdfrwt beam="2">  1       -1 0.50600680E-01 0.16180091E+04</pdfrwt>
<totfact> 0.17514550E+01</totfact>
</mgrwt>
</event>
<event>
 8    1  0.3214020E-028  0.1948765E+04  0.7818608E-02  0.8630957E-01
          1   -1    0    0  501    0  0.00000000000E+00  0.00000000000E+00  0.15772740733E+04  0.15772740733E+04  0.50400000000E-02 0.  1.
         -1   -1    0    0    0  501 -0.00000000000E+00 -0.00000000000E+00 -0.60193792752E+03  0.60193792754E+03  0.50400000000E-02 0. -1.
     200001    2    1    2    0    0 -0.43244806921E+03  0.37359974230E+03  0.78742835215E+02  0.90623609199E+03  0.69891009458E+03 0.  0.
    5000001    2    3    3    0    0 -0.19644271665E+02  0.45484716785E+02  0.20034664823E+02  0.17718664613E+03  0.16893478890E+03 0.  0.
        -13    1    4    4    0    0  0.18448731127E+02  0.88207270426E+02 -0.30513145571E+02  0.95141691455E+02  0.10566000000E+00 0. -1.
     200003    1    4    4    0    0 -0.38093002792E+02 -0.42722553641E+02  0.50547810394E+02  0.82044954671E+02  0.30000000000E+02 0. -1.
     200000    1    3    3    0    0 -0.41280379755E+03  0.32811502552E+03  0.58708170392E+02  0.72904944586E+03  0.50000000000E+03 0. -1.
    -200001    1    1    2    0    0  0.43244806921E+03 -0.37359974230E+03  0.89659331058E+03  0.12729759089E+04  0.70000000000E+03 0.  1.
<mgrwt>
<rscale>  0 0.19487648E+04</rscale>
<asrwt>0</asrwt>
<pdfrwt beam="1">  1        1 0.22532486E+00 0.19487648E+04</pdfrwt>
<pdfrwt beam="2">  1       -1 0.85991135E-01 0.19487648E+04</pdfrwt>
<totfact> 0.86454123E+00</totfact>
</mgrwt>
</event>
<event>
 8    1  0.3214020E-028  0.1562362E+04  0.7818608E-02  0.8844010E-01
          1   -1    0    0  501    0  0.00000000000E+00  0.00000000000E+00  0.25001154612E+04  0.25001154612E+04  0.50400000000E-02 0.  1.
         -1   -1    0    0    0  501 -0.00000000000E+00 -0.00000000000E+00 -0.24408631945E+03  0.24408631950E+03  0.50400000000E-02 0. -1.
     200001    2    1    2    0    0 -0.30497579993E+03 -0.13626203128E+03  0.96252579165E+03  0.12359814731E+04  0.69972617677E+03 0.  0.
    5000001    2    3    3    0    0 -0.40154527337E+02 -0.63060034524E+02  0.27355212203E+03  0.34145726647E+03  0.19019292137E+03 0.  0.
        -13    1    4    4    0    0 -0.10600445233E+03 -0.75644702330E+02  0.18805254929E+03  0.22874185748E+03  0.10566000000E+00 0. -1.
     200003    1    4    4    0    0  0.65849924995E+02  0.12584667806E+02  0.85499572733E+02  0.11271540899E+03  0.30000000000E+02 0. -1.
     200000    1    3    3    0    0 -0.26482127259E+03 -0.73201996752E+02  0.68897366963E+03  0.89452420659E+03  0.50000000000E+03 0.  1.
    -200001    1    1    2    0    0  0.30497579993E+03  0.13626203128E+03  0.12935033501E+04  0.15082203077E+04  0.70000000000E+03 0.  1.
<mgrwt>
<rscale>  0 0.15623623E+04</rscale>
<asrwt>0</asrwt>
<pdfrwt beam="1">  1        1 0.35715936E+00 0.15623623E+04</pdfrwt>
<pdfrwt beam="2">  1       -1 0.34869474E-01 0.15623623E+04</pdfrwt>
<totfact> 0.13565204E+01</totfact>
</mgrwt>
</event>
<event>
 8    1  0.3214020E-028  0.1822104E+04  0.7818608E-02  0.8694632E-01
         -1   -1    0    0    0  501 -0.00000000000E+00  0.00000000000E+00  0.17618238539E+04  0.17618238539E+04  0.50400000000E-02 0. -1.
          1   -1    0    0  501    0  0.00000000000E+00 -0.00000000000E+00 -0.47111164918E+03  0.47111164921E+03  0.50400000000E-02 0.  1.
     200001    2    1    2    0    0 -0.37038396337E+02 -0.44199277783E+03  0.18417788139E+03  0.85049285794E+03  0.70191676925E+03 0.  0.
    5000001    2    3    3    0    0 -0.36450380602E+02 -0.18347463846E+03 -0.24205227890E+01  0.25749122338E+03  0.17693020653E+03 0.  0.
        -13    1    4    4    0    0 -0.17039981689E+02 -0.21057993099E+03 -0.12080576972E+02  0.21161337343E+03  0.10566000000E+00 0. -1.
     200003    1    4    4    0    0 -0.19410398914E+02  0.27105292530E+02  0.96600541829E+01  0.45877849949E+02  0.30000000000E+02 0. -1.
     200000    1    3    3    0    0 -0.58801573501E+00 -0.25851813937E+03  0.18659840418E+03  0.59300163456E+03  0.50000000000E+03 0. -1.
    -200001    1    1    2    0    0  0.37038396337E+02  0.44199277783E+03  0.11065343233E+04  0.13824426451E+04  0.70000000000E+03 0. -1.
<mgrwt>
<rscale>  0 0.18221040E+04</rscale>
<asrwt>0</asrwt>
<pdfrwt beam="1">  1        1 0.67301663E-01 0.18221040E+04</pdfrwt>
<pdfrwt beam="2">  1       -1 0.25168912E+00 0.18221040E+04</pdfrwt>
<totfact> 0.34168481E+00</totfact>
</mgrwt>
</event>
<event>
 8    1  0.3214020E-028  0.1920021E+04  0.7818608E-02  0.8644954E-01
          1   -1    0    0  501    0  0.00000000000E+00  0.00000000000E+00  0.13964637074E+04  0.13964637074E+04  0.50400000000E-02 0.  1.
         -1   -1    0    0    0  501 -0.00000000000E+00 -0.00000000000E+00 -0.65996707119E+03  0.65996707121E+03  0.50400000000E-02 0. -1.
     200001    2    1    2    0    0 -0.25344746106E+03 -0.32661039779E+03 -0.17742326095E+03  0.83325477089E+03  0.70137331872E+03 0.  0.
    5000001    2    3    3    0    0 -0.13889878355E+03 -0.14071219303E+02 -0.58822280614E+02  0.22098985262E+03  0.16088997166E+03 0.  0.
        -13    1    4    4    0    0 -0.23126101748E+02  0.23117012277E+02  0.46842196963E+02  0.57126311093E+02  0.10566000000E+00 0. -1.
     200003    1    4    4    0    0 -0.11577268180E+03 -0.37188231580E+02 -0.10566447758E+03  0.16386354152E+03  0.30000000000E+02 0. -1.
     200000    1    3    3    0    0 -0.11454867751E+03 -0.31253917848E+03 -0.11860098034E+03  0.61226491827E+03  0.50000000000E+03 0. -1.
    -200001    1    1    2    0    0  0.25344746106E+03  0.32661039779E+03  0.91391989716E+03  0.12231760077E+04  0.70000000000E+03 0.  1.
<mgrwt>
<rscale>  0 0.19200209E+04</rscale>
<asrwt>0</asrwt>
<pdfrwt beam="1">  1        1 0.19949481E+00 0.19200209E+04</pdfrwt>
<pdfrwt beam="2">  1       -1 0.94281010E-01 0.19200209E+04</pdfrwt>
<totfact> 0.92902424E+00</totfact>
</mgrwt>
</event>
<event>
 8    1  0.3214020E-028  0.1562264E+04  0.7818608E-02  0.8844072E-01
          1   -1    0    0  501    0  0.00000000000E+00  0.00000000000E+00  0.16701979963E+04  0.16701979963E+04  0.50400000000E-02 0.  1.
         -1   -1    0    0    0  501 -0.00000000000E+00 -0.00000000000E+00 -0.36532623786E+03  0.36532623789E+03  0.50400000000E-02 0. -1.
     200001    2    1    2    0    0 -0.11659409401E+03  0.32746923204E+03  0.63849665756E+03  0.10084477737E+04  0.69889816844E+03 0.  0.
    5000001    2    3    3    0    0 -0.65186075164E+02  0.19052018302E+03  0.30733596056E+03  0.39114295946E+03  0.13412776576E+03 0.  0.
        -13    1    4    4    0    0 -0.55144251267E+02  0.16666368617E+03  0.15647039094E+03  0.23516093881E+03  0.10566000000E+00 0. -1.
     200003    1    4    4    0    0 -0.10041823897E+02  0.23856496846E+02  0.15086556962E+03  0.15598202065E+03  0.30000000000E+02 0. -1.
     200000    1    3    3    0    0 -0.51408018846E+02  0.13694904902E+03  0.33116069700E+03  0.61730481423E+03  0.50000000000E+03 0. -1.
    -200001    1    1    2    0    0  0.11659409401E+03 -0.32746923204E+03  0.66637510091E+03  0.10270764605E+04  0.70000000000E+03 0. -1.
<mgrwt>
<rscale>  0 0.15622639E+04</rscale>
<asrwt>0</asrwt>
<pdfrwt beam="1">  1        1 0.23859971E+00 0.15622639E+04</pdfrwt>
<pdfrwt beam="2">  1       -1 0.52189463E-01 0.15622639E+04</pdfrwt>
<totfact> 0.21510025E+01</totfact>
</mgrwt>
</event>
<event>
 8    1  0.3214020E-028  0.1651712E+04  0.7818608E-02  0.8789394E-01
         -1   -1    0    0    0  501 -0.00000000000E+00  0.00000000000E+00  0.11912296949E+04  0.11912296949E+04  0.50400000000E-02 0. -1.
          1   -1    0    0  501    0  0.00000000000E+00 -0.00000000000E+00 -0.57254943635E+03  0.57254943638E+03  0.50400000000E-02 0.  1.
     200001    2    1    2    0    0  0.19265566215E+03  0.13319340535E+02  0.73284243100E+03  0.10287100117E+04  0.69562392892E+03 0.  0.
    5000001    2    3    3    0    0  0.49543344481E+02 -0.51232822860E+02  0.28747603215E+03  0.34096053224E+03  0.16891497968E+03 0.  0.
        -13    1    4    4    0    0 -0.20476801382E+02 -0.67260896298E+02  0.23929923578E+03  0.24941423972E+03  0.10566000000E+00 0. -1.
     200003    1    4    4    0    0  0.70020145863E+02  0.16028073438E+02  0.48176796370E+02  0.91546292515E+02  0.30000000000E+02 0. -1.
     200000    1    3    3    0    0  0.14311231767E+03  0.64552163395E+02  0.44536639884E+03  0.68774947945E+03  0.50000000000E+03 0. -1.
    -200001    1    1    2    0    0 -0.19265566215E+03 -0.13319340535E+02 -0.11416217244E+03  0.73506911961E+03  0.70000000000E+03 0.  1.
<mgrwt>
<rscale>  0 0.16517117E+04</rscale>
<asrwt>0</asrwt>
<pdfrwt beam="1">  1        1 0.81792777E-01 0.16517117E+04</pdfrwt>
<pdfrwt beam="2">  1       -1 0.17017567E+00 0.16517117E+04</pdfrwt>
<totfact> 0.95653282E+00</totfact>
</mgrwt>
</event>
<event>
 8    1  0.3214020E-028  0.1722462E+04  0.7818608E-02  0.8748656E-01
         -1   -1    0    0    0  501 -0.00000000000E+00  0.00000000000E+00  0.70355270548E+03  0.70355270550E+03  0.50400000000E-02 0.  1.
          1   -1    0    0  501    0  0.00000000000E+00 -0.00000000000E+00 -0.10542480693E+04  0.10542480694E+04  0.50400000000E-02 0. -1.
     200001    2    1    2    0    0  0.80775976109E+02  0.44493445976E+03 -0.39633229116E+03  0.92319058984E+03  0.70050706518E+03 0.  0.
    5000001    2    3    3    0    0  0.12511640178E+02  0.96478120751E+02  0.25291049816E+01  0.19163590762E+03  0.16508590428E+03 0.  0.
        -13    1    4    4    0    0 -0.34907782963E+02  0.86686679668E+02  0.59732030361E+02  0.11091014543E+03  0.10566000000E+00 0. -1.
     200003    1    4    4    0    0  0.47419423141E+02  0.97914410829E+01 -0.57202925379E+02  0.80725762191E+02  0.30000000000E+02 0. -1.
     200000    1    3    3    0    0  0.68264335931E+02  0.34845633901E+03 -0.39886139614E+03  0.73155468223E+03  0.50000000000E+03 0. -1.
    -200001    1    1    2    0    0 -0.80775976109E+02 -0.44493445976E+03  0.45636927298E+02  0.83461018502E+03  0.70000000000E+03 0.  1.
<mgrwt>
<rscale>  0 0.17224623E+04</rscale>
<asrwt>0</asrwt>
<pdfrwt beam="1">  1        1 0.15060687E+00 0.17224623E+04</pdfrwt>
<pdfrwt beam="2">  1       -1 0.10050753E+00 0.17224623E+04</pdfrwt>
<totfact> 0.14117686E+01</totfact>
</mgrwt>
</event>
<event>
 8    1  0.3214020E-028  0.1713071E+04  0.7818608E-02  0.8753944E-01
         -1   -1    0    0    0  501 -0.00000000000E+00  0.00000000000E+00  0.84495434516E+03  0.84495434517E+03  0.50400000000E-02 0. -1.
          1   -1    0    0  501    0  0.00000000000E+00 -0.00000000000E+00 -0.86827537872E+03  0.86827537873E+03  0.50400000000E-02 0.  1.
     200001    2    1    2    0    0  0.18469616138E+03  0.27376467942E+03 -0.37875917293E+03  0.86152787311E+03  0.69979425073E+03 0.  0.
    5000001    2    3    3    0    0  0.13630502161E+03  0.14195471468E+03 -0.92483377281E+02  0.26851067237E+03  0.15752652527E+03 0.  0.
        -13    1    4    4    0    0 -0.30743641636E+02  0.17557070608E+02 -0.36310859064E+02  0.50714020540E+02  0.10566000000E+00 0. -1.
     200003    1    4    4    0    0  0.16704866325E+03  0.12439764407E+03 -0.56172518218E+02  0.21779665183E+03  0.30000000000E+02 0. -1.
     200000    1    3    3    0    0  0.48391139765E+02  0.13180996474E+03 -0.28627579564E+03  0.59301720075E+03  0.50000000000E+03 0.  1.
    -200001    1    1    2    0    0 -0.18469616138E+03 -0.27376467942E+03  0.35543813937E+03  0.85170185079E+03  0.70000000000E+03 0. -1.
<mgrwt>
<rscale>  0 0.17130710E+04</rscale>
<asrwt>0</asrwt>
<pdfrwt beam="1">  1        1 0.12403934E+00 0.17130710E+04</pdfrwt>
<pdfrwt beam="2">  1       -1 0.12070776E+00 0.17130710E+04</pdfrwt>
<totfact> 0.12711459E+01</totfact>
</mgrwt>
</event>
<event>
 8    1  0.3214020E-028  0.1565166E+04  0.7818608E-02  0.8842238E-01
          1   -1    0    0  501    0  0.00000000000E+00  0.00000000000E+00  0.36251227051E+04  0.36251227051E+04  0.50400000000E-02 0.  1.
         -1   -1    0    0    0  501 -0.00000000000E+00 -0.00000000000E+00 -0.16894222272E+03  0.16894222279E+03  0.50400000000E-02 0. -1.
     200001    2    1    2    0    0  0.33372156778E+02  0.33120454621E+03  0.14740717915E+04  0.16657874520E+04  0.70082097302E+03 0.  0.
    5000001    2    3    3    0    0  0.11453098255E+03  0.61762104738E+02  0.37919696251E+03  0.42969001426E+03  0.15463268874E+03 0.  0.
        -13    1    4    4    0    0  0.18729930038E+01  0.76213675751E+02  0.21246546537E+03  0.22572908013E+03  0.10566000000E+00 0. -1.
     200003    1    4    4    0    0  0.11265798954E+03 -0.14451571013E+02  0.16673149714E+03  0.20396093413E+03  0.30000000000E+02 0. -1.
     200000    1    3    3    0    0 -0.81158825768E+02  0.26944244147E+03  0.10948748290E+04  0.12360974377E+04  0.50000000000E+03 0. -1.
    -200001    1    1    2    0    0 -0.33372156778E+02 -0.33120454621E+03  0.19821086909E+04  0.21282774760E+04  0.70000000000E+03 0.  1.
<mgrwt>
<rscale>  0 0.15651662E+04</rscale>
<asrwt>0</asrwt>
<pdfrwt beam="1">  1        1 0.51787470E+00 0.15651662E+04</pdfrwt>
<pdfrwt beam="2">  1       -1 0.24134602E-01 0.15651662E+04</pdfrwt>
<totfact> 0.45961224E+00</totfact>
</mgrwt>
</event>
<event>
 8    1  0.3214020E-028  0.1517619E+04  0.7818608E-02  0.8872820E-01
          1   -1    0    0  501    0  0.00000000000E+00  0.00000000000E+00  0.62366001609E+03  0.62366001611E+03  0.50400000000E-02 0.  1.
         -1   -1    0    0    0  501 -0.00000000000E+00 -0.00000000000E+00 -0.92324671005E+03  0.92324671006E+03  0.50400000000E-02 0. -1.
     200001    2    1    2    0    0  0.58402173275E+02 -0.20460580486E+03  0.55472550609E+02  0.73367772006E+03  0.69995102959E+03 0.  0.
    5000001    2    3    3    0    0  0.65083370693E+01 -0.68772558710E+02 -0.42193825320E+02  0.20388307873E+03  0.18712553972E+03 0.  0.
        -13    1    4    4    0    0  0.50503895236E+02  0.46357284854E+02  0.45291716322E+01  0.68703463179E+02  0.10566000000E+00 0. -1.
     200003    1    4    4    0    0 -0.43995558167E+02 -0.11512984356E+03 -0.46722996953E+02  0.13517961556E+03  0.30000000000E+02 0. -1.
     200000    1    3    3    0    0  0.51893836206E+02 -0.13583324615E+03  0.97666375930E+02  0.52979464133E+03  0.50000000000E+03 0.  1.
    -200001    1    1    2    0    0 -0.58402173275E+02  0.20460580486E+03 -0.35505924456E+03  0.81322900611E+03  0.70000000000E+03 0. -1.
<mgrwt>
<rscale>  0 0.15176193E+04</rscale>
<asrwt>0</asrwt>
<pdfrwt beam="1">  1        1 0.89094288E-01 0.15176193E+04</pdfrwt>
<pdfrwt beam="2">  1       -1 0.13189239E+00 0.15176193E+04</pdfrwt>
<totfact> 0.17069255E+01</totfact>
</mgrwt>
</event>
<event>
 8    1  0.3214020E-028  0.5044093E+04  0.7818608E-02  0.7821741E-01
          1   -1    0    0  501    0  0.00000000000E+00  0.00000000000E+00  0.29060978242E+04  0.29060978242E+04  0.50400000000E-02 0. -1.
         -1   -1    0    0    0  501 -0.00000000000E+00 -0.00000000000E+00 -0.21887486993E+04  0.21887486993E+04  0.50400000000E-02 0.  1.
     200001    2    1    2    0    0  0.22821568635E+04 -0.56267216633E+03 -0.23600048519E+03  0.24635511400E+04  0.69896214072E+03 0.  0.
    5000001    2    3    3    0    0  0.39368375274E+03 -0.11225862306E+02 -0.64232064776E+02  0.42641390692E+03  0.15030018201E+03 0.  0.
        -13    1    4    4    0    0  0.26984637329E+03 -0.26707021081E+02 -0.10642351986E+03  0.29130105887E+03  0.10566000000E+00 0. -1.
     200003    1    4    4    0    0  0.12383737945E+03  0.15481158775E+02  0.42191455087E+02  0.13511284805E+03  0.30000000000E+02 0. -1.
     200000    1    3    3    0    0  0.18884731107E+04 -0.55144630403E+03 -0.17176842041E+03  0.20371372331E+04  0.50000000000E+03 0. -1.
    -200001    1    1    2    0    0 -0.22821568635E+04  0.56267216633E+03  0.95334961015E+03  0.26312953835E+04  0.70000000000E+03 0.  1.
<mgrwt>
<rscale>  0 0.50440927E+04</rscale>
<asrwt>0</asrwt>
<pdfrwt beam="1">  1        1 0.41515683E+00 0.50440927E+04</pdfrwt>
<pdfrwt beam="2">  1       -1 0.31267838E+00 0.50440927E+04</pdfrwt>
<totfact> 0.19600915E-02</totfact>
</mgrwt>
</event>
<event>
 8    1  0.3214020E-028  0.2325637E+04  0.7818608E-02  0.8467881E-01
          1   -1    0    0  501    0  0.00000000000E+00  0.00000000000E+00  0.20126005966E+04  0.20126005966E+04  0.50400000000E-02 0.  1.
         -1   -1    0    0    0  501 -0.00000000000E+00 -0.00000000000E+00 -0.67184050670E+03  0.67184050672E+03  0.50400000000E-02 0. -1.
     200001    2    1    2    0    0  0.77971915015E+03 -0.41711591600E+03  0.34627455020E+03  0.11807958230E+04  0.70173005562E+03 0.  0.
    5000001    2    3    3    0    0  0.26998410330E+03 -0.10697165626E+03  0.14508081814E+03  0.37674470666E+03  0.19119042583E+03 0.  0.
        -13    1    4    4    0    0  0.21662741072E+02 -0.69540509892E+02 -0.18994817389E+02  0.75272645220E+02  0.10566000000E+00 0. -1.
     200003    1    4    4    0    0  0.24832136223E+03 -0.37431146373E+02  0.16407563553E+03  0.30147206144E+03  0.30000000000E+02 0. -1.
     200000    1    3    3    0    0  0.50973504685E+03 -0.31014425974E+03  0.20119373207E+03  0.80405111632E+03  0.50000000000E+03 0. -1.
    -200001    1    1    2    0    0 -0.77971915015E+03  0.41711591600E+03  0.99448553973E+03  0.15036452804E+04  0.70000000000E+03 0. -1.
<mgrwt>
<rscale>  0 0.23256368E+04</rscale>
<asrwt>0</asrwt>
<pdfrwt beam="1">  1        1 0.28751438E+00 0.23256368E+04</pdfrwt>
<pdfrwt beam="2">  1       -1 0.95977214E-01 0.23256368E+04</pdfrwt>
<totfact> 0.34693667E+00</totfact>
</mgrwt>
</event>
<event>
 8    1  0.3214020E-028  0.1642913E+04  0.7818608E-02  0.8794610E-01
         -1   -1    0    0    0  501 -0.00000000000E+00  0.00000000000E+00  0.52114244182E+03  0.52114244185E+03  0.50400000000E-02 0. -1.
          1   -1    0    0  501    0  0.00000000000E+00 -0.00000000000E+00 -0.12948301000E+04  0.12948301000E+04  0.50400000000E-02 0.  1.
     200001    2    1    2    0    0  0.85299340674E+01 -0.75694493964E+02 -0.85483457752E+03  0.11071797381E+04  0.69950153770E+03 0.  0.
    5000001    2    3    3    0    0 -0.32229196387E+02 -0.24160809223E+02 -0.29703093812E+03  0.35520771231E+03  0.19058508568E+03 0.  0.
        -13    1    4    4    0    0  0.71870732877E+02 -0.38462608565E+02 -0.16324027851E+03  0.18246143207E+03  0.10566000000E+00 0. -1.
     200003    1    4    4    0    0 -0.10409992926E+03  0.14301799342E+02 -0.13379065961E+03  0.17274628024E+03  0.30000000000E+02 0. -1.
     200000    1    3    3    0    0  0.40759130454E+02 -0.51533684741E+02 -0.55780363941E+03  0.75197202575E+03  0.50000000000E+03 0.  1.
    -200001    1    1    2    0    0 -0.85299340674E+01  0.75694493964E+02  0.81146919349E+02  0.70879280379E+03  0.70000000000E+03 0. -1.
<mgrwt>
<rscale>  0 0.16429132E+04</rscale>
<asrwt>0</asrwt>
<pdfrwt beam="1">  1        1 0.18497573E+00 0.16429132E+04</pdfrwt>
<pdfrwt beam="2">  1       -1 0.74448921E-01 0.16429132E+04</pdfrwt>
<totfact> 0.18532459E+01</totfact>
</mgrwt>
</event>
<event>
 8    1  0.3214020E-028  0.2212857E+04  0.7818608E-02  0.8513096E-01
          1   -1    0    0  501    0  0.00000000000E+00  0.00000000000E+00  0.12482771384E+04  0.12482771385E+04  0.50400000000E-02 0.  1.
         -1   -1    0    0    0  501 -0.00000000000E+00 -0.00000000000E+00 -0.98069909759E+03  0.98069909760E+03  0.50400000000E-02 0. -1.
     200001    2    1    2    0    0 -0.41879533161E+03 -0.67708452794E+03 -0.17181086921E+03  0.10814155178E+04  0.71141236962E+03 0.  0.
    5000001    2    3    3    0    0 -0.12355761367E+03 -0.25628234009E+03 -0.59756414938E+02  0.35560838633E+03  0.20479104856E+03 0.  0.
        -13    1    4    4    0    0 -0.17095917547E+03 -0.14587141624E+03 -0.20388953612E+02  0.22565732948E+03  0.10566000000E+00 0. -1.
     200003    1    4    4    0    0  0.47401561804E+02 -0.11041092385E+03 -0.39367461326E+02  0.12995105686E+03  0.30000000000E+02 0. -1.
     200000    1    3    3    0    0 -0.29523771794E+03 -0.42080218785E+03 -0.11205445427E+03  0.72580713149E+03  0.50000000000E+03 0. -1.
    -200001    1    1    2    0    0  0.41879533161E+03  0.67708452794E+03  0.43938891007E+03  0.11475607182E+04  0.70000000000E+03 0.  1.
<mgrwt>
<rscale>  0 0.22128572E+04</rscale>
<asrwt>0</asrwt>
<pdfrwt beam="1">  1        1 0.17832531E+00 0.22128572E+04</pdfrwt>
<pdfrwt beam="2">  1       -1 0.14009987E+00 0.22128572E+04</pdfrwt>
<totfact> 0.43874439E+00</totfact>
</mgrwt>
</event>
<event>
 8    1  0.3214020E-028  0.1601247E+04  0.7818608E-02  0.8819782E-01
         -1   -1    0    0    0  501 -0.00000000000E+00  0.00000000000E+00  0.39191943817E+03  0.39191943821E+03  0.50400000000E-02 0. -1.
          1   -1    0    0  501    0  0.00000000000E+00 -0.00000000000E+00 -0.16355347807E+04  0.16355347807E+04  0.50400000000E-02 0.  1.
     200001    2    1    2    0    0 -0.16940032884E+03  0.59224475306E+02 -0.10587335406E+04  0.12815418309E+04  0.69944888624E+03 0.  0.
    5000001    2    3    3    0    0 -0.83546608331E+02  0.63418492719E+02 -0.41573833879E+03  0.46249892564E+03  0.17339247070E+03 0.  0.
        -13    1    4    4    0    0 -0.10197541528E+03  0.94829738724E+02 -0.37549285827E+03  0.40048291155E+03  0.10566000000E+00 0. -1.
     200003    1    4    4    0    0  0.18428806950E+02 -0.31411246005E+02 -0.40245480518E+02  0.62016014088E+02  0.30000000000E+02 0. -1.
     200000    1    3    3    0    0 -0.85853720505E+02 -0.41940174132E+01 -0.64299520184E+03  0.81904290528E+03  0.50000000000E+03 0.  1.
    -200001    1    1    2    0    0  0.16940032884E+03 -0.59224475306E+02 -0.18488180190E+03  0.74591238799E+03  0.70000000000E+03 0. -1.
<mgrwt>
<rscale>  0 0.16012469E+04</rscale>
<asrwt>0</asrwt>
<pdfrwt beam="1">  1        1 0.23364782E+00 0.16012469E+04</pdfrwt>
<pdfrwt beam="2">  1       -1 0.55988492E-01 0.16012469E+04</pdfrwt>
<totfact> 0.19702230E+01</totfact>
</mgrwt>
</event>
<event>
 8    1  0.3214020E-028  0.1972514E+04  0.7818608E-02  0.8619580E-01
          1   -1    0    0  501    0  0.00000000000E+00  0.00000000000E+00  0.40320241176E+04  0.40320241176E+04  0.50400000000E-02 0. -1.
         -1   -1    0    0    0  501 -0.00000000000E+00 -0.00000000000E+00 -0.24124433052E+03  0.24124433057E+03  0.50400000000E-02 0.  1.
     200001    2    1    2    0    0  0.51948976745E+03  0.42314448107E+03  0.14991831062E+04  0.17852298194E+04  0.70041034535E+03 0.  0.
    5000001    2    3    3    0    0  0.21804933647E+03  0.16138661803E+03  0.54487052344E+03  0.63627550444E+03  0.18539546008E+03 0.  0.
        -13    1    4    4    0    0  0.23336096047E+03  0.11085383161E+03  0.37089668945E+03  0.45200694161E+03  0.10566000000E+00 0. -1.
     200003    1    4    4    0    0 -0.15311624001E+02  0.50532786416E+02  0.17397383399E+03  0.18426856283E+03  0.30000000000E+02 0. -1.
     200000    1    3    3    0    0  0.30144043098E+03  0.26175786304E+03  0.95431258273E+03  0.11489543150E+04  0.50000000000E+03 0.  1.
    -200001    1    1    2    0    0 -0.51948976745E+03 -0.42314448107E+03  0.22915966809E+04  0.24880386288E+04  0.70000000000E+03 0. -1.
<mgrwt>
<rscale>  0 0.19725141E+04</rscale>
<asrwt>0</asrwt>
<pdfrwt beam="1">  1        1 0.57600349E+00 0.19725141E+04</pdfrwt>
<pdfrwt beam="2">  1       -1 0.34463473E-01 0.19725141E+04</pdfrwt>
<totfact> 0.11877603E+00</totfact>
</mgrwt>
</event>
<event>
 8    1  0.3214020E-028  0.1671330E+04  0.7818608E-02  0.8777887E-01
         -1   -1    0    0    0  501 -0.00000000000E+00  0.00000000000E+00  0.18261568571E+03  0.18261568578E+03  0.50400000000E-02 0. -1.
          1   -1    0    0  501    0  0.00000000000E+00 -0.00000000000E+00 -0.38240745454E+04  0.38240745454E+04  0.50400000000E-02 0.  1.
     200001    2    1    2    0    0 -0.26459891193E+02  0.44178767940E+03 -0.15526049103E+04  0.17596505561E+04  0.69993684898E+03 0.  0.
    5000001    2    3    3    0    0  0.16877696589E+01  0.15100889115E+03 -0.46842913333E+03  0.53051195127E+03  0.19801652383E+03 0.  0.
        -13    1    4    4    0    0 -0.79459534700E+02  0.13531775466E+03 -0.34453316332E+03  0.37858661384E+03  0.10566000000E+00 0. -1.
     200003    1    4    4    0    0  0.81147304359E+02  0.15691136480E+02 -0.12389597001E+03  0.15192533743E+03  0.30000000000E+02 0. -1.
     200000    1    3    3    0    0 -0.28147660852E+02  0.29077878826E+03 -0.10841757770E+04  0.12291386048E+04  0.50000000000E+03 0.  1.
    -200001    1    1    2    0    0  0.26459891193E+02 -0.44178767940E+03 -0.20888539494E+04  0.22470396751E+04  0.70000000000E+03 0. -1.
<mgrwt>
<rscale>  0 0.16713300E+04</rscale>
<asrwt>0</asrwt>
<pdfrwt beam="1">  1        1 0.54629632E+00 0.16713300E+04</pdfrwt>
<pdfrwt beam="2">  1       -1 0.26087957E-01 0.16713300E+04</pdfrwt>
<totfact> 0.28574197E+00</totfact>
</mgrwt>
</event>
<event>
 8    1  0.3214020E-028  0.1580413E+04  0.7818608E-02  0.8832672E-01
         -1   -1    0    0    0  501 -0.00000000000E+00  0.00000000000E+00  0.25583303332E+03  0.25583303337E+03  0.50400000000E-02 0.  1.
          1   -1    0    0  501    0  0.00000000000E+00 -0.00000000000E+00 -0.24407577212E+04  0.24407577212E+04  0.50400000000E-02 0. -1.
     200001    2    1    2    0    0  0.24146753895E+03  0.26570617178E+03 -0.12199083977E+04  0.14515354215E+04  0.69990873619E+03 0.  0.
    5000001    2    3    3    0    0  0.62939084583E+02  0.14648800375E+03 -0.55164414517E+03  0.58975674236E+03  0.13446816966E+03 0.  0.
        -13    1    4    4    0    0  0.11960312695E+02  0.70339325685E+02 -0.42306601146E+03  0.42904024408E+03  0.10566000000E+00 0. -1.
     200003    1    4    4    0    0  0.50978771889E+02  0.76148678062E+02 -0.12857813371E+03  0.16071649829E+03  0.30000000000E+02 0. -1.
     200000    1    3    3    0    0  0.17852845436E+03  0.11921816803E+03 -0.66826425256E+03  0.86177867916E+03  0.50000000000E+03 0. -1.
    -200001    1    1    2    0    0 -0.24146753895E+03 -0.26570617178E+03 -0.96501629016E+03  0.12450553331E+04  0.70000000000E+03 0.  1.
<mgrwt>
<rscale>  0 0.15804132E+04</rscale>
<asrwt>0</asrwt>
<pdfrwt beam="1">  1        1 0.34867966E+00 0.15804132E+04</pdfrwt>
<pdfrwt beam="2">  1       -1 0.36547578E-01 0.15804132E+04</pdfrwt>
<totfact> 0.13574837E+01</totfact>
</mgrwt>
</event>
<event>
 8    1  0.3214020E-028  0.2614505E+04  0.7818608E-02  0.8363291E-01
         -1   -1    0    0    0  501 -0.00000000000E+00  0.00000000000E+00  0.17328511319E+04  0.17328511319E+04  0.50400000000E-02 0. -1.
          1   -1    0    0  501    0  0.00000000000E+00 -0.00000000000E+00 -0.98618342548E+03  0.98618342549E+03  0.50400000000E-02 0.  1.
     200001    2    1    2    0    0 -0.71668202155E+02 -0.97136811304E+03 -0.16745569920E+03  0.12109516874E+04  0.69976441443E+03 0.  0.
    5000001    2    3    3    0    0 -0.24313498233E+02 -0.25985752399E+03  0.21375573125E+02  0.31980240934E+03  0.18357447242E+03 0.  0.
        -13    1    4    4    0    0  0.66493972395E+02 -0.18564912649E+03  0.24492381508E+02  0.19871319646E+03  0.10566000000E+00 0. -1.
     200003    1    4    4    0    0 -0.90807470628E+02 -0.74208397498E+02 -0.31168083836E+01  0.12108921288E+03  0.30000000000E+02 0. -1.
     200000    1    3    3    0    0 -0.47354703922E+02 -0.71151058905E+03 -0.18883127232E+03  0.89114927802E+03  0.50000000000E+03 0.  1.
    -200001    1    1    2    0    0  0.71668202155E+02  0.97136811304E+03  0.91412340564E+03  0.15080828701E+04  0.70000000000E+03 0. -1.
<mgrwt>
<rscale>  0 0.26145050E+04</rscale>
<asrwt>0</asrwt>
<pdfrwt beam="1">  1        1 0.14088335E+00 0.26145050E+04</pdfrwt>
<pdfrwt beam="2">  1       -1 0.24755016E+00 0.26145050E+04</pdfrwt>
<totfact> 0.11312458E+00</totfact>
</mgrwt>
</event>
<event>
 8    1  0.3214020E-028  0.1648992E+04  0.7818608E-02  0.8791003E-01
          1   -1    0    0  501    0  0.00000000000E+00  0.00000000000E+00  0.23267735590E+04  0.23267735590E+04  0.50400000000E-02 0.  1.
         -1   -1    0    0    0  501 -0.00000000000E+00 -0.00000000000E+00 -0.29216138791E+03  0.29216138795E+03  0.50400000000E-02 0. -1.
     200001    2    1    2    0    0 -0.92390143937E+02  0.37195462432E+03  0.13423356322E+04  0.15624629939E+04  0.70181156775E+03 0.  0.
    5000001    2    3    3    0    0 -0.13203187624E+03  0.55576988004E+02  0.40877691119E+03  0.45648010016E+03  0.14406353037E+03 0.  0.
        -13    1    4    4    0    0 -0.22889067323E+02  0.76423985937E+02  0.10675387711E+03  0.13327016347E+03  0.10566000000E+00 0. -1.
     200003    1    4    4    0    0 -0.10914280892E+03 -0.20846997933E+02  0.30202303407E+03  0.32320993668E+03  0.30000000000E+02 0. -1.
     200000    1    3    3    0    0  0.39641732302E+02  0.31637763632E+03  0.93355872105E+03  0.11059828938E+04  0.50000000000E+03 0.  1.
    -200001    1    1    2    0    0  0.92390143937E+02 -0.37195462432E+03  0.69227653886E+03  0.10564719530E+04  0.70000000000E+03 0. -1.
<mgrwt>
<rscale>  0 0.16489917E+04</rscale>
<asrwt>0</asrwt>
<pdfrwt beam="1">  1        1 0.33239623E+00 0.16489917E+04</pdfrwt>
<pdfrwt beam="2">  1       -1 0.41737340E-01 0.16489917E+04</pdfrwt>
<totfact> 0.12508052E+01</totfact>
</mgrwt>
</event>
<event>
 8    1  0.3214020E-028  0.1753491E+04  0.7818608E-02  0.8731431E-01
          1   -1    0    0  501    0  0.00000000000E+00  0.00000000000E+00  0.12628517200E+04  0.12628517200E+04  0.50400000000E-02 0.  1.
         -1   -1    0    0    0  501 -0.00000000000E+00 -0.00000000000E+00 -0.60868824282E+03  0.60868824284E+03  0.50400000000E-02 0. -1.
     200001    2    1    2    0    0  0.12903796401E+03 -0.16788281281E+02 -0.21859934335E+03  0.74519739354E+03  0.70042903986E+03 0.  0.
    5000001    2    3    3    0    0  0.10241336157E+03 -0.13855446796E+01 -0.92850532311E+02  0.22871033927E+03  0.18219983967E+03 0.  0.
        -13    1    4    4    0    0  0.83555281155E+02  0.80320958651E+02 -0.74501423228E+02  0.13778031294E+03  0.10566000000E+00 0. -1.
     200003    1    4    4    0    0  0.18858080414E+02 -0.81706503331E+02 -0.18349109082E+02  0.90930026325E+02  0.30000000000E+02 0. -1.
     200000    1    3    3    0    0  0.26624602443E+02 -0.15402736602E+02 -0.12574881104E+03  0.51648705427E+03  0.50000000000E+03 0. -1.
    -200001    1    1    2    0    0 -0.12903796401E+03  0.16788281281E+02  0.87276282055E+03  0.11263425693E+04  0.70000000000E+03 0.  1.
<mgrwt>
<rscale>  0 0.17534914E+04</rscale>
<asrwt>0</asrwt>
<pdfrwt beam="1">  1        1 0.18040739E+00 0.17534914E+04</pdfrwt>
<pdfrwt beam="2">  1       -1 0.86955463E-01 0.17534914E+04</pdfrwt>
<totfact> 0.13862733E+01</totfact>
</mgrwt>
</event>
<event>
 8    1  0.3214020E-028  0.1956631E+04  0.7818608E-02  0.8627170E-01
          1   -1    0    0  501    0  0.00000000000E+00  0.00000000000E+00  0.20444603009E+04  0.20444603009E+04  0.50400000000E-02 0. -1.
         -1   -1    0    0    0  501 -0.00000000000E+00 -0.00000000000E+00 -0.46814356980E+03  0.46814356983E+03  0.50400000000E-02 0.  1.
     200001    2    1    2    0    0  0.12911824981E+03 -0.64039700892E+03  0.53248087162E+03  0.10961388507E+04  0.70085993599E+03 0.  0.
    5000001    2    3    3    0    0  0.12059859294E+03 -0.70711070579E+02  0.14106890241E+03  0.24301636092E+03  0.14004442270E+03 0.  0.
        -13    1    4    4    0    0  0.45699424834E+02 -0.10003280025E+02  0.13384655018E+03  0.14178650570E+03  0.10566000000E+00 0. -1.
     200003    1    4    4    0    0  0.74899168102E+02 -0.60707790554E+02  0.72223522331E+01  0.10122985522E+03  0.30000000000E+02 0. -1.
     200000    1    3    3    0    0  0.85196568709E+01 -0.56968593834E+03  0.39141196921E+03  0.85312248976E+03  0.50000000000E+03 0.  1.
    -200001    1    1    2    0    0 -0.12911824981E+03  0.64039700892E+03  0.10438358595E+04  0.14164650200E+04  0.70000000000E+03 0. -1.
<mgrwt>
<rscale>  0 0.19566307E+04</rscale>
<asrwt>0</asrwt>
<pdfrwt beam="1">  1        1 0.29206576E+00 0.19566307E+04</pdfrwt>
<pdfrwt beam="2">  1       -1 0.66877653E-01 0.19566307E+04</pdfrwt>
<totfact> 0.73919532E+00</totfact>
</mgrwt>
</event>
<event>
 8    1  0.3214020E-028  0.1660097E+04  0.7818608E-02  0.8784455E-01
         -1   -1    0    0    0  501 -0.00000000000E+00  0.00000000000E+00  0.17297259356E+03  0.17297259363E+03  0.50400000000E-02 0. -1.
          1   -1    0    0  501    0  0.00000000000E+00 -0.00000000000E+00 -0.39831778800E+04  0.39831778800E+04  0.50400000000E-02 0.  1.
     200001    2    1    2    0    0 -0.35699767290E+03 -0.72350479151E+02 -0.25528069432E+04  0.26716530759E+04  0.69873094855E+03 0.  0.
    5000001    2    3    3    0    0 -0.11355570237E+03 -0.11704659540E+03 -0.85558766919E+03  0.88508793578E+03  0.15733909676E+03 0.  0.
        -13    1    4    4    0    0 -0.14006616377E+03 -0.11457459006E+03 -0.76335843815E+03  0.78451385149E+03  0.10566000000E+00 0. -1.
     200003    1    4    4    0    0  0.26510461399E+02 -0.24720053395E+01 -0.92229231039E+02  0.10057408430E+03  0.30000000000E+02 0. -1.
     200000    1    3    3    0    0 -0.24344197053E+03  0.44696116247E+02 -0.16972192741E+04  0.17865651402E+04  0.50000000000E+03 0.  1.
    -200001    1    1    2    0    0  0.35699767290E+03  0.72350479151E+02 -0.12573983432E+04  0.14844973977E+04  0.70000000000E+03 0. -1.
<mgrwt>
<rscale>  0 0.16600971E+04</rscale>
<asrwt>0</asrwt>
<pdfrwt beam="1">  1        1 0.56902536E+00 0.16600971E+04</pdfrwt>
<pdfrwt beam="2">  1       -1 0.24710373E-01 0.16600971E+04</pdfrwt>
<totfact> 0.23895462E+00</totfact>
</mgrwt>
</event>
<event>
 8    1  0.3214020E-028  0.1703783E+04  0.7818608E-02  0.8759210E-01
         -1   -1    0    0    0  501 -0.00000000000E+00  0.00000000000E+00  0.79106404993E+03  0.79106404994E+03  0.50400000000E-02 0. -1.
          1   -1    0    0  501    0  0.00000000000E+00 -0.00000000000E+00 -0.91739620535E+03  0.91739620537E+03  0.50400000000E-02 0.  1.
     200001    2    1    2    0    0 -0.19689448556E+03 -0.43438066719E+03 -0.15685456399E+03  0.86088393433E+03  0.69933096004E+03 0.  0.
    5000001    2    3    3    0    0 -0.31501476923E+02 -0.21979119836E+03 -0.10561669969E+03  0.28989461203E+03  0.15356915350E+03 0.  0.
        -13    1    4    4    0    0  0.45717263818E+02 -0.15637715695E+02 -0.30410840651E+02  0.57091477090E+02  0.10566000000E+00 0. -1.
     200003    1    4    4    0    0 -0.77218740741E+02 -0.20415348266E+03 -0.75205859039E+02  0.23280313494E+03  0.30000000000E+02 0. -1.
     200000    1    3    3    0    0 -0.16539300864E+03 -0.21458946883E+03 -0.51237864299E+02  0.57098932230E+03  0.50000000000E+03 0.  1.
    -200001    1    1    2    0    0  0.19689448556E+03  0.43438066719E+03  0.30522408566E+02  0.84757632098E+03  0.70000000000E+03 0.  1.
<mgrwt>
<rscale>  0 0.17037830E+04</rscale>
<asrwt>0</asrwt>
<pdfrwt beam="1">  1        1 0.13105660E+00 0.17037830E+04</pdfrwt>
<pdfrwt beam="2">  1       -1 0.11300915E+00 0.17037830E+04</pdfrwt>
<totfact> 0.13637329E+01</totfact>
</mgrwt>
</event>
<event>
 8    1  0.3214020E-028  0.1476838E+04  0.7818608E-02  0.8900003E-01
         -1   -1    0    0    0  501 -0.00000000000E+00  0.00000000000E+00  0.25612827655E+03  0.25612827660E+03  0.50400000000E-02 0. -1.
          1   -1    0    0  501    0  0.00000000000E+00 -0.00000000000E+00 -0.21288654272E+04  0.21288654272E+04  0.50400000000E-02 0.  1.
     200001    2    1    2    0    0 -0.20053075435E+03 -0.60842936357E+02 -0.76623076849E+03  0.10589956570E+04  0.70031975886E+03 0.  0.
    5000001    2    3    3    0    0 -0.92201333474E+02  0.21088072846E+02 -0.13752499256E+03  0.24430620306E+03  0.17840012490E+03 0.  0.
        -13    1    4    4    0    0 -0.10645696045E+03  0.61275448311E+02 -0.32510825232E+02  0.12706191371E+03  0.10566000000E+00 0. -1.
     200003    1    4    4    0    0  0.14255626972E+02 -0.40187375465E+02 -0.10501416732E+03  0.11724428935E+03  0.30000000000E+02 0. -1.
     200000    1    3    3    0    0 -0.10832942088E+03 -0.81931009203E+02 -0.62870577594E+03  0.81468945396E+03  0.50000000000E+03 0. -1.
    -200001    1    1    2    0    0  0.20053075435E+03  0.60842936357E+02 -0.11065063822E+04  0.13259980468E+04  0.70000000000E+03 0.  1.
<mgrwt>
<rscale>  0 0.14768380E+04</rscale>
<asrwt>0</asrwt>
<pdfrwt beam="1">  1        1 0.30412362E+00 0.14768380E+04</pdfrwt>
<pdfrwt beam="2">  1       -1 0.36589755E-01 0.14768380E+04</pdfrwt>
<totfact> 0.21491416E+01</totfact>
</mgrwt>
</event>
<event>
 8    1  0.3214020E-028  0.2798057E+04  0.7818608E-02  0.8303872E-01
         -1   -1    0    0    0  501 -0.00000000000E+00  0.00000000000E+00  0.13435561990E+04  0.13435561990E+04  0.50400000000E-02 0. -1.
          1   -1    0    0  501    0  0.00000000000E+00 -0.00000000000E+00 -0.14567907033E+04  0.14567907033E+04  0.50400000000E-02 0.  1.
     200001    2    1    2    0    0 -0.53168163309E+03 -0.15544708312E+03 -0.11346809255E+04  0.14438064695E+04  0.70016224121E+03 0.  0.
    5000001    2    3    3    0    0 -0.92141062666E+02  0.27560615573E+02 -0.26623911880E+03  0.33435664977E+03  0.17793689305E+03 0.  0.
        -13    1    4    4    0    0 -0.75463357001E+02 -0.54372794044E+02 -0.20877871168E+03  0.22856001531E+03  0.10566000000E+00 0. -1.
     200003    1    4    4    0    0 -0.16677705665E+02  0.81933409617E+02 -0.57460407117E+02  0.10579663446E+03  0.30000000000E+02 0. -1.
     200000    1    3    3    0    0 -0.43954057043E+03 -0.18300769870E+03 -0.86844180668E+03  0.11094498197E+04  0.50000000000E+03 0.  1.
    -200001    1    1    2    0    0  0.53168163309E+03  0.15544708312E+03  0.10214464212E+04  0.13565404328E+04  0.70000000000E+03 0. -1.
<mgrwt>
<rscale>  0 0.27980566E+04</rscale>
<asrwt>0</asrwt>
<pdfrwt beam="1">  1        1 0.20811296E+00 0.27980566E+04</pdfrwt>
<pdfrwt beam="2">  1       -1 0.19193660E+00 0.27980566E+04</pdfrwt>
<totfact> 0.12392801E+00</totfact>
</mgrwt>
</event>
<event>
 8    1  0.3214020E-028  0.1887146E+04  0.7818608E-02  0.8661281E-01
          1   -1    0    0  501    0  0.00000000000E+00  0.00000000000E+00  0.51095060209E+03  0.51095060211E+03  0.50400000000E-02 0.  1.
         -1   -1    0    0    0  501 -0.00000000000E+00 -0.00000000000E+00 -0.17424976334E+04  0.17424976334E+04  0.50400000000E-02 0. -1.
     200001    2    1    2    0    0  0.53670798087E+03  0.21932220921E+03 -0.31510598155E+03  0.96270353347E+03  0.70096264205E+03 0.  0.
    5000001    2    3    3    0    0  0.14183265259E+03  0.11000225217E+03  0.45921625127E+02  0.22228587385E+03  0.12282189232E+03 0.  0.
        -13    1    4    4    0    0 -0.13624952800E+02 -0.60257964407E+01  0.19021789652E+02  0.24161730219E+02  0.10566000000E+00 0. -1.
     200003    1    4    4    0    0  0.15545760539E+03  0.11602804861E+03  0.26899835475E+02  0.19812414363E+03  0.30000000000E+02 0. -1.
     200000    1    3    3    0    0  0.39487532828E+03  0.10931995704E+03 -0.36102760668E+03  0.74041765962E+03  0.50000000000E+03 0. -1.
    -200001    1    1    2    0    0 -0.53670798087E+03 -0.21932220921E+03 -0.91644104974E+03  0.12907447020E+04  0.70000000000E+03 0. -1.
<mgrwt>
<rscale>  0 0.18871462E+04</rscale>
<asrwt>0</asrwt>
<pdfrwt beam="1">  1        1 0.72992944E-01 0.18871462E+04</pdfrwt>
<pdfrwt beam="2">  1       -1 0.24892823E+00 0.18871462E+04</pdfrwt>
<totfact> 0.31726523E+00</totfact>
</mgrwt>
</event>
<event>
 8    1  0.3214020E-028  0.1601369E+04  0.7818608E-02  0.8819708E-01
         -1   -1    0    0    0  501 -0.00000000000E+00  0.00000000000E+00  0.62939405213E+03  0.62939405215E+03  0.50400000000E-02 0. -1.
          1   -1    0    0  501    0  0.00000000000E+00 -0.00000000000E+00 -0.10185914909E+04  0.10185914910E+04  0.50400000000E-02 0.  1.
     200001    2    1    2    0    0 -0.15084693812E+03 -0.31401319973E+03 -0.37117265185E+03  0.86588325997E+03  0.70044671037E+03 0.  0.
    5000001    2    3    3    0    0 -0.55986025804E+02 -0.58610926541E+02 -0.14978332481E+03  0.25494779041E+03  0.18971994004E+03 0.  0.
        -13    1    4    4    0    0 -0.77094865230E+02 -0.80719790199E+02 -0.17326231814E+03  0.20610469385E+03  0.10566000000E+00 0. -1.
     200003    1    4    4    0    0  0.21108839426E+02  0.22108863658E+02  0.23478993328E+02  0.48843096563E+02  0.30000000000E+02 0. -1.
     200000    1    3    3    0    0 -0.94860912313E+02 -0.25540227319E+03 -0.22138932704E+03  0.61093546956E+03  0.50000000000E+03 0.  1.
    -200001    1    1    2    0    0  0.15084693812E+03  0.31401319973E+03 -0.18024786967E+02  0.78210228314E+03  0.70000000000E+03 0. -1.
<mgrwt>
<rscale>  0 0.16013687E+04</rscale>
<asrwt>0</asrwt>
<pdfrwt beam="1">  1        1 0.14551307E+00 0.16013687E+04</pdfrwt>
<pdfrwt beam="2">  1       -1 0.89913436E-01 0.16013687E+04</pdfrwt>
<totfact> 0.19460452E+01</totfact>
</mgrwt>
</event>
<event>
 8    1  0.3214020E-028  0.1863845E+04  0.7818608E-02  0.8673065E-01
          1   -1    0    0  501    0  0.00000000000E+00  0.00000000000E+00  0.17880718265E+04  0.17880718265E+04  0.50400000000E-02 0. -1.
         -1   -1    0    0    0  501 -0.00000000000E+00 -0.00000000000E+00 -0.48570745122E+03  0.48570745125E+03  0.50400000000E-02 0.  1.
     200001    2    1    2    0    0 -0.31509462395E+03 -0.52693169672E+03  0.70091002026E+03  0.11653168399E+04  0.69981915215E+03 0.  0.
    5000001    2    3    3    0    0 -0.10622449353E+03 -0.29232797771E+03  0.34091965004E+03  0.47375433148E+03  0.10713388462E+03 0.  0.
        -13    1    4    4    0    0 -0.92888718698E+02 -0.20983862911E+03  0.29516410213E+03  0.37387487569E+03  0.10566000000E+00 0. -1.
     200003    1    4    4    0    0 -0.13335774832E+02 -0.82489348598E+02  0.45755547917E+02  0.99879455784E+02  0.30000000000E+02 0. -1.
     200000    1    3    3    0    0 -0.20887013042E+03 -0.23460371901E+03  0.35999037022E+03  0.69156250839E+03  0.50000000000E+03 0.  1.
    -200001    1    1    2    0    0  0.31509462395E+03  0.52693169672E+03  0.60145435503E+03  0.11084624379E+04  0.70000000000E+03 0.  1.
<mgrwt>
<rscale>  0 0.18638453E+04</rscale>
<asrwt>0</asrwt>
<pdfrwt beam="1">  1        1 0.25543884E+00 0.18638453E+04</pdfrwt>
<pdfrwt beam="2">  1       -1 0.69386777E-01 0.18638453E+04</pdfrwt>
<totfact> 0.10035117E+01</totfact>
</mgrwt>
</event>
<event>
 8    1  0.3214020E-028  0.1733503E+04  0.7818608E-02  0.8742484E-01
         -1   -1    0    0    0  501 -0.00000000000E+00  0.00000000000E+00  0.15573362933E+04  0.15573362934E+04  0.50400000000E-02 0. -1.
          1   -1    0    0  501    0  0.00000000000E+00 -0.00000000000E+00 -0.48239944337E+03  0.48239944340E+03  0.50400000000E-02 0.  1.
     200001    2    1    2    0    0 -0.11809734197E+03 -0.32651612724E+03  0.76491560155E+02  0.77188213310E+03  0.68512137983E+03 0.  0.
    5000001    2    3    3    0    0 -0.20328134710E+02  0.11950233329E+02  0.22509037895E+01  0.15574093972E+03  0.15392898557E+03 0.  0.
        -13    1    4    4    0    0  0.37745243232E+02  0.57701302985E+02 -0.21960441540E+02  0.72363083886E+02  0.10566000000E+00 0. -1.
     200003    1    4    4    0    0 -0.58073377942E+02 -0.45751069656E+02  0.24211345329E+02  0.83377855830E+02  0.30000000000E+02 0. -1.
     200000    1    3    3    0    0 -0.97769207256E+02 -0.33846636057E+03  0.74240656366E+02  0.61614119338E+03  0.50000000000E+03 0. -1.
    -200001    1    1    2    0    0  0.11809734197E+03  0.32651612724E+03  0.99844528982E+03  0.12678536036E+04  0.70000000000E+03 0. -1.
<mgrwt>
<rscale>  0 0.17335030E+04</rscale>
<asrwt>0</asrwt>
<pdfrwt beam="1">  1        1 0.68914207E-01 0.17335030E+04</pdfrwt>
<pdfrwt beam="2">  1       -1 0.22247661E+00 0.17335030E+04</pdfrwt>
<totfact> 0.51937261E+00</totfact>
</mgrwt>
</event>
<event>
 8    1  0.3214020E-028  0.1798049E+04  0.7818608E-02  0.8707338E-01
          1   -1    0    0  501    0  0.00000000000E+00  0.00000000000E+00  0.73819240597E+03  0.73819240599E+03  0.50400000000E-02 0. -1.
         -1   -1    0    0    0  501 -0.00000000000E+00 -0.00000000000E+00 -0.10948976211E+04  0.10948976211E+04  0.50400000000E-02 0.  1.
     200001    2    1    2    0    0  0.48053447745E+03 -0.51251500580E+02 -0.47591191303E+03  0.97416608568E+03  0.69926197751E+03 0.  0.
    5000001    2    3    3    0    0  0.11144713175E+03 -0.27762956211E+02 -0.61391701946E+02  0.22676780774E+03  0.18564334797E+03 0.  0.
        -13    1    4    4    0    0  0.10215535175E+02  0.45989711223E+02  0.40828368963E+02  0.62340817876E+02  0.10566000000E+00 0. -1.
     200003    1    4    4    0    0  0.10123159658E+03 -0.73752667434E+02 -0.10222007091E+03  0.16442698987E+03  0.30000000000E+02 0. -1.
     200000    1    3    3    0    0  0.36908734570E+03 -0.23488544369E+02 -0.41452021108E+03  0.74739827794E+03  0.50000000000E+03 0.  1.
    -200001    1    1    2    0    0 -0.48053447745E+03  0.51251500580E+02  0.11920669789E+03  0.85892394143E+03  0.70000000000E+03 0.  1.
<mgrwt>
<rscale>  0 0.17980491E+04</rscale>
<asrwt>0</asrwt>
<pdfrwt beam="1">  1        1 0.10545606E+00 0.17980491E+04</pdfrwt>
<pdfrwt beam="2">  1       -1 0.15641395E+00 0.17980491E+04</pdfrwt>
<totfact> 0.82926121E+00</totfact>
</mgrwt>
</event>
<event>
 8    1  0.3214020E-028  0.1844587E+04  0.7818608E-02  0.8682942E-01
         -1   -1    0    0    0  501 -0.00000000000E+00  0.00000000000E+00  0.68030950143E+03  0.68030950145E+03  0.50400000000E-02 0. -1.
          1   -1    0    0  501    0  0.00000000000E+00 -0.00000000000E+00 -0.12503500217E+04  0.12503500217E+04  0.50400000000E-02 0.  1.
     200001    2    1    2    0    0  0.20094094301E+03 -0.11300967816E+03 -0.86715518511E+03  0.11360366101E+04  0.69675864866E+03 0.  0.
    5000001    2    3    3    0    0  0.13840814917E+02 -0.57328446748E+02 -0.30854058084E+03  0.36133851822E+03  0.17857803828E+03 0.  0.
        -13    1    4    4    0    0 -0.42646283937E+02  0.48048323772E+02 -0.92864996741E+02  0.11292150253E+03  0.10566000000E+00 0. -1.
     200003    1    4    4    0    0  0.56487098854E+02 -0.10537677052E+03 -0.21567558410E+03  0.24841701568E+03  0.30000000000E+02 0. -1.
     200000    1    3    3    0    0  0.18710012809E+03 -0.55681231411E+02 -0.55861460427E+03  0.77469809188E+03  0.50000000000E+03 0.  1.
    -200001    1    1    2    0    0 -0.20094094301E+03  0.11300967816E+03  0.29711466482E+03  0.79462291308E+03  0.70000000000E+03 0. -1.
<mgrwt>
<rscale>  0 0.18445867E+04</rscale>
<asrwt>0</asrwt>
<pdfrwt beam="1">  1        1 0.17862143E+00 0.18445867E+04</pdfrwt>
<pdfrwt beam="2">  1       -1 0.97187072E-01 0.18445867E+04</pdfrwt>
<totfact> 0.10957629E+01</totfact>
</mgrwt>
</event>
<event>
 8    1  0.3214020E-028  0.1553522E+04  0.7818608E-02  0.8849621E-01
          1   -1    0    0  501    0  0.00000000000E+00  0.00000000000E+00  0.22197322231E+04  0.22197322231E+04  0.50400000000E-02 0.  1.
         -1   -1    0    0    0  501 -0.00000000000E+00 -0.00000000000E+00 -0.27181564693E+03  0.27181564698E+03  0.50400000000E-02 0. -1.
     200001    2    1    2    0    0  0.11774213475E+01 -0.33163585817E+03  0.86982494038E+03  0.11640444600E+04  0.69887076711E+03 0.  0.
    5000001    2    3    3    0    0 -0.81559479247E+02 -0.50091849697E+02  0.23916962644E+03  0.30740069011E+03  0.16772576429E+03 0.  0.
        -13    1    4    4    0    0 -0.16949752901E+02 -0.75977803163E+02  0.27482716834E+02  0.82554415905E+02  0.10566000000E+00 0. -1.
     200003    1    4    4    0    0 -0.64609726346E+02  0.25885953466E+02  0.21168690960E+03  0.22484627420E+03  0.30000000000E+02 0. -1.
     200000    1    3    3    0    0  0.82736900594E+02 -0.28154400847E+03  0.63065531394E+03  0.85664376985E+03  0.50000000000E+03 0.  1.
    -200001    1    1    2    0    0 -0.11774213475E+01  0.33163585817E+03  0.10780916358E+04  0.13275034101E+04  0.70000000000E+03 0. -1.
<mgrwt>
<rscale>  0 0.15535224E+04</rscale>
<asrwt>0</asrwt>
<pdfrwt beam="1">  1        1 0.31710462E+00 0.15535224E+04</pdfrwt>
<pdfrwt beam="2">  1       -1 0.38830805E-01 0.15535224E+04</pdfrwt>
<totfact> 0.16809854E+01</totfact>
</mgrwt>
</event>
<event>
 8    1  0.3214020E-028  0.1726315E+04  0.7818608E-02  0.8746497E-01
         -1   -1    0    0    0  501 -0.00000000000E+00  0.00000000000E+00  0.63698418094E+03  0.63698418096E+03  0.50400000000E-02 0.  1.
          1   -1    0    0  501    0  0.00000000000E+00 -0.00000000000E+00 -0.11696377934E+04  0.11696377934E+04  0.50400000000E-02 0. -1.
     200001    2    1    2    0    0 -0.17331342627E+03 -0.19430599610E+03 -0.71853625523E+03  0.10369826298E+04  0.70088962077E+03 0.  0.
    5000001    2    3    3    0    0 -0.75416444030E+02 -0.25588013011E+02 -0.10565043771E+03  0.22231791206E+03  0.17866407752E+03 0.  0.
        -13    1    4    4    0    0  0.36739681294E+02 -0.47132474442E+02 -0.82691702608E+02  0.10202550256E+03  0.10566000000E+00 0. -1.
     200003    1    4    4    0    0 -0.11215612532E+03  0.21544461432E+02 -0.22958735103E+02  0.12029240950E+03  0.30000000000E+02 0. -1.
     200000    1    3    3    0    0 -0.97896982236E+02 -0.16871798309E+03 -0.61288581752E+03  0.81466471770E+03  0.50000000000E+03 0. -1.
    -200001    1    1    2    0    0  0.17331342627E+03  0.19430599610E+03  0.18588264279E+03  0.76963934458E+03  0.70000000000E+03 0.  1.
<mgrwt>
<rscale>  0 0.17263149E+04</rscale>
<asrwt>0</asrwt>
<pdfrwt beam="1">  1        1 0.16709111E+00 0.17263149E+04</pdfrwt>
<pdfrwt beam="2">  1       -1 0.90997741E-01 0.17263149E+04</pdfrwt>
<totfact> 0.14590610E+01</totfact>
</mgrwt>
</event>
<event>
 8    1  0.3214020E-028  0.2046777E+04  0.7818608E-02  0.8585058E-01
         -1   -1    0    0    0  501 -0.00000000000E+00  0.00000000000E+00  0.70765385198E+03  0.70765385200E+03  0.50400000000E-02 0.  1.
          1   -1    0    0  501    0  0.00000000000E+00 -0.00000000000E+00 -0.14799948904E+04  0.14799948904E+04  0.50400000000E-02 0. -1.
     200001    2    1    2    0    0  0.48138305037E+03  0.53368686227E+03 -0.60262257291E+03  0.11701244598E+04  0.69963274506E+03 0.  0.
    5000001    2    3    3    0    0  0.13282152882E+03  0.17902804328E+03 -0.22436022634E+03  0.36989923214E+03  0.19182109367E+03 0.  0.
        -13    1    4    4    0    0  0.79468533655E+02 -0.17145148098E+02 -0.10307472812E+03  0.13127686272E+03  0.10566000000E+00 0. -1.
     200003    1    4    4    0    0  0.53352995161E+02  0.19617319138E+03 -0.12128549822E+03  0.23862236942E+03  0.30000000000E+02 0. -1.
     200000    1    3    3    0    0  0.34856152155E+03  0.35465881899E+03 -0.37826234656E+03  0.80022522768E+03  0.50000000000E+03 0. -1.
    -200001    1    1    2    0    0 -0.48138305037E+03 -0.53368686227E+03 -0.16971846553E+03  0.10175242826E+04  0.70000000000E+03 0.  1.
<mgrwt>
<rscale>  0 0.20467771E+04</rscale>
<asrwt>0</asrwt>
<pdfrwt beam="1">  1        1 0.21142784E+00 0.20467771E+04</pdfrwt>
<pdfrwt beam="2">  1       -1 0.10109341E+00 0.20467771E+04</pdfrwt>
<totfact> 0.69109309E+00</totfact>
</mgrwt>
</event>
<event>
 8    1  0.3214020E-028  0.2142946E+04  0.7818608E-02  0.8542558E-01
         -1   -1    0    0    0  501 -0.00000000000E+00  0.00000000000E+00  0.15203629542E+04  0.15203629542E+04  0.50400000000E-02 0. -1.
          1   -1    0    0  501    0  0.00000000000E+00 -0.00000000000E+00 -0.75511846268E+03  0.75511846269E+03  0.50400000000E-02 0.  1.
     200001    2    1    2    0    0 -0.26479753355E+03 -0.31264259988E+03  0.11240365262E+04  0.13885795886E+04  0.70486313029E+03 0.  0.
    5000001    2    3    3    0    0 -0.27140780408E+02 -0.10735901040E+02  0.10458105632E+03  0.18986450889E+03  0.15575446338E+03 0.  0.
        -13    1    4    4    0    0  0.16789461397E+02 -0.70214991187E+02  0.76710120227E+02  0.10533985338E+03  0.10566000000E+00 0. -1.
     200003    1    4    4    0    0 -0.43930241805E+02  0.59479090147E+02  0.27870936098E+02  0.84524655508E+02  0.30000000000E+02 0. -1.
     200000    1    3    3    0    0 -0.23765675314E+03 -0.30190669884E+03  0.10194554699E+04  0.11987150797E+04  0.50000000000E+03 0. -1.
    -200001    1    1    2    0    0  0.26479753355E+03  0.31264259988E+03 -0.35879203467E+03  0.88690182838E+03  0.70000000000E+03 0.  1.
<mgrwt>
<rscale>  0 0.21429458E+04</rscale>
<asrwt>0</asrwt>
<pdfrwt beam="1">  1        1 0.10787406E+00 0.21429458E+04</pdfrwt>
<pdfrwt beam="2">  1       -1 0.21719471E+00 0.21429458E+04</pdfrwt>
<totfact> 0.28750155E+00</totfact>
</mgrwt>
</event>
<event>
 8    1  0.3214020E-028  0.2141282E+04  0.7818608E-02  0.8543273E-01
         -1   -1    0    0    0  501 -0.00000000000E+00  0.00000000000E+00  0.74514930237E+03  0.74514930239E+03  0.50400000000E-02 0. -1.
          1   -1    0    0  501    0  0.00000000000E+00 -0.00000000000E+00 -0.15383126267E+04  0.15383126267E+04  0.50400000000E-02 0.  1.
     200001    2    1    2    0    0  0.10900570983E+02  0.75421471550E+03 -0.70947515699E+03  0.12510073931E+04  0.70193008178E+03 0.  0.
    5000001    2    3    3    0    0 -0.46715567149E+02  0.19502589349E+03 -0.17179358072E+03  0.32628406395E+03  0.19165284414E+03 0.  0.
        -13    1    4    4    0    0 -0.80628662471E+01 -0.30686690309E+02  0.90012132519E+01  0.32980536355E+02  0.10566000000E+00 0. -1.
     200003    1    4    4    0    0 -0.38652700901E+02  0.22571258380E+03 -0.18079479397E+03  0.29330352759E+03  0.30000000000E+02 0. -1.
     200000    1    3    3    0    0  0.57616138132E+02  0.55918882201E+03 -0.53768157627E+03  0.92472332916E+03  0.50000000000E+03 0.  1.
    -200001    1    1    2    0    0 -0.10900570983E+02 -0.75421471550E+03 -0.83688167343E+02  0.10324545360E+04  0.70000000000E+03 0. -1.
<mgrwt>
<rscale>  0 0.21412824E+04</rscale>
<asrwt>0</asrwt>
<pdfrwt beam="1">  1        1 0.21975894E+00 0.21412824E+04</pdfrwt>
<pdfrwt beam="2">  1       -1 0.10644990E+00 0.21412824E+04</pdfrwt>
<totfact> 0.55712013E+00</totfact>
</mgrwt>
</event>
<event>
 8    1  0.3214020E-028  0.1580246E+04  0.7818608E-02  0.8832776E-01
          1   -1    0    0  501    0  0.00000000000E+00  0.00000000000E+00  0.11070228606E+04  0.11070228607E+04  0.50400000000E-02 0.  1.
         -1   -1    0    0    0  501 -0.00000000000E+00 -0.00000000000E+00 -0.56394006689E+03  0.56394006692E+03  0.50400000000E-02 0. -1.
     200001    2    1    2    0    0  0.10136992446E+01  0.29420004883E+02 -0.11429764867E+03  0.71022591342E+03  0.70035014909E+03 0.  0.
    5000001    2    3    3    0    0 -0.65948097857E+02  0.35589623476E+02 -0.88408152942E+02  0.20506038367E+03  0.16916851519E+03 0.  0.
        -13    1    4    4    0    0 -0.11212943082E+03  0.55284745977E+02 -0.47730598204E+02  0.13381940652E+03  0.10566000000E+00 0. -1.
     200003    1    4    4    0    0  0.46181332963E+02 -0.19695122501E+02 -0.40677554738E+02  0.71240977141E+02  0.30000000000E+02 0. -1.
     200000    1    3    3    0    0  0.66961797101E+02 -0.61696185930E+01 -0.25889495733E+02  0.50516552976E+03  0.50000000000E+03 0. -1.
    -200001    1    1    2    0    0 -0.10136992446E+01 -0.29420004883E+02  0.65738044242E+03  0.96073701415E+03  0.70000000000E+03 0.  1.
<mgrwt>
<rscale>  0 0.15802462E+04</rscale>
<asrwt>0</asrwt>
<pdfrwt beam="1">  1        1 0.15814612E+00 0.15802462E+04</pdfrwt>
<pdfrwt beam="2">  1       -1 0.80562866E-01 0.15802462E+04</pdfrwt>
<totfact> 0.21317994E+01</totfact>
</mgrwt>
</event>
<event>
 8    1  0.3214020E-028  0.1517589E+04  0.7818608E-02  0.8872840E-01
         -1   -1    0    0    0  501 -0.00000000000E+00  0.00000000000E+00  0.49555837930E+03  0.49555837932E+03  0.50400000000E-02 0.  1.
          1   -1    0    0  501    0  0.00000000000E+00 -0.00000000000E+00 -0.11618587826E+04  0.11618587826E+04  0.50400000000E-02 0. -1.
     200001    2    1    2    0    0  0.77899335816E+02 -0.23531336309E+03 -0.14319635446E+03  0.74907882668E+03  0.69222337961E+03 0.  0.
    5000001    2    3    3    0    0  0.11118337336E+03 -0.71740532370E+02 -0.64147157235E+02  0.21605661918E+03  0.15829453059E+03 0.  0.
        -13    1    4    4    0    0  0.13320282723E+03 -0.75553136765E+02 -0.14399835023E+02  0.15381364071E+03  0.10566000000E+00 0. -1.
     200003    1    4    4    0    0 -0.22019453871E+02  0.38126043951E+01 -0.49747322212E+02  0.62242978466E+02  0.30000000000E+02 0. -1.
     200000    1    3    3    0    0 -0.33284037541E+02 -0.16357283072E+03 -0.79049197226E+02  0.53302220750E+03  0.50000000000E+03 0.  1.
    -200001    1    1    2    0    0 -0.77899335816E+02  0.23531336309E+03 -0.52310404883E+03  0.90833833524E+03  0.70000000000E+03 0. -1.
<mgrwt>
<rscale>  0 0.15175887E+04</rscale>
<asrwt>0</asrwt>
<pdfrwt beam="1">  1        1 0.16597983E+00 0.15175887E+04</pdfrwt>
<pdfrwt beam="2">  1       -1 0.70794055E-01 0.15175887E+04</pdfrwt>
<totfact> 0.25679248E+01</totfact>
</mgrwt>
</event>
<event>
 8    1  0.3214020E-028  0.2763183E+04  0.7818608E-02  0.8314791E-01
         -1   -1    0    0    0  501 -0.00000000000E+00  0.00000000000E+00  0.13833747577E+04  0.13833747577E+04  0.50400000000E-02 0. -1.
          1   -1    0    0  501    0  0.00000000000E+00 -0.00000000000E+00 -0.13798106248E+04  0.13798106249E+04  0.50400000000E-02 0.  1.
     200001    2    1    2    0    0 -0.32104407487E+03 -0.88982920779E+03  0.72518124049E+03  0.13827519119E+04  0.70089207530E+03 0.  0.
    5000001    2    3    3    0    0 -0.59072504322E+02 -0.35960870077E+03  0.26724232535E+03  0.48304588221E+03  0.17060740143E+03 0.  0.
        -13    1    4    4    0    0 -0.16787988157E+02 -0.77271424435E+02  0.15654645507E+03  0.17538390274E+03  0.10566000000E+00 0. -1.
     200003    1    4    4    0    0 -0.42284516165E+02 -0.28233727633E+03  0.11069587028E+03  0.30766197947E+03  0.30000000000E+02 0. -1.
     200000    1    3    3    0    0 -0.26197157055E+03 -0.53022050702E+03  0.45793891514E+03  0.89970602968E+03  0.50000000000E+03 0. -1.
    -200001    1    1    2    0    0  0.32104407487E+03  0.88982920779E+03 -0.72161710761E+03  0.13804334707E+04  0.70000000000E+03 0.  1.
<mgrwt>
<rscale>  0 0.27631831E+04</rscale>
<asrwt>0</asrwt>
<pdfrwt beam="1">  1        1 0.19711580E+00 0.27631831E+04</pdfrwt>
<pdfrwt beam="2">  1       -1 0.19762497E+00 0.27631831E+04</pdfrwt>
<totfact> 0.12756617E+00</totfact>
</mgrwt>
</event>
<event>
 8    1  0.3214020E-028  0.1953948E+04  0.7818608E-02  0.8628459E-01
         -1   -1    0    0    0  501 -0.00000000000E+00  0.00000000000E+00  0.49675810974E+03  0.49675810977E+03  0.50400000000E-02 0. -1.
          1   -1    0    0  501    0  0.00000000000E+00 -0.00000000000E+00 -0.19214150967E+04  0.19214150967E+04  0.50400000000E-02 0.  1.
     200001    2    1    2    0    0 -0.65959237525E+02 -0.62947220257E+03 -0.10229195601E+04  0.13925130118E+04  0.70152846471E+03 0.  0.
    5000001    2    3    3    0    0  0.28728562611E+02 -0.79102704862E+02 -0.14313015507E+03  0.23670084683E+03  0.16869641779E+03 0.  0.
        -13    1    4    4    0    0  0.36776262993E+01 -0.12006904271E+03 -0.55396156439E+02  0.13228320099E+03  0.10566000000E+00 0. -1.
     200003    1    4    4    0    0  0.25050936312E+02  0.40966337848E+02 -0.87733998633E+02  0.10441764584E+03  0.30000000000E+02 0. -1.
     200000    1    3    3    0    0 -0.94687800136E+02 -0.55036949771E+03 -0.87978940503E+03  0.11558121650E+04  0.50000000000E+03 0.  1.
    -200001    1    1    2    0    0  0.65959237525E+02  0.62947220257E+03 -0.40173742689E+03  0.10256601947E+04  0.70000000000E+03 0. -1.
<mgrwt>
<rscale>  0 0.19539483E+04</rscale>
<asrwt>0</asrwt>
<pdfrwt beam="1">  1        1 0.27448787E+00 0.19539483E+04</pdfrwt>
<pdfrwt beam="2">  1       -1 0.70965445E-01 0.19539483E+04</pdfrwt>
<totfact> 0.78293786E+00</totfact>
</mgrwt>
</event>
<event>
 8    1  0.3214020E-028  0.1523542E+04  0.7818608E-02  0.8868947E-01
          1   -1    0    0  501    0  0.00000000000E+00  0.00000000000E+00  0.15169242698E+04  0.15169242698E+04  0.50400000000E-02 0.  1.
         -1   -1    0    0    0  501 -0.00000000000E+00 -0.00000000000E+00 -0.38254693207E+03  0.38254693210E+03  0.50400000000E-02 0. -1.
     200001    2    1    2    0    0  0.17705050886E+03 -0.23239938352E+03  0.48006605365E+03  0.89773290644E+03  0.70007470979E+03 0.  0.
    5000001    2    3    3    0    0  0.10027607760E+03 -0.45931979206E+02  0.14899068611E+03  0.26505976400E+03  0.18945557657E+03 0.  0.
        -13    1    4    4    0    0  0.24331166385E+02 -0.18221215441E+01 -0.44338211106E+02  0.50608437169E+02  0.10566000000E+00 0. -1.
     200003    1    4    4    0    0  0.75944911212E+02 -0.44109857662E+02  0.19332889722E+03  0.21445132683E+03  0.30000000000E+02 0. -1.
     200000    1    3    3    0    0  0.76774431261E+02 -0.18646740431E+03  0.33107536754E+03  0.63267314243E+03  0.50000000000E+03 0.  1.
    -200001    1    1    2    0    0 -0.17705050886E+03  0.23239938352E+03  0.65431128411E+03  0.10017382955E+04  0.70000000000E+03 0. -1.
<mgrwt>
<rscale>  0 0.15235416E+04</rscale>
<asrwt>0</asrwt>
<pdfrwt beam="1">  1        1 0.21670347E+00 0.15235416E+04</pdfrwt>
<pdfrwt beam="2">  1       -1 0.54649561E-01 0.15235416E+04</pdfrwt>
<totfact> 0.24795152E+01</totfact>
</mgrwt>
</event>
<event>
 8    1  0.3214020E-028  0.2436478E+04  0.7818608E-02  0.8425972E-01
         -1   -1    0    0    0  501 -0.00000000000E+00  0.00000000000E+00  0.92240805483E+03  0.92240805484E+03  0.50400000000E-02 0. -1.
          1   -1    0    0  501    0  0.00000000000E+00 -0.00000000000E+00 -0.16089472052E+04  0.16089472052E+04  0.50400000000E-02 0.  1.
     200001    2    1    2    0    0  0.54649061981E+03  0.69663781606E+03  0.12027110611E+03  0.11439479535E+04  0.71427973303E+03 0.  0.
    5000001    2    3    3    0    0  0.13192683994E+03  0.20252101539E+02  0.19356279691E+02  0.20079125146E+03  0.14875356260E+03 0.  0.
        -13    1    4    4    0    0  0.35616735008E+02 -0.25918395301E+01  0.75200877269E+02  0.83249339642E+02  0.10566000000E+00 0. -1.
     200003    1    4    4    0    0  0.96310104933E+02  0.22843941069E+02 -0.55844597578E+02  0.11754191182E+03  0.30000000000E+02 0. -1.
     200000    1    3    3    0    0  0.41456377987E+03  0.67638571452E+03  0.10091482642E+03  0.94315670203E+03  0.50000000000E+03 0.  1.
    -200001    1    1    2    0    0 -0.54649061981E+03 -0.69663781606E+03 -0.80681025645E+03  0.13874073065E+04  0.70000000000E+03 0.  1.
<mgrwt>
<rscale>  0 0.24364777E+04</rscale>
<asrwt>0</asrwt>
<pdfrwt beam="1">  1        1 0.22984960E+00 0.24364777E+04</pdfrwt>
<pdfrwt beam="2">  1       -1 0.13177258E+00 0.24364777E+04</pdfrwt>
<totfact> 0.29083388E+00</totfact>
</mgrwt>
</event>
<event>
 8    1  0.3214020E-028  0.1585621E+04  0.7818608E-02  0.8829430E-01
          1   -1    0    0  501    0  0.00000000000E+00  0.00000000000E+00  0.11031272138E+04  0.11031272138E+04  0.50400000000E-02 0.  1.
         -1   -1    0    0    0  501 -0.00000000000E+00 -0.00000000000E+00 -0.56978794962E+03  0.56978794964E+03  0.50400000000E-02 0. -1.
     200001    2    1    2    0    0 -0.24005515822E+03 -0.34558585974E+02  0.56291399608E+03  0.93150067770E+03  0.70142752349E+03 0.  0.
    5000001    2    3    3    0    0 -0.10769836411E+03  0.18809606754E+02  0.68335825939E+02  0.21388375251E+03  0.17065677702E+03 0.  0.
        -13    1    4    4    0    0 -0.12744766527E+03 -0.17628411293E+02  0.18075064776E+00  0.12866122999E+03  0.10566000000E+00 0. -1.
     200003    1    4    4    0    0  0.19749301164E+02  0.36438018047E+02  0.68155075291E+02  0.85222522514E+02  0.30000000000E+02 0. -1.
     200000    1    3    3    0    0 -0.13235679411E+03 -0.53368192728E+02  0.49457817014E+03  0.71761692519E+03  0.50000000000E+03 0.  1.
    -200001    1    1    2    0    0  0.24005515822E+03  0.34558585974E+02 -0.29574731940E+02  0.74141448571E+03  0.70000000000E+03 0. -1.
<mgrwt>
<rscale>  0 0.15856211E+04</rscale>
<asrwt>0</asrwt>
<pdfrwt beam="1">  1        1 0.15758960E+00 0.15856211E+04</pdfrwt>
<pdfrwt beam="2">  1       -1 0.81398279E-01 0.15856211E+04</pdfrwt>
<totfact> 0.20978893E+01</totfact>
</mgrwt>
</event>
<event>
 8    1  0.3214020E-028  0.1493629E+04  0.7818608E-02  0.8888700E-01
          1   -1    0    0  501    0  0.00000000000E+00  0.00000000000E+00  0.62533613053E+03  0.62533613055E+03  0.50400000000E-02 0.  1.
         -1   -1    0    0    0  501 -0.00000000000E+00 -0.00000000000E+00 -0.89189187158E+03  0.89189187160E+03  0.50400000000E-02 0. -1.
     200001    2    1    2    0    0  0.11752130550E+03  0.20042939401E+03 -0.21193804217E+02  0.73993418429E+03  0.70218959015E+03 0.  0.
    5000001    2    3    3    0    0  0.80210970720E+02 -0.98696537470E+01  0.41387918659E+02  0.19263698659E+03  0.16989655354E+03 0.  0.
        -13    1    4    4    0    0 -0.21239118687E+02 -0.51798968031E+02  0.54443225751E+02  0.78091672065E+02  0.10566000000E+00 0. -1.
     200003    1    4    4    0    0  0.10145008941E+03  0.41929314284E+02 -0.13055307092E+02  0.11454531453E+03  0.30000000000E+02 0. -1.
     200000    1    3    3    0    0  0.37310334784E+02  0.21029904776E+03 -0.62581722876E+02  0.54729719770E+03  0.50000000000E+03 0. -1.
    -200001    1    1    2    0    0 -0.11752130550E+03 -0.20042939401E+03 -0.24536193684E+03  0.77729381786E+03  0.70000000000E+03 0. -1.
<mgrwt>
<rscale>  0 0.14936294E+04</rscale>
<asrwt>0</asrwt>
<pdfrwt beam="1">  1        1 0.89333734E-01 0.14936294E+04</pdfrwt>
<pdfrwt beam="2">  1       -1 0.12741312E+00 0.14936294E+04</pdfrwt>
<totfact> 0.18590160E+01</totfact>
</mgrwt>
</event>
<event>
 8    1  0.3214020E-028  0.1947966E+04  0.7818608E-02  0.8631342E-01
          1   -1    0    0  501    0  0.00000000000E+00  0.00000000000E+00  0.36642629322E+04  0.36642629322E+04  0.50400000000E-02 0.  1.
         -1   -1    0    0    0  501 -0.00000000000E+00 -0.00000000000E+00 -0.25889058756E+03  0.25889058761E+03  0.50400000000E-02 0. -1.
     200001    2    1    2    0    0 -0.49378240470E+03  0.33173519039E+02  0.77043102269E+03  0.11522624509E+04  0.69944495819E+03 0.  0.
    5000001    2    3    3    0    0 -0.12828153682E+03  0.12651836284E+03  0.28415371224E+03  0.35931241029E+03  0.12609134461E+03 0.  0.
        -13    1    4    4    0    0 -0.14219577447E+03  0.81856168021E+02  0.21979812654E+03  0.27428324432E+03  0.10566000000E+00 0. -1.
     200003    1    4    4    0    0  0.13914237646E+02  0.44662194822E+02  0.64355585693E+02  0.85029165969E+02  0.30000000000E+02 0. -1.
     200000    1    3    3    0    0 -0.36550086788E+03 -0.93344843803E+02  0.48627731045E+03  0.79295004064E+03  0.50000000000E+03 0. -1.
    -200001    1    1    2    0    0  0.49378240470E+03 -0.33173519039E+02  0.26349413220E+04  0.27708910689E+04  0.70000000000E+03 0.  1.
<mgrwt>
<rscale>  0 0.19479663E+04</rscale>
<asrwt>0</asrwt>
<pdfrwt beam="1">  1        1 0.52346611E+00 0.19479663E+04</pdfrwt>
<pdfrwt beam="2">  1       -1 0.36984371E-01 0.19479663E+04</pdfrwt>
<totfact> 0.19631113E+00</totfact>
</mgrwt>
</event>
<event>
 8    1  0.3214020E-028  0.1435889E+04  0.7818608E-02  0.8928242E-01
          1   -1    0    0  501    0  0.00000000000E+00  0.00000000000E+00  0.57162188103E+03  0.57162188105E+03  0.50400000000E-02 0.  1.
         -1   -1    0    0    0  501 -0.00000000000E+00 -0.00000000000E+00 -0.90172270453E+03  0.90172270455E+03  0.50400000000E-02 0. -1.
     200001    2    1    2    0    0  0.47212060022E+02 -0.10530858363E+03 -0.49076053603E+02  0.71026280906E+03  0.69910365647E+03 0.  0.
    5000001    2    3    3    0    0  0.67606504835E+02 -0.94775696547E+02 -0.61332973447E+02  0.20958615974E+03  0.16313047713E+03 0.  0.
        -13    1    4    4    0    0  0.42838050962E+02 -0.11442785168E+02  0.48911753745E+02  0.66018230520E+02  0.10566000000E+00 0. -1.
     200003    1    4    4    0    0  0.24768453873E+02 -0.83332911379E+02 -0.11024472719E+03  0.14356792922E+03  0.30000000000E+02 0. -1.
     200000    1    3    3    0    0 -0.20394444813E+02 -0.10532887080E+02  0.12256919844E+02  0.50067664932E+03  0.50000000000E+03 0.  1.
    -200001    1    1    2    0    0 -0.47212060022E+02  0.10530858363E+03 -0.28102476990E+03  0.76308177654E+03  0.70000000000E+03 0. -1.
<mgrwt>
<rscale>  0 0.14358892E+04</rscale>
<asrwt>0</asrwt>
<pdfrwt beam="1">  1        1 0.81660268E-01 0.14358892E+04</pdfrwt>
<pdfrwt beam="2">  1       -1 0.12881753E+00 0.14358892E+04</pdfrwt>
<totfact> 0.20630633E+01</totfact>
</mgrwt>
</event>
<event>
 8    1  0.3214020E-028  0.2062235E+04  0.7818608E-02  0.8578064E-01
         -1   -1    0    0    0  501 -0.00000000000E+00  0.00000000000E+00  0.35460024527E+03  0.35460024531E+03  0.50400000000E-02 0. -1.
          1   -1    0    0  501    0  0.00000000000E+00 -0.00000000000E+00 -0.29983166222E+04  0.29983166222E+04  0.50400000000E-02 0.  1.
     200001    2    1    2    0    0 -0.19221392107E+02 -0.41278491655E+03 -0.23531988748E+04  0.24896896273E+04  0.70017758225E+03 0.  0.
    5000001    2    3    3    0    0 -0.40323082358E+02 -0.15854996533E+03 -0.80954969208E+03  0.84715089379E+03  0.18849374110E+03 0.  0.
        -13    1    4    4    0    0  0.59418381567E+02 -0.36063770514E+02 -0.42019268698E+03  0.42590262381E+03  0.10566000000E+00 0. -1.
     200003    1    4    4    0    0 -0.99741463924E+02 -0.12248619481E+03 -0.38935700509E+03  0.42124826998E+03  0.30000000000E+02 0. -1.
     200000    1    3    3    0    0  0.21101690251E+02 -0.25423495123E+03 -0.15436491827E+04  0.16425387335E+04  0.50000000000E+03 0.  1.
    -200001    1    1    2    0    0  0.19221392107E+02  0.41278491655E+03 -0.29051750217E+03  0.86322724026E+03  0.70000000000E+03 0. -1.
<mgrwt>
<rscale>  0 0.20622355E+04</rscale>
<asrwt>0</asrwt>
<pdfrwt beam="1">  1        1 0.42833093E+00 0.20622355E+04</pdfrwt>
<pdfrwt beam="2">  1       -1 0.50657179E-01 0.20622355E+04</pdfrwt>
<totfact> 0.31029795E+00</totfact>
</mgrwt>
</event>
<event>
 8    1  0.3214020E-028  0.1679947E+04  0.7818608E-02  0.8772885E-01
          1   -1    0    0  501    0  0.00000000000E+00  0.00000000000E+00  0.52954776197E+03  0.52954776200E+03  0.50400000000E-02 0.  1.
         -1   -1    0    0    0  501 -0.00000000000E+00 -0.00000000000E+00 -0.13323734892E+04  0.13323734892E+04  0.50400000000E-02 0. -1.
     200001    2    1    2    0    0  0.25729652758E+03  0.19603014430E+03 -0.26613500184E+02  0.76778472317E+03  0.69581303678E+03 0.  0.
    5000001    2    3    3    0    0  0.49242819366E+02  0.83693538346E+02 -0.39970919357E+01  0.21423494179E+03  0.19092189482E+03 0.  0.
        -13    1    4    4    0    0 -0.54344708130E+02  0.13805268695E+02 -0.52561726780E+02  0.76854921974E+02  0.10566000000E+00 0. -1.
     200003    1    4    4    0    0  0.10358752750E+03  0.69888269651E+02  0.48564634845E+02  0.13738001982E+03  0.30000000000E+02 0. -1.
     200000    1    3    3    0    0  0.20805370821E+03  0.11233660596E+03 -0.22616408249E+02  0.55354978137E+03  0.50000000000E+03 0.  1.
    -200001    1    1    2    0    0 -0.25729652758E+03 -0.19603014430E+03 -0.77621222704E+03  0.10941365280E+04  0.70000000000E+03 0. -1.
<mgrwt>
<rscale>  0 0.16799469E+04</rscale>
<asrwt>0</asrwt>
<pdfrwt beam="1">  1        1 0.75649681E-01 0.16799469E+04</pdfrwt>
<pdfrwt beam="2">  1       -1 0.19033907E+00 0.16799469E+04</pdfrwt>
<totfact> 0.76185940E+00</totfact>
</mgrwt>
</event>
<event>
 8    1  0.3214020E-028  0.2634743E+04  0.7818608E-02  0.8356495E-01
         -1   -1    0    0    0  501 -0.00000000000E+00  0.00000000000E+00  0.18493644076E+04  0.18493644076E+04  0.50400000000E-02 0. -1.
          1   -1    0    0  501    0  0.00000000000E+00 -0.00000000000E+00 -0.93841331432E+03  0.93841331434E+03  0.50400000000E-02 0.  1.
     200001    2    1    2    0    0  0.17862779681E+03  0.99910617098E+03  0.94695061482E+03  0.15543203874E+04  0.69933923749E+03 0.  0.
    5000001    2    3    3    0    0  0.98466326500E+02  0.37331696082E+03  0.29479764839E+03  0.51829843373E+03  0.18073860189E+03 0.  0.
        -13    1    4    4    0    0 -0.11392882278E+02  0.23097646722E+03  0.10134032031E+03  0.25248722316E+03  0.10566000000E+00 0. -1.
     200003    1    4    4    0    0  0.10985920878E+03  0.14234049360E+03  0.19345732808E+03  0.26581121056E+03  0.30000000000E+02 0. -1.
     200000    1    3    3    0    0  0.80161470309E+02  0.62578921016E+03  0.65215296643E+03  0.10360219537E+04  0.50000000000E+03 0. -1.
    -200001    1    1    2    0    0 -0.17862779681E+03 -0.99910617098E+03 -0.35999521502E+02  0.12334573346E+04  0.70000000000E+03 0.  1.
<mgrwt>
<rscale>  0 0.26347434E+04</rscale>
<asrwt>0</asrwt>
<pdfrwt beam="1">  1        1 0.13405904E+00 0.26347434E+04</pdfrwt>
<pdfrwt beam="2">  1       -1 0.26419492E+00 0.26347434E+04</pdfrwt>
<totfact> 0.95693124E-01</totfact>
</mgrwt>
</event>
<event>
 8    1  0.3214020E-028  0.1435114E+04  0.7818608E-02  0.8928786E-01
          1   -1    0    0  501    0  0.00000000000E+00  0.00000000000E+00  0.12142462162E+04  0.12142462162E+04  0.50400000000E-02 0. -1.
         -1   -1    0    0    0  501 -0.00000000000E+00 -0.00000000000E+00 -0.42403924090E+03  0.42403924093E+03  0.50400000000E-02 0.  1.
     200001    2    1    2    0    0  0.62282204573E+02 -0.27142900195E+02  0.55841540431E+03  0.89778350415E+03  0.69969396632E+03 0.  0.
    5000001    2    3    3    0    0 -0.22762440666E+02 -0.26543698649E+02  0.20028641950E+03  0.27690564137E+03  0.18798773296E+03 0.  0.
        -13    1    4    4    0    0  0.27812476702E+02  0.44672642135E+02  0.17266787429E+03  0.18050868342E+03  0.10566000000E+00 0. -1.
     200003    1    4    4    0    0 -0.50574917368E+02 -0.71216340784E+02  0.27618545210E+02  0.96396957944E+02  0.30000000000E+02 0. -1.
     200000    1    3    3    0    0  0.85044645240E+02 -0.59920154684E+00  0.35812898481E+03  0.62087786278E+03  0.50000000000E+03 0. -1.
    -200001    1    1    2    0    0 -0.62282204573E+02  0.27142900195E+02  0.23179157101E+03  0.74050195302E+03  0.70000000000E+03 0.  1.
<mgrwt>
<rscale>  0 0.14351140E+04</rscale>
<asrwt>0</asrwt>
<pdfrwt beam="1">  1        1 0.17346375E+00 0.14351140E+04</pdfrwt>
<pdfrwt beam="2">  1       -1 0.60577034E-01 0.14351140E+04</pdfrwt>
<totfact> 0.32549833E+01</totfact>
</mgrwt>
</event>
<event>
 8    1  0.3214020E-028  0.2328450E+04  0.7818608E-02  0.8466787E-01
         -1   -1    0    0    0  501 -0.00000000000E+00  0.00000000000E+00  0.89458037464E+03  0.89458037466E+03  0.50400000000E-02 0. -1.
          1   -1    0    0  501    0  0.00000000000E+00 -0.00000000000E+00 -0.15151465096E+04  0.15151465096E+04  0.50400000000E-02 0.  1.
     200001    2    1    2    0    0 -0.46974504742E+03  0.44752287725E+02 -0.11402057624E+04  0.14184204134E+04  0.69941697978E+03 0.  0.
    5000001    2    3    3    0    0 -0.28583759619E+03  0.30092685517E+02 -0.42615721599E+03  0.52740852725E+03  0.11807235394E+03 0.  0.
        -13    1    4    4    0    0 -0.15268188702E+03  0.25417087301E+02 -0.13329917901E+03  0.20427057850E+03  0.10566000000E+00 0. -1.
     200003    1    4    4    0    0 -0.13315570917E+03  0.46755982158E+01 -0.29285803698E+03  0.32313794875E+03  0.30000000000E+02 0. -1.
     200000    1    3    3    0    0 -0.18390745123E+03  0.14659602208E+02 -0.71404854640E+03  0.89101188610E+03  0.50000000000E+03 0.  1.
    -200001    1    1    2    0    0  0.46974504742E+03 -0.44752287725E+02  0.51963962744E+03  0.99130647090E+03  0.70000000000E+03 0. -1.
<mgrwt>
<rscale>  0 0.23284504E+04</rscale>
<asrwt>0</asrwt>
<pdfrwt beam="1">  1        1 0.21644950E+00 0.23284504E+04</pdfrwt>
<pdfrwt beam="2">  1       -1 0.12779720E+00 0.23284504E+04</pdfrwt>
<totfact> 0.36476094E+00</totfact>
</mgrwt>
</event>
<event>
 8    1  0.3214020E-028  0.2070741E+04  0.7818608E-02  0.8574243E-01
          1   -1    0    0  501    0  0.00000000000E+00  0.00000000000E+00  0.35946380337E+04  0.35946380337E+04  0.50400000000E-02 0.  1.
         -1   -1    0    0    0  501 -0.00000000000E+00 -0.00000000000E+00 -0.29821988761E+03  0.29821988765E+03  0.50400000000E-02 0. -1.
     200001    2    1    2    0    0  0.38153019072E+03  0.33262506793E+03  0.57216395976E+03  0.10349276223E+04  0.69821118896E+03 0.  0.
    5000001    2    3    3    0    0 -0.17901030887E+02  0.11438529126E+03  0.12855622398E+03  0.22624862288E+03  0.14579881642E+03 0.  0.
        -13    1    4    4    0    0  0.41106659138E+02  0.10980997738E+03  0.63587318589E+02  0.13338420749E+03  0.10566000000E+00 0. -1.
     200003    1    4    4    0    0 -0.59007690025E+02  0.45753138745E+01  0.64968905388E+02  0.92864415394E+02  0.30000000000E+02 0. -1.
     200000    1    3    3    0    0  0.39943122161E+03  0.21823977667E+03  0.44360773578E+03  0.80867899946E+03  0.50000000000E+03 0. -1.
    -200001    1    1    2    0    0 -0.38153019072E+03 -0.33262506793E+03  0.27242541864E+04  0.28579302990E+04  0.70000000000E+03 0.  1.
<mgrwt>
<rscale>  0 0.20707415E+04</rscale>
<asrwt>0</asrwt>
<pdfrwt beam="1">  1        1 0.51351971E+00 0.20707415E+04</pdfrwt>
<pdfrwt beam="2">  1       -1 0.42602842E-01 0.20707415E+04</pdfrwt>
<totfact> 0.16803158E+00</totfact>
</mgrwt>
</event>
<event>
 8    1  0.3214020E-028  0.1744106E+04  0.7818608E-02  0.8736601E-01
         -1   -1    0    0    0  501 -0.00000000000E+00  0.00000000000E+00  0.41645821556E+03  0.41645821559E+03  0.50400000000E-02 0. -1.
          1   -1    0    0  501    0  0.00000000000E+00 -0.00000000000E+00 -0.18260573546E+04  0.18260573546E+04  0.50400000000E-02 0.  1.
     200001    2    1    2    0    0  0.91642154496E+01 -0.20406836950E+03 -0.89743183987E+02  0.73462047292E+03  0.69991822229E+03 0.  0.
    5000001    2    3    3    0    0  0.14556594612E+02 -0.89761030583E+02 -0.87207031364E+02  0.22168609354E+03  0.18240263346E+03 0.  0.
        -13    1    4    4    0    0  0.47664221406E+02 -0.12374203377E+03 -0.97534779028E+02  0.16461170435E+03  0.10566000000E+00 0. -1.
     200003    1    4    4    0    0 -0.33107626794E+02  0.33981003191E+02  0.10327747664E+02  0.57074389191E+02  0.30000000000E+02 0. -1.
     200000    1    3    3    0    0 -0.53923791628E+01 -0.11430733892E+03 -0.25361526227E+01  0.51293437938E+03  0.50000000000E+03 0. -1.
    -200001    1    1    2    0    0 -0.91642154496E+01  0.20406836950E+03 -0.13198559551E+04  0.15078950973E+04  0.70000000000E+03 0.  1.
<mgrwt>
<rscale>  0 0.17441062E+04</rscale>
<asrwt>0</asrwt>
<pdfrwt beam="1">  1        1 0.26086533E+00 0.17441062E+04</pdfrwt>
<pdfrwt beam="2">  1       -1 0.59494032E-01 0.17441062E+04</pdfrwt>
<totfact> 0.13067145E+01</totfact>
</mgrwt>
</event>
<event>
 8    1  0.3214020E-028  0.1969118E+04  0.7818608E-02  0.8621197E-01
          1   -1    0    0  501    0  0.00000000000E+00  0.00000000000E+00  0.35937907156E+04  0.35937907156E+04  0.50400000000E-02 0.  1.
         -1   -1    0    0    0  501 -0.00000000000E+00 -0.00000000000E+00 -0.26973087418E+03  0.26973087423E+03  0.50400000000E-02 0. -1.
     200001    2    1    2    0    0  0.64654592054E+03 -0.14238932351E+03  0.12739302203E+04  0.15982781569E+04  0.70235212961E+03 0.  0.
    5000001    2    3    3    0    0  0.16960564857E+03 -0.45821292300E+02  0.28913092576E+03  0.39137009988E+03  0.19674398593E+03 0.  0.
        -13    1    4    4    0    0  0.11722772632E+03  0.14100066423E+01  0.29819496212E+02  0.12096917564E+03  0.10566000000E+00 0. -1.
     200003    1    4    4    0    0  0.52377922250E+02 -0.47231298942E+02  0.25931142955E+03  0.27040092425E+03  0.30000000000E+02 0. -1.
     200000    1    3    3    0    0  0.47694027197E+03 -0.96568031208E+02  0.98479929450E+03  0.12069080570E+04  0.50000000000E+03 0.  1.
    -200001    1    1    2    0    0 -0.64654592054E+03  0.14238932351E+03  0.20501296211E+04  0.22652434329E+04  0.70000000000E+03 0.  1.
<mgrwt>
<rscale>  0 0.19691179E+04</rscale>
<asrwt>0</asrwt>
<pdfrwt beam="1">  1        1 0.51339863E+00 0.19691179E+04</pdfrwt>
<pdfrwt beam="2">  1       -1 0.38532986E-01 0.19691179E+04</pdfrwt>
<totfact> 0.20420942E+00</totfact>
</mgrwt>
</event>
<event>
 8    1  0.3214020E-028  0.1457967E+04  0.7818608E-02  0.8912896E-01
         -1   -1    0    0    0  501 -0.00000000000E+00  0.00000000000E+00  0.69869564341E+03  0.69869564343E+03  0.50400000000E-02 0. -1.
          1   -1    0    0  501    0  0.00000000000E+00 -0.00000000000E+00 -0.76058429695E+03  0.76058429697E+03  0.50400000000E-02 0.  1.
     200001    2    1    2    0    0  0.13437775177E+03  0.39734132916E+02 -0.17757489331E+03  0.73607907787E+03  0.70045940971E+03 0.  0.
    5000001    2    3    3    0    0 -0.39437094648E+01 -0.57160150139E+02  0.24299119064E+02  0.17103532239E+03  0.15931038482E+03 0.  0.
        -13    1    4    4    0    0 -0.36593396084E+02  0.16687429867E+02 -0.45094173240E+02  0.60423857679E+02  0.10566000000E+00 0. -1.
     200003    1    4    4    0    0  0.32649686620E+02 -0.73847580007E+02  0.69393292304E+02  0.11061146471E+03  0.30000000000E+02 0. -1.
     200000    1    3    3    0    0  0.13832146124E+03  0.96894283056E+02 -0.20187401237E+03  0.56504375547E+03  0.50000000000E+03 0.  1.
    -200001    1    1    2    0    0 -0.13437775177E+03 -0.39734132916E+02  0.11568623977E+03  0.72320086253E+03  0.70000000000E+03 0. -1.
<mgrwt>
<rscale>  0 0.14579670E+04</rscale>
<asrwt>0</asrwt>
<pdfrwt beam="1">  1        1 0.10865490E+00 0.14579670E+04</pdfrwt>
<pdfrwt beam="2">  1       -1 0.99813663E-01 0.14579670E+04</pdfrwt>
<totfact> 0.25041306E+01</totfact>
</mgrwt>
</event>
<event>
 8    1  0.3214020E-028  0.1492064E+04  0.7818608E-02  0.8889748E-01
          1   -1    0    0  501    0  0.00000000000E+00  0.00000000000E+00  0.17147889599E+04  0.17147889599E+04  0.50400000000E-02 0.  1.
         -1   -1    0    0    0  501 -0.00000000000E+00 -0.00000000000E+00 -0.32456673156E+03  0.32456673160E+03  0.50400000000E-02 0. -1.
     200001    2    1    2    0    0  0.95318624774E+02 -0.24859998181E+03  0.71560061633E+03  0.10313864903E+04  0.69338752448E+03 0.  0.
    5000001    2    3    3    0    0  0.21379467785E+02 -0.12406725440E+03  0.37029813096E+03  0.40671921444E+03  0.11157978467E+03 0.  0.
        -13    1    4    4    0    0 -0.79473430694E+01 -0.63477996137E+01 -0.48746339892E+01  0.11279540876E+02  0.10566000000E+00 0. -1.
     200003    1    4    4    0    0  0.29326810855E+02 -0.11771945478E+03  0.37517276495E+03  0.39543967357E+03  0.30000000000E+02 0. -1.
     200000    1    3    3    0    0  0.73939156989E+02 -0.12453272742E+03  0.34530248536E+03  0.62466727586E+03  0.50000000000E+03 0. -1.
    -200001    1    1    2    0    0 -0.95318624774E+02  0.24859998181E+03  0.67462161204E+03  0.10079692012E+04  0.70000000000E+03 0. -1.
<mgrwt>
<rscale>  0 0.14920636E+04</rscale>
<asrwt>0</asrwt>
<pdfrwt beam="1">  1        1 0.24496986E+00 0.14920636E+04</pdfrwt>
<pdfrwt beam="2">  1       -1 0.46366675E-01 0.14920636E+04</pdfrwt>
<totfact> 0.25356286E+01</totfact>
</mgrwt>
</event>
<event>
 8    1  0.3214020E-028  0.1624738E+04  0.7818608E-02  0.8805493E-01
          1   -1    0    0  501    0  0.00000000000E+00  0.00000000000E+00  0.62246234821E+03  0.62246234823E+03  0.50400000000E-02 0.  1.
         -1   -1    0    0    0  501 -0.00000000000E+00 -0.00000000000E+00 -0.10602142113E+04  0.10602142113E+04  0.50400000000E-02 0. -1.
     200001    2    1    2    0    0  0.27568058847E+03  0.74829570729E+02  0.89284240456E+02  0.76106584673E+03  0.69975016681E+03 0.  0.
    5000001    2    3    3    0    0  0.65899326856E+02  0.29053683973E+02  0.33498524518E+02  0.21405976301E+03  0.19877774815E+03 0.  0.
        -13    1    4    4    0    0 -0.27390037231E+00  0.59372417911E+02 -0.64953392038E+02  0.88000643926E+02  0.10566000000E+00 0. -1.
     200003    1    4    4    0    0  0.66173227228E+02 -0.30318733939E+02  0.98451916556E+02  0.12605911908E+03  0.30000000000E+02 0. -1.
     200000    1    3    3    0    0  0.20978126162E+03  0.45775886756E+02  0.55785715938E+02  0.54700608373E+03  0.50000000000E+03 0. -1.
    -200001    1    1    2    0    0 -0.27568058847E+03 -0.74829570729E+02 -0.52703610355E+03  0.92161071281E+03  0.70000000000E+03 0. -1.
<mgrwt>
<rscale>  0 0.16247380E+04</rscale>
<asrwt>0</asrwt>
<pdfrwt beam="1">  1        1 0.88923192E-01 0.16247380E+04</pdfrwt>
<pdfrwt beam="2">  1       -1 0.15145917E+00 0.16247380E+04</pdfrwt>
<totfact> 0.11798532E+01</totfact>
</mgrwt>
</event>
<event>
 8    1  0.3214020E-028  0.2695812E+04  0.7818608E-02  0.8336365E-01
         -1   -1    0    0    0  501 -0.00000000000E+00  0.00000000000E+00  0.20593535502E+04  0.20593535502E+04  0.50400000000E-02 0.  1.
          1   -1    0    0  501    0  0.00000000000E+00 -0.00000000000E+00 -0.88224304251E+03  0.88224304253E+03  0.50400000000E-02 0. -1.
     200001    2    1    2    0    0 -0.56159064026E+03  0.36243965706E+03  0.16121788175E+04  0.18804505205E+04  0.70016217284E+03 0.  0.
    5000001    2    3    3    0    0 -0.19057962409E+03 -0.10089165567E+02  0.31404646591E+03  0.39331417840E+03  0.14017302094E+03 0.  0.
        -13    1    4    4    0    0 -0.34558673889E+02 -0.48132443305E+02  0.31931899536E+02  0.67310410869E+02  0.10566000000E+00 0. -1.
     200003    1    4    4    0    0 -0.15602095020E+03  0.38043277738E+02  0.28211456638E+03  0.32600376753E+03  0.30000000000E+02 0. -1.
     200000    1    3    3    0    0 -0.37101101617E+03  0.37252882263E+03  0.12981323516E+04  0.14871363421E+04  0.50000000000E+03 0.  1.
    -200001    1    1    2    0    0  0.56159064026E+03 -0.36243965706E+03 -0.43506830986E+03  0.10611460722E+04  0.70000000000E+03 0. -1.
<mgrwt>
<rscale>  0 0.26958118E+04</rscale>
<asrwt>0</asrwt>
<pdfrwt beam="1">  1        1 0.12603472E+00 0.26958118E+04</pdfrwt>
<pdfrwt beam="2">  1       -1 0.29419337E+00 0.26958118E+04</pdfrwt>
<totfact> 0.67360144E-01</totfact>
</mgrwt>
</event>
<event>
 8    1  0.3214020E-028  0.1566891E+04  0.7818608E-02  0.8841150E-01
          1   -1    0    0  501    0  0.00000000000E+00  0.00000000000E+00  0.64412355874E+03  0.64412355876E+03  0.50400000000E-02 0.  1.
         -1   -1    0    0    0  501 -0.00000000000E+00 -0.00000000000E+00 -0.95290255019E+03  0.95290255021E+03  0.50400000000E-02 0. -1.
     200001    2    1    2    0    0 -0.12624867602E+02 -0.47185020215E+02  0.20074529389E+03  0.72984630595E+03  0.69999367417E+03 0.  0.
    5000001    2    3    3    0    0 -0.53676816430E+01 -0.10982701384E+03  0.94492901522E+02  0.21480625217E+03  0.15849931406E+03 0.  0.
        -13    1    4    4    0    0 -0.45476061309E+02 -0.13033540184E+03  0.59245774716E+02  0.15021804855E+03  0.10566000000E+00 0. -1.
     200003    1    4    4    0    0  0.40108379666E+02  0.20508388006E+02  0.35247126807E+02  0.64588203615E+02  0.30000000000E+02 0.  1.
     200000    1    3    3    0    0 -0.72571859591E+01  0.62641993621E+02  0.10625239237E+03  0.51504005378E+03  0.50000000000E+03 0.  1.
    -200001    1    1    2    0    0  0.12624867602E+02  0.47185020215E+02 -0.50952428534E+03  0.86717980302E+03  0.70000000000E+03 0. -1.
<mgrwt>
<rscale>  0 0.15668912E+04</rscale>
<asrwt>0</asrwt>
<pdfrwt beam="1">  1        1 0.92017652E-01 0.15668912E+04</pdfrwt>
<pdfrwt beam="2">  1       -1 0.13612894E+00 0.15668912E+04</pdfrwt>
<totfact> 0.14969376E+01</totfact>
</mgrwt>
</event>
<event>
 8    1  0.3214020E-028  0.2053023E+04  0.7818608E-02  0.8582224E-01
          1   -1    0    0  501    0  0.00000000000E+00  0.00000000000E+00  0.26918145375E+04  0.26918145375E+04  0.50400000000E-02 0.  1.
         -1   -1    0    0    0  501 -0.00000000000E+00 -0.00000000000E+00 -0.39145548213E+03  0.39145548216E+03  0.50400000000E-02 0. -1.
     200001    2    1    2    0    0  0.60275602497E+03 -0.47809730424E+02  0.18189775329E+04  0.20405194425E+04  0.69959969566E+03 0.  0.
    5000001    2    3    3    0    0  0.81120620076E+02 -0.61577010589E+02  0.13021472966E+03  0.20361638595E+03  0.11887587465E+03 0.  0.
        -13    1    4    4    0    0 -0.99023221975E+01 -0.11032611599E+02  0.84877781679E+02  0.86162773228E+02  0.10566000000E+00 0. -1.
     200003    1    4    4    0    0  0.91022942273E+02 -0.50544398990E+02  0.45336947980E+02  0.11745361272E+03  0.30000000000E+02 0. -1.
     200000    1    3    3    0    0  0.52163540489E+03  0.13767280165E+02  0.16887628033E+04  0.18369030566E+04  0.50000000000E+03 0.  1.
    -200001    1    1    2    0    0 -0.60275602497E+03  0.47809730424E+02  0.48138152246E+03  0.10427505771E+04  0.70000000000E+03 0.  1.
<mgrwt>
<rscale>  0 0.20530227E+04</rscale>
<asrwt>0</asrwt>
<pdfrwt beam="1">  1        1 0.38454494E+00 0.20530227E+04</pdfrwt>
<pdfrwt beam="2">  1       -1 0.55922210E-01 0.20530227E+04</pdfrwt>
<totfact> 0.40650300E+00</totfact>
</mgrwt>
</event>
<event>
 8    1  0.3214020E-028  0.1448129E+04  0.7818608E-02  0.8919699E-01
          1   -1    0    0  501    0  0.00000000000E+00  0.00000000000E+00  0.17292000886E+04  0.17292000886E+04  0.50400000000E-02 0.  1.
         -1   -1    0    0    0  501 -0.00000000000E+00 -0.00000000000E+00 -0.30318613133E+03  0.30318613137E+03  0.50400000000E-02 0. -1.
     200001    2    1    2    0    0 -0.27838629150E+01  0.18258164713E+03  0.68105708218E+03  0.99397177790E+03  0.70056929588E+03 0.  0.
    5000001    2    3    3    0    0  0.32334455562E+02  0.19944836935E+02  0.26960201422E+03  0.32540667168E+03  0.17821599917E+03 0.  0.
        -13    1    4    4    0    0  0.95907669388E+01  0.43650204234E+02 -0.70116751986E+01  0.45238234861E+02  0.10566000000E+00 0. -1.
     200003    1    4    4    0    0  0.22743688624E+02 -0.23705367299E+02  0.27661368942E+03  0.28016843681E+03  0.30000000000E+02 0. -1.
     200000    1    3    3    0    0 -0.35118318477E+02  0.16263681020E+03  0.41145506795E+03  0.66856510623E+03  0.50000000000E+03 0. -1.
    -200001    1    1    2    0    0  0.27838629150E+01 -0.18258164713E+03  0.74495687511E+03  0.10384144421E+04  0.70000000000E+03 0. -1.
<mgrwt>
<rscale>  0 0.14481291E+04</rscale>
<asrwt>0</asrwt>
<pdfrwt beam="1">  1        1 0.24702859E+00 0.14481291E+04</pdfrwt>
<pdfrwt beam="2">  1       -1 0.43312304E-01 0.14481291E+04</pdfrwt>
<totfact> 0.28289613E+01</totfact>
</mgrwt>
</event>
<event>
 8    1  0.3214020E-028  0.1807325E+04  0.7818608E-02  0.8702414E-01
         -1   -1    0    0    0  501 -0.00000000000E+00  0.00000000000E+00  0.56253810677E+03  0.56253810680E+03  0.50400000000E-02 0.  1.
          1   -1    0    0  501    0  0.00000000000E+00 -0.00000000000E+00 -0.14516451226E+04  0.14516451226E+04  0.50400000000E-02 0. -1.
     200001    2    1    2    0    0 -0.21578520757E+03  0.51466762261E+03 -0.30646199745E+03  0.94604408350E+03  0.69973883304E+03 0.  0.
    5000001    2    3    3    0    0 -0.46961666433E+02  0.57696249584E+02 -0.87454326205E+02  0.21440989630E+03  0.18107757766E+03 0.  0.
        -13    1    4    4    0    0 -0.88128814811E+02  0.97239095082E+02 -0.60791527241E+02  0.14462970152E+03  0.10566000000E+00 0. -1.
     200003    1    4    4    0    0  0.41167148378E+02 -0.39542845499E+02 -0.26662798964E+02  0.69780194785E+02  0.30000000000E+02 0. -1.
     200000    1    3    3    0    0 -0.16882354114E+03  0.45697137303E+03 -0.21900767125E+03  0.73163418720E+03  0.50000000000E+03 0. -1.
    -200001    1    1    2    0    0  0.21578520757E+03 -0.51466762261E+03 -0.58264501836E+03  0.10681391459E+04  0.70000000000E+03 0.  1.
<mgrwt>
<rscale>  0 0.18073248E+04</rscale>
<asrwt>0</asrwt>
<pdfrwt beam="1">  1        1 0.20737787E+00 0.18073248E+04</pdfrwt>
<pdfrwt beam="2">  1       -1 0.80362587E-01 0.18073248E+04</pdfrwt>
<totfact> 0.12224044E+01</totfact>
</mgrwt>
</event>
<event>
 8    1  0.3214020E-028  0.1934995E+04  0.7818608E-02  0.8637631E-01
         -1   -1    0    0    0  501 -0.00000000000E+00  0.00000000000E+00  0.86672347400E+03  0.86672347401E+03  0.50400000000E-02 0. -1.
          1   -1    0    0  501    0  0.00000000000E+00 -0.00000000000E+00 -0.10799882762E+04  0.10799882762E+04  0.50400000000E-02 0.  1.
     200001    2    1    2    0    0  0.40800217069E+03  0.44148019737E+03  0.18656114015E+03  0.94111177005E+03  0.69965403505E+03 0.  0.
    5000001    2    3    3    0    0  0.11689172433E+03  0.19785939444E+03  0.93799284469E+02  0.30652438484E+03  0.17985237710E+03 0.  0.
        -13    1    4    4    0    0  0.59915546020E+02  0.21658463183E+03  0.74410352355E+02  0.23671858208E+03  0.10566000000E+00 0. -1.
     200003    1    4    4    0    0  0.56976178310E+02 -0.18725237394E+02  0.19388932114E+02  0.69805802758E+02  0.30000000000E+02 0. -1.
     200000    1    3    3    0    0  0.29111044636E+03  0.24362080293E+03  0.92761855684E+02  0.63458738521E+03  0.50000000000E+03 0. -1.
    -200001    1    1    2    0    0 -0.40800217069E+03 -0.44148019737E+03 -0.39982594237E+03  0.10055999802E+04  0.70000000000E+03 0.  1.
<mgrwt>
<rscale>  0 0.19349948E+04</rscale>
<asrwt>0</asrwt>
<pdfrwt beam="1">  1        1 0.15428404E+00 0.19349948E+04</pdfrwt>
<pdfrwt beam="2">  1       -1 0.12381764E+00 0.19349948E+04</pdfrwt>
<totfact> 0.80826869E+00</totfact>
</mgrwt>
</event>
<event>
 8    1  0.3214020E-028  0.1487636E+04  0.7818608E-02  0.8892717E-01
         -1   -1    0    0    0  501 -0.00000000000E+00  0.00000000000E+00  0.18058400153E+04  0.18058400153E+04  0.50400000000E-02 0.  1.
          1   -1    0    0  501    0  0.00000000000E+00 -0.00000000000E+00 -0.30637551034E+03  0.30637551038E+03  0.50400000000E-02 0. -1.
     200001    2    1    2    0    0  0.11600623254E+03 -0.14560501343E+03  0.98308601294E+03  0.12226622597E+04  0.70269952799E+03 0.  0.
    5000001    2    3    3    0    0  0.50390712741E+02 -0.14320813952E+03  0.45601635254E+03  0.49320111043E+03  0.11067351259E+03 0.  0.
        -13    1    4    4    0    0 -0.57658059292E+01  0.13367066949E+02  0.74653040756E+02  0.76059257523E+02  0.10566000000E+00 0. -1.
     200003    1    4    4    0    0  0.56156518670E+02 -0.15657520647E+03  0.38136331179E+03  0.41714185291E+03  0.30000000000E+02 0. -1.
     200000    1    3    3    0    0  0.65615519800E+02 -0.23968739069E+01  0.52706966040E+03  0.72946114931E+03  0.50000000000E+03 0.  1.
    -200001    1    1    2    0    0 -0.11600623254E+03  0.14560501343E+03  0.51637849199E+03  0.88955326592E+03  0.70000000000E+03 0. -1.
<mgrwt>
<rscale>  0 0.14876359E+04</rscale>
<asrwt>0</asrwt>
<pdfrwt beam="1">  1        1 0.43767929E-01 0.14876359E+04</pdfrwt>
<pdfrwt beam="2">  1       -1 0.25797715E+00 0.14876359E+04</pdfrwt>
<totfact> 0.56418572E+00</totfact>
</mgrwt>
</event>
<event>
 8    1  0.3214020E-028  0.2742102E+04  0.7818608E-02  0.8321472E-01
         -1   -1    0    0    0  501 -0.00000000000E+00  0.00000000000E+00  0.12464855904E+04  0.12464855904E+04  0.50400000000E-02 0.  1.
          1   -1    0    0  501    0  0.00000000000E+00 -0.00000000000E+00 -0.15080641477E+04  0.15080641477E+04  0.50400000000E-02 0. -1.
     200001    2    1    2    0    0 -0.11147343240E+03 -0.45550638250E+03 -0.12178776326E+04  0.14800222523E+04  0.69808849630E+03 0.  0.
    5000001    2    3    3    0    0 -0.14311535900E+03 -0.67828284821E+02 -0.45417349275E+03  0.48778259769E+03  0.81090189840E+02 0.  0.
        -13    1    4    4    0    0 -0.13276553620E+02  0.15224129888E+01 -0.51944921746E+01  0.14338009985E+02  0.10566000000E+00 0. -1.
     200003    1    4    4    0    0 -0.12983880538E+03 -0.69350697810E+02 -0.44897900057E+03  0.47344458770E+03  0.30000000000E+02 0. -1.
     200000    1    3    3    0    0  0.31641926603E+02 -0.38767809768E+03 -0.76370413984E+03  0.99223965460E+03  0.50000000000E+03 0. -1.
    -200001    1    1    2    0    0  0.11147343240E+03  0.45550638250E+03  0.95629907535E+03  0.12745274858E+04  0.70000000000E+03 0.  1.
<mgrwt>
<rscale>  0 0.27421016E+04</rscale>
<asrwt>0</asrwt>
<pdfrwt beam="1">  1        1 0.21543774E+00 0.27421016E+04</pdfrwt>
<pdfrwt beam="2">  1       -1 0.17806937E+00 0.27421016E+04</pdfrwt>
<totfact> 0.14458409E+00</totfact>
</mgrwt>
</event>
<event>
 8    1  0.3214020E-028  0.1881481E+04  0.7818608E-02  0.8664130E-01
         -1   -1    0    0    0  501 -0.00000000000E+00  0.00000000000E+00  0.60002915843E+03  0.60002915845E+03  0.50400000000E-02 0. -1.
          1   -1    0    0  501    0  0.00000000000E+00 -0.00000000000E+00 -0.14749164455E+04  0.14749164455E+04  0.50400000000E-02 0.  1.
     200001    2    1    2    0    0  0.12577735472E+02  0.51830285633E+03 -0.82987639784E+03  0.12026944759E+04  0.69927327730E+03 0.  0.
    5000001    2    3    3    0    0 -0.88219413676E+01  0.43174477108E+02 -0.64649426262E+02  0.17226871877E+03  0.15347671168E+03 0.  0.
        -13    1    4    4    0    0  0.59204459193E+02  0.58441414150E+02 -0.26414099396E+02  0.87282774286E+02  0.10566000000E+00 0. -1.
     200003    1    4    4    0    0 -0.68026400560E+02 -0.15266937042E+02 -0.38235326866E+02  0.84985944487E+02  0.30000000000E+02 0. -1.
     200000    1    3    3    0    0  0.21399676840E+02  0.47512837922E+03 -0.76522697158E+03  0.10304257571E+04  0.50000000000E+03 0. -1.
    -200001    1    1    2    0    0 -0.12577735472E+02 -0.51830285633E+03 -0.45010889262E+02  0.87225112810E+03  0.70000000000E+03 0. -1.
<mgrwt>
<rscale>  0 0.18814812E+04</rscale>
<asrwt>0</asrwt>
<pdfrwt beam="1">  1        1 0.21070235E+00 0.18814812E+04</pdfrwt>
<pdfrwt beam="2">  1       -1 0.85718452E-01 0.18814812E+04</pdfrwt>
<totfact> 0.10206836E+01</totfact>
</mgrwt>
</event>
<event>
 8    1  0.3214020E-028  0.2011420E+04  0.7818608E-02  0.8601300E-01
          1   -1    0    0  501    0  0.00000000000E+00  0.00000000000E+00  0.24325457065E+04  0.24325457065E+04  0.50400000000E-02 0.  1.
         -1   -1    0    0    0  501 -0.00000000000E+00 -0.00000000000E+00 -0.41580019576E+03  0.41580019579E+03  0.50400000000E-02 0. -1.
     200001    2    1    2    0    0  0.55777997521E+03 -0.43600724260E+03  0.12081968648E+04  0.15657813896E+04  0.70050758712E+03 0.  0.
    5000001    2    3    3    0    0  0.15049108165E+03 -0.12021354134E+03  0.31565507112E+03  0.42025061393E+03  0.19968373346E+03 0.  0.
        -13    1    4    4    0    0  0.96032106615E+02 -0.14459836282E+03  0.30730981989E+03  0.35294502205E+03  0.10566000000E+00 0. -1.
     200003    1    4    4    0    0  0.54458975032E+02  0.24384821477E+02  0.83452512387E+01  0.67305591880E+02  0.30000000000E+02 0. -1.
     200000    1    3    3    0    0  0.40728889357E+03 -0.31579370126E+03  0.89254179367E+03  0.11455307757E+04  0.50000000000E+03 0.  1.
    -200001    1    1    2    0    0 -0.55777997521E+03  0.43600724260E+03  0.80854864596E+03  0.12825645127E+04  0.70000000000E+03 0. -1.
<mgrwt>
<rscale>  0 0.20114204E+04</rscale>
<asrwt>0</asrwt>
<pdfrwt beam="1">  1        1 0.34750654E+00 0.20114204E+04</pdfrwt>
<pdfrwt beam="2">  1       -1 0.59400026E-01 0.20114204E+04</pdfrwt>
<totfact> 0.53073589E+00</totfact>
</mgrwt>
</event>
<event>
 8    1  0.3214020E-028  0.1740678E+04  0.7818608E-02  0.8738498E-01
         -1   -1    0    0    0  501 -0.00000000000E+00  0.00000000000E+00  0.88619785486E+03  0.88619785487E+03  0.50400000000E-02 0. -1.
          1   -1    0    0  501    0  0.00000000000E+00 -0.00000000000E+00 -0.85476363848E+03  0.85476363850E+03  0.50400000000E-02 0.  1.
     200001    2    1    2    0    0 -0.19331156954E+03  0.47104852233E+03 -0.73125742666E+02  0.86907339370E+03  0.70048919770E+03 0.  0.
    5000001    2    3    3    0    0  0.38963833586E+02  0.39557923858E+02 -0.21498124097E+02  0.16707523810E+03  0.15610559304E+03 0.  0.
        -13    1    4    4    0    0  0.91465635886E+02  0.50507950840E+00  0.15874805292E+01  0.91480866370E+02  0.10566000000E+00 0. -1.
     200003    1    4    4    0    0 -0.52501802300E+02  0.39052844350E+02 -0.23085604627E+02  0.75594371732E+02  0.30000000000E+02 0. -1.
     200000    1    3    3    0    0 -0.23227540313E+03  0.43149059847E+03 -0.51627618568E+02  0.70199815560E+03  0.50000000000E+03 0.  1.
    -200001    1    1    2    0    0  0.19331156954E+03 -0.47104852233E+03  0.10455995904E+03  0.87188809967E+03  0.70000000000E+03 0.  1.
<mgrwt>
<rscale>  0 0.17406777E+04</rscale>
<asrwt>0</asrwt>
<pdfrwt beam="1">  1        1 0.12210909E+00 0.17406777E+04</pdfrwt>
<pdfrwt beam="2">  1       -1 0.12659969E+00 0.17406777E+04</pdfrwt>
<totfact> 0.11556057E+01</totfact>
</mgrwt>
</event>
<event>
 8    1  0.3214020E-028  0.2083109E+04  0.7818608E-02  0.8568721E-01
         -1   -1    0    0    0  501 -0.00000000000E+00  0.00000000000E+00  0.29444805481E+03  0.29444805486E+03  0.50400000000E-02 0.  1.
          1   -1    0    0  501    0  0.00000000000E+00 -0.00000000000E+00 -0.36843026835E+04  0.36843026835E+04  0.50400000000E-02 0. -1.
     200001    2    1    2    0    0 -0.11030343802E+03  0.29888818963E+03 -0.35476152871E+03  0.84772995850E+03  0.70092035350E+03 0.  0.
    5000001    2    3    3    0    0 -0.38493077454E+02  0.28409880078E+01 -0.20005092119E+03  0.24214260266E+03  0.13085442572E+03 0.  0.
        -13    1    4    4    0    0  0.34403236651E+02 -0.26863226552E+01 -0.94025086722E+01  0.35766148169E+02  0.10566000000E+00 0. -1.
     200003    1    4    4    0    0 -0.72896314105E+02  0.55273106630E+01 -0.19064841252E+03  0.20637645449E+03  0.30000000000E+02 0. -1.
     200000    1    3    3    0    0 -0.71810360563E+02  0.29604720163E+03 -0.15471060751E+03  0.60558735584E+03  0.50000000000E+03 0.  1.
    -200001    1    1    2    0    0  0.11030343802E+03 -0.29888818963E+03 -0.30350931000E+04  0.31310207798E+04  0.70000000000E+03 0. -1.
<mgrwt>
<rscale>  0 0.20831090E+04</rscale>
<asrwt>0</asrwt>
<pdfrwt beam="1">  1        1 0.52632893E+00 0.20831090E+04</pdfrwt>
<pdfrwt beam="2">  1       -1 0.42064010E-01 0.20831090E+04</pdfrwt>
<totfact> 0.14824757E+00</totfact>
</mgrwt>
</event>
<event>
 8    1  0.3214020E-028  0.1542862E+04  0.7818608E-02  0.8856440E-01
         -1   -1    0    0    0  501 -0.00000000000E+00  0.00000000000E+00  0.19647380713E+03  0.19647380720E+03  0.50400000000E-02 0. -1.
          1   -1    0    0  501    0  0.00000000000E+00 -0.00000000000E+00 -0.30289303810E+04  0.30289303810E+04  0.50400000000E-02 0.  1.
     200001    2    1    2    0    0 -0.28210113609E+03 -0.70430600581E+02 -0.17147923159E+04  0.18749542950E+04  0.70028522851E+03 0.  0.
    5000001    2    3    3    0    0 -0.12362915746E+03  0.31270104546E+02 -0.62748371791E+03  0.66346909548E+03  0.17376258633E+03 0.  0.
        -13    1    4    4    0    0  0.42249394900E+02  0.19341527064E+02 -0.14278758022E+03  0.15015795106E+03  0.10566000000E+00 0. -1.
     200003    1    4    4    0    0 -0.16587855236E+03  0.11928577482E+02 -0.48469613770E+03  0.51331114442E+03  0.30000000000E+02 0. -1.
     200000    1    3    3    0    0 -0.15847197864E+03 -0.10170070513E+03 -0.10873085979E+04  0.12114851995E+04  0.50000000000E+03 0.  1.
    -200001    1    1    2    0    0  0.28210113609E+03  0.70430600581E+02 -0.11176642580E+04  0.13504498932E+04  0.70000000000E+03 0. -1.
<mgrwt>
<rscale>  0 0.15428616E+04</rscale>
<asrwt>0</asrwt>
<pdfrwt beam="1">  1        1 0.43270431E+00 0.15428616E+04</pdfrwt>
<pdfrwt beam="2">  1       -1 0.28067688E-01 0.15428616E+04</pdfrwt>
<totfact> 0.90719954E+00</totfact>
</mgrwt>
</event>
<event>
 8    1  0.3214020E-028  0.1689007E+04  0.7818608E-02  0.8767659E-01
          1   -1    0    0  501    0  0.00000000000E+00  0.00000000000E+00  0.32976434310E+03  0.32976434314E+03  0.50400000000E-02 0.  1.
         -1   -1    0    0    0  501 -0.00000000000E+00 -0.00000000000E+00 -0.21627156429E+04  0.21627156430E+04  0.50400000000E-02 0. -1.
     200001    2    1    2    0    0  0.29508858597E+03  0.23355096333E+03 -0.13368388941E+04  0.15555964046E+04  0.70079855833E+03 0.  0.
    5000001    2    3    3    0    0  0.85148381400E+02  0.17499813384E+03 -0.33147830944E+03  0.41180742564E+03  0.14775957660E+03 0.  0.
        -13    1    4    4    0    0 -0.61552438996E+01 -0.20561293175E+02 -0.10599976600E+02  0.23937929577E+02  0.10566000000E+00 0. -1.
     200003    1    4    4    0    0  0.91303625300E+02  0.19555942701E+03 -0.32087833285E+03  0.38786949606E+03  0.30000000000E+02 0. -1.
     200000    1    3    3    0    0  0.20994020457E+03  0.58552829491E+02 -0.10053605846E+04  0.11437889790E+04  0.50000000000E+03 0. -1.
    -200001    1    1    2    0    0 -0.29508858597E+03 -0.23355096333E+03 -0.49611240575E+03  0.93688358144E+03  0.70000000000E+03 0.  1.
<mgrwt>
<rscale>  0 0.16890074E+04</rscale>
<asrwt>0</asrwt>
<pdfrwt beam="1">  1        1 0.47109193E-01 0.16890074E+04</pdfrwt>
<pdfrwt beam="2">  1       -1 0.30895937E+00 0.16890074E+04</pdfrwt>
<totfact> 0.23579184E+00</totfact>
</mgrwt>
</event>
<event>
 8    1  0.3214020E-028  0.1538308E+04  0.7818608E-02  0.8859371E-01
          1   -1    0    0  501    0  0.00000000000E+00  0.00000000000E+00  0.53672149590E+03  0.53672149592E+03  0.50400000000E-02 0.  1.
         -1   -1    0    0    0  501 -0.00000000000E+00 -0.00000000000E+00 -0.11022438886E+04  0.11022438886E+04  0.50400000000E-02 0. -1.
     200001    2    1    2    0    0 -0.48783652978E+02  0.17663881269E+03 -0.56041664295E+03  0.91535832016E+03  0.70016635570E+03 0.  0.
    5000001    2    3    3    0    0 -0.14632293295E+03  0.58817049244E+02 -0.19069582045E+03  0.27497611736E+03  0.11990464208E+03 0.  0.
        -13    1    4    4    0    0 -0.12729876879E+03  0.91422462718E+01 -0.16530008253E+03  0.20883650460E+03  0.10566000000E+00 0. -1.
     200003    1    4    4    0    0 -0.19024164154E+02  0.49674802972E+02 -0.25395737922E+02  0.66139612765E+02  0.30000000000E+02 0. -1.
     200000    1    3    3    0    0  0.97539279968E+02  0.11782176344E+03 -0.36972082249E+03  0.64038220280E+03  0.50000000000E+03 0. -1.
    -200001    1    1    2    0    0  0.48783652978E+02 -0.17663881269E+03 -0.51057497580E+01  0.72360706438E+03  0.70000000000E+03 0.  1.
<mgrwt>
<rscale>  0 0.15383081E+04</rscale>
<asrwt>0</asrwt>
<pdfrwt beam="1">  1        1 0.76674499E-01 0.15383081E+04</pdfrwt>
<pdfrwt beam="2">  1       -1 0.15746341E+00 0.15383081E+04</pdfrwt>
<totfact> 0.13150689E+01</totfact>
</mgrwt>
</event>
<event>
 8    1  0.3214020E-028  0.1557425E+04  0.7818608E-02  0.8847139E-01
         -1   -1    0    0    0  501 -0.00000000000E+00  0.00000000000E+00  0.11480595447E+04  0.11480595447E+04  0.50400000000E-02 0. -1.
          1   -1    0    0  501    0  0.00000000000E+00 -0.00000000000E+00 -0.52818957687E+03  0.52818957689E+03  0.50400000000E-02 0.  1.
     200001    2    1    2    0    0 -0.33637317092E+03  0.26937227426E+02  0.25795414441E+03  0.81901193880E+03  0.70026258713E+03 0.  0.
    5000001    2    3    3    0    0 -0.60475985958E+02  0.29944747234E+02  0.86643963242E+02  0.22279429396E+03  0.19384552688E+03 0.  0.
        -13    1    4    4    0    0 -0.18000077165E+02  0.10655053744E+03  0.69917461720E+02  0.12870696339E+03  0.10566000000E+00 0. -1.
     200003    1    4    4    0    0 -0.42475908793E+02 -0.76605790207E+02  0.16726501522E+02  0.94087330572E+02  0.30000000000E+02 0. -1.
     200000    1    3    3    0    0 -0.27589718497E+03 -0.30075198083E+01  0.17131018116E+03  0.59621764484E+03  0.50000000000E+03 0.  1.
    -200001    1    1    2    0    0  0.33637317092E+03 -0.26937227426E+02  0.36191582343E+03  0.85723718281E+03  0.70000000000E+03 0. -1.
<mgrwt>
<rscale>  0 0.15574249E+04</rscale>
<asrwt>0</asrwt>
<pdfrwt beam="1">  1        1 0.75455654E-01 0.15574249E+04</pdfrwt>
<pdfrwt beam="2">  1       -1 0.16400851E+00 0.15574249E+04</pdfrwt>
<totfact> 0.11977169E+01</totfact>
</mgrwt>
</event>
<event>
 8    1  0.3214020E-028  0.1671381E+04  0.7818608E-02  0.8777857E-01
          1   -1    0    0  501    0  0.00000000000E+00  0.00000000000E+00  0.89807457548E+03  0.89807457549E+03  0.50400000000E-02 0.  1.
         -1   -1    0    0    0  501 -0.00000000000E+00 -0.00000000000E+00 -0.77763961135E+03  0.77763961136E+03  0.50400000000E-02 0. -1.
     200001    2    1    2    0    0 -0.14386510306E+03 -0.24944562169E+03  0.40812534107E+03  0.86596975863E+03  0.70740161350E+03 0.  0.
    5000001    2    3    3    0    0 -0.90035796730E+02 -0.97508552271E+02 -0.36054557313E+02  0.17801754415E+03  0.11303075893E+03 0.  0.
        -13    1    4    4    0    0 -0.75443966951E+02 -0.87768371517E+02 -0.65042653038E+02  0.13276157978E+03  0.10566000000E+00 0. -1.
     200003    1    4    4    0    0 -0.14591829779E+02 -0.97401807533E+01  0.28988095725E+02  0.45255964371E+02  0.30000000000E+02 0. -1.
     200000    1    3    3    0    0 -0.53829306331E+02 -0.15193706941E+03  0.44417989838E+03  0.68795221448E+03  0.50000000000E+03 0.  1.
    -200001    1    1    2    0    0  0.14386510306E+03  0.24944562169E+03 -0.28769037693E+03  0.80974442822E+03  0.70000000000E+03 0. -1.
<mgrwt>
<rscale>  0 0.16713807E+04</rscale>
<asrwt>0</asrwt>
<pdfrwt beam="1">  1        1 0.12829637E+00 0.16713807E+04</pdfrwt>
<pdfrwt beam="2">  1       -1 0.11109137E+00 0.16713807E+04</pdfrwt>
<totfact> 0.14750088E+01</totfact>
</mgrwt>
</event>
<event>
 8    1  0.3214020E-028  0.2042628E+04  0.7818608E-02  0.8586946E-01
          1   -1    0    0  501    0  0.00000000000E+00  0.00000000000E+00  0.15761399093E+04  0.15761399093E+04  0.50400000000E-02 0.  1.
         -1   -1    0    0    0  501 -0.00000000000E+00 -0.00000000000E+00 -0.66179522325E+03  0.66179522327E+03  0.50400000000E-02 0. -1.
     200001    2    1    2    0    0  0.52689332269E+03 -0.11731477697E+03 -0.10347847093E+03  0.88984637092E+03  0.69981386061E+03 0.  0.
    5000001    2    3    3    0    0  0.23739175324E+03  0.40068940145E+02  0.24267323765E-01  0.28215104433E+03  0.14713547077E+03 0.  0.
        -13    1    4    4    0    0  0.18407107455E+03  0.98712494701E+01  0.57335721759E+02  0.19304662184E+03  0.10566000000E+00 0. -1.
     200003    1    4    4    0    0  0.53320678694E+02  0.30197690675E+02 -0.57311454435E+02  0.89104422494E+02  0.30000000000E+02 0. -1.
     200000    1    3    3    0    0  0.28950156945E+03 -0.15738371711E+03 -0.10350273825E+03  0.60769532658E+03  0.50000000000E+03 0. -1.
    -200001    1    1    2    0    0 -0.52689332269E+03  0.11731477697E+03  0.10178231569E+04  0.13480887616E+04  0.70000000000E+03 0.  1.
<mgrwt>
<rscale>  0 0.20426276E+04</rscale>
<asrwt>0</asrwt>
<pdfrwt beam="1">  1        1 0.22516284E+00 0.20426276E+04</pdfrwt>
<pdfrwt beam="2">  1       -1 0.94542175E-01 0.20426276E+04</pdfrwt>
<totfact> 0.69683443E+00</totfact>
</mgrwt>
</event>
<event>
 8    1  0.3214020E-028  0.1558855E+04  0.7818608E-02  0.8846232E-01
          1   -1    0    0  501    0  0.00000000000E+00  0.00000000000E+00  0.19308301464E+04  0.19308301464E+04  0.50400000000E-02 0.  1.
         -1   -1    0    0    0  501 -0.00000000000E+00 -0.00000000000E+00 -0.31463506415E+03  0.31463506419E+03  0.50400000000E-02 0. -1.
     200001    2    1    2    0    0  0.21650865036E+03  0.32324770351E+02  0.46035757021E+03  0.87656739093E+03  0.71310617157E+03 0.  0.
    5000001    2    3    3    0    0  0.70896498466E+02  0.44494515474E+02  0.10175029083E+03  0.24415124447E+03  0.20554958791E+03 0.  0.
        -13    1    4    4    0    0  0.74373856029E+02 -0.98985329458E+01  0.14846733865E+03  0.16634907041E+03  0.10566000000E+00 0. -1.
     200003    1    4    4    0    0 -0.34773575633E+01  0.54393048419E+02 -0.46717047823E+02  0.77802174065E+02  0.30000000000E+02 0. -1.
     200000    1    3    3    0    0  0.14561215190E+03 -0.12169745122E+02  0.35860727938E+03  0.63241614646E+03  0.50000000000E+03 0. -1.
    -200001    1    1    2    0    0 -0.21650865036E+03 -0.32324770351E+02  0.11558375120E+04  0.13688978197E+04  0.70000000000E+03 0.  1.
<mgrwt>
<rscale>  0 0.15588545E+04</rscale>
<asrwt>0</asrwt>
<pdfrwt beam="1">  1        1 0.27583287E+00 0.15588545E+04</pdfrwt>
<pdfrwt beam="2">  1       -1 0.44947867E-01 0.15588545E+04</pdfrwt>
<totfact> 0.19502734E+01</totfact>
</mgrwt>
</event>
<event>
 8    1  0.3214020E-028  0.1468732E+04  0.7818608E-02  0.8905516E-01
         -1   -1    0    0    0  501 -0.00000000000E+00  0.00000000000E+00  0.43974693550E+03  0.43974693553E+03  0.50400000000E-02 0. -1.
          1   -1    0    0  501    0  0.00000000000E+00 -0.00000000000E+00 -0.12263714805E+04  0.12263714805E+04  0.50400000000E-02 0.  1.
     200001    2    1    2    0    0 -0.92357045731E+02  0.13378235703E+03 -0.56428421142E+03  0.91387991203E+03  0.70023730221E+03 0.  0.
    5000001    2    3    3    0    0  0.10739802708E+03  0.80619848563E+02 -0.14089295666E+03  0.22686572293E+03  0.11654756453E+03 0.  0.
        -13    1    4    4    0    0 -0.60249346323E+01  0.15234459658E+02  0.14212389537E+02  0.21688517210E+02  0.10566000000E+00 0. -1.
     200003    1    4    4    0    0  0.11342296171E+03  0.65385388905E+02 -0.15510534620E+03  0.20517720572E+03  0.30000000000E+02 0. -1.
     200000    1    3    3    0    0 -0.19975507281E+03  0.53162508465E+02 -0.42339125476E+03  0.68701418910E+03  0.50000000000E+03 0.  1.
    -200001    1    1    2    0    0  0.92357045731E+02 -0.13378235703E+03 -0.22234033356E+03  0.75223850398E+03  0.70000000000E+03 0. -1.
<mgrwt>
<rscale>  0 0.14687316E+04</rscale>
<asrwt>0</asrwt>
<pdfrwt beam="1">  1        1 0.17519592E+00 0.14687316E+04</pdfrwt>
<pdfrwt beam="2">  1       -1 0.62820992E-01 0.14687316E+04</pdfrwt>
<totfact> 0.29617447E+01</totfact>
</mgrwt>
</event>
<event>
 8    1  0.3214020E-028  0.1425316E+04  0.7818608E-02  0.8935695E-01
         -1   -1    0    0    0  501 -0.00000000000E+00  0.00000000000E+00  0.12833064694E+03  0.12833064704E+03  0.50400000000E-02 0. -1.
          1   -1    0    0  501    0  0.00000000000E+00 -0.00000000000E+00 -0.39576012412E+04  0.39576012412E+04  0.50400000000E-02 0.  1.
     200001    2    1    2    0    0  0.90642818138E+02 -0.83983406828E+02 -0.20569241730E+04  0.21763557128E+04  0.70022696447E+03 0.  0.
    5000001    2    3    3    0    0  0.86046606703E+02 -0.47705489020E+02 -0.62494084517E+03  0.65914990479E+03  0.18506135418E+03 0.  0.
        -13    1    4    4    0    0 -0.40741637378E+01 -0.88272698493E+01  0.11172328511E+02  0.14810523000E+02  0.10566000000E+00 0. -1.
     200003    1    4    4    0    0  0.90120770441E+02 -0.38878219171E+02 -0.63611317368E+03  0.64433938179E+03  0.30000000000E+02 0. -1.
     200000    1    3    3    0    0  0.45962114345E+01 -0.36277917808E+02 -0.14319833279E+04  0.15172058080E+04  0.50000000000E+03 0. -1.
    -200001    1    1    2    0    0 -0.90642818138E+02  0.83983406828E+02 -0.17723464212E+04  0.19095761755E+04  0.70000000000E+03 0. -1.
<mgrwt>
<rscale>  0 0.14253161E+04</rscale>
<asrwt>0</asrwt>
<pdfrwt beam="1">  1        1 0.56537153E+00 0.14253161E+04</pdfrwt>
<pdfrwt beam="2">  1       -1 0.18332952E-01 0.14253161E+04</pdfrwt>
<totfact> 0.42387079E+00</totfact>
</mgrwt>
</event>
<event>
 8    1  0.3214020E-028  0.1531071E+04  0.7818608E-02  0.8864050E-01
          1   -1    0    0  501    0  0.00000000000E+00  0.00000000000E+00  0.18864299036E+04  0.18864299036E+04  0.50400000000E-02 0. -1.
         -1   -1    0    0    0  501 -0.00000000000E+00 -0.00000000000E+00 -0.31066348949E+03  0.31066348953E+03  0.50400000000E-02 0.  1.
     200001    2    1    2    0    0  0.17520626958E+03  0.10745961619E+03  0.46498015351E+03  0.86814985681E+03  0.70372780584E+03 0.  0.
    5000001    2    3    3    0    0 -0.12132238707E+02 -0.15377002813E+02  0.77232997996E+02  0.19693274718E+03  0.18009421840E+03 0.  0.
        -13    1    4    4    0    0  0.58368270043E+02 -0.58961420977E+02  0.52561312973E+01  0.83132076792E+02  0.10566000000E+00 0. -1.
     200003    1    4    4    0    0 -0.70500508750E+02  0.43584418164E+02  0.71976866698E+02  0.11380067039E+03  0.30000000000E+02 0. -1.
     200000    1    3    3    0    0  0.18733850829E+03  0.12283661900E+03  0.38774715551E+03  0.67121710963E+03  0.50000000000E+03 0.  1.
    -200001    1    1    2    0    0 -0.17520626958E+03 -0.10745961619E+03  0.11107862606E+04  0.13289435363E+04  0.70000000000E+03 0. -1.
<mgrwt>
<rscale>  0 0.15310714E+04</rscale>
<asrwt>0</asrwt>
<pdfrwt beam="1">  1        1 0.26948999E+00 0.15310714E+04</pdfrwt>
<pdfrwt beam="2">  1       -1 0.44380498E-01 0.15310714E+04</pdfrwt>
<totfact> 0.21349023E+01</totfact>
</mgrwt>
</event>
<event>
 8    1  0.3214020E-028  0.1860228E+04  0.7818608E-02  0.8674911E-01
         -1   -1    0    0    0  501 -0.00000000000E+00  0.00000000000E+00  0.71978613029E+03  0.71978613031E+03  0.50400000000E-02 0.  1.
          1   -1    0    0  501    0  0.00000000000E+00 -0.00000000000E+00 -0.12019011360E+04  0.12019011360E+04  0.50400000000E-02 0. -1.
     200001    2    1    2    0    0  0.95257973104E+02  0.53322856446E+03 -0.53727577486E+03  0.10348673896E+04  0.69919844991E+03 0.  0.
    5000001    2    3    3    0    0  0.14147715227E+03  0.23993877049E+03 -0.13738082260E+03  0.32912587272E+03  0.10892176769E+03 0.  0.
        -13    1    4    4    0    0  0.51484214678E+01  0.43022742539E+02 -0.63167872387E+02  0.76600612824E+02  0.10566000000E+00 0. -1.
     200003    1    4    4    0    0  0.13632873081E+03  0.19691602795E+03 -0.74212950211E+02  0.25252525989E+03  0.30000000000E+02 0. -1.
     200000    1    3    3    0    0 -0.46219179169E+02  0.29328979397E+03 -0.39989495226E+03  0.70574151685E+03  0.50000000000E+03 0. -1.
    -200001    1    1    2    0    0 -0.95257973104E+02 -0.53322856446E+03  0.55160769116E+02  0.88681987678E+03  0.70000000000E+03 0.  1.
<mgrwt>
<rscale>  0 0.18602277E+04</rscale>
<asrwt>0</asrwt>
<pdfrwt beam="1">  1        1 0.17170016E+00 0.18602277E+04</pdfrwt>
<pdfrwt beam="2">  1       -1 0.10282659E+00 0.18602277E+04</pdfrwt>
<totfact> 0.10389063E+01</totfact>
</mgrwt>
</event>
<event>
 8    1  0.3214020E-028  0.1630930E+04  0.7818608E-02  0.8801769E-01
         -1   -1    0    0    0  501 -0.00000000000E+00  0.00000000000E+00  0.12485258537E+04  0.12485258538E+04  0.50400000000E-02 0. -1.
          1   -1    0    0  501    0  0.00000000000E+00 -0.00000000000E+00 -0.53261455318E+03  0.53261455320E+03  0.50400000000E-02 0.  1.
     200001    2    1    2    0    0 -0.19263576079E+03  0.15404689982E+03  0.72459362827E+03  0.10389043485E+04  0.70245806671E+03 0.  0.
    5000001    2    3    3    0    0 -0.60258743959E+02  0.11766053345E+03  0.23331458961E+03  0.32461957609E+03  0.18294002871E+03 0.  0.
        -13    1    4    4    0    0  0.54886335803E+02 -0.42098337194E+01  0.49612330188E+02  0.74105512808E+02  0.10566000000E+00 0. -1.
     200003    1    4    4    0    0 -0.11514507976E+03  0.12187036717E+03  0.18370225942E+03  0.25051406328E+03  0.30000000000E+02 0. -1.
     200000    1    3    3    0    0 -0.13237701683E+03  0.36386366377E+02  0.49127903867E+03  0.71428477240E+03  0.50000000000E+03 0. -1.
    -200001    1    1    2    0    0  0.19263576079E+03 -0.15404689982E+03 -0.86823277025E+01  0.74223605847E+03  0.70000000000E+03 0.  1.
<mgrwt>
<rscale>  0 0.16309298E+04</rscale>
<asrwt>0</asrwt>
<pdfrwt beam="1">  1        1 0.76087795E-01 0.16309298E+04</pdfrwt>
<pdfrwt beam="2">  1       -1 0.17836083E+00 0.16309298E+04</pdfrwt>
<totfact> 0.92339829E+00</totfact>
</mgrwt>
</event>
<event>
 8    1  0.3214020E-028  0.1749204E+04  0.7818608E-02  0.8733789E-01
          1   -1    0    0  501    0  0.00000000000E+00  0.00000000000E+00  0.24523157122E+04  0.24523157122E+04  0.50400000000E-02 0.  1.
         -1   -1    0    0    0  501 -0.00000000000E+00 -0.00000000000E+00 -0.31192096511E+03  0.31192096516E+03  0.50400000000E-02 0. -1.
     200001    2    1    2    0    0  0.28547391983E+02  0.42038903933E+03  0.15625657756E+04  0.17635228230E+04  0.70061333576E+03 0.  0.
    5000001    2    3    3    0    0  0.18954296134E+02  0.10995770086E+02  0.24767591692E+03  0.29838453028E+03  0.16495392019E+03 0.  0.
        -13    1    4    4    0    0 -0.32892210375E+02  0.52352751450E+02  0.29730295145E+02  0.68604735267E+02  0.10566000000E+00 0. -1.
     200003    1    4    4    0    0  0.51846506509E+02 -0.41356981363E+02  0.21794562178E+03  0.22977979502E+03  0.30000000000E+02 0. -1.
     200000    1    3    3    0    0  0.95930958491E+01  0.40939326924E+03  0.13148898586E+04  0.14651382927E+04  0.50000000000E+03 0. -1.
    -200001    1    1    2    0    0 -0.28547391983E+02 -0.42038903933E+03  0.57782897148E+03  0.10007138543E+04  0.70000000000E+03 0. -1.
<mgrwt>
<rscale>  0 0.17492040E+04</rscale>
<asrwt>0</asrwt>
<pdfrwt beam="1">  1        1 0.35033084E+00 0.17492040E+04</pdfrwt>
<pdfrwt beam="2">  1       -1 0.44560135E-01 0.17492040E+04</pdfrwt>
<totfact> 0.91482398E+00</totfact>
</mgrwt>
</event>
<event>
 8    1  0.3214020E-028  0.1451039E+04  0.7818608E-02  0.8917680E-01
          1   -1    0    0  501    0  0.00000000000E+00  0.00000000000E+00  0.11321785883E+04  0.11321785883E+04  0.50400000000E-02 0.  1.
         -1   -1    0    0    0  501 -0.00000000000E+00 -0.00000000000E+00 -0.46492543925E+03  0.46492543928E+03  0.50400000000E-02 0. -1.
     200001    2    1    2    0    0  0.14114649928E+03  0.90351304157E+02  0.43530714080E+03  0.84087347862E+03  0.69963576795E+03 0.  0.
    5000001    2    3    3    0    0  0.43923522322E+02  0.22588046891E+02  0.14042778629E+03  0.24842263677E+03  0.19888274843E+03 0.  0.
        -13    1    4    4    0    0 -0.48359370854E+01 -0.53768763237E+02  0.14310567657E+03  0.15295003111E+03  0.10566000000E+00 0. -1.
     200003    1    4    4    0    0  0.48759459408E+02  0.76356810128E+02 -0.26778902841E+01  0.95472605658E+02  0.30000000000E+02 0. -1.
     200000    1    3    3    0    0  0.97222976956E+02  0.67763257266E+02  0.29487935452E+03  0.59245084185E+03  0.50000000000E+03 0.  1.
    -200001    1    1    2    0    0 -0.14114649928E+03 -0.90351304157E+02  0.23194600821E+03  0.75623054894E+03  0.70000000000E+03 0.  1.
<mgrwt>
<rscale>  0 0.14510391E+04</rscale>
<asrwt>0</asrwt>
<pdfrwt beam="1">  1        1 0.16173980E+00 0.14510391E+04</pdfrwt>
<pdfrwt beam="2">  1       -1 0.66417921E-01 0.14510391E+04</pdfrwt>
<totfact> 0.30868889E+01</totfact>
</mgrwt>
</event>
<event>
 8    1  0.3214020E-028  0.1533162E+04  0.7818608E-02  0.8862695E-01
         -1   -1    0    0    0  501 -0.00000000000E+00  0.00000000000E+00  0.50595299955E+03  0.50595299958E+03  0.50400000000E-02 0. -1.
          1   -1    0    0  501    0  0.00000000000E+00 -0.00000000000E+00 -0.11614637662E+04  0.11614637662E+04  0.50400000000E-02 0.  1.
     200001    2    1    2    0    0 -0.25669622428E+03  0.97931992449E+01 -0.13490605351E+03  0.75801139651E+03  0.70028049785E+03 0.  0.
    5000001    2    3    3    0    0 -0.85719277659E+02 -0.40905391919E+02  0.69336825029E+02  0.18922442686E+03  0.14824723526E+03 0.  0.
        -13    1    4    4    0    0  0.32458390708E+02  0.19207273499E+02  0.28534542607E+02  0.47293739210E+02  0.10566000000E+00 0. -1.
     200003    1    4    4    0    0 -0.11817766837E+03 -0.60112665418E+02  0.40802282422E+02  0.14193068764E+03  0.30000000000E+02 0. -1.
     200000    1    3    3    0    0 -0.17097694662E+03  0.50698591164E+02 -0.20424287854E+03  0.56878696966E+03  0.50000000000E+03 0. -1.
    -200001    1    1    2    0    0  0.25669622428E+03 -0.97931992449E+01 -0.52060471312E+03  0.90940536925E+03  0.70000000000E+03 0.  1.
<mgrwt>
<rscale>  0 0.15331615E+04</rscale>
<asrwt>0</asrwt>
<pdfrwt beam="1">  1        1 0.16592339E+00 0.15331615E+04</pdfrwt>
<pdfrwt beam="2">  1       -1 0.72279000E-01 0.15331615E+04</pdfrwt>
<totfact> 0.24586632E+01</totfact>
</mgrwt>
</event>
<event>
 8    1  0.3214020E-028  0.1867871E+04  0.7818608E-02  0.8671016E-01
         -1   -1    0    0    0  501 -0.00000000000E+00  0.00000000000E+00  0.24255136543E+04  0.24255136543E+04  0.50400000000E-02 0. -1.
          1   -1    0    0  501    0  0.00000000000E+00 -0.00000000000E+00 -0.35960859119E+03  0.35960859122E+03  0.50400000000E-02 0.  1.
     200001    2    1    2    0    0  0.12958061649E+02  0.98440581878E+02  0.12838294046E+03  0.72263577641E+03  0.70417457098E+03 0.  0.
    5000001    2    3    3    0    0 -0.75800114029E+01  0.73493799351E+02  0.34976721768E+02  0.21296051107E+03  0.19664692496E+03 0.  0.
        -13    1    4    4    0    0  0.14107247334E+02  0.10605886970E+03  0.89471222098E+02  0.13947261027E+03  0.10566000000E+00 0. -1.
     200003    1    4    4    0    0 -0.21687258737E+02 -0.32565070344E+02 -0.54494500330E+02  0.73487900802E+02  0.30000000000E+02 0. -1.
     200000    1    3    3    0    0  0.20538073052E+02  0.24946782527E+02  0.93406218697E+02  0.50967526534E+03  0.50000000000E+03 0.  1.
    -200001    1    1    2    0    0 -0.12958061649E+02 -0.98440581878E+02  0.19375221226E+04  0.20624864691E+04  0.70000000000E+03 0. -1.
<mgrwt>
<rscale>  0 0.18678710E+04</rscale>
<asrwt>0</asrwt>
<pdfrwt beam="1">  1        1 0.51372657E-01 0.18678710E+04</pdfrwt>
<pdfrwt beam="2">  1       -1 0.34650194E+00 0.18678710E+04</pdfrwt>
<totfact> 0.11772271E+00</totfact>
</mgrwt>
</event>
<event>
 8    1  0.3214020E-028  0.1750590E+04  0.7818608E-02  0.8733026E-01
         -1   -1    0    0    0  501 -0.00000000000E+00  0.00000000000E+00  0.88118829841E+03  0.88118829842E+03  0.50400000000E-02 0. -1.
          1   -1    0    0  501    0  0.00000000000E+00 -0.00000000000E+00 -0.86944083842E+03  0.86944083843E+03  0.50400000000E-02 0.  1.
     200001    2    1    2    0    0  0.47284543767E+03 -0.21613951782E+03 -0.67918859100E+02  0.87504600460E+03  0.70056651338E+03 0.  0.
    5000001    2    3    3    0    0  0.17178479278E+03 -0.88943419675E+02 -0.34475783176E+02  0.27676948107E+03  0.19491490218E+03 0.  0.
        -13    1    4    4    0    0  0.14526285137E+03  0.15643834085E+02  0.27657248405E+02  0.14869754567E+03  0.10566000000E+00 0. -1.
     200003    1    4    4    0    0  0.26521941408E+02 -0.10458725376E+03 -0.62133031580E+02  0.12807193541E+03  0.30000000000E+02 0. -1.
     200000    1    3    3    0    0  0.30106064489E+03 -0.12719609814E+03 -0.33443075924E+02  0.59827652353E+03  0.50000000000E+03 0.  1.
    -200001    1    1    2    0    0 -0.47284543767E+03  0.21613951782E+03  0.79666319088E+02  0.87558313225E+03  0.70000000000E+03 0. -1.
<mgrwt>
<rscale>  0 0.17505897E+04</rscale>
<asrwt>0</asrwt>
<pdfrwt beam="1">  1        1 0.12420583E+00 0.17505897E+04</pdfrwt>
<pdfrwt beam="2">  1       -1 0.12588404E+00 0.17505897E+04</pdfrwt>
<totfact> 0.11395246E+01</totfact>
</mgrwt>
</event>
<event>
 8    1  0.3214020E-028  0.1594843E+04  0.7818608E-02  0.8823722E-01
         -1   -1    0    0    0  501 -0.00000000000E+00  0.00000000000E+00  0.68214316990E+03  0.68214316992E+03  0.50400000000E-02 0. -1.
          1   -1    0    0  501    0  0.00000000000E+00 -0.00000000000E+00 -0.93218113082E+03  0.93218113083E+03  0.50400000000E-02 0.  1.
     200001    2    1    2    0    0 -0.23634699196E+03  0.21618192500E+03 -0.33125163078E+03  0.84025054104E+03  0.70263703540E+03 0.  0.
    5000001    2    3    3    0    0 -0.65728501008E+02  0.81541593818E+02 -0.18364420784E+03  0.27542610854E+03  0.17653633854E+03 0.  0.
        -13    1    4    4    0    0  0.32438024807E+02 -0.36490819904E+02 -0.42112670727E+02  0.64477078023E+02  0.10566000000E+00 0. -1.
     200003    1    4    4    0    0 -0.98166525815E+02  0.11803241372E+03 -0.14153153711E+03  0.21094903052E+03  0.30000000000E+02 0. -1.
     200000    1    3    3    0    0 -0.17061849095E+03  0.13464033118E+03 -0.14760742293E+03  0.56482443249E+03  0.50000000000E+03 0.  1.
    -200001    1    1    2    0    0  0.23634699196E+03 -0.21618192500E+03  0.81213669862E+02  0.77407375971E+03  0.70000000000E+03 0. -1.
<mgrwt>
<rscale>  0 0.15948429E+04</rscale>
<asrwt>0</asrwt>
<pdfrwt beam="1">  1        1 0.13316873E+00 0.15948429E+04</pdfrwt>
<pdfrwt beam="2">  1       -1 0.97449025E-01 0.15948429E+04</pdfrwt>
<totfact> 0.18918989E+01</totfact>
</mgrwt>
</event>
<event>
 8    1  0.3214020E-028  0.1667271E+04  0.7818608E-02  0.8780254E-01
          1   -1    0    0  501    0  0.00000000000E+00  0.00000000000E+00  0.26988117610E+03  0.26988117615E+03  0.50400000000E-02 0.  1.
         -1   -1    0    0    0  501 -0.00000000000E+00 -0.00000000000E+00 -0.25750146882E+04  0.25750146882E+04  0.50400000000E-02 0. -1.
     200001    2    1    2    0    0  0.24531658963E+03 -0.33766705675E+03 -0.14493677760E+04  0.16631453554E+04  0.70084681110E+03 0.  0.
    5000001    2    3    3    0    0  0.19291515621E+03 -0.15301865634E+03 -0.57853728495E+03  0.64080163327E+03  0.12365426168E+03 0.  0.
        -13    1    4    4    0    0  0.82759444688E+02 -0.11593742325E+03 -0.40880620342E+03  0.43291238711E+03  0.10566000000E+00 0. -1.
     200003    1    4    4    0    0  0.11015571153E+03 -0.37081233090E+02 -0.16973108154E+03  0.20788924616E+03  0.30000000000E+02 0. -1.
     200000    1    3    3    0    0  0.52401433413E+02 -0.18464840041E+03 -0.87083049106E+03  0.10223437221E+04  0.50000000000E+03 0.  1.
    -200001    1    1    2    0    0 -0.24531658963E+03  0.33766705675E+03 -0.85576573604E+03  0.11817505089E+04  0.70000000000E+03 0.  1.
<mgrwt>
<rscale>  0 0.16672708E+04</rscale>
<asrwt>0</asrwt>
<pdfrwt beam="1">  1        1 0.38554455E-01 0.16672708E+04</pdfrwt>
<pdfrwt beam="2">  1       -1 0.36785923E+00 0.16672708E+04</pdfrwt>
<totfact> 0.12568055E+00</totfact>
</mgrwt>
</event>
<event>
 8    1  0.3214020E-028  0.2294369E+04  0.7818608E-02  0.8480145E-01
          1   -1    0    0  501    0  0.00000000000E+00  0.00000000000E+00  0.99425113870E+03  0.99425113871E+03  0.50400000000E-02 0. -1.
         -1   -1    0    0    0  501 -0.00000000000E+00 -0.00000000000E+00 -0.13236414100E+04  0.13236414100E+04  0.50400000000E-02 0.  1.
     200001    2    1    2    0    0  0.75953776065E+03 -0.17965223023E+03  0.30591030721E+03  0.10920135340E+04  0.69981419586E+03 0.  0.
    5000001    2    3    3    0    0  0.31156702189E+03 -0.94875815863E+02  0.10406715333E+03  0.38589351448E+03  0.17890892249E+03 0.  0.
        -13    1    4    4    0    0  0.19597987283E+02  0.36774970892E+02  0.40267699225E+02  0.57948066012E+02  0.10566000000E+00 0. -1.
     200003    1    4    4    0    0  0.29196903461E+03 -0.13165078676E+03  0.63799454102E+02  0.32794544847E+03  0.30000000000E+02 0. -1.
     200000    1    3    3    0    0  0.44797073875E+03 -0.84776414367E+02  0.20184315388E+03  0.70612001953E+03  0.50000000000E+03 0.  1.
    -200001    1    1    2    0    0 -0.75953776065E+03  0.17965223023E+03 -0.63530057852E+03  0.12258790147E+04  0.70000000000E+03 0. -1.
<mgrwt>
<rscale>  0 0.22943687E+04</rscale>
<asrwt>0</asrwt>
<pdfrwt beam="1">  1        1 0.14203588E+00 0.22943687E+04</pdfrwt>
<pdfrwt beam="2">  1       -1 0.18909163E+00 0.22943687E+04</pdfrwt>
<totfact> 0.28403946E+00</totfact>
</mgrwt>
</event>
<event>
 8    1  0.3214020E-028  0.1791214E+04  0.7818608E-02  0.8710986E-01
         -1   -1    0    0    0  501 -0.00000000000E+00  0.00000000000E+00  0.73997147420E+03  0.73997147422E+03  0.50400000000E-02 0. -1.
          1   -1    0    0  501    0  0.00000000000E+00 -0.00000000000E+00 -0.10839773379E+04  0.10839773379E+04  0.50400000000E-02 0.  1.
     200001    2    1    2    0    0 -0.33320871242E+03 -0.44848013422E+03 -0.16684121056E+03  0.91095933181E+03  0.69989173295E+03 0.  0.
    5000001    2    3    3    0    0 -0.44648685380E+02 -0.22973379355E+02 -0.15162389678E+02  0.17793180685E+03  0.17002514098E+03 0.  0.
        -13    1    4    4    0    0 -0.46577044481E+02 -0.75686498987E+02 -0.55766089030E+02  0.10491775375E+03  0.10566000000E+00 0. -1.
     200003    1    4    4    0    0  0.19283591008E+01  0.52713119632E+02  0.40603699352E+02  0.73014053108E+02  0.30000000000E+02 0. -1.
     200000    1    3    3    0    0 -0.28856002704E+03 -0.42550675487E+03 -0.15167882089E+03  0.73302752496E+03  0.50000000000E+03 0. -1.
    -200001    1    1    2    0    0  0.33320871242E+03  0.44848013422E+03 -0.17716465311E+03  0.91298948030E+03  0.70000000000E+03 0.  1.
<mgrwt>
<rscale>  0 0.17912145E+04</rscale>
<asrwt>0</asrwt>
<pdfrwt beam="1">  1        1 0.15485391E+00 0.17912145E+04</pdfrwt>
<pdfrwt beam="2">  1       -1 0.10571021E+00 0.17912145E+04</pdfrwt>
<totfact> 0.11880794E+01</totfact>
</mgrwt>
</event>
<event>
 8    1  0.3214020E-028  0.1629162E+04  0.7818608E-02  0.8802830E-01
         -1   -1    0    0    0  501 -0.00000000000E+00  0.00000000000E+00  0.10504824962E+04  0.10504824962E+04  0.50400000000E-02 0. -1.
          1   -1    0    0  501    0  0.00000000000E+00 -0.00000000000E+00 -0.63165484634E+03  0.63165484636E+03  0.50400000000E-02 0.  1.
     200001    2    1    2    0    0  0.42472855938E+02  0.43746399075E+02  0.63467894332E+03  0.94707988097E+03  0.70030368336E+03 0.  0.
    5000001    2    3    3    0    0  0.73655567341E+02 -0.12574657679E+03  0.12030699445E+03  0.20932739393E+03  0.90037996210E+02 0.  0.
        -13    1    4    4    0    0 -0.18300957187E+02 -0.23081317979E+02  0.13523252305E+02  0.32412370949E+02  0.10566000000E+00 0. -1.
     200003    1    4    4    0    0  0.91956524528E+02 -0.10266525881E+03  0.10678374214E+03  0.17691502298E+03  0.30000000000E+02 0. -1.
     200000    1    3    3    0    0 -0.31182711403E+02  0.16949297586E+03  0.51437194887E+03  0.73775248705E+03  0.50000000000E+03 0. -1.
    -200001    1    1    2    0    0 -0.42472855938E+02 -0.43746399075E+02 -0.21585129349E+03  0.73505746158E+03  0.70000000000E+03 0.  1.
<mgrwt>
<rscale>  0 0.16291622E+04</rscale>
<asrwt>0</asrwt>
<pdfrwt beam="1">  1        1 0.90236408E-01 0.16291622E+04</pdfrwt>
<pdfrwt beam="2">  1       -1 0.15006893E+00 0.16291622E+04</pdfrwt>
<totfact> 0.11840783E+01</totfact>
</mgrwt>
</event>
