<event>
 4    1  0.4950349E-004  0.4005219E+03  0.7818608E-02  0.1043599E+00
          2   -1    0    0  501    0  0.00000000000E+00  0.00000000000E+00  0.18468592753E+04  0.18468592753E+04  0.25500000000E-02 0.  1.
         -2   -1    0    0    0  501 -0.00000000000E+00 -0.00000000000E+00 -0.21714945411E+02  0.21714945561E+02  0.25500000000E-02 0. -1.
    5000001    1    1    2    0    0  0.10590018574E+03 -0.10957707131E+03  0.14008419355E+04  0.14112083872E+04  0.77000000000E+02 0.  0.
   -5000001    1    1    2    0    0 -0.10590018574E+03  0.10957707131E+03  0.42430239431E+03  0.45736583357E+03  0.77000000000E+02 0.  0.
<mgrwt>
<rscale>  0 0.40052190E+03</rscale>
<asrwt>0</asrwt>
<pdfrwt beam="1">  1        2 0.26383699E+00 0.40052190E+03</pdfrwt>
<pdfrwt beam="2">  1       -2 0.31021356E-02 0.40052190E+03</pdfrwt>
<totfact> 0.42274687E+03</totfact>
</mgrwt>
</event>
<event>
 4    1  0.4950349E-004  0.2257102E+03  0.7818608E-02  0.1129696E+00
          2   -1    0    0  501    0  0.00000000000E+00  0.00000000000E+00  0.17301568951E+03  0.17301568953E+03  0.25500000000E-02 0.  1.
         -2   -1    0    0    0  501 -0.00000000000E+00 -0.00000000000E+00 -0.73613400783E+02  0.73613400827E+02  0.25500000000E-02 0. -1.
    5000001    1    1    2    0    0 -0.79044013498E+02 -0.18779059122E+02  0.65409318764E+02  0.12964562512E+03  0.77000000000E+02 0.  0.
   -5000001    1    1    2    0    0  0.79044013498E+02  0.18779059122E+02  0.33992969960E+02  0.11698346523E+03  0.77000000000E+02 0.  0.
<mgrwt>
<rscale>  0 0.22571020E+03</rscale>
<asrwt>0</asrwt>
<pdfrwt beam="1">  1        2 0.24716527E-01 0.22571020E+03</pdfrwt>
<pdfrwt beam="2">  1       -2 0.10516200E-01 0.22571020E+03</pdfrwt>
<totfact> 0.13013503E+04</totfact>
</mgrwt>
</event>
<event>
 4    1  0.4950349E-004  0.2329990E+03  0.7818608E-02  0.1124547E+00
         -2   -1    0    0    0  501 -0.00000000000E+00  0.00000000000E+00  0.73042407807E+01  0.73042412258E+01  0.25500000000E-02 0. -1.
          2   -1    0    0  501    0  0.00000000000E+00 -0.00000000000E+00 -0.18581168685E+04  0.18581168685E+04  0.25500000000E-02 0.  1.
    5000001    1    1    2    0    0  0.54475671228E+02  0.68083124178E+02 -0.97618241572E+03  0.98308901902E+03  0.77000000000E+02 0.  0.
   -5000001    1    1    2    0    0 -0.54475671228E+02 -0.68083124178E+02 -0.87463021202E+03  0.88233209072E+03  0.77000000000E+02 0.  0.
<mgrwt>
<rscale>  0 0.23299900E+03</rscale>
<asrwt>0</asrwt>
<pdfrwt beam="1">  1        2 0.26544496E+00 0.23299900E+03</pdfrwt>
<pdfrwt beam="2">  1       -2 0.10434642E-02 0.23299900E+03</pdfrwt>
<totfact> 0.20628022E+04</totfact>
</mgrwt>
</event>
<event>
 4    1  0.4950349E-004  0.2597286E+03  0.7818608E-02  0.1107306E+00
          2   -1    0    0  501    0  0.00000000000E+00  0.00000000000E+00  0.10423752991E+04  0.10423752991E+04  0.25500000000E-02 0.  1.
         -2   -1    0    0    0  501 -0.00000000000E+00 -0.00000000000E+00 -0.16179145822E+02  0.16179146023E+02  0.25500000000E-02 0. -1.
    5000001    1    1    2    0    0 -0.62332265226E+02  0.68300430757E+02  0.71215689398E+03  0.72225113483E+03  0.77000000000E+02 0.  0.
   -5000001    1    1    2    0    0  0.62332265226E+02 -0.68300430757E+02  0.31403925928E+03  0.33630331027E+03  0.77000000000E+02 0.  0.
<mgrwt>
<rscale>  0 0.25972864E+03</rscale>
<asrwt>0</asrwt>
<pdfrwt beam="1">  1        2 0.14891079E+00 0.25972864E+03</pdfrwt>
<pdfrwt beam="2">  1       -2 0.23113061E-02 0.25972864E+03</pdfrwt>
<totfact> 0.17068135E+04</totfact>
</mgrwt>
</event>
<event>
 4    1  0.4950349E-004  0.2252058E+03  0.7818608E-02  0.1130060E+00
          2   -1    0    0  501    0  0.00000000000E+00  0.00000000000E+00  0.22587012409E+04  0.22587012409E+04  0.25500000000E-02 0.  1.
         -2   -1    0    0    0  501 -0.00000000000E+00 -0.00000000000E+00 -0.56135857900E+01  0.56135863692E+01  0.25500000000E-02 0. -1.
    5000001    1    1    2    0    0  0.52790733218E+02 -0.13956396130E+02  0.50929948144E+03  0.51797355560E+03  0.77000000000E+02 0.  0.
   -5000001    1    1    2    0    0 -0.52790733218E+02  0.13956396130E+02  0.17437881737E+04  0.17463412717E+04  0.77000000000E+02 0.  0.
<mgrwt>
<rscale>  0 0.22520581E+03</rscale>
<asrwt>0</asrwt>
<pdfrwt beam="1">  1        2 0.32267166E+00 0.22520581E+03</pdfrwt>
<pdfrwt beam="2">  1       -2 0.80194074E-03 0.22520581E+03</pdfrwt>
<totfact> 0.19266278E+04</totfact>
</mgrwt>
</event>
<event>
 4    1  0.4950349E-004  0.2348732E+03  0.7818608E-02  0.1123256E+00
          2   -1    0    0  501    0  0.00000000000E+00  0.00000000000E+00  0.49310794181E+03  0.49310794182E+03  0.25500000000E-02 0.  1.
         -2   -1    0    0    0  501 -0.00000000000E+00 -0.00000000000E+00 -0.27968217650E+02  0.27968217766E+02  0.25500000000E-02 0. -1.
    5000001    1    1    2    0    0  0.25161738760E+02  0.81361128953E+02  0.28734603323E+03  0.30943414358E+03  0.77000000000E+02 0.  0.
   -5000001    1    1    2    0    0 -0.25161738760E+02 -0.81361128953E+02  0.17779369093E+03  0.21164201600E+03  0.77000000000E+02 0.  0.
<mgrwt>
<rscale>  0 0.23487316E+03</rscale>
<asrwt>0</asrwt>
<pdfrwt beam="1">  1        2 0.70443993E-01 0.23487316E+03</pdfrwt>
<pdfrwt beam="2">  1       -2 0.39954596E-02 0.23487316E+03</pdfrwt>
<totfact> 0.18590626E+04</totfact>
</mgrwt>
</event>
<event>
 4    1  0.4950349E-004  0.3328970E+03  0.7818608E-02  0.1069862E+00
         -2   -1    0    0    0  501 -0.00000000000E+00  0.00000000000E+00  0.98960500006E+02  0.98960500039E+02  0.25500000000E-02 0. -1.
          2   -1    0    0  501    0  0.00000000000E+00 -0.00000000000E+00 -0.27996127963E+03  0.27996127964E+03  0.25500000000E-02 0.  1.
    5000001    1    1    2    0    0  0.10290016851E+02  0.10831537357E+03  0.22971744245E+02  0.13525829228E+03  0.77000000000E+02 0.  0.
   -5000001    1    1    2    0    0 -0.10290016851E+02 -0.10831537357E+03 -0.20397252386E+03  0.24366348739E+03  0.77000000000E+02 0.  0.
<mgrwt>
<rscale>  0 0.33289703E+03</rscale>
<asrwt>0</asrwt>
<pdfrwt beam="1">  1        2 0.39994468E-01 0.33289703E+03</pdfrwt>
<pdfrwt beam="2">  1       -2 0.14137214E-01 0.33289703E+03</pdfrwt>
<totfact> 0.48361903E+03</totfact>
</mgrwt>
</event>
<event>
 4    1  0.4950349E-004  0.4248077E+03  0.7818608E-02  0.1035513E+00
         -2   -1    0    0    0  501 -0.00000000000E+00  0.00000000000E+00  0.59157704718E+02  0.59157704773E+02  0.25500000000E-02 0. -1.
          2   -1    0    0  501    0  0.00000000000E+00 -0.00000000000E+00 -0.76262936225E+03  0.76262936226E+03  0.25500000000E-02 0.  1.
    5000001    1    1    2    0    0  0.12389503028E+03 -0.14515650417E+03 -0.45347636649E+03  0.49798614860E+03  0.77000000000E+02 0.  0.
   -5000001    1    1    2    0    0 -0.12389503028E+03  0.14515650417E+03 -0.24999529105E+03  0.32380091843E+03  0.77000000000E+02 0.  0.
<mgrwt>
<rscale>  0 0.42480773E+03</rscale>
<asrwt>0</asrwt>
<pdfrwt beam="1">  1        2 0.10894705E+00 0.42480773E+03</pdfrwt>
<pdfrwt beam="2">  1       -2 0.84511012E-02 0.42480773E+03</pdfrwt>
<totfact> 0.36104568E+03</totfact>
</mgrwt>
</event>
<event>
 4    1  0.4950349E-004  0.2339786E+03  0.7818608E-02  0.1123870E+00
          2   -1    0    0  501    0  0.00000000000E+00  0.00000000000E+00  0.80258925893E+03  0.80258925893E+03  0.25500000000E-02 0. -1.
         -2   -1    0    0    0  501 -0.00000000000E+00 -0.00000000000E+00 -0.17052925175E+02  0.17052925365E+02  0.25500000000E-02 0.  1.
    5000001    1    1    2    0    0 -0.34281646759E+02 -0.67247516486E+02  0.23377243098E+03  0.25744127343E+03  0.77000000000E+02 0.  0.
   -5000001    1    1    2    0    0  0.34281646759E+02  0.67247516486E+02  0.55176390278E+03  0.56220091087E+03  0.77000000000E+02 0.  0.
<mgrwt>
<rscale>  0 0.23397859E+03</rscale>
<asrwt>0</asrwt>
<pdfrwt beam="1">  1        2 0.11465565E+00 0.23397859E+03</pdfrwt>
<pdfrwt beam="2">  1       -2 0.24361314E-02 0.23397859E+03</pdfrwt>
<totfact> 0.22089851E+04</totfact>
</mgrwt>
</event>
<event>
 4    1  0.4950349E-004  0.2563069E+03  0.7818608E-02  0.1109383E+00
         -2   -1    0    0    0  501 -0.00000000000E+00  0.00000000000E+00  0.61857869042E+01  0.61857874298E+01  0.25500000000E-02 0. -1.
          2   -1    0    0  501    0  0.00000000000E+00 -0.00000000000E+00 -0.26550071442E+04  0.26550071442E+04  0.25500000000E-02 0.  1.
    5000001    1    1    2    0    0  0.78469283131E+02  0.59865363682E+02 -0.16093280885E+04  0.16141893280E+04  0.77000000000E+02 0.  0.
   -5000001    1    1    2    0    0 -0.78469283131E+02 -0.59865363682E+02 -0.10394932688E+04  0.10470036036E+04  0.77000000000E+02 0.  0.
<mgrwt>
<rscale>  0 0.25630692E+03</rscale>
<asrwt>0</asrwt>
<pdfrwt beam="1">  1        2 0.37928601E+00 0.25630692E+03</pdfrwt>
<pdfrwt beam="2">  1       -2 0.88368558E-03 0.25630692E+03</pdfrwt>
<totfact> 0.10683390E+04</totfact>
</mgrwt>
</event>
<event>
 4    1  0.4950349E-004  0.2071430E+03  0.7818608E-02  0.1143849E+00
         -2   -1    0    0    0  501 -0.00000000000E+00  0.00000000000E+00  0.37462550688E+01  0.37462559366E+01  0.25500000000E-02 0. -1.
          2   -1    0    0  501    0  0.00000000000E+00 -0.00000000000E+00 -0.28634086747E+04  0.28634086747E+04  0.25500000000E-02 0.  1.
    5000001    1    1    2    0    0 -0.51960643426E+02  0.43894157673E+02 -0.16110719523E+04  0.16143445856E+04  0.77000000000E+02 0.  0.
   -5000001    1    1    2    0    0  0.51960643426E+02 -0.43894157673E+02 -0.12485904674E+04  0.12528103451E+04  0.77000000000E+02 0.  0.
<mgrwt>
<rscale>  0 0.20714305E+03</rscale>
<asrwt>0</asrwt>
<pdfrwt beam="1">  1        2 0.40905698E+00 0.20714305E+03</pdfrwt>
<pdfrwt beam="2">  1       -2 0.53518119E-03 0.20714305E+03</pdfrwt>
<totfact> 0.17157293E+04</totfact>
</mgrwt>
</event>
<event>
 4    1  0.4950349E-004  0.1883984E+03  0.7818608E-02  0.1159914E+00
         -2   -1    0    0    0  501 -0.00000000000E+00  0.00000000000E+00  0.18322319014E+02  0.18322319192E+02  0.25500000000E-02 0. -1.
          2   -1    0    0  501    0  0.00000000000E+00 -0.00000000000E+00 -0.48429924165E+03  0.48429924166E+03  0.25500000000E-02 0.  1.
    5000001    1    1    2    0    0 -0.26435935111E+02  0.38406678681E+02 -0.30704534532E+03  0.31996839800E+03  0.77000000000E+02 0.  0.
   -5000001    1    1    2    0    0  0.26435935111E+02 -0.38406678681E+02 -0.15893157731E+03  0.18265316285E+03  0.77000000000E+02 0.  0.
<mgrwt>
<rscale>  0 0.18839836E+03</rscale>
<asrwt>0</asrwt>
<pdfrwt beam="1">  1        2 0.69185599E-01 0.18839836E+03</pdfrwt>
<pdfrwt beam="2">  1       -2 0.26174744E-02 0.18839836E+03</pdfrwt>
<totfact> 0.34972544E+04</totfact>
</mgrwt>
</event>
<event>
 4    1  0.4950349E-004  0.3653367E+03  0.7818608E-02  0.1056491E+00
          2   -1    0    0  501    0  0.00000000000E+00  0.00000000000E+00  0.86584543517E+03  0.86584543517E+03  0.25500000000E-02 0.  1.
         -2   -1    0    0    0  501 -0.00000000000E+00 -0.00000000000E+00 -0.38537741048E+02  0.38537741133E+02  0.25500000000E-02 0. -1.
    5000001    1    1    2    0    0  0.91880762286E+02 -0.13017539905E+03  0.52576373651E+03  0.55474698343E+03  0.77000000000E+02 0.  0.
   -5000001    1    1    2    0    0 -0.91880762286E+02  0.13017539905E+03  0.30154395760E+03  0.34963619287E+03  0.77000000000E+02 0.  0.
<mgrwt>
<rscale>  0 0.36533671E+03</rscale>
<asrwt>0</asrwt>
<pdfrwt beam="1">  1        2 0.12369219E+00 0.36533671E+03</pdfrwt>
<pdfrwt beam="2">  1       -2 0.55053924E-02 0.36533671E+03</pdfrwt>
<totfact> 0.59904728E+03</totfact>
</mgrwt>
</event>
<event>
 4    1  0.4950349E-004  0.1940570E+03  0.7818608E-02  0.1154852E+00
         -2   -1    0    0    0  501 -0.00000000000E+00  0.00000000000E+00  0.20741404424E+02  0.20741404581E+02  0.25500000000E-02 0. -1.
          2   -1    0    0  501    0  0.00000000000E+00 -0.00000000000E+00 -0.45390007254E+03  0.45390007255E+03  0.25500000000E-02 0.  1.
    5000001    1    1    2    0    0 -0.16744190268E+02  0.43432730737E+02 -0.12775774373E+03  0.15626199503E+03  0.77000000000E+02 0.  0.
   -5000001    1    1    2    0    0  0.16744190268E+02 -0.43432730737E+02 -0.30540092439E+03  0.31837948210E+03  0.77000000000E+02 0.  0.
<mgrwt>
<rscale>  0 0.19405695E+03</rscale>
<asrwt>0</asrwt>
<pdfrwt beam="1">  1        2 0.64842862E-01 0.19405695E+03</pdfrwt>
<pdfrwt beam="2">  1       -2 0.29630581E-02 0.19405695E+03</pdfrwt>
<totfact> 0.31332142E+04</totfact>
</mgrwt>
</event>
<event>
 4    1  0.4950349E-004  0.1704600E+03  0.7818608E-02  0.1177369E+00
         -2   -1    0    0    0  501 -0.00000000000E+00  0.00000000000E+00  0.11226006920E+03  0.11226006923E+03  0.25500000000E-02 0. -1.
          2   -1    0    0  501    0  0.00000000000E+00 -0.00000000000E+00 -0.64708221513E+02  0.64708221563E+02  0.25500000000E-02 0.  1.
    5000001    1    1    2    0    0  0.35108593440E+02  0.24703665045E+01  0.33970913480E+02  0.91223566071E+02  0.77000000000E+02 0.  0.
   -5000001    1    1    2    0    0 -0.35108593440E+02 -0.24703665045E+01  0.13580934209E+02  0.85744724724E+02  0.77000000000E+02 0.  0.
<mgrwt>
<rscale>  0 0.17045996E+03</rscale>
<asrwt>0</asrwt>
<pdfrwt beam="1">  1        2 0.92440317E-02 0.17045996E+03</pdfrwt>
<pdfrwt beam="2">  1       -2 0.16037153E-01 0.17045996E+03</pdfrwt>
<totfact> 0.20485350E+04</totfact>
</mgrwt>
</event>
<event>
 4    1  0.4950349E-004  0.1877397E+03  0.7818608E-02  0.1160516E+00
         -2   -1    0    0    0  501 -0.00000000000E+00  0.00000000000E+00  0.57210450118E+02  0.57210450174E+02  0.25500000000E-02 0. -1.
          2   -1    0    0  501    0  0.00000000000E+00 -0.00000000000E+00 -0.15401991088E+03  0.15401991090E+03  0.25500000000E-02 0.  1.
    5000001    1    1    2    0    0 -0.44891412567E+02  0.26195672942E+02 -0.63545743582E+02  0.11255449227E+03  0.77000000000E+02 0.  0.
   -5000001    1    1    2    0    0  0.44891412567E+02 -0.26195672942E+02 -0.33263717178E+02  0.98675868801E+02  0.77000000000E+02 0.  0.
<mgrwt>
<rscale>  0 0.18773970E+03</rscale>
<asrwt>0</asrwt>
<pdfrwt beam="1">  1        2 0.22002844E-01 0.18773970E+03</pdfrwt>
<pdfrwt beam="2">  1       -2 0.81729215E-02 0.18773970E+03</pdfrwt>
<totfact> 0.21748006E+04</totfact>
</mgrwt>
</event>
<event>
 4    1  0.4950349E-004  0.2941403E+03  0.7818608E-02  0.1088207E+00
         -2   -1    0    0    0  501 -0.00000000000E+00  0.00000000000E+00  0.35407288089E+02  0.35407288181E+02  0.25500000000E-02 0. -1.
          2   -1    0    0  501    0  0.00000000000E+00 -0.00000000000E+00 -0.61088051850E+03  0.61088051850E+03  0.25500000000E-02 0.  1.
    5000001    1    1    2    0    0 -0.11392288467E+03 -0.38037502173E+02 -0.20926985304E+03  0.25327484403E+03  0.77000000000E+02 0.  0.
   -5000001    1    1    2    0    0  0.11392288467E+03  0.38037502173E+02 -0.36620337736E+03  0.39301296266E+03  0.77000000000E+02 0.  0.
<mgrwt>
<rscale>  0 0.29414026E+03</rscale>
<asrwt>0</asrwt>
<pdfrwt beam="1">  1        2 0.87268639E-01 0.29414026E+03</pdfrwt>
<pdfrwt beam="2">  1       -2 0.50581844E-02 0.29414026E+03</pdfrwt>
<totfact> 0.10346394E+04</totfact>
</mgrwt>
</event>
<event>
 4    1  0.4950349E-004  0.1674728E+03  0.7818608E-02  0.1180509E+00
          2   -1    0    0  501    0  0.00000000000E+00  0.00000000000E+00  0.68221774167E+01  0.68221778933E+01  0.25500000000E-02 0.  1.
         -2   -1    0    0    0  501 -0.00000000000E+00 -0.00000000000E+00 -0.10277932049E+04  0.10277932049E+04  0.25500000000E-02 0. -1.
    5000001    1    1    2    0    0  0.15005497318E+01 -0.28987063440E+02 -0.60624881221E+03  0.61180807759E+03  0.77000000000E+02 0.  0.
   -5000001    1    1    2    0    0 -0.15005497318E+01  0.28987063440E+02 -0.41472221529E+03  0.42280730523E+03  0.77000000000E+02 0.  0.
<mgrwt>
<rscale>  0 0.16747284E+03</rscale>
<asrwt>0</asrwt>
<pdfrwt beam="1">  1        2 0.97459746E-03 0.16747284E+03</pdfrwt>
<pdfrwt beam="2">  1       -2 0.14682750E+00 0.16747284E+03</pdfrwt>
<totfact> 0.48290553E+03</totfact>
</mgrwt>
</event>
<event>
 4    1  0.4950349E-004  0.2582602E+03  0.7818608E-02  0.1108193E+00
         -2   -1    0    0    0  501 -0.00000000000E+00  0.00000000000E+00  0.11983431041E+03  0.11983431044E+03  0.25500000000E-02 0. -1.
          2   -1    0    0  501    0  0.00000000000E+00 -0.00000000000E+00 -0.13914701750E+03  0.13914701753E+03  0.25500000000E-02 0.  1.
    5000001    1    1    2    0    0  0.37635329349E+02  0.96351236110E+02 -0.28841143996E+01  0.12898564583E+03  0.77000000000E+02 0.  0.
   -5000001    1    1    2    0    0 -0.37635329349E+02 -0.96351236110E+02 -0.16428592696E+02  0.12999568213E+03  0.77000000000E+02 0.  0.
<mgrwt>
<rscale>  0 0.25826023E+03</rscale>
<asrwt>0</asrwt>
<pdfrwt beam="1">  1        2 0.19878145E-01 0.25826023E+03</pdfrwt>
<pdfrwt beam="2">  1       -2 0.17119187E-01 0.25826023E+03</pdfrwt>
<totfact> 0.75723318E+03</totfact>
</mgrwt>
</event>
<event>
 4    1  0.4950349E-004  0.2477019E+03  0.7818608E-02  0.1114766E+00
         -2   -1    0    0    0  501 -0.00000000000E+00  0.00000000000E+00  0.23464335739E+02  0.23464335877E+02  0.25500000000E-02 0. -1.
          2   -1    0    0  501    0  0.00000000000E+00 -0.00000000000E+00 -0.65371770945E+03  0.65371770945E+03  0.25500000000E-02 0.  1.
    5000001    1    1    2    0    0  0.84616294883E+02 -0.11292535201E+02 -0.18917279060E+03  0.22136572322E+03  0.77000000000E+02 0.  0.
   -5000001    1    1    2    0    0 -0.84616294883E+02  0.11292535201E+02 -0.44108058310E+03  0.45581632211E+03  0.77000000000E+02 0.  0.
<mgrwt>
<rscale>  0 0.24770185E+03</rscale>
<asrwt>0</asrwt>
<pdfrwt beam="1">  1        2 0.93388233E-01 0.24770185E+03</pdfrwt>
<pdfrwt beam="2">  1       -2 0.33520484E-02 0.24770185E+03</pdfrwt>
<totfact> 0.17643639E+04</totfact>
</mgrwt>
</event>
<event>
 4    1  0.4950349E-004  0.6858696E+03  0.7818608E-02  0.9741707E-01
          2   -1    0    0  501    0  0.00000000000E+00  0.00000000000E+00  0.21801095160E+04  0.21801095160E+04  0.25500000000E-02 0.  1.
         -2   -1    0    0    0  501 -0.00000000000E+00 -0.00000000000E+00 -0.53944211161E+02  0.53944211221E+02  0.25500000000E-02 0. -1.
    5000001    1    1    2    0    0  0.27621567721E+03  0.17074739504E+03  0.13200865309E+04  0.13616193383E+04  0.77000000000E+02 0.  0.
   -5000001    1    1    2    0    0 -0.27621567721E+03 -0.17074739504E+03  0.80607877389E+03  0.87243438891E+03  0.77000000000E+02 0.  0.
<mgrwt>
<rscale>  0 0.68586963E+03</rscale>
<asrwt>0</asrwt>
<pdfrwt beam="1">  1        2 0.31144422E+00 0.68586963E+03</pdfrwt>
<pdfrwt beam="2">  1       -2 0.77063158E-02 0.68586963E+03</pdfrwt>
<totfact> 0.69573069E+02</totfact>
</mgrwt>
</event>
<event>
 4    1  0.4950349E-004  0.1784546E+03  0.7818608E-02  0.1169307E+00
         -2   -1    0    0    0  501 -0.00000000000E+00  0.00000000000E+00  0.13325991851E+02  0.13325992095E+02  0.25500000000E-02 0. -1.
          2   -1    0    0  501    0  0.00000000000E+00 -0.00000000000E+00 -0.59744258409E+03  0.59744258410E+03  0.25500000000E-02 0.  1.
    5000001    1    1    2    0    0  0.32751680315E+02 -0.26721864600E+02 -0.34571525431E+03  0.35669982853E+03  0.77000000000E+02 0.  0.
   -5000001    1    1    2    0    0 -0.32751680315E+02  0.26721864600E+02 -0.23840133793E+03  0.25406874766E+03  0.77000000000E+02 0.  0.
<mgrwt>
<rscale>  0 0.17845465E+03</rscale>
<asrwt>0</asrwt>
<pdfrwt beam="1">  1        2 0.85348924E-01 0.17845465E+03</pdfrwt>
<pdfrwt beam="2">  1       -2 0.19037135E-02 0.17845465E+03</pdfrwt>
<totfact> 0.43962763E+04</totfact>
</mgrwt>
</event>
<event>
 4    1  0.4950349E-004  0.3153411E+03  0.7818608E-02  0.1077814E+00
          2   -1    0    0  501    0  0.00000000000E+00  0.00000000000E+00  0.25369287391E+04  0.25369287391E+04  0.25500000000E-02 0.  1.
         -2   -1    0    0    0  501 -0.00000000000E+00 -0.00000000000E+00 -0.97992531628E+01  0.97992534946E+01  0.25500000000E-02 0. -1.
    5000001    1    1    2    0    0  0.47056480423E+02 -0.74436093470E+02  0.40978780843E+03  0.42615735627E+03  0.77000000000E+02 0.  0.
   -5000001    1    1    2    0    0 -0.47056480423E+02  0.74436093470E+02  0.21173416775E+04  0.21205706364E+04  0.77000000000E+02 0.  0.
<mgrwt>
<rscale>  0 0.31534113E+03</rscale>
<asrwt>0</asrwt>
<pdfrwt beam="1">  1        2 0.36241862E+00 0.31534113E+03</pdfrwt>
<pdfrwt beam="2">  1       -2 0.13998925E-02 0.31534113E+03</pdfrwt>
<totfact> 0.62718332E+03</totfact>
</mgrwt>
</event>
<event>
 4    1  0.4950349E-004  0.3870434E+03  0.7818608E-02  0.1048361E+00
          2   -1    0    0  501    0  0.00000000000E+00  0.00000000000E+00  0.46841992992E+03  0.46841992993E+03  0.25500000000E-02 0. -1.
         -2   -1    0    0    0  501 -0.00000000000E+00 -0.00000000000E+00 -0.79951017195E+02  0.79951017236E+02  0.25500000000E-02 0.  1.
    5000001    1    1    2    0    0 -0.10485657859E+03  0.10619865423E+03  0.57979404910E+02  0.17766166617E+03  0.77000000000E+02 0.  0.
   -5000001    1    1    2    0    0  0.10485657859E+03 -0.10619865423E+03  0.33048950781E+03  0.37070928099E+03  0.77000000000E+02 0.  0.
<mgrwt>
<rscale>  0 0.38704341E+03</rscale>
<asrwt>0</asrwt>
<pdfrwt beam="1">  1        2 0.66917134E-01 0.38704341E+03</pdfrwt>
<pdfrwt beam="2">  1       -2 0.11421574E-01 0.38704341E+03</pdfrwt>
<totfact> 0.39233001E+03</totfact>
</mgrwt>
</event>
<event>
 4    1  0.4950349E-004  0.2857315E+03  0.7818608E-02  0.1092599E+00
         -2   -1    0    0    0  501 -0.00000000000E+00  0.00000000000E+00  0.43829666203E+02  0.43829666277E+02  0.25500000000E-02 0. -1.
          2   -1    0    0  501    0  0.00000000000E+00 -0.00000000000E+00 -0.46568050671E+03  0.46568050671E+03  0.25500000000E-02 0.  1.
    5000001    1    1    2    0    0 -0.98507309169E+02 -0.62670174579E+02 -0.26292518576E+03  0.29780848552E+03  0.77000000000E+02 0.  0.
   -5000001    1    1    2    0    0  0.98507309169E+02  0.62670174579E+02 -0.15892565474E+03  0.21170168747E+03  0.77000000000E+02 0.  0.
<mgrwt>
<rscale>  0 0.28573149E+03</rscale>
<asrwt>0</asrwt>
<pdfrwt beam="1">  1        2 0.66525784E-01 0.28573149E+03</pdfrwt>
<pdfrwt beam="2">  1       -2 0.62613812E-02 0.28573149E+03</pdfrwt>
<totfact> 0.10104419E+04</totfact>
</mgrwt>
</event>
<event>
 4    1  0.4950349E-004  0.3056194E+03  0.7818608E-02  0.1082465E+00
         -2   -1    0    0    0  501 -0.00000000000E+00  0.00000000000E+00  0.42120543345E+02  0.42120543422E+02  0.25500000000E-02 0. -1.
          2   -1    0    0  501    0  0.00000000000E+00 -0.00000000000E+00 -0.55438028395E+03  0.55438028395E+03  0.25500000000E-02 0.  1.
    5000001    1    1    2    0    0 -0.91027204144E+02 -0.94934043143E+02 -0.27780904000E+03  0.31686793329E+03  0.77000000000E+02 0.  0.
   -5000001    1    1    2    0    0  0.91027204144E+02  0.94934043143E+02 -0.23445070060E+03  0.27963289409E+03  0.77000000000E+02 0.  0.
<mgrwt>
<rscale>  0 0.30561936E+03</rscale>
<asrwt>0</asrwt>
<pdfrwt beam="1">  1        2 0.79197179E-01 0.30561936E+03</pdfrwt>
<pdfrwt beam="2">  1       -2 0.60172208E-02 0.30561936E+03</pdfrwt>
<totfact> 0.88708157E+03</totfact>
</mgrwt>
</event>
<event>
 4    1  0.4950349E-004  0.2870517E+03  0.7818608E-02  0.1091899E+00
         -2   -1    0    0    0  501 -0.00000000000E+00  0.00000000000E+00  0.24441179304E+03  0.24441179305E+03  0.25500000000E-02 0. -1.
          2   -1    0    0  501    0  0.00000000000E+00 -0.00000000000E+00 -0.84282617053E+02  0.84282617092E+02  0.25500000000E-02 0.  1.
    5000001    1    1    2    0    0  0.79078670086E+02 -0.58966190549E+02  0.16054779795E+03  0.20355599504E+03  0.77000000000E+02 0.  0.
   -5000001    1    1    2    0    0 -0.79078670086E+02  0.58966190549E+02 -0.41862196339E+00  0.12513841510E+03  0.77000000000E+02 0.  0.
<mgrwt>
<rscale>  0 0.28705167E+03</rscale>
<asrwt>0</asrwt>
<pdfrwt beam="1">  1        2 0.12040374E-01 0.28705167E+03</pdfrwt>
<pdfrwt beam="2">  1       -2 0.34915971E-01 0.28705167E+03</pdfrwt>
<totfact> 0.39137916E+03</totfact>
</mgrwt>
</event>
<event>
 4    1  0.4950349E-004  0.1707808E+03  0.7818608E-02  0.1177036E+00
         -2   -1    0    0    0  501 -0.00000000000E+00  0.00000000000E+00  0.29432528660E+01  0.29432539706E+01  0.25500000000E-02 0. -1.
          2   -1    0    0  501    0  0.00000000000E+00 -0.00000000000E+00 -0.24773668553E+04  0.24773668553E+04  0.25500000000E-02 0.  1.
    5000001    1    1    2    0    0 -0.17755938208E+02  0.20272259189E+02 -0.16035577138E+04  0.16056315204E+04  0.77000000000E+02 0.  0.
   -5000001    1    1    2    0    0  0.17755938208E+02 -0.20272259189E+02 -0.87086588866E+03  0.87467858889E+03  0.77000000000E+02 0.  0.
<mgrwt>
<rscale>  0 0.17078078E+03</rscale>
<asrwt>0</asrwt>
<pdfrwt beam="1">  1        2 0.35390821E+00 0.17078078E+03</pdfrwt>
<pdfrwt beam="2">  1       -2 0.42046636E-03 0.17078078E+03</pdfrwt>
<totfact> 0.37520044E+04</totfact>
</mgrwt>
</event>
<event>
 4    1  0.4950349E-004  0.1789504E+03  0.7818608E-02  0.1168823E+00
          2   -1    0    0  501    0  0.00000000000E+00  0.00000000000E+00  0.14675010830E+04  0.14675010830E+04  0.25500000000E-02 0.  1.
         -2   -1    0    0    0  501 -0.00000000000E+00 -0.00000000000E+00 -0.54554053291E+01  0.54554059251E+01  0.25500000000E-02 0. -1.
    5000001    1    1    2    0    0 -0.40069192763E+02 -0.71189885529E+01  0.89982905772E+03  0.90403404434E+03  0.77000000000E+02 0.  0.
   -5000001    1    1    2    0    0  0.40069192763E+02  0.71189885529E+01  0.56221661991E+03  0.56892244455E+03  0.77000000000E+02 0.  0.
<mgrwt>
<rscale>  0 0.17895043E+03</rscale>
<asrwt>0</asrwt>
<pdfrwt beam="1">  1        2 0.20964318E+00 0.17895043E+03</pdfrwt>
<pdfrwt beam="2">  1       -2 0.77934305E-03 0.17895043E+03</pdfrwt>
<totfact> 0.48102812E+04</totfact>
</mgrwt>
</event>
<event>
 4    1  0.4950349E-004  0.4914425E+03  0.7818608E-02  0.1016037E+00
         -2   -1    0    0    0  501 -0.00000000000E+00  0.00000000000E+00  0.16628730399E+04  0.16628730399E+04  0.25500000000E-02 0. -1.
          2   -1    0    0  501    0  0.00000000000E+00 -0.00000000000E+00 -0.36310005920E+02  0.36310006009E+02  0.25500000000E-02 0.  1.
    5000001    1    1    2    0    0  0.11803899745E+03  0.19627173572E+03  0.65888258596E+03  0.70179132315E+03  0.77000000000E+02 0.  0.
   -5000001    1    1    2    0    0 -0.11803899745E+03 -0.19627173572E+03  0.96768044803E+03  0.99739172278E+03  0.77000000000E+02 0.  0.
<mgrwt>
<rscale>  0 0.49144249E+03</rscale>
<asrwt>0</asrwt>
<pdfrwt beam="1">  1        2 0.51871432E-02 0.49144249E+03</pdfrwt>
<pdfrwt beam="2">  1       -2 0.23755331E+00 0.49144249E+03</pdfrwt>
<totfact> 0.12566672E+02</totfact>
</mgrwt>
</event>
<event>
 4    1  0.4950349E-004  0.2326304E+03  0.7818608E-02  0.1124802E+00
          2   -1    0    0  501    0  0.00000000000E+00  0.00000000000E+00  0.21854158757E+04  0.21854158757E+04  0.25500000000E-02 0.  1.
         -2   -1    0    0    0  501 -0.00000000000E+00 -0.00000000000E+00 -0.61906865985E+01  0.61906871236E+01  0.25500000000E-02 0. -1.
    5000001    1    1    2    0    0  0.99667025708E+00  0.67778099922E+02  0.57314334751E+03  0.58225180204E+03  0.77000000000E+02 0.  0.
   -5000001    1    1    2    0    0 -0.99667025708E+00 -0.67778099922E+02  0.16060818416E+04  0.16093547608E+04  0.77000000000E+02 0.  0.
<mgrwt>
<rscale>  0 0.23263040E+03</rscale>
<asrwt>0</asrwt>
<pdfrwt beam="1">  1        2 0.31220152E+00 0.23263040E+03</pdfrwt>
<pdfrwt beam="2">  1       -2 0.88438596E-03 0.23263040E+03</pdfrwt>
<totfact> 0.18179321E+04</totfact>
</mgrwt>
</event>
<event>
 4    1  0.4950349E-004  0.1882685E+03  0.7818608E-02  0.1160032E+00
         -2   -1    0    0    0  501 -0.00000000000E+00  0.00000000000E+00  0.48054323855E+02  0.48054323923E+02  0.25500000000E-02 0. -1.
          2   -1    0    0  501    0  0.00000000000E+00 -0.00000000000E+00 -0.18440078928E+03  0.18440078929E+03  0.25500000000E-02 0.  1.
    5000001    1    1    2    0    0  0.40344871211E+02  0.16430060234E+02 -0.28458863600E+02  0.92933107285E+02  0.77000000000E+02 0.  0.
   -5000001    1    1    2    0    0 -0.40344871211E+02 -0.16430060234E+02 -0.10788760182E+03  0.13952200593E+03  0.77000000000E+02 0.  0.
<mgrwt>
<rscale>  0 0.18826848E+03</rscale>
<asrwt>0</asrwt>
<pdfrwt beam="1">  1        2 0.26342970E-01 0.18826848E+03</pdfrwt>
<pdfrwt beam="2">  1       -2 0.68649035E-02 0.18826848E+03</pdfrwt>
<totfact> 0.23306844E+04</totfact>
</mgrwt>
</event>
<event>
 4    1  0.4950349E-004  0.2783472E+03  0.7818608E-02  0.1096595E+00
          2   -1    0    0  501    0  0.00000000000E+00  0.00000000000E+00  0.34181162724E+03  0.34181162725E+03  0.25500000000E-02 0.  1.
         -2   -1    0    0    0  501 -0.00000000000E+00 -0.00000000000E+00 -0.56666577421E+02  0.56666577479E+02  0.25500000000E-02 0. -1.
    5000001    1    1    2    0    0  0.34848761656E+02 -0.10718518388E+03  0.10370302760E+03  0.17142467082E+03  0.77000000000E+02 0.  0.
   -5000001    1    1    2    0    0 -0.34848761656E+02  0.10718518388E+03  0.18144202221E+03  0.22705353390E+03  0.77000000000E+02 0.  0.
<mgrwt>
<rscale>  0 0.27834723E+03</rscale>
<asrwt>0</asrwt>
<pdfrwt beam="1">  1        2 0.48830232E-01 0.27834723E+03</pdfrwt>
<pdfrwt beam="2">  1       -2 0.80952254E-02 0.27834723E+03</pdfrwt>
<totfact> 0.94749467E+03</totfact>
</mgrwt>
</event>
<event>
 4    1  0.4950349E-004  0.3767214E+03  0.7818608E-02  0.1052152E+00
         -2   -1    0    0    0  501 -0.00000000000E+00  0.00000000000E+00  0.33238144670E+02  0.33238144768E+02  0.25500000000E-02 0. -1.
          2   -1    0    0  501    0  0.00000000000E+00 -0.00000000000E+00 -0.10674409852E+04  0.10674409852E+04  0.25500000000E-02 0.  1.
    5000001    1    1    2    0    0  0.12517523414E+03 -0.59103776586E+02 -0.81489835732E+03  0.83015084678E+03  0.77000000000E+02 0.  0.
   -5000001    1    1    2    0    0 -0.12517523414E+03  0.59103776586E+02 -0.21930448320E+03  0.27052828318E+03  0.77000000000E+02 0.  0.
<mgrwt>
<rscale>  0 0.37672142E+03</rscale>
<asrwt>0</asrwt>
<pdfrwt beam="1">  1        2 0.15249155E+00 0.37672142E+03</pdfrwt>
<pdfrwt beam="2">  1       -2 0.47483071E-02 0.37672142E+03</pdfrwt>
<totfact> 0.56655733E+03</totfact>
</mgrwt>
</event>
<event>
 4    1  0.4950349E-004  0.1762650E+03  0.7818608E-02  0.1171468E+00
          2   -1    0    0  501    0  0.00000000000E+00  0.00000000000E+00  0.28156859631E+03  0.28156859632E+03  0.25500000000E-02 0.  1.
         -2   -1    0    0    0  501 -0.00000000000E+00 -0.00000000000E+00 -0.27585946333E+02  0.27585946451E+02  0.25500000000E-02 0. -1.
    5000001    1    1    2    0    0 -0.33628533603E+02  0.26535224363E+02  0.13019663460E+03  0.15721055965E+03  0.77000000000E+02 0.  0.
   -5000001    1    1    2    0    0  0.33628533603E+02 -0.26535224363E+02  0.12378601538E+03  0.15194398312E+03  0.77000000000E+02 0.  0.
<mgrwt>
<rscale>  0 0.17626498E+03</rscale>
<asrwt>0</asrwt>
<pdfrwt beam="1">  1        2 0.40224086E-01 0.17626498E+03</pdfrwt>
<pdfrwt beam="2">  1       -2 0.39408494E-02 0.17626498E+03</pdfrwt>
<totfact> 0.33916316E+04</totfact>
</mgrwt>
</event>
<event>
 4    1  0.4950349E-004  0.2052602E+03  0.7818608E-02  0.1145375E+00
         -2   -1    0    0    0  501 -0.00000000000E+00  0.00000000000E+00  0.84984563039E+01  0.84984566865E+01  0.25500000000E-02 0.  1.
          2   -1    0    0  501    0  0.00000000000E+00 -0.00000000000E+00 -0.12393939702E+04  0.12393939702E+04  0.25500000000E-02 0. -1.
    5000001    1    1    2    0    0 -0.49493409973E+02  0.45006955991E+02 -0.54647430028E+03  0.55591220942E+03  0.77000000000E+02 0.  0.
   -5000001    1    1    2    0    0  0.49493409973E+02 -0.45006955991E+02 -0.68442121366E+03  0.69198021751E+03  0.77000000000E+02 0.  0.
<mgrwt>
<rscale>  0 0.20526018E+03</rscale>
<asrwt>0</asrwt>
<pdfrwt beam="1">  1        2 0.17705617E+00 0.20526018E+03</pdfrwt>
<pdfrwt beam="2">  1       -2 0.12140660E-02 0.20526018E+03</pdfrwt>
<totfact> 0.33596137E+04</totfact>
</mgrwt>
</event>
<event>
 4    1  0.4950349E-004  0.3365154E+03  0.7818608E-02  0.1068290E+00
          2   -1    0    0  501    0  0.00000000000E+00  0.00000000000E+00  0.11510961077E+04  0.11510961077E+04  0.25500000000E-02 0.  1.
         -2   -1    0    0    0  501 -0.00000000000E+00 -0.00000000000E+00 -0.24594519631E+02  0.24594519763E+02  0.25500000000E-02 0. -1.
    5000001    1    1    2    0    0 -0.60462390944E+02  0.11184340310E+03  0.83872365571E+03  0.85179282586E+03  0.77000000000E+02 0.  0.
   -5000001    1    1    2    0    0  0.60462390944E+02 -0.11184340310E+03  0.28777793238E+03  0.32389780163E+03  0.77000000000E+02 0.  0.
<mgrwt>
<rscale>  0 0.33651541E+03</rscale>
<asrwt>0</asrwt>
<pdfrwt beam="1">  1        2 0.16444234E+00 0.33651541E+03</pdfrwt>
<pdfrwt beam="2">  1       -2 0.35135020E-02 0.33651541E+03</pdfrwt>
<totfact> 0.80035005E+03</totfact>
</mgrwt>
</event>
<event>
 4    1  0.4950349E-004  0.2946416E+03  0.7818608E-02  0.1087950E+00
         -2   -1    0    0    0  501 -0.00000000000E+00  0.00000000000E+00  0.70524671534E+01  0.70524676144E+01  0.25500000000E-02 0. -1.
          2   -1    0    0  501    0  0.00000000000E+00 -0.00000000000E+00 -0.30774216428E+04  0.30774216428E+04  0.25500000000E-02 0.  1.
    5000001    1    1    2    0    0 -0.79097924586E+01  0.10170431453E+03 -0.76818220348E+03  0.77874208192E+03  0.77000000000E+02 0.  0.
   -5000001    1    1    2    0    0  0.79097924586E+01 -0.10170431453E+03 -0.23021869721E+04  0.23057320285E+04  0.77000000000E+02 0.  0.
<mgrwt>
<rscale>  0 0.29464158E+03</rscale>
<asrwt>0</asrwt>
<pdfrwt beam="1">  1        2 0.43963081E+00 0.29464158E+03</pdfrwt>
<pdfrwt beam="2">  1       -2 0.10074973E-02 0.29464158E+03</pdfrwt>
<totfact> 0.53200804E+03</totfact>
</mgrwt>
</event>
<event>
 4    1  0.4950349E-004  0.1735597E+03  0.7818608E-02  0.1174186E+00
          2   -1    0    0  501    0  0.00000000000E+00  0.00000000000E+00  0.24494997315E+03  0.24494997316E+03  0.25500000000E-02 0.  1.
         -2   -1    0    0    0  501 -0.00000000000E+00 -0.00000000000E+00 -0.30744011952E+02  0.30744012057E+02  0.25500000000E-02 0. -1.
    5000001    1    1    2    0    0  0.34222693696E+01  0.35279511752E+02  0.77581875978E+02  0.11490997936E+03  0.77000000000E+02 0.  0.
   -5000001    1    1    2    0    0 -0.34222693696E+01 -0.35279511752E+02  0.13662408522E+03  0.16078400586E+03  0.77000000000E+02 0.  0.
<mgrwt>
<rscale>  0 0.17355973E+03</rscale>
<asrwt>0</asrwt>
<pdfrwt beam="1">  1        2 0.34992853E-01 0.17355973E+03</pdfrwt>
<pdfrwt beam="2">  1       -2 0.43920017E-02 0.17355973E+03</pdfrwt>
<totfact> 0.33442635E+04</totfact>
</mgrwt>
</event>
<event>
 4    1  0.4950349E-004  0.1751152E+03  0.7818608E-02  0.1172616E+00
         -2   -1    0    0    0  501 -0.00000000000E+00  0.00000000000E+00  0.24925597112E+02  0.24925597242E+02  0.25500000000E-02 0. -1.
          2   -1    0    0  501    0  0.00000000000E+00 -0.00000000000E+00 -0.30756865726E+03  0.30756865727E+03  0.25500000000E-02 0.  1.
    5000001    1    1    2    0    0 -0.32428142084E+02 -0.19125958877E+02 -0.17528394020E+03  0.19511751944E+03  0.77000000000E+02 0.  0.
   -5000001    1    1    2    0    0  0.32428142084E+02  0.19125958877E+02 -0.10735911995E+03  0.13737673507E+03  0.77000000000E+02 0.  0.
<mgrwt>
<rscale>  0 0.17511519E+03</rscale>
<asrwt>0</asrwt>
<pdfrwt beam="1">  1        2 0.43938378E-01 0.17511519E+03</pdfrwt>
<pdfrwt beam="2">  1       -2 0.35607998E-02 0.17511519E+03</pdfrwt>
<totfact> 0.35875263E+04</totfact>
</mgrwt>
</event>
<event>
 4    1  0.4950349E-004  0.2141082E+03  0.7818608E-02  0.1138353E+00
         -2   -1    0    0    0  501 -0.00000000000E+00  0.00000000000E+00  0.23805723455E+02  0.23805723591E+02  0.25500000000E-02 0. -1.
          2   -1    0    0  501    0  0.00000000000E+00 -0.00000000000E+00 -0.48142124852E+03  0.48142124853E+03  0.25500000000E-02 0.  1.
    5000001    1    1    2    0    0  0.23077234774E+02 -0.43662511856E+02 -0.36003246898E+03  0.37147187300E+03  0.77000000000E+02 0.  0.
   -5000001    1    1    2    0    0 -0.23077234774E+02  0.43662511856E+02 -0.97583056085E+02  0.13375509912E+03  0.77000000000E+02 0.  0.
<mgrwt>
<rscale>  0 0.21410821E+03</rscale>
<asrwt>0</asrwt>
<pdfrwt beam="1">  1        2 0.68774458E-01 0.21410821E+03</pdfrwt>
<pdfrwt beam="2">  1       -2 0.34008179E-02 0.21410821E+03</pdfrwt>
<totfact> 0.24133694E+04</totfact>
</mgrwt>
</event>
<event>
 4    1  0.4950349E-004  0.3355880E+03  0.7818608E-02  0.1068691E+00
         -2   -1    0    0    0  501 -0.00000000000E+00  0.00000000000E+00  0.75929922844E+02  0.75929922887E+02  0.25500000000E-02 0. -1.
          2   -1    0    0  501    0  0.00000000000E+00 -0.00000000000E+00 -0.37080024218E+03  0.37080024219E+03  0.25500000000E-02 0.  1.
    5000001    1    1    2    0    0 -0.13328308918E+03  0.12777815440E+02 -0.23470839306E+03  0.28097096683E+03  0.77000000000E+02 0.  0.
   -5000001    1    1    2    0    0  0.13328308918E+03 -0.12777815440E+02 -0.60161926269E+02  0.16575919824E+03  0.77000000000E+02 0.  0.
<mgrwt>
<rscale>  0 0.33558804E+03</rscale>
<asrwt>0</asrwt>
<pdfrwt beam="1">  1        2 0.52971462E-01 0.33558804E+03</pdfrwt>
<pdfrwt beam="2">  1       -2 0.10847132E-01 0.33558804E+03</pdfrwt>
<totfact> 0.54912258E+03</totfact>
</mgrwt>
</event>
<event>
 4    1  0.4950349E-004  0.2536247E+03  0.7818608E-02  0.1111035E+00
         -2   -1    0    0    0  501 -0.00000000000E+00  0.00000000000E+00  0.37197369897E+02  0.37197369985E+02  0.25500000000E-02 0. -1.
          2   -1    0    0  501    0  0.00000000000E+00 -0.00000000000E+00 -0.43232539429E+03  0.43232539430E+03  0.25500000000E-02 0.  1.
    5000001    1    1    2    0    0  0.29567679146E+02  0.38200576108E+02 -0.36125931536E+03  0.37251956270E+03  0.77000000000E+02 0.  0.
   -5000001    1    1    2    0    0 -0.29567679146E+02 -0.38200576108E+02 -0.33868709038E+02  0.97003201581E+02  0.77000000000E+02 0.  0.
<mgrwt>
<rscale>  0 0.25362466E+03</rscale>
<asrwt>0</asrwt>
<pdfrwt beam="1">  1        2 0.61760767E-01 0.25362466E+03</pdfrwt>
<pdfrwt beam="2">  1       -2 0.53139103E-02 0.25362466E+03</pdfrwt>
<totfact> 0.14009123E+04</totfact>
</mgrwt>
</event>
<event>
 4    1  0.4950349E-004  0.3480945E+03  0.7818608E-02  0.1063400E+00
         -2   -1    0    0    0  501 -0.00000000000E+00  0.00000000000E+00  0.77620380096E+01  0.77620384285E+01  0.25500000000E-02 0. -1.
          2   -1    0    0  501    0  0.00000000000E+00 -0.00000000000E+00 -0.39026399328E+04  0.39026399328E+04  0.25500000000E-02 0.  1.
    5000001    1    1    2    0    0 -0.42330520847E+02  0.87178971641E+02 -0.57290522172E+03  0.58612408172E+03  0.77000000000E+02 0.  0.
   -5000001    1    1    2    0    0  0.42330520847E+02 -0.87178971641E+02 -0.33219726731E+04  0.33242778895E+04  0.77000000000E+02 0.  0.
<mgrwt>
<rscale>  0 0.34809447E+03</rscale>
<asrwt>0</asrwt>
<pdfrwt beam="1">  1        2 0.55751874E+00 0.34809447E+03</pdfrwt>
<pdfrwt beam="2">  1       -2 0.11088651E-02 0.34809447E+03</pdfrwt>
<totfact> 0.15166779E+03</totfact>
</mgrwt>
</event>
<event>
 4    1  0.4950349E-004  0.2042610E+03  0.7818608E-02  0.1146193E+00
          2   -1    0    0  501    0  0.00000000000E+00  0.00000000000E+00  0.72168205907E+03  0.72168205908E+03  0.25500000000E-02 0.  1.
         -2   -1    0    0    0  501 -0.00000000000E+00 -0.00000000000E+00 -0.14453227037E+02  0.14453227262E+02  0.25500000000E-02 0. -1.
    5000001    1    1    2    0    0  0.61139309523E+02 -0.32468950235E+01  0.25471538609E+03  0.27305216609E+03  0.77000000000E+02 0.  0.
   -5000001    1    1    2    0    0 -0.61139309523E+02  0.32468950235E+01  0.45251344595E+03  0.46308312025E+03  0.77000000000E+02 0.  0.
<mgrwt>
<rscale>  0 0.20426096E+03</rscale>
<asrwt>0</asrwt>
<pdfrwt beam="1">  1        2 0.10309746E+00 0.20426096E+03</pdfrwt>
<pdfrwt beam="2">  1       -2 0.20647463E-02 0.20426096E+03</pdfrwt>
<totfact> 0.31741801E+04</totfact>
</mgrwt>
</event>
<event>
 4    1  0.4950349E-004  0.2569621E+03  0.7818608E-02  0.1108982E+00
          2   -1    0    0  501    0  0.00000000000E+00  0.00000000000E+00  0.61085035996E+03  0.61085035997E+03  0.25500000000E-02 0.  1.
         -2   -1    0    0    0  501 -0.00000000000E+00 -0.00000000000E+00 -0.27023616445E+02  0.27023616565E+02  0.25500000000E-02 0. -1.
    5000001    1    1    2    0    0 -0.67981572390E+02 -0.36809766411E+02  0.46031096210E+03  0.47306620564E+03  0.77000000000E+02 0.  0.
   -5000001    1    1    2    0    0  0.67981572390E+02  0.36809766411E+02  0.12351578141E+03  0.16480777089E+03  0.77000000000E+02 0.  0.
<mgrwt>
<rscale>  0 0.25696214E+03</rscale>
<asrwt>0</asrwt>
<pdfrwt beam="1">  1        2 0.87264343E-01 0.25696214E+03</pdfrwt>
<pdfrwt beam="2">  1       -2 0.38605164E-02 0.25696214E+03</pdfrwt>
<totfact> 0.15474774E+04</totfact>
</mgrwt>
</event>
<event>
 4    1  0.4950349E-004  0.3307480E+03  0.7818608E-02  0.1070806E+00
         -2   -1    0    0    0  501 -0.00000000000E+00  0.00000000000E+00  0.20062856716E+02  0.20062856878E+02  0.25500000000E-02 0. -1.
          2   -1    0    0  501    0  0.00000000000E+00 -0.00000000000E+00 -0.13631442309E+04  0.13631442309E+04  0.25500000000E-02 0.  1.
    5000001    1    1    2    0    0  0.13682494348E+03 -0.36767790227E+02 -0.51807390930E+03  0.54258871261E+03  0.77000000000E+02 0.  0.
   -5000001    1    1    2    0    0 -0.13682494348E+03  0.36767790227E+02 -0.82500746485E+03  0.84061837514E+03  0.77000000000E+02 0.  0.
<mgrwt>
<rscale>  0 0.33074805E+03</rscale>
<asrwt>0</asrwt>
<pdfrwt beam="1">  1        2 0.19473483E+00 0.33074805E+03</pdfrwt>
<pdfrwt beam="2">  1       -2 0.28661233E-02 0.33074805E+03</pdfrwt>
<totfact> 0.83486700E+03</totfact>
</mgrwt>
</event>
<event>
 4    1  0.4950349E-004  0.2190629E+03  0.7818608E-02  0.1134584E+00
         -2   -1    0    0    0  501 -0.00000000000E+00  0.00000000000E+00  0.15128093573E+03  0.15128093576E+03  0.25500000000E-02 0. -1.
          2   -1    0    0  501    0  0.00000000000E+00 -0.00000000000E+00 -0.79303671091E+02  0.79303671132E+02  0.25500000000E-02 0.  1.
    5000001    1    1    2    0    0 -0.67345839454E+02 -0.36227145284E+02  0.51610564189E+02  0.12016870842E+03  0.77000000000E+02 0.  0.
   -5000001    1    1    2    0    0  0.67345839454E+02  0.36227145284E+02  0.20366700455E+02  0.11041589847E+03  0.77000000000E+02 0.  0.
<mgrwt>
<rscale>  0 0.21906285E+03</rscale>
<asrwt>0</asrwt>
<pdfrwt beam="1">  1        2 0.11329096E-01 0.21906285E+03</pdfrwt>
<pdfrwt beam="2">  1       -2 0.21611562E-01 0.21906285E+03</pdfrwt>
<totfact> 0.98260758E+03</totfact>
</mgrwt>
</event>
<event>
 4    1  0.4950349E-004  0.2334166E+03  0.7818608E-02  0.1124258E+00
         -2   -1    0    0    0  501 -0.00000000000E+00  0.00000000000E+00  0.10918934833E+02  0.10918935131E+02  0.25500000000E-02 0. -1.
          2   -1    0    0  501    0  0.00000000000E+00 -0.00000000000E+00 -0.12474506523E+04  0.12474506523E+04  0.25500000000E-02 0.  1.
    5000001    1    1    2    0    0 -0.68513198535E+02  0.25994318019E+02 -0.35848089567E+03  0.37390816453E+03  0.77000000000E+02 0.  0.
   -5000001    1    1    2    0    0  0.68513198535E+02 -0.25994318019E+02 -0.87805082177E+03  0.88446142288E+03  0.77000000000E+02 0.  0.
<mgrwt>
<rscale>  0 0.23341665E+03</rscale>
<asrwt>0</asrwt>
<pdfrwt beam="1">  1        2 0.17820715E+00 0.23341665E+03</pdfrwt>
<pdfrwt beam="2">  1       -2 0.15598486E-02 0.23341665E+03</pdfrwt>
<totfact> 0.23288772E+04</totfact>
</mgrwt>
</event>
<event>
 4    1  0.4950349E-004  0.5234041E+03  0.7818608E-02  0.1007844E+00
          2   -1    0    0  501    0  0.00000000000E+00  0.00000000000E+00  0.88924865033E+03  0.88924865034E+03  0.25500000000E-02 0.  1.
         -2   -1    0    0    0  501 -0.00000000000E+00 -0.00000000000E+00 -0.77017800572E+02  0.77017800614E+02  0.25500000000E-02 0. -1.
    5000001    1    1    2    0    0 -0.17152877439E+03  0.15846745103E+03  0.24073650730E+03  0.34411788594E+03  0.77000000000E+02 0.  0.
   -5000001    1    1    2    0    0  0.17152877439E+03 -0.15846745103E+03  0.57149434246E+03  0.62214856501E+03  0.77000000000E+02 0.  0.
<mgrwt>
<rscale>  0 0.52340415E+03</rscale>
<asrwt>0</asrwt>
<pdfrwt beam="1">  1        2 0.12703552E+00 0.52340415E+03</pdfrwt>
<pdfrwt beam="2">  1       -2 0.11002543E-01 0.52340415E+03</pdfrwt>
<totfact> 0.19427570E+03</totfact>
</mgrwt>
</event>
<event>
 4    1  0.4950349E-004  0.2469673E+03  0.7818608E-02  0.1115237E+00
         -2   -1    0    0    0  501 -0.00000000000E+00  0.00000000000E+00  0.35741458630E+03  0.35741458631E+03  0.25500000000E-02 0. -1.
          2   -1    0    0  501    0  0.00000000000E+00 -0.00000000000E+00 -0.42662549173E+02  0.42662549249E+02  0.25500000000E-02 0.  1.
    5000001    1    1    2    0    0 -0.20552897275E+02 -0.41486058836E+02  0.20150014203E+02  0.92078975540E+02  0.77000000000E+02 0.  0.
   -5000001    1    1    2    0    0  0.20552897275E+02  0.41486058836E+02  0.29460202293E+03  0.30799816002E+03  0.77000000000E+02 0.  0.
<mgrwt>
<rscale>  0 0.24696735E+03</rscale>
<asrwt>0</asrwt>
<pdfrwt beam="1">  1        2 0.60946497E-02 0.24696735E+03</pdfrwt>
<pdfrwt beam="2">  1       -2 0.51059228E-01 0.24696735E+03</pdfrwt>
<totfact> 0.44100198E+03</totfact>
</mgrwt>
</event>
<event>
 4    1  0.4950349E-004  0.1806944E+03  0.7818608E-02  0.1167133E+00
          2   -1    0    0  501    0  0.00000000000E+00  0.00000000000E+00  0.28962568261E+04  0.28962568261E+04  0.25500000000E-02 0.  1.
         -2   -1    0    0    0  501 -0.00000000000E+00 -0.00000000000E+00 -0.28183318237E+01  0.28183329773E+01  0.25500000000E-02 0. -1.
    5000001    1    1    2    0    0 -0.34042650787E+02  0.90118686056E+00  0.19724904649E+04  0.19742865416E+04  0.77000000000E+02 0.  0.
   -5000001    1    1    2    0    0  0.34042650787E+02 -0.90118686056E+00  0.92094802930E+03  0.92478861740E+03  0.77000000000E+02 0.  0.
<mgrwt>
<rscale>  0 0.18069438E+03</rscale>
<asrwt>0</asrwt>
<pdfrwt beam="1">  1        2 0.41375105E+00 0.18069438E+03</pdfrwt>
<pdfrwt beam="2">  1       -2 0.40261884E-03 0.18069438E+03</pdfrwt>
<totfact> 0.24671438E+04</totfact>
</mgrwt>
</event>
<event>
 4    1  0.4950349E-004  0.2516054E+03  0.7818608E-02  0.1112294E+00
         -2   -1    0    0    0  501 -0.00000000000E+00  0.00000000000E+00  0.51449165660E+02  0.51449165723E+02  0.25500000000E-02 0. -1.
          2   -1    0    0  501    0  0.00000000000E+00 -0.00000000000E+00 -0.30761075076E+03  0.30761075077E+03  0.25500000000E-02 0.  1.
    5000001    1    1    2    0    0  0.13429996495E+02  0.79710318710E+02 -0.21084154620E+03  0.23857337932E+03  0.77000000000E+02 0.  0.
   -5000001    1    1    2    0    0 -0.13429996495E+02 -0.79710318710E+02 -0.45320038897E+02  0.12048653717E+03  0.77000000000E+02 0.  0.
<mgrwt>
<rscale>  0 0.25160538E+03</rscale>
<asrwt>0</asrwt>
<pdfrwt beam="1">  1        2 0.43944392E-01 0.25160538E+03</pdfrwt>
<pdfrwt beam="2">  1       -2 0.73498810E-02 0.25160538E+03</pdfrwt>
<totfact> 0.12276020E+04</totfact>
</mgrwt>
</event>
<event>
 4    1  0.4950349E-004  0.2179772E+03  0.7818608E-02  0.1135400E+00
          2   -1    0    0  501    0  0.00000000000E+00  0.00000000000E+00  0.46474285036E+02  0.46474285106E+02  0.25500000000E-02 0.  1.
         -2   -1    0    0    0  501 -0.00000000000E+00 -0.00000000000E+00 -0.25559330389E+03  0.25559330390E+03  0.25500000000E-02 0. -1.
    5000001    1    1    2    0    0  0.27361814571E+02  0.71240988468E+02 -0.89030855884E+02  0.14028342965E+03  0.77000000000E+02 0.  0.
   -5000001    1    1    2    0    0 -0.27361814571E+02 -0.71240988468E+02 -0.12008816297E+03  0.16178415936E+03  0.77000000000E+02 0.  0.
<mgrwt>
<rscale>  0 0.21797721E+03</rscale>
<asrwt>0</asrwt>
<pdfrwt beam="1">  1        2 0.66391837E-02 0.21797721E+03</pdfrwt>
<pdfrwt beam="2">  1       -2 0.36513329E-01 0.21797721E+03</pdfrwt>
<totfact> 0.75034242E+03</totfact>
</mgrwt>
</event>
<event>
 4    1  0.4950349E-004  0.3497584E+03  0.7818608E-02  0.1062714E+00
         -2   -1    0    0    0  501 -0.00000000000E+00  0.00000000000E+00  0.46562780503E+02  0.46562780572E+02  0.25500000000E-02 0. -1.
          2   -1    0    0  501    0  0.00000000000E+00 -0.00000000000E+00 -0.65680658238E+03  0.65680658239E+03  0.25500000000E-02 0.  1.
    5000001    1    1    2    0    0  0.13818630485E+03  0.37956607382E+02 -0.17607833033E+03  0.23972638007E+03  0.77000000000E+02 0.  0.
   -5000001    1    1    2    0    0 -0.13818630485E+03 -0.37956607382E+02 -0.43416547155E+03  0.46364298289E+03  0.77000000000E+02 0.  0.
<mgrwt>
<rscale>  0 0.34975844E+03</rscale>
<asrwt>0</asrwt>
<pdfrwt beam="1">  1        2 0.93829506E-01 0.34975844E+03</pdfrwt>
<pdfrwt beam="2">  1       -2 0.66518262E-02 0.34975844E+03</pdfrwt>
<totfact> 0.62744630E+03</totfact>
</mgrwt>
</event>
<event>
 4    1  0.4950349E-004  0.5573494E+03  0.7818608E-02  0.9998070E-01
         -2   -1    0    0    0  501 -0.00000000000E+00  0.00000000000E+00  0.12479303795E+03  0.12479303797E+03  0.25500000000E-02 0. -1.
          2   -1    0    0  501    0  0.00000000000E+00 -0.00000000000E+00 -0.62230694909E+03  0.62230694910E+03  0.25500000000E-02 0.  1.
    5000001    1    1    2    0    0  0.52307354689E+02  0.25449764024E+03 -0.16162277329E+03  0.31552500549E+03  0.77000000000E+02 0.  0.
   -5000001    1    1    2    0    0 -0.52307354689E+02 -0.25449764024E+03 -0.33589113785E+03  0.43157498158E+03  0.77000000000E+02 0.  0.
<mgrwt>
<rscale>  0 0.55734935E+03</rscale>
<asrwt>0</asrwt>
<pdfrwt beam="1">  1        2 0.88900991E-01 0.55734935E+03</pdfrwt>
<pdfrwt beam="2">  1       -2 0.17827577E-01 0.55734935E+03</pdfrwt>
<totfact> 0.13543720E+03</totfact>
</mgrwt>
</event>
<event>
 4    1  0.4950349E-004  0.4727030E+03  0.7818608E-02  0.1021160E+00
         -2   -1    0    0    0  501 -0.00000000000E+00  0.00000000000E+00  0.36355151647E+03  0.36355151648E+03  0.25500000000E-02 0. -1.
          2   -1    0    0  501    0  0.00000000000E+00 -0.00000000000E+00 -0.15365641082E+03  0.15365641084E+03  0.25500000000E-02 0.  1.
    5000001    1    1    2    0    0  0.13563602837E+03 -0.15206170218E+03  0.45887214838E+01  0.21787599644E+03  0.77000000000E+02 0.  0.
   -5000001    1    1    2    0    0 -0.13563602837E+03  0.15206170218E+03  0.20530638417E+03  0.29933193087E+03  0.77000000000E+02 0.  0.
<mgrwt>
<rscale>  0 0.47270296E+03</rscale>
<asrwt>0</asrwt>
<pdfrwt beam="1">  1        2 0.21950916E-01 0.47270296E+03</pdfrwt>
<pdfrwt beam="2">  1       -2 0.51935931E-01 0.47270296E+03</pdfrwt>
<totfact> 0.89451493E+02</totfact>
</mgrwt>
</event>
<event>
 4    1  0.4950349E-004  0.2362996E+03  0.7818608E-02  0.1122283E+00
         -2   -1    0    0    0  501 -0.00000000000E+00  0.00000000000E+00  0.47846016254E+02  0.47846016322E+02  0.25500000000E-02 0. -1.
          2   -1    0    0  501    0  0.00000000000E+00 -0.00000000000E+00 -0.29175624863E+03  0.29175624864E+03  0.25500000000E-02 0.  1.
    5000001    1    1    2    0    0  0.60053223146E+02  0.64402506833E+02 -0.98066036994E+02  0.15264344109E+03  0.77000000000E+02 0.  0.
   -5000001    1    1    2    0    0 -0.60053223146E+02 -0.64402506833E+02 -0.14584419538E+03  0.18695882387E+03  0.77000000000E+02 0.  0.
<mgrwt>
<rscale>  0 0.23629959E+03</rscale>
<asrwt>0</asrwt>
<pdfrwt beam="1">  1        2 0.41679463E-01 0.23629959E+03</pdfrwt>
<pdfrwt beam="2">  1       -2 0.68351454E-02 0.23629959E+03</pdfrwt>
<totfact> 0.14488436E+04</totfact>
</mgrwt>
</event>
<event>
 4    1  0.4950349E-004  0.1919781E+03  0.7818608E-02  0.1156689E+00
         -2   -1    0    0    0  501 -0.00000000000E+00  0.00000000000E+00  0.28174300244E+03  0.28174300245E+03  0.25500000000E-02 0. -1.
          2   -1    0    0  501    0  0.00000000000E+00 -0.00000000000E+00 -0.32703184681E+02  0.32703184780E+02  0.25500000000E-02 0.  1.
    5000001    1    1    2    0    0  0.16914084587E+01 -0.56153404597E+02  0.10592905008E+03  0.14249922582E+03  0.77000000000E+02 0.  0.
   -5000001    1    1    2    0    0 -0.16914084587E+01  0.56153404597E+02  0.14311076768E+03  0.17194696140E+03  0.77000000000E+02 0.  0.
<mgrwt>
<rscale>  0 0.19197806E+03</rscale>
<asrwt>0</asrwt>
<pdfrwt beam="1">  1        2 0.46718840E-02 0.19197806E+03</pdfrwt>
<pdfrwt beam="2">  1       -2 0.40248996E-01 0.19197806E+03</pdfrwt>
<totfact> 0.97928131E+03</totfact>
</mgrwt>
</event>
<event>
 4    1  0.4950349E-004  0.2142737E+03  0.7818608E-02  0.1138226E+00
         -2   -1    0    0    0  501 -0.00000000000E+00  0.00000000000E+00  0.21792129726E+03  0.21792129727E+03  0.25500000000E-02 0. -1.
          2   -1    0    0  501    0  0.00000000000E+00 -0.00000000000E+00 -0.52671777690E+02  0.52671777752E+02  0.25500000000E-02 0.  1.
    5000001    1    1    2    0    0  0.26553961796E+02  0.60845294498E+02  0.39948298884E+02  0.10923428644E+03  0.77000000000E+02 0.  0.
   -5000001    1    1    2    0    0 -0.26553961796E+02 -0.60845294498E+02  0.12530122068E+03  0.16135878859E+03  0.77000000000E+02 0.  0.
<mgrwt>
<rscale>  0 0.21427368E+03</rscale>
<asrwt>0</asrwt>
<pdfrwt beam="1">  1        2 0.75245397E-02 0.21427368E+03</pdfrwt>
<pdfrwt beam="2">  1       -2 0.31131614E-01 0.21427368E+03</pdfrwt>
<totfact> 0.85709780E+03</totfact>
</mgrwt>
</event>
<event>
 4    1  0.4950349E-004  0.3169425E+03  0.7818608E-02  0.1077065E+00
         -2   -1    0    0    0  501 -0.00000000000E+00  0.00000000000E+00  0.62761763345E+03  0.62761763345E+03  0.25500000000E-02 0. -1.
          2   -1    0    0  501    0  0.00000000000E+00 -0.00000000000E+00 -0.40013422142E+02  0.40013422223E+02  0.25500000000E-02 0.  1.
    5000001    1    1    2    0    0 -0.13789455053E+03 -0.13007859993E+02  0.29352065102E+03  0.33356781029E+03  0.77000000000E+02 0.  0.
   -5000001    1    1    2    0    0  0.13789455053E+03  0.13007859993E+02  0.29408356029E+03  0.33406324539E+03  0.77000000000E+02 0.  0.
<mgrwt>
<rscale>  0 0.31694245E+03</rscale>
<asrwt>0</asrwt>
<pdfrwt beam="1">  1        2 0.57162034E-02 0.31694245E+03</pdfrwt>
<pdfrwt beam="2">  1       -2 0.89659658E-01 0.31694245E+03</pdfrwt>
<totfact> 0.14576880E+03</totfact>
</mgrwt>
</event>
<event>
 4    1  0.4950349E-004  0.1972177E+03  0.7818608E-02  0.1152108E+00
          2   -1    0    0  501    0  0.00000000000E+00  0.00000000000E+00  0.17133007402E+04  0.17133007402E+04  0.25500000000E-02 0.  1.
         -2   -1    0    0    0  501 -0.00000000000E+00 -0.00000000000E+00 -0.56754212742E+01  0.56754218471E+01  0.25500000000E-02 0. -1.
    5000001    1    1    2    0    0 -0.38993798257E+02  0.47542332390E+02  0.82129984546E+03  0.82718995752E+03  0.77000000000E+02 0.  0.
   -5000001    1    1    2    0    0  0.38993798257E+02 -0.47542332390E+02  0.88632547347E+03  0.89178620453E+03  0.77000000000E+02 0.  0.
<mgrwt>
<rscale>  0 0.19721769E+03</rscale>
<asrwt>0</asrwt>
<pdfrwt beam="1">  1        2 0.24475755E+00 0.19721769E+03</pdfrwt>
<pdfrwt beam="2">  1       -2 0.81077351E-03 0.19721769E+03</pdfrwt>
<totfact> 0.34623537E+04</totfact>
</mgrwt>
</event>
<event>
 4    1  0.4950349E-004  0.1666310E+03  0.7818608E-02  0.1181407E+00
         -2   -1    0    0    0  501 -0.00000000000E+00  0.00000000000E+00  0.12168330251E+03  0.12168330254E+03  0.25500000000E-02 0. -1.
          2   -1    0    0  501    0  0.00000000000E+00 -0.00000000000E+00 -0.57045391286E+02  0.57045391343E+02  0.25500000000E-02 0.  1.
    5000001    1    1    2    0    0 -0.21503767279E+02  0.22757337112E+02  0.26235949954E+02  0.87164404832E+02  0.77000000000E+02 0.  0.
   -5000001    1    1    2    0    0  0.21503767279E+02 -0.22757337112E+02  0.38401961272E+02  0.91564289050E+02  0.77000000000E+02 0.  0.
<mgrwt>
<rscale>  0 0.16663099E+03</rscale>
<asrwt>0</asrwt>
<pdfrwt beam="1">  1        2 0.81493417E-02 0.16663099E+03</pdfrwt>
<pdfrwt beam="2">  1       -2 0.17383329E-01 0.16663099E+03</pdfrwt>
<totfact> 0.20936108E+04</totfact>
</mgrwt>
</event>
<event>
 4    1  0.4950349E-004  0.2531159E+03  0.7818608E-02  0.1111351E+00
          2   -1    0    0  501    0  0.00000000000E+00  0.00000000000E+00  0.92909729179E+03  0.92909729179E+03  0.25500000000E-02 0. -1.
         -2   -1    0    0    0  501 -0.00000000000E+00 -0.00000000000E+00 -0.17239228662E+02  0.17239228851E+02  0.25500000000E-02 0.  1.
    5000001    1    1    2    0    0  0.35136554753E+02 -0.78000460298E+02  0.65267636588E+03  0.66274737862E+03  0.77000000000E+02 0.  0.
   -5000001    1    1    2    0    0 -0.35136554753E+02  0.78000460298E+02  0.25918169724E+03  0.28358914202E+03  0.77000000000E+02 0.  0.
<mgrwt>
<rscale>  0 0.25311595E+03</rscale>
<asrwt>0</asrwt>
<pdfrwt beam="1">  1        2 0.13272821E+00 0.25311595E+03</pdfrwt>
<pdfrwt beam="2">  1       -2 0.24627465E-02 0.25311595E+03</pdfrwt>
<totfact> 0.18124203E+04</totfact>
</mgrwt>
</event>
<event>
 4    1  0.4950349E-004  0.3783732E+03  0.7818608E-02  0.1051537E+00
         -2   -1    0    0    0  501 -0.00000000000E+00  0.00000000000E+00  0.61617889067E+02  0.61617889119E+02  0.25500000000E-02 0. -1.
          2   -1    0    0  501    0  0.00000000000E+00 -0.00000000000E+00 -0.58086342444E+03  0.58086342444E+03  0.25500000000E-02 0.  1.
    5000001    1    1    2    0    0 -0.16125056976E+03  0.61351647687E+02 -0.24291594783E+03  0.30773840942E+03  0.77000000000E+02 0.  0.
   -5000001    1    1    2    0    0  0.16125056976E+03 -0.61351647687E+02 -0.27632958754E+03  0.33474290414E+03  0.77000000000E+02 0.  0.
<mgrwt>
<rscale>  0 0.37837324E+03</rscale>
<asrwt>0</asrwt>
<pdfrwt beam="1">  1        2 0.82980486E-01 0.37837324E+03</pdfrwt>
<pdfrwt beam="2">  1       -2 0.88025559E-02 0.37837324E+03</pdfrwt>
<totfact> 0.46712200E+03</totfact>
</mgrwt>
</event>
<event>
 4    1  0.4950349E-004  0.1767210E+03  0.7818608E-02  0.1171015E+00
         -2   -1    0    0    0  501 -0.00000000000E+00  0.00000000000E+00  0.76761145920E+01  0.76761150155E+01  0.25500000000E-02 0. -1.
          2   -1    0    0  501    0  0.00000000000E+00 -0.00000000000E+00 -0.10171265160E+04  0.10171265160E+04  0.25500000000E-02 0.  1.
    5000001    1    1    2    0    0 -0.40274744809E+02  0.16011780958E+02 -0.50249646717E+03  0.51020596989E+03  0.77000000000E+02 0.  0.
   -5000001    1    1    2    0    0  0.40274744809E+02 -0.16011780958E+02 -0.50695393420E+03  0.51459666108E+03  0.77000000000E+02 0.  0.
<mgrwt>
<rscale>  0 0.17672102E+03</rscale>
<asrwt>0</asrwt>
<pdfrwt beam="1">  1        2 0.14530370E+00 0.17672102E+03</pdfrwt>
<pdfrwt beam="2">  1       -2 0.10965885E-02 0.17672102E+03</pdfrwt>
<totfact> 0.51014452E+04</totfact>
</mgrwt>
</event>
<event>
 4    1  0.4950349E-004  0.9091522E+03  0.7818608E-02  0.9414212E-01
          2   -1    0    0  501    0  0.00000000000E+00  0.00000000000E+00  0.24969876873E+04  0.24969876873E+04  0.25500000000E-02 0.  1.
         -2   -1    0    0    0  501 -0.00000000000E+00 -0.00000000000E+00 -0.82755489527E+02  0.82755489566E+02  0.25500000000E-02 0. -1.
    5000001    1    1    2    0    0 -0.26472061348E+03  0.36092523168E+03  0.11528004529E+04  0.12390407218E+04  0.77000000000E+02 0.  0.
   -5000001    1    1    2    0    0  0.26472061348E+03 -0.36092523168E+03  0.12614317449E+04  0.13407024551E+04  0.77000000000E+02 0.  0.
<mgrwt>
<rscale>  0 0.90915222E+03</rscale>
<asrwt>0</asrwt>
<pdfrwt beam="1">  1        2 0.35671244E+00 0.90915222E+03</pdfrwt>
<pdfrwt beam="2">  1       -2 0.11822216E-01 0.90915222E+03</pdfrwt>
<totfact> 0.23507265E+02</totfact>
</mgrwt>
</event>
<event>
 4    1  0.4950349E-004  0.3766279E+03  0.7818608E-02  0.1052187E+00
          2   -1    0    0  501    0  0.00000000000E+00  0.00000000000E+00  0.10377088546E+04  0.10377088546E+04  0.25500000000E-02 0.  1.
         -2   -1    0    0    0  501 -0.00000000000E+00 -0.00000000000E+00 -0.34173508942E+02  0.34173509038E+02  0.25500000000E-02 0. -1.
    5000001    1    1    2    0    0 -0.80941970262E+02  0.13161024083E+03  0.71588613092E+03  0.73640668824E+03  0.77000000000E+02 0.  0.
   -5000001    1    1    2    0    0  0.80941970262E+02 -0.13161024083E+03  0.28764921469E+03  0.33547567535E+03  0.77000000000E+02 0.  0.
<mgrwt>
<rscale>  0 0.37662795E+03</rscale>
<asrwt>0</asrwt>
<pdfrwt beam="1">  1        2 0.14824409E+00 0.37662795E+03</pdfrwt>
<pdfrwt beam="2">  1       -2 0.48819309E-02 0.37662795E+03</pdfrwt>
<totfact> 0.56511118E+03</totfact>
</mgrwt>
</event>
<event>
 4    1  0.4950349E-004  0.2087328E+03  0.7818608E-02  0.1142573E+00
         -2   -1    0    0    0  501 -0.00000000000E+00  0.00000000000E+00  0.10565129710E+02  0.10565130017E+02  0.25500000000E-02 0. -1.
          2   -1    0    0  501    0  0.00000000000E+00 -0.00000000000E+00 -0.10309712639E+04  0.10309712639E+04  0.25500000000E-02 0.  1.
    5000001    1    1    2    0    0  0.41876371618E+02  0.44940833548E+02 -0.68233595447E+03  0.68940892348E+03  0.77000000000E+02 0.  0.
   -5000001    1    1    2    0    0 -0.41876371618E+02 -0.44940833548E+02 -0.33807017977E+03  0.35212747048E+03  0.77000000000E+02 0.  0.
<mgrwt>
<rscale>  0 0.20873280E+03</rscale>
<asrwt>0</asrwt>
<pdfrwt beam="1">  1        2 0.14728155E+00 0.20873280E+03</pdfrwt>
<pdfrwt beam="2">  1       -2 0.15093049E-02 0.20873280E+03</pdfrwt>
<totfact> 0.31952670E+04</totfact>
</mgrwt>
</event>
<event>
 4    1  0.4950349E-004  0.1669043E+03  0.7818608E-02  0.1181115E+00
         -2   -1    0    0    0  501 -0.00000000000E+00  0.00000000000E+00  0.30758553177E+01  0.30758563747E+01  0.25500000000E-02 0. -1.
          2   -1    0    0  501    0  0.00000000000E+00 -0.00000000000E+00 -0.22641691915E+04  0.22641691915E+04  0.25500000000E-02 0.  1.
    5000001    1    1    2    0    0  0.27233108147E+02  0.17118656270E+02 -0.11407797090E+04  0.11438277995E+04  0.77000000000E+02 0.  0.
   -5000001    1    1    2    0    0 -0.27233108147E+02 -0.17118656270E+02 -0.11203136272E+04  0.11234172483E+04  0.77000000000E+02 0.  0.
<mgrwt>
<rscale>  0 0.16690426E+03</rscale>
<asrwt>0</asrwt>
<pdfrwt beam="1">  1        2 0.32345167E+00 0.16690426E+03</pdfrwt>
<pdfrwt beam="2">  1       -2 0.43940943E-03 0.16690426E+03</pdfrwt>
<totfact> 0.44666465E+04</totfact>
</mgrwt>
</event>
<event>
 4    1  0.4950349E-004  0.3115698E+03  0.7818608E-02  0.1079596E+00
         -2   -1    0    0    0  501 -0.00000000000E+00  0.00000000000E+00  0.15632963117E+02  0.15632963325E+02  0.25500000000E-02 0. -1.
          2   -1    0    0  501    0  0.00000000000E+00 -0.00000000000E+00 -0.15524211184E+04  0.15524211184E+04  0.25500000000E-02 0.  1.
    5000001    1    1    2    0    0 -0.10566926306E+03 -0.15676730966E+02 -0.34948913256E+03  0.37347477401E+03  0.77000000000E+02 0.  0.
   -5000001    1    1    2    0    0  0.10566926306E+03  0.15676730966E+02 -0.11872990227E+04  0.11945793077E+04  0.77000000000E+02 0.  0.
<mgrwt>
<rscale>  0 0.31156985E+03</rscale>
<asrwt>0</asrwt>
<pdfrwt beam="1">  1        2 0.22177435E+00 0.31156985E+03</pdfrwt>
<pdfrwt beam="2">  1       -2 0.22332814E-02 0.31156985E+03</pdfrwt>
<totfact> 0.96668947E+03</totfact>
</mgrwt>
</event>
<event>
 4    1  0.4950349E-004  0.3127690E+03  0.7818608E-02  0.1079026E+00
          2   -1    0    0  501    0  0.00000000000E+00  0.00000000000E+00  0.18862381209E+03  0.18862381210E+03  0.25500000000E-02 0.  1.
         -2   -1    0    0    0  501 -0.00000000000E+00 -0.00000000000E+00 -0.12965550860E+03  0.12965550863E+03  0.25500000000E-02 0. -1.
    5000001    1    1    2    0    0 -0.10027049487E+03  0.50719018408E+02  0.10765233543E+03  0.17362205013E+03  0.77000000000E+02 0.  0.
   -5000001    1    1    2    0    0  0.10027049487E+03 -0.50719018408E+02 -0.48684031945E+02  0.14465727060E+03  0.77000000000E+02 0.  0.
<mgrwt>
<rscale>  0 0.31276903E+03</rscale>
<asrwt>0</asrwt>
<pdfrwt beam="1">  1        2 0.26946259E-01 0.31276903E+03</pdfrwt>
<pdfrwt beam="2">  1       -2 0.18522216E-01 0.31276903E+03</pdfrwt>
<totfact> 0.47375494E+03</totfact>
</mgrwt>
</event>
<event>
 4    1  0.4950349E-004  0.2009763E+03  0.7818608E-02  0.1148918E+00
          2   -1    0    0  501    0  0.00000000000E+00  0.00000000000E+00  0.39149741867E+04  0.39149741867E+04  0.25500000000E-02 0.  1.
         -2   -1    0    0    0  501 -0.00000000000E+00 -0.00000000000E+00 -0.25792938671E+01  0.25792951276E+01  0.25500000000E-02 0. -1.
    5000001    1    1    2    0    0 -0.31797495288E+02  0.45132610393E+02  0.13036058545E+04  0.13070444740E+04  0.77000000000E+02 0.  0.
   -5000001    1    1    2    0    0  0.31797495288E+02 -0.45132610393E+02  0.26087890383E+04  0.26105090078E+04  0.77000000000E+02 0.  0.
<mgrwt>
<rscale>  0 0.20097633E+03</rscale>
<asrwt>0</asrwt>
<pdfrwt beam="1">  1        2 0.55928698E+00 0.20097633E+03</pdfrwt>
<pdfrwt beam="2">  1       -2 0.36846738E-03 0.20097633E+03</pdfrwt>
<totfact> 0.74351049E+03</totfact>
</mgrwt>
</event>
<event>
 4    1  0.4950349E-004  0.2771638E+03  0.7818608E-02  0.1097248E+00
         -2   -1    0    0    0  501 -0.00000000000E+00  0.00000000000E+00  0.72972336525E+01  0.72972340980E+01  0.25500000000E-02 0. -1.
          2   -1    0    0  501    0  0.00000000000E+00 -0.00000000000E+00 -0.26318115293E+04  0.26318115293E+04  0.25500000000E-02 0.  1.
    5000001    1    1    2    0    0 -0.40417746045E+02 -0.10560296962E+03 -0.11014042605E+04  0.11098675265E+04  0.77000000000E+02 0.  0.
   -5000001    1    1    2    0    0  0.40417746045E+02  0.10560296962E+03 -0.15231100352E+04  0.15292412369E+04  0.77000000000E+02 0.  0.
<mgrwt>
<rscale>  0 0.27716381E+03</rscale>
<asrwt>0</asrwt>
<pdfrwt beam="1">  1        2 0.37597247E+00 0.27716381E+03</pdfrwt>
<pdfrwt beam="2">  1       -2 0.10424637E-02 0.27716381E+03</pdfrwt>
<totfact> 0.86397623E+03</totfact>
</mgrwt>
</event>
<event>
 4    1  0.4950349E-004  0.2539621E+03  0.7818608E-02  0.1110826E+00
         -2   -1    0    0    0  501 -0.00000000000E+00  0.00000000000E+00  0.53222828112E+01  0.53222834221E+01  0.25500000000E-02 0. -1.
          2   -1    0    0  501    0  0.00000000000E+00 -0.00000000000E+00 -0.30295620967E+04  0.30295620967E+04  0.25500000000E-02 0.  1.
    5000001    1    1    2    0    0  0.72826000904E+01  0.74519051084E+02 -0.23216541049E+04  0.23241370243E+04  0.77000000000E+02 0.  0.
   -5000001    1    1    2    0    0 -0.72826000904E+01 -0.74519051084E+02 -0.70258570903E+03  0.71074735580E+03  0.77000000000E+02 0.  0.
<mgrwt>
<rscale>  0 0.25396210E+03</rscale>
<asrwt>0</asrwt>
<pdfrwt beam="1">  1        2 0.43279348E+00 0.25396210E+03</pdfrwt>
<pdfrwt beam="2">  1       -2 0.76032810E-03 0.25396210E+03</pdfrwt>
<totfact> 0.84967648E+03</totfact>
</mgrwt>
</event>
<event>
 4    1  0.4950349E-004  0.7254726E+03  0.7818608E-02  0.9674636E-01
          2   -1    0    0  501    0  0.00000000000E+00  0.00000000000E+00  0.22841491104E+04  0.22841491104E+04  0.25500000000E-02 0.  1.
         -2   -1    0    0    0  501 -0.00000000000E+00 -0.00000000000E+00 -0.57604660528E+02  0.57604660584E+02  0.25500000000E-02 0. -1.
    5000001    1    1    2    0    0 -0.12355322824E+03  0.24379184187E+03  0.18418686827E+04  0.18636279421E+04  0.77000000000E+02 0.  0.
   -5000001    1    1    2    0    0  0.12355322824E+03 -0.24379184187E+03  0.38467576719E+03  0.47812582887E+03  0.77000000000E+02 0.  0.
<mgrwt>
<rscale>  0 0.72547263E+03</rscale>
<asrwt>0</asrwt>
<pdfrwt beam="1">  1        2 0.32630695E+00 0.72547263E+03</pdfrwt>
<pdfrwt beam="2">  1       -2 0.82292389E-02 0.72547263E+03</pdfrwt>
<totfact> 0.55322769E+02</totfact>
</mgrwt>
</event>
<event>
 4    1  0.4950349E-004  0.3060190E+03  0.7818608E-02  0.1082270E+00
          2   -1    0    0  501    0  0.00000000000E+00  0.00000000000E+00  0.88502301561E+03  0.88502301561E+03  0.25500000000E-02 0.  1.
         -2   -1    0    0    0  501 -0.00000000000E+00 -0.00000000000E+00 -0.26453451697E+02  0.26453451820E+02  0.25500000000E-02 0. -1.
    5000001    1    1    2    0    0 -0.75576710969E+02  0.36780448875E+02  0.12526987823E+03  0.16936995912E+03  0.77000000000E+02 0.  0.
   -5000001    1    1    2    0    0  0.75576710969E+02 -0.36780448875E+02  0.73329968568E+03  0.74210650831E+03  0.77000000000E+02 0.  0.
<mgrwt>
<rscale>  0 0.30601904E+03</rscale>
<asrwt>0</asrwt>
<pdfrwt beam="1">  1        2 0.12643188E+00 0.30601904E+03</pdfrwt>
<pdfrwt beam="2">  1       -2 0.37790640E-02 0.30601904E+03</pdfrwt>
<totfact> 0.10275650E+04</totfact>
</mgrwt>
</event>
<event>
 4    1  0.4950349E-004  0.1785454E+03  0.7818608E-02  0.1169218E+00
          2   -1    0    0  501    0  0.00000000000E+00  0.00000000000E+00  0.13601053363E+04  0.13601053363E+04  0.25500000000E-02 0.  1.
         -2   -1    0    0    0  501 -0.00000000000E+00 -0.00000000000E+00 -0.58595589138E+01  0.58595594686E+01  0.25500000000E-02 0. -1.
    5000001    1    1    2    0    0 -0.40944775033E+02  0.18379587180E+02  0.63786306099E+03  0.64405944478E+03  0.77000000000E+02 0.  0.
   -5000001    1    1    2    0    0  0.40944775033E+02 -0.18379587180E+02  0.71638271638E+03  0.72190545098E+03  0.77000000000E+02 0.  0.
<mgrwt>
<rscale>  0 0.17854543E+03</rscale>
<asrwt>0</asrwt>
<pdfrwt beam="1">  1        2 0.19430077E+00 0.17854543E+03</pdfrwt>
<pdfrwt beam="2">  1       -2 0.83707986E-03 0.17854543E+03</pdfrwt>
<totfact> 0.49184733E+04</totfact>
</mgrwt>
</event>
<event>
 4    1  0.4950349E-004  0.3099676E+03  0.7818608E-02  0.1080361E+00
         -2   -1    0    0    0  501 -0.00000000000E+00  0.00000000000E+00  0.27458171294E+02  0.27458171412E+02  0.25500000000E-02 0. -1.
          2   -1    0    0  501    0  0.00000000000E+00 -0.00000000000E+00 -0.87478456032E+03  0.87478456032E+03  0.25500000000E-02 0.  1.
    5000001    1    1    2    0    0 -0.10397914918E+03  0.65548017585E+02 -0.58263405413E+03  0.60041622822E+03  0.77000000000E+02 0.  0.
   -5000001    1    1    2    0    0  0.10397914918E+03 -0.65548017585E+02 -0.26469233489E+03  0.30182650352E+03  0.77000000000E+02 0.  0.
<mgrwt>
<rscale>  0 0.30996764E+03</rscale>
<asrwt>0</asrwt>
<pdfrwt beam="1">  1        2 0.12496921E+00 0.30996764E+03</pdfrwt>
<pdfrwt beam="2">  1       -2 0.39225964E-02 0.30996764E+03</pdfrwt>
<totfact> 0.98653326E+03</totfact>
</mgrwt>
</event>
<event>
 4    1  0.4950349E-004  0.4306209E+03  0.7818608E-02  0.1033664E+00
          2   -1    0    0  501    0  0.00000000000E+00  0.00000000000E+00  0.19879002710E+03  0.19879002712E+03  0.25500000000E-02 0.  1.
         -2   -1    0    0    0  501 -0.00000000000E+00 -0.00000000000E+00 -0.23320381054E+03  0.23320381056E+03  0.25500000000E-02 0. -1.
    5000001    1    1    2    0    0  0.18602689813E+03 -0.19917722638E+02  0.56695266276E+02  0.21010967546E+03  0.77000000000E+02 0.  0.
   -5000001    1    1    2    0    0 -0.18602689813E+03  0.19917722638E+02 -0.91109049717E+02  0.22188416222E+03  0.77000000000E+02 0.  0.
<mgrwt>
<rscale>  0 0.43062091E+03</rscale>
<asrwt>0</asrwt>
<pdfrwt beam="1">  1        2 0.28398575E-01 0.43062091E+03</pdfrwt>
<pdfrwt beam="2">  1       -2 0.33314830E-01 0.43062091E+03</pdfrwt>
<totfact> 0.15838184E+03</totfact>
</mgrwt>
</event>
<event>
 4    1  0.4950349E-004  0.2865668E+03  0.7818608E-02  0.1092155E+00
          2   -1    0    0  501    0  0.00000000000E+00  0.00000000000E+00  0.22191442284E+03  0.22191442286E+03  0.25500000000E-02 0.  1.
         -2   -1    0    0    0  501 -0.00000000000E+00 -0.00000000000E+00 -0.92513757887E+02  0.92513757922E+02  0.25500000000E-02 0. -1.
    5000001    1    1    2    0    0 -0.65017866516E+02 -0.10118139610E+03  0.77502612271E+02  0.16248277691E+03  0.77000000000E+02 0.  0.
   -5000001    1    1    2    0    0  0.65017866516E+02  0.10118139610E+03  0.51898052685E+02  0.15194540387E+03  0.77000000000E+02 0.  0.
<mgrwt>
<rscale>  0 0.28656683E+03</rscale>
<asrwt>0</asrwt>
<pdfrwt beam="1">  1        2 0.31702060E-01 0.28656683E+03</pdfrwt>
<pdfrwt beam="2">  1       -2 0.13216251E-01 0.28656683E+03</pdfrwt>
<totfact> 0.69232456E+03</totfact>
</mgrwt>
</event>
<event>
 4    1  0.4950349E-004  0.1773118E+03  0.7818608E-02  0.1170430E+00
         -2   -1    0    0    0  501 -0.00000000000E+00  0.00000000000E+00  0.34742169777E+01  0.34742179135E+01  0.25500000000E-02 0. -1.
          2   -1    0    0  501    0  0.00000000000E+00 -0.00000000000E+00 -0.22623433636E+04  0.22623433636E+04  0.25500000000E-02 0.  1.
    5000001    1    1    2    0    0  0.61813782779E+01 -0.40748794158E+02 -0.93471147323E+03  0.93878283530E+03  0.77000000000E+02 0.  0.
   -5000001    1    1    2    0    0 -0.61813782779E+01  0.40748794158E+02 -0.13241576734E+04  0.13270347463E+04  0.77000000000E+02 0.  0.
<mgrwt>
<rscale>  0 0.17731185E+03</rscale>
<asrwt>0</asrwt>
<pdfrwt beam="1">  1        2 0.32319097E+00 0.17731185E+03</pdfrwt>
<pdfrwt beam="2">  1       -2 0.49631823E-03 0.17731185E+03</pdfrwt>
<totfact> 0.37769784E+04</totfact>
</mgrwt>
</event>
<event>
 4    1  0.4950349E-004  0.2908200E+03  0.7818608E-02  0.1089922E+00
         -2   -1    0    0    0  501 -0.00000000000E+00  0.00000000000E+00  0.21633840749E+04  0.21633840749E+04  0.25500000000E-02 0. -1.
          2   -1    0    0  501    0  0.00000000000E+00 -0.00000000000E+00 -0.97736098126E+01  0.97736101453E+01  0.25500000000E-02 0.  1.
    5000001    1    1    2    0    0  0.56238871845E+02 -0.88381753366E+02  0.15634335016E+04  0.15688299649E+04  0.77000000000E+02 0.  0.
   -5000001    1    1    2    0    0 -0.56238871845E+02  0.88381753366E+02  0.59017696355E+03  0.60432772015E+03  0.77000000000E+02 0.  0.
<mgrwt>
<rscale>  0 0.29082003E+03</rscale>
<asrwt>0</asrwt>
<pdfrwt beam="1">  1        2 0.13962277E-02 0.29082003E+03</pdfrwt>
<pdfrwt beam="2">  1       -2 0.30905537E+00 0.29082003E+03</pdfrwt>
<totfact> 0.29266001E+02</totfact>
</mgrwt>
</event>
<event>
 4    1  0.4950349E-004  0.2955478E+03  0.7818608E-02  0.1087488E+00
          2   -1    0    0  501    0  0.00000000000E+00  0.00000000000E+00  0.31827474902E+04  0.31827474902E+04  0.25500000000E-02 0.  1.
         -2   -1    0    0    0  501 -0.00000000000E+00 -0.00000000000E+00 -0.68610913968E+01  0.68610918707E+01  0.25500000000E-02 0. -1.
    5000001    1    1    2    0    0  0.87914803756E+02 -0.76868539572E+02  0.10737162122E+04  0.10827895869E+04  0.77000000000E+02 0.  0.
   -5000001    1    1    2    0    0 -0.87914803756E+02  0.76868539572E+02  0.21021701866E+04  0.21068189952E+04  0.77000000000E+02 0.  0.
<mgrwt>
<rscale>  0 0.29554778E+03</rscale>
<asrwt>0</asrwt>
<pdfrwt beam="1">  1        2 0.45467842E+00 0.29554778E+03</pdfrwt>
<pdfrwt beam="2">  1       -2 0.98015550E-03 0.29554778E+03</pdfrwt>
<totfact> 0.48544895E+03</totfact>
</mgrwt>
</event>
<event>
 4    1  0.4950349E-004  0.2507031E+03  0.7818608E-02  0.1112861E+00
          2   -1    0    0  501    0  0.00000000000E+00  0.00000000000E+00  0.30132277379E+02  0.30132277487E+02  0.25500000000E-02 0.  1.
         -2   -1    0    0    0  501 -0.00000000000E+00 -0.00000000000E+00 -0.52146770489E+03  0.52146770490E+03  0.25500000000E-02 0. -1.
    5000001    1    1    2    0    0  0.83595374766E+02  0.35248305027E+02 -0.33238454446E+03  0.35304265335E+03  0.77000000000E+02 0.  0.
   -5000001    1    1    2    0    0 -0.83595374766E+02 -0.35248305027E+02 -0.15895088305E+03  0.19855732903E+03  0.77000000000E+02 0.  0.
<mgrwt>
<rscale>  0 0.25070309E+03</rscale>
<asrwt>0</asrwt>
<pdfrwt beam="1">  1        2 0.43046114E-02 0.25070309E+03</pdfrwt>
<pdfrwt beam="2">  1       -2 0.74495381E-01 0.25070309E+03</pdfrwt>
<totfact> 0.31772417E+03</totfact>
</mgrwt>
</event>
<event>
 4    1  0.4950349E-004  0.4529871E+03  0.7818608E-02  0.1026835E+00
          2   -1    0    0  501    0  0.00000000000E+00  0.00000000000E+00  0.23787089882E+04  0.23787089882E+04  0.25500000000E-02 0.  1.
         -2   -1    0    0    0  501 -0.00000000000E+00 -0.00000000000E+00 -0.21566036361E+02  0.21566036512E+02  0.25500000000E-02 0. -1.
    5000001    1    1    2    0    0  0.11965418142E+03  0.10784795501E+03  0.19170236730E+04  0.19253199909E+04  0.77000000000E+02 0.  0.
   -5000001    1    1    2    0    0 -0.11965418142E+03 -0.10784795501E+03  0.44011927881E+03  0.47495503378E+03  0.77000000000E+02 0.  0.
<mgrwt>
<rscale>  0 0.45298708E+03</rscale>
<asrwt>0</asrwt>
<pdfrwt beam="1">  1        2 0.33981584E+00 0.45298708E+03</pdfrwt>
<pdfrwt beam="2">  1       -2 0.30808599E-02 0.45298708E+03</pdfrwt>
<totfact> 0.23185258E+03</totfact>
</mgrwt>
</event>
<event>
 4    1  0.4950349E-004  0.2243179E+03  0.7818608E-02  0.1130704E+00
          2   -1    0    0  501    0  0.00000000000E+00  0.00000000000E+00  0.12476361835E+04  0.12476361835E+04  0.25500000000E-02 0.  1.
         -2   -1    0    0    0  501 -0.00000000000E+00 -0.00000000000E+00 -0.10082767614E+02  0.10082767937E+02  0.25500000000E-02 0. -1.
    5000001    1    1    2    0    0 -0.15155908624E+02  0.78576713931E+02  0.53072500871E+03  0.54221954632E+03  0.77000000000E+02 0.  0.
   -5000001    1    1    2    0    0  0.15155908624E+02 -0.78576713931E+02  0.70682840713E+03  0.71549940507E+03  0.77000000000E+02 0.  0.
<mgrwt>
<rscale>  0 0.22431786E+03</rscale>
<asrwt>0</asrwt>
<pdfrwt beam="1">  1        2 0.17823351E+00 0.22431786E+03</pdfrwt>
<pdfrwt beam="2">  1       -2 0.14403972E-02 0.22431786E+03</pdfrwt>
<totfact> 0.26092724E+04</totfact>
</mgrwt>
</event>
<event>
 4    1  0.4950349E-004  0.2051793E+03  0.7818608E-02  0.1145441E+00
         -2   -1    0    0    0  501 -0.00000000000E+00  0.00000000000E+00  0.31674818574E+01  0.31674828839E+01  0.25500000000E-02 0. -1.
          2   -1    0    0  501    0  0.00000000000E+00 -0.00000000000E+00 -0.33227148835E+04  0.33227148835E+04  0.25500000000E-02 0.  1.
    5000001    1    1    2    0    0 -0.63966273744E+02 -0.26569349539E+01 -0.12984415695E+04  0.13022972981E+04  0.77000000000E+02 0.  0.
   -5000001    1    1    2    0    0  0.63966273744E+02  0.26569349539E+01 -0.20211058322E+04  0.20235850682E+04  0.77000000000E+02 0.  0.
<mgrwt>
<rscale>  0 0.20517934E+03</rscale>
<asrwt>0</asrwt>
<pdfrwt beam="1">  1        2 0.47467132E+00 0.20517934E+03</pdfrwt>
<pdfrwt beam="2">  1       -2 0.45249961E-03 0.20517934E+03</pdfrwt>
<totfact> 0.12405222E+04</totfact>
</mgrwt>
</event>
<event>
 4    1  0.4950349E-004  0.1905177E+03  0.7818608E-02  0.1157995E+00
          2   -1    0    0  501    0  0.00000000000E+00  0.00000000000E+00  0.18617360388E+04  0.18617360388E+04  0.25500000000E-02 0.  1.
         -2   -1    0    0    0  501 -0.00000000000E+00 -0.00000000000E+00 -0.48740773286E+01  0.48740779957E+01  0.25500000000E-02 0. -1.
    5000001    1    1    2    0    0  0.12610994512E+02  0.52253355142E+02  0.77173242449E+03  0.77742484223E+03  0.77000000000E+02 0.  0.
   -5000001    1    1    2    0    0 -0.12610994512E+02 -0.52253355142E+02  0.10851295369E+04  0.10891852745E+04  0.77000000000E+02 0.  0.
<mgrwt>
<rscale>  0 0.19051767E+03</rscale>
<asrwt>0</asrwt>
<pdfrwt beam="1">  1        2 0.26596290E+00 0.19051767E+03</pdfrwt>
<pdfrwt beam="2">  1       -2 0.69629522E-03 0.19051767E+03</pdfrwt>
<totfact> 0.36434670E+04</totfact>
</mgrwt>
</event>
<event>
 4    1  0.4950349E-004  0.3866579E+03  0.7818608E-02  0.1048500E+00
          2   -1    0    0  501    0  0.00000000000E+00  0.00000000000E+00  0.37180142228E+04  0.37180142228E+04  0.25500000000E-02 0.  1.
         -2   -1    0    0    0  501 -0.00000000000E+00 -0.00000000000E+00 -0.10052700684E+02  0.10052701008E+02  0.25500000000E-02 0. -1.
    5000001    1    1    2    0    0 -0.32725853249E+02  0.16381188707E+03  0.12801723471E+04  0.12933195870E+04  0.77000000000E+02 0.  0.
   -5000001    1    1    2    0    0  0.32725853249E+02 -0.16381188707E+03  0.24277891750E+04  0.24347473368E+04  0.77000000000E+02 0.  0.
<mgrwt>
<rscale>  0 0.38665791E+03</rscale>
<asrwt>0</asrwt>
<pdfrwt beam="1">  1        2 0.53114599E+00 0.38665791E+03</pdfrwt>
<pdfrwt beam="2">  1       -2 0.14360971E-02 0.38665791E+03</pdfrwt>
<totfact> 0.13465742E+03</totfact>
</mgrwt>
</event>
<event>
 4    1  0.4950349E-004  0.1694652E+03  0.7818608E-02  0.1178407E+00
          2   -1    0    0  501    0  0.00000000000E+00  0.00000000000E+00  0.96650712584E+02  0.96650712618E+02  0.25500000000E-02 0.  1.
         -2   -1    0    0    0  501 -0.00000000000E+00 -0.00000000000E+00 -0.74284160022E+02  0.74284160066E+02  0.25500000000E-02 0. -1.
    5000001    1    1    2    0    0  0.28319285358E+02  0.19104690284E+01 -0.10094332404E+02  0.82683295542E+02  0.77000000000E+02 0.  0.
   -5000001    1    1    2    0    0 -0.28319285358E+02 -0.19104690284E+01  0.32460884966E+02  0.88251577141E+02  0.77000000000E+02 0.  0.
<mgrwt>
<rscale>  0 0.16946524E+03</rscale>
<asrwt>0</asrwt>
<pdfrwt beam="1">  1        2 0.13807245E-01 0.16946524E+03</pdfrwt>
<pdfrwt beam="2">  1       -2 0.10612023E-01 0.16946524E+03</pdfrwt>
<totfact> 0.24512523E+04</totfact>
</mgrwt>
</event>
<event>
 4    1  0.4950349E-004  0.2255262E+03  0.7818608E-02  0.1129829E+00
         -2   -1    0    0    0  501 -0.00000000000E+00  0.00000000000E+00  0.70196607446E+02  0.70196607492E+02  0.25500000000E-02 0. -1.
          2   -1    0    0  501    0  0.00000000000E+00 -0.00000000000E+00 -0.18114145877E+03  0.18114145878E+03  0.25500000000E-02 0.  1.
    5000001    1    1    2    0    0 -0.36362868804E+01  0.82174162771E+02 -0.50401942935E+02  0.12343083675E+03  0.77000000000E+02 0.  0.
   -5000001    1    1    2    0    0  0.36362868804E+01 -0.82174162771E+02 -0.60542908386E+02  0.12790722953E+03  0.77000000000E+02 0.  0.
<mgrwt>
<rscale>  0 0.22552619E+03</rscale>
<asrwt>0</asrwt>
<pdfrwt beam="1">  1        2 0.25877351E-01 0.22552619E+03</pdfrwt>
<pdfrwt beam="2">  1       -2 0.10028087E-01 0.22552619E+03</pdfrwt>
<totfact> 0.13334513E+04</totfact>
</mgrwt>
</event>
<event>
 4    1  0.4950349E-004  0.3122583E+03  0.7818608E-02  0.1079268E+00
         -2   -1    0    0    0  501 -0.00000000000E+00  0.00000000000E+00  0.96668514406E+02  0.96668514440E+02  0.25500000000E-02 0. -1.
          2   -1    0    0  501    0  0.00000000000E+00 -0.00000000000E+00 -0.25216390227E+03  0.25216390229E+03  0.25500000000E-02 0.  1.
    5000001    1    1    2    0    0  0.72526597351E+02 -0.78998817257E+02  0.15359325136E+02  0.13291286364E+03  0.77000000000E+02 0.  0.
   -5000001    1    1    2    0    0 -0.72526597351E+02  0.78998817257E+02 -0.17085471300E+03  0.21591955309E+03  0.77000000000E+02 0.  0.
<mgrwt>
<rscale>  0 0.31225829E+03</rscale>
<asrwt>0</asrwt>
<pdfrwt beam="1">  1        2 0.36023414E-01 0.31225829E+03</pdfrwt>
<pdfrwt beam="2">  1       -2 0.13809788E-01 0.31225829E+03</pdfrwt>
<totfact> 0.56205500E+03</totfact>
</mgrwt>
</event>
<event>
 4    1  0.4950349E-004  0.4461983E+03  0.7818608E-02  0.1028862E+00
          2   -1    0    0  501    0  0.00000000000E+00  0.00000000000E+00  0.10125082242E+04  0.10125082242E+04  0.25500000000E-02 0.  1.
         -2   -1    0    0    0  501 -0.00000000000E+00 -0.00000000000E+00 -0.49158349954E+02  0.49158350020E+02  0.25500000000E-02 0. -1.
    5000001    1    1    2    0    0  0.13001078707E+03  0.51645358548E+02  0.11096642670E+03  0.19445461082E+03  0.77000000000E+02 0.  0.
   -5000001    1    1    2    0    0 -0.13001078707E+03 -0.51645358548E+02  0.85238344759E+03  0.86721196345E+03  0.77000000000E+02 0.  0.
<mgrwt>
<rscale>  0 0.44619831E+03</rscale>
<asrwt>0</asrwt>
<pdfrwt beam="1">  1        2 0.14464402E+00 0.44619831E+03</pdfrwt>
<pdfrwt beam="2">  1       -2 0.70226219E-02 0.44619831E+03</pdfrwt>
<totfact> 0.33356801E+03</totfact>
</mgrwt>
</event>
<event>
 4    1  0.4950349E-004  0.3854591E+03  0.7818608E-02  0.1048934E+00
         -2   -1    0    0    0  501 -0.00000000000E+00  0.00000000000E+00  0.20711360709E+02  0.20711360866E+02  0.25500000000E-02 0. -1.
          2   -1    0    0  501    0  0.00000000000E+00 -0.00000000000E+00 -0.17934451020E+04  0.17934451020E+04  0.25500000000E-02 0.  1.
    5000001    1    1    2    0    0  0.47617501642E+02  0.14409003020E+03 -0.13122014089E+04  0.13231896693E+04  0.77000000000E+02 0.  0.
   -5000001    1    1    2    0    0 -0.47617501642E+02 -0.14409003020E+03 -0.46053233237E+03  0.49096679360E+03  0.77000000000E+02 0.  0.
<mgrwt>
<rscale>  0 0.38545915E+03</rscale>
<asrwt>0</asrwt>
<pdfrwt beam="1">  1        2 0.25620634E+00 0.38545915E+03</pdfrwt>
<pdfrwt beam="2">  1       -2 0.29587670E-02 0.38545915E+03</pdfrwt>
<totfact> 0.48256443E+03</totfact>
</mgrwt>
</event>
<event>
 4    1  0.4950349E-004  0.2928450E+03  0.7818608E-02  0.1088873E+00
         -2   -1    0    0    0  501 -0.00000000000E+00  0.00000000000E+00  0.41882279482E+02  0.41882279560E+02  0.25500000000E-02 0. -1.
          2   -1    0    0  501    0  0.00000000000E+00 -0.00000000000E+00 -0.51190035849E+03  0.51190035850E+03  0.25500000000E-02 0.  1.
    5000001    1    1    2    0    0  0.10516973391E+03 -0.54789277355E+02 -0.30696854285E+03  0.33796630623E+03  0.77000000000E+02 0.  0.
   -5000001    1    1    2    0    0 -0.10516973391E+03  0.54789277355E+02 -0.16304953616E+03  0.21581633183E+03  0.77000000000E+02 0.  0.
<mgrwt>
<rscale>  0 0.29284504E+03</rscale>
<asrwt>0</asrwt>
<pdfrwt beam="1">  1        2 0.73128619E-01 0.29284504E+03</pdfrwt>
<pdfrwt beam="2">  1       -2 0.59831831E-02 0.29284504E+03</pdfrwt>
<totfact> 0.97696858E+03</totfact>
</mgrwt>
</event>
<event>
 4    1  0.4950349E-004  0.5666834E+03  0.7818608E-02  0.9977045E-01
          2   -1    0    0  501    0  0.00000000000E+00  0.00000000000E+00  0.24591365364E+03  0.24591365365E+03  0.25500000000E-02 0.  1.
         -2   -1    0    0    0  501 -0.00000000000E+00 -0.00000000000E+00 -0.32646634336E+03  0.32646634337E+03  0.25500000000E-02 0. -1.
    5000001    1    1    2    0    0 -0.17334971643E+03 -0.10436035840E+02 -0.25261448927E+03  0.31607295869E+03  0.77000000000E+02 0.  0.
   -5000001    1    1    2    0    0  0.17334971643E+03  0.10436035840E+02  0.17206179955E+03  0.25630703832E+03  0.77000000000E+02 0.  0.
<mgrwt>
<rscale>  0 0.56668344E+03</rscale>
<asrwt>0</asrwt>
<pdfrwt beam="1">  1        2 0.35130522E-01 0.56668344E+03</pdfrwt>
<pdfrwt beam="2">  1       -2 0.46638049E-01 0.56668344E+03</pdfrwt>
<totfact> 0.65322744E+02</totfact>
</mgrwt>
</event>
<event>
 4    1  0.4950349E-004  0.2358163E+03  0.7818608E-02  0.1122612E+00
         -2   -1    0    0    0  501 -0.00000000000E+00  0.00000000000E+00  0.94089563242E+02  0.94089563277E+02  0.25500000000E-02 0. -1.
          2   -1    0    0  501    0  0.00000000000E+00 -0.00000000000E+00 -0.14775641916E+03  0.14775641918E+03  0.25500000000E-02 0.  1.
    5000001    1    1    2    0    0  0.28124393270E+02  0.79021668562E+02  0.45753112233E+01  0.11395323195E+03  0.77000000000E+02 0.  0.
   -5000001    1    1    2    0    0 -0.28124393270E+02 -0.79021668562E+02 -0.58242167141E+02  0.12789275051E+03  0.77000000000E+02 0.  0.
<mgrwt>
<rscale>  0 0.23581634E+03</rscale>
<asrwt>0</asrwt>
<pdfrwt beam="1">  1        2 0.21108060E-01 0.23581634E+03</pdfrwt>
<pdfrwt beam="2">  1       -2 0.13441366E-01 0.23581634E+03</pdfrwt>
<totfact> 0.10496929E+04</totfact>
</mgrwt>
</event>
<event>
 4    1  0.4950349E-004  0.1673787E+03  0.7818608E-02  0.1180609E+00
          2   -1    0    0  501    0  0.00000000000E+00  0.00000000000E+00  0.12355539295E+04  0.12355539295E+04  0.25500000000E-02 0.  1.
         -2   -1    0    0    0  501 -0.00000000000E+00 -0.00000000000E+00 -0.56686346133E+01  0.56686351869E+01  0.25500000000E-02 0. -1.
    5000001    1    1    2    0    0 -0.11086211214E+02 -0.29396683431E+02  0.68444243932E+03  0.68947626632E+03  0.77000000000E+02 0.  0.
   -5000001    1    1    2    0    0  0.11086211214E+02  0.29396683431E+02  0.54544285555E+03  0.55174629835E+03  0.77000000000E+02 0.  0.
<mgrwt>
<rscale>  0 0.16737866E+03</rscale>
<asrwt>0</asrwt>
<pdfrwt beam="1">  1        2 0.17650771E+00 0.16737866E+03</pdfrwt>
<pdfrwt beam="2">  1       -2 0.80980495E-03 0.16737866E+03</pdfrwt>
<totfact> 0.59525731E+04</totfact>
</mgrwt>
</event>
<event>
 4    1  0.4950349E-004  0.2324268E+03  0.7818608E-02  0.1124943E+00
          2   -1    0    0  501    0  0.00000000000E+00  0.00000000000E+00  0.94957010246E+03  0.94957010247E+03  0.25500000000E-02 0.  1.
         -2   -1    0    0    0  501 -0.00000000000E+00 -0.00000000000E+00 -0.14222808970E+02  0.14222809198E+02  0.25500000000E-02 0. -1.
    5000001    1    1    2    0    0  0.17192140331E+02 -0.68900918249E+02  0.67639682052E+03  0.68445932314E+03  0.77000000000E+02 0.  0.
   -5000001    1    1    2    0    0 -0.17192140331E+02  0.68900918249E+02  0.25895047297E+03  0.27933358852E+03  0.77000000000E+02 0.  0.
<mgrwt>
<rscale>  0 0.23242680E+03</rscale>
<asrwt>0</asrwt>
<pdfrwt beam="1">  1        2 0.13565288E+00 0.23242680E+03</pdfrwt>
<pdfrwt beam="2">  1       -2 0.20318297E-02 0.23242680E+03</pdfrwt>
<totfact> 0.23272650E+04</totfact>
</mgrwt>
</event>
<event>
 4    1  0.4950349E-004  0.1948891E+03  0.7818608E-02  0.1154124E+00
          2   -1    0    0  501    0  0.00000000000E+00  0.00000000000E+00  0.63829626344E+03  0.63829626345E+03  0.25500000000E-02 0.  1.
         -2   -1    0    0    0  501 -0.00000000000E+00 -0.00000000000E+00 -0.14876221446E+02  0.14876221664E+02  0.25500000000E-02 0. -1.
    5000001    1    1    2    0    0  0.26268325068E+02  0.50130947207E+02  0.37559121650E+03  0.38755760692E+03  0.77000000000E+02 0.  0.
   -5000001    1    1    2    0    0 -0.26268325068E+02 -0.50130947207E+02  0.24782882550E+03  0.26561487819E+03  0.77000000000E+02 0.  0.
<mgrwt>
<rscale>  0 0.19488906E+03</rscale>
<asrwt>0</asrwt>
<pdfrwt beam="1">  1        2 0.91185201E-01 0.19488906E+03</pdfrwt>
<pdfrwt beam="2">  1       -2 0.21251740E-02 0.19488906E+03</pdfrwt>
<totfact> 0.34988563E+04</totfact>
</mgrwt>
</event>
<event>
 4    1  0.4950349E-004  0.2074137E+03  0.7818608E-02  0.1143631E+00
         -2   -1    0    0    0  501 -0.00000000000E+00  0.00000000000E+00  0.56947562356E+01  0.56947568066E+01  0.25500000000E-02 0. -1.
          2   -1    0    0  501    0  0.00000000000E+00 -0.00000000000E+00 -0.18885988718E+04  0.18885988718E+04  0.25500000000E-02 0.  1.
    5000001    1    1    2    0    0 -0.58843993438E+02  0.35843195060E+02 -0.86039996647E+03  0.86658205179E+03  0.77000000000E+02 0.  0.
   -5000001    1    1    2    0    0  0.58843993438E+02 -0.35843195060E+02 -0.10225041491E+04  0.10277115768E+04  0.77000000000E+02 0.  0.
<mgrwt>
<rscale>  0 0.20741370E+03</rscale>
<asrwt>0</asrwt>
<pdfrwt beam="1">  1        2 0.26979944E+00 0.20741370E+03</pdfrwt>
<pdfrwt beam="2">  1       -2 0.81353786E-03 0.20741370E+03</pdfrwt>
<totfact> 0.28412362E+04</totfact>
</mgrwt>
</event>
<event>
 4    1  0.4950349E-004  0.2215293E+03  0.7818608E-02  0.1132748E+00
         -2   -1    0    0    0  501 -0.00000000000E+00  0.00000000000E+00  0.12845863132E+02  0.12845863385E+02  0.25500000000E-02 0. -1.
          2   -1    0    0  501    0  0.00000000000E+00 -0.00000000000E+00 -0.95507873318E+03  0.95507873318E+03  0.25500000000E-02 0.  1.
    5000001    1    1    2    0    0 -0.17735068106E+02  0.71576331969E+02 -0.33988457293E+03  0.35621373760E+03  0.77000000000E+02 0.  0.
   -5000001    1    1    2    0    0  0.17735068106E+02 -0.71576331969E+02 -0.60234829711E+03  0.61171085897E+03  0.77000000000E+02 0.  0.
<mgrwt>
<rscale>  0 0.22152933E+03</rscale>
<asrwt>0</asrwt>
<pdfrwt beam="1">  1        2 0.13643977E+00 0.22152933E+03</pdfrwt>
<pdfrwt beam="2">  1       -2 0.18351239E-02 0.22152933E+03</pdfrwt>
<totfact> 0.26732191E+04</totfact>
</mgrwt>
</event>
<event>
 4    1  0.4950349E-004  0.1896177E+03  0.7818608E-02  0.1158807E+00
          2   -1    0    0  501    0  0.00000000000E+00  0.00000000000E+00  0.31660159051E+02  0.31660159154E+02  0.25500000000E-02 0.  1.
         -2   -1    0    0    0  501 -0.00000000000E+00 -0.00000000000E+00 -0.28391248048E+03  0.28391248049E+03  0.25500000000E-02 0. -1.
    5000001    1    1    2    0    0 -0.43320006834E+02  0.32569039441E+02 -0.10771756149E+03  0.14307144501E+03  0.77000000000E+02 0.  0.
   -5000001    1    1    2    0    0  0.43320006834E+02 -0.32569039441E+02 -0.14453475994E+03  0.17250119464E+03  0.77000000000E+02 0.  0.
<mgrwt>
<rscale>  0 0.18961766E+03</rscale>
<asrwt>0</asrwt>
<pdfrwt beam="1">  1        2 0.45228800E-02 0.18961766E+03</pdfrwt>
<pdfrwt beam="2">  1       -2 0.40558924E-01 0.18961766E+03</pdfrwt>
<totfact> 0.10063613E+04</totfact>
</mgrwt>
</event>
<event>
 4    1  0.4950349E-004  0.5565915E+03  0.7818608E-02  0.9999797E-01
          2   -1    0    0  501    0  0.00000000000E+00  0.00000000000E+00  0.33543997251E+03  0.33543997251E+03  0.25500000000E-02 0.  1.
         -2   -1    0    0    0  501 -0.00000000000E+00 -0.00000000000E+00 -0.23088638907E+03  0.23088638908E+03  0.25500000000E-02 0. -1.
    5000001    1    1    2    0    0  0.73421871309E+02 -0.25606497256E+03  0.76343878280E+02  0.28760637877E+03  0.77000000000E+02 0.  0.
   -5000001    1    1    2    0    0 -0.73421871309E+02  0.25606497256E+03  0.28209705156E+02  0.27871998282E+03  0.77000000000E+02 0.  0.
<mgrwt>
<rscale>  0 0.55659150E+03</rscale>
<asrwt>0</asrwt>
<pdfrwt beam="1">  1        2 0.47919996E-01 0.55659150E+03</pdfrwt>
<pdfrwt beam="2">  1       -2 0.32983770E-01 0.55659150E+03</pdfrwt>
<totfact> 0.90574751E+02</totfact>
</mgrwt>
</event>
<event>
 4    1  0.4950349E-004  0.2039729E+03  0.7818608E-02  0.1146430E+00
          2   -1    0    0  501    0  0.00000000000E+00  0.00000000000E+00  0.11625258123E+04  0.11625258123E+04  0.25500000000E-02 0.  1.
         -2   -1    0    0    0  501 -0.00000000000E+00 -0.00000000000E+00 -0.89471032250E+01  0.89471035883E+01  0.25500000000E-02 0. -1.
    5000001    1    1    2    0    0 -0.37807606808E+02  0.54882665889E+02  0.54495869282E+03  0.55439200845E+03  0.77000000000E+02 0.  0.
   -5000001    1    1    2    0    0  0.37807606808E+02 -0.54882665889E+02  0.60862001623E+03  0.61708090742E+03  0.77000000000E+02 0.  0.
<mgrwt>
<rscale>  0 0.20397293E+03</rscale>
<asrwt>0</asrwt>
<pdfrwt beam="1">  1        2 0.16607521E+00 0.20397293E+03</pdfrwt>
<pdfrwt beam="2">  1       -2 0.12781569E-02 0.20397293E+03</pdfrwt>
<totfact> 0.34280357E+04</totfact>
</mgrwt>
</event>
<event>
 4    1  0.4950349E-004  0.1941648E+03  0.7818608E-02  0.1154758E+00
          2   -1    0    0  501    0  0.00000000000E+00  0.00000000000E+00  0.11578197790E+04  0.11578197790E+04  0.25500000000E-02 0.  1.
         -2   -1    0    0    0  501 -0.00000000000E+00 -0.00000000000E+00 -0.81402894884E+01  0.81402898878E+01  0.25500000000E-02 0. -1.
    5000001    1    1    2    0    0  0.64166095601E-01  0.57941159886E+02  0.64558834210E+03  0.65274075220E+03  0.77000000000E+02 0.  0.
   -5000001    1    1    2    0    0 -0.64166095601E-01 -0.57941159886E+02  0.50409114740E+03  0.51321931668E+03  0.77000000000E+02 0.  0.
<mgrwt>
<rscale>  0 0.19416476E+03</rscale>
<asrwt>0</asrwt>
<pdfrwt beam="1">  1        2 0.16540290E+00 0.19416476E+03</pdfrwt>
<pdfrwt beam="2">  1       -2 0.11628980E-02 0.19416476E+03</pdfrwt>
<totfact> 0.39399033E+04</totfact>
</mgrwt>
</event>
<event>
 4    1  0.4950349E-004  0.4371331E+03  0.7818608E-02  0.1031630E+00
         -2   -1    0    0    0  501 -0.00000000000E+00  0.00000000000E+00  0.83307075135E+02  0.83307075174E+02  0.25500000000E-02 0. -1.
          2   -1    0    0  501    0  0.00000000000E+00 -0.00000000000E+00 -0.57343681848E+03  0.57343681848E+03  0.25500000000E-02 0.  1.
    5000001    1    1    2    0    0 -0.88213372929E+02 -0.18351110657E+03 -0.21560813781E+03  0.30638830671E+03  0.77000000000E+02 0.  0.
   -5000001    1    1    2    0    0  0.88213372929E+02  0.18351110657E+03 -0.27452160553E+03  0.35035558695E+03  0.77000000000E+02 0.  0.
<mgrwt>
<rscale>  0 0.43713313E+03</rscale>
<asrwt>0</asrwt>
<pdfrwt beam="1">  1        2 0.81919544E-01 0.43713313E+03</pdfrwt>
<pdfrwt beam="2">  1       -2 0.11901011E-01 0.43713313E+03</pdfrwt>
<totfact> 0.29250992E+03</totfact>
</mgrwt>
</event>
<event>
 4    1  0.4950349E-004  0.1896814E+03  0.7818608E-02  0.1158749E+00
          2   -1    0    0  501    0  0.00000000000E+00  0.00000000000E+00  0.18214909438E+03  0.18214909440E+03  0.25500000000E-02 0.  1.
         -2   -1    0    0    0  501 -0.00000000000E+00 -0.00000000000E+00 -0.49381295583E+02  0.49381295649E+02  0.25500000000E-02 0. -1.
    5000001    1    1    2    0    0  0.45748188268E+02 -0.30682949478E+02  0.59542047959E+02  0.11184183293E+03  0.77000000000E+02 0.  0.
   -5000001    1    1    2    0    0 -0.45748188268E+02  0.30682949478E+02  0.73225750841E+02  0.11968855712E+03  0.77000000000E+02 0.  0.
<mgrwt>
<rscale>  0 0.18968140E+03</rscale>
<asrwt>0</asrwt>
<pdfrwt beam="1">  1        2 0.26021299E-01 0.18968140E+03</pdfrwt>
<pdfrwt beam="2">  1       -2 0.70544708E-02 0.18968140E+03</pdfrwt>
<totfact> 0.22669865E+04</totfact>
</mgrwt>
</event>
<event>
 4    1  0.4950349E-004  0.2734834E+03  0.7818608E-02  0.1099302E+00
          2   -1    0    0  501    0  0.00000000000E+00  0.00000000000E+00  0.17867403447E+02  0.17867403629E+02  0.25500000000E-02 0.  1.
         -2   -1    0    0    0  501 -0.00000000000E+00 -0.00000000000E+00 -0.10465034349E+04  0.10465034349E+04  0.25500000000E-02 0. -1.
    5000001    1    1    2    0    0 -0.74178160783E+01  0.64712266575E+02 -0.15494140646E+03  0.18487439216E+03  0.77000000000E+02 0.  0.
   -5000001    1    1    2    0    0  0.74178160783E+01 -0.64712266575E+02 -0.87369462498E+03  0.87949644636E+03  0.77000000000E+02 0.  0.
<mgrwt>
<rscale>  0 0.27348345E+03</rscale>
<asrwt>0</asrwt>
<pdfrwt beam="1">  1        2 0.25524869E-02 0.27348345E+03</pdfrwt>
<pdfrwt beam="2">  1       -2 0.14950045E+00 0.27348345E+03</pdfrwt>
<totfact> 0.12511310E+03</totfact>
</mgrwt>
</event>
<event>
 4    1  0.4950349E-004  0.3394835E+03  0.7818608E-02  0.1067016E+00
          2   -1    0    0  501    0  0.00000000000E+00  0.00000000000E+00  0.41747003565E+03  0.41747003566E+03  0.25500000000E-02 0.  1.
         -2   -1    0    0    0  501 -0.00000000000E+00 -0.00000000000E+00 -0.69016376274E+02  0.69016376321E+02  0.25500000000E-02 0. -1.
    5000001    1    1    2    0    0  0.10344695580E+03  0.83116147272E+02  0.70160604834E+02  0.16870411101E+03  0.77000000000E+02 0.  0.
   -5000001    1    1    2    0    0 -0.10344695580E+03 -0.83116147272E+02  0.27829305454E+03  0.31778230097E+03  0.77000000000E+02 0.  0.
<mgrwt>
<rscale>  0 0.33948354E+03</rscale>
<asrwt>0</asrwt>
<pdfrwt beam="1">  1        2 0.59638578E-01 0.33948354E+03</pdfrwt>
<pdfrwt beam="2">  1       -2 0.98594820E-02 0.33948354E+03</pdfrwt>
<totfact> 0.56253969E+03</totfact>
</mgrwt>
</event>
<event>
 4    1  0.4950349E-004  0.2467234E+03  0.7818608E-02  0.1115393E+00
         -2   -1    0    0    0  501 -0.00000000000E+00  0.00000000000E+00  0.25854794731E+02  0.25854794857E+02  0.25500000000E-02 0. -1.
          2   -1    0    0  501    0  0.00000000000E+00 -0.00000000000E+00 -0.58859899947E+03  0.58859899948E+03  0.25500000000E-02 0.  1.
    5000001    1    1    2    0    0  0.49666503664E+02 -0.35511726946E+02 -0.46709506626E+03  0.47732027535E+03  0.77000000000E+02 0.  0.
   -5000001    1    1    2    0    0 -0.49666503664E+02  0.35511726946E+02 -0.95649138485E+02  0.13713351899E+03  0.77000000000E+02 0.  0.
<mgrwt>
<rscale>  0 0.24672338E+03</rscale>
<asrwt>0</asrwt>
<pdfrwt beam="1">  1        2 0.84085563E-01 0.24672338E+03</pdfrwt>
<pdfrwt beam="2">  1       -2 0.36935425E-02 0.24672338E+03</pdfrwt>
<totfact> 0.17212298E+04</totfact>
</mgrwt>
</event>
<event>
 4    1  0.4950349E-004  0.1898824E+03  0.7818608E-02  0.1158567E+00
          2   -1    0    0  501    0  0.00000000000E+00  0.00000000000E+00  0.57461646081E+03  0.57461646082E+03  0.25500000000E-02 0.  1.
         -2   -1    0    0    0  501 -0.00000000000E+00 -0.00000000000E+00 -0.15686693084E+02  0.15686693291E+02  0.25500000000E-02 0. -1.
    5000001    1    1    2    0    0  0.46125678735E+02 -0.21429481831E+02  0.34884238420E+03  0.36084180737E+03  0.77000000000E+02 0.  0.
   -5000001    1    1    2    0    0 -0.46125678735E+02  0.21429481831E+02  0.21008738352E+03  0.22946134674E+03  0.77000000000E+02 0.  0.
<mgrwt>
<rscale>  0 0.18988241E+03</rscale>
<asrwt>0</asrwt>
<pdfrwt beam="1">  1        2 0.82088055E-01 0.18988241E+03</pdfrwt>
<pdfrwt beam="2">  1       -2 0.22409565E-02 0.18988241E+03</pdfrwt>
<totfact> 0.36390299E+04</totfact>
</mgrwt>
</event>
<event>
 4    1  0.4950349E-004  0.3225775E+03  0.7818608E-02  0.1074469E+00
         -2   -1    0    0    0  501 -0.00000000000E+00  0.00000000000E+00  0.33212916136E+02  0.33212916234E+02  0.25500000000E-02 0. -1.
          2   -1    0    0  501    0  0.00000000000E+00 -0.00000000000E+00 -0.78325117194E+03  0.78325117194E+03  0.25500000000E-02 0.  1.
    5000001    1    1    2    0    0  0.22409271581E+02  0.95881206882E+02 -0.63300981286E+03  0.64523313962E+03  0.77000000000E+02 0.  0.
   -5000001    1    1    2    0    0 -0.22409271581E+02 -0.95881206882E+02 -0.11702844294E+03  0.17123094855E+03  0.77000000000E+02 0.  0.
<mgrwt>
<rscale>  0 0.32257747E+03</rscale>
<asrwt>0</asrwt>
<pdfrwt beam="1">  1        2 0.11189301E+00 0.32257747E+03</pdfrwt>
<pdfrwt beam="2">  1       -2 0.47447028E-02 0.32257747E+03</pdfrwt>
<totfact> 0.85111135E+03</totfact>
</mgrwt>
</event>
<event>
 4    1  0.4950349E-004  0.1788989E+03  0.7818608E-02  0.1168873E+00
          2   -1    0    0  501    0  0.00000000000E+00  0.00000000000E+00  0.24462615042E+03  0.24462615043E+03  0.25500000000E-02 0.  1.
         -2   -1    0    0    0  501 -0.00000000000E+00 -0.00000000000E+00 -0.32707879921E+02  0.32707880020E+02  0.25500000000E-02 0. -1.
    5000001    1    1    2    0    0  0.30383187311E+02 -0.78159638369E+01  0.54825688455E+02  0.99594595619E+02  0.77000000000E+02 0.  0.
   -5000001    1    1    2    0    0 -0.30383187311E+02  0.78159638369E+01  0.15709258204E+03  0.17773943483E+03  0.77000000000E+02 0.  0.
<mgrwt>
<rscale>  0 0.17889889E+03</rscale>
<asrwt>0</asrwt>
<pdfrwt beam="1">  1        2 0.34946593E-01 0.17889889E+03</pdfrwt>
<pdfrwt beam="2">  1       -2 0.46725543E-02 0.17889889E+03</pdfrwt>
<totfact> 0.30602752E+04</totfact>
</mgrwt>
</event>
<event>
 4    1  0.4950349E-004  0.2182717E+03  0.7818608E-02  0.1135178E+00
          2   -1    0    0  501    0  0.00000000000E+00  0.00000000000E+00  0.18685788578E+04  0.18685788578E+04  0.25500000000E-02 0.  1.
         -2   -1    0    0    0  501 -0.00000000000E+00 -0.00000000000E+00 -0.63741652652E+01  0.63741657753E+01  0.25500000000E-02 0. -1.
    5000001    1    1    2    0    0 -0.67641781080E+02 -0.15781208970E+02  0.12233104881E+04  0.12276978485E+04  0.77000000000E+02 0.  0.
   -5000001    1    1    2    0    0  0.67641781080E+02  0.15781208970E+02  0.63889420443E+03  0.64725517500E+03  0.77000000000E+02 0.  0.
<mgrwt>
<rscale>  0 0.21827167E+03</rscale>
<asrwt>0</asrwt>
<pdfrwt beam="1">  1        2 0.26694002E+00 0.21827167E+03</pdfrwt>
<pdfrwt beam="2">  1       -2 0.91059445E-03 0.21827167E+03</pdfrwt>
<totfact> 0.24757570E+04</totfact>
</mgrwt>
</event>
<event>
 4    1  0.4950349E-004  0.3932442E+03  0.7818608E-02  0.1046144E+00
          2   -1    0    0  501    0  0.00000000000E+00  0.00000000000E+00  0.27443713589E+04  0.27443713589E+04  0.25500000000E-02 0.  1.
         -2   -1    0    0    0  501 -0.00000000000E+00 -0.00000000000E+00 -0.14087108593E+02  0.14087108824E+02  0.25500000000E-02 0. -1.
    5000001    1    1    2    0    0  0.17449329012E+03  0.45976890697E+02  0.12738240452E+04  0.12888438544E+04  0.77000000000E+02 0.  0.
   -5000001    1    1    2    0    0 -0.17449329012E+03 -0.45976890697E+02  0.14564602051E+04  0.14696146134E+04  0.77000000000E+02 0.  0.
<mgrwt>
<rscale>  0 0.39324424E+03</rscale>
<asrwt>0</asrwt>
<pdfrwt beam="1">  1        2 0.39205287E+00 0.39324424E+03</pdfrwt>
<pdfrwt beam="2">  1       -2 0.20124450E-02 0.39324424E+03</pdfrwt>
<totfact> 0.28660877E+03</totfact>
</mgrwt>
</event>
<event>
 4    1  0.4950349E-004  0.1717561E+03  0.7818608E-02  0.1176029E+00
          2   -1    0    0  501    0  0.00000000000E+00  0.00000000000E+00  0.82533243254E+03  0.82533243254E+03  0.25500000000E-02 0.  1.
         -2   -1    0    0    0  501 -0.00000000000E+00 -0.00000000000E+00 -0.89358421565E+01  0.89358425203E+01  0.25500000000E-02 0. -1.
    5000001    1    1    2    0    0 -0.34787357195E+02 -0.19915231094E+00  0.33360447871E+03  0.34413826886E+03  0.77000000000E+02 0.  0.
   -5000001    1    1    2    0    0  0.34787357195E+02  0.19915231094E+00  0.48279211167E+03  0.49013000620E+03  0.77000000000E+02 0.  0.
<mgrwt>
<rscale>  0 0.17175611E+03</rscale>
<asrwt>0</asrwt>
<pdfrwt beam="1">  1        2 0.11790461E+00 0.17175611E+03</pdfrwt>
<pdfrwt beam="2">  1       -2 0.12765492E-02 0.17175611E+03</pdfrwt>
<totfact> 0.53498794E+04</totfact>
</mgrwt>
</event>
<event>
 4    1  0.4950349E-004  0.1609450E+03  0.7818608E-02  0.1187634E+00
          2   -1    0    0  501    0  0.00000000000E+00  0.00000000000E+00  0.71558505832E+02  0.71558505877E+02  0.25500000000E-02 0.  1.
         -2   -1    0    0    0  501 -0.00000000000E+00 -0.00000000000E+00 -0.90496868618E+02  0.90496868654E+02  0.25500000000E-02 0. -1.
    5000001    1    1    2    0    0 -0.11260846682E+02 -0.20488413060E+02 -0.99613992651E+01  0.81085209582E+02  0.77000000000E+02 0.  0.
   -5000001    1    1    2    0    0  0.11260846682E+02  0.20488413060E+02 -0.89769635207E+01  0.80970164948E+02  0.77000000000E+02 0.  0.
<mgrwt>
<rscale>  0 0.16094497E+03</rscale>
<asrwt>0</asrwt>
<pdfrwt beam="1">  1        2 0.10222644E-01 0.16094497E+03</pdfrwt>
<pdfrwt beam="2">  1       -2 0.12928124E-01 0.16094497E+03</pdfrwt>
<totfact> 0.25581175E+04</totfact>
</mgrwt>
</event>
<event>
 4    1  0.4950349E-004  0.1786684E+03  0.7818608E-02  0.1169098E+00
         -2   -1    0    0    0  501 -0.00000000000E+00  0.00000000000E+00  0.44190799705E+01  0.44190807063E+01  0.25500000000E-02 0. -1.
          2   -1    0    0  501    0  0.00000000000E+00 -0.00000000000E+00 -0.18059402887E+04  0.18059402887E+04  0.25500000000E-02 0.  1.
    5000001    1    1    2    0    0 -0.35364340772E+02  0.28910850888E+01 -0.11860228258E+04  0.11890492582E+04  0.77000000000E+02 0.  0.
   -5000001    1    1    2    0    0  0.35364340772E+02 -0.28910850888E+01 -0.61549838287E+03  0.62131011121E+03  0.77000000000E+02 0.  0.
<mgrwt>
<rscale>  0 0.17866835E+03</rscale>
<asrwt>0</asrwt>
<pdfrwt beam="1">  1        2 0.25799100E+00 0.17866835E+03</pdfrwt>
<pdfrwt beam="2">  1       -2 0.63129835E-03 0.17866835E+03</pdfrwt>
<totfact> 0.44418827E+04</totfact>
</mgrwt>
</event>
<event>
 4    1  0.4950349E-004  0.2550473E+03  0.7818608E-02  0.1110156E+00
          2   -1    0    0  501    0  0.00000000000E+00  0.00000000000E+00  0.22044076445E+04  0.22044076445E+04  0.25500000000E-02 0.  1.
         -2   -1    0    0    0  501 -0.00000000000E+00 -0.00000000000E+00 -0.73771674410E+01  0.73771678817E+01  0.25500000000E-02 0. -1.
    5000001    1    1    2    0    0 -0.84319498868E+02 -0.55464335523E+02  0.12037349778E+04  0.12104102475E+04  0.77000000000E+02 0.  0.
   -5000001    1    1    2    0    0  0.84319498868E+02  0.55464335523E+02  0.99329549925E+03  0.10013745649E+04  0.77000000000E+02 0.  0.
<mgrwt>
<rscale>  0 0.25504733E+03</rscale>
<asrwt>0</asrwt>
<pdfrwt beam="1">  1        2 0.31491528E+00 0.25504733E+03</pdfrwt>
<pdfrwt beam="2">  1       -2 0.10538814E-02 0.25504733E+03</pdfrwt>
<totfact> 0.13839498E+04</totfact>
</mgrwt>
</event>
<event>
 4    1  0.4950349E-004  0.1810993E+03  0.7818608E-02  0.1166743E+00
          2   -1    0    0  501    0  0.00000000000E+00  0.00000000000E+00  0.12229119869E+03  0.12229119872E+03  0.25500000000E-02 0.  1.
         -2   -1    0    0    0  501 -0.00000000000E+00 -0.00000000000E+00 -0.67046860685E+02  0.67046860733E+02  0.25500000000E-02 0. -1.
    5000001    1    1    2    0    0 -0.40651747716E+02  0.19127502846E+02  0.44212761984E+02  0.99509769770E+02  0.77000000000E+02 0.  0.
   -5000001    1    1    2    0    0  0.40651747716E+02 -0.19127502846E+02  0.11031576022E+02  0.89828289681E+02  0.77000000000E+02 0.  0.
<mgrwt>
<rscale>  0 0.18109932E+03</rscale>
<asrwt>0</asrwt>
<pdfrwt beam="1">  1        2 0.17470171E-01 0.18109932E+03</pdfrwt>
<pdfrwt beam="2">  1       -2 0.95781230E-02 0.18109932E+03</pdfrwt>
<totfact> 0.22005905E+04</totfact>
</mgrwt>
</event>
<event>
 4    1  0.4950349E-004  0.1998333E+03  0.7818608E-02  0.1149880E+00
         -2   -1    0    0    0  501 -0.00000000000E+00  0.00000000000E+00  0.17196066279E+02  0.17196066468E+02  0.25500000000E-02 0. -1.
          2   -1    0    0  501    0  0.00000000000E+00 -0.00000000000E+00 -0.58055909330E+03  0.58055909330E+03  0.25500000000E-02 0.  1.
    5000001    1    1    2    0    0  0.57802683055E+02 -0.24689556601E+02 -0.31212910234E+03  0.32757335194E+03  0.77000000000E+02 0.  0.
   -5000001    1    1    2    0    0 -0.57802683055E+02  0.24689556601E+02 -0.25123392468E+03  0.27018180783E+03  0.77000000000E+02 0.  0.
<mgrwt>
<rscale>  0 0.19983326E+03</rscale>
<asrwt>0</asrwt>
<pdfrwt beam="1">  1        2 0.82937001E-01 0.19983326E+03</pdfrwt>
<pdfrwt beam="2">  1       -2 0.24565813E-02 0.19983326E+03</pdfrwt>
<totfact> 0.31564292E+04</totfact>
</mgrwt>
</event>
<event>
 4    1  0.4950349E-004  0.1639720E+03  0.7818608E-02  0.1184284E+00
         -2   -1    0    0    0  501 -0.00000000000E+00  0.00000000000E+00  0.21197242534E+01  0.21197257872E+01  0.25500000000E-02 0. -1.
          2   -1    0    0  501    0  0.00000000000E+00 -0.00000000000E+00 -0.31710256472E+04  0.31710256472E+04  0.25500000000E-02 0.  1.
    5000001    1    1    2    0    0  0.24233094581E+02  0.29728384081E+01 -0.18558069000E+04  0.18575640853E+04  0.77000000000E+02 0.  0.
   -5000001    1    1    2    0    0 -0.24233094581E+02 -0.29728384081E+01 -0.13130990229E+04  0.13155812877E+04  0.77000000000E+02 0.  0.
<mgrwt>
<rscale>  0 0.16397198E+03</rscale>
<asrwt>0</asrwt>
<pdfrwt beam="1">  1        2 0.45300062E+00 0.16397198E+03</pdfrwt>
<pdfrwt beam="2">  1       -2 0.30281989E-03 0.16397198E+03</pdfrwt>
<totfact> 0.26425724E+04</totfact>
</mgrwt>
</event>
<event>
 4    1  0.4950349E-004  0.2084781E+03  0.7818608E-02  0.1142777E+00
         -2   -1    0    0    0  501 -0.00000000000E+00  0.00000000000E+00  0.31572196689E+02  0.31572196792E+02  0.25500000000E-02 0. -1.
          2   -1    0    0  501    0  0.00000000000E+00 -0.00000000000E+00 -0.34415652661E+03  0.34415652662E+03  0.25500000000E-02 0.  1.
    5000001    1    1    2    0    0  0.43798432200E+02 -0.54940074252E+02 -0.15583926985E+03  0.18748757946E+03  0.77000000000E+02 0.  0.
   -5000001    1    1    2    0    0 -0.43798432200E+02  0.54940074252E+02 -0.15674506006E+03  0.18824114395E+03  0.77000000000E+02 0.  0.
<mgrwt>
<rscale>  0 0.20847808E+03</rscale>
<asrwt>0</asrwt>
<pdfrwt beam="1">  1        2 0.49165216E-01 0.20847808E+03</pdfrwt>
<pdfrwt beam="2">  1       -2 0.45103140E-02 0.20847808E+03</pdfrwt>
<totfact> 0.22673418E+04</totfact>
</mgrwt>
</event>
<event>
 4    1  0.4950349E-004  0.6169877E+03  0.7818608E-02  0.9870775E-01
         -2   -1    0    0    0  501 -0.00000000000E+00  0.00000000000E+00  0.23987683873E+03  0.23987683874E+03  0.25500000000E-02 0. -1.
          2   -1    0    0  501    0  0.00000000000E+00 -0.00000000000E+00 -0.39673887656E+03  0.39673887657E+03  0.25500000000E-02 0.  1.
    5000001    1    1    2    0    0 -0.18249306902E+03  0.19775218551E+03  0.55425819277E+02  0.28532554837E+03  0.77000000000E+02 0.  0.
   -5000001    1    1    2    0    0  0.18249306902E+03 -0.19775218551E+03 -0.21228785710E+03  0.35129016694E+03  0.77000000000E+02 0.  0.
<mgrwt>
<rscale>  0 0.61698774E+03</rscale>
<asrwt>0</asrwt>
<pdfrwt beam="1">  1        2 0.56676982E-01 0.61698774E+03</pdfrwt>
<pdfrwt beam="2">  1       -2 0.34268120E-01 0.61698774E+03</pdfrwt>
<totfact> 0.69958787E+02</totfact>
</mgrwt>
</event>
<event>
 4    1  0.4950349E-004  0.2221046E+03  0.7818608E-02  0.1132324E+00
         -2   -1    0    0    0  501 -0.00000000000E+00  0.00000000000E+00  0.35216786533E+02  0.35216786625E+02  0.25500000000E-02 0.  1.
          2   -1    0    0  501    0  0.00000000000E+00 -0.00000000000E+00 -0.35019142544E+03  0.35019142545E+03  0.25500000000E-02 0. -1.
    5000001    1    1    2    0    0 -0.67627310626E+02  0.85987104277E+01 -0.23020726075E+03  0.25213443610E+03  0.77000000000E+02 0.  0.
   -5000001    1    1    2    0    0  0.67627310626E+02 -0.85987104277E+01 -0.84767378153E+02  0.13327377597E+03  0.77000000000E+02 0.  0.
<mgrwt>
<rscale>  0 0.22210463E+03</rscale>
<asrwt>0</asrwt>
<pdfrwt beam="1">  1        2 0.50027344E-01 0.22210463E+03</pdfrwt>
<pdfrwt beam="2">  1       -2 0.50309697E-02 0.22210463E+03</pdfrwt>
<totfact> 0.18954830E+04</totfact>
</mgrwt>
</event>
<event>
 4    1  0.4950349E-004  0.2657375E+03  0.7818608E-02  0.1103744E+00
         -2   -1    0    0    0  501 -0.00000000000E+00  0.00000000000E+00  0.97307205977E+01  0.97307209319E+01  0.25500000000E-02 0. -1.
          2   -1    0    0  501    0  0.00000000000E+00 -0.00000000000E+00 -0.18142645999E+04  0.18142645999E+04  0.25500000000E-02 0.  1.
    5000001    1    1    2    0    0 -0.28088704808E+02  0.10454774295E+03 -0.91893409854E+03  0.92848698610E+03  0.77000000000E+02 0.  0.
   -5000001    1    1    2    0    0  0.28088704808E+02 -0.10454774295E+03 -0.88559978080E+03  0.89550833478E+03  0.77000000000E+02 0.  0.
<mgrwt>
<rscale>  0 0.26573748E+03</rscale>
<asrwt>0</asrwt>
<pdfrwt beam="1">  1        2 0.25918044E+00 0.26573748E+03</pdfrwt>
<pdfrwt beam="2">  1       -2 0.13901041E-02 0.26573748E+03</pdfrwt>
<totfact> 0.14342352E+04</totfact>
</mgrwt>
</event>
<event>
 4    1  0.4950349E-004  0.3289249E+03  0.7818608E-02  0.1071614E+00
          2   -1    0    0  501    0  0.00000000000E+00  0.00000000000E+00  0.11462339947E+04  0.11462339947E+04  0.25500000000E-02 0.  1.
         -2   -1    0    0    0  501 -0.00000000000E+00 -0.00000000000E+00 -0.23597183617E+02  0.23597183754E+02  0.25500000000E-02 0. -1.
    5000001    1    1    2    0    0 -0.11318453942E+03 -0.81452367521E+02  0.70681769162E+03  0.72454501401E+03  0.77000000000E+02 0.  0.
   -5000001    1    1    2    0    0  0.11318453942E+03  0.81452367521E+02  0.41581911945E+03  0.44528616444E+03  0.77000000000E+02 0.  0.
<mgrwt>
<rscale>  0 0.32892488E+03</rscale>
<asrwt>0</asrwt>
<pdfrwt beam="1">  1        2 0.16374770E+00 0.32892488E+03</pdfrwt>
<pdfrwt beam="2">  1       -2 0.33710265E-02 0.32892488E+03</pdfrwt>
<totfact> 0.85664440E+03</totfact>
</mgrwt>
</event>
<event>
 4    1  0.4950349E-004  0.3000070E+03  0.7818608E-02  0.1085237E+00
         -2   -1    0    0    0  501 -0.00000000000E+00  0.00000000000E+00  0.12199013429E+03  0.12199013432E+03  0.25500000000E-02 0. -1.
          2   -1    0    0  501    0  0.00000000000E+00 -0.00000000000E+00 -0.18444978657E+03  0.18444978658E+03  0.25500000000E-02 0.  1.
    5000001    1    1    2    0    0  0.12168815719E+03 -0.41225314894E+02 -0.39434498965E+02  0.15489226545E+03  0.77000000000E+02 0.  0.
   -5000001    1    1    2    0    0 -0.12168815719E+03  0.41225314894E+02 -0.23025153313E+02  0.15154765545E+03  0.77000000000E+02 0.  0.
<mgrwt>
<rscale>  0 0.30000703E+03</rscale>
<asrwt>0</asrwt>
<pdfrwt beam="1">  1        2 0.26349969E-01 0.30000703E+03</pdfrwt>
<pdfrwt beam="2">  1       -2 0.17427162E-01 0.30000703E+03</pdfrwt>
<totfact> 0.53773064E+03</totfact>
</mgrwt>
</event>
<event>
 4    1  0.4950349E-004  0.4495543E+03  0.7818608E-02  0.1027855E+00
         -2   -1    0    0    0  501 -0.00000000000E+00  0.00000000000E+00  0.23879170920E+02  0.23879171056E+02  0.25500000000E-02 0. -1.
          2   -1    0    0  501    0  0.00000000000E+00 -0.00000000000E+00 -0.21158510609E+04  0.21158510609E+04  0.25500000000E-02 0.  1.
    5000001    1    1    2    0    0  0.57710633646E+02  0.18835628279E+03 -0.68390163474E+03  0.71586245362E+03  0.77000000000E+02 0.  0.
   -5000001    1    1    2    0    0 -0.57710633646E+02 -0.18835628279E+03 -0.14080702553E+04  0.14238677784E+04  0.77000000000E+02 0.  0.
<mgrwt>
<rscale>  0 0.44955431E+03</rscale>
<asrwt>0</asrwt>
<pdfrwt beam="1">  1        2 0.30226432E+00 0.44955431E+03</pdfrwt>
<pdfrwt beam="2">  1       -2 0.34113115E-02 0.44955431E+03</pdfrwt>
<totfact> 0.26898371E+03</totfact>
</mgrwt>
</event>
<event>
 4    1  0.4950349E-004  0.2742020E+03  0.7818608E-02  0.1098898E+00
         -2   -1    0    0    0  501 -0.00000000000E+00  0.00000000000E+00  0.59691275134E+01  0.59691280580E+01  0.25500000000E-02 0. -1.
          2   -1    0    0  501    0  0.00000000000E+00 -0.00000000000E+00 -0.31489838471E+04  0.31489838471E+04  0.25500000000E-02 0.  1.
    5000001    1    1    2    0    0  0.77009581391E+02  0.80771803017E+02 -0.13376429518E+04  0.13444970161E+04  0.77000000000E+02 0.  0.
   -5000001    1    1    2    0    0 -0.77009581391E+02 -0.80771803017E+02 -0.18053717678E+04  0.18104559590E+04  0.77000000000E+02 0.  0.
<mgrwt>
<rscale>  0 0.27420202E+03</rscale>
<asrwt>0</asrwt>
<pdfrwt beam="1">  1        2 0.44985377E+00 0.27420202E+03</pdfrwt>
<pdfrwt beam="2">  1       -2 0.85273456E-03 0.27420202E+03</pdfrwt>
<totfact> 0.62063717E+03</totfact>
</mgrwt>
</event>
<event>
 4    1  0.4950349E-004  0.2879125E+03  0.7818608E-02  0.1091444E+00
         -2   -1    0    0    0  501 -0.00000000000E+00  0.00000000000E+00  0.60436950160E+02  0.60436950214E+02  0.25500000000E-02 0. -1.
          2   -1    0    0  501    0  0.00000000000E+00 -0.00000000000E+00 -0.34289293102E+03  0.34289293103E+03  0.25500000000E-02 0.  1.
    5000001    1    1    2    0    0 -0.11221207012E+03 -0.44452297071E+02 -0.16232723763E+03  0.21644095609E+03  0.77000000000E+02 0.  0.
   -5000001    1    1    2    0    0  0.11221207012E+03  0.44452297071E+02 -0.12012874323E+03  0.18688892516E+03  0.77000000000E+02 0.  0.
<mgrwt>
<rscale>  0 0.28791251E+03</rscale>
<asrwt>0</asrwt>
<pdfrwt beam="1">  1        2 0.48984704E-01 0.28791251E+03</pdfrwt>
<pdfrwt beam="2">  1       -2 0.86338502E-02 0.28791251E+03</pdfrwt>
<totfact> 0.85468845E+03</totfact>
</mgrwt>
</event>
<event>
 4    1  0.4950349E-004  0.2964714E+03  0.7818608E-02  0.1087018E+00
          2   -1    0    0  501    0  0.00000000000E+00  0.00000000000E+00  0.29416845442E+03  0.29416845443E+03  0.25500000000E-02 0.  1.
         -2   -1    0    0    0  501 -0.00000000000E+00 -0.00000000000E+00 -0.74698088166E+02  0.74698088210E+02  0.25500000000E-02 0. -1.
    5000001    1    1    2    0    0  0.10453386883E+03  0.11472394164E+02  0.19758830436E+03  0.23670463362E+03  0.77000000000E+02 0.  0.
   -5000001    1    1    2    0    0 -0.10453386883E+03 -0.11472394164E+02  0.21882061895E+02  0.13216190901E+03  0.77000000000E+02 0.  0.
<mgrwt>
<rscale>  0 0.29647139E+03</rscale>
<asrwt>0</asrwt>
<pdfrwt beam="1">  1        2 0.42024065E-01 0.29647139E+03</pdfrwt>
<pdfrwt beam="2">  1       -2 0.10671155E-01 0.29647139E+03</pdfrwt>
<totfact> 0.72116609E+03</totfact>
</mgrwt>
</event>
<event>
 4    1  0.4950349E-004  0.1811599E+03  0.7818608E-02  0.1166685E+00
         -2   -1    0    0    0  501 -0.00000000000E+00  0.00000000000E+00  0.63095815285E+01  0.63095820438E+01  0.25500000000E-02 0. -1.
          2   -1    0    0  501    0  0.00000000000E+00 -0.00000000000E+00 -0.13003599882E+04  0.13003599882E+04  0.25500000000E-02 0.  1.
    5000001    1    1    2    0    0  0.44125153719E+02 -0.17020113821E+02 -0.60197308221E+03  0.60871775493E+03  0.77000000000E+02 0.  0.
   -5000001    1    1    2    0    0 -0.44125153719E+02  0.17020113821E+02 -0.69207732445E+03  0.69795181530E+03  0.77000000000E+02 0.  0.
<mgrwt>
<rscale>  0 0.18115990E+03</rscale>
<asrwt>0</asrwt>
<pdfrwt beam="1">  1        2 0.18576554E+00 0.18115990E+03</pdfrwt>
<pdfrwt beam="2">  1       -2 0.90136966E-03 0.18115990E+03</pdfrwt>
<totfact> 0.47527124E+04</totfact>
</mgrwt>
</event>
<event>
 4    1  0.4950349E-004  0.3526708E+03  0.7818608E-02  0.1061524E+00
         -2   -1    0    0    0  501 -0.00000000000E+00  0.00000000000E+00  0.15517729509E+02  0.15517729719E+02  0.25500000000E-02 0. -1.
          2   -1    0    0  501    0  0.00000000000E+00 -0.00000000000E+00 -0.20037840523E+04  0.20037840524E+04  0.25500000000E-02 0.  1.
    5000001    1    1    2    0    0  0.59804400428E+01  0.15697684316E+03 -0.11205779745E+04  0.11341523231E+04  0.77000000000E+02 0.  0.
   -5000001    1    1    2    0    0 -0.59804400428E+01 -0.15697684316E+03 -0.86768834829E+03  0.88514945897E+03  0.77000000000E+02 0.  0.
<mgrwt>
<rscale>  0 0.35267083E+03</rscale>
<asrwt>0</asrwt>
<pdfrwt beam="1">  1        2 0.28625470E+00 0.35267083E+03</pdfrwt>
<pdfrwt beam="2">  1       -2 0.22168198E-02 0.35267083E+03</pdfrwt>
<totfact> 0.58471201E+03</totfact>
</mgrwt>
</event>
<event>
 4    1  0.4950349E-004  0.2341956E+03  0.7818608E-02  0.1123721E+00
         -2   -1    0    0    0  501 -0.00000000000E+00  0.00000000000E+00  0.20521615550E+02  0.20521615709E+02  0.25500000000E-02 0. -1.
          2   -1    0    0  501    0  0.00000000000E+00 -0.00000000000E+00 -0.66816818353E+03  0.66816818354E+03  0.25500000000E-02 0.  1.
    5000001    1    1    2    0    0 -0.10337535262E+02  0.83953530106E+02 -0.39750611251E+03  0.41363651838E+03  0.77000000000E+02 0.  0.
   -5000001    1    1    2    0    0  0.10337535262E+02 -0.83953530106E+02 -0.25014045547E+03  0.27505328087E+03  0.77000000000E+02 0.  0.
<mgrwt>
<rscale>  0 0.23419556E+03</rscale>
<asrwt>0</asrwt>
<pdfrwt beam="1">  1        2 0.95452584E-01 0.23419556E+03</pdfrwt>
<pdfrwt beam="2">  1       -2 0.29316598E-02 0.23419556E+03</pdfrwt>
<totfact> 0.20927724E+04</totfact>
</mgrwt>
</event>
<event>
 4    1  0.4950349E-004  0.1870245E+03  0.7818608E-02  0.1161173E+00
          2   -1    0    0  501    0  0.00000000000E+00  0.00000000000E+00  0.62021567287E+03  0.62021567287E+03  0.25500000000E-02 0.  1.
         -2   -1    0    0    0  501 -0.00000000000E+00 -0.00000000000E+00 -0.14099197813E+02  0.14099198043E+02  0.25500000000E-02 0. -1.
    5000001    1    1    2    0    0 -0.22785118551E+02 -0.44164841403E+02  0.23998438001E+03  0.25688751914E+03  0.77000000000E+02 0.  0.
   -5000001    1    1    2    0    0  0.22785118551E+02  0.44164841403E+02  0.36613209505E+03  0.37742735178E+03  0.77000000000E+02 0.  0.
<mgrwt>
<rscale>  0 0.18702453E+03</rscale>
<asrwt>0</asrwt>
<pdfrwt beam="1">  1        2 0.88602238E-01 0.18702453E+03</pdfrwt>
<pdfrwt beam="2">  1       -2 0.20141711E-02 0.18702453E+03</pdfrwt>
<totfact> 0.38972606E+04</totfact>
</mgrwt>
</event>
<event>
 4    1  0.4950349E-004  0.4146976E+03  0.7818608E-02  0.1038806E+00
          2   -1    0    0  501    0  0.00000000000E+00  0.00000000000E+00  0.56776199225E+02  0.56776199283E+02  0.25500000000E-02 0. -1.
         -2   -1    0    0    0  501 -0.00000000000E+00 -0.00000000000E+00 -0.75724550082E+03  0.75724550083E+03  0.25500000000E-02 0.  1.
    5000001    1    1    2    0    0  0.16134604670E+03 -0.67595870966E+02 -0.50803716734E+03  0.54280061897E+03  0.77000000000E+02 0.  0.
   -5000001    1    1    2    0    0 -0.16134604670E+03  0.67595870966E+02 -0.19243213426E+03  0.27122108114E+03  0.77000000000E+02 0.  0.
<mgrwt>
<rscale>  0 0.41469758E+03</rscale>
<asrwt>0</asrwt>
<pdfrwt beam="1">  1        2 0.81108861E-02 0.41469758E+03</pdfrwt>
<pdfrwt beam="2">  1       -2 0.10817792E+00 0.41469758E+03</pdfrwt>
<totfact> 0.59936071E+02</totfact>
</mgrwt>
</event>
<event>
 4    1  0.4950349E-004  0.1873999E+03  0.7818608E-02  0.1160828E+00
         -2   -1    0    0    0  501 -0.00000000000E+00  0.00000000000E+00  0.33155742085E+02  0.33155742183E+02  0.25500000000E-02 0. -1.
          2   -1    0    0  501    0  0.00000000000E+00 -0.00000000000E+00 -0.26480121154E+03  0.26480121155E+03  0.25500000000E-02 0.  1.
    5000001    1    1    2    0    0  0.48173245967E+02 -0.22017625752E+02 -0.10512822403E+03  0.14066407132E+03  0.77000000000E+02 0.  0.
   -5000001    1    1    2    0    0 -0.48173245967E+02  0.22017625752E+02 -0.12651724542E+03  0.15729288242E+03  0.77000000000E+02 0.  0.
<mgrwt>
<rscale>  0 0.18739990E+03</rscale>
<asrwt>0</asrwt>
<pdfrwt beam="1">  1        2 0.37828743E-01 0.18739990E+03</pdfrwt>
<pdfrwt beam="2">  1       -2 0.47365347E-02 0.18739990E+03</pdfrwt>
<totfact> 0.27646637E+04</totfact>
</mgrwt>
</event>
<event>
 4    1  0.4950349E-004  0.3690231E+03  0.7818608E-02  0.1055067E+00
         -2   -1    0    0    0  501 -0.00000000000E+00  0.00000000000E+00  0.53576507271E+02  0.53576507331E+02  0.25500000000E-02 0. -1.
          2   -1    0    0  501    0  0.00000000000E+00 -0.00000000000E+00 -0.63543717339E+03  0.63543717339E+03  0.25500000000E-02 0.  1.
    5000001    1    1    2    0    0 -0.16677042501E+03 -0.11951135760E+02 -0.26729067549E+03  0.32454354024E+03  0.77000000000E+02 0.  0.
   -5000001    1    1    2    0    0  0.16677042501E+03  0.11951135760E+02 -0.31456999063E+03  0.36447014049E+03  0.77000000000E+02 0.  0.
<mgrwt>
<rscale>  0 0.36902306E+03</rscale>
<asrwt>0</asrwt>
<pdfrwt beam="1">  1        2 0.90776735E-01 0.36902306E+03</pdfrwt>
<pdfrwt beam="2">  1       -2 0.76537871E-02 0.36902306E+03</pdfrwt>
<totfact> 0.52458955E+03</totfact>
</mgrwt>
</event>
<event>
 4    1  0.4950349E-004  0.2612881E+03  0.7818608E-02  0.1106372E+00
         -2   -1    0    0    0  501 -0.00000000000E+00  0.00000000000E+00  0.37724572316E+02  0.37724572402E+02  0.25500000000E-02 0. -1.
          2   -1    0    0  501    0  0.00000000000E+00 -0.00000000000E+00 -0.45243379156E+03  0.45243379157E+03  0.25500000000E-02 0.  1.
    5000001    1    1    2    0    0  0.42375103539E+01 -0.94222928676E+02 -0.29619837915E+03  0.32024739905E+03  0.77000000000E+02 0.  0.
   -5000001    1    1    2    0    0 -0.42375103539E+01  0.94222928676E+02 -0.11851084009E+03  0.16991096492E+03  0.77000000000E+02 0.  0.
<mgrwt>
<rscale>  0 0.26128813E+03</rscale>
<asrwt>0</asrwt>
<pdfrwt beam="1">  1        2 0.64633395E-01 0.26128813E+03</pdfrwt>
<pdfrwt beam="2">  1       -2 0.53892249E-02 0.26128813E+03</pdfrwt>
<totfact> 0.13069673E+04</totfact>
</mgrwt>
</event>
<event>
 4    1  0.4950349E-004  0.2299411E+03  0.7818608E-02  0.1126681E+00
         -2   -1    0    0    0  501 -0.00000000000E+00  0.00000000000E+00  0.18038605751E+02  0.18038605931E+02  0.25500000000E-02 0. -1.
          2   -1    0    0  501    0  0.00000000000E+00 -0.00000000000E+00 -0.73277432176E+03  0.73277432177E+03  0.25500000000E-02 0.  1.
    5000001    1    1    2    0    0  0.42257505309E+02  0.53758002172E+02 -0.52429821942E+03  0.53431567677E+03  0.77000000000E+02 0.  0.
   -5000001    1    1    2    0    0 -0.42257505309E+02 -0.53758002172E+02 -0.19043749659E+03  0.21649725093E+03  0.77000000000E+02 0.  0.
<mgrwt>
<rscale>  0 0.22994110E+03</rscale>
<asrwt>0</asrwt>
<pdfrwt beam="1">  1        2 0.10468203E+00 0.22994110E+03</pdfrwt>
<pdfrwt beam="2">  1       -2 0.25769442E-02 0.22994110E+03</pdfrwt>
<totfact> 0.22685486E+04</totfact>
</mgrwt>
</event>
<event>
 4    1  0.4950349E-004  0.1996811E+03  0.7818608E-02  0.1150008E+00
          2   -1    0    0  501    0  0.00000000000E+00  0.00000000000E+00  0.35516224716E+02  0.35516224807E+02  0.25500000000E-02 0.  1.
         -2   -1    0    0    0  501 -0.00000000000E+00 -0.00000000000E+00 -0.28066415990E+03  0.28066415991E+03  0.25500000000E-02 0. -1.
    5000001    1    1    2    0    0  0.43572141686E+02  0.39173115201E+02 -0.16155544860E+03  0.18831417222E+03  0.77000000000E+02 0.  0.
   -5000001    1    1    2    0    0 -0.43572141686E+02 -0.39173115201E+02 -0.83592486582E+02  0.12786621250E+03  0.77000000000E+02 0.  0.
<mgrwt>
<rscale>  0 0.19968106E+03</rscale>
<asrwt>0</asrwt>
<pdfrwt beam="1">  1        2 0.50737465E-02 0.19968106E+03</pdfrwt>
<pdfrwt beam="2">  1       -2 0.40094879E-01 0.19968106E+03</pdfrwt>
<totfact> 0.88734014E+03</totfact>
</mgrwt>
</event>
<event>
 4    1  0.4950349E-004  0.2304980E+03  0.7818608E-02  0.1126290E+00
         -2   -1    0    0    0  501 -0.00000000000E+00  0.00000000000E+00  0.15492431483E+02  0.15492431693E+02  0.25500000000E-02 0. -1.
          2   -1    0    0  501    0  0.00000000000E+00 -0.00000000000E+00 -0.85734293813E+03  0.85734293813E+03  0.25500000000E-02 0.  1.
    5000001    1    1    2    0    0 -0.69253244433E+02 -0.21097950731E+02 -0.24689213650E+03  0.26856258573E+03  0.77000000000E+02 0.  0.
   -5000001    1    1    2    0    0  0.69253244433E+02  0.21097950731E+02 -0.59495837014E+03  0.60427278409E+03  0.77000000000E+02 0.  0.
<mgrwt>
<rscale>  0 0.23049796E+03</rscale>
<asrwt>0</asrwt>
<pdfrwt beam="1">  1        2 0.12247753E+00 0.23049796E+03</pdfrwt>
<pdfrwt beam="2">  1       -2 0.22132051E-02 0.23049796E+03</pdfrwt>
<totfact> 0.23408953E+04</totfact>
</mgrwt>
</event>
<event>
 4    1  0.4950349E-004  0.5649886E+03  0.7818608E-02  0.9980830E-01
         -2   -1    0    0    0  501 -0.00000000000E+00  0.00000000000E+00  0.40045904098E+03  0.40045904099E+03  0.25500000000E-02 0. -1.
          2   -1    0    0  501    0  0.00000000000E+00 -0.00000000000E+00 -0.19927885088E+03  0.19927885090E+03  0.25500000000E-02 0.  1.
    5000001    1    1    2    0    0 -0.21642483480E+03  0.14707324799E+03  0.17862163705E+03  0.32604438136E+03  0.77000000000E+02 0.  0.
   -5000001    1    1    2    0    0  0.21642483480E+03 -0.14707324799E+03  0.22558553041E+02  0.27369351053E+03  0.77000000000E+02 0.  0.
<mgrwt>
<rscale>  0 0.56498856E+03</rscale>
<asrwt>0</asrwt>
<pdfrwt beam="1">  1        2 0.28468407E-01 0.56498856E+03</pdfrwt>
<pdfrwt beam="2">  1       -2 0.57208435E-01 0.56498856E+03</pdfrwt>
<totfact> 0.54501006E+02</totfact>
</mgrwt>
</event>
<event>
 4    1  0.4950349E-004  0.2522737E+03  0.7818608E-02  0.1111876E+00
         -2   -1    0    0    0  501 -0.00000000000E+00  0.00000000000E+00  0.14088949397E+02  0.14088949628E+02  0.25500000000E-02 0. -1.
          2   -1    0    0  501    0  0.00000000000E+00 -0.00000000000E+00 -0.11292900291E+04  0.11292900291E+04  0.25500000000E-02 0.  1.
    5000001    1    1    2    0    0  0.82554748820E+02  0.55638318965E+02 -0.51951817198E+03  0.53454563894E+03  0.77000000000E+02 0.  0.
   -5000001    1    1    2    0    0 -0.82554748820E+02 -0.55638318965E+02 -0.59568290772E+03  0.60883333979E+03  0.77000000000E+02 0.  0.
<mgrwt>
<rscale>  0 0.25227374E+03</rscale>
<asrwt>0</asrwt>
<pdfrwt beam="1">  1        2 0.16132709E+00 0.25227374E+03</pdfrwt>
<pdfrwt beam="2">  1       -2 0.20127078E-02 0.25227374E+03</pdfrwt>
<totfact> 0.18659508E+04</totfact>
</mgrwt>
</event>
<event>
 4    1  0.4950349E-004  0.1700847E+03  0.7818608E-02  0.1177760E+00
         -2   -1    0    0    0  501 -0.00000000000E+00  0.00000000000E+00  0.25999229640E+02  0.25999229765E+02  0.25500000000E-02 0. -1.
          2   -1    0    0  501    0  0.00000000000E+00 -0.00000000000E+00 -0.27816983550E+03  0.27816983551E+03  0.25500000000E-02 0.  1.
    5000001    1    1    2    0    0 -0.22339302575E+02  0.13055590110E+02 -0.17110417230E+03  0.18940731415E+03  0.77000000000E+02 0.  0.
   -5000001    1    1    2    0    0  0.22339302575E+02 -0.13055590110E+02 -0.81066433554E+02  0.11476175113E+03  0.77000000000E+02 0.  0.
<mgrwt>
<rscale>  0 0.17008470E+03</rscale>
<asrwt>0</asrwt>
<pdfrwt beam="1">  1        2 0.39738546E-01 0.17008470E+03</pdfrwt>
<pdfrwt beam="2">  1       -2 0.37141758E-02 0.17008470E+03</pdfrwt>
<totfact> 0.37402329E+04</totfact>
</mgrwt>
</event>
<event>
 4    1  0.4950349E-004  0.2313018E+03  0.7818608E-02  0.1125727E+00
         -2   -1    0    0    0  501 -0.00000000000E+00  0.00000000000E+00  0.44903542278E+02  0.44903542350E+02  0.25500000000E-02 0. -1.
          2   -1    0    0  501    0  0.00000000000E+00 -0.00000000000E+00 -0.29786372422E+03  0.29786372423E+03  0.25500000000E-02 0.  1.
    5000001    1    1    2    0    0  0.73162755065E+02  0.14018850910E+02 -0.61939456219E+02  0.12375303288E+03  0.77000000000E+02 0.  0.
   -5000001    1    1    2    0    0 -0.73162755065E+02 -0.14018850910E+02 -0.19102072573E+03  0.21901423371E+03  0.77000000000E+02 0.  0.
<mgrwt>
<rscale>  0 0.23130185E+03</rscale>
<asrwt>0</asrwt>
<pdfrwt beam="1">  1        2 0.42551960E-01 0.23130185E+03</pdfrwt>
<pdfrwt beam="2">  1       -2 0.64147919E-02 0.23130185E+03</pdfrwt>
<totfact> 0.15604498E+04</totfact>
</mgrwt>
</event>
<event>
 4    1  0.4950349E-004  0.3297062E+03  0.7818608E-02  0.1071267E+00
          2   -1    0    0  501    0  0.00000000000E+00  0.00000000000E+00  0.38662702938E+02  0.38662703022E+02  0.25500000000E-02 0.  1.
         -2   -1    0    0    0  501 -0.00000000000E+00 -0.00000000000E+00 -0.70291361628E+03  0.70291361628E+03  0.25500000000E-02 0. -1.
    5000001    1    1    2    0    0  0.22974422009E+02  0.12453391856E+03 -0.16976131571E+03  0.22535399986E+03  0.77000000000E+02 0.  0.
   -5000001    1    1    2    0    0 -0.22974422009E+02 -0.12453391856E+03 -0.49448959762E+03  0.51622231945E+03  0.77000000000E+02 0.  0.
<mgrwt>
<rscale>  0 0.32970617E+03</rscale>
<asrwt>0</asrwt>
<pdfrwt beam="1">  1        2 0.55232437E-02 0.32970617E+03</pdfrwt>
<pdfrwt beam="2">  1       -2 0.10041622E+00 0.32970617E+03</pdfrwt>
<totfact> 0.11762745E+03</totfact>
</mgrwt>
</event>
<event>
 4    1  0.4950349E-004  0.2134480E+03  0.7818608E-02  0.1138864E+00
          2   -1    0    0  501    0  0.00000000000E+00  0.00000000000E+00  0.10194044857E+03  0.10194044861E+03  0.25500000000E-02 0.  1.
         -2   -1    0    0    0  501 -0.00000000000E+00 -0.00000000000E+00 -0.11173203809E+03  0.11173203812E+03  0.25500000000E-02 0. -1.
    5000001    1    1    2    0    0  0.41685678029E+02 -0.26270604388E+01 -0.65922326754E+02  0.10963279785E+03  0.77000000000E+02 0.  0.
   -5000001    1    1    2    0    0 -0.41685678029E+02  0.26270604388E+01  0.56130737236E+02  0.10403968888E+03  0.77000000000E+02 0.  0.
<mgrwt>
<rscale>  0 0.21344802E+03</rscale>
<asrwt>0</asrwt>
<pdfrwt beam="1">  1        2 0.14562921E-01 0.21344802E+03</pdfrwt>
<pdfrwt beam="2">  1       -2 0.15961720E-01 0.21344802E+03</pdfrwt>
<totfact> 0.12098353E+04</totfact>
</mgrwt>
</event>
<event>
 4    1  0.4950349E-004  0.1943569E+03  0.7818608E-02  0.1154589E+00
         -2   -1    0    0    0  501 -0.00000000000E+00  0.00000000000E+00  0.26214313085E+02  0.26214313209E+02  0.25500000000E-02 0. -1.
          2   -1    0    0  501    0  0.00000000000E+00 -0.00000000000E+00 -0.36024801628E+03  0.36024801628E+03  0.25500000000E-02 0.  1.
    5000001    1    1    2    0    0  0.53893154980E+02  0.12441466400E+02 -0.12458423001E+03  0.15655507851E+03  0.77000000000E+02 0.  0.
   -5000001    1    1    2    0    0 -0.53893154980E+02 -0.12441466400E+02 -0.20944947318E+03  0.22990725098E+03  0.77000000000E+02 0.  0.
<mgrwt>
<rscale>  0 0.19435693E+03</rscale>
<asrwt>0</asrwt>
<pdfrwt beam="1">  1        2 0.51464000E-01 0.19435693E+03</pdfrwt>
<pdfrwt beam="2">  1       -2 0.37449021E-02 0.19435693E+03</pdfrwt>
<totfact> 0.28375562E+04</totfact>
</mgrwt>
</event>
<event>
 4    1  0.4950349E-004  0.1926005E+03  0.7818608E-02  0.1156137E+00
          2   -1    0    0  501    0  0.00000000000E+00  0.00000000000E+00  0.20794621909E+02  0.20794622065E+02  0.25500000000E-02 0.  1.
         -2   -1    0    0    0  501 -0.00000000000E+00 -0.00000000000E+00 -0.44596794724E+03  0.44596794725E+03  0.25500000000E-02 0. -1.
    5000001    1    1    2    0    0  0.45019317241E+02 -0.36135104993E+02 -0.22106887878E+03  0.24110772261E+03  0.77000000000E+02 0.  0.
   -5000001    1    1    2    0    0 -0.45019317241E+02  0.36135104993E+02 -0.20410444655E+03  0.22565484670E+03  0.77000000000E+02 0.  0.
<mgrwt>
<rscale>  0 0.19260047E+03</rscale>
<asrwt>0</asrwt>
<pdfrwt beam="1">  1        2 0.29706606E-02 0.19260047E+03</pdfrwt>
<pdfrwt beam="2">  1       -2 0.63709701E-01 0.19260047E+03</pdfrwt>
<totfact> 0.71877497E+03</totfact>
</mgrwt>
</event>
<event>
 4    1  0.4950349E-004  0.1869177E+03  0.7818608E-02  0.1161271E+00
          2   -1    0    0  501    0  0.00000000000E+00  0.00000000000E+00  0.23958692909E+04  0.23958692909E+04  0.25500000000E-02 0.  1.
         -2   -1    0    0    0  501 -0.00000000000E+00 -0.00000000000E+00 -0.36456744436E+01  0.36456753354E+01  0.25500000000E-02 0. -1.
    5000001    1    1    2    0    0  0.29797728414E+02  0.29155676795E+02  0.16155594051E+04  0.16179305144E+04  0.77000000000E+02 0.  0.
   -5000001    1    1    2    0    0 -0.29797728414E+02 -0.29155676795E+02  0.77666421130E+03  0.78158445176E+03  0.77000000000E+02 0.  0.
<mgrwt>
<rscale>  0 0.18691774E+03</rscale>
<asrwt>0</asrwt>
<pdfrwt beam="1">  1        2 0.34226763E+00 0.18691774E+03</pdfrwt>
<pdfrwt beam="2">  1       -2 0.52080980E-03 0.18691774E+03</pdfrwt>
<totfact> 0.30454239E+04</totfact>
</mgrwt>
</event>
<event>
 4    1  0.4950349E-004  0.2117149E+03  0.7818608E-02  0.1140215E+00
         -2   -1    0    0    0  501 -0.00000000000E+00  0.00000000000E+00  0.66451178050E+01  0.66451182943E+01  0.25500000000E-02 0. -1.
          2   -1    0    0  501    0  0.00000000000E+00 -0.00000000000E+00 -0.16863201647E+04  0.16863201647E+04  0.25500000000E-02 0.  1.
    5000001    1    1    2    0    0  0.62155932778E+02  0.87098508068E+01 -0.11322903177E+04  0.11366396021E+04  0.77000000000E+02 0.  0.
   -5000001    1    1    2    0    0 -0.62155932778E+02 -0.87098508068E+01 -0.54738472918E+03  0.55632568090E+03  0.77000000000E+02 0.  0.
<mgrwt>
<rscale>  0 0.21171487E+03</rscale>
<asrwt>0</asrwt>
<pdfrwt beam="1">  1        2 0.24090261E+00 0.21171487E+03</pdfrwt>
<pdfrwt beam="2">  1       -2 0.94930366E-03 0.21171487E+03</pdfrwt>
<totfact> 0.28550219E+04</totfact>
</mgrwt>
</event>
<event>
 4    1  0.4950349E-004  0.1954704E+03  0.7818608E-02  0.1153618E+00
          2   -1    0    0  501    0  0.00000000000E+00  0.00000000000E+00  0.10568097231E+04  0.10568097231E+04  0.25500000000E-02 0.  1.
         -2   -1    0    0    0  501 -0.00000000000E+00 -0.00000000000E+00 -0.90386812004E+01  0.90386815601E+01  0.25500000000E-02 0. -1.
    5000001    1    1    2    0    0  0.47931983650E+02 -0.31639454104E+02  0.62213109994E+03  0.62950348341E+03  0.77000000000E+02 0.  0.
   -5000001    1    1    2    0    0 -0.47931983650E+02  0.31639454104E+02  0.42563994199E+03  0.43634492128E+03  0.77000000000E+02 0.  0.
<mgrwt>
<rscale>  0 0.19547037E+03</rscale>
<asrwt>0</asrwt>
<pdfrwt beam="1">  1        2 0.15097272E+00 0.19547037E+03</pdfrwt>
<pdfrwt beam="2">  1       -2 0.12912411E-02 0.19547037E+03</pdfrwt>
<totfact> 0.38552255E+04</totfact>
</mgrwt>
</event>
<event>
 4    1  0.4950349E-004  0.2202295E+03  0.7818608E-02  0.1133712E+00
         -2   -1    0    0    0  501 -0.00000000000E+00  0.00000000000E+00  0.57680359089E+01  0.57680364726E+01  0.25500000000E-02 0. -1.
          2   -1    0    0  501    0  0.00000000000E+00 -0.00000000000E+00 -0.21021468786E+04  0.21021468786E+04  0.25500000000E-02 0.  1.
    5000001    1    1    2    0    0  0.76441077446E+02 -0.13300626321E+02 -0.92116861377E+03  0.92763180195E+03  0.77000000000E+02 0.  0.
   -5000001    1    1    2    0    0 -0.76441077446E+02  0.13300626321E+02 -0.11752102290E+04  0.11802831132E+04  0.77000000000E+02 0.  0.
<mgrwt>
<rscale>  0 0.22022951E+03</rscale>
<asrwt>0</asrwt>
<pdfrwt beam="1">  1        2 0.30030621E+00 0.22022951E+03</pdfrwt>
<pdfrwt beam="2">  1       -2 0.82400651E-03 0.22022951E+03</pdfrwt>
<totfact> 0.22053285E+04</totfact>
</mgrwt>
</event>
<event>
 4    1  0.4950349E-004  0.2496690E+03  0.7818608E-02  0.1113514E+00
         -2   -1    0    0    0  501 -0.00000000000E+00  0.00000000000E+00  0.98479367978E+03  0.98479367978E+03  0.25500000000E-02 0. -1.
          2   -1    0    0  501    0  0.00000000000E+00 -0.00000000000E+00 -0.15824278339E+02  0.15824278544E+02  0.25500000000E-02 0.  1.
    5000001    1    1    2    0    0  0.80078433365E+01  0.85159427438E+02  0.29068070776E+03  0.31263481492E+03  0.77000000000E+02 0.  0.
   -5000001    1    1    2    0    0 -0.80078433365E+01 -0.85159427438E+02  0.67828869368E+03  0.68798314341E+03  0.77000000000E+02 0.  0.
<mgrwt>
<rscale>  0 0.24966898E+03</rscale>
<asrwt>0</asrwt>
<pdfrwt beam="1">  1        2 0.22606114E-02 0.24966898E+03</pdfrwt>
<pdfrwt beam="2">  1       -2 0.14068480E+00 0.24966898E+03</pdfrwt>
<totfact> 0.17214573E+03</totfact>
</mgrwt>
</event>
<event>
 4    1  0.4950349E-004  0.2119187E+03  0.7818608E-02  0.1140056E+00
         -2   -1    0    0    0  501 -0.00000000000E+00  0.00000000000E+00  0.11541424083E+03  0.11541424086E+03  0.25500000000E-02 0. -1.
          2   -1    0    0  501    0  0.00000000000E+00 -0.00000000000E+00 -0.97278977842E+02  0.97278977876E+02  0.25500000000E-02 0.  1.
    5000001    1    1    2    0    0  0.18093135275E+02  0.70424248160E+02  0.12462762101E+02  0.10663609479E+03  0.77000000000E+02 0.  0.
   -5000001    1    1    2    0    0 -0.18093135275E+02 -0.70424248160E+02  0.56725008866E+01  0.10605712394E+03  0.77000000000E+02 0.  0.
<mgrwt>
<rscale>  0 0.21191866E+03</rscale>
<asrwt>0</asrwt>
<pdfrwt beam="1">  1        2 0.13896997E-01 0.21191866E+03</pdfrwt>
<pdfrwt beam="2">  1       -2 0.16487749E-01 0.21191866E+03</pdfrwt>
<totfact> 0.12114111E+04</totfact>
</mgrwt>
</event>
<event>
 4    1  0.4950349E-004  0.2560088E+03  0.7818608E-02  0.1109565E+00
          2   -1    0    0  501    0  0.00000000000E+00  0.00000000000E+00  0.31754479775E+03  0.31754479776E+03  0.25500000000E-02 0.  1.
         -2   -1    0    0    0  501 -0.00000000000E+00 -0.00000000000E+00 -0.51599433540E+02  0.51599433603E+02  0.25500000000E-02 0. -1.
    5000001    1    1    2    0    0 -0.61265014335E+02 -0.58155561719E+02  0.49881803522E+02  0.12471032701E+03  0.77000000000E+02 0.  0.
   -5000001    1    1    2    0    0  0.61265014335E+02  0.58155561719E+02  0.21606356068E+03  0.24443390435E+03  0.77000000000E+02 0.  0.
<mgrwt>
<rscale>  0 0.25600884E+03</rscale>
<asrwt>0</asrwt>
<pdfrwt beam="1">  1        2 0.45363543E-01 0.25600884E+03</pdfrwt>
<pdfrwt beam="2">  1       -2 0.73713477E-02 0.25600884E+03</pdfrwt>
<totfact> 0.11820988E+04</totfact>
</mgrwt>
</event>
<event>
 4    1  0.4950349E-004  0.2832761E+03  0.7818608E-02  0.1093913E+00
         -2   -1    0    0    0  501 -0.00000000000E+00  0.00000000000E+00  0.19780658334E+02  0.19780658498E+02  0.25500000000E-02 0. -1.
          2   -1    0    0  501    0  0.00000000000E+00 -0.00000000000E+00 -0.10141898502E+04  0.10141898502E+04  0.25500000000E-02 0.  1.
    5000001    1    1    2    0    0  0.19779446763E+02  0.11688992581E+03 -0.52941233042E+03  0.54796067091E+03  0.77000000000E+02 0.  0.
   -5000001    1    1    2    0    0 -0.19779446763E+02 -0.11688992581E+03 -0.46499686149E+03  0.48600983783E+03  0.77000000000E+02 0.  0.
<mgrwt>
<rscale>  0 0.28327614E+03</rscale>
<asrwt>0</asrwt>
<pdfrwt beam="1">  1        2 0.14488423E+00 0.28327614E+03</pdfrwt>
<pdfrwt beam="2">  1       -2 0.28258090E-02 0.28327614E+03</pdfrwt>
<totfact> 0.13208010E+04</totfact>
</mgrwt>
</event>
<event>
 4    1  0.4950349E-004  0.2812198E+03  0.7818608E-02  0.1095025E+00
         -2   -1    0    0    0  501 -0.00000000000E+00  0.00000000000E+00  0.79998391836E+01  0.79998395900E+01  0.25500000000E-02 0. -1.
          2   -1    0    0  501    0  0.00000000000E+00 -0.00000000000E+00 -0.24714422524E+04  0.24714422524E+04  0.25500000000E-02 0.  1.
    5000001    1    1    2    0    0 -0.58323273493E+02 -0.74087500173E+02 -0.61130952011E+03  0.62331283582E+03  0.77000000000E+02 0.  0.
   -5000001    1    1    2    0    0  0.58323273493E+02  0.74087500173E+02 -0.18521328931E+04  0.18561292562E+04  0.77000000000E+02 0.  0.
<mgrwt>
<rscale>  0 0.28121978E+03</rscale>
<asrwt>0</asrwt>
<pdfrwt beam="1">  1        2 0.35306269E+00 0.28121978E+03</pdfrwt>
<pdfrwt beam="2">  1       -2 0.11428358E-02 0.28121978E+03</pdfrwt>
<totfact> 0.90972669E+03</totfact>
</mgrwt>
</event>
<event>
 4    1  0.4950349E-004  0.2740065E+03  0.7818608E-02  0.1099008E+00
          2   -1    0    0  501    0  0.00000000000E+00  0.00000000000E+00  0.30092632169E+03  0.30092632170E+03  0.25500000000E-02 0.  1.
         -2   -1    0    0    0  501 -0.00000000000E+00 -0.00000000000E+00 -0.62373712224E+02  0.62373712276E+02  0.25500000000E-02 0. -1.
    5000001    1    1    2    0    0 -0.43224758860E+02 -0.10349695773E+03  0.97860483063E+02  0.16758781037E+03  0.77000000000E+02 0.  0.
   -5000001    1    1    2    0    0  0.43224758860E+02  0.10349695773E+03  0.14069212640E+03  0.19571222361E+03  0.77000000000E+02 0.  0.
<mgrwt>
<rscale>  0 0.27400651E+03</rscale>
<asrwt>0</asrwt>
<pdfrwt beam="1">  1        2 0.42989475E-01 0.27400651E+03</pdfrwt>
<pdfrwt beam="2">  1       -2 0.89105303E-02 0.27400651E+03</pdfrwt>
<totfact> 0.93412346E+03</totfact>
</mgrwt>
</event>
<event>
 4    1  0.4950349E-004  0.2777671E+03  0.7818608E-02  0.1096915E+00
         -2   -1    0    0    0  501 -0.00000000000E+00  0.00000000000E+00  0.98503575473E+01  0.98503578773E+01  0.25500000000E-02 0. -1.
          2   -1    0    0  501    0  0.00000000000E+00 -0.00000000000E+00 -0.19581658004E+04  0.19581658004E+04  0.25500000000E-02 0.  1.
    5000001    1    1    2    0    0 -0.26479498844E+02 -0.10542618298E+03 -0.12525402654E+04  0.12596038902E+04  0.77000000000E+02 0.  0.
   -5000001    1    1    2    0    0  0.26479498844E+02  0.10542618298E+03 -0.69577517746E+03  0.70841226803E+03  0.77000000000E+02 0.  0.
<mgrwt>
<rscale>  0 0.27776705E+03</rscale>
<asrwt>0</asrwt>
<pdfrwt beam="1">  1        2 0.27973772E+00 0.27776705E+03</pdfrwt>
<pdfrwt beam="2">  1       -2 0.14071952E-02 0.27776705E+03</pdfrwt>
<totfact> 0.11996713E+04</totfact>
</mgrwt>
</event>
<event>
 4    1  0.4950349E-004  0.3442367E+03  0.7818608E-02  0.1065006E+00
         -2   -1    0    0    0  501 -0.00000000000E+00  0.00000000000E+00  0.14093928879E+02  0.14093929110E+02  0.25500000000E-02 0. -1.
          2   -1    0    0  501    0  0.00000000000E+00 -0.00000000000E+00 -0.21019494189E+04  0.21019494189E+04  0.25500000000E-02 0.  1.
    5000001    1    1    2    0    0  0.12136492976E+02  0.14686627971E+03 -0.77048880253E+03  0.78822521743E+03  0.77000000000E+02 0.  0.
   -5000001    1    1    2    0    0 -0.12136492976E+02 -0.14686627971E+03 -0.13173666875E+04  0.13278181306E+04  0.77000000000E+02 0.  0.
<mgrwt>
<rscale>  0 0.34423670E+03</rscale>
<asrwt>0</asrwt>
<pdfrwt beam="1">  1        2 0.30027829E+00 0.34423670E+03</pdfrwt>
<pdfrwt beam="2">  1       -2 0.20134198E-02 0.34423670E+03</pdfrwt>
<totfact> 0.60344883E+03</totfact>
</mgrwt>
</event>
<event>
 4    1  0.4950349E-004  0.1885436E+03  0.7818608E-02  0.1159782E+00
         -2   -1    0    0    0  501 -0.00000000000E+00  0.00000000000E+00  0.12431571553E+02  0.12431571815E+02  0.25500000000E-02 0. -1.
          2   -1    0    0  501    0  0.00000000000E+00 -0.00000000000E+00 -0.71488724919E+03  0.71488724920E+03  0.25500000000E-02 0.  1.
    5000001    1    1    2    0    0  0.49217293540E+02  0.32346129673E+01 -0.43964663321E+03  0.44905563886E+03  0.77000000000E+02 0.  0.
   -5000001    1    1    2    0    0 -0.49217293540E+02 -0.32346129673E+01 -0.26280904444E+03  0.27826318215E+03  0.77000000000E+02 0.  0.
<mgrwt>
<rscale>  0 0.18854360E+03</rscale>
<asrwt>0</asrwt>
<pdfrwt beam="1">  1        2 0.10212672E+00 0.18854360E+03</pdfrwt>
<pdfrwt beam="2">  1       -2 0.17759393E-02 0.18854360E+03</pdfrwt>
<totfact> 0.39747103E+04</totfact>
</mgrwt>
</event>
<event>
 4    1  0.4950349E-004  0.2201384E+03  0.7818608E-02  0.1133780E+00
         -2   -1    0    0    0  501 -0.00000000000E+00  0.00000000000E+00  0.10247513485E+02  0.10247513802E+02  0.25500000000E-02 0. -1.
          2   -1    0    0  501    0  0.00000000000E+00 -0.00000000000E+00 -0.11822605416E+04  0.11822605416E+04  0.25500000000E-02 0.  1.
    5000001    1    1    2    0    0 -0.44765436939E+02  0.61576059236E+02 -0.47893507754E+03  0.49102277332E+03  0.77000000000E+02 0.  0.
   -5000001    1    1    2    0    0  0.44765436939E+02 -0.61576059236E+02 -0.69307795055E+03  0.70148528207E+03  0.77000000000E+02 0.  0.
<mgrwt>
<rscale>  0 0.22013842E+03</rscale>
<asrwt>0</asrwt>
<pdfrwt beam="1">  1        2 0.16889428E+00 0.22013842E+03</pdfrwt>
<pdfrwt beam="2">  1       -2 0.14639313E-02 0.22013842E+03</pdfrwt>
<totfact> 0.27597242E+04</totfact>
</mgrwt>
</event>
<event>
 4    1  0.4950349E-004  0.2011257E+03  0.7818608E-02  0.1148793E+00
         -2   -1    0    0    0  501 -0.00000000000E+00  0.00000000000E+00  0.22206405197E+02  0.22206405344E+02  0.25500000000E-02 0. -1.
          2   -1    0    0  501    0  0.00000000000E+00 -0.00000000000E+00 -0.45540409812E+03  0.45540409813E+03  0.25500000000E-02 0.  1.
    5000001    1    1    2    0    0  0.29666293853E+02  0.56962222975E+02 -0.23485524859E+03  0.25536399830E+03  0.77000000000E+02 0.  0.
   -5000001    1    1    2    0    0 -0.29666293853E+02 -0.56962222975E+02 -0.19834244434E+03  0.22224650518E+03  0.77000000000E+02 0.  0.
<mgrwt>
<rscale>  0 0.20112571E+03</rscale>
<asrwt>0</asrwt>
<pdfrwt beam="1">  1        2 0.65057723E-01 0.20112571E+03</pdfrwt>
<pdfrwt beam="2">  1       -2 0.31723439E-02 0.20112571E+03</pdfrwt>
<totfact> 0.28298823E+04</totfact>
</mgrwt>
</event>
<event>
 4    1  0.4950349E-004  0.2236376E+03  0.7818608E-02  0.1131200E+00
          2   -1    0    0  501    0  0.00000000000E+00  0.00000000000E+00  0.51103355767E+03  0.51103355767E+03  0.25500000000E-02 0.  1.
         -2   -1    0    0    0  501 -0.00000000000E+00 -0.00000000000E+00 -0.24466973461E+02  0.24466973593E+02  0.25500000000E-02 0. -1.
    5000001    1    1    2    0    0  0.71898114874E+02  0.35298903996E+02  0.27348563187E+03  0.29519272075E+03  0.77000000000E+02 0.  0.
   -5000001    1    1    2    0    0 -0.71898114874E+02 -0.35298903996E+02  0.21308095234E+03  0.24030781052E+03  0.77000000000E+02 0.  0.
<mgrwt>
<rscale>  0 0.22363760E+03</rscale>
<asrwt>0</asrwt>
<pdfrwt beam="1">  1        2 0.73004789E-01 0.22363760E+03</pdfrwt>
<pdfrwt beam="2">  1       -2 0.34952822E-02 0.22363760E+03</pdfrwt>
<totfact> 0.21762728E+04</totfact>
</mgrwt>
</event>
<event>
 4    1  0.4950349E-004  0.2340314E+03  0.7818608E-02  0.1123834E+00
         -2   -1    0    0    0  501 -0.00000000000E+00  0.00000000000E+00  0.72712930769E+01  0.72712935241E+01  0.25500000000E-02 0. -1.
          2   -1    0    0  501    0  0.00000000000E+00 -0.00000000000E+00 -0.18831142804E+04  0.18831142804E+04  0.25500000000E-02 0.  1.
    5000001    1    1    2    0    0  0.21124211128E+02 -0.36867497755E+02 -0.15614192828E+04  0.15638940570E+04  0.77000000000E+02 0.  0.
   -5000001    1    1    2    0    0 -0.21124211128E+02  0.36867497755E+02 -0.31442370452E+03  0.32649151697E+03  0.77000000000E+02 0.  0.
<mgrwt>
<rscale>  0 0.23403142E+03</rscale>
<asrwt>0</asrwt>
<pdfrwt beam="1">  1        2 0.26901601E+00 0.23403142E+03</pdfrwt>
<pdfrwt beam="2">  1       -2 0.10387574E-02 0.23403142E+03</pdfrwt>
<totfact> 0.20194676E+04</totfact>
</mgrwt>
</event>
<event>
 4    1  0.4950349E-004  0.4079360E+03  0.7818608E-02  0.1041066E+00
         -2   -1    0    0    0  501 -0.00000000000E+00  0.00000000000E+00  0.20828387743E+03  0.20828387745E+03  0.25500000000E-02 0. -1.
          2   -1    0    0  501    0  0.00000000000E+00 -0.00000000000E+00 -0.19974157095E+03  0.19974157097E+03  0.25500000000E-02 0.  1.
    5000001    1    1    2    0    0  0.63195832975E+02 -0.15808275197E+03 -0.77539681555E+02  0.20229995549E+03  0.77000000000E+02 0.  0.
   -5000001    1    1    2    0    0 -0.63195832975E+02  0.15808275197E+03  0.86081988034E+02  0.20572549293E+03  0.77000000000E+02 0.  0.
<mgrwt>
<rscale>  0 0.40793602E+03</rscale>
<asrwt>0</asrwt>
<pdfrwt beam="1">  1        2 0.28534510E-01 0.40793602E+03</pdfrwt>
<pdfrwt beam="2">  1       -2 0.29754840E-01 0.40793602E+03</pdfrwt>
<totfact> 0.19401919E+03</totfact>
</mgrwt>
</event>
<event>
 4    1  0.4950349E-004  0.2431400E+03  0.7818608E-02  0.1117719E+00
          2   -1    0    0  501    0  0.00000000000E+00  0.00000000000E+00  0.15179311047E+04  0.15179311047E+04  0.25500000000E-02 0.  1.
         -2   -1    0    0    0  501 -0.00000000000E+00 -0.00000000000E+00 -0.97364566976E+01  0.97364570315E+01  0.25500000000E-02 0. -1.
    5000001    1    1    2    0    0  0.56618627772E+01 -0.90296972449E+02  0.59211200326E+03  0.60391325894E+03  0.77000000000E+02 0.  0.
   -5000001    1    1    2    0    0 -0.56618627772E+01  0.90296972449E+02  0.91608264470E+03  0.92375430275E+03  0.77000000000E+02 0.  0.
<mgrwt>
<rscale>  0 0.24314005E+03</rscale>
<asrwt>0</asrwt>
<pdfrwt beam="1">  1        2 0.21684718E+00 0.24314005E+03</pdfrwt>
<pdfrwt beam="2">  1       -2 0.13909232E-02 0.24314005E+03</pdfrwt>
<totfact> 0.20012283E+04</totfact>
</mgrwt>
</event>
<event>
 4    1  0.4950349E-004  0.2052475E+03  0.7818608E-02  0.1145386E+00
         -2   -1    0    0    0  501 -0.00000000000E+00  0.00000000000E+00  0.80423520497E+01  0.80423524540E+01  0.25500000000E-02 0. -1.
          2   -1    0    0  501    0  0.00000000000E+00 -0.00000000000E+00 -0.13095219797E+04  0.13095219797E+04  0.25500000000E-02 0.  1.
    5000001    1    1    2    0    0  0.11104345844E+02  0.54034709690E+02 -0.39722822458E+03  0.40836542306E+03  0.77000000000E+02 0.  0.
   -5000001    1    1    2    0    0 -0.11104345844E+02 -0.54034709690E+02 -0.90425140305E+03  0.90919890908E+03  0.77000000000E+02 0.  0.
<mgrwt>
<rscale>  0 0.20524753E+03</rscale>
<asrwt>0</asrwt>
<pdfrwt beam="1">  1        2 0.18707443E+00 0.20524753E+03</pdfrwt>
<pdfrwt beam="2">  1       -2 0.11489083E-02 0.20524753E+03</pdfrwt>
<totfact> 0.33429087E+04</totfact>
</mgrwt>
</event>
<event>
 4    1  0.4950349E-004  0.3163151E+03  0.7818608E-02  0.1077358E+00
          2   -1    0    0  501    0  0.00000000000E+00  0.00000000000E+00  0.11723786572E+04  0.11723786572E+04  0.25500000000E-02 0.  1.
         -2   -1    0    0    0  501 -0.00000000000E+00 -0.00000000000E+00 -0.21335950498E+02  0.21335950651E+02  0.25500000000E-02 0. -1.
    5000001    1    1    2    0    0  0.56579134594E+02 -0.12600734649E+03  0.58458106188E+03  0.60559315365E+03  0.77000000000E+02 0.  0.
   -5000001    1    1    2    0    0 -0.56579134594E+02  0.12600734649E+03  0.56646164483E+03  0.58812145421E+03  0.77000000000E+02 0.  0.
<mgrwt>
<rscale>  0 0.31631512E+03</rscale>
<asrwt>0</asrwt>
<pdfrwt beam="1">  1        2 0.16748266E+00 0.31631512E+03</pdfrwt>
<pdfrwt beam="2">  1       -2 0.30479931E-02 0.31631512E+03</pdfrwt>
<totfact> 0.96263302E+03</totfact>
</mgrwt>
</event>
<event>
 4    1  0.4950349E-004  0.2377522E+03  0.7818608E-02  0.1121299E+00
         -2   -1    0    0    0  501 -0.00000000000E+00  0.00000000000E+00  0.44161876820E+01  0.44161884182E+01  0.25500000000E-02 0. -1.
          2   -1    0    0  501    0  0.00000000000E+00 -0.00000000000E+00 -0.31999390924E+04  0.31999390924E+04  0.25500000000E-02 0.  1.
    5000001    1    1    2    0    0 -0.12564730977E+02  0.41347634161E+02 -0.52503129947E+03  0.53240432450E+03  0.77000000000E+02 0.  0.
   -5000001    1    1    2    0    0  0.12564730977E+02 -0.41347634161E+02 -0.26704916052E+04  0.26719509563E+04  0.77000000000E+02 0.  0.
<mgrwt>
<rscale>  0 0.23775225E+03</rscale>
<asrwt>0</asrwt>
<pdfrwt beam="1">  1        2 0.45713267E+00 0.23775225E+03</pdfrwt>
<pdfrwt beam="2">  1       -2 0.63088606E-03 0.23775225E+03</pdfrwt>
<totfact> 0.90040598E+03</totfact>
</mgrwt>
</event>
<event>
 4    1  0.4950349E-004  0.3825488E+03  0.7818608E-02  0.1049996E+00
          2   -1    0    0  501    0  0.00000000000E+00  0.00000000000E+00  0.50558316979E+02  0.50558317043E+02  0.25500000000E-02 0.  1.
         -2   -1    0    0    0  501 -0.00000000000E+00 -0.00000000000E+00 -0.72363768608E+03  0.72363768609E+03  0.25500000000E-02 0. -1.
    5000001    1    1    2    0    0 -0.31404803304E+02  0.15732796310E+03 -0.47847247914E+03  0.51049315660E+03  0.77000000000E+02 0.  0.
   -5000001    1    1    2    0    0  0.31404803304E+02 -0.15732796310E+03 -0.19460688997E+03  0.26370284653E+03  0.77000000000E+02 0.  0.
<mgrwt>
<rscale>  0 0.38254884E+03</rscale>
<asrwt>0</asrwt>
<pdfrwt beam="1">  1        2 0.72226171E-02 0.38254884E+03</pdfrwt>
<pdfrwt beam="2">  1       -2 0.10337681E+00 0.38254884E+03</pdfrwt>
<totfact> 0.77495755E+02</totfact>
</mgrwt>
</event>
<event>
 4    1  0.4950349E-004  0.4144433E+03  0.7818608E-02  0.1038890E+00
         -2   -1    0    0    0  501 -0.00000000000E+00  0.00000000000E+00  0.26253242393E+02  0.26253242517E+02  0.25500000000E-02 0. -1.
          2   -1    0    0  501    0  0.00000000000E+00 -0.00000000000E+00 -0.16356387604E+04  0.16356387604E+04  0.25500000000E-02 0.  1.
    5000001    1    1    2    0    0 -0.87652534832E+02 -0.17077607286E+03 -0.85610557545E+03  0.88073446069E+03  0.77000000000E+02 0.  0.
   -5000001    1    1    2    0    0  0.87652534832E+02  0.17077607286E+03 -0.75327994253E+03  0.78115754221E+03  0.77000000000E+02 0.  0.
<mgrwt>
<rscale>  0 0.41444334E+03</rscale>
<asrwt>0</asrwt>
<pdfrwt beam="1">  1        2 0.23366262E+00 0.41444334E+03</pdfrwt>
<pdfrwt beam="2">  1       -2 0.37504642E-02 0.41444334E+03</pdfrwt>
<totfact> 0.40456279E+03</totfact>
</mgrwt>
</event>
<event>
 4    1  0.4950349E-004  0.2188019E+03  0.7818608E-02  0.1134779E+00
         -2   -1    0    0    0  501 -0.00000000000E+00  0.00000000000E+00  0.17556709239E+02  0.17556709424E+02  0.25500000000E-02 0. -1.
          2   -1    0    0  501    0  0.00000000000E+00 -0.00000000000E+00 -0.68170896907E+03  0.68170896907E+03  0.25500000000E-02 0.  1.
    5000001    1    1    2    0    0 -0.63518615376E+02  0.15745739019E+01 -0.18906348878E+03  0.21380153548E+03  0.77000000000E+02 0.  0.
   -5000001    1    1    2    0    0  0.63518615376E+02 -0.15745739019E+01 -0.47508877105E+03  0.48546414302E+03  0.77000000000E+02 0.  0.
<mgrwt>
<rscale>  0 0.21880189E+03</rscale>
<asrwt>0</asrwt>
<pdfrwt beam="1">  1        2 0.97386979E-01 0.21880189E+03</pdfrwt>
<pdfrwt beam="2">  1       -2 0.25081018E-02 0.21880189E+03</pdfrwt>
<totfact> 0.25634577E+04</totfact>
</mgrwt>
</event>
<event>
 4    1  0.4950349E-004  0.2208362E+03  0.7818608E-02  0.1133261E+00
         -2   -1    0    0    0  501 -0.00000000000E+00  0.00000000000E+00  0.10490334496E+04  0.10490334496E+04  0.25500000000E-02 0. -1.
          2   -1    0    0  501    0  0.00000000000E+00 -0.00000000000E+00 -0.11622278702E+02  0.11622278982E+02  0.25500000000E-02 0.  1.
    5000001    1    1    2    0    0 -0.35490738492E+02 -0.64839751751E+02  0.38291209132E+03  0.39751032138E+03  0.77000000000E+02 0.  0.
   -5000001    1    1    2    0    0  0.35490738492E+02  0.64839751751E+02  0.65449907958E+03  0.66314540720E+03  0.77000000000E+02 0.  0.
<mgrwt>
<rscale>  0 0.22083622E+03</rscale>
<asrwt>0</asrwt>
<pdfrwt beam="1">  1        2 0.16603251E-02 0.22083622E+03</pdfrwt>
<pdfrwt beam="2">  1       -2 0.14986196E+00 0.22083622E+03</pdfrwt>
<totfact> 0.22298484E+03</totfact>
</mgrwt>
</event>
<event>
 4    1  0.4950349E-004  0.2486572E+03  0.7818608E-02  0.1114156E+00
         -2   -1    0    0    0  501 -0.00000000000E+00  0.00000000000E+00  0.21041435301E+02  0.21041435456E+02  0.25500000000E-02 0. -1.
          2   -1    0    0  501    0  0.00000000000E+00 -0.00000000000E+00 -0.73462688393E+03  0.73462688393E+03  0.25500000000E-02 0.  1.
    5000001    1    1    2    0    0  0.25807118079E+02 -0.92250408454E+02 -0.41384649778E+03  0.43171063101E+03  0.77000000000E+02 0.  0.
   -5000001    1    1    2    0    0 -0.25807118079E+02  0.92250408454E+02 -0.29973895085E+03  0.32395768838E+03  0.77000000000E+02 0.  0.
<mgrwt>
<rscale>  0 0.24865723E+03</rscale>
<asrwt>0</asrwt>
<pdfrwt beam="1">  1        2 0.10494668E+00 0.24865723E+03</pdfrwt>
<pdfrwt beam="2">  1       -2 0.30059198E-02 0.24865723E+03</pdfrwt>
<totfact> 0.18084672E+04</totfact>
</mgrwt>
</event>
<event>
 4    1  0.4950349E-004  0.1801638E+03  0.7818608E-02  0.1167645E+00
          2   -1    0    0  501    0  0.00000000000E+00  0.00000000000E+00  0.86883510443E+03  0.86883510444E+03  0.25500000000E-02 0.  1.
         -2   -1    0    0    0  501 -0.00000000000E+00 -0.00000000000E+00 -0.93398056100E+01  0.93398059581E+01  0.25500000000E-02 0. -1.
    5000001    1    1    2    0    0  0.19040921811E+02  0.19480927892E+02  0.61495153001E+03  0.62035187395E+03  0.77000000000E+02 0.  0.
   -5000001    1    1    2    0    0 -0.19040921811E+02 -0.19480927892E+02  0.24454376881E+03  0.25782303644E+03  0.77000000000E+02 0.  0.
<mgrwt>
<rscale>  0 0.18016383E+03</rscale>
<asrwt>0</asrwt>
<pdfrwt beam="1">  1        2 0.12411934E+00 0.18016383E+03</pdfrwt>
<pdfrwt beam="2">  1       -2 0.13342575E-02 0.18016383E+03</pdfrwt>
<totfact> 0.47276280E+04</totfact>
</mgrwt>
</event>
<event>
 4    1  0.4950349E-004  0.2332347E+03  0.7818608E-02  0.1124384E+00
          2   -1    0    0  501    0  0.00000000000E+00  0.00000000000E+00  0.24541630384E+03  0.24541630385E+03  0.25500000000E-02 0.  1.
         -2   -1    0    0    0  501 -0.00000000000E+00 -0.00000000000E+00 -0.55414418147E+02  0.55414418205E+02  0.25500000000E-02 0. -1.
    5000001    1    1    2    0    0 -0.83818277018E+02  0.24364668910E+02  0.10425364045E+03  0.15625927877E+03  0.77000000000E+02 0.  0.
   -5000001    1    1    2    0    0  0.83818277018E+02 -0.24364668910E+02  0.85748245244E+02  0.14457144329E+03  0.77000000000E+02 0.  0.
<mgrwt>
<rscale>  0 0.23323466E+03</rscale>
<asrwt>0</asrwt>
<pdfrwt beam="1">  1        2 0.35059473E-01 0.23323466E+03</pdfrwt>
<pdfrwt beam="2">  1       -2 0.79163453E-02 0.23323466E+03</pdfrwt>
<totfact> 0.13893603E+04</totfact>
</mgrwt>
</event>
<event>
 4    1  0.4950349E-004  0.2336844E+03  0.7818608E-02  0.1124073E+00
          2   -1    0    0  501    0  0.00000000000E+00  0.00000000000E+00  0.55893040633E+03  0.55893040634E+03  0.25500000000E-02 0.  1.
         -2   -1    0    0    0  501 -0.00000000000E+00 -0.00000000000E+00 -0.24425397912E+02  0.24425398045E+02  0.25500000000E-02 0. -1.
    5000001    1    1    2    0    0  0.41567543994E+02 -0.25426999986E+02  0.84683040026E+02  0.12439698674E+03  0.77000000000E+02 0.  0.
   -5000001    1    1    2    0    0 -0.41567543994E+02  0.25426999986E+02  0.44982196839E+03  0.45895881764E+03  0.77000000000E+02 0.  0.
<mgrwt>
<rscale>  0 0.23368438E+03</rscale>
<asrwt>0</asrwt>
<pdfrwt beam="1">  1        2 0.79847207E-01 0.23368438E+03</pdfrwt>
<pdfrwt beam="2">  1       -2 0.34893423E-02 0.23368438E+03</pdfrwt>
<totfact> 0.19803800E+04</totfact>
</mgrwt>
</event>
<event>
 4    1  0.4950349E-004  0.1915051E+03  0.7818608E-02  0.1157111E+00
         -2   -1    0    0    0  501 -0.00000000000E+00  0.00000000000E+00  0.26627691826E+02  0.26627691948E+02  0.25500000000E-02 0. -1.
          2   -1    0    0  501    0  0.00000000000E+00 -0.00000000000E+00 -0.34432383533E+03  0.34432383534E+03  0.25500000000E-02 0.  1.
    5000001    1    1    2    0    0  0.37559691319E+02  0.39455565073E+02 -0.19079894675E+03  0.21283963472E+03  0.77000000000E+02 0.  0.
   -5000001    1    1    2    0    0 -0.37559691319E+02 -0.39455565073E+02 -0.12689719676E+03  0.15811189257E+03  0.77000000000E+02 0.  0.
<mgrwt>
<rscale>  0 0.19150508E+03</rscale>
<asrwt>0</asrwt>
<pdfrwt beam="1">  1        2 0.49189117E-01 0.19150508E+03</pdfrwt>
<pdfrwt beam="2">  1       -2 0.38039562E-02 0.19150508E+03</pdfrwt>
<totfact> 0.29057972E+04</totfact>
</mgrwt>
</event>
<event>
 4    1  0.4950349E-004  0.2058476E+03  0.7818608E-02  0.1144897E+00
          2   -1    0    0  501    0  0.00000000000E+00  0.00000000000E+00  0.12674690423E+03  0.12674690426E+03  0.25500000000E-02 0.  1.
         -2   -1    0    0    0  501 -0.00000000000E+00 -0.00000000000E+00 -0.83578430053E+02  0.83578430092E+02  0.25500000000E-02 0. -1.
    5000001    1    1    2    0    0 -0.65291719997E+01  0.46389752378E+02  0.72361010485E+02  0.11558440661E+03  0.77000000000E+02 0.  0.
   -5000001    1    1    2    0    0  0.65291719997E+01 -0.46389752378E+02 -0.29192536307E+02  0.94740927739E+02  0.77000000000E+02 0.  0.
<mgrwt>
<rscale>  0 0.20584759E+03</rscale>
<asrwt>0</asrwt>
<pdfrwt beam="1">  1        2 0.18106700E-01 0.20584759E+03</pdfrwt>
<pdfrwt beam="2">  1       -2 0.11939776E-01 0.20584759E+03</pdfrwt>
<totfact> 0.15023203E+04</totfact>
</mgrwt>
</event>
<event>
 4    1  0.4950349E-004  0.1851898E+03  0.7818608E-02  0.1162873E+00
          2   -1    0    0  501    0  0.00000000000E+00  0.00000000000E+00  0.91753140990E+01  0.91753144534E+01  0.25500000000E-02 0.  1.
         -2   -1    0    0    0  501 -0.00000000000E+00 -0.00000000000E+00 -0.93444384356E+03  0.93444384356E+03  0.25500000000E-02 0. -1.
    5000001    1    1    2    0    0 -0.32725348753E+02  0.39498990438E+02 -0.48149229305E+03  0.49030087392E+03  0.77000000000E+02 0.  0.
   -5000001    1    1    2    0    0  0.32725348753E+02 -0.39498990438E+02 -0.44377623641E+03  0.45331828409E+03  0.77000000000E+02 0.  0.
<mgrwt>
<rscale>  0 0.18518980E+03</rscale>
<asrwt>0</asrwt>
<pdfrwt beam="1">  1        2 0.13107598E-02 0.18518980E+03</pdfrwt>
<pdfrwt beam="2">  1       -2 0.13349192E+00 0.18518980E+03</pdfrwt>
<totfact> 0.40987647E+03</totfact>
</mgrwt>
</event>
<event>
 4    1  0.4950349E-004  0.2923883E+03  0.7818608E-02  0.1089109E+00
         -2   -1    0    0    0  501 -0.00000000000E+00  0.00000000000E+00  0.79404280290E+02  0.79404280331E+02  0.25500000000E-02 0. -1.
          2   -1    0    0  501    0  0.00000000000E+00 -0.00000000000E+00 -0.26916342089E+03  0.26916342090E+03  0.25500000000E-02 0.  1.
    5000001    1    1    2    0    0  0.38114744194E+02 -0.43892091182E+02  0.36063175602E+02  0.10299903897E+03  0.77000000000E+02 0.  0.
   -5000001    1    1    2    0    0 -0.38114744194E+02  0.43892091182E+02 -0.22582231620E+03  0.24556866227E+03  0.77000000000E+02 0.  0.
<mgrwt>
<rscale>  0 0.29238829E+03</rscale>
<asrwt>0</asrwt>
<pdfrwt beam="1">  1        2 0.38451917E-01 0.29238829E+03</pdfrwt>
<pdfrwt beam="2">  1       -2 0.11343469E-01 0.29238829E+03</pdfrwt>
<totfact> 0.71931326E+03</totfact>
</mgrwt>
</event>
<event>
 4    1  0.4950349E-004  0.2004411E+03  0.7818608E-02  0.1149367E+00
          2   -1    0    0  501    0  0.00000000000E+00  0.00000000000E+00  0.35159124901E+03  0.35159124902E+03  0.25500000000E-02 0.  1.
         -2   -1    0    0    0  501 -0.00000000000E+00 -0.00000000000E+00 -0.28567720664E+02  0.28567720778E+02  0.25500000000E-02 0. -1.
    5000001    1    1    2    0    0  0.43449437550E+02 -0.10392484848E+01  0.25099942175E+03  0.26611772466E+03  0.77000000000E+02 0.  0.
   -5000001    1    1    2    0    0 -0.43449437550E+02  0.10392484848E+01  0.72024106595E+02  0.11404124513E+03  0.77000000000E+02 0.  0.
<mgrwt>
<rscale>  0 0.20044112E+03</rscale>
<asrwt>0</asrwt>
<pdfrwt beam="1">  1        2 0.50227317E-01 0.20044112E+03</pdfrwt>
<pdfrwt beam="2">  1       -2 0.40811033E-02 0.20044112E+03</pdfrwt>
<totfact> 0.25674644E+04</totfact>
</mgrwt>
</event>
<event>
 4    1  0.4950349E-004  0.2151060E+03  0.7818608E-02  0.1137585E+00
          2   -1    0    0  501    0  0.00000000000E+00  0.00000000000E+00  0.95115341798E+02  0.95115341833E+02  0.25500000000E-02 0.  1.
         -2   -1    0    0    0  501 -0.00000000000E+00 -0.00000000000E+00 -0.12161710041E+03  0.12161710044E+03  0.25500000000E-02 0. -1.
    5000001    1    1    2    0    0  0.64265553672E+02  0.11951762884E+02  0.23984544201E+02  0.10381312241E+03  0.77000000000E+02 0.  0.
   -5000001    1    1    2    0    0 -0.64265553672E+02 -0.11951762884E+02 -0.50486302811E+02  0.11291931985E+03  0.77000000000E+02 0.  0.
<mgrwt>
<rscale>  0 0.21510604E+03</rscale>
<asrwt>0</asrwt>
<pdfrwt beam="1">  1        2 0.13587906E-01 0.21510604E+03</pdfrwt>
<pdfrwt beam="2">  1       -2 0.17373871E-01 0.21510604E+03</pdfrwt>
<totfact> 0.11413876E+04</totfact>
</mgrwt>
</event>
<event>
 4    1  0.4950349E-004  0.2297279E+03  0.7818608E-02  0.1126831E+00
         -2   -1    0    0    0  501 -0.00000000000E+00  0.00000000000E+00  0.28905745735E+03  0.28905745737E+03  0.25500000000E-02 0. -1.
          2   -1    0    0  501    0  0.00000000000E+00 -0.00000000000E+00 -0.45643951877E+02  0.45643951948E+02  0.25500000000E-02 0.  1.
    5000001    1    1    2    0    0 -0.54667408280E+02  0.63519696938E+02  0.14434563480E+03  0.18381496053E+03  0.77000000000E+02 0.  0.
   -5000001    1    1    2    0    0  0.54667408280E+02 -0.63519696938E+02  0.99067870676E+02  0.15088644879E+03  0.77000000000E+02 0.  0.
<mgrwt>
<rscale>  0 0.22972788E+03</rscale>
<asrwt>0</asrwt>
<pdfrwt beam="1">  1        2 0.65205646E-02 0.22972788E+03</pdfrwt>
<pdfrwt beam="2">  1       -2 0.41293922E-01 0.22972788E+03</pdfrwt>
<totfact> 0.61014478E+03</totfact>
</mgrwt>
</event>
<event>
 4    1  0.4950349E-004  0.3200185E+03  0.7818608E-02  0.1075641E+00
          2   -1    0    0  501    0  0.00000000000E+00  0.00000000000E+00  0.14462226313E+04  0.14462226313E+04  0.25500000000E-02 0.  1.
         -2   -1    0    0    0  501 -0.00000000000E+00 -0.00000000000E+00 -0.17703330623E+02  0.17703330807E+02  0.25500000000E-02 0. -1.
    5000001    1    1    2    0    0 -0.32351106177E+02  0.96668565892E+02  0.27352444708E+03  0.30188744401E+03  0.77000000000E+02 0.  0.
   -5000001    1    1    2    0    0  0.32351106177E+02 -0.96668565892E+02  0.11549948536E+04  0.11620385181E+04  0.77000000000E+02 0.  0.
<mgrwt>
<rscale>  0 0.32001848E+03</rscale>
<asrwt>0</asrwt>
<pdfrwt beam="1">  1        2 0.20660331E+00 0.32001848E+03</pdfrwt>
<pdfrwt beam="2">  1       -2 0.25290463E-02 0.32001848E+03</pdfrwt>
<totfact> 0.91059037E+03</totfact>
</mgrwt>
</event>
<event>
 4    1  0.4950349E-004  0.2565384E+03  0.7818608E-02  0.1109241E+00
          2   -1    0    0  501    0  0.00000000000E+00  0.00000000000E+00  0.37318837728E+03  0.37318837729E+03  0.25500000000E-02 0.  1.
         -2   -1    0    0    0  501 -0.00000000000E+00 -0.00000000000E+00 -0.44087603772E+02  0.44087603846E+02  0.25500000000E-02 0. -1.
    5000001    1    1    2    0    0  0.94640082621E+02 -0.15973868499E+02  0.10563213406E+03  0.16216984140E+03  0.77000000000E+02 0.  0.
   -5000001    1    1    2    0    0 -0.94640082621E+02  0.15973868499E+02  0.22346863945E+03  0.25510613973E+03  0.77000000000E+02 0.  0.
<mgrwt>
<rscale>  0 0.25653835E+03</rscale>
<asrwt>0</asrwt>
<pdfrwt beam="1">  1        2 0.53312626E-01 0.25653835E+03</pdfrwt>
<pdfrwt beam="2">  1       -2 0.62982290E-02 0.25653835E+03</pdfrwt>
<totfact> 0.12671848E+04</totfact>
</mgrwt>
</event>
<event>
 4    1  0.4950349E-004  0.2183795E+03  0.7818608E-02  0.1135097E+00
         -2   -1    0    0    0  501 -0.00000000000E+00  0.00000000000E+00  0.93033956579E+01  0.93033960074E+01  0.25500000000E-02 0. -1.
          2   -1    0    0  501    0  0.00000000000E+00 -0.00000000000E+00 -0.12815111619E+04  0.12815111619E+04  0.25500000000E-02 0.  1.
    5000001    1    1    2    0    0 -0.58421518372E+02  0.46824286501E+02 -0.75250734302E+03  0.76013281005E+03  0.77000000000E+02 0.  0.
   -5000001    1    1    2    0    0  0.58421518372E+02 -0.46824286501E+02 -0.51970042326E+03  0.53068174790E+03  0.77000000000E+02 0.  0.
<mgrwt>
<rscale>  0 0.21837954E+03</rscale>
<asrwt>0</asrwt>
<pdfrwt beam="1">  1        2 0.18307291E+00 0.21837954E+03</pdfrwt>
<pdfrwt beam="2">  1       -2 0.13290574E-02 0.21837954E+03</pdfrwt>
<totfact> 0.28102608E+04</totfact>
</mgrwt>
</event>
<event>
 4    1  0.4950349E-004  0.2362836E+03  0.7818608E-02  0.1122294E+00
         -2   -1    0    0    0  501 -0.00000000000E+00  0.00000000000E+00  0.38648375022E+01  0.38648383435E+01  0.25500000000E-02 0. -1.
          2   -1    0    0  501    0  0.00000000000E+00 -0.00000000000E+00 -0.36114038189E+04  0.36114038189E+04  0.25500000000E-02 0.  1.
    5000001    1    1    2    0    0 -0.87855020426E+02  0.11869749136E+02 -0.16048065744E+04  0.16090968078E+04  0.77000000000E+02 0.  0.
   -5000001    1    1    2    0    0  0.87855020426E+02 -0.11869749136E+02 -0.20027324070E+04  0.20061718494E+04  0.77000000000E+02 0.  0.
<mgrwt>
<rscale>  0 0.23628365E+03</rscale>
<asrwt>0</asrwt>
<pdfrwt beam="1">  1        2 0.51591267E+00 0.23628365E+03</pdfrwt>
<pdfrwt beam="2">  1       -2 0.55212202E-03 0.23628365E+03</pdfrwt>
<totfact> 0.63759587E+03</totfact>
</mgrwt>
</event>
<event>
 4    1  0.4950349E-004  0.2126051E+03  0.7818608E-02  0.1139519E+00
         -2   -1    0    0    0  501 -0.00000000000E+00  0.00000000000E+00  0.56859447004E+01  0.56859452722E+01  0.25500000000E-02 0. -1.
          2   -1    0    0  501    0  0.00000000000E+00 -0.00000000000E+00 -0.19873971986E+04  0.19873971986E+04  0.25500000000E-02 0.  1.
    5000001    1    1    2    0    0 -0.47127676318E+02 -0.48630595677E+02 -0.72815349875E+03  0.73533833740E+03  0.77000000000E+02 0.  0.
   -5000001    1    1    2    0    0  0.47127676318E+02  0.48630595677E+02 -0.12535577551E+04  0.12577448064E+04  0.77000000000E+02 0.  0.
<mgrwt>
<rscale>  0 0.21260509E+03</rscale>
<asrwt>0</asrwt>
<pdfrwt beam="1">  1        2 0.28391344E+00 0.21260509E+03</pdfrwt>
<pdfrwt beam="2">  1       -2 0.81227913E-03 0.21260509E+03</pdfrwt>
<totfact> 0.25542991E+04</totfact>
</mgrwt>
</event>
<event>
 4    1  0.4950349E-004  0.2579870E+03  0.7818608E-02  0.1108359E+00
         -2   -1    0    0    0  501 -0.00000000000E+00  0.00000000000E+00  0.98900892422E+01  0.98900895709E+01  0.25500000000E-02 0. -1.
          2   -1    0    0  501    0  0.00000000000E+00 -0.00000000000E+00 -0.16824245123E+04  0.16824245123E+04  0.25500000000E-02 0.  1.
    5000001    1    1    2    0    0  0.30851510798E+01 -0.44345657677E+02 -0.14493181944E+04  0.14520427969E+04  0.77000000000E+02 0.  0.
   -5000001    1    1    2    0    0 -0.30851510798E+01  0.44345657677E+02 -0.22321622866E+03  0.24027180494E+03  0.77000000000E+02 0.  0.
<mgrwt>
<rscale>  0 0.25798705E+03</rscale>
<asrwt>0</asrwt>
<pdfrwt beam="1">  1        2 0.24034618E+00 0.25798705E+03</pdfrwt>
<pdfrwt beam="2">  1       -2 0.14128710E-02 0.25798705E+03</pdfrwt>
<totfact> 0.16241823E+04</totfact>
</mgrwt>
</event>
<event>
 4    1  0.4950349E-004  0.2107245E+03  0.7818608E-02  0.1140994E+00
          2   -1    0    0  501    0  0.00000000000E+00  0.00000000000E+00  0.28205020903E+03  0.28205020904E+03  0.25500000000E-02 0.  1.
         -2   -1    0    0    0  501 -0.00000000000E+00 -0.00000000000E+00 -0.39358949149E+02  0.39358949232E+02  0.25500000000E-02 0. -1.
    5000001    1    1    2    0    0 -0.49049940083E+02  0.50470349772E+02  0.98771450784E+02  0.14365915327E+03  0.77000000000E+02 0.  0.
   -5000001    1    1    2    0    0  0.49049940083E+02 -0.50470349772E+02  0.14391980910E+03  0.17775000500E+03  0.77000000000E+02 0.  0.
<mgrwt>
<rscale>  0 0.21072446E+03</rscale>
<asrwt>0</asrwt>
<pdfrwt beam="1">  1        2 0.40292885E-01 0.21072446E+03</pdfrwt>
<pdfrwt beam="2">  1       -2 0.56227073E-02 0.21072446E+03</pdfrwt>
<totfact> 0.20111557E+04</totfact>
</mgrwt>
</event>
<event>
 4    1  0.4950349E-004  0.1700590E+03  0.7818608E-02  0.1177786E+00
         -2   -1    0    0    0  501 -0.00000000000E+00  0.00000000000E+00  0.13538212765E+02  0.13538213005E+02  0.25500000000E-02 0. -1.
          2   -1    0    0  501    0  0.00000000000E+00 -0.00000000000E+00 -0.53404506266E+03  0.53404506267E+03  0.25500000000E-02 0.  1.
    5000001    1    1    2    0    0 -0.22856925732E+02  0.66077090168E+01 -0.34754434645E+03  0.35676627310E+03  0.77000000000E+02 0.  0.
   -5000001    1    1    2    0    0  0.22856925732E+02 -0.66077090168E+01 -0.17296250345E+03  0.19081700257E+03  0.77000000000E+02 0.  0.
<mgrwt>
<rscale>  0 0.17005900E+03</rscale>
<asrwt>0</asrwt>
<pdfrwt beam="1">  1        2 0.76292139E-01 0.17005900E+03</pdfrwt>
<pdfrwt beam="2">  1       -2 0.19340307E-02 0.17005900E+03</pdfrwt>
<totfact> 0.48466990E+04</totfact>
</mgrwt>
</event>
<event>
 4    1  0.4950349E-004  0.4743725E+03  0.7818608E-02  0.1020693E+00
         -2   -1    0    0    0  501 -0.00000000000E+00  0.00000000000E+00  0.27929778951E+03  0.27929778952E+03  0.25500000000E-02 0. -1.
          2   -1    0    0  501    0  0.00000000000E+00 -0.00000000000E+00 -0.20142411124E+03  0.20142411126E+03  0.25500000000E-02 0.  1.
    5000001    1    1    2    0    0  0.13713493677E+03  0.17719264421E+03  0.50270677730E+02  0.24219695515E+03  0.77000000000E+02 0.  0.
   -5000001    1    1    2    0    0 -0.13713493677E+03 -0.17719264421E+03  0.27603000535E+02  0.23852494562E+03  0.77000000000E+02 0.  0.
<mgrwt>
<rscale>  0 0.47437247E+03</rscale>
<asrwt>0</asrwt>
<pdfrwt beam="1">  1        2 0.28774873E-01 0.47437247E+03</pdfrwt>
<pdfrwt beam="2">  1       -2 0.39899684E-01 0.47437247E+03</pdfrwt>
<totfact> 0.11088653E+03</totfact>
</mgrwt>
</event>
<event>
 4    1  0.4950349E-004  0.2061196E+03  0.7818608E-02  0.1144676E+00
         -2   -1    0    0    0  501 -0.00000000000E+00  0.00000000000E+00  0.77955176522E+01  0.77955180693E+01  0.25500000000E-02 0. -1.
          2   -1    0    0  501    0  0.00000000000E+00 -0.00000000000E+00 -0.13624904897E+04  0.13624904897E+04  0.25500000000E-02 0.  1.
    5000001    1    1    2    0    0 -0.54876542059E+02  0.78452285012E+01 -0.40982484025E+03  0.42066421546E+03  0.77000000000E+02 0.  0.
   -5000001    1    1    2    0    0  0.54876542059E+02 -0.78452285012E+01 -0.94487013177E+03  0.94962179229E+03  0.77000000000E+02 0.  0.
<mgrwt>
<rscale>  0 0.20611957E+03</rscale>
<asrwt>0</asrwt>
<pdfrwt beam="1">  1        2 0.19464135E+00 0.20611957E+03</pdfrwt>
<pdfrwt beam="2">  1       -2 0.11136463E-02 0.20611957E+03</pdfrwt>
<totfact> 0.32843514E+04</totfact>
</mgrwt>
</event>
<event>
 4    1  0.4950349E-004  0.2102142E+03  0.7818608E-02  0.1141396E+00
          2   -1    0    0  501    0  0.00000000000E+00  0.00000000000E+00  0.25785511394E+03  0.25785511396E+03  0.25500000000E-02 0.  1.
         -2   -1    0    0    0  501 -0.00000000000E+00 -0.00000000000E+00 -0.42843831429E+02  0.42843831505E+02  0.25500000000E-02 0. -1.
    5000001    1    1    2    0    0 -0.32291632240E+02  0.27787061582E+01  0.19874074593E+03  0.21558607287E+03  0.77000000000E+02 0.  0.
   -5000001    1    1    2    0    0  0.32291632240E+02 -0.27787061582E+01  0.16270536583E+02  0.85112872595E+02  0.77000000000E+02 0.  0.
<mgrwt>
<rscale>  0 0.21021419E+03</rscale>
<asrwt>0</asrwt>
<pdfrwt beam="1">  1        2 0.36836443E-01 0.21021419E+03</pdfrwt>
<pdfrwt beam="2">  1       -2 0.61205476E-02 0.21021419E+03</pdfrwt>
<totfact> 0.19455227E+04</totfact>
</mgrwt>
</event>
<event>
 4    1  0.4950349E-004  0.4948062E+03  0.7818608E-02  0.1015144E+00
         -2   -1    0    0    0  501 -0.00000000000E+00  0.00000000000E+00  0.79361743033E+02  0.79361743074E+02  0.25500000000E-02 0. -1.
          2   -1    0    0  501    0  0.00000000000E+00 -0.00000000000E+00 -0.77125678961E+03  0.77125678961E+03  0.25500000000E-02 0.  1.
    5000001    1    1    2    0    0  0.11000195715E+03 -0.20747643270E+03 -0.36572700815E+03  0.44139794426E+03  0.77000000000E+02 0.  0.
   -5000001    1    1    2    0    0 -0.11000195715E+03  0.20747643270E+03 -0.32616803843E+03  0.40922058843E+03  0.77000000000E+02 0.  0.
<mgrwt>
<rscale>  0 0.49480616E+03</rscale>
<asrwt>0</asrwt>
<pdfrwt beam="1">  1        2 0.11017954E+00 0.49480616E+03</pdfrwt>
<pdfrwt beam="2">  1       -2 0.11337392E-01 0.49480616E+03</pdfrwt>
<totfact> 0.22221391E+03</totfact>
</mgrwt>
</event>
<event>
 4    1  0.4950349E-004  0.6031515E+03  0.7818608E-02  0.9898889E-01
          2   -1    0    0  501    0  0.00000000000E+00  0.00000000000E+00  0.48512364489E+03  0.48512364490E+03  0.25500000000E-02 0.  1.
         -2   -1    0    0    0  501 -0.00000000000E+00 -0.00000000000E+00 -0.18747372549E+03  0.18747372551E+03  0.25500000000E-02 0. -1.
    5000001    1    1    2    0    0  0.15098761535E+03  0.20057293145E+03 -0.16547370733E+02  0.26311513886E+03  0.77000000000E+02 0.  0.
   -5000001    1    1    2    0    0 -0.15098761535E+03 -0.20057293145E+03  0.31419729014E+03  0.40948223154E+03  0.77000000000E+02 0.  0.
<mgrwt>
<rscale>  0 0.60315151E+03</rscale>
<asrwt>0</asrwt>
<pdfrwt beam="1">  1        2 0.69303378E-01 0.60315151E+03</pdfrwt>
<pdfrwt beam="2">  1       -2 0.26781961E-01 0.60315151E+03</pdfrwt>
<totfact> 0.88140678E+02</totfact>
</mgrwt>
</event>
<event>
 4    1  0.4950349E-004  0.3568872E+03  0.7818608E-02  0.1059823E+00
          2   -1    0    0  501    0  0.00000000000E+00  0.00000000000E+00  0.72386272724E+03  0.72386272725E+03  0.25500000000E-02 0.  1.
         -2   -1    0    0    0  501 -0.00000000000E+00 -0.00000000000E+00 -0.43989170111E+02  0.43989170184E+02  0.25500000000E-02 0. -1.
    5000001    1    1    2    0    0  0.14781780264E+03 -0.56416803732E+01  0.47654067042E+03  0.50487814560E+03  0.77000000000E+02 0.  0.
   -5000001    1    1    2    0    0 -0.14781780264E+03  0.56416803732E+01  0.20333288671E+03  0.26297375184E+03  0.77000000000E+02 0.  0.
<mgrwt>
<rscale>  0 0.35688721E+03</rscale>
<asrwt>0</asrwt>
<pdfrwt beam="1">  1        2 0.10340896E+00 0.35688721E+03</pdfrwt>
<pdfrwt beam="2">  1       -2 0.62841671E-02 0.35688721E+03</pdfrwt>
<totfact> 0.61049182E+03</totfact>
</mgrwt>
</event>
<event>
 4    1  0.4950349E-004  0.2719158E+03  0.7818608E-02  0.1100188E+00
          2   -1    0    0  501    0  0.00000000000E+00  0.00000000000E+00  0.40192822517E+03  0.40192822517E+03  0.25500000000E-02 0.  1.
         -2   -1    0    0    0  501 -0.00000000000E+00 -0.00000000000E+00 -0.45989691992E+02  0.45989692062E+02  0.25500000000E-02 0. -1.
    5000001    1    1    2    0    0 -0.10371785420E+03 -0.40231621108E+02  0.15589474387E+03  0.20641741153E+03  0.77000000000E+02 0.  0.
   -5000001    1    1    2    0    0  0.10371785420E+03  0.40231621108E+02  0.20004378931E+03  0.24150050571E+03  0.77000000000E+02 0.  0.
<mgrwt>
<rscale>  0 0.27191583E+03</rscale>
<asrwt>0</asrwt>
<pdfrwt beam="1">  1        2 0.57418318E-01 0.27191583E+03</pdfrwt>
<pdfrwt beam="2">  1       -2 0.65699560E-02 0.27191583E+03</pdfrwt>
<totfact> 0.10990103E+04</totfact>
</mgrwt>
</event>
<event>
 4    1  0.4950349E-004  0.2153082E+03  0.7818608E-02  0.1137430E+00
          2   -1    0    0  501    0  0.00000000000E+00  0.00000000000E+00  0.35620201297E+02  0.35620201388E+02  0.25500000000E-02 0.  1.
         -2   -1    0    0    0  501 -0.00000000000E+00 -0.00000000000E+00 -0.32536049806E+03  0.32536049807E+03  0.25500000000E-02 0. -1.
    5000001    1    1    2    0    0 -0.14601261000E+02  0.68429638634E+02 -0.98510633242E+02  0.14327999556E+03  0.77000000000E+02 0.  0.
   -5000001    1    1    2    0    0  0.14601261000E+02 -0.68429638634E+02 -0.19122966352E+03  0.21770070389E+03  0.77000000000E+02 0.  0.
<mgrwt>
<rscale>  0 0.21530821E+03</rscale>
<asrwt>0</asrwt>
<pdfrwt beam="1">  1        2 0.50886004E-02 0.21530821E+03</pdfrwt>
<pdfrwt beam="2">  1       -2 0.46480069E-01 0.21530821E+03</pdfrwt>
<totfact> 0.66771460E+03</totfact>
</mgrwt>
</event>
<event>
 4    1  0.4950349E-004  0.1815977E+03  0.7818608E-02  0.1166266E+00
         -2   -1    0    0    0  501 -0.00000000000E+00  0.00000000000E+00  0.68320534962E+01  0.68320539721E+01  0.25500000000E-02 0. -1.
          2   -1    0    0  501    0  0.00000000000E+00 -0.00000000000E+00 -0.12067284967E+04  0.12067284967E+04  0.25500000000E-02 0.  1.
    5000001    1    1    2    0    0  0.46206336643E+02  0.13403365479E+02 -0.59412935912E+03  0.60102693044E+03  0.77000000000E+02 0.  0.
   -5000001    1    1    2    0    0 -0.46206336643E+02 -0.13403365479E+02 -0.60576708409E+03  0.61253362024E+03  0.77000000000E+02 0.  0.
<mgrwt>
<rscale>  0 0.18159773E+03</rscale>
<asrwt>0</asrwt>
<pdfrwt beam="1">  1        2 0.17238965E+00 0.18159773E+03</pdfrwt>
<pdfrwt beam="2">  1       -2 0.97600845E-03 0.18159773E+03</pdfrwt>
<totfact> 0.47489673E+04</totfact>
</mgrwt>
</event>
<event>
 4    1  0.4950349E-004  0.7165737E+03  0.7818608E-02  0.9689301E-01
         -2   -1    0    0    0  501 -0.00000000000E+00  0.00000000000E+00  0.34786412622E+03  0.34786412623E+03  0.25500000000E-02 0. -1.
          2   -1    0    0  501    0  0.00000000000E+00 -0.00000000000E+00 -0.36902188280E+03  0.36902188280E+03  0.25500000000E-02 0.  1.
    5000001    1    1    2    0    0  0.29578265295E+03 -0.18683641731E+03 -0.38491201188E+01  0.35824438635E+03  0.77000000000E+02 0.  0.
   -5000001    1    1    2    0    0 -0.29578265295E+03  0.18683641731E+03 -0.17308636460E+02  0.35864162268E+03  0.77000000000E+02 0.  0.
<mgrwt>
<rscale>  0 0.71657372E+03</rscale>
<asrwt>0</asrwt>
<pdfrwt beam="1">  1        2 0.52717412E-01 0.71657372E+03</pdfrwt>
<pdfrwt beam="2">  1       -2 0.49694875E-01 0.71657372E+03</pdfrwt>
<totfact> 0.36559096E+02</totfact>
</mgrwt>
</event>
<event>
 4    1  0.4950349E-004  0.4310662E+03  0.7818608E-02  0.1033524E+00
         -2   -1    0    0    0  501 -0.00000000000E+00  0.00000000000E+00  0.28299818495E+02  0.28299818610E+02  0.25500000000E-02 0. -1.
          2   -1    0    0  501    0  0.00000000000E+00 -0.00000000000E+00 -0.16415126510E+04  0.16415126510E+04  0.25500000000E-02 0.  1.
    5000001    1    1    2    0    0  0.15475852316E+03  0.10378376994E+03 -0.11017248907E+04  0.11200214311E+04  0.77000000000E+02 0.  0.
   -5000001    1    1    2    0    0 -0.15475852316E+03 -0.10378376994E+03 -0.51148794187E+03  0.54979103855E+03  0.77000000000E+02 0.  0.
<mgrwt>
<rscale>  0 0.43106617E+03</rscale>
<asrwt>0</asrwt>
<pdfrwt beam="1">  1        2 0.23450175E+00 0.43106617E+03</pdfrwt>
<pdfrwt beam="2">  1       -2 0.40428323E-02 0.43106617E+03</pdfrwt>
<totfact> 0.35841461E+03</totfact>
</mgrwt>
</event>
<event>
 4    1  0.4950349E-004  0.1865772E+03  0.7818608E-02  0.1161585E+00
          2   -1    0    0  501    0  0.00000000000E+00  0.00000000000E+00  0.45759479654E+02  0.45759479725E+02  0.25500000000E-02 0.  1.
         -2   -1    0    0    0  501 -0.00000000000E+00 -0.00000000000E+00 -0.19018486029E+03  0.19018486030E+03  0.25500000000E-02 0. -1.
    5000001    1    1    2    0    0 -0.41601682479E+02 -0.28064435556E+02 -0.92424354768E+02  0.13034405964E+03  0.77000000000E+02 0.  0.
   -5000001    1    1    2    0    0  0.41601682479E+02  0.28064435556E+02 -0.52001025864E+02  0.10560028039E+03  0.77000000000E+02 0.  0.
<mgrwt>
<rscale>  0 0.18657717E+03</rscale>
<asrwt>0</asrwt>
<pdfrwt beam="1">  1        2 0.65370686E-02 0.18657717E+03</pdfrwt>
<pdfrwt beam="2">  1       -2 0.27169265E-01 0.18657717E+03</pdfrwt>
<totfact> 0.12984305E+04</totfact>
</mgrwt>
</event>
<event>
 4    1  0.4950349E-004  0.2060964E+03  0.7818608E-02  0.1144695E+00
          2   -1    0    0  501    0  0.00000000000E+00  0.00000000000E+00  0.41808267503E+02  0.41808267581E+02  0.25500000000E-02 0.  1.
         -2   -1    0    0    0  501 -0.00000000000E+00 -0.00000000000E+00 -0.25399109683E+03  0.25399109684E+03  0.25500000000E-02 0. -1.
    5000001    1    1    2    0    0 -0.38389652693E+02  0.54078018676E+02 -0.13060560759E+03  0.16548420550E+03  0.77000000000E+02 0.  0.
   -5000001    1    1    2    0    0  0.38389652693E+02 -0.54078018676E+02 -0.81577221738E+02  0.13031515892E+03  0.77000000000E+02 0.  0.
<mgrwt>
<rscale>  0 0.20609636E+03</rscale>
<asrwt>0</asrwt>
<pdfrwt beam="1">  1        2 0.59726098E-02 0.20609636E+03</pdfrwt>
<pdfrwt beam="2">  1       -2 0.36284441E-01 0.20609636E+03</pdfrwt>
<totfact> 0.86750259E+03</totfact>
</mgrwt>
</event>
<event>
 4    1  0.4950349E-004  0.5258295E+03  0.7818608E-02  0.1007249E+00
          2   -1    0    0  501    0  0.00000000000E+00  0.00000000000E+00  0.26263530178E+04  0.26263530178E+04  0.25500000000E-02 0.  1.
         -2   -1    0    0    0  501 -0.00000000000E+00 -0.00000000000E+00 -0.26319447883E+02  0.26319448006E+02  0.25500000000E-02 0. -1.
    5000001    1    1    2    0    0 -0.60387658627E+02  0.24249915831E+03  0.14374940608E+04  0.14610854479E+04  0.77000000000E+02 0.  0.
   -5000001    1    1    2    0    0  0.60387658627E+02 -0.24249915831E+03  0.11625395091E+04  0.11915870180E+04  0.77000000000E+02 0.  0.
<mgrwt>
<rscale>  0 0.52582948E+03</rscale>
<asrwt>0</asrwt>
<pdfrwt beam="1">  1        2 0.37519332E+00 0.52582948E+03</pdfrwt>
<pdfrwt beam="2">  1       -2 0.37599208E-02 0.52582948E+03</pdfrwt>
<totfact> 0.12748257E+03</totfact>
</mgrwt>
</event>
<event>
 4    1  0.4950349E-004  0.3537377E+03  0.7818608E-02  0.1061091E+00
         -2   -1    0    0    0  501 -0.00000000000E+00  0.00000000000E+00  0.21780406900E+02  0.21780407049E+02  0.25500000000E-02 0. -1.
          2   -1    0    0  501    0  0.00000000000E+00 -0.00000000000E+00 -0.14362724058E+04  0.14362724058E+04  0.25500000000E-02 0.  1.
    5000001    1    1    2    0    0  0.50099898767E+02  0.12865237456E+03 -0.10342039325E+04  0.10462161379E+04  0.77000000000E+02 0.  0.
   -5000001    1    1    2    0    0 -0.50099898767E+02 -0.12865237456E+03 -0.38028806640E+03  0.41183667489E+03  0.77000000000E+02 0.  0.
<mgrwt>
<rscale>  0 0.35373774E+03</rscale>
<asrwt>0</asrwt>
<pdfrwt beam="1">  1        2 0.20518171E+00 0.35373774E+03</pdfrwt>
<pdfrwt beam="2">  1       -2 0.31114876E-02 0.35373774E+03</pdfrwt>
<totfact> 0.67712208E+03</totfact>
</mgrwt>
</event>
<event>
 4    1  0.4950349E-004  0.2335692E+03  0.7818608E-02  0.1124153E+00
         -2   -1    0    0    0  501 -0.00000000000E+00  0.00000000000E+00  0.33424173207E+02  0.33424173304E+02  0.25500000000E-02 0. -1.
          2   -1    0    0  501    0  0.00000000000E+00 -0.00000000000E+00 -0.40804717415E+03  0.40804717416E+03  0.25500000000E-02 0.  1.
    5000001    1    1    2    0    0  0.50797927915E+01 -0.82797719172E+02 -0.13291137124E+03  0.17457290511E+03  0.77000000000E+02 0.  0.
   -5000001    1    1    2    0    0 -0.50797927915E+01  0.82797719172E+02 -0.24171162971E+03  0.26689844235E+03  0.77000000000E+02 0.  0.
<mgrwt>
<rscale>  0 0.23356917E+03</rscale>
<asrwt>0</asrwt>
<pdfrwt beam="1">  1        2 0.58292451E-01 0.23356917E+03</pdfrwt>
<pdfrwt beam="2">  1       -2 0.47748821E-02 0.23356917E+03</pdfrwt>
<totfact> 0.17460482E+04</totfact>
</mgrwt>
</event>
<event>
 4    1  0.4950349E-004  0.2218295E+03  0.7818608E-02  0.1132526E+00
         -2   -1    0    0    0  501 -0.00000000000E+00  0.00000000000E+00  0.16726416636E+02  0.16726416830E+02  0.25500000000E-02 0. -1.
          2   -1    0    0  501    0  0.00000000000E+00 -0.00000000000E+00 -0.73548798635E+03  0.73548798635E+03  0.25500000000E-02 0.  1.
    5000001    1    1    2    0    0 -0.48648824715E+02 -0.60834260560E+02 -0.41865596715E+03  0.43274627004E+03  0.77000000000E+02 0.  0.
   -5000001    1    1    2    0    0  0.48648824715E+02  0.60834260560E+02 -0.30010560257E+03  0.31946813314E+03  0.77000000000E+02 0.  0.
<mgrwt>
<rscale>  0 0.22182947E+03</rscale>
<asrwt>0</asrwt>
<pdfrwt beam="1">  1        2 0.10506969E+00 0.22182947E+03</pdfrwt>
<pdfrwt beam="2">  1       -2 0.23894886E-02 0.22182947E+03</pdfrwt>
<totfact> 0.25187583E+04</totfact>
</mgrwt>
</event>
<event>
 4    1  0.4950349E-004  0.5083674E+03  0.7818608E-02  0.1011618E+00
          2   -1    0    0  501    0  0.00000000000E+00  0.00000000000E+00  0.13075515035E+04  0.13075515035E+04  0.25500000000E-02 0.  1.
         -2   -1    0    0    0  501 -0.00000000000E+00 -0.00000000000E+00 -0.49412466552E+02  0.49412466618E+02  0.25500000000E-02 0. -1.
    5000001    1    1    2    0    0 -0.20927707267E+03  0.12071710824E+03  0.67612966152E+03  0.72211483336E+03  0.77000000000E+02 0.  0.
   -5000001    1    1    2    0    0  0.20927707267E+03 -0.12071710824E+03  0.58200937544E+03  0.63484913678E+03  0.77000000000E+02 0.  0.
<mgrwt>
<rscale>  0 0.50836737E+03</rscale>
<asrwt>0</asrwt>
<pdfrwt beam="1">  1        2 0.18679306E+00 0.50836737E+03</pdfrwt>
<pdfrwt beam="2">  1       -2 0.70589244E-02 0.50836737E+03</pdfrwt>
<totfact> 0.22534934E+03</totfact>
</mgrwt>
</event>
<event>
 4    1  0.4950349E-004  0.6538881E+03  0.7818608E-02  0.9799511E-01
          2   -1    0    0  501    0  0.00000000000E+00  0.00000000000E+00  0.40875371393E+03  0.40875371394E+03  0.25500000000E-02 0.  1.
         -2   -1    0    0    0  501 -0.00000000000E+00 -0.00000000000E+00 -0.26150813505E+03  0.26150813506E+03  0.25500000000E-02 0. -1.
    5000001    1    1    2    0    0 -0.28989229401E+03 -0.82096295697E+02  0.17707613407E+03  0.35785793431E+03  0.77000000000E+02 0.  0.
   -5000001    1    1    2    0    0  0.28989229401E+03  0.82096295697E+02 -0.29830555183E+02  0.31240391469E+03  0.77000000000E+02 0.  0.
<mgrwt>
<rscale>  0 0.65388813E+03</rscale>
<asrwt>0</asrwt>
<pdfrwt beam="1">  1        2 0.58393387E-01 0.65388813E+03</pdfrwt>
<pdfrwt beam="2">  1       -2 0.37358305E-01 0.65388813E+03</pdfrwt>
<totfact> 0.57371908E+02</totfact>
</mgrwt>
</event>
<event>
 4    1  0.4950349E-004  0.2459486E+03  0.7818608E-02  0.1115892E+00
         -2   -1    0    0    0  501 -0.00000000000E+00  0.00000000000E+00  0.78220592781E+02  0.78220592823E+02  0.25500000000E-02 0. -1.
          2   -1    0    0  501    0  0.00000000000E+00 -0.00000000000E+00 -0.19333379380E+03  0.19333379382E+03  0.25500000000E-02 0.  1.
    5000001    1    1    2    0    0 -0.94187045908E+02  0.15901152756E+02 -0.66770310974E+02  0.13968292918E+03  0.77000000000E+02 0.  0.
   -5000001    1    1    2    0    0  0.94187045908E+02 -0.15901152756E+02 -0.48342890047E+02  0.13187145746E+03  0.77000000000E+02 0.  0.
<mgrwt>
<rscale>  0 0.24594864E+03</rscale>
<asrwt>0</asrwt>
<pdfrwt beam="1">  1        2 0.27619113E-01 0.24594864E+03</pdfrwt>
<pdfrwt beam="2">  1       -2 0.11174370E-01 0.24594864E+03</pdfrwt>
<totfact> 0.10493269E+04</totfact>
</mgrwt>
</event>
<event>
 4    1  0.4950349E-004  0.3946768E+03  0.7818608E-02  0.1045639E+00
          2   -1    0    0  501    0  0.00000000000E+00  0.00000000000E+00  0.17400923164E+03  0.17400923166E+03  0.25500000000E-02 0.  1.
         -2   -1    0    0    0  501 -0.00000000000E+00 -0.00000000000E+00 -0.22379529166E+03  0.22379529168E+03  0.25500000000E-02 0. -1.
    5000001    1    1    2    0    0 -0.17970052308E+03  0.17550514169E+02 -0.45380156170E+02  0.20146626794E+03  0.77000000000E+02 0.  0.
   -5000001    1    1    2    0    0  0.17970052308E+03 -0.17550514169E+02 -0.44059038497E+01  0.19633825540E+03  0.77000000000E+02 0.  0.
<mgrwt>
<rscale>  0 0.39467681E+03</rscale>
<asrwt>0</asrwt>
<pdfrwt beam="1">  1        2 0.24858462E-01 0.39467681E+03</pdfrwt>
<pdfrwt beam="2">  1       -2 0.31970756E-01 0.39467681E+03</pdfrwt>
<totfact> 0.19839197E+03</totfact>
</mgrwt>
</event>
<event>
 4    1  0.4950349E-004  0.2709525E+03  0.7818608E-02  0.1100736E+00
         -2   -1    0    0    0  501 -0.00000000000E+00  0.00000000000E+00  0.17426883589E+02  0.17426883775E+02  0.25500000000E-02 0.  1.
          2   -1    0    0  501    0  0.00000000000E+00 -0.00000000000E+00 -0.10531894626E+04  0.10531894626E+04  0.25500000000E-02 0. -1.
    5000001    1    1    2    0    0  0.10115895950E+02 -0.10896638421E+03 -0.43417268647E+03  0.45432469217E+03  0.77000000000E+02 0.  0.
   -5000001    1    1    2    0    0 -0.10115895950E+02  0.10896638421E+03 -0.60158989255E+03  0.61629165422E+03  0.77000000000E+02 0.  0.
<mgrwt>
<rscale>  0 0.27095247E+03</rscale>
<asrwt>0</asrwt>
<pdfrwt beam="1">  1        2 0.15045560E+00 0.27095247E+03</pdfrwt>
<pdfrwt beam="2">  1       -2 0.24895555E-02 0.27095247E+03</pdfrwt>
<totfact> 0.15102783E+04</totfact>
</mgrwt>
</event>
<event>
 4    1  0.4950349E-004  0.2195147E+03  0.7818608E-02  0.1134245E+00
          2   -1    0    0  501    0  0.00000000000E+00  0.00000000000E+00  0.18723945814E+04  0.18723945814E+04  0.25500000000E-02 0.  1.
         -2   -1    0    0    0  501 -0.00000000000E+00 -0.00000000000E+00 -0.64338346660E+01  0.64338351713E+01  0.25500000000E-02 0. -1.
    5000001    1    1    2    0    0  0.74980030127E+02 -0.22206109814E+02  0.91928218352E+03  0.92580983423E+03  0.77000000000E+02 0.  0.
   -5000001    1    1    2    0    0 -0.74980030127E+02  0.22206109814E+02  0.94667856324E+03  0.95301858236E+03  0.77000000000E+02 0.  0.
<mgrwt>
<rscale>  0 0.21951472E+03</rscale>
<asrwt>0</asrwt>
<pdfrwt beam="1">  1        2 0.26748484E+00 0.21951472E+03</pdfrwt>
<pdfrwt beam="2">  1       -2 0.91911962E-03 0.21951472E+03</pdfrwt>
<totfact> 0.24329341E+04</totfact>
</mgrwt>
</event>
<event>
 4    1  0.4950349E-004  0.2328044E+03  0.7818608E-02  0.1124681E+00
         -2   -1    0    0    0  501 -0.00000000000E+00  0.00000000000E+00  0.38967881439E+01  0.38967889783E+01  0.25500000000E-02 0. -1.
          2   -1    0    0  501    0  0.00000000000E+00 -0.00000000000E+00 -0.34770859782E+04  0.34770859782E+04  0.25500000000E-02 0.  1.
    5000001    1    1    2    0    0 -0.66149833125E+02 -0.25910462876E+02 -0.97809154332E+03  0.98368654541E+03  0.77000000000E+02 0.  0.
   -5000001    1    1    2    0    0  0.66149833125E+02  0.25910462876E+02 -0.24950976467E+04  0.24972962217E+04  0.77000000000E+02 0.  0.
<mgrwt>
<rscale>  0 0.23280437E+03</rscale>
<asrwt>0</asrwt>
<pdfrwt beam="1">  1        2 0.49672458E+00 0.23280437E+03</pdfrwt>
<pdfrwt beam="2">  1       -2 0.55668631E-03 0.23280437E+03</pdfrwt>
<totfact> 0.75448875E+03</totfact>
</mgrwt>
</event>
<event>
 4    1  0.4950349E-004  0.2212550E+03  0.7818608E-02  0.1132951E+00
         -2   -1    0    0    0  501 -0.00000000000E+00  0.00000000000E+00  0.10163734597E+03  0.10163734601E+03  0.25500000000E-02 0. -1.
          2   -1    0    0  501    0  0.00000000000E+00 -0.00000000000E+00 -0.12041281546E+03  0.12041281549E+03  0.25500000000E-02 0.  1.
    5000001    1    1    2    0    0  0.40119974844E+01 -0.78785939837E+02 -0.74373650498E-01  0.11023758874E+03  0.77000000000E+02 0.  0.
   -5000001    1    1    2    0    0 -0.40119974844E+01  0.78785939837E+02 -0.18701095834E+02  0.11181257275E+03  0.77000000000E+02 0.  0.
<mgrwt>
<rscale>  0 0.22125496E+03</rscale>
<asrwt>0</asrwt>
<pdfrwt beam="1">  1        2 0.17201831E-01 0.22125496E+03</pdfrwt>
<pdfrwt beam="2">  1       -2 0.14519621E-01 0.22125496E+03</pdfrwt>
<totfact> 0.11659335E+04</totfact>
</mgrwt>
</event>
<event>
 4    1  0.4950349E-004  0.2268238E+03  0.7818608E-02  0.1128896E+00
          2   -1    0    0  501    0  0.00000000000E+00  0.00000000000E+00  0.26792073523E+02  0.26792073644E+02  0.25500000000E-02 0.  1.
         -2   -1    0    0    0  501 -0.00000000000E+00 -0.00000000000E+00 -0.48007695543E+03  0.48007695544E+03  0.25500000000E-02 0. -1.
    5000001    1    1    2    0    0 -0.44445847182E+02 -0.53567971636E+02 -0.12452422573E+03  0.16211182471E+03  0.77000000000E+02 0.  0.
   -5000001    1    1    2    0    0  0.44445847182E+02  0.53567971636E+02 -0.32876065617E+03  0.34475720437E+03  0.77000000000E+02 0.  0.
<mgrwt>
<rscale>  0 0.22682378E+03</rscale>
<asrwt>0</asrwt>
<pdfrwt beam="1">  1        2 0.38274394E-02 0.22682378E+03</pdfrwt>
<pdfrwt beam="2">  1       -2 0.68582417E-01 0.22682378E+03</pdfrwt>
<totfact> 0.44191645E+03</totfact>
</mgrwt>
</event>
<event>
 4    1  0.4950349E-004  0.2320325E+03  0.7818608E-02  0.1125217E+00
          2   -1    0    0  501    0  0.00000000000E+00  0.00000000000E+00  0.40108853640E+04  0.40108853640E+04  0.25500000000E-02 0.  1.
         -2   -1    0    0    0  501 -0.00000000000E+00 -0.00000000000E+00 -0.33558096944E+01  0.33558106633E+01  0.25500000000E-02 0. -1.
    5000001    1    1    2    0    0 -0.71459259284E+02 -0.89074021600E+01  0.28415376456E+04  0.28434927394E+04  0.77000000000E+02 0.  0.
   -5000001    1    1    2    0    0  0.71459259284E+02  0.89074021600E+01  0.11659919087E+04  0.11707484353E+04  0.77000000000E+02 0.  0.
<mgrwt>
<rscale>  0 0.23203250E+03</rscale>
<asrwt>0</asrwt>
<pdfrwt beam="1">  1        2 0.57298273E+00 0.23203250E+03</pdfrwt>
<pdfrwt beam="2">  1       -2 0.47940220E-03 0.23203250E+03</pdfrwt>
<totfact> 0.44193834E+03</totfact>
</mgrwt>
</event>
<event>
 4    1  0.4950349E-004  0.2697586E+03  0.7818608E-02  0.1101418E+00
          2   -1    0    0  501    0  0.00000000000E+00  0.00000000000E+00  0.13318020960E+04  0.13318020960E+04  0.25500000000E-02 0.  1.
         -2   -1    0    0    0  501 -0.00000000000E+00 -0.00000000000E+00 -0.13660010362E+02  0.13660010600E+02  0.25500000000E-02 0. -1.
    5000001    1    1    2    0    0 -0.90583067254E+02 -0.20039854652E+02  0.35747097193E+03  0.37725506441E+03  0.77000000000E+02 0.  0.
   -5000001    1    1    2    0    0  0.90583067254E+02  0.20039854652E+02  0.96067111373E+03  0.96820704222E+03  0.77000000000E+02 0.  0.
<mgrwt>
<rscale>  0 0.26975864E+03</rscale>
<asrwt>0</asrwt>
<pdfrwt beam="1">  1        2 0.19025735E+00 0.26975864E+03</pdfrwt>
<pdfrwt beam="2">  1       -2 0.19514311E-02 0.26975864E+03</pdfrwt>
<totfact> 0.15240503E+04</totfact>
</mgrwt>
</event>
<event>
 4    1  0.4950349E-004  0.2938452E+03  0.7818608E-02  0.1088358E+00
         -2   -1    0    0    0  501 -0.00000000000E+00  0.00000000000E+00  0.13741051083E+03  0.13741051085E+03  0.25500000000E-02 0. -1.
          2   -1    0    0  501    0  0.00000000000E+00 -0.00000000000E+00 -0.15709317549E+03  0.15709317551E+03  0.25500000000E-02 0.  1.
    5000001    1    1    2    0    0 -0.77967145717E+02 -0.59254223544E+02  0.68226184085E+02  0.14203433041E+03  0.77000000000E+02 0.  0.
   -5000001    1    1    2    0    0  0.77967145717E+02  0.59254223544E+02 -0.87908848746E+02  0.15246935596E+03  0.77000000000E+02 0.  0.
<mgrwt>
<rscale>  0 0.29384522E+03</rscale>
<asrwt>0</asrwt>
<pdfrwt beam="1">  1        2 0.22441882E-01 0.29384522E+03</pdfrwt>
<pdfrwt beam="2">  1       -2 0.19630073E-01 0.29384522E+03</pdfrwt>
<totfact> 0.52590505E+03</totfact>
</mgrwt>
</event>
<event>
 4    1  0.4950349E-004  0.1953247E+03  0.7818608E-02  0.1153745E+00
          2   -1    0    0  501    0  0.00000000000E+00  0.00000000000E+00  0.46368544243E+02  0.46368544313E+02  0.25500000000E-02 0.  1.
         -2   -1    0    0    0  501 -0.00000000000E+00 -0.00000000000E+00 -0.20569832739E+03  0.20569832740E+03  0.25500000000E-02 0. -1.
    5000001    1    1    2    0    0 -0.14613348422E+02  0.53662695423E+02 -0.50358925659E+02  0.10750933088E+03  0.77000000000E+02 0.  0.
   -5000001    1    1    2    0    0  0.14613348422E+02 -0.53662695423E+02 -0.10897085749E+03  0.14455754084E+03  0.77000000000E+02 0.  0.
<mgrwt>
<rscale>  0 0.19532467E+03</rscale>
<asrwt>0</asrwt>
<pdfrwt beam="1">  1        2 0.66240778E-02 0.19532467E+03</pdfrwt>
<pdfrwt beam="2">  1       -2 0.29385475E-01 0.19532467E+03</pdfrwt>
<totfact> 0.11132793E+04</totfact>
</mgrwt>
</event>
<event>
 4    1  0.4950349E-004  0.2397373E+03  0.7818608E-02  0.1119968E+00
          2   -1    0    0  501    0  0.00000000000E+00  0.00000000000E+00  0.17914793423E+02  0.17914793605E+02  0.25500000000E-02 0.  1.
         -2   -1    0    0    0  501 -0.00000000000E+00 -0.00000000000E+00 -0.80204637941E+03  0.80204637942E+03  0.25500000000E-02 0. -1.
    5000001    1    1    2    0    0 -0.65055833891E+02 -0.62237213289E+02 -0.32958065010E+03  0.35022583737E+03  0.77000000000E+02 0.  0.
   -5000001    1    1    2    0    0  0.65055833891E+02  0.62237213289E+02 -0.45455093589E+03  0.46973533565E+03  0.77000000000E+02 0.  0.
<mgrwt>
<rscale>  0 0.23973732E+03</rscale>
<asrwt>0</asrwt>
<pdfrwt beam="1">  1        2 0.25592567E-02 0.23973732E+03</pdfrwt>
<pdfrwt beam="2">  1       -2 0.11457803E+00 0.23973732E+03</pdfrwt>
<totfact> 0.24018135E+03</totfact>
</mgrwt>
</event>
<event>
 4    1  0.4950349E-004  0.2291492E+03  0.7818608E-02  0.1127240E+00
         -2   -1    0    0    0  501 -0.00000000000E+00  0.00000000000E+00  0.83307836992E+01  0.83307840895E+01  0.25500000000E-02 0. -1.
          2   -1    0    0  501    0  0.00000000000E+00 -0.00000000000E+00 -0.15757624809E+04  0.15757624809E+04  0.25500000000E-02 0.  1.
    5000001    1    1    2    0    0  0.82293614172E+02  0.20633981884E+02 -0.77970540381E+03  0.78807836975E+03  0.77000000000E+02 0.  0.
   -5000001    1    1    2    0    0 -0.82293614172E+02 -0.20633981884E+02 -0.78772629335E+03  0.79601489519E+03  0.77000000000E+02 0.  0.
<mgrwt>
<rscale>  0 0.22914918E+03</rscale>
<asrwt>0</asrwt>
<pdfrwt beam="1">  1        2 0.22510874E+00 0.22914918E+03</pdfrwt>
<pdfrwt beam="2">  1       -2 0.11901130E-02 0.22914918E+03</pdfrwt>
<totfact> 0.23427446E+04</totfact>
</mgrwt>
</event>
<event>
 4    1  0.4950349E-004  0.1759367E+03  0.7818608E-02  0.1171794E+00
          2   -1    0    0  501    0  0.00000000000E+00  0.00000000000E+00  0.33283806568E+03  0.33283806569E+03  0.25500000000E-02 0.  1.
         -2   -1    0    0    0  501 -0.00000000000E+00 -0.00000000000E+00 -0.23249844138E+02  0.23249844278E+02  0.25500000000E-02 0. -1.
    5000001    1    1    2    0    0 -0.20330485352E+02 -0.36037631119E+02  0.17476815996E+03  0.19540969584E+03  0.77000000000E+02 0.  0.
   -5000001    1    1    2    0    0  0.20330485352E+02  0.36037631119E+02  0.13482006158E+03  0.16067821413E+03  0.77000000000E+02 0.  0.
<mgrwt>
<rscale>  0 0.17593673E+03</rscale>
<asrwt>0</asrwt>
<pdfrwt beam="1">  1        2 0.47548293E-01 0.17593673E+03</pdfrwt>
<pdfrwt beam="2">  1       -2 0.33214065E-02 0.17593673E+03</pdfrwt>
<totfact> 0.36584317E+04</totfact>
</mgrwt>
</event>
<event>
 4    1  0.4950349E-004  0.3792967E+03  0.7818608E-02  0.1051194E+00
          2   -1    0    0  501    0  0.00000000000E+00  0.00000000000E+00  0.42911117992E+02  0.42911118068E+02  0.25500000000E-02 0.  1.
         -2   -1    0    0    0  501 -0.00000000000E+00 -0.00000000000E+00 -0.83816247011E+03  0.83816247011E+03  0.25500000000E-02 0. -1.
    5000001    1    1    2    0    0  0.28146095559E+02  0.17094606393E+03 -0.38655114349E+03  0.43054099224E+03  0.77000000000E+02 0.  0.
   -5000001    1    1    2    0    0 -0.28146095559E+02 -0.17094606393E+03 -0.40870020863E+03  0.45053259594E+03  0.77000000000E+02 0.  0.
<mgrwt>
<rscale>  0 0.37929666E+03</rscale>
<asrwt>0</asrwt>
<pdfrwt beam="1">  1        2 0.61301602E-02 0.37929666E+03</pdfrwt>
<pdfrwt beam="2">  1       -2 0.11973749E+00 0.37929666E+03</pdfrwt>
<totfact> 0.67504897E+02</totfact>
</mgrwt>
</event>
<event>
 4    1  0.4950349E-004  0.2826794E+03  0.7818608E-02  0.1094234E+00
          2   -1    0    0  501    0  0.00000000000E+00  0.00000000000E+00  0.21240249309E+03  0.21240249310E+03  0.25500000000E-02 0.  1.
         -2   -1    0    0    0  501 -0.00000000000E+00 -0.00000000000E+00 -0.94052131372E+02  0.94052131407E+02  0.25500000000E-02 0. -1.
    5000001    1    1    2    0    0  0.52273863224E+02  0.10498691960E+03  0.77735175152E+02  0.16039503583E+03  0.77000000000E+02 0.  0.
   -5000001    1    1    2    0    0 -0.52273863224E+02 -0.10498691960E+03  0.40615186563E+02  0.14605958868E+03  0.77000000000E+02 0.  0.
<mgrwt>
<rscale>  0 0.28267937E+03</rscale>
<asrwt>0</asrwt>
<pdfrwt beam="1">  1        2 0.30343213E-01 0.28267937E+03</pdfrwt>
<pdfrwt beam="2">  1       -2 0.13436019E-01 0.28267937E+03</pdfrwt>
<totfact> 0.70671629E+03</totfact>
</mgrwt>
</event>
<event>
 4    1  0.4950349E-004  0.2224604E+03  0.7818608E-02  0.1132062E+00
         -2   -1    0    0    0  501 -0.00000000000E+00  0.00000000000E+00  0.16632224776E+03  0.16632224778E+03  0.25500000000E-02 0. -1.
          2   -1    0    0  501    0  0.00000000000E+00 -0.00000000000E+00 -0.74386687623E+02  0.74386687667E+02  0.25500000000E-02 0.  1.
    5000001    1    1    2    0    0  0.36173369948E+02  0.68751887254E+02  0.24116488991E+02  0.11200865920E+03  0.77000000000E+02 0.  0.
   -5000001    1    1    2    0    0 -0.36173369948E+02 -0.68751887254E+02  0.67819071141E+02  0.12870027624E+03  0.77000000000E+02 0.  0.
<mgrwt>
<rscale>  0 0.22246043E+03</rscale>
<asrwt>0</asrwt>
<pdfrwt beam="1">  1        2 0.10626670E-01 0.22246043E+03</pdfrwt>
<pdfrwt beam="2">  1       -2 0.23760321E-01 0.22246043E+03</pdfrwt>
<totfact> 0.90252424E+03</totfact>
</mgrwt>
</event>
<event>
 4    1  0.4950349E-004  0.1955011E+03  0.7818608E-02  0.1153591E+00
         -2   -1    0    0    0  501 -0.00000000000E+00  0.00000000000E+00  0.54414974603E+01  0.54414980578E+01  0.25500000000E-02 0. -1.
          2   -1    0    0  501    0  0.00000000000E+00 -0.00000000000E+00 -0.17559815571E+04  0.17559815571E+04  0.25500000000E-02 0.  1.
    5000001    1    1    2    0    0 -0.48565599520E+02  0.31032033321E+02 -0.10325069726E+04  0.10369769781E+04  0.77000000000E+02 0.  0.
   -5000001    1    1    2    0    0  0.48565599520E+02 -0.31032033321E+02 -0.71803308704E+03  0.72444607710E+03  0.77000000000E+02 0.  0.
<mgrwt>
<rscale>  0 0.19550110E+03</rscale>
<asrwt>0</asrwt>
<pdfrwt beam="1">  1        2 0.25085415E+00 0.19550110E+03</pdfrwt>
<pdfrwt beam="2">  1       -2 0.77735795E-03 0.19550110E+03</pdfrwt>
<totfact> 0.35049058E+04</totfact>
</mgrwt>
</event>
<event>
 4    1  0.4950349E-004  0.2798161E+03  0.7818608E-02  0.1095789E+00
          2   -1    0    0  501    0  0.00000000000E+00  0.00000000000E+00  0.14479153074E+03  0.14479153076E+03  0.25500000000E-02 0.  1.
         -2   -1    0    0    0  501 -0.00000000000E+00 -0.00000000000E+00 -0.13518931781E+03  0.13518931784E+03  0.25500000000E-02 0. -1.
    5000001    1    1    2    0    0  0.90607600710E+02 -0.38957200822E+02 -0.57828608080E+02  0.13784247790E+03  0.77000000000E+02 0.  0.
   -5000001    1    1    2    0    0 -0.90607600710E+02  0.38957200822E+02  0.67430821009E+02  0.14213837070E+03  0.77000000000E+02 0.  0.
<mgrwt>
<rscale>  0 0.27981614E+03</rscale>
<asrwt>0</asrwt>
<pdfrwt beam="1">  1        2 0.20684505E-01 0.27981614E+03</pdfrwt>
<pdfrwt beam="2">  1       -2 0.19312760E-01 0.27981614E+03</pdfrwt>
<totfact> 0.59225782E+03</totfact>
</mgrwt>
</event>
<event>
 4    1  0.4950349E-004  0.2936356E+03  0.7818608E-02  0.1088466E+00
         -2   -1    0    0    0  501 -0.00000000000E+00  0.00000000000E+00  0.27116140014E+02  0.27116140134E+02  0.25500000000E-02 0. -1.
          2   -1    0    0  501    0  0.00000000000E+00 -0.00000000000E+00 -0.79493131913E+03  0.79493131913E+03  0.25500000000E-02 0.  1.
    5000001    1    1    2    0    0  0.11970688855E+03  0.32007279357E+02 -0.33771384256E+03  0.36787748579E+03  0.77000000000E+02 0.  0.
   -5000001    1    1    2    0    0 -0.11970688855E+03 -0.32007279357E+02 -0.43010133656E+03  0.45416997348E+03  0.77000000000E+02 0.  0.
<mgrwt>
<rscale>  0 0.29363562E+03</rscale>
<asrwt>0</asrwt>
<pdfrwt beam="1">  1        2 0.11356160E+00 0.29363562E+03</pdfrwt>
<pdfrwt beam="2">  1       -2 0.38737348E-02 0.29363562E+03</pdfrwt>
<totfact> 0.11324443E+04</totfact>
</mgrwt>
</event>
<event>
 4    1  0.4950349E-004  0.1967345E+03  0.7818608E-02  0.1152524E+00
         -2   -1    0    0    0  501 -0.00000000000E+00  0.00000000000E+00  0.39630254404E+02  0.39630254486E+02  0.25500000000E-02 0. -1.
          2   -1    0    0  501    0  0.00000000000E+00 -0.00000000000E+00 -0.24415979708E+03  0.24415979709E+03  0.25500000000E-02 0.  1.
    5000001    1    1    2    0    0  0.29052054492E+02 -0.49467639746E+02 -0.13306974307E+03  0.16409639171E+03  0.77000000000E+02 0.  0.
   -5000001    1    1    2    0    0 -0.29052054492E+02  0.49467639746E+02 -0.71459799603E+02  0.11969365986E+03  0.77000000000E+02 0.  0.
<mgrwt>
<rscale>  0 0.19673449E+03</rscale>
<asrwt>0</asrwt>
<pdfrwt beam="1">  1        2 0.34879970E-01 0.19673449E+03</pdfrwt>
<pdfrwt beam="2">  1       -2 0.56614651E-02 0.19673449E+03</pdfrwt>
<totfact> 0.23125652E+04</totfact>
</mgrwt>
</event>
<event>
 4    1  0.4950349E-004  0.1321164E+04  0.7818608E-02  0.9012948E-01
         -2   -1    0    0    0  501 -0.00000000000E+00  0.00000000000E+00  0.63682001426E+03  0.63682001426E+03  0.25500000000E-02 0. -1.
          2   -1    0    0  501    0  0.00000000000E+00 -0.00000000000E+00 -0.68523097880E+03  0.68523097880E+03  0.25500000000E-02 0.  1.
    5000001    1    1    2    0    0  0.43714681568E+03 -0.36101358006E+03  0.30618523559E+03  0.64892722392E+03  0.77000000000E+02 0.  0.
   -5000001    1    1    2    0    0 -0.43714681568E+03  0.36101358006E+03 -0.35459620013E+03  0.67312376915E+03  0.77000000000E+02 0.  0.
<mgrwt>
<rscale>  0 0.13211643E+04</rscale>
<asrwt>0</asrwt>
<pdfrwt beam="1">  1        2 0.97890140E-01 0.13211643E+04</pdfrwt>
<pdfrwt beam="2">  1       -2 0.90974288E-01 0.13211643E+04</pdfrwt>
<totfact> 0.46699778E+01</totfact>
</mgrwt>
</event>
<event>
 4    1  0.4950349E-004  0.2414339E+03  0.7818608E-02  0.1118841E+00
         -2   -1    0    0    0  501 -0.00000000000E+00  0.00000000000E+00  0.92415236077E+02  0.92415236112E+02  0.25500000000E-02 0. -1.
          2   -1    0    0  501    0  0.00000000000E+00 -0.00000000000E+00 -0.15768593268E+03  0.15768593270E+03  0.25500000000E-02 0.  1.
    5000001    1    1    2    0    0 -0.22888962254E+02  0.80327041103E+02  0.96623872854E+01  0.11401184085E+03  0.77000000000E+02 0.  0.
   -5000001    1    1    2    0    0  0.22888962254E+02 -0.80327041103E+02 -0.74933083890E+02  0.13608932797E+03  0.77000000000E+02 0.  0.
<mgrwt>
<rscale>  0 0.24143391E+03</rscale>
<asrwt>0</asrwt>
<pdfrwt beam="1">  1        2 0.22526562E-01 0.24143391E+03</pdfrwt>
<pdfrwt beam="2">  1       -2 0.13202177E-01 0.24143391E+03</pdfrwt>
<totfact> 0.10054286E+04</totfact>
</mgrwt>
</event>
<event>
 4    1  0.4950349E-004  0.3264355E+03  0.7818608E-02  0.1072725E+00
         -2   -1    0    0    0  501 -0.00000000000E+00  0.00000000000E+00  0.19485667219E+02  0.19485667386E+02  0.25500000000E-02 0.  1.
          2   -1    0    0  501    0  0.00000000000E+00 -0.00000000000E+00 -0.13671601472E+04  0.13671601472E+04  0.25500000000E-02 0. -1.
    5000001    1    1    2    0    0  0.11696525408E+03  0.72430327679E+02 -0.49441915540E+03  0.51894732320E+03  0.77000000000E+02 0.  0.
   -5000001    1    1    2    0    0 -0.11696525408E+03 -0.72430327679E+02 -0.85325532455E+03  0.86769849136E+03  0.77000000000E+02 0.  0.
<mgrwt>
<rscale>  0 0.32643546E+03</rscale>
<asrwt>0</asrwt>
<pdfrwt beam="1">  1        2 0.19530853E+00 0.32643546E+03</pdfrwt>
<pdfrwt beam="2">  1       -2 0.27836676E-02 0.32643546E+03</pdfrwt>
<totfact> 0.86763738E+03</totfact>
</mgrwt>
</event>
<event>
 4    1  0.4950349E-004  0.2084902E+03  0.7818608E-02  0.1142767E+00
         -2   -1    0    0    0  501 -0.00000000000E+00  0.00000000000E+00  0.97678153760E+01  0.97678157089E+01  0.25500000000E-02 0. -1.
          2   -1    0    0  501    0  0.00000000000E+00 -0.00000000000E+00 -0.11125353720E+04  0.11125353720E+04  0.25500000000E-02 0.  1.
    5000001    1    1    2    0    0 -0.92218814584E+01 -0.41052817056E+02 -0.85434990615E+03  0.85884407143E+03  0.77000000000E+02 0.  0.
   -5000001    1    1    2    0    0  0.92218814584E+01  0.41052817056E+02 -0.24841765044E+03  0.26345911625E+03  0.77000000000E+02 0.  0.
<mgrwt>
<rscale>  0 0.20849019E+03</rscale>
<asrwt>0</asrwt>
<pdfrwt beam="1">  1        2 0.15893354E+00 0.20849019E+03</pdfrwt>
<pdfrwt beam="2">  1       -2 0.13954029E-02 0.20849019E+03</pdfrwt>
<totfact> 0.32202167E+04</totfact>
</mgrwt>
</event>
<event>
 4    1  0.4950349E-004  0.7579171E+03  0.7818608E-02  0.9623011E-01
         -2   -1    0    0    0  501 -0.00000000000E+00  0.00000000000E+00  0.40983338065E+03  0.40983338066E+03  0.25500000000E-02 0. -1.
          2   -1    0    0  501    0  0.00000000000E+00 -0.00000000000E+00 -0.35040967662E+03  0.35040967663E+03  0.25500000000E-02 0.  1.
    5000001    1    1    2    0    0 -0.27432215704E+03  0.14838430352E+02 -0.22046840281E+03  0.36056641759E+03  0.77000000000E+02 0.  0.
   -5000001    1    1    2    0    0  0.27432215704E+03 -0.14838430352E+02  0.27989210683E+03  0.39967663970E+03  0.77000000000E+02 0.  0.
<mgrwt>
<rscale>  0 0.75791710E+03</rscale>
<asrwt>0</asrwt>
<pdfrwt beam="1">  1        2 0.50058525E-01 0.75791710E+03</pdfrwt>
<pdfrwt beam="2">  1       -2 0.58547626E-01 0.75791710E+03</pdfrwt>
<totfact> 0.27573012E+02</totfact>
</mgrwt>
</event>
<event>
 4    1  0.4950349E-004  0.2239297E+03  0.7818608E-02  0.1130987E+00
          2   -1    0    0  501    0  0.00000000000E+00  0.00000000000E+00  0.14461529381E+04  0.14461529381E+04  0.25500000000E-02 0.  1.
         -2   -1    0    0    0  501 -0.00000000000E+00 -0.00000000000E+00 -0.86686005115E+01  0.86686008866E+01  0.25500000000E-02 0. -1.
    5000001    1    1    2    0    0  0.46620687338E+02  0.66500517217E+02  0.69688835568E+03  0.70581738967E+03  0.77000000000E+02 0.  0.
   -5000001    1    1    2    0    0 -0.46620687338E+02 -0.66500517217E+02  0.74059598189E+03  0.74900414930E+03  0.77000000000E+02 0.  0.
<mgrwt>
<rscale>  0 0.22392965E+03</rscale>
<asrwt>0</asrwt>
<pdfrwt beam="1">  1        2 0.20659331E+00 0.22392965E+03</pdfrwt>
<pdfrwt beam="2">  1       -2 0.12383713E-02 0.22392965E+03</pdfrwt>
<totfact> 0.25651333E+04</totfact>
</mgrwt>
</event>
<event>
 4    1  0.4950349E-004  0.2043987E+03  0.7818608E-02  0.1146080E+00
          2   -1    0    0  501    0  0.00000000000E+00  0.00000000000E+00  0.28337713586E+03  0.28337713587E+03  0.25500000000E-02 0.  1.
         -2   -1    0    0    0  501 -0.00000000000E+00 -0.00000000000E+00 -0.36857968826E+02  0.36857968914E+02  0.25500000000E-02 0. -1.
    5000001    1    1    2    0    0  0.27069703588E+02  0.58550419224E+02  0.93749285557E+02  0.13740032382E+03  0.77000000000E+02 0.  0.
   -5000001    1    1    2    0    0 -0.27069703588E+02 -0.58550419224E+02  0.15276988148E+03  0.18283478096E+03  0.77000000000E+02 0.  0.
<mgrwt>
<rscale>  0 0.20439869E+03</rscale>
<asrwt>0</asrwt>
<pdfrwt beam="1">  1        2 0.40482449E-01 0.20439869E+03</pdfrwt>
<pdfrwt beam="2">  1       -2 0.52654240E-02 0.20439869E+03</pdfrwt>
<totfact> 0.22060065E+04</totfact>
</mgrwt>
</event>
<event>
 4    1  0.4950349E-004  0.3461807E+03  0.7818608E-02  0.1064194E+00
          2   -1    0    0  501    0  0.00000000000E+00  0.00000000000E+00  0.59306687909E+03  0.59306687909E+03  0.25500000000E-02 0.  1.
         -2   -1    0    0    0  501 -0.00000000000E+00 -0.00000000000E+00 -0.50517533222E+02  0.50517533286E+02  0.25500000000E-02 0. -1.
    5000001    1    1    2    0    0 -0.26175865473E+02 -0.12094437776E+03  0.44486476443E+03  0.46813072649E+03  0.77000000000E+02 0.  0.
   -5000001    1    1    2    0    0  0.26175865473E+02  0.12094437776E+03  0.97684581431E+02  0.17545368589E+03  0.77000000000E+02 0.  0.
<mgrwt>
<rscale>  0 0.34618074E+03</rscale>
<asrwt>0</asrwt>
<pdfrwt beam="1">  1        2 0.84723838E-01 0.34618074E+03</pdfrwt>
<pdfrwt beam="2">  1       -2 0.72167906E-02 0.34618074E+03</pdfrwt>
<totfact> 0.62215101E+03</totfact>
</mgrwt>
</event>
<event>
 4    1  0.4950349E-004  0.1893260E+03  0.7818608E-02  0.1159071E+00
          2   -1    0    0  501    0  0.00000000000E+00  0.00000000000E+00  0.73830205713E+03  0.73830205713E+03  0.25500000000E-02 0.  1.
         -2   -1    0    0    0  501 -0.00000000000E+00 -0.00000000000E+00 -0.12137425576E+02  0.12137425844E+02  0.25500000000E-02 0. -1.
    5000001    1    1    2    0    0 -0.41117168933E+02 -0.18241500150E+02  0.48897168046E+03  0.49703689823E+03  0.77000000000E+02 0.  0.
   -5000001    1    1    2    0    0  0.41117168933E+02  0.18241500150E+02  0.23719295109E+03  0.25340258474E+03  0.77000000000E+02 0.  0.
<mgrwt>
<rscale>  0 0.18932603E+03</rscale>
<asrwt>0</asrwt>
<pdfrwt beam="1">  1        2 0.10547169E+00 0.18932603E+03</pdfrwt>
<pdfrwt beam="2">  1       -2 0.17339185E-02 0.18932603E+03</pdfrwt>
<totfact> 0.39626613E+04</totfact>
</mgrwt>
</event>
<event>
 4    1  0.4950349E-004  0.2225462E+03  0.7818608E-02  0.1131999E+00
          2   -1    0    0  501    0  0.00000000000E+00  0.00000000000E+00  0.62869499121E+02  0.62869499173E+02  0.25500000000E-02 0.  1.
         -2   -1    0    0    0  501 -0.00000000000E+00 -0.00000000000E+00 -0.19694293911E+03  0.19694293913E+03  0.25500000000E-02 0. -1.
    5000001    1    1    2    0    0  0.93390994806E+01  0.76526844460E+02 -0.40694467759E+02  0.11631258061E+03  0.77000000000E+02 0.  0.
   -5000001    1    1    2    0    0 -0.93390994806E+01 -0.76526844460E+02 -0.93378972230E+02  0.14349985769E+03  0.77000000000E+02 0.  0.
<mgrwt>
<rscale>  0 0.22254621E+03</rscale>
<asrwt>0</asrwt>
<pdfrwt beam="1">  1        2 0.89813571E-02 0.22254621E+03</pdfrwt>
<pdfrwt beam="2">  1       -2 0.28134705E-01 0.22254621E+03</pdfrwt>
<totfact> 0.82482262E+03</totfact>
</mgrwt>
</event>
<event>
 4    1  0.4950349E-004  0.6017014E+03  0.7818608E-02  0.9901882E-01
          2   -1    0    0  501    0  0.00000000000E+00  0.00000000000E+00  0.10958750821E+04  0.10958750821E+04  0.25500000000E-02 0.  1.
         -2   -1    0    0    0  501 -0.00000000000E+00 -0.00000000000E+00 -0.82592571441E+02  0.82592571480E+02  0.25500000000E-02 0. -1.
    5000001    1    1    2    0    0  0.16462790280E+03  0.93362629870E+00  0.97620111261E+03  0.99297574508E+03  0.77000000000E+02 0.  0.
   -5000001    1    1    2    0    0 -0.16462790280E+03 -0.93362629870E+00  0.37081398040E+02  0.18549190850E+03  0.77000000000E+02 0.  0.
<mgrwt>
<rscale>  0 0.60170139E+03</rscale>
<asrwt>0</asrwt>
<pdfrwt beam="1">  1        2 0.15655358E+00 0.60170139E+03</pdfrwt>
<pdfrwt beam="2">  1       -2 0.11798939E-01 0.60170139E+03</pdfrwt>
<totfact> 0.12937634E+03</totfact>
</mgrwt>
</event>
<event>
 4    1  0.4950349E-004  0.2056234E+03  0.7818608E-02  0.1145079E+00
          2   -1    0    0  501    0  0.00000000000E+00  0.00000000000E+00  0.33456159312E+03  0.33456159313E+03  0.25500000000E-02 0.  1.
         -2   -1    0    0    0  501 -0.00000000000E+00 -0.00000000000E+00 -0.31594317466E+02  0.31594317568E+02  0.25500000000E-02 0. -1.
    5000001    1    1    2    0    0 -0.17116876174E+02  0.64996643093E+02  0.13167894601E+03  0.16669101921E+03  0.77000000000E+02 0.  0.
   -5000001    1    1    2    0    0  0.17116876174E+02 -0.64996643093E+02  0.17128832964E+03  0.19946489148E+03  0.77000000000E+02 0.  0.
<mgrwt>
<rscale>  0 0.20562340E+03</rscale>
<asrwt>0</asrwt>
<pdfrwt beam="1">  1        2 0.47794517E-01 0.20562340E+03</pdfrwt>
<pdfrwt beam="2">  1       -2 0.45134736E-02 0.20562340E+03</pdfrwt>
<totfact> 0.23321324E+04</totfact>
</mgrwt>
</event>
<event>
 4    1  0.4950349E-004  0.2866484E+03  0.7818608E-02  0.1092112E+00
          2   -1    0    0  501    0  0.00000000000E+00  0.00000000000E+00  0.23904444637E+03  0.23904444639E+03  0.25500000000E-02 0.  1.
         -2   -1    0    0    0  501 -0.00000000000E+00 -0.00000000000E+00 -0.85933073024E+02  0.85933073061E+02  0.25500000000E-02 0. -1.
    5000001    1    1    2    0    0 -0.89370532118E+02  0.63918701787E+02  0.19416781225E+02  0.13556807826E+03  0.77000000000E+02 0.  0.
   -5000001    1    1    2    0    0  0.89370532118E+02 -0.63918701787E+02  0.13369459212E+03  0.18940944119E+03  0.77000000000E+02 0.  0.
<mgrwt>
<rscale>  0 0.28664838E+03</rscale>
<asrwt>0</asrwt>
<pdfrwt beam="1">  1        2 0.34149206E-01 0.28664838E+03</pdfrwt>
<pdfrwt beam="2">  1       -2 0.12276153E-01 0.28664838E+03</pdfrwt>
<totfact> 0.71972384E+03</totfact>
</mgrwt>
</event>
<event>
 4    1  0.4950349E-004  0.5645563E+03  0.7818608E-02  0.9981798E-01
         -2   -1    0    0    0  501 -0.00000000000E+00  0.00000000000E+00  0.11658908536E+03  0.11658908538E+03  0.25500000000E-02 0.  1.
          2   -1    0    0  501    0  0.00000000000E+00 -0.00000000000E+00 -0.68343398653E+03  0.68343398653E+03  0.25500000000E-02 0. -1.
    5000001    1    1    2    0    0  0.15861681051E+03 -0.13974444697E+03 -0.52500970803E+03  0.57118473068E+03  0.77000000000E+02 0.  0.
   -5000001    1    1    2    0    0 -0.15861681051E+03  0.13974444697E+03 -0.41835193141E+02  0.22883834124E+03  0.77000000000E+02 0.  0.
<mgrwt>
<rscale>  0 0.56455626E+03</rscale>
<asrwt>0</asrwt>
<pdfrwt beam="1">  1        2 0.97633425E-01 0.56455626E+03</pdfrwt>
<pdfrwt beam="2">  1       -2 0.16655584E-01 0.56455626E+03</pdfrwt>
<totfact> 0.13595410E+03</totfact>
</mgrwt>
</event>
<event>
 4    1  0.4950349E-004  0.1910784E+03  0.7818608E-02  0.1157492E+00
         -2   -1    0    0    0  501 -0.00000000000E+00  0.00000000000E+00  0.83621429396E+01  0.83621433284E+01  0.25500000000E-02 0. -1.
          2   -1    0    0  501    0  0.00000000000E+00 -0.00000000000E+00 -0.10915548472E+04  0.10915548473E+04  0.25500000000E-02 0.  1.
    5000001    1    1    2    0    0  0.55365280591E+02 -0.73024578902E+01 -0.49007843142E+03  0.49922390681E+03  0.77000000000E+02 0.  0.
   -5000001    1    1    2    0    0 -0.55365280591E+02  0.73024578902E+01 -0.59311427289E+03  0.60069308378E+03  0.77000000000E+02 0.  0.
<mgrwt>
<rscale>  0 0.19107839E+03</rscale>
<asrwt>0</asrwt>
<pdfrwt beam="1">  1        2 0.15593632E+00 0.19107839E+03</pdfrwt>
<pdfrwt beam="2">  1       -2 0.11945926E-02 0.19107839E+03</pdfrwt>
<totfact> 0.41173120E+04</totfact>
</mgrwt>
</event>
<event>
 4    1  0.4950349E-004  0.2775636E+03  0.7818608E-02  0.1097027E+00
          2   -1    0    0  501    0  0.00000000000E+00  0.00000000000E+00  0.18222023909E+03  0.18222023911E+03  0.25500000000E-02 0.  1.
         -2   -1    0    0    0  501 -0.00000000000E+00 -0.00000000000E+00 -0.10569836638E+03  0.10569836641E+03  0.25500000000E-02 0. -1.
    5000001    1    1    2    0    0 -0.55397390820E+02 -0.78555184298E+02 -0.28090990918E+02  0.12632454892E+03  0.77000000000E+02 0.  0.
   -5000001    1    1    2    0    0  0.55397390820E+02  0.78555184298E+02  0.10461286363E+03  0.16159405659E+03  0.77000000000E+02 0.  0.
<mgrwt>
<rscale>  0 0.27756355E+03</rscale>
<asrwt>0</asrwt>
<pdfrwt beam="1">  1        2 0.26031463E-01 0.27756355E+03</pdfrwt>
<pdfrwt beam="2">  1       -2 0.15099767E-01 0.27756355E+03</pdfrwt>
<totfact> 0.69044875E+03</totfact>
</mgrwt>
</event>
<event>
 4    1  0.4950349E-004  0.2219685E+03  0.7818608E-02  0.1132424E+00
          2   -1    0    0  501    0  0.00000000000E+00  0.00000000000E+00  0.13350261769E+04  0.13350261769E+04  0.25500000000E-02 0.  1.
         -2   -1    0    0    0  501 -0.00000000000E+00 -0.00000000000E+00 -0.92264101302E+01  0.92264104826E+01  0.25500000000E-02 0. -1.
    5000001    1    1    2    0    0  0.17963628484E+02 -0.66925817221E+02  0.42166349641E+03  0.43420140622E+03  0.77000000000E+02 0.  0.
   -5000001    1    1    2    0    0 -0.17963628484E+02  0.66925817221E+02  0.90413627033E+03  0.91005118113E+03  0.77000000000E+02 0.  0.
<mgrwt>
<rscale>  0 0.22196846E+03</rscale>
<asrwt>0</asrwt>
<pdfrwt beam="1">  1        2 0.19071797E+00 0.22196846E+03</pdfrwt>
<pdfrwt beam="2">  1       -2 0.13180590E-02 0.22196846E+03</pdfrwt>
<totfact> 0.26697672E+04</totfact>
</mgrwt>
</event>
<event>
 4    1  0.4950349E-004  0.3657783E+03  0.7818608E-02  0.1056319E+00
          2   -1    0    0  501    0  0.00000000000E+00  0.00000000000E+00  0.26627643323E+03  0.26627643324E+03  0.25500000000E-02 0.  1.
         -2   -1    0    0    0  501 -0.00000000000E+00 -0.00000000000E+00 -0.12561548690E+03  0.12561548693E+03  0.25500000000E-02 0. -1.
    5000001    1    1    2    0    0  0.25556543434E+02 -0.15937529830E+03  0.29311115608E+02  0.18122296797E+03  0.77000000000E+02 0.  0.
   -5000001    1    1    2    0    0 -0.25556543434E+02  0.15937529830E+03  0.11134983071E+03  0.21066895220E+03  0.77000000000E+02 0.  0.
<mgrwt>
<rscale>  0 0.36577831E+03</rscale>
<asrwt>0</asrwt>
<pdfrwt beam="1">  1        2 0.38039491E-01 0.36577831E+03</pdfrwt>
<pdfrwt beam="2">  1       -2 0.17945069E-01 0.36577831E+03</pdfrwt>
<totfact> 0.34347072E+03</totfact>
</mgrwt>
</event>
<event>
 4    1  0.4950349E-004  0.2020524E+03  0.7818608E-02  0.1148019E+00
          2   -1    0    0  501    0  0.00000000000E+00  0.00000000000E+00  0.20730201499E+03  0.20730201500E+03  0.25500000000E-02 0.  1.
         -2   -1    0    0    0  501 -0.00000000000E+00 -0.00000000000E+00 -0.49233931906E+02  0.49233931972E+02  0.25500000000E-02 0. -1.
    5000001    1    1    2    0    0  0.48648495704E+02  0.39642537966E+02  0.10241376471E+03  0.14267370519E+03  0.77000000000E+02 0.  0.
   -5000001    1    1    2    0    0 -0.48648495704E+02 -0.39642537966E+02  0.55654318373E+02  0.11386224178E+03  0.77000000000E+02 0.  0.
<mgrwt>
<rscale>  0 0.20205240E+03</rscale>
<asrwt>0</asrwt>
<pdfrwt beam="1">  1        2 0.29614574E-01 0.20205240E+03</pdfrwt>
<pdfrwt beam="2">  1       -2 0.70334187E-02 0.20205240E+03</pdfrwt>
<totfact> 0.19854520E+04</totfact>
</mgrwt>
</event>
<event>
 4    1  0.4950349E-004  0.4817381E+03  0.7818608E-02  0.1018659E+00
          2   -1    0    0  501    0  0.00000000000E+00  0.00000000000E+00  0.18916703369E+04  0.18916703369E+04  0.25500000000E-02 0.  1.
         -2   -1    0    0    0  501 -0.00000000000E+00 -0.00000000000E+00 -0.30670200222E+02  0.30670200328E+02  0.25500000000E-02 0. -1.
    5000001    1    1    2    0    0 -0.75375443588E+02  0.17455818337E+03  0.14342570750E+04  0.14488527786E+04  0.77000000000E+02 0.  0.
   -5000001    1    1    2    0    0  0.75375443588E+02 -0.17455818337E+03  0.42674306169E+03  0.47348775864E+03  0.77000000000E+02 0.  0.
<mgrwt>
<rscale>  0 0.48173814E+03</rscale>
<asrwt>0</asrwt>
<pdfrwt beam="1">  1        2 0.27023870E+00 0.48173814E+03</pdfrwt>
<pdfrwt beam="2">  1       -2 0.43814559E-02 0.48173814E+03</pdfrwt>
<totfact> 0.23717650E+03</totfact>
</mgrwt>
</event>
<event>
 4    1  0.4950349E-004  0.2936886E+03  0.7818608E-02  0.1088439E+00
          2   -1    0    0  501    0  0.00000000000E+00  0.00000000000E+00  0.73403861408E+03  0.73403861408E+03  0.25500000000E-02 0.  1.
         -2   -1    0    0    0  501 -0.00000000000E+00 -0.00000000000E+00 -0.29376175883E+02  0.29376175993E+02  0.25500000000E-02 0. -1.
    5000001    1    1    2    0    0 -0.12803077073E+02 -0.11390223584E+03  0.48221316532E+03  0.50159363525E+03  0.77000000000E+02 0.  0.
   -5000001    1    1    2    0    0  0.12803077073E+02  0.11390223584E+03  0.22244927287E+03  0.26182115483E+03  0.77000000000E+02 0.  0.
<mgrwt>
<rscale>  0 0.29368859E+03</rscale>
<asrwt>0</asrwt>
<pdfrwt beam="1">  1        2 0.10486266E+00 0.29368859E+03</pdfrwt>
<pdfrwt beam="2">  1       -2 0.41965967E-02 0.29368859E+03</pdfrwt>
<totfact> 0.11064220E+04</totfact>
</mgrwt>
</event>
<event>
 4    1  0.4950349E-004  0.3113255E+03  0.7818608E-02  0.1079712E+00
         -2   -1    0    0    0  501 -0.00000000000E+00  0.00000000000E+00  0.25618783565E+02  0.25618783692E+02  0.25500000000E-02 0. -1.
          2   -1    0    0  501    0  0.00000000000E+00 -0.00000000000E+00 -0.94582523536E+03  0.94582523537E+03  0.25500000000E-02 0.  1.
    5000001    1    1    2    0    0 -0.62620213752E+02  0.11266077048E+03 -0.33189708884E+03  0.36427794053E+03  0.77000000000E+02 0.  0.
   -5000001    1    1    2    0    0  0.62620213752E+02 -0.11266077048E+03 -0.58830936296E+03  0.60716607853E+03  0.77000000000E+02 0.  0.
<mgrwt>
<rscale>  0 0.31132550E+03</rscale>
<asrwt>0</asrwt>
<pdfrwt beam="1">  1        2 0.13511787E+00 0.31132550E+03</pdfrwt>
<pdfrwt beam="2">  1       -2 0.36598268E-02 0.31132550E+03</pdfrwt>
<totfact> 0.98887141E+03</totfact>
</mgrwt>
</event>
<event>
 4    1  0.4950349E-004  0.2627478E+03  0.7818608E-02  0.1105503E+00
          2   -1    0    0  501    0  0.00000000000E+00  0.00000000000E+00  0.15326436833E+04  0.15326436833E+04  0.25500000000E-02 0.  1.
         -2   -1    0    0    0  501 -0.00000000000E+00 -0.00000000000E+00 -0.11261003983E+02  0.11261004272E+02  0.25500000000E-02 0. -1.
    5000001    1    1    2    0    0 -0.94924682408E+02  0.39607687830E+02  0.92168097987E+03  0.93059351648E+03  0.77000000000E+02 0.  0.
   -5000001    1    1    2    0    0  0.94924682408E+02 -0.39607687830E+02  0.59970169941E+03  0.61331117106E+03  0.77000000000E+02 0.  0.
<mgrwt>
<rscale>  0 0.26274784E+03</rscale>
<asrwt>0</asrwt>
<pdfrwt beam="1">  1        2 0.21894909E+00 0.26274784E+03</pdfrwt>
<pdfrwt beam="2">  1       -2 0.16087150E-02 0.26274784E+03</pdfrwt>
<totfact> 0.15957363E+04</totfact>
</mgrwt>
</event>
<event>
 4    1  0.4950349E-004  0.2634517E+03  0.7818608E-02  0.1105087E+00
          2   -1    0    0  501    0  0.00000000000E+00  0.00000000000E+00  0.38110232347E+03  0.38110232348E+03  0.25500000000E-02 0.  1.
         -2   -1    0    0    0  501 -0.00000000000E+00 -0.00000000000E+00 -0.45530274946E+02  0.45530275017E+02  0.25500000000E-02 0. -1.
    5000001    1    1    2    0    0  0.37108996078E+02  0.95013502253E+02  0.11611610983E+03  0.17267482203E+03  0.77000000000E+02 0.  0.
   -5000001    1    1    2    0    0 -0.37108996078E+02 -0.95013502253E+02  0.21945593869E+03  0.25395777647E+03  0.77000000000E+02 0.  0.
<mgrwt>
<rscale>  0 0.26345165E+03</rscale>
<asrwt>0</asrwt>
<pdfrwt beam="1">  1        2 0.54443191E-01 0.26345165E+03</pdfrwt>
<pdfrwt beam="2">  1       -2 0.65043248E-02 0.26345165E+03</pdfrwt>
<totfact> 0.11804866E+04</totfact>
</mgrwt>
</event>
<event>
 4    1  0.4950349E-004  0.2612689E+03  0.7818608E-02  0.1106383E+00
          2   -1    0    0  501    0  0.00000000000E+00  0.00000000000E+00  0.60591127957E+02  0.60591128010E+02  0.25500000000E-02 0.  1.
         -2   -1    0    0    0  501 -0.00000000000E+00 -0.00000000000E+00 -0.28164773111E+03  0.28164773112E+03  0.25500000000E-02 0. -1.
    5000001    1    1    2    0    0  0.59117434622E+02 -0.70958173503E+02 -0.17740331745E+03  0.21431488634E+03  0.77000000000E+02 0.  0.
   -5000001    1    1    2    0    0 -0.59117434622E+02  0.70958173503E+02 -0.43653285705E+02  0.12792397280E+03  0.77000000000E+02 0.  0.
<mgrwt>
<rscale>  0 0.26126886E+03</rscale>
<asrwt>0</asrwt>
<pdfrwt beam="1">  1        2 0.86558756E-02 0.26126886E+03</pdfrwt>
<pdfrwt beam="2">  1       -2 0.40235389E-01 0.26126886E+03</pdfrwt>
<totfact> 0.44933135E+03</totfact>
</mgrwt>
</event>
<event>
 4    1  0.4950349E-004  0.1964051E+03  0.7818608E-02  0.1152808E+00
         -2   -1    0    0    0  501 -0.00000000000E+00  0.00000000000E+00  0.90228959411E+02  0.90228959447E+02  0.25500000000E-02 0. -1.
          2   -1    0    0  501    0  0.00000000000E+00 -0.00000000000E+00 -0.10688072512E+03  0.10688072515E+03  0.25500000000E-02 0.  1.
    5000001    1    1    2    0    0 -0.48124609435E+02 -0.17555761927E+02 -0.41467892981E+02  0.10135466915E+03  0.77000000000E+02 0.  0.
   -5000001    1    1    2    0    0  0.48124609435E+02  0.17555761927E+02  0.24816127274E+02  0.95755015446E+02  0.77000000000E+02 0.  0.
<mgrwt>
<rscale>  0 0.19640506E+03</rscale>
<asrwt>0</asrwt>
<pdfrwt beam="1">  1        2 0.15268675E-01 0.19640506E+03</pdfrwt>
<pdfrwt beam="2">  1       -2 0.12889851E-01 0.19640506E+03</pdfrwt>
<totfact> 0.16141419E+04</totfact>
</mgrwt>
</event>
<event>
 4    1  0.4950349E-004  0.2624440E+03  0.7818608E-02  0.1105684E+00
         -2   -1    0    0    0  501 -0.00000000000E+00  0.00000000000E+00  0.11438961890E+02  0.11438962174E+02  0.25500000000E-02 0. -1.
          2   -1    0    0  501    0  0.00000000000E+00 -0.00000000000E+00 -0.15053126880E+04  0.15053126880E+04  0.25500000000E-02 0.  1.
    5000001    1    1    2    0    0 -0.27571438328E+02 -0.97971319556E+02 -0.92333924381E+03  0.93211744047E+03  0.77000000000E+02 0.  0.
   -5000001    1    1    2    0    0  0.27571438328E+02  0.97971319556E+02 -0.57053448230E+03  0.58463420971E+03  0.77000000000E+02 0.  0.
<mgrwt>
<rscale>  0 0.26244401E+03</rscale>
<asrwt>0</asrwt>
<pdfrwt beam="1">  1        2 0.21504454E+00 0.26244401E+03</pdfrwt>
<pdfrwt beam="2">  1       -2 0.16341384E-02 0.26244401E+03</pdfrwt>
<totfact> 0.16096143E+04</totfact>
</mgrwt>
</event>
<event>
 4    1  0.4950349E-004  0.3851595E+03  0.7818608E-02  0.1049043E+00
          2   -1    0    0  501    0  0.00000000000E+00  0.00000000000E+00  0.25734119255E+03  0.25734119256E+03  0.25500000000E-02 0.  1.
         -2   -1    0    0    0  501 -0.00000000000E+00 -0.00000000000E+00 -0.14411592663E+03  0.14411592665E+03  0.25500000000E-02 0. -1.
    5000001    1    1    2    0    0  0.14987109145E+03 -0.87545149671E+02  0.23120975157E+02  0.19128271426E+03  0.77000000000E+02 0.  0.
   -5000001    1    1    2    0    0 -0.14987109145E+03  0.87545149671E+02  0.90104290765E+02  0.21017440495E+03  0.77000000000E+02 0.  0.
<mgrwt>
<rscale>  0 0.38515952E+03</rscale>
<asrwt>0</asrwt>
<pdfrwt beam="1">  1        2 0.36763028E-01 0.38515952E+03</pdfrwt>
<pdfrwt beam="2">  1       -2 0.20587990E-01 0.38515952E+03</pdfrwt>
<totfact> 0.28200229E+03</totfact>
</mgrwt>
</event>
<event>
 4    1  0.4950349E-004  0.1991279E+03  0.7818608E-02  0.1150477E+00
         -2   -1    0    0    0  501 -0.00000000000E+00  0.00000000000E+00  0.40196830815E+02  0.40196830896E+02  0.25500000000E-02 0. -1.
          2   -1    0    0  501    0  0.00000000000E+00 -0.00000000000E+00 -0.24661094000E+03  0.24661094002E+03  0.25500000000E-02 0.  1.
    5000001    1    1    2    0    0  0.46142482670E+02  0.32379264078E+02 -0.14410890282E+03  0.17284073976E+03  0.77000000000E+02 0.  0.
   -5000001    1    1    2    0    0 -0.46142482670E+02 -0.32379264078E+02 -0.62305206372E+02  0.11396703115E+03  0.77000000000E+02 0.  0.
<mgrwt>
<rscale>  0 0.19912788E+03</rscale>
<asrwt>0</asrwt>
<pdfrwt beam="1">  1        2 0.35230134E-01 0.19912788E+03</pdfrwt>
<pdfrwt beam="2">  1       -2 0.57424045E-02 0.19912788E+03</pdfrwt>
<totfact> 0.22409675E+04</totfact>
</mgrwt>
</event>
<event>
 4    1  0.4950349E-004  0.2062668E+03  0.7818608E-02  0.1144557E+00
         -2   -1    0    0    0  501 -0.00000000000E+00  0.00000000000E+00  0.16323605093E+02  0.16323605293E+02  0.25500000000E-02 0. -1.
          2   -1    0    0  501    0  0.00000000000E+00 -0.00000000000E+00 -0.65160236023E+03  0.65160236023E+03  0.25500000000E-02 0.  1.
    5000001    1    1    2    0    0 -0.76378929894E+00 -0.68520921902E+02 -0.32876263298E+03  0.34454255029E+03  0.77000000000E+02 0.  0.
   -5000001    1    1    2    0    0  0.76378929894E+00  0.68520921902E+02 -0.30651612216E+03  0.32338341524E+03  0.77000000000E+02 0.  0.
<mgrwt>
<rscale>  0 0.20626681E+03</rscale>
<asrwt>0</asrwt>
<pdfrwt beam="1">  1        2 0.93086035E-01 0.20626681E+03</pdfrwt>
<pdfrwt beam="2">  1       -2 0.23319440E-02 0.20626681E+03</pdfrwt>
<totfact> 0.29947707E+04</totfact>
</mgrwt>
</event>
<event>
 4    1  0.4950349E-004  0.2345326E+03  0.7818608E-02  0.1123490E+00
         -2   -1    0    0    0  501 -0.00000000000E+00  0.00000000000E+00  0.20740325947E+02  0.20740326104E+02  0.25500000000E-02 0.  1.
          2   -1    0    0  501    0  0.00000000000E+00 -0.00000000000E+00 -0.66302662297E+03  0.66302662298E+03  0.25500000000E-02 0. -1.
    5000001    1    1    2    0    0  0.50129217447E+02  0.72782434727E+02 -0.31097368516E+03  0.33233094065E+03  0.77000000000E+02 0.  0.
   -5000001    1    1    2    0    0 -0.50129217447E+02 -0.72782434727E+02 -0.33131261186E+03  0.35143600844E+03  0.77000000000E+02 0.  0.
<mgrwt>
<rscale>  0 0.23453263E+03</rscale>
<asrwt>0</asrwt>
<pdfrwt beam="1">  1        2 0.94718076E-01 0.23453263E+03</pdfrwt>
<pdfrwt beam="2">  1       -2 0.29629041E-02 0.23453263E+03</pdfrwt>
<totfact> 0.20789273E+04</totfact>
</mgrwt>
</event>
<event>
 4    1  0.4950349E-004  0.2013511E+03  0.7818608E-02  0.1148604E+00
         -2   -1    0    0    0  501 -0.00000000000E+00  0.00000000000E+00  0.14675992861E+02  0.14675993082E+02  0.25500000000E-02 0. -1.
          2   -1    0    0  501    0  0.00000000000E+00 -0.00000000000E+00 -0.69062220363E+03  0.69062220363E+03  0.25500000000E-02 0.  1.
    5000001    1    1    2    0    0 -0.10114327510E+02 -0.54091479322E+02 -0.45821650095E+03  0.46788839428E+03  0.77000000000E+02 0.  0.
   -5000001    1    1    2    0    0  0.10114327510E+02  0.54091479322E+02 -0.21772970981E+03  0.23740980243E+03  0.77000000000E+02 0.  0.
<mgrwt>
<rscale>  0 0.20135110E+03</rscale>
<asrwt>0</asrwt>
<pdfrwt beam="1">  1        2 0.98660295E-01 0.20135110E+03</pdfrwt>
<pdfrwt beam="2">  1       -2 0.20965709E-02 0.20135110E+03</pdfrwt>
<totfact> 0.32656810E+04</totfact>
</mgrwt>
</event>
<event>
 4    1  0.4950349E-004  0.2777222E+03  0.7818608E-02  0.1096940E+00
         -2   -1    0    0    0  501 -0.00000000000E+00  0.00000000000E+00  0.33152341180E+02  0.33152341278E+02  0.25500000000E-02 0. -1.
          2   -1    0    0  501    0  0.00000000000E+00 -0.00000000000E+00 -0.58163042525E+03  0.58163042526E+03  0.25500000000E-02 0.  1.
    5000001    1    1    2    0    0  0.10708247524E+03  0.43374987239E+02 -0.27936609645E+03  0.31196548185E+03  0.77000000000E+02 0.  0.
   -5000001    1    1    2    0    0 -0.10708247524E+03 -0.43374987239E+02 -0.26911198762E+03  0.30281728468E+03  0.77000000000E+02 0.  0.
<mgrwt>
<rscale>  0 0.27772224E+03</rscale>
<asrwt>0</asrwt>
<pdfrwt beam="1">  1        2 0.83090055E-01 0.27772224E+03</pdfrwt>
<pdfrwt beam="2">  1       -2 0.47360491E-02 0.27772224E+03</pdfrwt>
<totfact> 0.12066384E+04</totfact>
</mgrwt>
</event>
<event>
 4    1  0.4950349E-004  0.1725138E+03  0.7818608E-02  0.1175251E+00
         -2   -1    0    0    0  501 -0.00000000000E+00  0.00000000000E+00  0.19765083481E+02  0.19765083646E+02  0.25500000000E-02 0. -1.
          2   -1    0    0  501    0  0.00000000000E+00 -0.00000000000E+00 -0.37643424142E+03  0.37643424143E+03  0.25500000000E-02 0.  1.
    5000001    1    1    2    0    0 -0.34697684846E+02 -0.86252057727E+01 -0.14328335045E+03  0.16654561545E+03  0.77000000000E+02 0.  0.
   -5000001    1    1    2    0    0  0.34697684846E+02  0.86252057727E+01 -0.21338580749E+03  0.22965370963E+03  0.77000000000E+02 0.  0.
<mgrwt>
<rscale>  0 0.17251382E+03</rscale>
<asrwt>0</asrwt>
<pdfrwt beam="1">  1        2 0.53776316E-01 0.17251382E+03</pdfrwt>
<pdfrwt beam="2">  1       -2 0.28235836E-02 0.17251382E+03</pdfrwt>
<totfact> 0.40705404E+04</totfact>
</mgrwt>
</event>
<event>
 4    1  0.4950349E-004  0.1652683E+03  0.7818608E-02  0.1182874E+00
          2   -1    0    0  501    0  0.00000000000E+00  0.00000000000E+00  0.18171065401E+04  0.18171065401E+04  0.25500000000E-02 0.  1.
         -2   -1    0    0    0  501 -0.00000000000E+00 -0.00000000000E+00 -0.37578440077E+01  0.37578448729E+01  0.25500000000E-02 0. -1.
    5000001    1    1    2    0    0 -0.26869257653E+02  0.26960727148E+00  0.75993958601E+03  0.76430308391E+03  0.77000000000E+02 0.  0.
   -5000001    1    1    2    0    0  0.26869257653E+02 -0.26960727148E+00  0.10534091100E+04  0.10565613010E+04  0.77000000000E+02 0.  0.
<mgrwt>
<rscale>  0 0.16526831E+03</rscale>
<asrwt>0</asrwt>
<pdfrwt beam="1">  1        2 0.25958756E+00 0.16526831E+03</pdfrwt>
<pdfrwt beam="2">  1       -2 0.53683304E-03 0.16526831E+03</pdfrwt>
<totfact> 0.54980212E+04</totfact>
</mgrwt>
</event>
<event>
 4    1  0.4950349E-004  0.2144184E+03  0.7818608E-02  0.1138114E+00
          2   -1    0    0  501    0  0.00000000000E+00  0.00000000000E+00  0.27595067907E+03  0.27595067908E+03  0.25500000000E-02 0.  1.
         -2   -1    0    0    0  501 -0.00000000000E+00 -0.00000000000E+00 -0.41651698482E+02  0.41651698561E+02  0.25500000000E-02 0. -1.
    5000001    1    1    2    0    0 -0.74026134707E+02 -0.84483637343E+01  0.11169281651E+03  0.15477573689E+03  0.77000000000E+02 0.  0.
   -5000001    1    1    2    0    0  0.74026134707E+02  0.84483637343E+01  0.12260616407E+03  0.16282664075E+03  0.77000000000E+02 0.  0.
<mgrwt>
<rscale>  0 0.21441842E+03</rscale>
<asrwt>0</asrwt>
<pdfrwt beam="1">  1        2 0.39421527E-01 0.21441842E+03</pdfrwt>
<pdfrwt beam="2">  1       -2 0.59502425E-02 0.21441842E+03</pdfrwt>
<totfact> 0.18909174E+04</totfact>
</mgrwt>
</event>
<event>
 4    1  0.4950349E-004  0.4757002E+03  0.7818608E-02  0.1020324E+00
          2   -1    0    0  501    0  0.00000000000E+00  0.00000000000E+00  0.37473083469E+03  0.37473083470E+03  0.25500000000E-02 0.  1.
         -2   -1    0    0    0  501 -0.00000000000E+00 -0.00000000000E+00 -0.15096883153E+03  0.15096883156E+03  0.25500000000E-02 0. -1.
    5000001    1    1    2    0    0  0.59870001309E+02  0.20215380472E+03  0.19884877178E+03  0.29986732376E+03  0.77000000000E+02 0.  0.
   -5000001    1    1    2    0    0 -0.59870001309E+02 -0.20215380472E+03  0.24913231376E+02  0.22583234250E+03  0.77000000000E+02 0.  0.
<mgrwt>
<rscale>  0 0.47570023E+03</rscale>
<asrwt>0</asrwt>
<pdfrwt beam="1">  1        2 0.53532976E-01 0.47570023E+03</pdfrwt>
<pdfrwt beam="2">  1       -2 0.21566976E-01 0.47570023E+03</pdfrwt>
<totfact> 0.17287133E+03</totfact>
</mgrwt>
</event>
<event>
 4    1  0.4950349E-004  0.1858665E+03  0.7818608E-02  0.1162243E+00
          2   -1    0    0  501    0  0.00000000000E+00  0.00000000000E+00  0.67867693906E+03  0.67867693906E+03  0.25500000000E-02 0.  1.
         -2   -1    0    0    0  501 -0.00000000000E+00 -0.00000000000E+00 -0.12725623225E+02  0.12725623481E+02  0.25500000000E-02 0. -1.
    5000001    1    1    2    0    0  0.33061865191E+02 -0.40064448583E+02  0.32160706930E+03  0.33475118221E+03  0.77000000000E+02 0.  0.
   -5000001    1    1    2    0    0 -0.33061865191E+02  0.40064448583E+02  0.34434424653E+03  0.35665138033E+03  0.77000000000E+02 0.  0.
<mgrwt>
<rscale>  0 0.18586648E+03</rscale>
<asrwt>0</asrwt>
<pdfrwt beam="1">  1        2 0.96953850E-01 0.18586648E+03</pdfrwt>
<pdfrwt beam="2">  1       -2 0.18179462E-02 0.18586648E+03</pdfrwt>
<totfact> 0.40780111E+04</totfact>
</mgrwt>
</event>
<event>
 4    1  0.4950349E-004  0.2325479E+03  0.7818608E-02  0.1124859E+00
          2   -1    0    0  501    0  0.00000000000E+00  0.00000000000E+00  0.13155356037E+04  0.13155356037E+04  0.25500000000E-02 0.  1.
         -2   -1    0    0    0  501 -0.00000000000E+00 -0.00000000000E+00 -0.10276901253E+02  0.10276901570E+02  0.25500000000E-02 0. -1.
    5000001    1    1    2    0    0 -0.19435438473E+02  0.76406234957E+02  0.86403569616E+03  0.87103520781E+03  0.77000000000E+02 0.  0.
   -5000001    1    1    2    0    0  0.19435438473E+02 -0.76406234957E+02  0.44122300630E+03  0.45477729748E+03  0.77000000000E+02 0.  0.
<mgrwt>
<rscale>  0 0.23254789E+03</rscale>
<asrwt>0</asrwt>
<pdfrwt beam="1">  1        2 0.18793364E+00 0.23254789E+03</pdfrwt>
<pdfrwt beam="2">  1       -2 0.14681289E-02 0.23254789E+03</pdfrwt>
<totfact> 0.23419417E+04</totfact>
</mgrwt>
</event>
<event>
 4    1  0.4950349E-004  0.4548273E+03  0.7818608E-02  0.1026292E+00
          2   -1    0    0  501    0  0.00000000000E+00  0.00000000000E+00  0.14065485071E+04  0.14065485071E+04  0.25500000000E-02 0.  1.
         -2   -1    0    0    0  501 -0.00000000000E+00 -0.00000000000E+00 -0.36768698309E+02  0.36768698398E+02  0.25500000000E-02 0. -1.
    5000001    1    1    2    0    0  0.10532673790E+03  0.13059813048E+03  0.11063383566E+04  0.11216341439E+04  0.77000000000E+02 0.  0.
   -5000001    1    1    2    0    0 -0.10532673790E+03 -0.13059813048E+03  0.26344145212E+03  0.32168306156E+03  0.77000000000E+02 0.  0.
<mgrwt>
<rscale>  0 0.45482725E+03</rscale>
<asrwt>0</asrwt>
<pdfrwt beam="1">  1        2 0.20093547E+00 0.45482725E+03</pdfrwt>
<pdfrwt beam="2">  1       -2 0.52526720E-02 0.45482725E+03</pdfrwt>
<totfact> 0.31666723E+03</totfact>
</mgrwt>
</event>
<event>
 4    1  0.4950349E-004  0.3390931E+03  0.7818608E-02  0.1067183E+00
          2   -1    0    0  501    0  0.00000000000E+00  0.00000000000E+00  0.87865746803E+03  0.87865746803E+03  0.25500000000E-02 0.  1.
         -2   -1    0    0    0  501 -0.00000000000E+00 -0.00000000000E+00 -0.32715866590E+02  0.32715866689E+02  0.25500000000E-02 0. -1.
    5000001    1    1    2    0    0  0.27255887660E+02  0.11913569218E+03  0.66156708175E+03  0.67715301094E+03  0.77000000000E+02 0.  0.
   -5000001    1    1    2    0    0 -0.27255887660E+02 -0.11913569218E+03  0.18437451968E+03  0.23422032378E+03  0.77000000000E+02 0.  0.
<mgrwt>
<rscale>  0 0.33909315E+03</rscale>
<asrwt>0</asrwt>
<pdfrwt beam="1">  1        2 0.12552249E+00 0.33909315E+03</pdfrwt>
<pdfrwt beam="2">  1       -2 0.46736956E-02 0.33909315E+03</pdfrwt>
<totfact> 0.75407122E+03</totfact>
</mgrwt>
</event>
<event>
 4    1  0.4950349E-004  0.1574622E+03  0.7818608E-02  0.1191592E+00
          2   -1    0    0  501    0  0.00000000000E+00  0.00000000000E+00  0.59261833837E+03  0.59261833837E+03  0.25500000000E-02 0.  1.
         -2   -1    0    0    0  501 -0.00000000000E+00 -0.00000000000E+00 -0.10459663628E+02  0.10459663938E+02  0.25500000000E-02 0. -1.
    5000001    1    1    2    0    0 -0.80849259234E+01  0.10884726487E+02  0.32654451900E+03  0.33577398081E+03  0.77000000000E+02 0.  0.
   -5000001    1    1    2    0    0  0.80849259234E+01 -0.10884726487E+02  0.25561415574E+03  0.26730402150E+03  0.77000000000E+02 0.  0.
<mgrwt>
<rscale>  0 0.15746223E+03</rscale>
<asrwt>0</asrwt>
<pdfrwt beam="1">  1        2 0.84659756E-01 0.15746223E+03</pdfrwt>
<pdfrwt beam="2">  1       -2 0.14942378E-02 0.15746223E+03</pdfrwt>
<totfact> 0.62281310E+04</totfact>
</mgrwt>
</event>
<event>
 4    1  0.4950349E-004  0.2370284E+03  0.7818608E-02  0.1121788E+00
         -2   -1    0    0    0  501 -0.00000000000E+00  0.00000000000E+00  0.27872133675E+02  0.27872133791E+02  0.25500000000E-02 0. -1.
          2   -1    0    0  501    0  0.00000000000E+00 -0.00000000000E+00 -0.50393057095E+03  0.50393057096E+03  0.25500000000E-02 0.  1.
    5000001    1    1    2    0    0 -0.65946601169E+02  0.54586285415E+02 -0.30101088691E+03  0.32228119833E+03  0.77000000000E+02 0.  0.
   -5000001    1    1    2    0    0  0.65946601169E+02 -0.54586285415E+02 -0.17504755037E+03  0.20952150642E+03  0.77000000000E+02 0.  0.
<mgrwt>
<rscale>  0 0.23702844E+03</rscale>
<asrwt>0</asrwt>
<pdfrwt beam="1">  1        2 0.71990076E-01 0.23702844E+03</pdfrwt>
<pdfrwt beam="2">  1       -2 0.39817337E-02 0.23702844E+03</pdfrwt>
<totfact> 0.18255008E+04</totfact>
</mgrwt>
</event>
<event>
 4    1  0.4950349E-004  0.2318316E+03  0.7818608E-02  0.1125357E+00
         -2   -1    0    0    0  501 -0.00000000000E+00  0.00000000000E+00  0.57477015895E+03  0.57477015895E+03  0.25500000000E-02 0. -1.
          2   -1    0    0  501    0  0.00000000000E+00 -0.00000000000E+00 -0.23377128257E+02  0.23377128396E+02  0.25500000000E-02 0.  1.
    5000001    1    1    2    0    0  0.65675625772E+02  0.56180566326E+02  0.29158702524E+03  0.31372206990E+03  0.77000000000E+02 0.  0.
   -5000001    1    1    2    0    0 -0.65675625772E+02 -0.56180566326E+02  0.25980600545E+03  0.28442521745E+03  0.77000000000E+02 0.  0.
<mgrwt>
<rscale>  0 0.23183163E+03</rscale>
<asrwt>0</asrwt>
<pdfrwt beam="1">  1        2 0.33395900E-02 0.23183163E+03</pdfrwt>
<pdfrwt beam="2">  1       -2 0.82110017E-01 0.23183163E+03</pdfrwt>
<totfact> 0.35959840E+03</totfact>
</mgrwt>
</event>
<event>
 4    1  0.4950349E-004  0.3083476E+03  0.7818608E-02  0.1081141E+00
          2   -1    0    0  501    0  0.00000000000E+00  0.00000000000E+00  0.34852046316E+03  0.34852046317E+03  0.25500000000E-02 0.  1.
         -2   -1    0    0    0  501 -0.00000000000E+00 -0.00000000000E+00 -0.68201332513E+02  0.68201332560E+02  0.25500000000E-02 0. -1.
    5000001    1    1    2    0    0  0.40634150335E+02  0.10953758651E+03  0.52668939187E+02  0.14950797366E+03  0.77000000000E+02 0.  0.
   -5000001    1    1    2    0    0 -0.40634150335E+02 -0.10953758651E+03  0.22765019146E+03  0.26721382207E+03  0.77000000000E+02 0.  0.
<mgrwt>
<rscale>  0 0.30834760E+03</rscale>
<asrwt>0</asrwt>
<pdfrwt beam="1">  1        2 0.49788638E-01 0.30834760E+03</pdfrwt>
<pdfrwt beam="2">  1       -2 0.97430475E-02 0.30834760E+03</pdfrwt>
<totfact> 0.69538513E+03</totfact>
</mgrwt>
</event>
<event>
 4    1  0.4950349E-004  0.2045017E+03  0.7818608E-02  0.1145996E+00
          2   -1    0    0  501    0  0.00000000000E+00  0.00000000000E+00  0.35689200127E+03  0.35689200128E+03  0.25500000000E-02 0.  1.
         -2   -1    0    0    0  501 -0.00000000000E+00 -0.00000000000E+00 -0.29295226758E+02  0.29295226869E+02  0.25500000000E-02 0. -1.
    5000001    1    1    2    0    0 -0.45100911874E+02 -0.48824347313E+02  0.14414391515E+03  0.17642102317E+03  0.77000000000E+02 0.  0.
   -5000001    1    1    2    0    0  0.45100911874E+02  0.48824347313E+02  0.18345285936E+03  0.20976620498E+03  0.77000000000E+02 0.  0.
<mgrwt>
<rscale>  0 0.20450166E+03</rscale>
<asrwt>0</asrwt>
<pdfrwt beam="1">  1        2 0.50984566E-01 0.20450166E+03</pdfrwt>
<pdfrwt beam="2">  1       -2 0.41850329E-02 0.20450166E+03</pdfrwt>
<totfact> 0.24369590E+04</totfact>
</mgrwt>
</event>
<event>
 4    1  0.4950349E-004  0.7114694E+03  0.7818608E-02  0.9697817E-01
          2   -1    0    0  501    0  0.00000000000E+00  0.00000000000E+00  0.11107528676E+04  0.11107528676E+04  0.25500000000E-02 0.  1.
         -2   -1    0    0    0  501 -0.00000000000E+00 -0.00000000000E+00 -0.11392919991E+03  0.11392919994E+03  0.25500000000E-02 0. -1.
    5000001    1    1    2    0    0 -0.21402305820E+03 -0.24066616878E+03  0.27468963215E+03  0.43024349879E+03  0.77000000000E+02 0.  0.
   -5000001    1    1    2    0    0  0.21402305820E+03  0.24066616878E+03  0.72213403553E+03  0.79443856874E+03  0.77000000000E+02 0.  0.
<mgrwt>
<rscale>  0 0.71146942E+03</rscale>
<asrwt>0</asrwt>
<pdfrwt beam="1">  1        2 0.15867898E+00 0.71146942E+03</pdfrwt>
<pdfrwt beam="2">  1       -2 0.16275600E-01 0.71146942E+03</pdfrwt>
<totfact> 0.73796616E+02</totfact>
</mgrwt>
</event>
<event>
 4    1  0.4950349E-004  0.2116683E+03  0.7818608E-02  0.1140252E+00
          2   -1    0    0  501    0  0.00000000000E+00  0.00000000000E+00  0.27109880444E+04  0.27109880444E+04  0.25500000000E-02 0.  1.
         -2   -1    0    0    0  501 -0.00000000000E+00 -0.00000000000E+00 -0.41316554927E+01  0.41316562796E+01  0.25500000000E-02 0. -1.
    5000001    1    1    2    0    0 -0.47791870282E+02  0.31842924052E+02  0.78354147111E+03  0.78940754470E+03  0.77000000000E+02 0.  0.
   -5000001    1    1    2    0    0  0.47791870282E+02 -0.31842924052E+02  0.19233149178E+04  0.19257121560E+04  0.77000000000E+02 0.  0.
<mgrwt>
<rscale>  0 0.21166832E+03</rscale>
<asrwt>0</asrwt>
<pdfrwt beam="1">  1        2 0.38728459E+00 0.21166832E+03</pdfrwt>
<pdfrwt beam="2">  1       -2 0.59023566E-03 0.21166832E+03</pdfrwt>
<totfact> 0.17843942E+04</totfact>
</mgrwt>
</event>
<event>
 4    1  0.4950349E-004  0.1876055E+03  0.7818608E-02  0.1160639E+00
          2   -1    0    0  501    0  0.00000000000E+00  0.00000000000E+00  0.42439878810E+02  0.42439878886E+02  0.25500000000E-02 0.  1.
         -2   -1    0    0    0  501 -0.00000000000E+00 -0.00000000000E+00 -0.20732762561E+03  0.20732762563E+03  0.25500000000E-02 0. -1.
    5000001    1    1    2    0    0  0.17812273179E+02  0.49412326515E+02 -0.68410710092E+02  0.11561955000E+03  0.77000000000E+02 0.  0.
   -5000001    1    1    2    0    0 -0.17812273179E+02 -0.49412326515E+02 -0.96477036712E+02  0.13414795451E+03  0.77000000000E+02 0.  0.
<mgrwt>
<rscale>  0 0.18760554E+03</rscale>
<asrwt>0</asrwt>
<pdfrwt beam="1">  1        2 0.60628399E-02 0.18760554E+03</pdfrwt>
<pdfrwt beam="2">  1       -2 0.29618232E-01 0.18760554E+03</pdfrwt>
<totfact> 0.12266359E+04</totfact>
</mgrwt>
</event>
<event>
 4    1  0.4950349E-004  0.4387794E+03  0.7818608E-02  0.1031122E+00
          2   -1    0    0  501    0  0.00000000000E+00  0.00000000000E+00  0.22155960860E+03  0.22155960861E+03  0.25500000000E-02 0.  1.
         -2   -1    0    0    0  501 -0.00000000000E+00 -0.00000000000E+00 -0.21724104993E+03  0.21724104995E+03  0.25500000000E-02 0. -1.
    5000001    1    1    2    0    0 -0.11658900889E+03 -0.12229575785E+03 -0.11469496847E+03  0.21825028104E+03  0.77000000000E+02 0.  0.
   -5000001    1    1    2    0    0  0.11658900889E+03  0.12229575785E+03  0.11901352714E+03  0.22055037752E+03  0.77000000000E+02 0.  0.
<mgrwt>
<rscale>  0 0.43877941E+03</rscale>
<asrwt>0</asrwt>
<pdfrwt beam="1">  1        2 0.31651373E-01 0.43877941E+03</pdfrwt>
<pdfrwt beam="2">  1       -2 0.31034436E-01 0.43877941E+03</pdfrwt>
<totfact> 0.16013077E+03</totfact>
</mgrwt>
</event>
<event>
 4    1  0.4950349E-004  0.2121707E+03  0.7818608E-02  0.1139858E+00
         -2   -1    0    0    0  501 -0.00000000000E+00  0.00000000000E+00  0.93431388511E+01  0.93431391991E+01  0.25500000000E-02 0. -1.
          2   -1    0    0  501    0  0.00000000000E+00 -0.00000000000E+00 -0.12045315227E+04  0.12045315227E+04  0.25500000000E-02 0.  1.
    5000001    1    1    2    0    0  0.70750539591E+02 -0.14871504085E+02 -0.65431940694E+03  0.66278932308E+03  0.77000000000E+02 0.  0.
   -5000001    1    1    2    0    0 -0.70750539591E+02  0.14871504085E+02 -0.54086897694E+03  0.55108533886E+03  0.77000000000E+02 0.  0.
<mgrwt>
<rscale>  0 0.21217074E+03</rscale>
<asrwt>0</asrwt>
<pdfrwt beam="1">  1        2 0.17207583E+00 0.21217074E+03</pdfrwt>
<pdfrwt beam="2">  1       -2 0.13347349E-02 0.21217074E+03</pdfrwt>
<totfact> 0.30632022E+04</totfact>
</mgrwt>
</event>
<event>
 4    1  0.4950349E-004  0.2434451E+03  0.7818608E-02  0.1117519E+00
          2   -1    0    0  501    0  0.00000000000E+00  0.00000000000E+00  0.95658301569E+02  0.95658301603E+02  0.25500000000E-02 0.  1.
         -2   -1    0    0    0  501 -0.00000000000E+00 -0.00000000000E+00 -0.15488857339E+03  0.15488857341E+03  0.25500000000E-02 0. -1.
    5000001    1    1    2    0    0 -0.28886968454E+02  0.89699478579E+02 -0.32323338251E+02  0.12591366725E+03  0.77000000000E+02 0.  0.
   -5000001    1    1    2    0    0  0.28886968454E+02 -0.89699478579E+02 -0.26906933568E+02  0.12463320777E+03  0.77000000000E+02 0.  0.
<mgrwt>
<rscale>  0 0.24344509E+03</rscale>
<asrwt>0</asrwt>
<pdfrwt beam="1">  1        2 0.13665472E-01 0.24344509E+03</pdfrwt>
<pdfrwt beam="2">  1       -2 0.22126939E-01 0.24344509E+03</pdfrwt>
<totfact> 0.75651263E+03</totfact>
</mgrwt>
</event>
<event>
 4    1  0.4950349E-004  0.4031005E+03  0.7818608E-02  0.1042711E+00
          2   -1    0    0  501    0  0.00000000000E+00  0.00000000000E+00  0.90654741941E+03  0.90654741941E+03  0.25500000000E-02 0.  1.
         -2   -1    0    0    0  501 -0.00000000000E+00 -0.00000000000E+00 -0.44810129530E+02  0.44810129602E+02  0.25500000000E-02 0. -1.
    5000001    1    1    2    0    0  0.18299119994E+03 -0.15421706256E+02  0.35736757252E+03  0.40910168684E+03  0.77000000000E+02 0.  0.
   -5000001    1    1    2    0    0 -0.18299119994E+03  0.15421706256E+02  0.50436971735E+03  0.54225586218E+03  0.77000000000E+02 0.  0.
<mgrwt>
<rscale>  0 0.40310052E+03</rscale>
<asrwt>0</asrwt>
<pdfrwt beam="1">  1        2 0.12950677E+00 0.40310052E+03</pdfrwt>
<pdfrwt beam="2">  1       -2 0.64014473E-02 0.40310052E+03</pdfrwt>
<totfact> 0.44749701E+03</totfact>
</mgrwt>
</event>
<event>
 4    1  0.4950349E-004  0.2816313E+03  0.7818608E-02  0.1094801E+00
          2   -1    0    0  501    0  0.00000000000E+00  0.00000000000E+00  0.11883844006E+04  0.11883844006E+04  0.25500000000E-02 0.  1.
         -2   -1    0    0    0  501 -0.00000000000E+00 -0.00000000000E+00 -0.16685714410E+02  0.16685714605E+02  0.25500000000E-02 0. -1.
    5000001    1    1    2    0    0 -0.51869867395E+02 -0.94002526906E+02  0.79429269977E+03  0.80520609232E+03  0.77000000000E+02 0.  0.
   -5000001    1    1    2    0    0  0.51869867395E+02  0.94002526906E+02  0.37740598637E+03  0.39986402284E+03  0.77000000000E+02 0.  0.
<mgrwt>
<rscale>  0 0.28163127E+03</rscale>
<asrwt>0</asrwt>
<pdfrwt beam="1">  1        2 0.16976924E+00 0.28163127E+03</pdfrwt>
<pdfrwt beam="2">  1       -2 0.23836730E-02 0.28163127E+03</pdfrwt>
<totfact> 0.13551207E+04</totfact>
</mgrwt>
</event>
<event>
 4    1  0.4950349E-004  0.2078393E+03  0.7818608E-02  0.1143289E+00
         -2   -1    0    0    0  501 -0.00000000000E+00  0.00000000000E+00  0.81686484480E+01  0.81686488460E+01  0.25500000000E-02 0. -1.
          2   -1    0    0  501    0  0.00000000000E+00 -0.00000000000E+00 -0.13220412647E+04  0.13220412647E+04  0.25500000000E-02 0.  1.
    5000001    1    1    2    0    0 -0.67634591201E+02  0.14645148803E+02 -0.59920241885E+03  0.60808014033E+03  0.77000000000E+02 0.  0.
   -5000001    1    1    2    0    0  0.67634591201E+02 -0.14645148803E+02 -0.71467019736E+03  0.72212977317E+03  0.77000000000E+02 0.  0.
<mgrwt>
<rscale>  0 0.20783927E+03</rscale>
<asrwt>0</asrwt>
<pdfrwt beam="1">  1        2 0.18886290E+00 0.20783927E+03</pdfrwt>
<pdfrwt beam="2">  1       -2 0.11669506E-02 0.20783927E+03</pdfrwt>
<totfact> 0.32223858E+04</totfact>
</mgrwt>
</event>
<event>
 4    1  0.4950349E-004  0.5728723E+03  0.7818608E-02  0.9963343E-01
          2   -1    0    0  501    0  0.00000000000E+00  0.00000000000E+00  0.66231956067E+02  0.66231956116E+02  0.25500000000E-02 0.  1.
         -2   -1    0    0    0  501 -0.00000000000E+00 -0.00000000000E+00 -0.12387625624E+04  0.12387625624E+04  0.25500000000E-02 0. -1.
    5000001    1    1    2    0    0  0.25932432070E+03  0.38175326906E+02 -0.78236010732E+03  0.82868739366E+03  0.77000000000E+02 0.  0.
   -5000001    1    1    2    0    0 -0.25932432070E+03 -0.38175326906E+02 -0.39017049902E+03  0.47630712486E+03  0.77000000000E+02 0.  0.
<mgrwt>
<rscale>  0 0.57287230E+03</rscale>
<asrwt>0</asrwt>
<pdfrwt beam="1">  1        2 0.94617088E-02 0.57287230E+03</pdfrwt>
<pdfrwt beam="2">  1       -2 0.17696607E+00 0.57287230E+03</pdfrwt>
<totfact> 0.13868741E+02</totfact>
</mgrwt>
</event>
<event>
 4    1  0.4950349E-004  0.2129893E+03  0.7818608E-02  0.1139220E+00
          2   -1    0    0  501    0  0.00000000000E+00  0.00000000000E+00  0.70241574692E+02  0.70241574739E+02  0.25500000000E-02 0.  1.
         -2   -1    0    0    0  501 -0.00000000000E+00 -0.00000000000E+00 -0.16145872264E+03  0.16145872266E+03  0.25500000000E-02 0. -1.
    5000001    1    1    2    0    0  0.55020691175E+02  0.38276443967E+02 -0.12616914255E+02  0.10286179634E+03  0.77000000000E+02 0.  0.
   -5000001    1    1    2    0    0 -0.55020691175E+02 -0.38276443967E+02 -0.78600233697E+02  0.12883850107E+03  0.77000000000E+02 0.  0.
<mgrwt>
<rscale>  0 0.21298934E+03</rscale>
<asrwt>0</asrwt>
<pdfrwt beam="1">  1        2 0.10034511E-01 0.21298934E+03</pdfrwt>
<pdfrwt beam="2">  1       -2 0.23065532E-01 0.21298934E+03</pdfrwt>
<totfact> 0.10173097E+04</totfact>
</mgrwt>
</event>
<event>
 4    1  0.4950349E-004  0.2211615E+03  0.7818608E-02  0.1133020E+00
          2   -1    0    0  501    0  0.00000000000E+00  0.00000000000E+00  0.98238454259E+03  0.98238454260E+03  0.25500000000E-02 0.  1.
         -2   -1    0    0    0  501 -0.00000000000E+00 -0.00000000000E+00 -0.12447363710E+02  0.12447363971E+02  0.25500000000E-02 0. -1.
    5000001    1    1    2    0    0  0.52877748487E+02  0.38183703719E+02  0.28154944080E+03  0.29908717648E+03  0.77000000000E+02 0.  0.
   -5000001    1    1    2    0    0 -0.52877748487E+02 -0.38183703719E+02  0.68838773808E+03  0.69574473009E+03  0.77000000000E+02 0.  0.
<mgrwt>
<rscale>  0 0.22116146E+03</rscale>
<asrwt>0</asrwt>
<pdfrwt beam="1">  1        2 0.14034068E+00 0.22116146E+03</pdfrwt>
<pdfrwt beam="2">  1       -2 0.17781944E-02 0.22116146E+03</pdfrwt>
<totfact> 0.26959619E+04</totfact>
</mgrwt>
</event>
<event>
 4    1  0.4950349E-004  0.4870021E+03  0.7818608E-02  0.1017228E+00
         -2   -1    0    0    0  501 -0.00000000000E+00  0.00000000000E+00  0.27030333146E+03  0.27030333147E+03  0.25500000000E-02 0. -1.
          2   -1    0    0  501    0  0.00000000000E+00 -0.00000000000E+00 -0.21935639920E+03  0.21935639922E+03  0.25500000000E-02 0.  1.
    5000001    1    1    2    0    0  0.22147088234E+03  0.22985967077E+02 -0.36393274121E+02  0.23839290427E+03  0.77000000000E+02 0.  0.
   -5000001    1    1    2    0    0 -0.22147088234E+03 -0.22985967077E+02  0.87340206380E+02  0.25126682642E+03  0.77000000000E+02 0.  0.
<mgrwt>
<rscale>  0 0.48700212E+03</rscale>
<asrwt>0</asrwt>
<pdfrwt beam="1">  1        2 0.31336628E-01 0.48700212E+03</pdfrwt>
<pdfrwt beam="2">  1       -2 0.38614762E-01 0.48700212E+03</pdfrwt>
<totfact> 0.10738124E+03</totfact>
</mgrwt>
</event>
<event>
 4    1  0.4950349E-004  0.2114690E+03  0.7818608E-02  0.1140408E+00
         -2   -1    0    0    0  501 -0.00000000000E+00  0.00000000000E+00  0.43099657758E+02  0.43099657834E+02  0.25500000000E-02 0. -1.
          2   -1    0    0  501    0  0.00000000000E+00 -0.00000000000E+00 -0.25939374272E+03  0.25939374273E+03  0.25500000000E-02 0.  1.
    5000001    1    1    2    0    0 -0.60295824861E+02  0.23004710676E+02 -0.61008100424E+02  0.11754059523E+03  0.77000000000E+02 0.  0.
   -5000001    1    1    2    0    0  0.60295824861E+02 -0.23004710676E+02 -0.15528598454E+03  0.18495280534E+03  0.77000000000E+02 0.  0.
<mgrwt>
<rscale>  0 0.21146897E+03</rscale>
<asrwt>0</asrwt>
<pdfrwt beam="1">  1        2 0.37056248E-01 0.21146897E+03</pdfrwt>
<pdfrwt beam="2">  1       -2 0.61570941E-02 0.21146897E+03</pdfrwt>
<totfact> 0.19163763E+04</totfact>
</mgrwt>
</event>
<event>
 4    1  0.4950349E-004  0.9218989E+03  0.7818608E-02  0.9398613E-01
         -2   -1    0    0    0  501 -0.00000000000E+00  0.00000000000E+00  0.12317381776E+04  0.12317381776E+04  0.25500000000E-02 0. -1.
          2   -1    0    0  501    0  0.00000000000E+00 -0.00000000000E+00 -0.17249965634E+03  0.17249965635E+03  0.25500000000E-02 0.  1.
    5000001    1    1    2    0    0  0.90221231949E+02 -0.32401460631E+03  0.64057324851E+02  0.35093828042E+03  0.77000000000E+02 0.  0.
   -5000001    1    1    2    0    0 -0.90221231949E+02  0.32401460631E+03  0.99518119643E+03  0.10532995536E+04  0.77000000000E+02 0.  0.
<mgrwt>
<rscale>  0 0.92189894E+03</rscale>
<asrwt>0</asrwt>
<pdfrwt beam="1">  1        2 0.24642808E-01 0.92189894E+03</pdfrwt>
<pdfrwt beam="2">  1       -2 0.17596260E+00 0.92189894E+03</pdfrwt>
<totfact> 0.43276791E+01</totfact>
</mgrwt>
</event>
<event>
 4    1  0.4950349E-004  0.3537478E+03  0.7818608E-02  0.1061087E+00
         -2   -1    0    0    0  501 -0.00000000000E+00  0.00000000000E+00  0.10283024346E+04  0.10283024346E+04  0.25500000000E-02 0. -1.
          2   -1    0    0  501    0  0.00000000000E+00 -0.00000000000E+00 -0.30423320904E+02  0.30423321011E+02  0.25500000000E-02 0.  1.
    5000001    1    1    2    0    0  0.11869889495E+03  0.77194816122E+02  0.28091244154E+03  0.32386612529E+03  0.77000000000E+02 0.  0.
   -5000001    1    1    2    0    0 -0.11869889495E+03 -0.77194816122E+02  0.71696667214E+03  0.73485963031E+03  0.77000000000E+02 0.  0.
<mgrwt>
<rscale>  0 0.35374779E+03</rscale>
<asrwt>0</asrwt>
<pdfrwt beam="1">  1        2 0.43461881E-02 0.35374779E+03</pdfrwt>
<pdfrwt beam="2">  1       -2 0.14690037E+00 0.35374779E+03</pdfrwt>
<totfact> 0.63804945E+02</totfact>
</mgrwt>
</event>
<event>
 4    1  0.4950349E-004  0.4903720E+03  0.7818608E-02  0.1016323E+00
         -2   -1    0    0    0  501 -0.00000000000E+00  0.00000000000E+00  0.10157315308E+03  0.10157315311E+03  0.25500000000E-02 0.  1.
          2   -1    0    0  501    0  0.00000000000E+00 -0.00000000000E+00 -0.59185100087E+03  0.59185100088E+03  0.25500000000E-02 0. -1.
    5000001    1    1    2    0    0 -0.20394894262E+03  0.22815493233E+02 -0.89773952868E+02  0.23686299951E+03  0.77000000000E+02 0.  0.
   -5000001    1    1    2    0    0  0.20394894262E+03 -0.22815493233E+02 -0.40050389493E+03  0.45656115448E+03  0.77000000000E+02 0.  0.
<mgrwt>
<rscale>  0 0.49037199E+03</rscale>
<asrwt>0</asrwt>
<pdfrwt beam="1">  1        2 0.84550141E-01 0.49037199E+03</pdfrwt>
<pdfrwt beam="2">  1       -2 0.14510451E-01 0.49037199E+03</pdfrwt>
<totfact> 0.20347757E+03</totfact>
</mgrwt>
</event>
<event>
 4    1  0.4950349E-004  0.3415257E+03  0.7818608E-02  0.1066148E+00
          2   -1    0    0  501    0  0.00000000000E+00  0.00000000000E+00  0.97725416522E+03  0.97725416523E+03  0.25500000000E-02 0.  1.
         -2   -1    0    0    0  501 -0.00000000000E+00 -0.00000000000E+00 -0.29838651448E+02  0.29838651557E+02  0.25500000000E-02 0. -1.
    5000001    1    1    2    0    0  0.10410851399E+03 -0.40611395009E+02  0.77934798391E+03  0.79107531128E+03  0.77000000000E+02 0.  0.
   -5000001    1    1    2    0    0 -0.10410851399E+03  0.40611395009E+02  0.16806752986E+03  0.21601750551E+03  0.77000000000E+02 0.  0.
<mgrwt>
<rscale>  0 0.34152567E+03</rscale>
<asrwt>0</asrwt>
<pdfrwt beam="1">  1        2 0.13960775E+00 0.34152567E+03</pdfrwt>
<pdfrwt beam="2">  1       -2 0.42626640E-02 0.34152567E+03</pdfrwt>
<totfact> 0.75351341E+03</totfact>
</mgrwt>
</event>
<event>
 4    1  0.4950349E-004  0.4139145E+03  0.7818608E-02  0.1039065E+00
         -2   -1    0    0    0  501 -0.00000000000E+00  0.00000000000E+00  0.96783787162E+02  0.96783787196E+02  0.25500000000E-02 0. -1.
          2   -1    0    0  501    0  0.00000000000E+00 -0.00000000000E+00 -0.44254615811E+03  0.44254615812E+03  0.25500000000E-02 0.  1.
    5000001    1    1    2    0    0 -0.53124510219E+02  0.12748955371E+03 -0.34685220367E+03  0.38119712890E+03  0.77000000000E+02 0.  0.
   -5000001    1    1    2    0    0  0.53124510219E+02 -0.12748955371E+03  0.10898327194E+01  0.15813281641E+03  0.77000000000E+02 0.  0.
<mgrwt>
<rscale>  0 0.41391445E+03</rscale>
<asrwt>0</asrwt>
<pdfrwt beam="1">  1        2 0.63220879E-01 0.41391445E+03</pdfrwt>
<pdfrwt beam="2">  1       -2 0.13826255E-01 0.41391445E+03</pdfrwt>
<totfact> 0.30593837E+03</totfact>
</mgrwt>
</event>
<event>
 4    1  0.4950349E-004  0.1761321E+03  0.7818608E-02  0.1171600E+00
         -2   -1    0    0    0  501 -0.00000000000E+00  0.00000000000E+00  0.12423102983E+02  0.12423103245E+02  0.25500000000E-02 0. -1.
          2   -1    0    0  501    0  0.00000000000E+00 -0.00000000000E+00 -0.62429068573E+03  0.62429068573E+03  0.25500000000E-02 0.  1.
    5000001    1    1    2    0    0 -0.53676997908E+01 -0.28000809075E+02 -0.19083374031E+03  0.20774834284E+03  0.77000000000E+02 0.  0.
   -5000001    1    1    2    0    0  0.53676997908E+01  0.28000809075E+02 -0.42103384243E+03  0.42896544614E+03  0.77000000000E+02 0.  0.
<mgrwt>
<rscale>  0 0.17613208E+03</rscale>
<asrwt>0</asrwt>
<pdfrwt beam="1">  1        2 0.89184364E-01 0.17613208E+03</pdfrwt>
<pdfrwt beam="2">  1       -2 0.17747294E-02 0.17613208E+03</pdfrwt>
<totfact> 0.46269762E+04</totfact>
</mgrwt>
</event>
<event>
 4    1  0.4950349E-004  0.1988222E+03  0.7818608E-02  0.1150737E+00
          2   -1    0    0  501    0  0.00000000000E+00  0.00000000000E+00  0.73194765510E+03  0.73194765510E+03  0.25500000000E-02 0.  1.
         -2   -1    0    0    0  501 -0.00000000000E+00 -0.00000000000E+00 -0.13501735627E+02  0.13501735868E+02  0.25500000000E-02 0. -1.
    5000001    1    1    2    0    0  0.36056389013E+02 -0.10515286629E+01  0.16612732824E+03  0.18662384116E+03  0.77000000000E+02 0.  0.
   -5000001    1    1    2    0    0 -0.36056389013E+02  0.10515286629E+01  0.55231859123E+03  0.55882554981E+03  0.77000000000E+02 0.  0.
<mgrwt>
<rscale>  0 0.19882217E+03</rscale>
<asrwt>0</asrwt>
<pdfrwt beam="1">  1        2 0.10456395E+00 0.19882217E+03</pdfrwt>
<pdfrwt beam="2">  1       -2 0.19288194E-02 0.19882217E+03</pdfrwt>
<totfact> 0.34411513E+04</totfact>
</mgrwt>
</event>
<event>
 4    1  0.4950349E-004  0.1986472E+03  0.7818608E-02  0.1150885E+00
          2   -1    0    0  501    0  0.00000000000E+00  0.00000000000E+00  0.33583628344E+03  0.33583628345E+03  0.25500000000E-02 0.  1.
         -2   -1    0    0    0  501 -0.00000000000E+00 -0.00000000000E+00 -0.29374957672E+02  0.29374957783E+02  0.25500000000E-02 0. -1.
    5000001    1    1    2    0    0 -0.16078514010E+02  0.47067880988E+02  0.82927335652E+02  0.12361167838E+03  0.77000000000E+02 0.  0.
   -5000001    1    1    2    0    0  0.16078514010E+02 -0.47067880988E+02  0.22353399011E+03  0.24159956285E+03  0.77000000000E+02 0.  0.
<mgrwt>
<rscale>  0 0.19864719E+03</rscale>
<asrwt>0</asrwt>
<pdfrwt beam="1">  1        2 0.47976608E-01 0.19864719E+03</pdfrwt>
<pdfrwt beam="2">  1       -2 0.41964229E-02 0.19864719E+03</pdfrwt>
<totfact> 0.25843928E+04</totfact>
</mgrwt>
</event>
<event>
 4    1  0.4950349E-004  0.3514714E+03  0.7818608E-02  0.1062013E+00
         -2   -1    0    0    0  501 -0.00000000000E+00  0.00000000000E+00  0.86865795063E+02  0.86865795100E+02  0.25500000000E-02 0. -1.
          2   -1    0    0  501    0  0.00000000000E+00 -0.00000000000E+00 -0.35552594549E+03  0.35552594550E+03  0.25500000000E-02 0.  1.
    5000001    1    1    2    0    0  0.13471569725E+03 -0.51564563172E+02 -0.53276049067E+02  0.17197255789E+03  0.77000000000E+02 0.  0.
   -5000001    1    1    2    0    0 -0.13471569725E+03  0.51564563172E+02 -0.21538410136E+03  0.27041918272E+03  0.77000000000E+02 0.  0.
<mgrwt>
<rscale>  0 0.35147144E+03</rscale>
<asrwt>0</asrwt>
<pdfrwt beam="1">  1        2 0.50789420E-01 0.35147144E+03</pdfrwt>
<pdfrwt beam="2">  1       -2 0.12409399E-01 0.35147144E+03</pdfrwt>
<totfact> 0.46285018E+03</totfact>
</mgrwt>
</event>
<event>
 4    1  0.4950349E-004  0.2734820E+03  0.7818608E-02  0.1099303E+00
         -2   -1    0    0    0  501 -0.00000000000E+00  0.00000000000E+00  0.12644142529E+02  0.12644142786E+02  0.25500000000E-02 0. -1.
          2   -1    0    0  501    0  0.00000000000E+00 -0.00000000000E+00 -0.14787951652E+04  0.14787951652E+04  0.25500000000E-02 0.  1.
    5000001    1    1    2    0    0 -0.53021276345E+02  0.81423300525E+02 -0.41846426184E+03  0.43644283480E+03  0.77000000000E+02 0.  0.
   -5000001    1    1    2    0    0  0.53021276345E+02 -0.81423300525E+02 -0.10476867608E+04  0.10549964732E+04  0.77000000000E+02 0.  0.
<mgrwt>
<rscale>  0 0.27348197E+03</rscale>
<asrwt>0</asrwt>
<pdfrwt beam="1">  1        2 0.21125634E+00 0.27348197E+03</pdfrwt>
<pdfrwt beam="2">  1       -2 0.18063070E-02 0.27348197E+03</pdfrwt>
<totfact> 0.14352998E+04</totfact>
</mgrwt>
</event>
<event>
 4    1  0.4950349E-004  0.3256360E+03  0.7818608E-02  0.1073084E+00
          2   -1    0    0  501    0  0.00000000000E+00  0.00000000000E+00  0.17565083068E+03  0.17565083069E+03  0.25500000000E-02 0.  1.
         -2   -1    0    0    0  501 -0.00000000000E+00 -0.00000000000E+00 -0.15092275245E+03  0.15092275247E+03  0.25500000000E-02 0. -1.
    5000001    1    1    2    0    0  0.65813559056E+02  0.12558748273E+03 -0.95406977027E+01  0.16162816984E+03  0.77000000000E+02 0.  0.
   -5000001    1    1    2    0    0 -0.65813559056E+02 -0.12558748273E+03  0.34268775930E+02  0.16494541333E+03  0.77000000000E+02 0.  0.
<mgrwt>
<rscale>  0 0.32563604E+03</rscale>
<asrwt>0</asrwt>
<pdfrwt beam="1">  1        2 0.25092976E-01 0.32563604E+03</pdfrwt>
<pdfrwt beam="2">  1       -2 0.21560393E-01 0.32563604E+03</pdfrwt>
<totfact> 0.39577463E+03</totfact>
</mgrwt>
</event>
<event>
 4    1  0.4950349E-004  0.4839850E+03  0.7818608E-02  0.1018046E+00
         -2   -1    0    0    0  501 -0.00000000000E+00  0.00000000000E+00  0.15333663783E+03  0.15333663785E+03  0.25500000000E-02 0. -1.
          2   -1    0    0  501    0  0.00000000000E+00 -0.00000000000E+00 -0.38190722074E+03  0.38190722075E+03  0.25500000000E-02 0.  1.
    5000001    1    1    2    0    0  0.21212544391E+01  0.22940144780E+03 -0.11278303324E+03  0.26698040482E+03  0.77000000000E+02 0.  0.
   -5000001    1    1    2    0    0 -0.21212544391E+01 -0.22940144780E+03 -0.11578754968E+03  0.26826345378E+03  0.77000000000E+02 0.  0.
<mgrwt>
<rscale>  0 0.48398500E+03</rscale>
<asrwt>0</asrwt>
<pdfrwt beam="1">  1        2 0.54558174E-01 0.48398500E+03</pdfrwt>
<pdfrwt beam="2">  1       -2 0.21905234E-01 0.48398500E+03</pdfrwt>
<totfact> 0.16476205E+03</totfact>
</mgrwt>
</event>
<event>
 4    1  0.4950349E-004  0.2182444E+03  0.7818608E-02  0.1135199E+00
          2   -1    0    0  501    0  0.00000000000E+00  0.00000000000E+00  0.12842457740E+04  0.12842457740E+04  0.25500000000E-02 0.  1.
         -2   -1    0    0    0  501 -0.00000000000E+00 -0.00000000000E+00 -0.92720970558E+01  0.92720974065E+01  0.25500000000E-02 0. -1.
    5000001    1    1    2    0    0  0.29366781618E+02  0.71114031486E+02  0.68302720156E+03  0.69164642080E+03  0.77000000000E+02 0.  0.
   -5000001    1    1    2    0    0 -0.29366781618E+02 -0.71114031486E+02  0.59194647540E+03  0.60187145063E+03  0.77000000000E+02 0.  0.
<mgrwt>
<rscale>  0 0.21824437E+03</rscale>
<asrwt>0</asrwt>
<pdfrwt beam="1">  1        2 0.18346362E+00 0.21824437E+03</pdfrwt>
<pdfrwt beam="2">  1       -2 0.13245858E-02 0.21824437E+03</pdfrwt>
<totfact> 0.28146214E+04</totfact>
</mgrwt>
</event>
<event>
 4    1  0.4950349E-004  0.3013908E+03  0.7818608E-02  0.1084547E+00
          2   -1    0    0  501    0  0.00000000000E+00  0.00000000000E+00  0.20221432798E+04  0.20221432798E+04  0.25500000000E-02 0.  1.
         -2   -1    0    0    0  501 -0.00000000000E+00 -0.00000000000E+00 -0.11230216160E+02  0.11230216449E+02  0.25500000000E-02 0. -1.
    5000001    1    1    2    0    0 -0.61789448577E+02 -0.11024245289E+03  0.11973234986E+04  0.12064343723E+04  0.77000000000E+02 0.  0.
   -5000001    1    1    2    0    0  0.61789448577E+02  0.11024245289E+03  0.81358956505E+03  0.82693912396E+03  0.77000000000E+02 0.  0.
<mgrwt>
<rscale>  0 0.30139082E+03</rscale>
<asrwt>0</asrwt>
<pdfrwt beam="1">  1        2 0.28887783E+00 0.30139082E+03</pdfrwt>
<pdfrwt beam="2">  1       -2 0.16043154E-02 0.30139082E+03</pdfrwt>
<totfact> 0.92247449E+03</totfact>
</mgrwt>
</event>
<event>
 4    1  0.4950349E-004  0.2182888E+03  0.7818608E-02  0.1135165E+00
         -2   -1    0    0    0  501 -0.00000000000E+00  0.00000000000E+00  0.13152278463E+02  0.13152278711E+02  0.25500000000E-02 0. -1.
          2   -1    0    0  501    0  0.00000000000E+00 -0.00000000000E+00 -0.90573697348E+03  0.90573697348E+03  0.25500000000E-02 0.  1.
    5000001    1    1    2    0    0 -0.68145421445E+02 -0.36582916309E+02 -0.44131732664E+03  0.45461202252E+03  0.77000000000E+02 0.  0.
   -5000001    1    1    2    0    0  0.68145421445E+02  0.36582916309E+02 -0.45126736838E+03  0.46427722967E+03  0.77000000000E+02 0.  0.
<mgrwt>
<rscale>  0 0.21828885E+03</rscale>
<asrwt>0</asrwt>
<pdfrwt beam="1">  1        2 0.12939096E+00 0.21828885E+03</pdfrwt>
<pdfrwt beam="2">  1       -2 0.18788975E-02 0.21828885E+03</pdfrwt>
<totfact> 0.27652161E+04</totfact>
</mgrwt>
</event>
<event>
 4    1  0.4950349E-004  0.1585713E+03  0.7818608E-02  0.1190319E+00
         -2   -1    0    0    0  501 -0.00000000000E+00  0.00000000000E+00  0.36053778518E+01  0.36053787536E+01  0.25500000000E-02 0. -1.
          2   -1    0    0  501    0  0.00000000000E+00 -0.00000000000E+00 -0.17435656374E+04  0.17435656374E+04  0.25500000000E-02 0.  1.
    5000001    1    1    2    0    0  0.79367841231E+01  0.76242366598E+01 -0.10392780662E+04  0.10421847343E+04  0.77000000000E+02 0.  0.
   -5000001    1    1    2    0    0 -0.79367841231E+01 -0.76242366598E+01 -0.70068219333E+03  0.70498628184E+03  0.77000000000E+02 0.  0.
<mgrwt>
<rscale>  0 0.15857129E+03</rscale>
<asrwt>0</asrwt>
<pdfrwt beam="1">  1        2 0.24908027E+00 0.15857129E+03</pdfrwt>
<pdfrwt beam="2">  1       -2 0.51505516E-03 0.15857129E+03</pdfrwt>
<totfact> 0.63058212E+04</totfact>
</mgrwt>
</event>
<event>
 4    1  0.4950349E-004  0.1788627E+03  0.7818608E-02  0.1168908E+00
         -2   -1    0    0    0  501 -0.00000000000E+00  0.00000000000E+00  0.31846825625E+01  0.31846835834E+01  0.25500000000E-02 0. -1.
          2   -1    0    0  501    0  0.00000000000E+00 -0.00000000000E+00 -0.25113844269E+04  0.25113844269E+04  0.25500000000E-02 0.  1.
    5000001    1    1    2    0    0  0.51268114049E+00 -0.42677885629E+02 -0.10330171512E+04  0.10367618336E+04  0.77000000000E+02 0.  0.
   -5000001    1    1    2    0    0 -0.51268114049E+00  0.42677885629E+02 -0.14751825931E+04  0.14778072769E+04  0.77000000000E+02 0.  0.
<mgrwt>
<rscale>  0 0.17886267E+03</rscale>
<asrwt>0</asrwt>
<pdfrwt beam="1">  1        2 0.35876794E+00 0.17886267E+03</pdfrwt>
<pdfrwt beam="2">  1       -2 0.45495633E-03 0.17886267E+03</pdfrwt>
<totfact> 0.32350275E+04</totfact>
</mgrwt>
</event>
<event>
 4    1  0.4950349E-004  0.1901450E+03  0.7818608E-02  0.1158331E+00
          2   -1    0    0  501    0  0.00000000000E+00  0.00000000000E+00  0.10464020410E+03  0.10464020413E+03  0.25500000000E-02 0.  1.
         -2   -1    0    0    0  501 -0.00000000000E+00 -0.00000000000E+00 -0.86379589247E+02  0.86379589285E+02  0.25500000000E-02 0. -1.
    5000001    1    1    2    0    0 -0.11562640529E+02  0.51372557669E+02  0.27570781072E+02  0.97272721286E+02  0.77000000000E+02 0.  0.
   -5000001    1    1    2    0    0  0.11562640529E+02 -0.51372557669E+02 -0.93101662215E+01  0.93747072128E+02  0.77000000000E+02 0.  0.
<mgrwt>
<rscale>  0 0.19014497E+03</rscale>
<asrwt>0</asrwt>
<pdfrwt beam="1">  1        2 0.14948601E-01 0.19014497E+03</pdfrwt>
<pdfrwt beam="2">  1       -2 0.12339941E-01 0.19014497E+03</pdfrwt>
<totfact> 0.17711178E+04</totfact>
</mgrwt>
</event>
<event>
 4    1  0.4950349E-004  0.3287198E+03  0.7818608E-02  0.1071705E+00
         -2   -1    0    0    0  501 -0.00000000000E+00  0.00000000000E+00  0.17557642731E+02  0.17557642917E+02  0.25500000000E-02 0. -1.
          2   -1    0    0  501    0  0.00000000000E+00 -0.00000000000E+00 -0.15385993820E+04  0.15385993820E+04  0.25500000000E-02 0.  1.
    5000001    1    1    2    0    0  0.31189384086E+01  0.14429891157E+03 -0.83586049974E+03  0.85171807465E+03  0.77000000000E+02 0.  0.
   -5000001    1    1    2    0    0 -0.31189384086E+01 -0.14429891157E+03 -0.68518123955E+03  0.70443895029E+03  0.77000000000E+02 0.  0.
<mgrwt>
<rscale>  0 0.32871981E+03</rscale>
<asrwt>0</asrwt>
<pdfrwt beam="1">  1        2 0.21979983E+00 0.32871981E+03</pdfrwt>
<pdfrwt beam="2">  1       -2 0.25082357E-02 0.32871981E+03</pdfrwt>
<totfact> 0.82759399E+03</totfact>
</mgrwt>
</event>
<event>
 4    1  0.4950349E-004  0.3890177E+03  0.7818608E-02  0.1047650E+00
          2   -1    0    0  501    0  0.00000000000E+00  0.00000000000E+00  0.10730458969E+04  0.10730458969E+04  0.25500000000E-02 0.  1.
         -2   -1    0    0    0  501 -0.00000000000E+00 -0.00000000000E+00 -0.35258229167E+02  0.35258229260E+02  0.25500000000E-02 0. -1.
    5000001    1    1    2    0    0 -0.15116021438E+03  0.73585645597E+02  0.69079013364E+03  0.71511136642E+03  0.77000000000E+02 0.  0.
   -5000001    1    1    2    0    0  0.15116021438E+03 -0.73585645597E+02  0.34699753412E+03  0.39319275977E+03  0.77000000000E+02 0.  0.
<mgrwt>
<rscale>  0 0.38901773E+03</rscale>
<asrwt>0</asrwt>
<pdfrwt beam="1">  1        2 0.15329227E+00 0.38901773E+03</pdfrwt>
<pdfrwt beam="2">  1       -2 0.50368899E-02 0.38901773E+03</pdfrwt>
<totfact> 0.51397481E+03</totfact>
</mgrwt>
</event>
<event>
 4    1  0.4950349E-004  0.2490845E+03  0.7818608E-02  0.1113885E+00
          2   -1    0    0  501    0  0.00000000000E+00  0.00000000000E+00  0.66717610840E+03  0.66717610840E+03  0.25500000000E-02 0.  1.
         -2   -1    0    0    0  501 -0.00000000000E+00 -0.00000000000E+00 -0.23248384351E+02  0.23248384491E+02  0.25500000000E-02 0. -1.
    5000001    1    1    2    0    0 -0.76787477153E+02 -0.55673331495E+02  0.25486850183E+03  0.28263543605E+03  0.77000000000E+02 0.  0.
   -5000001    1    1    2    0    0  0.76787477153E+02  0.55673331495E+02  0.38905922222E+03  0.40778905684E+03  0.77000000000E+02 0.  0.
<mgrwt>
<rscale>  0 0.24908446E+03</rscale>
<asrwt>0</asrwt>
<pdfrwt beam="1">  1        2 0.95310880E-01 0.24908446E+03</pdfrwt>
<pdfrwt beam="2">  1       -2 0.33211975E-02 0.24908446E+03</pdfrwt>
<totfact> 0.17474037E+04</totfact>
</mgrwt>
</event>
<event>
 4    1  0.4950349E-004  0.1738762E+03  0.7818608E-02  0.1173865E+00
          2   -1    0    0  501    0  0.00000000000E+00  0.00000000000E+00  0.24219957842E+04  0.24219957842E+04  0.25500000000E-02 0.  1.
         -2   -1    0    0    0  501 -0.00000000000E+00 -0.00000000000E+00 -0.31206616047E+01  0.31206626466E+01  0.25500000000E-02 0. -1.
    5000001    1    1    2    0    0  0.26636811253E+02  0.21775357021E+02  0.15038377884E+04  0.15062007767E+04  0.77000000000E+02 0.  0.
   -5000001    1    1    2    0    0 -0.26636811253E+02 -0.21775357021E+02  0.91503733419E+03  0.91891567015E+03  0.77000000000E+02 0.  0.
<mgrwt>
<rscale>  0 0.17387617E+03</rscale>
<asrwt>0</asrwt>
<pdfrwt beam="1">  1        2 0.34599850E+00 0.17387617E+03</pdfrwt>
<pdfrwt beam="2">  1       -2 0.44581003E-03 0.17387617E+03</pdfrwt>
<totfact> 0.36778470E+04</totfact>
</mgrwt>
</event>
<event>
 4    1  0.4950349E-004  0.3909223E+03  0.7818608E-02  0.1046969E+00
         -2   -1    0    0    0  501 -0.00000000000E+00  0.00000000000E+00  0.72662843897E+02  0.72662843942E+02  0.25500000000E-02 0. -1.
          2   -1    0    0  501    0  0.00000000000E+00 -0.00000000000E+00 -0.52578527616E+03  0.52578527617E+03  0.25500000000E-02 0.  1.
    5000001    1    1    2    0    0 -0.12877197544E+03 -0.12494737044E+03 -0.21269981680E+03  0.28872872926E+03  0.77000000000E+02 0.  0.
   -5000001    1    1    2    0    0  0.12877197544E+03  0.12494737044E+03 -0.24042261547E+03  0.30971939084E+03  0.77000000000E+02 0.  0.
<mgrwt>
<rscale>  0 0.39092226E+03</rscale>
<asrwt>0</asrwt>
<pdfrwt beam="1">  1        2 0.75112181E-01 0.39092226E+03</pdfrwt>
<pdfrwt beam="2">  1       -2 0.10380407E-01 0.39092226E+03</pdfrwt>
<totfact> 0.40234601E+03</totfact>
</mgrwt>
</event>
<event>
 4    1  0.4950349E-004  0.5730564E+03  0.7818608E-02  0.9962938E-01
         -2   -1    0    0    0  501 -0.00000000000E+00  0.00000000000E+00  0.87372895088E+02  0.87372895125E+02  0.25500000000E-02 0. -1.
          2   -1    0    0  501    0  0.00000000000E+00 -0.00000000000E+00 -0.93963233906E+03  0.93963233906E+03  0.25500000000E-02 0.  1.
    5000001    1    1    2    0    0 -0.80050754401E+02  0.26408553800E+03 -0.43416511833E+03  0.52017078410E+03  0.77000000000E+02 0.  0.
   -5000001    1    1    2    0    0  0.80050754401E+02 -0.26408553800E+03 -0.41809432565E+03  0.50683445009E+03  0.77000000000E+02 0.  0.
<mgrwt>
<rscale>  0 0.57305636E+03</rscale>
<asrwt>0</asrwt>
<pdfrwt beam="1">  1        2 0.13423319E+00 0.57305636E+03</pdfrwt>
<pdfrwt beam="2">  1       -2 0.12481843E-01 0.57305636E+03</pdfrwt>
<totfact> 0.14664306E+03</totfact>
</mgrwt>
</event>
<event>
 4    1  0.4950349E-004  0.2660280E+03  0.7818608E-02  0.1103575E+00
          2   -1    0    0  501    0  0.00000000000E+00  0.00000000000E+00  0.19681156455E+03  0.19681156457E+03  0.25500000000E-02 0. -1.
         -2   -1    0    0    0  501 -0.00000000000E+00 -0.00000000000E+00 -0.89896746636E+02  0.89896746672E+02  0.25500000000E-02 0.  1.
    5000001    1    1    2    0    0 -0.26938891330E+02 -0.89501608623E+02 -0.58424223848E+01  0.12124098198E+03  0.77000000000E+02 0.  0.
   -5000001    1    1    2    0    0  0.26938891330E+02  0.89501608623E+02  0.11275724030E+03  0.16546732926E+03  0.77000000000E+02 0.  0.
<mgrwt>
<rscale>  0 0.26602796E+03</rscale>
<asrwt>0</asrwt>
<pdfrwt beam="1">  1        2 0.28115937E-01 0.26602796E+03</pdfrwt>
<pdfrwt beam="2">  1       -2 0.12842393E-01 0.26602796E+03</pdfrwt>
<totfact> 0.82517839E+03</totfact>
</mgrwt>
</event>
<event>
 4    1  0.4950349E-004  0.4012404E+03  0.7818608E-02  0.1043351E+00
         -2   -1    0    0    0  501 -0.00000000000E+00  0.00000000000E+00  0.56702392723E+02  0.56702392781E+02  0.25500000000E-02 0. -1.
          2   -1    0    0  501    0  0.00000000000E+00 -0.00000000000E+00 -0.70981934063E+03  0.70981934063E+03  0.25500000000E-02 0.  1.
    5000001    1    1    2    0    0 -0.47535072297E+02 -0.16324632001E+03 -0.46707875510E+03  0.50299155815E+03  0.77000000000E+02 0.  0.
   -5000001    1    1    2    0    0  0.47535072297E+02  0.16324632001E+03 -0.18603819280E+03  0.26353017527E+03  0.77000000000E+02 0.  0.
<mgrwt>
<rscale>  0 0.40124035E+03</rscale>
<asrwt>0</asrwt>
<pdfrwt beam="1">  1        2 0.10140276E+00 0.40124035E+03</pdfrwt>
<pdfrwt beam="2">  1       -2 0.81003422E-02 0.40124035E+03</pdfrwt>
<totfact> 0.42125091E+03</totfact>
</mgrwt>
</event>
<event>
 4    1  0.4950349E-004  0.1903198E+03  0.7818608E-02  0.1158173E+00
         -2   -1    0    0    0  501 -0.00000000000E+00  0.00000000000E+00  0.14514906962E+02  0.14514907186E+02  0.25500000000E-02 0. -1.
          2   -1    0    0  501    0  0.00000000000E+00 -0.00000000000E+00 -0.62386953645E+03  0.62386953646E+03  0.25500000000E-02 0.  1.
    5000001    1    1    2    0    0  0.73237696196E+01  0.54694527975E+02 -0.33491777633E+03  0.34805753245E+03  0.77000000000E+02 0.  0.
   -5000001    1    1    2    0    0 -0.73237696196E+01 -0.54694527975E+02 -0.27443685316E+03  0.29032691119E+03  0.77000000000E+02 0.  0.
<mgrwt>
<rscale>  0 0.19031982E+03</rscale>
<asrwt>0</asrwt>
<pdfrwt beam="1">  1        2 0.89124203E-01 0.19031982E+03</pdfrwt>
<pdfrwt beam="2">  1       -2 0.20735585E-02 0.19031982E+03</pdfrwt>
<totfact> 0.37158446E+04</totfact>
</mgrwt>
</event>
<event>
 4    1  0.4950349E-004  0.3006757E+03  0.7818608E-02  0.1084903E+00
          2   -1    0    0  501    0  0.00000000000E+00  0.00000000000E+00  0.17844814656E+03  0.17844814657E+03  0.25500000000E-02 0.  1.
         -2   -1    0    0    0  501 -0.00000000000E+00 -0.00000000000E+00 -0.12665569621E+03  0.12665569624E+03  0.25500000000E-02 0. -1.
    5000001    1    1    2    0    0  0.75795431040E+02  0.43286587927E+02 -0.70656537035E+02  0.13616175045E+03  0.77000000000E+02 0.  0.
   -5000001    1    1    2    0    0 -0.75795431040E+02 -0.43286587927E+02  0.12244898738E+03  0.16894209236E+03  0.77000000000E+02 0.  0.
<mgrwt>
<rscale>  0 0.30067573E+03</rscale>
<asrwt>0</asrwt>
<pdfrwt beam="1">  1        2 0.25492592E-01 0.30067573E+03</pdfrwt>
<pdfrwt beam="2">  1       -2 0.18093671E-01 0.30067573E+03</pdfrwt>
<totfact> 0.52375118E+03</totfact>
</mgrwt>
</event>
<event>
 4    1  0.4950349E-004  0.2784843E+03  0.7818608E-02  0.1096520E+00
          2   -1    0    0  501    0  0.00000000000E+00  0.00000000000E+00  0.11282949859E+04  0.11282949859E+04  0.25500000000E-02 0.  1.
         -2   -1    0    0    0  501 -0.00000000000E+00 -0.00000000000E+00 -0.17183780850E+02  0.17183781039E+02  0.25500000000E-02 0. -1.
    5000001    1    1    2    0    0  0.81832398738E+02 -0.47418042253E+02  0.83192154948E+03  0.84081358024E+03  0.77000000000E+02 0.  0.
   -5000001    1    1    2    0    0 -0.81832398738E+02  0.47418042253E+02  0.27918965556E+03  0.30466518670E+03  0.77000000000E+02 0.  0.
<mgrwt>
<rscale>  0 0.27848428E+03</rscale>
<asrwt>0</asrwt>
<pdfrwt beam="1">  1        2 0.16118505E+00 0.27848428E+03</pdfrwt>
<pdfrwt beam="2">  1       -2 0.24548250E-02 0.27848428E+03</pdfrwt>
<totfact> 0.13997030E+04</totfact>
</mgrwt>
</event>
<event>
 4    1  0.4950349E-004  0.2897392E+03  0.7818608E-02  0.1090485E+00
         -2   -1    0    0    0  501 -0.00000000000E+00  0.00000000000E+00  0.48825652631E+02  0.48825652698E+02  0.25500000000E-02 0. -1.
          2   -1    0    0  501    0  0.00000000000E+00 -0.00000000000E+00 -0.42983951647E+03  0.42983951648E+03  0.25500000000E-02 0.  1.
    5000001    1    1    2    0    0 -0.72186661900E+02  0.98164701124E+02 -0.21450284513E+03  0.25843315049E+03  0.77000000000E+02 0.  0.
   -5000001    1    1    2    0    0  0.72186661900E+02 -0.98164701124E+02 -0.16651101871E+03  0.22023201868E+03  0.77000000000E+02 0.  0.
<mgrwt>
<rscale>  0 0.28973916E+03</rscale>
<asrwt>0</asrwt>
<pdfrwt beam="1">  1        2 0.61405643E-01 0.28973916E+03</pdfrwt>
<pdfrwt beam="2">  1       -2 0.69750935E-02 0.28973916E+03</pdfrwt>
<totfact> 0.93396063E+03</totfact>
</mgrwt>
</event>
<event>
 4    1  0.4950349E-004  0.3397990E+03  0.7818608E-02  0.1066882E+00
         -2   -1    0    0    0  501 -0.00000000000E+00  0.00000000000E+00  0.24734356728E+02  0.24734356860E+02  0.25500000000E-02 0. -1.
          2   -1    0    0  501    0  0.00000000000E+00 -0.00000000000E+00 -0.11670339648E+04  0.11670339648E+04  0.25500000000E-02 0.  1.
    5000001    1    1    2    0    0  0.35268562887E+02 -0.13605908171E+03 -0.37334171091E+03  0.40628681784E+03  0.77000000000E+02 0.  0.
   -5000001    1    1    2    0    0 -0.35268562887E+02  0.13605908171E+03 -0.76895789719E+03  0.78548150385E+03  0.77000000000E+02 0.  0.
<mgrwt>
<rscale>  0 0.33979897E+03</rscale>
<asrwt>0</asrwt>
<pdfrwt beam="1">  1        2 0.16671910E+00 0.33979897E+03</pdfrwt>
<pdfrwt beam="2">  1       -2 0.35334803E-02 0.33979897E+03</pdfrwt>
<totfact> 0.77769312E+03</totfact>
</mgrwt>
</event>
<event>
 4    1  0.4950349E-004  0.2347824E+03  0.7818608E-02  0.1123318E+00
         -2   -1    0    0    0  501 -0.00000000000E+00  0.00000000000E+00  0.53492789918E+03  0.53492789919E+03  0.25500000000E-02 0. -1.
          2   -1    0    0  501    0  0.00000000000E+00 -0.00000000000E+00 -0.25761781253E+02  0.25761781379E+02  0.25500000000E-02 0.  1.
    5000001    1    1    2    0    0  0.37778128399E+02 -0.70535472209E+02  0.16366932145E+03  0.19778545601E+03  0.77000000000E+02 0.  0.
   -5000001    1    1    2    0    0 -0.37778128399E+02  0.70535472209E+02  0.34549679648E+03  0.36290422456E+03  0.77000000000E+02 0.  0.
<mgrwt>
<rscale>  0 0.23478241E+03</rscale>
<asrwt>0</asrwt>
<pdfrwt beam="1">  1        2 0.36802548E-02 0.23478241E+03</pdfrwt>
<pdfrwt beam="2">  1       -2 0.76418264E-01 0.23478241E+03</pdfrwt>
<totfact> 0.36966519E+03</totfact>
</mgrwt>
</event>
<event>
 4    1  0.4950349E-004  0.1714035E+03  0.7818608E-02  0.1176392E+00
          2   -1    0    0  501    0  0.00000000000E+00  0.00000000000E+00  0.17461665225E+04  0.17461665225E+04  0.25500000000E-02 0.  1.
         -2   -1    0    0    0  501 -0.00000000000E+00 -0.00000000000E+00 -0.42062340414E+01  0.42062348144E+01  0.25500000000E-02 0. -1.
    5000001    1    1    2    0    0 -0.21848529249E+02 -0.30213373439E+02  0.92262864354E+03  0.92658665004E+03  0.77000000000E+02 0.  0.
   -5000001    1    1    2    0    0  0.21848529249E+02  0.30213373439E+02  0.81933164493E+03  0.82378610729E+03  0.77000000000E+02 0.  0.
<mgrwt>
<rscale>  0 0.17140345E+03</rscale>
<asrwt>0</asrwt>
<pdfrwt beam="1">  1        2 0.24945266E+00 0.17140345E+03</pdfrwt>
<pdfrwt beam="2">  1       -2 0.60088992E-03 0.17140345E+03</pdfrwt>
<totfact> 0.50786246E+04</totfact>
</mgrwt>
</event>
<event>
 4    1  0.4950349E-004  0.4317309E+03  0.7818608E-02  0.1033315E+00
         -2   -1    0    0    0  501 -0.00000000000E+00  0.00000000000E+00  0.10399821196E+03  0.10399821200E+03  0.25500000000E-02 0. -1.
          2   -1    0    0  501    0  0.00000000000E+00 -0.00000000000E+00 -0.44806430884E+03  0.44806430885E+03  0.25500000000E-02 0.  1.
    5000001    1    1    2    0    0 -0.47492413593E+02  0.19580311164E+03 -0.16099605800E+03  0.26915259346E+03  0.77000000000E+02 0.  0.
   -5000001    1    1    2    0    0  0.47492413593E+02 -0.19580311164E+03 -0.18307003887E+03  0.28290992738E+03  0.77000000000E+02 0.  0.
<mgrwt>
<rscale>  0 0.43173087E+03</rscale>
<asrwt>0</asrwt>
<pdfrwt beam="1">  1        2 0.64009186E-01 0.43173087E+03</pdfrwt>
<pdfrwt beam="2">  1       -2 0.14856888E-01 0.43173087E+03</pdfrwt>
<totfact> 0.26793254E+03</totfact>
</mgrwt>
</event>
<event>
 4    1  0.4950349E-004  0.2726102E+03  0.7818608E-02  0.1099795E+00
          2   -1    0    0  501    0  0.00000000000E+00  0.00000000000E+00  0.16796984021E+04  0.16796984021E+04  0.25500000000E-02 0.  1.
         -2   -1    0    0    0  501 -0.00000000000E+00 -0.00000000000E+00 -0.11060964321E+02  0.11060964615E+02  0.25500000000E-02 0. -1.
    5000001    1    1    2    0    0 -0.74974653505E+02 -0.40696180005E+02  0.12889258208E+04  0.12940386969E+04  0.77000000000E+02 0.  0.
   -5000001    1    1    2    0    0  0.74974653505E+02  0.40696180005E+02  0.37971161702E+03  0.39672066978E+03  0.77000000000E+02 0.  0.
<mgrwt>
<rscale>  0 0.27261023E+03</rscale>
<asrwt>0</asrwt>
<pdfrwt beam="1">  1        2 0.23995712E+00 0.27261023E+03</pdfrwt>
<pdfrwt beam="2">  1       -2 0.15801364E-02 0.27261023E+03</pdfrwt>
<totfact> 0.13857283E+04</totfact>
</mgrwt>
</event>
<event>
 4    1  0.4950349E-004  0.3318997E+03  0.7818608E-02  0.1070299E+00
          2   -1    0    0  501    0  0.00000000000E+00  0.00000000000E+00  0.12452976562E+04  0.12452976562E+04  0.25500000000E-02 0.  1.
         -2   -1    0    0    0  501 -0.00000000000E+00 -0.00000000000E+00 -0.22114671540E+02  0.22114671687E+02  0.25500000000E-02 0. -1.
    5000001    1    1    2    0    0  0.93579798794E+02 -0.11218999466E+03  0.54924372904E+03  0.57353417294E+03  0.77000000000E+02 0.  0.
   -5000001    1    1    2    0    0 -0.93579798794E+02  0.11218999466E+03  0.67393925565E+03  0.69387815497E+03  0.77000000000E+02 0.  0.
<mgrwt>
<rscale>  0 0.33189968E+03</rscale>
<asrwt>0</asrwt>
<pdfrwt beam="1">  1        2 0.17789961E+00 0.33189968E+03</pdfrwt>
<pdfrwt beam="2">  1       -2 0.31592399E-02 0.33189968E+03</pdfrwt>
<totfact> 0.83346240E+03</totfact>
</mgrwt>
</event>
<event>
 4    1  0.4950349E-004  0.1753913E+03  0.7818608E-02  0.1172339E+00
          2   -1    0    0  501    0  0.00000000000E+00  0.00000000000E+00  0.26678706327E+03  0.26678706328E+03  0.25500000000E-02 0.  1.
         -2   -1    0    0    0  501 -0.00000000000E+00 -0.00000000000E+00 -0.28826447811E+02  0.28826447924E+02  0.25500000000E-02 0. -1.
    5000001    1    1    2    0    0 -0.31539207371E+02  0.12394373411E+02  0.16071630354E+03  0.18140306590E+03  0.77000000000E+02 0.  0.
   -5000001    1    1    2    0    0  0.31539207371E+02 -0.12394373411E+02  0.77244311921E+02  0.11421044531E+03  0.77000000000E+02 0.  0.
<mgrwt>
<rscale>  0 0.17539126E+03</rscale>
<asrwt>0</asrwt>
<pdfrwt beam="1">  1        2 0.38112436E-01 0.17539126E+03</pdfrwt>
<pdfrwt beam="2">  1       -2 0.41180641E-02 0.17539126E+03</pdfrwt>
<totfact> 0.33631622E+04</totfact>
</mgrwt>
</event>
<event>
 4    1  0.4950349E-004  0.2023607E+03  0.7818608E-02  0.1147762E+00
         -2   -1    0    0    0  501 -0.00000000000E+00  0.00000000000E+00  0.11494461029E+03  0.11494461032E+03  0.25500000000E-02 0. -1.
          2   -1    0    0  501    0  0.00000000000E+00 -0.00000000000E+00 -0.89064334439E+02  0.89064334475E+02  0.25500000000E-02 0.  1.
    5000001    1    1    2    0    0 -0.26557136548E+02 -0.95694107802E+01  0.72681640113E+02  0.10958319184E+03  0.77000000000E+02 0.  0.
   -5000001    1    1    2    0    0  0.26557136548E+02  0.95694107802E+01 -0.46801364261E+02  0.94425752955E+02  0.77000000000E+02 0.  0.
<mgrwt>
<rscale>  0 0.20236072E+03</rscale>
<asrwt>0</asrwt>
<pdfrwt beam="1">  1        2 0.12723476E-01 0.20236072E+03</pdfrwt>
<pdfrwt beam="2">  1       -2 0.16420659E-01 0.20236072E+03</pdfrwt>
<totfact> 0.13512634E+04</totfact>
</mgrwt>
</event>
<event>
 4    1  0.4950349E-004  0.2154727E+03  0.7818608E-02  0.1137304E+00
          2   -1    0    0  501    0  0.00000000000E+00  0.00000000000E+00  0.65645604039E+03  0.65645604039E+03  0.25500000000E-02 0.  1.
         -2   -1    0    0    0  501 -0.00000000000E+00 -0.00000000000E+00 -0.17681482609E+02  0.17681482793E+02  0.25500000000E-02 0. -1.
    5000001    1    1    2    0    0 -0.59963714516E+02 -0.42274197319E+02  0.37315642527E+03  0.38801736112E+03  0.77000000000E+02 0.  0.
   -5000001    1    1    2    0    0  0.59963714516E+02  0.42274197319E+02  0.26561813251E+03  0.28612016206E+03  0.77000000000E+02 0.  0.
<mgrwt>
<rscale>  0 0.21547265E+03</rscale>
<asrwt>0</asrwt>
<pdfrwt beam="1">  1        2 0.93779431E-01 0.21547265E+03</pdfrwt>
<pdfrwt beam="2">  1       -2 0.25259262E-02 0.21547265E+03</pdfrwt>
<totfact> 0.26480644E+04</totfact>
</mgrwt>
</event>
<event>
 4    1  0.4950349E-004  0.2134970E+03  0.7818608E-02  0.1138826E+00
          2   -1    0    0  501    0  0.00000000000E+00  0.00000000000E+00  0.36675303079E+03  0.36675303080E+03  0.25500000000E-02 0.  1.
         -2   -1    0    0    0  501 -0.00000000000E+00 -0.00000000000E+00 -0.31070620272E+02  0.31070620377E+02  0.25500000000E-02 0. -1.
    5000001    1    1    2    0    0 -0.64147497205E+02  0.17806892042E+02  0.10791550764E+03  0.14834670064E+03  0.77000000000E+02 0.  0.
   -5000001    1    1    2    0    0  0.64147497205E+02 -0.17806892042E+02  0.22776690287E+03  0.24947695053E+03  0.77000000000E+02 0.  0.
<mgrwt>
<rscale>  0 0.21349702E+03</rscale>
<asrwt>0</asrwt>
<pdfrwt beam="1">  1        2 0.52393293E-01 0.21349702E+03</pdfrwt>
<pdfrwt beam="2">  1       -2 0.44386598E-02 0.21349702E+03</pdfrwt>
<totfact> 0.21734233E+04</totfact>
</mgrwt>
</event>
<event>
 4    1  0.4950349E-004  0.3460900E+03  0.7818608E-02  0.1064231E+00
         -2   -1    0    0    0  501 -0.00000000000E+00  0.00000000000E+00  0.31585095873E+02  0.31585095976E+02  0.25500000000E-02 0. -1.
          2   -1    0    0  501    0  0.00000000000E+00 -0.00000000000E+00 -0.94805995133E+03  0.94805995134E+03  0.25500000000E-02 0.  1.
    5000001    1    1    2    0    0 -0.38380855547E+01  0.14840796058E+03 -0.33241344631E+03  0.37211201667E+03  0.77000000000E+02 0.  0.
   -5000001    1    1    2    0    0  0.38380855547E+01 -0.14840796058E+03 -0.58406140915E+03  0.60753303064E+03  0.77000000000E+02 0.  0.
<mgrwt>
<rscale>  0 0.34608996E+03</rscale>
<asrwt>0</asrwt>
<pdfrwt beam="1">  1        2 0.13543712E+00 0.34608996E+03</pdfrwt>
<pdfrwt beam="2">  1       -2 0.45121572E-02 0.34608996E+03</pdfrwt>
<totfact> 0.72014946E+03</totfact>
</mgrwt>
</event>
<event>
 4    1  0.4950349E-004  0.2095254E+03  0.7818608E-02  0.1141942E+00
          2   -1    0    0  501    0  0.00000000000E+00  0.00000000000E+00  0.15429093155E+04  0.15429093156E+04  0.25500000000E-02 0.  1.
         -2   -1    0    0    0  501 -0.00000000000E+00 -0.00000000000E+00 -0.71133290487E+01  0.71133295057E+01  0.25500000000E-02 0. -1.
    5000001    1    1    2    0    0  0.32794268363E+02 -0.60884952216E+02  0.88804772019E+03  0.89405827258E+03  0.77000000000E+02 0.  0.
   -5000001    1    1    2    0    0 -0.32794268363E+02  0.60884952216E+02  0.64774826631E+03  0.65596437247E+03  0.77000000000E+02 0.  0.
<mgrwt>
<rscale>  0 0.20952539E+03</rscale>
<asrwt>0</asrwt>
<pdfrwt beam="1">  1        2 0.22041597E+00 0.20952539E+03</pdfrwt>
<pdfrwt beam="2">  1       -2 0.10161883E-02 0.20952539E+03</pdfrwt>
<totfact> 0.30431830E+04</totfact>
</mgrwt>
</event>
<event>
 4    1  0.4950349E-004  0.3377223E+03  0.7818608E-02  0.1067770E+00
         -2   -1    0    0    0  501 -0.00000000000E+00  0.00000000000E+00  0.31207387780E+02  0.31207387884E+02  0.25500000000E-02 0. -1.
          2   -1    0    0  501    0  0.00000000000E+00 -0.00000000000E+00 -0.91369660590E+03  0.91369660591E+03  0.25500000000E-02 0.  1.
    5000001    1    1    2    0    0  0.63433486595E+02 -0.12734331813E+03 -0.30575831465E+03  0.34591512669E+03  0.77000000000E+02 0.  0.
   -5000001    1    1    2    0    0 -0.63433486595E+02  0.12734331813E+03 -0.57673090347E+03  0.59898886710E+03  0.77000000000E+02 0.  0.
<mgrwt>
<rscale>  0 0.33772228E+03</rscale>
<asrwt>0</asrwt>
<pdfrwt beam="1">  1        2 0.13052807E+00 0.33772228E+03</pdfrwt>
<pdfrwt beam="2">  1       -2 0.44581988E-02 0.33772228E+03</pdfrwt>
<totfact> 0.76984589E+03</totfact>
</mgrwt>
</event>
<event>
 4    1  0.4950349E-004  0.5112329E+03  0.7818608E-02  0.1010888E+00
         -2   -1    0    0    0  501 -0.00000000000E+00  0.00000000000E+00  0.12795394567E+03  0.12795394570E+03  0.25500000000E-02 0. -1.
          2   -1    0    0  501    0  0.00000000000E+00 -0.00000000000E+00 -0.51065073320E+03  0.51065073321E+03  0.25500000000E-02 0.  1.
    5000001    1    1    2    0    0 -0.18182218187E+03 -0.14838085605E+03 -0.10910758209E+03  0.27001786743E+03  0.77000000000E+02 0.  0.
   -5000001    1    1    2    0    0  0.18182218187E+03  0.14838085605E+03 -0.27358920544E+03  0.36858681147E+03  0.77000000000E+02 0.  0.
<mgrwt>
<rscale>  0 0.51123293E+03</rscale>
<asrwt>0</asrwt>
<pdfrwt beam="1">  1        2 0.72950104E-01 0.51123293E+03</pdfrwt>
<pdfrwt beam="2">  1       -2 0.18279135E-01 0.51123293E+03</pdfrwt>
<totfact> 0.16314483E+03</totfact>
</mgrwt>
</event>
<event>
 4    1  0.4950349E-004  0.3057790E+03  0.7818608E-02  0.1082387E+00
          2   -1    0    0  501    0  0.00000000000E+00  0.00000000000E+00  0.52537299436E+03  0.52537299437E+03  0.25500000000E-02 0.  1.
         -2   -1    0    0    0  501 -0.00000000000E+00 -0.00000000000E+00 -0.44492577143E+02  0.44492577216E+02  0.25500000000E-02 0. -1.
    5000001    1    1    2    0    0  0.86951167831E+02  0.94036113358E+02  0.18025544167E+03  0.23414593836E+03  0.77000000000E+02 0.  0.
   -5000001    1    1    2    0    0 -0.86951167831E+02 -0.94036113358E+02  0.30062497555E+03  0.33571963322E+03  0.77000000000E+02 0.  0.
<mgrwt>
<rscale>  0 0.30577900E+03</rscale>
<asrwt>0</asrwt>
<pdfrwt beam="1">  1        2 0.75053281E-01 0.30577900E+03</pdfrwt>
<pdfrwt beam="2">  1       -2 0.63560828E-02 0.30577900E+03</pdfrwt>
<totfact> 0.86602548E+03</totfact>
</mgrwt>
</event>
<event>
 4    1  0.4950349E-004  0.1790215E+03  0.7818608E-02  0.1168753E+00
         -2   -1    0    0    0  501 -0.00000000000E+00  0.00000000000E+00  0.13219660284E+02  0.13219660530E+02  0.25500000000E-02 0. -1.
          2   -1    0    0  501    0  0.00000000000E+00 -0.00000000000E+00 -0.60608012682E+03  0.60608012682E+03  0.25500000000E-02 0.  1.
    5000001    1    1    2    0    0 -0.28630112722E+02  0.70688437953E+01 -0.17592122550E+03  0.19428569038E+03  0.77000000000E+02 0.  0.
   -5000001    1    1    2    0    0  0.28630112722E+02 -0.70688437953E+01 -0.41693924104E+03  0.42501409697E+03  0.77000000000E+02 0.  0.
<mgrwt>
<rscale>  0 0.17902149E+03</rscale>
<asrwt>0</asrwt>
<pdfrwt beam="1">  1        2 0.86582858E-01 0.17902149E+03</pdfrwt>
<pdfrwt beam="2">  1       -2 0.18885233E-02 0.17902149E+03</pdfrwt>
<totfact> 0.43776518E+04</totfact>
</mgrwt>
</event>
<event>
 4    1  0.4950349E-004  0.2294842E+03  0.7818608E-02  0.1127003E+00
         -2   -1    0    0    0  501 -0.00000000000E+00  0.00000000000E+00  0.39396060638E+03  0.39396060639E+03  0.25500000000E-02 0. -1.
          2   -1    0    0  501    0  0.00000000000E+00 -0.00000000000E+00 -0.33418943217E+02  0.33418943314E+02  0.25500000000E-02 0.  1.
    5000001    1    1    2    0    0  0.67356444674E+02  0.15394009375E+02  0.27269439309E+03  0.29165921584E+03  0.77000000000E+02 0.  0.
   -5000001    1    1    2    0    0 -0.67356444674E+02 -0.15394009375E+02  0.87847270078E+02  0.13572033386E+03  0.77000000000E+02 0.  0.
<mgrwt>
<rscale>  0 0.22948418E+03</rscale>
<asrwt>0</asrwt>
<pdfrwt beam="1">  1        2 0.47741348E-02 0.22948418E+03</pdfrwt>
<pdfrwt beam="2">  1       -2 0.56280086E-01 0.22948418E+03</pdfrwt>
<totfact> 0.49726859E+03</totfact>
</mgrwt>
</event>
<event>
 4    1  0.4950349E-004  0.2808718E+03  0.7818608E-02  0.1095214E+00
          2   -1    0    0  501    0  0.00000000000E+00  0.00000000000E+00  0.45746095726E+03  0.45746095726E+03  0.25500000000E-02 0.  1.
         -2   -1    0    0    0  501 -0.00000000000E+00 -0.00000000000E+00 -0.43112416960E+02  0.43112417036E+02  0.25500000000E-02 0. -1.
    5000001    1    1    2    0    0 -0.45607051850E+02  0.75168617319E+02  0.68402673308E+02  0.13541879457E+03  0.77000000000E+02 0.  0.
   -5000001    1    1    2    0    0  0.45607051850E+02 -0.75168617319E+02  0.34594586699E+03  0.36515457972E+03  0.77000000000E+02 0.  0.
<mgrwt>
<rscale>  0 0.28087184E+03</rscale>
<asrwt>0</asrwt>
<pdfrwt beam="1">  1        2 0.65351565E-01 0.28087184E+03</pdfrwt>
<pdfrwt beam="2">  1       -2 0.61589167E-02 0.28087184E+03</pdfrwt>
<totfact> 0.10561325E+04</totfact>
</mgrwt>
</event>
<event>
 4    1  0.4950349E-004  0.2037715E+03  0.7818608E-02  0.1146595E+00
         -2   -1    0    0    0  501 -0.00000000000E+00  0.00000000000E+00  0.96344731024E+01  0.96344734399E+01  0.25500000000E-02 0. -1.
          2   -1    0    0  501    0  0.00000000000E+00 -0.00000000000E+00 -0.10774546091E+04  0.10774546091E+04  0.25500000000E-02 0.  1.
    5000001    1    1    2    0    0  0.12075799653E+02  0.52509886672E+02 -0.74384780667E+03  0.74976107703E+03  0.77000000000E+02 0.  0.
   -5000001    1    1    2    0    0 -0.12075799653E+02 -0.52509886672E+02 -0.32397232931E+03  0.33732800550E+03  0.77000000000E+02 0.  0.
<mgrwt>
<rscale>  0 0.20377152E+03</rscale>
<asrwt>0</asrwt>
<pdfrwt beam="1">  1        2 0.15392201E+00 0.20377152E+03</pdfrwt>
<pdfrwt beam="2">  1       -2 0.13763540E-02 0.20377152E+03</pdfrwt>
<totfact> 0.34315696E+04</totfact>
</mgrwt>
</event>
<event>
 4    1  0.4950349E-004  0.2364313E+03  0.7818608E-02  0.1122193E+00
         -2   -1    0    0    0  501 -0.00000000000E+00  0.00000000000E+00  0.12266045891E+02  0.12266046157E+02  0.25500000000E-02 0. -1.
          2   -1    0    0  501    0  0.00000000000E+00 -0.00000000000E+00 -0.11393189432E+04  0.11393189432E+04  0.25500000000E-02 0.  1.
    5000001    1    1    2    0    0 -0.85465417845E+02 -0.27039180777E+02 -0.54775588047E+03  0.56035788522E+03  0.77000000000E+02 0.  0.
   -5000001    1    1    2    0    0  0.85465417845E+02  0.27039180777E+02 -0.57929701682E+03  0.59122710411E+03  0.77000000000E+02 0.  0.
<mgrwt>
<rscale>  0 0.23643129E+03</rscale>
<asrwt>0</asrwt>
<pdfrwt beam="1">  1        2 0.16275978E+00 0.23643129E+03</pdfrwt>
<pdfrwt beam="2">  1       -2 0.17522930E-02 0.23643129E+03</pdfrwt>
<totfact> 0.22499924E+04</totfact>
</mgrwt>
</event>
<event>
 4    1  0.4950349E-004  0.4463707E+03  0.7818608E-02  0.1028810E+00
          2   -1    0    0  501    0  0.00000000000E+00  0.00000000000E+00  0.46205333198E+04  0.46205333198E+04  0.25500000000E-02 0.  1.
         -2   -1    0    0    0  501 -0.00000000000E+00 -0.00000000000E+00 -0.10780509700E+02  0.10780510001E+02  0.25500000000E-02 0. -1.
    5000001    1    1    2    0    0 -0.13214752154E+03 -0.18830570691E+02  0.39799681641E+04  0.39829503066E+04  0.77000000000E+02 0.  0.
   -5000001    1    1    2    0    0  0.13214752154E+03  0.18830570691E+02  0.62978464600E+03  0.64836352317E+03  0.77000000000E+02 0.  0.
<mgrwt>
<rscale>  0 0.44637072E+03</rscale>
<asrwt>0</asrwt>
<pdfrwt beam="1">  1        2 0.66007450E+00 0.44637072E+03</pdfrwt>
<pdfrwt beam="2">  1       -2 0.15400768E-02 0.44637072E+03</pdfrwt>
<totfact> 0.28237171E+02</totfact>
</mgrwt>
</event>
<event>
 4    1  0.4950349E-004  0.3697543E+03  0.7818608E-02  0.1054787E+00
          2   -1    0    0  501    0  0.00000000000E+00  0.00000000000E+00  0.24536125361E+04  0.24536125361E+04  0.25500000000E-02 0.  1.
         -2   -1    0    0    0  501 -0.00000000000E+00 -0.00000000000E+00 -0.13930298589E+02  0.13930298822E+02  0.25500000000E-02 0. -1.
    5000001    1    1    2    0    0  0.14743934240E+03 -0.60159953662E+02  0.15787828075E+04  0.15886603579E+04  0.77000000000E+02 0.  0.
   -5000001    1    1    2    0    0 -0.14743934240E+03  0.60159953662E+02  0.86089943000E+03  0.87888247694E+03  0.77000000000E+02 0.  0.
<mgrwt>
<rscale>  0 0.36975427E+03</rscale>
<asrwt>0</asrwt>
<pdfrwt beam="1">  1        2 0.35051640E+00 0.36975427E+03</pdfrwt>
<pdfrwt beam="2">  1       -2 0.19900408E-02 0.36975427E+03</pdfrwt>
<totfact> 0.41052895E+03</totfact>
</mgrwt>
</event>
<event>
 4    1  0.4950349E-004  0.1954295E+03  0.7818608E-02  0.1153653E+00
          2   -1    0    0  501    0  0.00000000000E+00  0.00000000000E+00  0.57162844959E+03  0.57162844960E+03  0.25500000000E-02 0.  1.
         -2   -1    0    0    0  501 -0.00000000000E+00 -0.00000000000E+00 -0.16703459208E+02  0.16703459403E+02  0.25500000000E-02 0. -1.
    5000001    1    1    2    0    0 -0.94451735571E+01  0.51648386878E+02  0.18905521972E+03  0.21077865944E+03  0.77000000000E+02 0.  0.
   -5000001    1    1    2    0    0  0.94451735571E+01 -0.51648386878E+02  0.36586977066E+03  0.37755324956E+03  0.77000000000E+02 0.  0.
<mgrwt>
<rscale>  0 0.19542950E+03</rscale>
<asrwt>0</asrwt>
<pdfrwt beam="1">  1        2 0.81661197E-01 0.19542950E+03</pdfrwt>
<pdfrwt beam="2">  1       -2 0.23862088E-02 0.19542950E+03</pdfrwt>
<totfact> 0.33461678E+04</totfact>
</mgrwt>
</event>
<event>
 4    1  0.4950349E-004  0.3123172E+03  0.7818608E-02  0.1079240E+00
          2   -1    0    0  501    0  0.00000000000E+00  0.00000000000E+00  0.16051027310E+03  0.16051027312E+03  0.25500000000E-02 0.  1.
         -2   -1    0    0    0  501 -0.00000000000E+00 -0.00000000000E+00 -0.15192490425E+03  0.15192490427E+03  0.25500000000E-02 0. -1.
    5000001    1    1    2    0    0 -0.40398315817E+02 -0.10121344213E+03 -0.76857149669E+02  0.15398768212E+03  0.77000000000E+02 0.  0.
   -5000001    1    1    2    0    0  0.40398315817E+02  0.10121344213E+03  0.85442518514E+02  0.15844749527E+03  0.77000000000E+02 0.  0.
<mgrwt>
<rscale>  0 0.31231720E+03</rscale>
<asrwt>0</asrwt>
<pdfrwt beam="1">  1        2 0.22930039E-01 0.31231720E+03</pdfrwt>
<pdfrwt beam="2">  1       -2 0.21703558E-01 0.31231720E+03</pdfrwt>
<totfact> 0.43259001E+03</totfact>
</mgrwt>
</event>
<event>
 4    1  0.4950349E-004  0.2472319E+03  0.7818608E-02  0.1115067E+00
          2   -1    0    0  501    0  0.00000000000E+00  0.00000000000E+00  0.13977049011E+04  0.13977049011E+04  0.25500000000E-02 0.  1.
         -2   -1    0    0    0  501 -0.00000000000E+00 -0.00000000000E+00 -0.10932857583E+02  0.10932857880E+02  0.25500000000E-02 0. -1.
    5000001    1    1    2    0    0 -0.90649916841E+02  0.71480281815E+01  0.88092458204E+03  0.88894635438E+03  0.77000000000E+02 0.  0.
   -5000001    1    1    2    0    0  0.90649916841E+02 -0.71480281815E+01  0.50584746144E+03  0.51969140456E+03  0.77000000000E+02 0.  0.
<mgrwt>
<rscale>  0 0.24723195E+03</rscale>
<asrwt>0</asrwt>
<pdfrwt beam="1">  1        2 0.19967221E+00 0.24723195E+03</pdfrwt>
<pdfrwt beam="2">  1       -2 0.15618362E-02 0.24723195E+03</pdfrwt>
<totfact> 0.19459489E+04</totfact>
</mgrwt>
</event>
<event>
 4    1  0.4950349E-004  0.1740628E+03  0.7818608E-02  0.1173676E+00
         -2   -1    0    0    0  501 -0.00000000000E+00  0.00000000000E+00  0.69110031606E+02  0.69110031653E+02  0.25500000000E-02 0. -1.
          2   -1    0    0  501    0  0.00000000000E+00 -0.00000000000E+00 -0.10960010428E+03  0.10960010431E+03  0.25500000000E-02 0.  1.
    5000001    1    1    2    0    0  0.20961545965E+02  0.34351931862E+02 -0.15007356920E+02  0.88168375247E+02  0.77000000000E+02 0.  0.
   -5000001    1    1    2    0    0 -0.20961545965E+02 -0.34351931862E+02 -0.25482715757E+02  0.90541760720E+02  0.77000000000E+02 0.  0.
<mgrwt>
<rscale>  0 0.17406282E+03</rscale>
<asrwt>0</asrwt>
<pdfrwt beam="1">  1        2 0.15657158E-01 0.17406282E+03</pdfrwt>
<pdfrwt beam="2">  1       -2 0.98728617E-02 0.17406282E+03</pdfrwt>
<totfact> 0.23748590E+04</totfact>
</mgrwt>
</event>
<event>
 4    1  0.4950349E-004  0.3819748E+03  0.7818608E-02  0.1050206E+00
         -2   -1    0    0    0  501 -0.00000000000E+00  0.00000000000E+00  0.38201700077E+02  0.38201700162E+02  0.25500000000E-02 0. -1.
          2   -1    0    0  501    0  0.00000000000E+00 -0.00000000000E+00 -0.95483128270E+03  0.95483128270E+03  0.25500000000E-02 0.  1.
    5000001    1    1    2    0    0 -0.10408735802E+03 -0.11736345628E+03 -0.25796953193E+03  0.31158568384E+03  0.77000000000E+02 0.  0.
   -5000001    1    1    2    0    0  0.10408735802E+03  0.11736345628E+03 -0.65866005069E+03  0.68144729902E+03  0.77000000000E+02 0.  0.
<mgrwt>
<rscale>  0 0.38197475E+03</rscale>
<asrwt>0</asrwt>
<pdfrwt beam="1">  1        2 0.13640445E+00 0.38197475E+03</pdfrwt>
<pdfrwt beam="2">  1       -2 0.54573863E-02 0.38197475E+03</pdfrwt>
<totfact> 0.53410325E+03</totfact>
</mgrwt>
</event>
<event>
 4    1  0.4950349E-004  0.1962643E+03  0.7818608E-02  0.1152930E+00
          2   -1    0    0  501    0  0.00000000000E+00  0.00000000000E+00  0.38435785632E+03  0.38435785633E+03  0.25500000000E-02 0.  1.
         -2   -1    0    0    0  501 -0.00000000000E+00 -0.00000000000E+00 -0.25054569882E+02  0.25054570011E+02  0.25500000000E-02 0. -1.
    5000001    1    1    2    0    0  0.19571658107E+02 -0.57458275375E+02  0.17119935387E+03  0.19728842332E+03  0.77000000000E+02 0.  0.
   -5000001    1    1    2    0    0 -0.19571658107E+02  0.57458275375E+02  0.18810393257E+03  0.21212400303E+03  0.77000000000E+02 0.  0.
<mgrwt>
<rscale>  0 0.19626432E+03</rscale>
<asrwt>0</asrwt>
<pdfrwt beam="1">  1        2 0.54908260E-01 0.19626432E+03</pdfrwt>
<pdfrwt beam="2">  1       -2 0.35792246E-02 0.19626432E+03</pdfrwt>
<totfact> 0.28342052E+04</totfact>
</mgrwt>
</event>
<event>
 4    1  0.4950349E-004  0.4543248E+03  0.7818608E-02  0.1026440E+00
         -2   -1    0    0    0  501 -0.00000000000E+00  0.00000000000E+00  0.50904076138E+02  0.50904076202E+02  0.25500000000E-02 0. -1.
          2   -1    0    0  501    0  0.00000000000E+00 -0.00000000000E+00 -0.10137253632E+04  0.10137253632E+04  0.25500000000E-02 0.  1.
    5000001    1    1    2    0    0 -0.20536075254E+03 -0.53598280743E+02 -0.42269001811E+03  0.47920941747E+03  0.77000000000E+02 0.  0.
   -5000001    1    1    2    0    0  0.20536075254E+03  0.53598280743E+02 -0.54013126892E+03  0.58542002190E+03  0.77000000000E+02 0.  0.
<mgrwt>
<rscale>  0 0.45432479E+03</rscale>
<asrwt>0</asrwt>
<pdfrwt beam="1">  1        2 0.14481790E+00 0.45432479E+03</pdfrwt>
<pdfrwt beam="2">  1       -2 0.72720115E-02 0.45432479E+03</pdfrwt>
<totfact> 0.31526900E+03</totfact>
</mgrwt>
</event>
<event>
 4    1  0.4950349E-004  0.3037750E+03  0.7818608E-02  0.1083369E+00
          2   -1    0    0  501    0  0.00000000000E+00  0.00000000000E+00  0.29130661668E+04  0.29130661668E+04  0.25500000000E-02 0.  1.
         -2   -1    0    0    0  501 -0.00000000000E+00 -0.00000000000E+00 -0.79194245362E+01  0.79194249467E+01  0.25500000000E-02 0. -1.
    5000001    1    1    2    0    0 -0.88528775160E+02 -0.77269352456E+02  0.20076964867E+04  0.20126057934E+04  0.77000000000E+02 0.  0.
   -5000001    1    1    2    0    0  0.88528775160E+02  0.77269352456E+02  0.89745025549E+03  0.90837979829E+03  0.77000000000E+02 0.  0.
<mgrwt>
<rscale>  0 0.30377497E+03</rscale>
<asrwt>0</asrwt>
<pdfrwt beam="1">  1        2 0.41615285E+00 0.30377497E+03</pdfrwt>
<pdfrwt beam="2">  1       -2 0.11313449E-02 0.30377497E+03</pdfrwt>
<totfact> 0.54915881E+03</totfact>
</mgrwt>
</event>
<event>
 4    1  0.4950349E-004  0.3188927E+03  0.7818608E-02  0.1076160E+00
          2   -1    0    0  501    0  0.00000000000E+00  0.00000000000E+00  0.37497001910E+03  0.37497001911E+03  0.25500000000E-02 0.  1.
         -2   -1    0    0    0  501 -0.00000000000E+00 -0.00000000000E+00 -0.67800448539E+02  0.67800448587E+02  0.25500000000E-02 0. -1.
    5000001    1    1    2    0    0  0.13414916884E+03  0.31427052848E+02  0.18495531887E+03  0.24314836855E+03  0.77000000000E+02 0.  0.
   -5000001    1    1    2    0    0 -0.13414916884E+03 -0.31427052848E+02  0.12221425169E+03  0.19962209914E+03  0.77000000000E+02 0.  0.
<mgrwt>
<rscale>  0 0.31889268E+03</rscale>
<asrwt>0</asrwt>
<pdfrwt beam="1">  1        2 0.53567145E-01 0.31889268E+03</pdfrwt>
<pdfrwt beam="2">  1       -2 0.96857784E-02 0.31889268E+03</pdfrwt>
<totfact> 0.64921187E+03</totfact>
</mgrwt>
</event>
<event>
 4    1  0.4950349E-004  0.2358534E+03  0.7818608E-02  0.1122586E+00
         -2   -1    0    0    0  501 -0.00000000000E+00  0.00000000000E+00  0.18582100575E+02  0.18582100750E+02  0.25500000000E-02 0. -1.
          2   -1    0    0  501    0  0.00000000000E+00 -0.00000000000E+00 -0.74839287034E+03  0.74839287035E+03  0.25500000000E-02 0.  1.
    5000001    1    1    2    0    0  0.53206595319E+02  0.69099390739E+02 -0.30218103569E+03  0.32380247979E+03  0.77000000000E+02 0.  0.
   -5000001    1    1    2    0    0 -0.53206595319E+02 -0.69099390739E+02 -0.42762973407E+03  0.44317249131E+03  0.77000000000E+02 0.  0.
<mgrwt>
<rscale>  0 0.23585344E+03</rscale>
<asrwt>0</asrwt>
<pdfrwt beam="1">  1        2 0.10691325E+00 0.23585344E+03</pdfrwt>
<pdfrwt beam="2">  1       -2 0.26545863E-02 0.23585344E+03</pdfrwt>
<totfact> 0.21200992E+04</totfact>
</mgrwt>
</event>
<event>
 4    1  0.4950349E-004  0.2119404E+03  0.7818608E-02  0.1140039E+00
         -2   -1    0    0    0  501 -0.00000000000E+00  0.00000000000E+00  0.27299699029E+01  0.27299710938E+01  0.25500000000E-02 0. -1.
          2   -1    0    0  501    0  0.00000000000E+00 -0.00000000000E+00 -0.41134828610E+04  0.41134828610E+04  0.25500000000E-02 0.  1.
    5000001    1    1    2    0    0  0.56091333024E+02 -0.39831649051E+02 -0.25182002774E+04  0.25203163363E+04  0.77000000000E+02 0.  0.
   -5000001    1    1    2    0    0 -0.56091333024E+02  0.39831649051E+02 -0.15925526137E+04  0.15958964958E+04  0.77000000000E+02 0.  0.
<mgrwt>
<rscale>  0 0.21194043E+03</rscale>
<asrwt>0</asrwt>
<pdfrwt beam="1">  1        2 0.58763643E+00 0.21194043E+03</pdfrwt>
<pdfrwt beam="2">  1       -2 0.38999842E-03 0.21194043E+03</pdfrwt>
<totfact> 0.50934884E+03</totfact>
</mgrwt>
</event>
<event>
 4    1  0.4950349E-004  0.4753435E+03  0.7818608E-02  0.1020423E+00
         -2   -1    0    0    0  501 -0.00000000000E+00  0.00000000000E+00  0.20660028857E+03  0.20660028859E+03  0.25500000000E-02 0. -1.
          2   -1    0    0  501    0  0.00000000000E+00 -0.00000000000E+00 -0.27341619790E+03  0.27341619791E+03  0.25500000000E-02 0.  1.
    5000001    1    1    2    0    0  0.17236192586E+02 -0.18943757992E+03 -0.15448317216E+03  0.25686131180E+03  0.77000000000E+02 0.  0.
   -5000001    1    1    2    0    0 -0.17236192586E+02  0.18943757992E+03  0.87667262826E+02  0.22315517470E+03  0.77000000000E+02 0.  0.
<mgrwt>
<rscale>  0 0.47534352E+03</rscale>
<asrwt>0</asrwt>
<pdfrwt beam="1">  1        2 0.39059457E-01 0.47534352E+03</pdfrwt>
<pdfrwt beam="2">  1       -2 0.29514327E-01 0.47534352E+03</pdfrwt>
<totfact> 0.13931904E+03</totfact>
</mgrwt>
</event>
<event>
 4    1  0.4950349E-004  0.3162913E+03  0.7818608E-02  0.1077369E+00
         -2   -1    0    0    0  501 -0.00000000000E+00  0.00000000000E+00  0.29252026730E+02  0.29252026841E+02  0.25500000000E-02 0. -1.
          2   -1    0    0  501    0  0.00000000000E+00 -0.00000000000E+00 -0.85498483031E+03  0.85498483032E+03  0.25500000000E-02 0.  1.
    5000001    1    1    2    0    0  0.82173263640E+02 -0.10785507131E+03 -0.48661399102E+03  0.51098663185E+03  0.77000000000E+02 0.  0.
   -5000001    1    1    2    0    0 -0.82173263640E+02  0.10785507131E+03 -0.33911881256E+03  0.37325022531E+03  0.77000000000E+02 0.  0.
<mgrwt>
<rscale>  0 0.31629125E+03</rscale>
<asrwt>0</asrwt>
<pdfrwt beam="1">  1        2 0.12214068E+00 0.31629125E+03</pdfrwt>
<pdfrwt beam="2">  1       -2 0.41788615E-02 0.31629125E+03</pdfrwt>
<totfact> 0.92387833E+03</totfact>
</mgrwt>
</event>
<event>
 4    1  0.4950349E-004  0.2301410E+03  0.7818608E-02  0.1126541E+00
          2   -1    0    0  501    0  0.00000000000E+00  0.00000000000E+00  0.21076863787E+03  0.21076863788E+03  0.25500000000E-02 0.  1.
         -2   -1    0    0    0  501 -0.00000000000E+00 -0.00000000000E+00 -0.62823482786E+02  0.62823482837E+02  0.25500000000E-02 0. -1.
    5000001    1    1    2    0    0  0.75818144302E+02 -0.14869713903E+02  0.11753403499E+03  0.16035195284E+03  0.77000000000E+02 0.  0.
   -5000001    1    1    2    0    0 -0.75818144302E+02  0.14869713903E+02  0.30411120089E+02  0.11324016788E+03  0.77000000000E+02 0.  0.
<mgrwt>
<rscale>  0 0.23014100E+03</rscale>
<asrwt>0</asrwt>
<pdfrwt beam="1">  1        2 0.30109805E-01 0.23014100E+03</pdfrwt>
<pdfrwt beam="2">  1       -2 0.89747834E-02 0.23014100E+03</pdfrwt>
<totfact> 0.13462563E+04</totfact>
</mgrwt>
</event>
<event>
 4    1  0.4950349E-004  0.1987728E+03  0.7818608E-02  0.1150779E+00
          2   -1    0    0  501    0  0.00000000000E+00  0.00000000000E+00  0.22951151802E+03  0.22951151803E+03  0.25500000000E-02 0.  1.
         -2   -1    0    0    0  501 -0.00000000000E+00 -0.00000000000E+00 -0.43037734630E+02  0.43037734706E+02  0.25500000000E-02 0. -1.
    5000001    1    1    2    0    0 -0.41810034227E+02  0.46290044725E+02  0.82811692939E+02  0.12914187427E+03  0.77000000000E+02 0.  0.
   -5000001    1    1    2    0    0  0.41810034227E+02 -0.46290044725E+02  0.10366209045E+03  0.14340737847E+03  0.77000000000E+02 0.  0.
<mgrwt>
<rscale>  0 0.19877279E+03</rscale>
<asrwt>0</asrwt>
<pdfrwt beam="1">  1        2 0.32787361E-01 0.19877279E+03</pdfrwt>
<pdfrwt beam="2">  1       -2 0.61482477E-02 0.19877279E+03</pdfrwt>
<totfact> 0.21821746E+04</totfact>
</mgrwt>
</event>
<event>
 4    1  0.4950349E-004  0.2796408E+03  0.7818608E-02  0.1095885E+00
          2   -1    0    0  501    0  0.00000000000E+00  0.00000000000E+00  0.39837969508E+03  0.39837969509E+03  0.25500000000E-02 0.  1.
         -2   -1    0    0    0  501 -0.00000000000E+00 -0.00000000000E+00 -0.49073156196E+02  0.49073156263E+02  0.25500000000E-02 0. -1.
    5000001    1    1    2    0    0 -0.11364375821E+03 -0.24953731826E+02  0.16006194174E+03  0.21233562514E+03  0.77000000000E+02 0.  0.
   -5000001    1    1    2    0    0  0.11364375821E+03  0.24953731826E+02  0.18924459714E+03  0.23511722621E+03  0.77000000000E+02 0.  0.
<mgrwt>
<rscale>  0 0.27964083E+03</rscale>
<asrwt>0</asrwt>
<pdfrwt beam="1">  1        2 0.56911389E-01 0.27964083E+03</pdfrwt>
<pdfrwt beam="2">  1       -2 0.70104504E-02 0.27964083E+03</pdfrwt>
<totfact> 0.10049328E+04</totfact>
</mgrwt>
</event>
<event>
 4    1  0.4950349E-004  0.2192093E+03  0.7818608E-02  0.1134474E+00
         -2   -1    0    0    0  501 -0.00000000000E+00  0.00000000000E+00  0.24459416300E+02  0.24459416432E+02  0.25500000000E-02 0. -1.
          2   -1    0    0  501    0  0.00000000000E+00 -0.00000000000E+00 -0.49114727664E+03  0.49114727665E+03  0.25500000000E-02 0.  1.
    5000001    1    1    2    0    0  0.18451509264E+02  0.41915314650E+02 -0.84827957346E+02  0.12337801321E+03  0.77000000000E+02 0.  0.
   -5000001    1    1    2    0    0 -0.18451509264E+02 -0.41915314650E+02 -0.38185990300E+03  0.39222867987E+03  0.77000000000E+02 0.  0.
<mgrwt>
<rscale>  0 0.21920927E+03</rscale>
<asrwt>0</asrwt>
<pdfrwt beam="1">  1        2 0.70163890E-01 0.21920927E+03</pdfrwt>
<pdfrwt beam="2">  1       -2 0.34942027E-02 0.21920927E+03</pdfrwt>
<totfact> 0.22714253E+04</totfact>
</mgrwt>
</event>
<event>
 4    1  0.4950349E-004  0.5280977E+03  0.7818608E-02  0.1006695E+00
          2   -1    0    0  501    0  0.00000000000E+00  0.00000000000E+00  0.92513892348E+03  0.92513892349E+03  0.25500000000E-02 0.  1.
         -2   -1    0    0    0  501 -0.00000000000E+00 -0.00000000000E+00 -0.75363592283E+02  0.75363592326E+02  0.25500000000E-02 0. -1.
    5000001    1    1    2    0    0  0.15148605951E+03 -0.57394340553E+02  0.79201158539E+03  0.81206741589E+03  0.77000000000E+02 0.  0.
   -5000001    1    1    2    0    0 -0.15148605951E+03  0.57394340553E+02  0.57763745809E+02  0.18843509993E+03  0.77000000000E+02 0.  0.
<mgrwt>
<rscale>  0 0.52809769E+03</rscale>
<asrwt>0</asrwt>
<pdfrwt beam="1">  1        2 0.13216271E+00 0.52809769E+03</pdfrwt>
<pdfrwt beam="2">  1       -2 0.10766227E-01 0.52809769E+03</pdfrwt>
<totfact> 0.19089683E+03</totfact>
</mgrwt>
</event>
<event>
 4    1  0.4950349E-004  0.2170905E+03  0.7818608E-02  0.1136071E+00
          2   -1    0    0  501    0  0.00000000000E+00  0.00000000000E+00  0.25175548412E+04  0.25175548412E+04  0.25500000000E-02 0.  1.
         -2   -1    0    0    0  501 -0.00000000000E+00 -0.00000000000E+00 -0.46799666934E+01  0.46799673881E+01  0.25500000000E-02 0. -1.
    5000001    1    1    2    0    0 -0.28112481108E+02  0.50331522876E+02  0.18407725513E+04  0.18432840691E+04  0.77000000000E+02 0.  0.
   -5000001    1    1    2    0    0  0.28112481108E+02 -0.50331522876E+02  0.67210232318E+03  0.67895073946E+03  0.77000000000E+02 0.  0.
<mgrwt>
<rscale>  0 0.21709052E+03</rscale>
<asrwt>0</asrwt>
<pdfrwt beam="1">  1        2 0.35965066E+00 0.21709052E+03</pdfrwt>
<pdfrwt beam="2">  1       -2 0.66856677E-03 0.21709052E+03</pdfrwt>
<totfact> 0.18659525E+04</totfact>
</mgrwt>
</event>
<event>
 4    1  0.4950349E-004  0.2110139E+03  0.7818608E-02  0.1140766E+00
          2   -1    0    0  501    0  0.00000000000E+00  0.00000000000E+00  0.13179319477E+04  0.13179319477E+04  0.25500000000E-02 0.  1.
         -2   -1    0    0    0  501 -0.00000000000E+00 -0.00000000000E+00 -0.84463505909E+01  0.84463509758E+01  0.25500000000E-02 0. -1.
    5000001    1    1    2    0    0  0.64573547058E+02 -0.25821346299E+02  0.53445164250E+03  0.54443001669E+03  0.77000000000E+02 0.  0.
   -5000001    1    1    2    0    0 -0.64573547058E+02  0.25821346299E+02  0.77503395463E+03  0.78194828200E+03  0.77000000000E+02 0.  0.
<mgrwt>
<rscale>  0 0.21101389E+03</rscale>
<asrwt>0</asrwt>
<pdfrwt beam="1">  1        2 0.18827577E+00 0.21101389E+03</pdfrwt>
<pdfrwt beam="2">  1       -2 0.12066230E-02 0.21101389E+03</pdfrwt>
<totfact> 0.30881498E+04</totfact>
</mgrwt>
</event>
<event>
 4    1  0.4950349E-004  0.2186223E+03  0.7818608E-02  0.1134914E+00
          2   -1    0    0  501    0  0.00000000000E+00  0.00000000000E+00  0.48166041161E+03  0.48166041162E+03  0.25500000000E-02 0. -1.
         -2   -1    0    0    0  501 -0.00000000000E+00 -0.00000000000E+00 -0.24807785036E+02  0.24807785167E+02  0.25500000000E-02 0.  1.
    5000001    1    1    2    0    0  0.12717125253E+01 -0.77566416491E+02  0.23150121985E+03  0.25600777529E+03  0.77000000000E+02 0.  0.
   -5000001    1    1    2    0    0 -0.12717125253E+01  0.77566416491E+02  0.22535140673E+03  0.25046042149E+03  0.77000000000E+02 0.  0.
<mgrwt>
<rscale>  0 0.21862230E+03</rscale>
<asrwt>0</asrwt>
<pdfrwt beam="1">  1        2 0.68808629E-01 0.21862230E+03</pdfrwt>
<pdfrwt beam="2">  1       -2 0.35439694E-02 0.21862230E+03</pdfrwt>
<totfact> 0.22716685E+04</totfact>
</mgrwt>
</event>
<event>
 4    1  0.4950349E-004  0.3665125E+03  0.7818608E-02  0.1056035E+00
         -2   -1    0    0    0  501 -0.00000000000E+00  0.00000000000E+00  0.24664124675E+03  0.24664124676E+03  0.25500000000E-02 0. -1.
          2   -1    0    0  501    0  0.00000000000E+00 -0.00000000000E+00 -0.13616074986E+03  0.13616074988E+03  0.25500000000E-02 0.  1.
    5000001    1    1    2    0    0 -0.11698269709E+03  0.62085750425E+02 -0.49799227924E+02  0.16108555158E+03  0.77000000000E+02 0.  0.
   -5000001    1    1    2    0    0  0.11698269709E+03 -0.62085750425E+02  0.16027972481E+03  0.22171644506E+03  0.77000000000E+02 0.  0.
<mgrwt>
<rscale>  0 0.36651252E+03</rscale>
<asrwt>0</asrwt>
<pdfrwt beam="1">  1        2 0.19451536E-01 0.36651252E+03</pdfrwt>
<pdfrwt beam="2">  1       -2 0.35234464E-01 0.36651252E+03</pdfrwt>
<totfact> 0.21887934E+03</totfact>
</mgrwt>
</event>
<event>
 4    1  0.4950349E-004  0.2735773E+03  0.7818608E-02  0.1099250E+00
         -2   -1    0    0    0  501 -0.00000000000E+00  0.00000000000E+00  0.42063158289E+03  0.42063158290E+03  0.25500000000E-02 0. -1.
          2   -1    0    0  501    0  0.00000000000E+00 -0.00000000000E+00 -0.44483414118E+02  0.44483414191E+02  0.25500000000E-02 0.  1.
    5000001    1    1    2    0    0 -0.38069310641E+01 -0.11289279409E+03  0.19620153129E+03  0.23913033384E+03  0.77000000000E+02 0.  0.
   -5000001    1    1    2    0    0  0.38069310641E+01  0.11289279409E+03  0.17994663748E+03  0.22598466325E+03  0.77000000000E+02 0.  0.
<mgrwt>
<rscale>  0 0.27357726E+03</rscale>
<asrwt>0</asrwt>
<pdfrwt beam="1">  1        2 0.63547737E-02 0.27357726E+03</pdfrwt>
<pdfrwt beam="2">  1       -2 0.60090224E-01 0.27357726E+03</pdfrwt>
<totfact> 0.30101992E+03</totfact>
</mgrwt>
</event>
<event>
 4    1  0.4950349E-004  0.1014085E+04  0.7818608E-02  0.9293230E-01
         -2   -1    0    0    0  501 -0.00000000000E+00  0.00000000000E+00  0.22831869738E+03  0.22831869740E+03  0.25500000000E-02 0. -1.
          2   -1    0    0  501    0  0.00000000000E+00 -0.00000000000E+00 -0.11260235825E+04  0.11260235825E+04  0.25500000000E-02 0.  1.
    5000001    1    1    2    0    0  0.38042827827E+03 -0.14391626221E+03 -0.57823045542E+02  0.41798333703E+03  0.77000000000E+02 0.  0.
   -5000001    1    1    2    0    0 -0.38042827827E+03  0.14391626221E+03 -0.83988183958E+03  0.93635894287E+03  0.77000000000E+02 0.  0.
<mgrwt>
<rscale>  0 0.10140853E+04</rscale>
<asrwt>0</asrwt>
<pdfrwt beam="1">  1        2 0.16086051E+00 0.10140853E+04</pdfrwt>
<pdfrwt beam="2">  1       -2 0.32616957E-01 0.10140853E+04</pdfrwt>
<totfact> 0.20564837E+02</totfact>
</mgrwt>
</event>
<event>
 4    1  0.4950349E-004  0.3376183E+03  0.7818608E-02  0.1067815E+00
         -2   -1    0    0    0  501 -0.00000000000E+00  0.00000000000E+00  0.50008119088E+02  0.50008119153E+02  0.25500000000E-02 0. -1.
          2   -1    0    0  501    0  0.00000000000E+00 -0.00000000000E+00 -0.56983805184E+03  0.56983805184E+03  0.25500000000E-02 0.  1.
    5000001    1    1    2    0    0 -0.66300406760E+02  0.83820067762E+02 -0.45374322865E+03  0.47247588853E+03  0.77000000000E+02 0.  0.
   -5000001    1    1    2    0    0  0.66300406760E+02 -0.83820067762E+02 -0.66086704102E+02  0.14737028247E+03  0.77000000000E+02 0.  0.
<mgrwt>
<rscale>  0 0.33761830E+03</rscale>
<asrwt>0</asrwt>
<pdfrwt beam="1">  1        2 0.81405432E-01 0.33761830E+03</pdfrwt>
<pdfrwt beam="2">  1       -2 0.71440174E-02 0.33761830E+03</pdfrwt>
<totfact> 0.66119976E+03</totfact>
</mgrwt>
</event>
<event>
 4    1  0.4950349E-004  0.2274624E+03  0.7818608E-02  0.1128439E+00
          2   -1    0    0  501    0  0.00000000000E+00  0.00000000000E+00  0.31721715691E+03  0.31721715692E+03  0.25500000000E-02 0.  1.
         -2   -1    0    0    0  501 -0.00000000000E+00 -0.00000000000E+00 -0.40775798348E+02  0.40775798427E+02  0.25500000000E-02 0. -1.
    5000001    1    1    2    0    0 -0.25118258368E+02 -0.72794383117E+02  0.18984299595E+03  0.21885911502E+03  0.77000000000E+02 0.  0.
   -5000001    1    1    2    0    0  0.25118258368E+02  0.72794383117E+02  0.86598362613E+02  0.13913384033E+03  0.77000000000E+02 0.  0.
<mgrwt>
<rscale>  0 0.22746237E+03</rscale>
<asrwt>0</asrwt>
<pdfrwt beam="1">  1        2 0.45316737E-01 0.22746237E+03</pdfrwt>
<pdfrwt beam="2">  1       -2 0.58251141E-02 0.22746237E+03</pdfrwt>
<totfact> 0.16889662E+04</totfact>
</mgrwt>
</event>
<event>
 4    1  0.4950349E-004  0.3905398E+03  0.7818608E-02  0.1047106E+00
          2   -1    0    0  501    0  0.00000000000E+00  0.00000000000E+00  0.16758961168E+04  0.16758961168E+04  0.25500000000E-02 0.  1.
         -2   -1    0    0    0  501 -0.00000000000E+00 -0.00000000000E+00 -0.22752204093E+02  0.22752204236E+02  0.25500000000E-02 0. -1.
    5000001    1    1    2    0    0  0.96145316087E+02 -0.99767818565E+02  0.33058165245E+03  0.36662074186E+03  0.77000000000E+02 0.  0.
   -5000001    1    1    2    0    0 -0.96145316087E+02  0.99767818565E+02  0.13225622602E+04  0.13320275792E+04  0.77000000000E+02 0.  0.
<mgrwt>
<rscale>  0 0.39053978E+03</rscale>
<asrwt>0</asrwt>
<pdfrwt beam="1">  1        2 0.23941375E+00 0.39053978E+03</pdfrwt>
<pdfrwt beam="2">  1       -2 0.32503146E-02 0.39053978E+03</pdfrwt>
<totfact> 0.47948321E+03</totfact>
</mgrwt>
</event>
<event>
 4    1  0.4950349E-004  0.2471420E+03  0.7818608E-02  0.1115124E+00
         -2   -1    0    0    0  501 -0.00000000000E+00  0.00000000000E+00  0.74729582974E+02  0.74729583017E+02  0.25500000000E-02 0. -1.
          2   -1    0    0  501    0  0.00000000000E+00 -0.00000000000E+00 -0.20433392121E+03  0.20433392122E+03  0.25500000000E-02 0.  1.
    5000001    1    1    2    0    0 -0.11681796924E+02  0.92560487758E+02 -0.36306064668E+02  0.12629742121E+03  0.77000000000E+02 0.  0.
   -5000001    1    1    2    0    0  0.11681796924E+02 -0.92560487758E+02 -0.93298273566E+02  0.15276608303E+03  0.77000000000E+02 0.  0.
<mgrwt>
<rscale>  0 0.24714197E+03</rscale>
<asrwt>0</asrwt>
<pdfrwt beam="1">  1        2 0.29190560E-01 0.24714197E+03</pdfrwt>
<pdfrwt beam="2">  1       -2 0.10675655E-01 0.24714197E+03</pdfrwt>
<totfact> 0.10623443E+04</totfact>
</mgrwt>
</event>
<event>
 4    1  0.4950349E-004  0.4461297E+03  0.7818608E-02  0.1028883E+00
         -2   -1    0    0    0  501 -0.00000000000E+00  0.00000000000E+00  0.31918609938E+02  0.31918610040E+02  0.25500000000E-02 0. -1.
          2   -1    0    0  501    0  0.00000000000E+00 -0.00000000000E+00 -0.15589001979E+04  0.15589001979E+04  0.25500000000E-02 0.  1.
    5000001    1    1    2    0    0  0.17817596029E+03 -0.10991219313E+03 -0.75903079267E+03  0.79112837596E+03  0.77000000000E+02 0.  0.
   -5000001    1    1    2    0    0 -0.17817596029E+03  0.10991219313E+03 -0.76795079533E+03  0.79969043202E+03  0.77000000000E+02 0.  0.
<mgrwt>
<rscale>  0 0.44612970E+03</rscale>
<asrwt>0</asrwt>
<pdfrwt beam="1">  1        2 0.22269998E+00 0.44612970E+03</pdfrwt>
<pdfrwt beam="2">  1       -2 0.45598024E-02 0.44612970E+03</pdfrwt>
<totfact> 0.32837967E+03</totfact>
</mgrwt>
</event>
<event>
 4    1  0.4950349E-004  0.2185802E+03  0.7818608E-02  0.1134946E+00
         -2   -1    0    0    0  501 -0.00000000000E+00  0.00000000000E+00  0.30225888450E+01  0.30225899206E+01  0.25500000000E-02 0. -1.
          2   -1    0    0  501    0  0.00000000000E+00 -0.00000000000E+00 -0.39516863918E+04  0.39516863918E+04  0.25500000000E-02 0.  1.
    5000001    1    1    2    0    0  0.55357328242E+02  0.31640755359E+02 -0.27732341597E+04  0.27750355450E+04  0.77000000000E+02 0.  0.
   -5000001    1    1    2    0    0 -0.55357328242E+02 -0.31640755359E+02 -0.11754296433E+04  0.11796734368E+04  0.77000000000E+02 0.  0.
<mgrwt>
<rscale>  0 0.21858019E+03</rscale>
<asrwt>0</asrwt>
<pdfrwt beam="1">  1        2 0.56452332E+00 0.21858019E+03</pdfrwt>
<pdfrwt beam="2">  1       -2 0.43180102E-03 0.21858019E+03</pdfrwt>
<totfact> 0.56130747E+03</totfact>
</mgrwt>
</event>
<event>
 4    1  0.4950349E-004  0.1955367E+03  0.7818608E-02  0.1153560E+00
          2   -1    0    0  501    0  0.00000000000E+00  0.00000000000E+00  0.17486509975E+04  0.17486509975E+04  0.25500000000E-02 0.  1.
         -2   -1    0    0    0  501 -0.00000000000E+00 -0.00000000000E+00 -0.54663017787E+01  0.54663023735E+01  0.25500000000E-02 0. -1.
    5000001    1    1    2    0    0  0.55893216018E+02  0.18605255943E+02  0.98486863927E+03  0.98962894246E+03  0.77000000000E+02 0.  0.
   -5000001    1    1    2    0    0 -0.55893216018E+02 -0.18605255943E+02  0.75831605649E+03  0.76448835745E+03  0.77000000000E+02 0.  0.
<mgrwt>
<rscale>  0 0.19553674E+03</rscale>
<asrwt>0</asrwt>
<pdfrwt beam="1">  1        2 0.24980757E+00 0.19553674E+03</pdfrwt>
<pdfrwt beam="2">  1       -2 0.78089940E-03 0.19553674E+03</pdfrwt>
<totfact> 0.35107476E+04</totfact>
</mgrwt>
</event>
<event>
 4    1  0.4950349E-004  0.1637118E+03  0.7818608E-02  0.1184569E+00
          2   -1    0    0  501    0  0.00000000000E+00  0.00000000000E+00  0.18004297461E+04  0.18004297461E+04  0.25500000000E-02 0.  1.
         -2   -1    0    0    0  501 -0.00000000000E+00 -0.00000000000E+00 -0.37215483180E+01  0.37215491916E+01  0.25500000000E-02 0. -1.
    5000001    1    1    2    0    0 -0.20405495379E+02 -0.37567265391E+01  0.69488425791E+03  0.69944522954E+03  0.77000000000E+02 0.  0.
   -5000001    1    1    2    0    0  0.20405495379E+02  0.37567265391E+01  0.11018239398E+04  0.11047060657E+04  0.77000000000E+02 0.  0.
<mgrwt>
<rscale>  0 0.16371178E+03</rscale>
<asrwt>0</asrwt>
<pdfrwt beam="1">  1        2 0.25720475E+00 0.16371178E+03</pdfrwt>
<pdfrwt beam="2">  1       -2 0.53164879E-03 0.16371178E+03</pdfrwt>
<totfact> 0.56741818E+04</totfact>
</mgrwt>
</event>
<event>
 4    1  0.4950349E-004  0.2219770E+03  0.7818608E-02  0.1132418E+00
          2   -1    0    0  501    0  0.00000000000E+00  0.00000000000E+00  0.38906118602E+04  0.38906118602E+04  0.25500000000E-02 0.  1.
         -2   -1    0    0    0  501 -0.00000000000E+00 -0.00000000000E+00 -0.31661974364E+01  0.31661984633E+01  0.25500000000E-02 0. -1.
    5000001    1    1    2    0    0  0.14477357318E+02  0.78583280570E+02  0.19810222038E+04  0.19841277423E+04  0.77000000000E+02 0.  0.
   -5000001    1    1    2    0    0 -0.14477357318E+02 -0.78583280570E+02  0.19064234590E+04  0.19096503164E+04  0.77000000000E+02 0.  0.
<mgrwt>
<rscale>  0 0.22197700E+03</rscale>
<asrwt>0</asrwt>
<pdfrwt beam="1">  1        2 0.55580117E+00 0.22197700E+03</pdfrwt>
<pdfrwt beam="2">  1       -2 0.45231442E-03 0.22197700E+03</pdfrwt>
<totfact> 0.57407594E+03</totfact>
</mgrwt>
</event>
<event>
 4    1  0.4950349E-004  0.2948273E+03  0.7818608E-02  0.1087855E+00
          2   -1    0    0  501    0  0.00000000000E+00  0.00000000000E+00  0.32216653402E+03  0.32216653403E+03  0.25500000000E-02 0.  1.
         -2   -1    0    0    0  501 -0.00000000000E+00 -0.00000000000E+00 -0.67452031951E+02  0.67452031999E+02  0.25500000000E-02 0. -1.
    5000001    1    1    2    0    0 -0.11486061029E+03  0.33939555842E+02  0.76915300420E+02  0.16183268114E+03  0.77000000000E+02 0.  0.
   -5000001    1    1    2    0    0  0.11486061029E+03 -0.33939555842E+02  0.17779920165E+03  0.22778588488E+03  0.77000000000E+02 0.  0.
<mgrwt>
<rscale>  0 0.29482732E+03</rscale>
<asrwt>0</asrwt>
<pdfrwt beam="1">  1        2 0.46023791E-01 0.29482732E+03</pdfrwt>
<pdfrwt beam="2">  1       -2 0.96360044E-02 0.29482732E+03</pdfrwt>
<totfact> 0.76916240E+03</totfact>
</mgrwt>
</event>
<event>
 4    1  0.4950349E-004  0.3325979E+03  0.7818608E-02  0.1069993E+00
          2   -1    0    0  501    0  0.00000000000E+00  0.00000000000E+00  0.14995827489E+03  0.14995827491E+03  0.25500000000E-02 0.  1.
         -2   -1    0    0    0  501 -0.00000000000E+00 -0.00000000000E+00 -0.18442028044E+03  0.18442028046E+03  0.25500000000E-02 0. -1.
    5000001    1    1    2    0    0 -0.14477553987E+03  0.17535109386E+02 -0.38767877280E+02  0.16940892926E+03  0.77000000000E+02 0.  0.
   -5000001    1    1    2    0    0  0.14477553987E+03 -0.17535109386E+02  0.43058717252E+01  0.16496962611E+03  0.77000000000E+02 0.  0.
<mgrwt>
<rscale>  0 0.33259794E+03</rscale>
<asrwt>0</asrwt>
<pdfrwt beam="1">  1        2 0.21422611E-01 0.33259794E+03</pdfrwt>
<pdfrwt beam="2">  1       -2 0.26345754E-01 0.33259794E+03</pdfrwt>
<totfact> 0.33288383E+03</totfact>
</mgrwt>
</event>
<event>
 4    1  0.4950349E-004  0.3253630E+03  0.7818608E-02  0.1073207E+00
         -2   -1    0    0    0  501 -0.00000000000E+00  0.00000000000E+00  0.13321361591E+02  0.13321361835E+02  0.25500000000E-02 0. -1.
          2   -1    0    0  501    0  0.00000000000E+00 -0.00000000000E+00 -0.19866784805E+04  0.19866784805E+04  0.25500000000E-02 0.  1.
    5000001    1    1    2    0    0  0.36168422169E+02  0.13616786504E+03 -0.82562995792E+03  0.84109670648E+03  0.77000000000E+02 0.  0.
   -5000001    1    1    2    0    0 -0.36168422169E+02 -0.13616786504E+03 -0.11477271609E+04  0.11589031358E+04  0.77000000000E+02 0.  0.
<mgrwt>
<rscale>  0 0.32536295E+03</rscale>
<asrwt>0</asrwt>
<pdfrwt beam="1">  1        2 0.28381102E+00 0.32536295E+03</pdfrwt>
<pdfrwt beam="2">  1       -2 0.19030529E-02 0.32536295E+03</pdfrwt>
<totfact> 0.74716392E+03</totfact>
</mgrwt>
</event>
<event>
 4    1  0.4950349E-004  0.2855485E+03  0.7818608E-02  0.1092696E+00
          2   -1    0    0  501    0  0.00000000000E+00  0.00000000000E+00  0.54171537310E+03  0.54171537310E+03  0.25500000000E-02 0.  1.
         -2   -1    0    0    0  501 -0.00000000000E+00 -0.00000000000E+00 -0.37629522495E+02  0.37629522582E+02  0.25500000000E-02 0. -1.
    5000001    1    1    2    0    0 -0.43722358274E+02 -0.10509158829E+03  0.33061090649E+03  0.35803415763E+03  0.77000000000E+02 0.  0.
   -5000001    1    1    2    0    0  0.43722358274E+02  0.10509158829E+03  0.17347494411E+03  0.22131073805E+03  0.77000000000E+02 0.  0.
<mgrwt>
<rscale>  0 0.28554853E+03</rscale>
<asrwt>0</asrwt>
<pdfrwt beam="1">  1        2 0.77387912E-01 0.28554853E+03</pdfrwt>
<pdfrwt beam="2">  1       -2 0.53756460E-02 0.28554853E+03</pdfrwt>
<totfact> 0.10794846E+04</totfact>
</mgrwt>
</event>
<event>
 4    1  0.4950349E-004  0.2282088E+03  0.7818608E-02  0.1127907E+00
          2   -1    0    0  501    0  0.00000000000E+00  0.00000000000E+00  0.13061442944E+04  0.13061442944E+04  0.25500000000E-02 0.  1.
         -2   -1    0    0    0  501 -0.00000000000E+00 -0.00000000000E+00 -0.99681304409E+01  0.99681307670E+01  0.25500000000E-02 0. -1.
    5000001    1    1    2    0    0  0.93326387251E+01  0.77118238406E+02  0.83554199008E+03  0.84267059877E+03  0.77000000000E+02 0.  0.
   -5000001    1    1    2    0    0 -0.93326387251E+01 -0.77118238406E+02  0.46063417383E+03  0.47344182636E+03  0.77000000000E+02 0.  0.
<mgrwt>
<rscale>  0 0.22820882E+03</rscale>
<asrwt>0</asrwt>
<pdfrwt beam="1">  1        2 0.18659204E+00 0.22820882E+03</pdfrwt>
<pdfrwt beam="2">  1       -2 0.14240187E-02 0.22820882E+03</pdfrwt>
<totfact> 0.24736717E+04</totfact>
</mgrwt>
</event>
<event>
 4    1  0.4950349E-004  0.1824161E+03  0.7818608E-02  0.1165485E+00
          2   -1    0    0  501    0  0.00000000000E+00  0.00000000000E+00  0.61104035585E+03  0.61104035585E+03  0.25500000000E-02 0.  1.
         -2   -1    0    0    0  501 -0.00000000000E+00 -0.00000000000E+00 -0.13614328063E+02  0.13614328302E+02  0.25500000000E-02 0. -1.
    5000001    1    1    2    0    0  0.27299396196E+02 -0.97089061903E+01  0.16387989011E+03  0.18337158524E+03  0.77000000000E+02 0.  0.
   -5000001    1    1    2    0    0 -0.27299396196E+02  0.97089061903E+01  0.43354613768E+03  0.44128309891E+03  0.77000000000E+02 0.  0.
<mgrwt>
<rscale>  0 0.18241605E+03</rscale>
<asrwt>0</asrwt>
<pdfrwt beam="1">  1        2 0.87291455E-01 0.18241605E+03</pdfrwt>
<pdfrwt beam="2">  1       -2 0.19449046E-02 0.18241605E+03</pdfrwt>
<totfact> 0.41623973E+04</totfact>
</mgrwt>
</event>
<event>
 4    1  0.4950349E-004  0.2191141E+03  0.7818608E-02  0.1134545E+00
         -2   -1    0    0    0  501 -0.00000000000E+00  0.00000000000E+00  0.24227181771E+03  0.24227181772E+03  0.25500000000E-02 0. -1.
          2   -1    0    0  501    0  0.00000000000E+00 -0.00000000000E+00 -0.49542461199E+02  0.49542461264E+02  0.25500000000E-02 0.  1.
    5000001    1    1    2    0    0  0.61032464841E+02 -0.42502585991E+02  0.12737886057E+03  0.16639052167E+03  0.77000000000E+02 0.  0.
   -5000001    1    1    2    0    0 -0.61032464841E+02  0.42502585991E+02  0.65350495941E+02  0.12542375732E+03  0.77000000000E+02 0.  0.
<mgrwt>
<rscale>  0 0.21911405E+03</rscale>
<asrwt>0</asrwt>
<pdfrwt beam="1">  1        2 0.70774945E-02 0.21911405E+03</pdfrwt>
<pdfrwt beam="2">  1       -2 0.34610260E-01 0.21911405E+03</pdfrwt>
<totfact> 0.76392525E+03</totfact>
</mgrwt>
</event>
<event>
 4    1  0.4950349E-004  0.2488549E+03  0.7818608E-02  0.1114031E+00
         -2   -1    0    0    0  501 -0.00000000000E+00  0.00000000000E+00  0.16413993898E+02  0.16413994096E+02  0.25500000000E-02 0. -1.
          2   -1    0    0  501    0  0.00000000000E+00 -0.00000000000E+00 -0.94323107969E+03  0.94323107969E+03  0.25500000000E-02 0.  1.
    5000001    1    1    2    0    0 -0.27799622649E+02  0.88822105158E+02 -0.57851621167E+03  0.59099254864E+03  0.77000000000E+02 0.  0.
   -5000001    1    1    2    0    0  0.27799622649E+02 -0.88822105158E+02 -0.34830087412E+03  0.36865252515E+03  0.77000000000E+02 0.  0.
<mgrwt>
<rscale>  0 0.24885489E+03</rscale>
<asrwt>0</asrwt>
<pdfrwt beam="1">  1        2 0.13474726E+00 0.24885489E+03</pdfrwt>
<pdfrwt beam="2">  1       -2 0.23448569E-02 0.24885489E+03</pdfrwt>
<totfact> 0.19086257E+04</totfact>
</mgrwt>
</event>
<event>
 4    1  0.4950349E-004  0.2834972E+03  0.7818608E-02  0.1093794E+00
          2   -1    0    0  501    0  0.00000000000E+00  0.00000000000E+00  0.13730472094E+04  0.13730472094E+04  0.25500000000E-02 0.  1.
         -2   -1    0    0    0  501 -0.00000000000E+00 -0.00000000000E+00 -0.14633630862E+02  0.14633631084E+02  0.25500000000E-02 0. -1.
    5000001    1    1    2    0    0  0.42205680824E+02 -0.90289481611E+02  0.36084640985E+03  0.38219450740E+03  0.77000000000E+02 0.  0.
   -5000001    1    1    2    0    0 -0.42205680824E+02  0.90289481611E+02  0.99756716871E+03  0.10054863331E+04  0.77000000000E+02 0.  0.
<mgrwt>
<rscale>  0 0.28349720E+03</rscale>
<asrwt>0</asrwt>
<pdfrwt beam="1">  1        2 0.19614954E+00 0.28349720E+03</pdfrwt>
<pdfrwt beam="2">  1       -2 0.20905194E-02 0.28349720E+03</pdfrwt>
<totfact> 0.13128771E+04</totfact>
</mgrwt>
</event>
<event>
 4    1  0.4950349E-004  0.2325916E+03  0.7818608E-02  0.1124829E+00
          2   -1    0    0  501    0  0.00000000000E+00  0.00000000000E+00  0.64562031622E+03  0.64562031622E+03  0.25500000000E-02 0.  1.
         -2   -1    0    0    0  501 -0.00000000000E+00 -0.00000000000E+00 -0.20948405783E+02  0.20948405939E+02  0.25500000000E-02 0. -1.
    5000001    1    1    2    0    0 -0.37104035493E+02  0.78829908041E+02  0.31864896788E+03  0.33920057280E+03  0.77000000000E+02 0.  0.
   -5000001    1    1    2    0    0  0.37104035493E+02 -0.78829908041E+02  0.30602294255E+03  0.32736814936E+03  0.77000000000E+02 0.  0.
<mgrwt>
<rscale>  0 0.23259163E+03</rscale>
<asrwt>0</asrwt>
<pdfrwt beam="1">  1        2 0.92231470E-01 0.23259163E+03</pdfrwt>
<pdfrwt beam="2">  1       -2 0.29926295E-02 0.23259163E+03</pdfrwt>
<totfact> 0.21115339E+04</totfact>
</mgrwt>
</event>
<event>
 4    1  0.4950349E-004  0.3839929E+03  0.7818608E-02  0.1049468E+00
         -2   -1    0    0    0  501 -0.00000000000E+00  0.00000000000E+00  0.58739327592E+02  0.58739327647E+02  0.25500000000E-02 0. -1.
          2   -1    0    0  501    0  0.00000000000E+00 -0.00000000000E+00 -0.62756300561E+03  0.62756300561E+03  0.25500000000E-02 0.  1.
    5000001    1    1    2    0    0  0.45956973759E+02  0.15316798835E+03 -0.41527621053E+03  0.45161466664E+03  0.77000000000E+02 0.  0.
   -5000001    1    1    2    0    0 -0.45956973759E+02 -0.15316798835E+03 -0.15354746748E+03  0.23468766662E+03  0.77000000000E+02 0.  0.
<mgrwt>
<rscale>  0 0.38399286E+03</rscale>
<asrwt>0</asrwt>
<pdfrwt beam="1">  1        2 0.89651854E-01 0.38399286E+03</pdfrwt>
<pdfrwt beam="2">  1       -2 0.83913329E-02 0.38399286E+03</pdfrwt>
<totfact> 0.46085184E+03</totfact>
</mgrwt>
</event>
<event>
 4    1  0.4950349E-004  0.3293621E+03  0.7818608E-02  0.1071419E+00
         -2   -1    0    0    0  501 -0.00000000000E+00  0.00000000000E+00  0.95980636685E+03  0.95980636686E+03  0.25500000000E-02 0. -1.
          2   -1    0    0  501    0  0.00000000000E+00 -0.00000000000E+00 -0.28255534614E+02  0.28255534729E+02  0.25500000000E-02 0.  1.
    5000001    1    1    2    0    0 -0.60665908561E+02  0.11959584799E+03  0.63567093069E+03  0.65420948590E+03  0.77000000000E+02 0.  0.
   -5000001    1    1    2    0    0  0.60665908561E+02 -0.11959584799E+03  0.29587990155E+03  0.33385241568E+03  0.77000000000E+02 0.  0.
<mgrwt>
<rscale>  0 0.32936206E+03</rscale>
<asrwt>0</asrwt>
<pdfrwt beam="1">  1        2 0.40365055E-02 0.32936206E+03</pdfrwt>
<pdfrwt beam="2">  1       -2 0.13711518E+00 0.32936206E+03</pdfrwt>
<totfact> 0.83999965E+02</totfact>
</mgrwt>
</event>
<event>
 4    1  0.4950349E-004  0.2856422E+03  0.7818608E-02  0.1092647E+00
         -2   -1    0    0    0  501 -0.00000000000E+00  0.00000000000E+00  0.27251470676E+02  0.27251470795E+02  0.25500000000E-02 0. -1.
          2   -1    0    0  501    0  0.00000000000E+00 -0.00000000000E+00 -0.74850512081E+03  0.74850512081E+03  0.25500000000E-02 0.  1.
    5000001    1    1    2    0    0  0.86120611270E+02 -0.83711551504E+02 -0.34251365033E+03  0.37103771264E+03  0.77000000000E+02 0.  0.
   -5000001    1    1    2    0    0 -0.86120611270E+02  0.83711551504E+02 -0.37873999980E+03  0.40471887897E+03  0.77000000000E+02 0.  0.
<mgrwt>
<rscale>  0 0.28564219E+03</rscale>
<asrwt>0</asrwt>
<pdfrwt beam="1">  1        2 0.10692929E+00 0.28564219E+03</pdfrwt>
<pdfrwt beam="2">  1       -2 0.38930677E-02 0.28564219E+03</pdfrwt>
<totfact> 0.12088152E+04</totfact>
</mgrwt>
</event>
<event>
 4    1  0.4950349E-004  0.2239131E+03  0.7818608E-02  0.1130999E+00
          2   -1    0    0  501    0  0.00000000000E+00  0.00000000000E+00  0.78412746510E+03  0.78412746510E+03  0.25500000000E-02 0.  1.
         -2   -1    0    0    0  501 -0.00000000000E+00 -0.00000000000E+00 -0.15984994785E+02  0.15984994989E+02  0.25500000000E-02 0. -1.
    5000001    1    1    2    0    0 -0.69727261536E+02  0.36796241024E+01  0.23545208126E+03  0.25737543240E+03  0.77000000000E+02 0.  0.
   -5000001    1    1    2    0    0  0.69727261536E+02 -0.36796241024E+01  0.53269038905E+03  0.54273702769E+03  0.77000000000E+02 0.  0.
<mgrwt>
<rscale>  0 0.22391314E+03</rscale>
<asrwt>0</asrwt>
<pdfrwt beam="1">  1        2 0.11201824E+00 0.22391314E+03</pdfrwt>
<pdfrwt beam="2">  1       -2 0.22835701E-02 0.22391314E+03</pdfrwt>
<totfact> 0.24933678E+04</totfact>
</mgrwt>
</event>
<event>
 4    1  0.4950349E-004  0.3900501E+03  0.7818608E-02  0.1047280E+00
         -2   -1    0    0    0  501 -0.00000000000E+00  0.00000000000E+00  0.40737512206E+02  0.40737512286E+02  0.25500000000E-02 0. -1.
          2   -1    0    0  501    0  0.00000000000E+00 -0.00000000000E+00 -0.93365484798E+03  0.93365484798E+03  0.25500000000E-02 0.  1.
    5000001    1    1    2    0    0 -0.16220612376E+03  0.58740798106E+02 -0.32550039258E+03  0.37635198089E+03  0.77000000000E+02 0.  0.
   -5000001    1    1    2    0    0  0.16220612376E+03 -0.58740798106E+02 -0.56741694319E+03  0.59804037938E+03  0.77000000000E+02 0.  0.
<mgrwt>
<rscale>  0 0.39005013E+03</rscale>
<asrwt>0</asrwt>
<pdfrwt beam="1">  1        2 0.13337925E+00 0.39005013E+03</pdfrwt>
<pdfrwt beam="2">  1       -2 0.58196452E-02 0.39005013E+03</pdfrwt>
<totfact> 0.49862128E+03</totfact>
</mgrwt>
</event>
<event>
 4    1  0.4950349E-004  0.2259476E+03  0.7818608E-02  0.1129525E+00
         -2   -1    0    0    0  501 -0.00000000000E+00  0.00000000000E+00  0.42954251308E+03  0.42954251308E+03  0.25500000000E-02 0. -1.
          2   -1    0    0  501    0  0.00000000000E+00 -0.00000000000E+00 -0.29713188010E+02  0.29713188119E+02  0.25500000000E-02 0.  1.
    5000001    1    1    2    0    0 -0.82185660169E+02 -0.74943373378E+01  0.19007614358E+03  0.22106240790E+03  0.77000000000E+02 0.  0.
   -5000001    1    1    2    0    0  0.82185660169E+02  0.74943373378E+01  0.20975318149E+03  0.23819329330E+03  0.77000000000E+02 0.  0.
<mgrwt>
<rscale>  0 0.22594758E+03</rscale>
<asrwt>0</asrwt>
<pdfrwt beam="1">  1        2 0.42447409E-02 0.22594758E+03</pdfrwt>
<pdfrwt beam="2">  1       -2 0.61363219E-01 0.22594758E+03</pdfrwt>
<totfact> 0.48607821E+03</totfact>
</mgrwt>
</event>
<event>
 4    1  0.4950349E-004  0.1722683E+03  0.7818608E-02  0.1175503E+00
         -2   -1    0    0    0  501 -0.00000000000E+00  0.00000000000E+00  0.62970989555E+03  0.62970989555E+03  0.25500000000E-02 0. -1.
          2   -1    0    0  501    0  0.00000000000E+00 -0.00000000000E+00 -0.11781766217E+02  0.11781766493E+02  0.25500000000E-02 0.  1.
    5000001    1    1    2    0    0 -0.23195913430E+02 -0.27658989014E+02  0.25803858284E+03  0.27169096471E+03  0.77000000000E+02 0.  0.
   -5000001    1    1    2    0    0  0.23195913430E+02  0.27658989014E+02  0.35988954649E+03  0.36980069733E+03  0.77000000000E+02 0.  0.
<mgrwt>
<rscale>  0 0.17226834E+03</rscale>
<asrwt>0</asrwt>
<pdfrwt beam="1">  1        2 0.16831091E-02 0.17226834E+03</pdfrwt>
<pdfrwt beam="2">  1       -2 0.89958578E-01 0.17226834E+03</pdfrwt>
<totfact> 0.73261874E+03</totfact>
</mgrwt>
</event>
<event>
 4    1  0.4950349E-004  0.2153877E+03  0.7818608E-02  0.1137369E+00
          2   -1    0    0  501    0  0.00000000000E+00  0.00000000000E+00  0.78190185673E+03  0.78190185674E+03  0.25500000000E-02 0.  1.
         -2   -1    0    0    0  501 -0.00000000000E+00 -0.00000000000E+00 -0.14833014824E+02  0.14833015043E+02  0.25500000000E-02 0. -1.
    5000001    1    1    2    0    0 -0.21004683852E+02  0.56420741788E+02  0.55079085713E+03  0.55939616119E+03  0.77000000000E+02 0.  0.
   -5000001    1    1    2    0    0  0.21004683852E+02 -0.56420741788E+02  0.21627798478E+03  0.23733871059E+03  0.77000000000E+02 0.  0.
<mgrwt>
<rscale>  0 0.21538767E+03</rscale>
<asrwt>0</asrwt>
<pdfrwt beam="1">  1        2 0.11170024E+00 0.21538767E+03</pdfrwt>
<pdfrwt beam="2">  1       -2 0.21190026E-02 0.21538767E+03</pdfrwt>
<totfact> 0.27853834E+04</totfact>
</mgrwt>
</event>
<event>
 4    1  0.4950349E-004  0.2725979E+03  0.7818608E-02  0.1099802E+00
          2   -1    0    0  501    0  0.00000000000E+00  0.00000000000E+00  0.10417103458E+03  0.10417103461E+03  0.25500000000E-02 0.  1.
         -2   -1    0    0    0  501 -0.00000000000E+00 -0.00000000000E+00 -0.17833565473E+03  0.17833565475E+03  0.25500000000E-02 0. -1.
    5000001    1    1    2    0    0  0.16683867205E+02 -0.11105282573E+03 -0.43414068083E+02  0.14291557940E+03  0.77000000000E+02 0.  0.
   -5000001    1    1    2    0    0 -0.16683867205E+02  0.11105282573E+03 -0.30750552070E+02  0.13959110996E+03  0.77000000000E+02 0.  0.
<mgrwt>
<rscale>  0 0.27259794E+03</rscale>
<asrwt>0</asrwt>
<pdfrwt beam="1">  1        2 0.14881576E-01 0.27259794E+03</pdfrwt>
<pdfrwt beam="2">  1       -2 0.25476522E-01 0.27259794E+03</pdfrwt>
<totfact> 0.53670184E+03</totfact>
</mgrwt>
</event>
<event>
 4    1  0.4950349E-004  0.2121505E+03  0.7818608E-02  0.1139874E+00
          2   -1    0    0  501    0  0.00000000000E+00  0.00000000000E+00  0.23820102301E+02  0.23820102437E+02  0.25500000000E-02 0.  1.
         -2   -1    0    0    0  501 -0.00000000000E+00 -0.00000000000E+00 -0.47237251354E+03  0.47237251355E+03  0.25500000000E-02 0. -1.
    5000001    1    1    2    0    0  0.77183988166E+01 -0.38023613301E+02 -0.79765180887E+02  0.11746000566E+03  0.77000000000E+02 0.  0.
   -5000001    1    1    2    0    0 -0.77183988166E+01  0.38023613301E+02 -0.36878723036E+03  0.37873261032E+03  0.77000000000E+02 0.  0.
<mgrwt>
<rscale>  0 0.21215053E+03</rscale>
<asrwt>0</asrwt>
<pdfrwt beam="1">  1        2 0.34028721E-02 0.21215053E+03</pdfrwt>
<pdfrwt beam="2">  1       -2 0.67481782E-01 0.21215053E+03</pdfrwt>
<totfact> 0.53355337E+03</totfact>
</mgrwt>
</event>
<event>
 4    1  0.4950349E-004  0.3127065E+03  0.7818608E-02  0.1079056E+00
         -2   -1    0    0    0  501 -0.00000000000E+00  0.00000000000E+00  0.45175517080E+02  0.45175517152E+02  0.25500000000E-02 0. -1.
          2   -1    0    0  501    0  0.00000000000E+00 -0.00000000000E+00 -0.54114124658E+03  0.54114124658E+03  0.25500000000E-02 0.  1.
    5000001    1    1    2    0    0 -0.63060892606E+02 -0.10915213383E+03 -0.34407365130E+03  0.37444164033E+03  0.77000000000E+02 0.  0.
   -5000001    1    1    2    0    0  0.63060892606E+02  0.10915213383E+03 -0.15189207819E+03  0.21187512340E+03  0.77000000000E+02 0.  0.
<mgrwt>
<rscale>  0 0.31270648E+03</rscale>
<asrwt>0</asrwt>
<pdfrwt beam="1">  1        2 0.77305888E-01 0.31270648E+03</pdfrwt>
<pdfrwt beam="2">  1       -2 0.64536456E-02 0.31270648E+03</pdfrwt>
<totfact> 0.81889922E+03</totfact>
</mgrwt>
</event>
<event>
 4    1  0.4950349E-004  0.1891671E+03  0.7818608E-02  0.1159215E+00
          2   -1    0    0  501    0  0.00000000000E+00  0.00000000000E+00  0.10101179953E+03  0.10101179956E+03  0.25500000000E-02 0.  1.
         -2   -1    0    0    0  501 -0.00000000000E+00 -0.00000000000E+00 -0.88564354390E+02  0.88564354427E+02  0.25500000000E-02 0. -1.
    5000001    1    1    2    0    0 -0.11860581786E+02 -0.48625399370E+02  0.28898787445E+02  0.96276906785E+02  0.77000000000E+02 0.  0.
   -5000001    1    1    2    0    0  0.11860581786E+02  0.48625399370E+02 -0.16451342310E+02  0.93299247199E+02  0.77000000000E+02 0.  0.
<mgrwt>
<rscale>  0 0.18916707E+03</rscale>
<asrwt>0</asrwt>
<pdfrwt beam="1">  1        2 0.14430257E-01 0.18916707E+03</pdfrwt>
<pdfrwt beam="2">  1       -2 0.12652051E-01 0.18916707E+03</pdfrwt>
<totfact> 0.17728990E+04</totfact>
</mgrwt>
</event>
<event>
 4    1  0.4950349E-004  0.2622221E+03  0.7818608E-02  0.1105815E+00
          2   -1    0    0  501    0  0.00000000000E+00  0.00000000000E+00  0.50306703770E+03  0.50306703771E+03  0.25500000000E-02 0.  1.
         -2   -1    0    0    0  501 -0.00000000000E+00 -0.00000000000E+00 -0.34170600712E+02  0.34170600807E+02  0.25500000000E-02 0. -1.
    5000001    1    1    2    0    0  0.42256638641E+02  0.95626906955E+02  0.19717523330E+03  0.23608727511E+03  0.77000000000E+02 0.  0.
   -5000001    1    1    2    0    0 -0.42256638641E+02 -0.95626906955E+02  0.27172120369E+03  0.30115036340E+03  0.77000000000E+02 0.  0.
<mgrwt>
<rscale>  0 0.26222207E+03</rscale>
<asrwt>0</asrwt>
<pdfrwt beam="1">  1        2 0.71866710E-01 0.26222207E+03</pdfrwt>
<pdfrwt beam="2">  1       -2 0.48815150E-02 0.26222207E+03</pdfrwt>
<totfact> 0.13523347E+04</totfact>
</mgrwt>
</event>
<event>
 4    1  0.4950349E-004  0.2360025E+03  0.7818608E-02  0.1122485E+00
          2   -1    0    0  501    0  0.00000000000E+00  0.00000000000E+00  0.22286017479E+04  0.22286017479E+04  0.25500000000E-02 0.  1.
         -2   -1    0    0    0  501 -0.00000000000E+00 -0.00000000000E+00 -0.62479973777E+01  0.62479978981E+01  0.25500000000E-02 0. -1.
    5000001    1    1    2    0    0  0.70752209143E+01  0.85858351662E+02  0.88438375923E+03  0.89189985363E+03  0.77000000000E+02 0.  0.
   -5000001    1    1    2    0    0 -0.70752209143E+01 -0.85858351662E+02  0.13379699913E+04  0.13429498922E+04  0.77000000000E+02 0.  0.
<mgrwt>
<rscale>  0 0.23600253E+03</rscale>
<asrwt>0</asrwt>
<pdfrwt beam="1">  1        2 0.31837274E+00 0.23600253E+03</pdfrwt>
<pdfrwt beam="2">  1       -2 0.89256811E-03 0.23600253E+03</pdfrwt>
<totfact> 0.17098452E+04</totfact>
</mgrwt>
</event>
<event>
 4    1  0.4950349E-004  0.3610994E+03  0.7818608E-02  0.1058149E+00
         -2   -1    0    0    0  501 -0.00000000000E+00  0.00000000000E+00  0.33984314321E+02  0.33984314417E+02  0.25500000000E-02 0. -1.
          2   -1    0    0  501    0  0.00000000000E+00 -0.00000000000E+00 -0.95921310585E+03  0.95921310585E+03  0.25500000000E-02 0.  1.
    5000001    1    1    2    0    0 -0.57823741497E+02 -0.13790380922E+03 -0.64314647816E+03  0.66477623156E+03  0.77000000000E+02 0.  0.
   -5000001    1    1    2    0    0  0.57823741497E+02  0.13790380922E+03 -0.28208231337E+03  0.32842118871E+03  0.77000000000E+02 0.  0.
<mgrwt>
<rscale>  0 0.36109943E+03</rscale>
<asrwt>0</asrwt>
<pdfrwt beam="1">  1        2 0.13703043E+00 0.36109943E+03</pdfrwt>
<pdfrwt beam="2">  1       -2 0.48549027E-02 0.36109943E+03</pdfrwt>
<totfact> 0.63455824E+03</totfact>
</mgrwt>
</event>
<event>
 4    1  0.4950349E-004  0.1792227E+03  0.7818608E-02  0.1168557E+00
         -2   -1    0    0    0  501 -0.00000000000E+00  0.00000000000E+00  0.71601649342E+01  0.71601653883E+01  0.25500000000E-02 0. -1.
          2   -1    0    0  501    0  0.00000000000E+00 -0.00000000000E+00 -0.11215100380E+04  0.11215100380E+04  0.25500000000E-02 0.  1.
    5000001    1    1    2    0    0  0.31858941395E+02 -0.32826331748E+02 -0.53866721426E+03  0.54606220151E+03  0.77000000000E+02 0.  0.
   -5000001    1    1    2    0    0 -0.31858941395E+02  0.32826331748E+02 -0.57568265882E+03  0.58260800189E+03  0.77000000000E+02 0.  0.
<mgrwt>
<rscale>  0 0.17922273E+03</rscale>
<asrwt>0</asrwt>
<pdfrwt beam="1">  1        2 0.16021561E+00 0.17922273E+03</pdfrwt>
<pdfrwt beam="2">  1       -2 0.10228815E-02 0.17922273E+03</pdfrwt>
<totfact> 0.49315028E+04</totfact>
</mgrwt>
</event>
<event>
 4    1  0.4950349E-004  0.2819688E+03  0.7818608E-02  0.1094618E+00
         -2   -1    0    0    0  501 -0.00000000000E+00  0.00000000000E+00  0.25375591862E+03  0.25375591863E+03  0.25500000000E-02 0. -1.
          2   -1    0    0  501    0  0.00000000000E+00 -0.00000000000E+00 -0.78329604021E+02  0.78329604063E+02  0.25500000000E-02 0.  1.
    5000001    1    1    2    0    0  0.13676742260E+01  0.11063944835E+03  0.13633882258E+03  0.19172958198E+03  0.77000000000E+02 0.  0.
   -5000001    1    1    2    0    0 -0.13676742260E+01 -0.11063944835E+03  0.39087492022E+02  0.14035594072E+03  0.77000000000E+02 0.  0.
<mgrwt>
<rscale>  0 0.28196880E+03</rscale>
<asrwt>0</asrwt>
<pdfrwt beam="1">  1        2 0.11189943E-01 0.28196880E+03</pdfrwt>
<pdfrwt beam="2">  1       -2 0.36250845E-01 0.28196880E+03</pdfrwt>
<totfact> 0.39882711E+03</totfact>
</mgrwt>
</event>
<event>
 4    1  0.4950349E-004  0.2711696E+03  0.7818608E-02  0.1100612E+00
         -2   -1    0    0    0  501 -0.00000000000E+00  0.00000000000E+00  0.63705968613E+01  0.63705973716E+01  0.25500000000E-02 0. -1.
          2   -1    0    0  501    0  0.00000000000E+00 -0.00000000000E+00 -0.28856373507E+04  0.28856373507E+04  0.25500000000E-02 0.  1.
    5000001    1    1    2    0    0 -0.54924794299E+02 -0.80197631436E+02 -0.85492211153E+03  0.86386874576E+03  0.77000000000E+02 0.  0.
   -5000001    1    1    2    0    0  0.54924794299E+02  0.80197631436E+02 -0.20243446423E+04  0.20281392023E+04  0.77000000000E+02 0.  0.
<mgrwt>
<rscale>  0 0.27116956E+03</rscale>
<asrwt>0</asrwt>
<pdfrwt beam="1">  1        2 0.41223307E+00 0.27116956E+03</pdfrwt>
<pdfrwt beam="2">  1       -2 0.91008715E-03 0.27116956E+03</pdfrwt>
<totfact> 0.77965671E+03</totfact>
</mgrwt>
</event>
<event>
 4    1  0.4950349E-004  0.2721590E+03  0.7818608E-02  0.1100050E+00
          2   -1    0    0  501    0  0.00000000000E+00  0.00000000000E+00  0.15595392247E+04  0.15595392247E+04  0.25500000000E-02 0.  1.
         -2   -1    0    0    0  501 -0.00000000000E+00 -0.00000000000E+00 -0.11873780658E+02  0.11873780932E+02  0.25500000000E-02 0. -1.
    5000001    1    1    2    0    0  0.10537033912E+03 -0.14718666510E+02  0.97952220104E+03  0.98828755423E+03  0.77000000000E+02 0.  0.
   -5000001    1    1    2    0    0 -0.10537033912E+03  0.14718666510E+02  0.56814324298E+03  0.58312545138E+03  0.77000000000E+02 0.  0.
<mgrwt>
<rscale>  0 0.27215897E+03</rscale>
<asrwt>0</asrwt>
<pdfrwt beam="1">  1        2 0.22279132E+00 0.27215897E+03</pdfrwt>
<pdfrwt beam="2">  1       -2 0.16962544E-02 0.27215897E+03</pdfrwt>
<totfact> 0.14330661E+04</totfact>
</mgrwt>
</event>
<event>
 4    1  0.4950349E-004  0.2637840E+03  0.7818608E-02  0.1104891E+00
         -2   -1    0    0    0  501 -0.00000000000E+00  0.00000000000E+00  0.14534685710E+03  0.14534685712E+03  0.25500000000E-02 0. -1.
          2   -1    0    0  501    0  0.00000000000E+00 -0.00000000000E+00 -0.11968269386E+03  0.11968269389E+03  0.25500000000E-02 0.  1.
    5000001    1    1    2    0    0  0.47560211010E+02 -0.90789046371E+02 -0.18328530483E+02  0.12949733450E+03  0.77000000000E+02 0.  0.
   -5000001    1    1    2    0    0 -0.47560211010E+02  0.90789046371E+02  0.43992693718E+02  0.13553221651E+03  0.77000000000E+02 0.  0.
<mgrwt>
<rscale>  0 0.26378403E+03</rscale>
<asrwt>0</asrwt>
<pdfrwt beam="1">  1        2 0.17097528E-01 0.26378403E+03</pdfrwt>
<pdfrwt beam="2">  1       -2 0.20763837E-01 0.26378403E+03</pdfrwt>
<totfact> 0.65023001E+03</totfact>
</mgrwt>
</event>
<event>
 4    1  0.4950349E-004  0.1878888E+03  0.7818608E-02  0.1160379E+00
         -2   -1    0    0    0  501 -0.00000000000E+00  0.00000000000E+00  0.46373541455E+02  0.46373541525E+02  0.25500000000E-02 0. -1.
          2   -1    0    0  501    0  0.00000000000E+00 -0.00000000000E+00 -0.19031425875E+03  0.19031425877E+03  0.25500000000E-02 0.  1.
    5000001    1    1    2    0    0  0.35631936100E+02  0.23049134120E+01 -0.12269824571E+03  0.14919385710E+03  0.77000000000E+02 0.  0.
   -5000001    1    1    2    0    0 -0.35631936100E+02 -0.23049134120E+01 -0.21242471585E+02  0.87493943191E+02  0.77000000000E+02 0.  0.
<mgrwt>
<rscale>  0 0.18788876E+03</rscale>
<asrwt>0</asrwt>
<pdfrwt beam="1">  1        2 0.27187751E-01 0.18788876E+03</pdfrwt>
<pdfrwt beam="2">  1       -2 0.66247917E-02 0.18788876E+03</pdfrwt>
<totfact> 0.23770504E+04</totfact>
</mgrwt>
</event>
<event>
 4    1  0.4950349E-004  0.2845279E+03  0.7818608E-02  0.1093241E+00
          2   -1    0    0  501    0  0.00000000000E+00  0.00000000000E+00  0.24945186817E+03  0.24945186818E+03  0.25500000000E-02 0.  1.
         -2   -1    0    0    0  501 -0.00000000000E+00 -0.00000000000E+00 -0.81133990369E+02  0.81133990409E+02  0.25500000000E-02 0. -1.
    5000001    1    1    2    0    0 -0.62196214174E+01 -0.11592178751E+03  0.11770235747E+03  0.18237156978E+03  0.77000000000E+02 0.  0.
   -5000001    1    1    2    0    0  0.62196214174E+01  0.11592178751E+03  0.50615520331E+02  0.14821428881E+03  0.77000000000E+02 0.  0.
<mgrwt>
<rscale>  0 0.28452786E+03</rscale>
<asrwt>0</asrwt>
<pdfrwt beam="1">  1        2 0.35635982E-01 0.28452786E+03</pdfrwt>
<pdfrwt beam="2">  1       -2 0.11590570E-01 0.28452786E+03</pdfrwt>
<totfact> 0.75376539E+03</totfact>
</mgrwt>
</event>
<event>
 4    1  0.4950349E-004  0.2821594E+03  0.7818608E-02  0.1094515E+00
          2   -1    0    0  501    0  0.00000000000E+00  0.00000000000E+00  0.58115270440E+03  0.58115270441E+03  0.25500000000E-02 0.  1.
         -2   -1    0    0    0  501 -0.00000000000E+00 -0.00000000000E+00 -0.34248287884E+02  0.34248287978E+02  0.25500000000E-02 0. -1.
    5000001    1    1    2    0    0  0.67164014388E+02 -0.93421733883E+02  0.33261671114E+03  0.36027975480E+03  0.77000000000E+02 0.  0.
   -5000001    1    1    2    0    0 -0.67164014388E+02  0.93421733883E+02  0.21428770538E+03  0.25512123759E+03  0.77000000000E+02 0.  0.
<mgrwt>
<rscale>  0 0.28215942E+03</rscale>
<asrwt>0</asrwt>
<pdfrwt beam="1">  1        2 0.83021819E-01 0.28215942E+03</pdfrwt>
<pdfrwt beam="2">  1       -2 0.48926123E-02 0.28215942E+03</pdfrwt>
<totfact> 0.11503641E+04</totfact>
</mgrwt>
</event>
<event>
 4    1  0.4950349E-004  0.2581169E+03  0.7818608E-02  0.1108280E+00
         -2   -1    0    0    0  501 -0.00000000000E+00  0.00000000000E+00  0.49907549489E+02  0.49907549555E+02  0.25500000000E-02 0. -1.
          2   -1    0    0  501    0  0.00000000000E+00 -0.00000000000E+00 -0.33373866068E+03  0.33373866069E+03  0.25500000000E-02 0.  1.
    5000001    1    1    2    0    0 -0.64698868248E+02 -0.76196972265E+02 -0.10161560947E+03  0.16200819184E+03  0.77000000000E+02 0.  0.
   -5000001    1    1    2    0    0  0.64698868248E+02  0.76196972265E+02 -0.18221550172E+03  0.22163801840E+03  0.77000000000E+02 0.  0.
<mgrwt>
<rscale>  0 0.25811686E+03</rscale>
<asrwt>0</asrwt>
<pdfrwt beam="1">  1        2 0.47676950E-01 0.25811686E+03</pdfrwt>
<pdfrwt beam="2">  1       -2 0.71296502E-02 0.25811686E+03</pdfrwt>
<totfact> 0.11805341E+04</totfact>
</mgrwt>
</event>
<event>
 4    1  0.4950349E-004  0.4820166E+03  0.7818608E-02  0.1018582E+00
         -2   -1    0    0    0  501 -0.00000000000E+00  0.00000000000E+00  0.91228935256E+02  0.91228935292E+02  0.25500000000E-02 0.  1.
          2   -1    0    0  501    0  0.00000000000E+00 -0.00000000000E+00 -0.63669496940E+03  0.63669496941E+03  0.25500000000E-02 0. -1.
    5000001    1    1    2    0    0  0.58788243320E+02 -0.22011962577E+03 -0.29648136246E+03  0.38175765282E+03  0.77000000000E+02 0.  0.
   -5000001    1    1    2    0    0 -0.58788243320E+02  0.22011962577E+03 -0.24898467169E+03  0.34616625188E+03  0.77000000000E+02 0.  0.
<mgrwt>
<rscale>  0 0.48201661E+03</rscale>
<asrwt>0</asrwt>
<pdfrwt beam="1">  1        2 0.90956421E-01 0.48201661E+03</pdfrwt>
<pdfrwt beam="2">  1       -2 0.13032705E-01 0.48201661E+03</pdfrwt>
<totfact> 0.22320107E+03</totfact>
</mgrwt>
</event>
<event>
 4    1  0.4950349E-004  0.3837327E+03  0.7818608E-02  0.1049563E+00
         -2   -1    0    0    0  501 -0.00000000000E+00  0.00000000000E+00  0.74305169566E+02  0.74305169609E+02  0.25500000000E-02 0. -1.
          2   -1    0    0  501    0  0.00000000000E+00 -0.00000000000E+00 -0.49542582340E+03  0.49542582341E+03  0.25500000000E-02 0.  1.
    5000001    1    1    2    0    0 -0.28781794819E+02  0.17335954152E+03 -0.20858088199E+03  0.28340237593E+03  0.77000000000E+02 0.  0.
   -5000001    1    1    2    0    0  0.28781794819E+02 -0.17335954152E+03 -0.21253977184E+03  0.28632861709E+03  0.77000000000E+02 0.  0.
<mgrwt>
<rscale>  0 0.38373272E+03</rscale>
<asrwt>0</asrwt>
<pdfrwt beam="1">  1        2 0.70775116E-01 0.38373272E+03</pdfrwt>
<pdfrwt beam="2">  1       -2 0.10615024E-01 0.38373272E+03</pdfrwt>
<totfact> 0.41480841E+03</totfact>
</mgrwt>
</event>
<event>
 4    1  0.4950349E-004  0.2158824E+03  0.7818608E-02  0.1136991E+00
          2   -1    0    0  501    0  0.00000000000E+00  0.00000000000E+00  0.29284286877E+03  0.29284286879E+03  0.25500000000E-02 0.  1.
         -2   -1    0    0    0  501 -0.00000000000E+00 -0.00000000000E+00 -0.39786893166E+02  0.39786893248E+02  0.25500000000E-02 0. -1.
    5000001    1    1    2    0    0  0.13059627679E+02  0.68906173976E+02  0.17020862175E+03  0.19954595863E+03  0.77000000000E+02 0.  0.
   -5000001    1    1    2    0    0 -0.13059627679E+02 -0.68906173976E+02  0.82847353857E+02  0.13308380340E+03  0.77000000000E+02 0.  0.
<mgrwt>
<rscale>  0 0.21588245E+03</rscale>
<asrwt>0</asrwt>
<pdfrwt beam="1">  1        2 0.41834696E-01 0.21588245E+03</pdfrwt>
<pdfrwt beam="2">  1       -2 0.56838418E-02 0.21588245E+03</pdfrwt>
<totfact> 0.19035230E+04</totfact>
</mgrwt>
</event>
<event>
 4    1  0.4950349E-004  0.2014289E+03  0.7818608E-02  0.1148539E+00
         -2   -1    0    0    0  501 -0.00000000000E+00  0.00000000000E+00  0.81099971069E+01  0.81099975078E+01  0.25500000000E-02 0. -1.
          2   -1    0    0  501    0  0.00000000000E+00 -0.00000000000E+00 -0.12507280088E+04  0.12507280088E+04  0.25500000000E-02 0.  1.
    5000001    1    1    2    0    0  0.54693278131E+02  0.33551097394E+02 -0.55964090225E+03  0.56854548656E+03  0.77000000000E+02 0.  0.
   -5000001    1    1    2    0    0 -0.54693278131E+02 -0.33551097394E+02 -0.68297710942E+03  0.69029251974E+03  0.77000000000E+02 0.  0.
<mgrwt>
<rscale>  0 0.20142890E+03</rscale>
<asrwt>0</asrwt>
<pdfrwt beam="1">  1        2 0.17867531E+00 0.20142890E+03</pdfrwt>
<pdfrwt beam="2">  1       -2 0.11585718E-02 0.20142890E+03</pdfrwt>
<totfact> 0.35411424E+04</totfact>
</mgrwt>
</event>
<event>
 4    1  0.4950349E-004  0.2366762E+03  0.7818608E-02  0.1122027E+00
         -2   -1    0    0    0  501 -0.00000000000E+00  0.00000000000E+00  0.63006609168E+02  0.63006609220E+02  0.25500000000E-02 0. -1.
          2   -1    0    0  501    0  0.00000000000E+00 -0.00000000000E+00 -0.22226089695E+03  0.22226089696E+03  0.25500000000E-02 0.  1.
    5000001    1    1    2    0    0  0.65780499920E+01 -0.75014470642E+02 -0.20524506981E+02  0.10963893895E+03  0.77000000000E+02 0.  0.
   -5000001    1    1    2    0    0 -0.65780499920E+01  0.75014470642E+02 -0.13872978080E+03  0.17562856723E+03  0.77000000000E+02 0.  0.
<mgrwt>
<rscale>  0 0.23667620E+03</rscale>
<asrwt>0</asrwt>
<pdfrwt beam="1">  1        2 0.31751556E-01 0.23667620E+03</pdfrwt>
<pdfrwt beam="2">  1       -2 0.90009443E-02 0.23667620E+03</pdfrwt>
<totfact> 0.12667146E+04</totfact>
</mgrwt>
</event>
<event>
 4    1  0.4950349E-004  0.2251799E+03  0.7818608E-02  0.1130079E+00
         -2   -1    0    0    0  501 -0.00000000000E+00  0.00000000000E+00  0.14060226643E+02  0.14060226874E+02  0.25500000000E-02 0. -1.
          2   -1    0    0  501    0  0.00000000000E+00 -0.00000000000E+00 -0.90158527252E+03  0.90158527252E+03  0.25500000000E-02 0.  1.
    5000001    1    1    2    0    0  0.45920677167E+02 -0.48795911373E+02 -0.63697498448E+03  0.64510144971E+03  0.77000000000E+02 0.  0.
   -5000001    1    1    2    0    0 -0.45920677167E+02  0.48795911373E+02 -0.25055006139E+03  0.27054404969E+03  0.77000000000E+02 0.  0.
<mgrwt>
<rscale>  0 0.22517987E+03</rscale>
<asrwt>0</asrwt>
<pdfrwt beam="1">  1        2 0.12879786E+00 0.22517987E+03</pdfrwt>
<pdfrwt beam="2">  1       -2 0.20086044E-02 0.22517987E+03</pdfrwt>
<totfact> 0.25276334E+04</totfact>
</mgrwt>
</event>
<event>
 4    1  0.4950349E-004  0.1902870E+03  0.7818608E-02  0.1158203E+00
          2   -1    0    0  501    0  0.00000000000E+00  0.00000000000E+00  0.14882841022E+03  0.14882841025E+03  0.25500000000E-02 0.  1.
         -2   -1    0    0    0  501 -0.00000000000E+00 -0.00000000000E+00 -0.60823669967E+02  0.60823670020E+02  0.25500000000E-02 0. -1.
    5000001    1    1    2    0    0 -0.69006939058E+01 -0.20967576972E+02  0.10056964092E+03  0.12857103693E+03  0.77000000000E+02 0.  0.
   -5000001    1    1    2    0    0  0.69006939058E+01  0.20967576972E+02 -0.12564900667E+02  0.81081043341E+02  0.77000000000E+02 0.  0.
<mgrwt>
<rscale>  0 0.19028705E+03</rscale>
<asrwt>0</asrwt>
<pdfrwt beam="1">  1        2 0.21261201E-01 0.19028705E+03</pdfrwt>
<pdfrwt beam="2">  1       -2 0.86890957E-02 0.19028705E+03</pdfrwt>
<totfact> 0.20570068E+04</totfact>
</mgrwt>
</event>
<event>
 4    1  0.4950349E-004  0.4704672E+03  0.7818608E-02  0.1021788E+00
         -2   -1    0    0    0  501 -0.00000000000E+00  0.00000000000E+00  0.17571733225E+02  0.17571733410E+02  0.25500000000E-02 0. -1.
          2   -1    0    0  501    0  0.00000000000E+00 -0.00000000000E+00 -0.31490824056E+04  0.31490824056E+04  0.25500000000E-02 0.  1.
    5000001    1    1    2    0    0  0.17458000658E+02 -0.14447569355E+03 -0.43489217508E+03  0.46501420597E+03  0.77000000000E+02 0.  0.
   -5000001    1    1    2    0    0 -0.17458000658E+02  0.14447569355E+03 -0.26966184973E+04  0.27016399331E+04  0.77000000000E+02 0.  0.
<mgrwt>
<rscale>  0 0.47046716E+03</rscale>
<asrwt>0</asrwt>
<pdfrwt beam="1">  1        2 0.44986855E+00 0.47046716E+03</pdfrwt>
<pdfrwt beam="2">  1       -2 0.25102496E-02 0.47046716E+03</pdfrwt>
<totfact> 0.12434580E+03</totfact>
</mgrwt>
</event>
<event>
 4    1  0.4950349E-004  0.2225711E+03  0.7818608E-02  0.1131981E+00
         -2   -1    0    0    0  501 -0.00000000000E+00  0.00000000000E+00  0.42201573511E+02  0.42201573588E+02  0.25500000000E-02 0. -1.
          2   -1    0    0  501    0  0.00000000000E+00 -0.00000000000E+00 -0.29346002200E+03  0.29346002201E+03  0.25500000000E-02 0.  1.
    5000001    1    1    2    0    0  0.69203222624E+02 -0.40384827215E+02 -0.13460905240E+03  0.17455262037E+03  0.77000000000E+02 0.  0.
   -5000001    1    1    2    0    0 -0.69203222624E+02  0.40384827215E+02 -0.11664939609E+03  0.16110897522E+03  0.77000000000E+02 0.  0.
<mgrwt>
<rscale>  0 0.22257111E+03</rscale>
<asrwt>0</asrwt>
<pdfrwt beam="1">  1        2 0.41922859E-01 0.22257111E+03</pdfrwt>
<pdfrwt beam="2">  1       -2 0.60287964E-02 0.22257111E+03</pdfrwt>
<totfact> 0.17394762E+04</totfact>
</mgrwt>
</event>
<event>
 4    1  0.4950349E-004  0.1984159E+03  0.7818608E-02  0.1151082E+00
          2   -1    0    0  501    0  0.00000000000E+00  0.00000000000E+00  0.12988725696E+04  0.12988725696E+04  0.25500000000E-02 0. -1.
         -2   -1    0    0    0  501 -0.00000000000E+00 -0.00000000000E+00 -0.75775069079E+01  0.75775073370E+01  0.25500000000E-02 0.  1.
    5000001    1    1    2    0    0  0.45660958188E+02 -0.41484006871E+02  0.71387484935E+03  0.72066090949E+03  0.77000000000E+02 0.  0.
   -5000001    1    1    2    0    0 -0.45660958188E+02  0.41484006871E+02  0.57742021337E+03  0.58578916748E+03  0.77000000000E+02 0.  0.
<mgrwt>
<rscale>  0 0.19841589E+03</rscale>
<asrwt>0</asrwt>
<pdfrwt beam="1">  1        2 0.18555335E+00 0.19841589E+03</pdfrwt>
<pdfrwt beam="2">  1       -2 0.10825003E-02 0.19841589E+03</pdfrwt>
<totfact> 0.36818194E+04</totfact>
</mgrwt>
</event>
<event>
 4    1  0.4950349E-004  0.3849747E+03  0.7818608E-02  0.1049110E+00
         -2   -1    0    0    0  501 -0.00000000000E+00  0.00000000000E+00  0.11338351917E+03  0.11338351920E+03  0.25500000000E-02 0. -1.
          2   -1    0    0  501    0  0.00000000000E+00 -0.00000000000E+00 -0.32677915788E+03  0.32677915789E+03  0.25500000000E-02 0.  1.
    5000001    1    1    2    0    0 -0.14781168966E+03  0.86186908672E+02 -0.15582074594E+03  0.24389666601E+03  0.77000000000E+02 0.  0.
   -5000001    1    1    2    0    0  0.14781168966E+03 -0.86186908672E+02 -0.57574892765E+02  0.19626601108E+03  0.77000000000E+02 0.  0.
<mgrwt>
<rscale>  0 0.38497465E+03</rscale>
<asrwt>0</asrwt>
<pdfrwt beam="1">  1        2 0.46682736E-01 0.38497465E+03</pdfrwt>
<pdfrwt beam="2">  1       -2 0.16197646E-01 0.38497465E+03</pdfrwt>
<totfact> 0.32711345E+03</totfact>
</mgrwt>
</event>
<event>
 4    1  0.4950349E-004  0.2863021E+03  0.7818608E-02  0.1092296E+00
         -2   -1    0    0    0  501 -0.00000000000E+00  0.00000000000E+00  0.29792126624E+03  0.29792126625E+03  0.25500000000E-02 0. -1.
          2   -1    0    0  501    0  0.00000000000E+00 -0.00000000000E+00 -0.68784036974E+02  0.68784037021E+02  0.25500000000E-02 0.  1.
    5000001    1    1    2    0    0  0.82667978338E+02 -0.85184445190E+02  0.86716952347E+02  0.16594943257E+03  0.77000000000E+02 0.  0.
   -5000001    1    1    2    0    0 -0.82667978338E+02  0.85184445190E+02  0.14242027692E+03  0.20075587071E+03  0.77000000000E+02 0.  0.
<mgrwt>
<rscale>  0 0.28630213E+03</rscale>
<asrwt>0</asrwt>
<pdfrwt beam="1">  1        2 0.98262907E-02 0.28630213E+03</pdfrwt>
<pdfrwt beam="2">  1       -2 0.42560182E-01 0.28630213E+03</pdfrwt>
<totfact> 0.34518804E+03</totfact>
</mgrwt>
</event>
<event>
 4    1  0.4950349E-004  0.2007002E+03  0.7818608E-02  0.1149150E+00
         -2   -1    0    0    0  501 -0.00000000000E+00  0.00000000000E+00  0.90109472004E+01  0.90109475612E+01  0.25500000000E-02 0. -1.
          2   -1    0    0  501    0  0.00000000000E+00 -0.00000000000E+00 -0.11175452491E+04  0.11175452491E+04  0.25500000000E-02 0.  1.
    5000001    1    1    2    0    0  0.61270727104E+02  0.19659771253E+02 -0.55836447945E+03  0.56730988051E+03  0.77000000000E+02 0.  0.
   -5000001    1    1    2    0    0 -0.61270727104E+02 -0.19659771253E+02 -0.55016982249E+03  0.55924631620E+03  0.77000000000E+02 0.  0.
<mgrwt>
<rscale>  0 0.20070019E+03</rscale>
<asrwt>0</asrwt>
<pdfrwt beam="1">  1        2 0.15964923E+00 0.20070019E+03</pdfrwt>
<pdfrwt beam="2">  1       -2 0.12872789E-02 0.20070019E+03</pdfrwt>
<totfact> 0.35873500E+04</totfact>
</mgrwt>
</event>
<event>
 4    1  0.4950349E-004  0.1975429E+03  0.7818608E-02  0.1151829E+00
          2   -1    0    0  501    0  0.00000000000E+00  0.00000000000E+00  0.26154174587E+03  0.26154174589E+03  0.25500000000E-02 0.  1.
         -2   -1    0    0    0  501 -0.00000000000E+00 -0.00000000000E+00 -0.37301115628E+02  0.37301115715E+02  0.25500000000E-02 0. -1.
    5000001    1    1    2    0    0 -0.27316901916E+02 -0.53033729755E+02  0.13688634546E+03  0.16800494396E+03  0.77000000000E+02 0.  0.
   -5000001    1    1    2    0    0  0.27316901916E+02  0.53033729755E+02  0.87354284783E+02  0.13083791764E+03  0.77000000000E+02 0.  0.
<mgrwt>
<rscale>  0 0.19754290E+03</rscale>
<asrwt>0</asrwt>
<pdfrwt beam="1">  1        2 0.37363108E-01 0.19754290E+03</pdfrwt>
<pdfrwt beam="2">  1       -2 0.53287307E-02 0.19754290E+03</pdfrwt>
<totfact> 0.23550290E+04</totfact>
</mgrwt>
</event>
<event>
 4    1  0.4950349E-004  0.2924897E+03  0.7818608E-02  0.1089056E+00
         -2   -1    0    0    0  501 -0.00000000000E+00  0.00000000000E+00  0.16132963728E+02  0.16132963930E+02  0.25500000000E-02 0. -1.
          2   -1    0    0  501    0  0.00000000000E+00 -0.00000000000E+00 -0.13257054477E+04  0.13257054477E+04  0.25500000000E-02 0.  1.
    5000001    1    1    2    0    0  0.33907398240E+02 -0.74804815669E+02 -0.22655768797E+03  0.25298786153E+03  0.77000000000E+02 0.  0.
   -5000001    1    1    2    0    0 -0.33907398240E+02  0.74804815669E+02 -0.10830147960E+04  0.10888505501E+04  0.77000000000E+02 0.  0.
<mgrwt>
<rscale>  0 0.29248971E+03</rscale>
<asrwt>0</asrwt>
<pdfrwt beam="1">  1        2 0.18938642E+00 0.29248971E+03</pdfrwt>
<pdfrwt beam="2">  1       -2 0.23047100E-02 0.29248971E+03</pdfrwt>
<totfact> 0.12042773E+04</totfact>
</mgrwt>
</event>
<event>
 4    1  0.4950349E-004  0.1737040E+03  0.7818608E-02  0.1174039E+00
         -2   -1    0    0    0  501 -0.00000000000E+00  0.00000000000E+00  0.29226221475E+01  0.29226232599E+01  0.25500000000E-02 0. -1.
          2   -1    0    0  501    0  0.00000000000E+00 -0.00000000000E+00 -0.25809935635E+04  0.25809935635E+04  0.25500000000E-02 0.  1.
    5000001    1    1    2    0    0  0.15548837481E+02 -0.36992221127E+02 -0.12589900423E+04  0.12619806328E+04  0.77000000000E+02 0.  0.
   -5000001    1    1    2    0    0 -0.15548837481E+02  0.36992221127E+02 -0.13190808990E+04  0.13219355540E+04  0.77000000000E+02 0.  0.
<mgrwt>
<rscale>  0 0.17370401E+03</rscale>
<asrwt>0</asrwt>
<pdfrwt beam="1">  1        2 0.36871191E+00 0.17370401E+03</pdfrwt>
<pdfrwt beam="2">  1       -2 0.41751918E-03 0.17370401E+03</pdfrwt>
<totfact> 0.33727867E+04</totfact>
</mgrwt>
</event>
<event>
 4    1  0.4950349E-004  0.2837796E+03  0.7818608E-02  0.1093642E+00
         -2   -1    0    0    0  501 -0.00000000000E+00  0.00000000000E+00  0.58791634534E+02  0.58791634590E+02  0.25500000000E-02 0. -1.
          2   -1    0    0  501    0  0.00000000000E+00 -0.00000000000E+00 -0.34244186874E+03  0.34244186875E+03  0.25500000000E-02 0.  1.
    5000001    1    1    2    0    0 -0.23374090284E+01 -0.11775552034E+03 -0.11606701628E+03  0.18240717727E+03  0.77000000000E+02 0.  0.
   -5000001    1    1    2    0    0  0.23374090284E+01  0.11775552034E+03 -0.16758321793E+03  0.21882632607E+03  0.77000000000E+02 0.  0.
<mgrwt>
<rscale>  0 0.28377961E+03</rscale>
<asrwt>0</asrwt>
<pdfrwt beam="1">  1        2 0.48920266E-01 0.28377961E+03</pdfrwt>
<pdfrwt beam="2">  1       -2 0.83988051E-02 0.28377961E+03</pdfrwt>
<totfact> 0.89333067E+03</totfact>
</mgrwt>
</event>
<event>
 4    1  0.4950349E-004  0.2190627E+03  0.7818608E-02  0.1134584E+00
          2   -1    0    0  501    0  0.00000000000E+00  0.00000000000E+00  0.32505339235E+03  0.32505339236E+03  0.25500000000E-02 0.  1.
         -2   -1    0    0    0  501 -0.00000000000E+00 -0.00000000000E+00 -0.36908137302E+02  0.36908137390E+02  0.25500000000E-02 0. -1.
    5000001    1    1    2    0    0  0.15663856197E+02 -0.63978716658E+02  0.21278771632E+03  0.23568250845E+03  0.77000000000E+02 0.  0.
   -5000001    1    1    2    0    0 -0.15663856197E+02  0.63978716658E+02  0.75357538734E+02  0.12627902130E+03  0.77000000000E+02 0.  0.
<mgrwt>
<rscale>  0 0.21906269E+03</rscale>
<asrwt>0</asrwt>
<pdfrwt beam="1">  1        2 0.46436202E-01 0.21906269E+03</pdfrwt>
<pdfrwt beam="2">  1       -2 0.52725906E-02 0.21906269E+03</pdfrwt>
<totfact> 0.19101847E+04</totfact>
</mgrwt>
</event>
<event>
 4    1  0.4950349E-004  0.3414616E+03  0.7818608E-02  0.1066175E+00
         -2   -1    0    0    0  501 -0.00000000000E+00  0.00000000000E+00  0.29231678749E+02  0.29231678861E+02  0.25500000000E-02 0. -1.
          2   -1    0    0  501    0  0.00000000000E+00 -0.00000000000E+00 -0.99717207106E+03  0.99717207106E+03  0.25500000000E-02 0.  1.
    5000001    1    1    2    0    0 -0.11372221589E+03 -0.11143897847E+02 -0.18093778740E+03  0.22743001507E+03  0.77000000000E+02 0.  0.
   -5000001    1    1    2    0    0  0.11372221589E+03  0.11143897847E+02 -0.78700260491E+03  0.79897373485E+03  0.77000000000E+02 0.  0.
<mgrwt>
<rscale>  0 0.34146164E+03</rscale>
<asrwt>0</asrwt>
<pdfrwt beam="1">  1        2 0.14245313E+00 0.34146164E+03</pdfrwt>
<pdfrwt beam="2">  1       -2 0.41759547E-02 0.34146164E+03</pdfrwt>
<totfact> 0.75627924E+03</totfact>
</mgrwt>
</event>
<event>
 4    1  0.4950349E-004  0.1931828E+03  0.7818608E-02  0.1155622E+00
         -2   -1    0    0    0  501 -0.00000000000E+00  0.00000000000E+00  0.11758747534E+03  0.11758747536E+03  0.25500000000E-02 0. -1.
          2   -1    0    0  501    0  0.00000000000E+00 -0.00000000000E+00 -0.79344360424E+02  0.79344360465E+02  0.25500000000E-02 0.  1.
    5000001    1    1    2    0    0 -0.16156447963E+02  0.55530927937E+02  0.11480206055E+02  0.96982008122E+02  0.77000000000E+02 0.  0.
   -5000001    1    1    2    0    0  0.16156447963E+02 -0.55530927937E+02  0.26762908858E+02  0.99949827708E+02  0.77000000000E+02 0.  0.
<mgrwt>
<rscale>  0 0.19318285E+03</rscale>
<asrwt>0</asrwt>
<pdfrwt beam="1">  1        2 0.11334909E-01 0.19318285E+03</pdfrwt>
<pdfrwt beam="2">  1       -2 0.16798211E-01 0.19318285E+03</pdfrwt>
<totfact> 0.14915410E+04</totfact>
</mgrwt>
</event>
<event>
 4    1  0.4950349E-004  0.2418423E+03  0.7818608E-02  0.1118572E+00
         -2   -1    0    0    0  501 -0.00000000000E+00  0.00000000000E+00  0.13756222336E+02  0.13756222572E+02  0.25500000000E-02 0. -1.
          2   -1    0    0  501    0  0.00000000000E+00 -0.00000000000E+00 -0.10629318864E+04  0.10629318864E+04  0.25500000000E-02 0.  1.
    5000001    1    1    2    0    0  0.62532987702E+02 -0.18357809963E+02 -0.82142621176E+03  0.82759736895E+03  0.77000000000E+02 0.  0.
   -5000001    1    1    2    0    0 -0.62532987702E+02  0.18357809963E+02 -0.22774945230E+03  0.24909074001E+03  0.77000000000E+02 0.  0.
<mgrwt>
<rscale>  0 0.24184232E+03</rscale>
<asrwt>0</asrwt>
<pdfrwt beam="1">  1        2 0.15184736E+00 0.24184232E+03</pdfrwt>
<pdfrwt beam="2">  1       -2 0.19651753E-02 0.24184232E+03</pdfrwt>
<totfact> 0.21017689E+04</totfact>
</mgrwt>
</event>
<event>
 4    1  0.4950349E-004  0.1717012E+03  0.7818608E-02  0.1176085E+00
         -2   -1    0    0    0  501 -0.00000000000E+00  0.00000000000E+00  0.30912513304E+03  0.30912513305E+03  0.25500000000E-02 0. -1.
          2   -1    0    0  501    0  0.00000000000E+00 -0.00000000000E+00 -0.23842540116E+02  0.23842540252E+02  0.25500000000E-02 0.  1.
    5000001    1    1    2    0    0 -0.17352633750E+02  0.17698068358E+02  0.86874006119E+02  0.11870311058E+03  0.77000000000E+02 0.  0.
   -5000001    1    1    2    0    0  0.17352633750E+02 -0.17698068358E+02  0.19840858681E+03  0.21426456273E+03  0.77000000000E+02 0.  0.
<mgrwt>
<rscale>  0 0.17170123E+03</rscale>
<asrwt>0</asrwt>
<pdfrwt beam="1">  1        2 0.34060774E-02 0.17170123E+03</pdfrwt>
<pdfrwt beam="2">  1       -2 0.44160731E-01 0.17170123E+03</pdfrwt>
<totfact> 0.12370891E+04</totfact>
</mgrwt>
</event>
<event>
 4    1  0.4950349E-004  0.2129484E+03  0.7818608E-02  0.1139252E+00
          2   -1    0    0  501    0  0.00000000000E+00  0.00000000000E+00  0.29795049671E+04  0.29795049671E+04  0.25500000000E-02 0.  1.
         -2   -1    0    0    0  501 -0.00000000000E+00 -0.00000000000E+00 -0.38049115845E+01  0.38049124389E+01  0.25500000000E-02 0. -1.
    5000001    1    1    2    0    0 -0.45975835137E+02  0.75831370597E+01  0.22848530884E+04  0.22866250058E+04  0.77000000000E+02 0.  0.
   -5000001    1    1    2    0    0  0.45975835137E+02 -0.75831370597E+01  0.69084696707E+03  0.69668487374E+03  0.77000000000E+02 0.  0.
<mgrwt>
<rscale>  0 0.21294839E+03</rscale>
<asrwt>0</asrwt>
<pdfrwt beam="1">  1        2 0.42564350E+00 0.21294839E+03</pdfrwt>
<pdfrwt beam="2">  1       -2 0.54355895E-03 0.21294839E+03</pdfrwt>
<totfact> 0.14612517E+04</totfact>
</mgrwt>
</event>
<event>
 4    1  0.4950349E-004  0.3567729E+03  0.7818608E-02  0.1059869E+00
         -2   -1    0    0    0  501 -0.00000000000E+00  0.00000000000E+00  0.16482646859E+02  0.16482647057E+02  0.25500000000E-02 0. -1.
          2   -1    0    0  501    0  0.00000000000E+00 -0.00000000000E+00 -0.19306196862E+04  0.19306196862E+04  0.25500000000E-02 0.  1.
    5000001    1    1    2    0    0  0.70944794835E+02 -0.14160245337E+03 -0.80190690226E+03  0.82101650325E+03  0.77000000000E+02 0.  0.
   -5000001    1    1    2    0    0 -0.70944794835E+02  0.14160245337E+03 -0.11122301370E+04  0.11260858300E+04  0.77000000000E+02 0.  0.
<mgrwt>
<rscale>  0 0.35677288E+03</rscale>
<asrwt>0</asrwt>
<pdfrwt beam="1">  1        2 0.27580267E+00 0.35677288E+03</pdfrwt>
<pdfrwt beam="2">  1       -2 0.23546651E-02 0.35677288E+03</pdfrwt>
<totfact> 0.58077584E+03</totfact>
</mgrwt>
</event>
<event>
 4    1  0.4950349E-004  0.1921637E+03  0.7818608E-02  0.1156524E+00
          2   -1    0    0  501    0  0.00000000000E+00  0.00000000000E+00  0.43954226333E+03  0.43954226333E+03  0.25500000000E-02 0.  1.
         -2   -1    0    0    0  501 -0.00000000000E+00 -0.00000000000E+00 -0.21003041414E+02  0.21003041569E+02  0.25500000000E-02 0. -1.
    5000001    1    1    2    0    0  0.32837013852E+02  0.70275305365E+01  0.32104274821E+03  0.33185102357E+03  0.77000000000E+02 0.  0.
   -5000001    1    1    2    0    0 -0.32837013852E+02 -0.70275305365E+01  0.97496473701E+02  0.12869428133E+03  0.77000000000E+02 0.  0.
<mgrwt>
<rscale>  0 0.19216373E+03</rscale>
<asrwt>0</asrwt>
<pdfrwt beam="1">  1        2 0.62791749E-01 0.19216373E+03</pdfrwt>
<pdfrwt beam="2">  1       -2 0.30004346E-02 0.19216373E+03</pdfrwt>
<totfact> 0.31819345E+04</totfact>
</mgrwt>
</event>
<event>
 4    1  0.4950349E-004  0.3207565E+03  0.7818608E-02  0.1075302E+00
          2   -1    0    0  501    0  0.00000000000E+00  0.00000000000E+00  0.20251600528E+04  0.20251600528E+04  0.25500000000E-02 0.  1.
         -2   -1    0    0    0  501 -0.00000000000E+00 -0.00000000000E+00 -0.12700818709E+02  0.12700818965E+02  0.25500000000E-02 0. -1.
    5000001    1    1    2    0    0 -0.12132687412E+03  0.70605508703E+02  0.10654356110E+04  0.10773984357E+04  0.77000000000E+02 0.  0.
   -5000001    1    1    2    0    0  0.12132687412E+03 -0.70605508703E+02  0.94702362313E+03  0.96046243602E+03  0.77000000000E+02 0.  0.
<mgrwt>
<rscale>  0 0.32075655E+03</rscale>
<asrwt>0</asrwt>
<pdfrwt beam="1">  1        2 0.28930843E+00 0.32075655E+03</pdfrwt>
<pdfrwt beam="2">  1       -2 0.18144036E-02 0.32075655E+03</pdfrwt>
<totfact> 0.76749407E+03</totfact>
</mgrwt>
</event>
<event>
 4    1  0.4950349E-004  0.2358321E+03  0.7818608E-02  0.1122601E+00
          2   -1    0    0  501    0  0.00000000000E+00  0.00000000000E+00  0.13405779504E+04  0.13405779504E+04  0.25500000000E-02 0.  1.
         -2   -1    0    0    0  501 -0.00000000000E+00 -0.00000000000E+00 -0.10371789013E+02  0.10371789327E+02  0.25500000000E-02 0. -1.
    5000001    1    1    2    0    0 -0.66549074893E+02 -0.34691590771E+02  0.94238002252E+03  0.94849427657E+03  0.77000000000E+02 0.  0.
   -5000001    1    1    2    0    0  0.66549074893E+02  0.34691590771E+02  0.38782613886E+03  0.40245546315E+03  0.77000000000E+02 0.  0.
<mgrwt>
<rscale>  0 0.23583207E+03</rscale>
<asrwt>0</asrwt>
<pdfrwt beam="1">  1        2 0.19151119E+00 0.23583207E+03</pdfrwt>
<pdfrwt beam="2">  1       -2 0.14816838E-02 0.23583207E+03</pdfrwt>
<totfact> 0.22440658E+04</totfact>
</mgrwt>
</event>
<event>
 4    1  0.4950349E-004  0.3937527E+03  0.7818608E-02  0.1045965E+00
          2   -1    0    0  501    0  0.00000000000E+00  0.00000000000E+00  0.87351658987E+03  0.87351658987E+03  0.25500000000E-02 0.  1.
         -2   -1    0    0    0  501 -0.00000000000E+00 -0.00000000000E+00 -0.44372703146E+02  0.44372703220E+02  0.25500000000E-02 0. -1.
    5000001    1    1    2    0    0 -0.13037351978E+03  0.35060015766E+02  0.69629025951E+03  0.71342524826E+03  0.77000000000E+02 0.  0.
   -5000001    1    1    2    0    0  0.13037351978E+03 -0.35060015766E+02  0.13285362722E+03  0.20446404484E+03  0.77000000000E+02 0.  0.
<mgrwt>
<rscale>  0 0.39375268E+03</rscale>
<asrwt>0</asrwt>
<pdfrwt beam="1">  1        2 0.12478807E+00 0.39375268E+03</pdfrwt>
<pdfrwt beam="2">  1       -2 0.63389581E-02 0.39375268E+03</pdfrwt>
<totfact> 0.47685652E+03</totfact>
</mgrwt>
</event>
<event>
 4    1  0.4950349E-004  0.2069392E+03  0.7818608E-02  0.1144013E+00
          2   -1    0    0  501    0  0.00000000000E+00  0.00000000000E+00  0.59633417455E+03  0.59633417456E+03  0.25500000000E-02 0.  1.
         -2   -1    0    0    0  501 -0.00000000000E+00 -0.00000000000E+00 -0.17952954566E+02  0.17952954747E+02  0.25500000000E-02 0. -1.
    5000001    1    1    2    0    0 -0.61503353630E+02 -0.31104917508E+02  0.30455269244E+03  0.32160771270E+03  0.77000000000E+02 0.  0.
   -5000001    1    1    2    0    0  0.61503353630E+02  0.31104917508E+02  0.27382852755E+03  0.29267941660E+03  0.77000000000E+02 0.  0.
<mgrwt>
<rscale>  0 0.20693922E+03</rscale>
<asrwt>0</asrwt>
<pdfrwt beam="1">  1        2 0.85190608E-01 0.20693922E+03</pdfrwt>
<pdfrwt beam="2">  1       -2 0.25647075E-02 0.20693922E+03</pdfrwt>
<totfact> 0.28818720E+04</totfact>
</mgrwt>
</event>
<event>
 4    1  0.4950349E-004  0.2047593E+03  0.7818608E-02  0.1145785E+00
          2   -1    0    0  501    0  0.00000000000E+00  0.00000000000E+00  0.63451970356E+03  0.63451970357E+03  0.25500000000E-02 0.  1.
         -2   -1    0    0    0  501 -0.00000000000E+00 -0.00000000000E+00 -0.16518945385E+02  0.16518945582E+02  0.25500000000E-02 0. -1.
    5000001    1    1    2    0    0 -0.67462399412E+02 -0.77680115101E+00  0.30612533734E+03  0.32279018095E+03  0.77000000000E+02 0.  0.
   -5000001    1    1    2    0    0  0.67462399412E+02  0.77680115101E+00  0.31187542084E+03  0.32824846820E+03  0.77000000000E+02 0.  0.
<mgrwt>
<rscale>  0 0.20475934E+03</rscale>
<asrwt>0</asrwt>
<pdfrwt beam="1">  1        2 0.90645671E-01 0.20475934E+03</pdfrwt>
<pdfrwt beam="2">  1       -2 0.23598494E-02 0.20475934E+03</pdfrwt>
<totfact> 0.30326147E+04</totfact>
</mgrwt>
</event>
<event>
 4    1  0.4950349E-004  0.6351279E+03  0.7818608E-02  0.9835093E-01
         -2   -1    0    0    0  501 -0.00000000000E+00  0.00000000000E+00  0.33450142597E+03  0.33450142598E+03  0.25500000000E-02 0.  1.
          2   -1    0    0  501    0  0.00000000000E+00 -0.00000000000E+00 -0.30148407818E+03  0.30148407819E+03  0.25500000000E-02 0. -1.
    5000001    1    1    2    0    0 -0.13492948256E+03  0.27523075901E+03 -0.14515707660E+02  0.31638211349E+03  0.77000000000E+02 0.  0.
   -5000001    1    1    2    0    0  0.13492948256E+03 -0.27523075901E+03  0.47533055450E+02  0.31960339067E+03  0.77000000000E+02 0.  0.
<mgrwt>
<rscale>  0 0.63512787E+03</rscale>
<asrwt>0</asrwt>
<pdfrwt beam="1">  1        2 0.43069154E-01 0.63512787E+03</pdfrwt>
<pdfrwt beam="2">  1       -2 0.47785918E-01 0.63512787E+03</pdfrwt>
<totfact> 0.49598130E+02</totfact>
</mgrwt>
</event>
<event>
 4    1  0.4950349E-004  0.2802479E+03  0.7818608E-02  0.1095554E+00
          2   -1    0    0  501    0  0.00000000000E+00  0.00000000000E+00  0.15392155116E+03  0.15392155119E+03  0.25500000000E-02 0.  1.
         -2   -1    0    0    0  501 -0.00000000000E+00 -0.00000000000E+00 -0.12756319829E+03  0.12756319832E+03  0.25500000000E-02 0. -1.
    5000001    1    1    2    0    0 -0.10672168618E+03 -0.24734574008E+02  0.54645852979E+02  0.14462533216E+03  0.77000000000E+02 0.  0.
   -5000001    1    1    2    0    0  0.10672168618E+03  0.24734574008E+02 -0.28287500105E+02  0.13685941734E+03  0.77000000000E+02 0.  0.
<mgrwt>
<rscale>  0 0.28024793E+03</rscale>
<asrwt>0</asrwt>
<pdfrwt beam="1">  1        2 0.21988793E-01 0.28024793E+03</pdfrwt>
<pdfrwt beam="2">  1       -2 0.18223314E-01 0.28024793E+03</pdfrwt>
<totfact> 0.60971263E+03</totfact>
</mgrwt>
</event>
<event>
 4    1  0.4950349E-004  0.2261188E+03  0.7818608E-02  0.1129402E+00
         -2   -1    0    0    0  501 -0.00000000000E+00  0.00000000000E+00  0.13115991974E+02  0.13115992222E+02  0.25500000000E-02 0. -1.
          2   -1    0    0  501    0  0.00000000000E+00 -0.00000000000E+00 -0.97456780151E+03  0.97456780151E+03  0.25500000000E-02 0.  1.
    5000001    1    1    2    0    0  0.56079608593E+02 -0.16255353341E+02 -0.22437811228E+03  0.24430246884E+03  0.77000000000E+02 0.  0.
   -5000001    1    1    2    0    0 -0.56079608593E+02  0.16255353341E+02 -0.73707369726E+03  0.74338132489E+03  0.77000000000E+02 0.  0.
<mgrwt>
<rscale>  0 0.22611876E+03</rscale>
<asrwt>0</asrwt>
<pdfrwt beam="1">  1        2 0.13922393E+00 0.22611876E+03</pdfrwt>
<pdfrwt beam="2">  1       -2 0.18737138E-02 0.22611876E+03</pdfrwt>
<totfact> 0.25276402E+04</totfact>
</mgrwt>
</event>
<event>
 4    1  0.4950349E-004  0.3596019E+03  0.7818608E-02  0.1058742E+00
          2   -1    0    0  501    0  0.00000000000E+00  0.00000000000E+00  0.34854972998E+04  0.34854972998E+04  0.25500000000E-02 0.  1.
         -2   -1    0    0    0  501 -0.00000000000E+00 -0.00000000000E+00 -0.92751123569E+01  0.92751127074E+01  0.25500000000E-02 0. -1.
    5000001    1    1    2    0    0 -0.67542086445E+02 -0.57684911586E+01  0.30306212381E+03  0.31995446522E+03  0.77000000000E+02 0.  0.
   -5000001    1    1    2    0    0  0.67542086445E+02  0.57684911586E+01  0.31731600636E+04  0.31748179473E+04  0.77000000000E+02 0.  0.
<mgrwt>
<rscale>  0 0.35960189E+03</rscale>
<asrwt>0</asrwt>
<pdfrwt beam="1">  1        2 0.49792819E+00 0.35960189E+03</pdfrwt>
<pdfrwt beam="2">  1       -2 0.13250161E-02 0.35960189E+03</pdfrwt>
<totfact> 0.20954424E+03</totfact>
</mgrwt>
</event>
<event>
 4    1  0.4950349E-004  0.1811512E+03  0.7818608E-02  0.1166694E+00
          2   -1    0    0  501    0  0.00000000000E+00  0.00000000000E+00  0.61413391291E+02  0.61413391344E+02  0.25500000000E-02 0.  1.
         -2   -1    0    0    0  501 -0.00000000000E+00 -0.00000000000E+00 -0.13358556996E+03  0.13358556998E+03  0.25500000000E-02 0. -1.
    5000001    1    1    2    0    0 -0.33378678925E+02  0.19480325010E+02 -0.59971787174E+01  0.86363102201E+02  0.77000000000E+02 0.  0.
   -5000001    1    1    2    0    0  0.33378678925E+02 -0.19480325010E+02 -0.66174999947E+02  0.10863585912E+03  0.77000000000E+02 0.  0.
<mgrwt>
<rscale>  0 0.18115124E+03</rscale>
<asrwt>0</asrwt>
<pdfrwt beam="1">  1        2 0.87733417E-02 0.18115124E+03</pdfrwt>
<pdfrwt beam="2">  1       -2 0.19083653E-01 0.18115124E+03</pdfrwt>
<totfact> 0.16438592E+04</totfact>
</mgrwt>
</event>
<event>
 4    1  0.4950349E-004  0.2027131E+03  0.7818608E-02  0.1147470E+00
         -2   -1    0    0    0  501 -0.00000000000E+00  0.00000000000E+00  0.25740574742E+02  0.25740574869E+02  0.25500000000E-02 0. -1.
          2   -1    0    0  501    0  0.00000000000E+00 -0.00000000000E+00 -0.39910325958E+03  0.39910325959E+03  0.25500000000E-02 0.  1.
    5000001    1    1    2    0    0 -0.35617645583E+02 -0.12002983439E+01 -0.30288126796E+03  0.31454112589E+03  0.77000000000E+02 0.  0.
   -5000001    1    1    2    0    0  0.35617645583E+02  0.12002983439E+01 -0.70481416880E+02  0.11030270857E+03  0.77000000000E+02 0.  0.
<mgrwt>
<rscale>  0 0.20271307E+03</rscale>
<asrwt>0</asrwt>
<pdfrwt beam="1">  1        2 0.57014747E-01 0.20271307E+03</pdfrwt>
<pdfrwt beam="2">  1       -2 0.36772252E-02 0.20271307E+03</pdfrwt>
<totfact> 0.26210883E+04</totfact>
</mgrwt>
</event>
<event>
 4    1  0.4950349E-004  0.2106689E+03  0.7818608E-02  0.1141037E+00
          2   -1    0    0  501    0  0.00000000000E+00  0.00000000000E+00  0.47374494172E+03  0.47374494173E+03  0.25500000000E-02 0.  1.
         -2   -1    0    0    0  501 -0.00000000000E+00 -0.00000000000E+00 -0.23420513524E+02  0.23420513662E+02  0.25500000000E-02 0. -1.
    5000001    1    1    2    0    0  0.68563819155E+02  0.21250333109E+01  0.17450118368E+03  0.20269478575E+03  0.77000000000E+02 0.  0.
   -5000001    1    1    2    0    0 -0.68563819155E+02 -0.21250333109E+01  0.27582324452E+03  0.29447066964E+03  0.77000000000E+02 0.  0.
<mgrwt>
<rscale>  0 0.21066893E+03</rscale>
<asrwt>0</asrwt>
<pdfrwt beam="1">  1        2 0.67677847E-01 0.21066893E+03</pdfrwt>
<pdfrwt beam="2">  1       -2 0.33457878E-02 0.21066893E+03</pdfrwt>
<totfact> 0.25135409E+04</totfact>
</mgrwt>
</event>
<event>
 4    1  0.4950349E-004  0.2070493E+03  0.7818608E-02  0.1143924E+00
          2   -1    0    0  501    0  0.00000000000E+00  0.00000000000E+00  0.26858087340E+02  0.26858087461E+02  0.25500000000E-02 0.  1.
         -2   -1    0    0    0  501 -0.00000000000E+00 -0.00000000000E+00 -0.39903646125E+03  0.39903646126E+03  0.25500000000E-02 0. -1.
    5000001    1    1    2    0    0 -0.62327802074E+02  0.21340756015E+02 -0.14254288485E+03  0.17489327260E+03  0.77000000000E+02 0.  0.
   -5000001    1    1    2    0    0  0.62327802074E+02 -0.21340756015E+02 -0.22963548906E+03  0.25100127612E+03  0.77000000000E+02 0.  0.
<mgrwt>
<rscale>  0 0.20704933E+03</rscale>
<asrwt>0</asrwt>
<pdfrwt beam="1">  1        2 0.38368699E-02 0.20704933E+03</pdfrwt>
<pdfrwt beam="2">  1       -2 0.57005205E-01 0.20704933E+03</pdfrwt>
<totfact> 0.64399254E+03</totfact>
</mgrwt>
</event>
<event>
 4    1  0.4950349E-004  0.5740734E+03  0.7818608E-02  0.9960705E-01
          2   -1    0    0  501    0  0.00000000000E+00  0.00000000000E+00  0.13398923617E+03  0.13398923620E+03  0.25500000000E-02 0.  1.
         -2   -1    0    0    0  501 -0.00000000000E+00 -0.00000000000E+00 -0.61490071779E+03  0.61490071779E+03  0.25500000000E-02 0. -1.
    5000001    1    1    2    0    0  0.25990084834E+03 -0.64100886244E+02 -0.15004112859E+03  0.31638380941E+03  0.77000000000E+02 0.  0.
   -5000001    1    1    2    0    0 -0.25990084834E+03  0.64100886244E+02 -0.33087035303E+03  0.43250614458E+03  0.77000000000E+02 0.  0.
<mgrwt>
<rscale>  0 0.57407344E+03</rscale>
<asrwt>0</asrwt>
<pdfrwt beam="1">  1        2 0.19141320E-01 0.57407344E+03</pdfrwt>
<pdfrwt beam="2">  1       -2 0.87842958E-01 0.57407344E+03</pdfrwt>
<totfact> 0.33800639E+02</totfact>
</mgrwt>
</event>
<event>
 4    1  0.4950349E-004  0.3662909E+03  0.7818608E-02  0.1056120E+00
          2   -1    0    0  501    0  0.00000000000E+00  0.00000000000E+00  0.28652982739E+03  0.28652982741E+03  0.25500000000E-02 0.  1.
         -2   -1    0    0    0  501 -0.00000000000E+00 -0.00000000000E+00 -0.11706372789E+03  0.11706372792E+03  0.25500000000E-02 0. -1.
    5000001    1    1    2    0    0 -0.16506582328E+03  0.11052625689E+02  0.67508969578E+02  0.19456450736E+03  0.77000000000E+02 0.  0.
   -5000001    1    1    2    0    0  0.16506582328E+03 -0.11052625689E+02  0.10195712993E+03  0.20902904796E+03  0.77000000000E+02 0.  0.
<mgrwt>
<rscale>  0 0.36629087E+03</rscale>
<asrwt>0</asrwt>
<pdfrwt beam="1">  1        2 0.40932832E-01 0.36629087E+03</pdfrwt>
<pdfrwt beam="2">  1       -2 0.16723390E-01 0.36629087E+03</pdfrwt>
<totfact> 0.35726844E+03</totfact>
</mgrwt>
</event>
<event>
 4    1  0.4950349E-004  0.2452510E+03  0.7818608E-02  0.1116343E+00
         -2   -1    0    0    0  501 -0.00000000000E+00  0.00000000000E+00  0.45755079988E+01  0.45755087094E+01  0.25500000000E-02 0. -1.
          2   -1    0    0  501    0  0.00000000000E+00 -0.00000000000E+00 -0.32864134898E+04  0.32864134898E+04  0.25500000000E-02 0.  1.
    5000001    1    1    2    0    0 -0.57027826015E+02  0.69625147771E+02 -0.20669922868E+04  0.20703830437E+04  0.77000000000E+02 0.  0.
   -5000001    1    1    2    0    0  0.57027826015E+02 -0.69625147771E+02 -0.12148456950E+04  0.12206059548E+04  0.77000000000E+02 0.  0.
<mgrwt>
<rscale>  0 0.24525099E+03</rscale>
<asrwt>0</asrwt>
<pdfrwt beam="1">  1        2 0.46948613E+00 0.24525099E+03</pdfrwt>
<pdfrwt beam="2">  1       -2 0.65364616E-03 0.24525099E+03</pdfrwt>
<totfact> 0.76691067E+03</totfact>
</mgrwt>
</event>
<event>
 4    1  0.4950349E-004  0.3178701E+03  0.7818608E-02  0.1076634E+00
         -2   -1    0    0    0  501 -0.00000000000E+00  0.00000000000E+00  0.83071292212E+01  0.83071296126E+01  0.25500000000E-02 0. -1.
          2   -1    0    0  501    0  0.00000000000E+00 -0.00000000000E+00 -0.30408032161E+04  0.30408032161E+04  0.25500000000E-02 0.  1.
    5000001    1    1    2    0    0 -0.60153466828E+01 -0.82429695984E+02 -0.25887233657E+04  0.25911866979E+04  0.77000000000E+02 0.  0.
   -5000001    1    1    2    0    0  0.60153466828E+01  0.82429695984E+02 -0.44377272109E+03  0.45792364774E+03  0.77000000000E+02 0.  0.
<mgrwt>
<rscale>  0 0.31787007E+03</rscale>
<asrwt>0</asrwt>
<pdfrwt beam="1">  1        2 0.43439975E+00 0.31787007E+03</pdfrwt>
<pdfrwt beam="2">  1       -2 0.11867347E-02 0.31787007E+03</pdfrwt>
<totfact> 0.43781094E+03</totfact>
</mgrwt>
</event>
<event>
 4    1  0.4950349E-004  0.3016182E+03  0.7818608E-02  0.1084434E+00
         -2   -1    0    0    0  501 -0.00000000000E+00  0.00000000000E+00  0.39226175212E+02  0.39226175295E+02  0.25500000000E-02 0. -1.
          2   -1    0    0  501    0  0.00000000000E+00 -0.00000000000E+00 -0.57980121971E+03  0.57980121971E+03  0.25500000000E-02 0.  1.
    5000001    1    1    2    0    0 -0.66951265410E+02  0.23866458932E+02 -0.49287387702E+03  0.50389060167E+03  0.77000000000E+02 0.  0.
   -5000001    1    1    2    0    0  0.66951265410E+02 -0.23866458932E+02 -0.47701167476E+02  0.11513679334E+03  0.77000000000E+02 0.  0.
<mgrwt>
<rscale>  0 0.30161820E+03</rscale>
<asrwt>0</asrwt>
<pdfrwt beam="1">  1        2 0.82828741E-01 0.30161820E+03</pdfrwt>
<pdfrwt beam="2">  1       -2 0.56037397E-02 0.30161820E+03</pdfrwt>
<totfact> 0.94006624E+03</totfact>
</mgrwt>
</event>
<event>
 4    1  0.4950349E-004  0.2137475E+03  0.7818608E-02  0.1138632E+00
          2   -1    0    0  501    0  0.00000000000E+00  0.00000000000E+00  0.23493688990E+04  0.23493688990E+04  0.25500000000E-02 0.  1.
         -2   -1    0    0    0  501 -0.00000000000E+00 -0.00000000000E+00 -0.48617314416E+01  0.48617321103E+01  0.25500000000E-02 0. -1.
    5000001    1    1    2    0    0 -0.43577313724E+02  0.55873672216E+02  0.93292818961E+03  0.93877838518E+03  0.77000000000E+02 0.  0.
   -5000001    1    1    2    0    0  0.43577313724E+02 -0.55873672216E+02  0.14115789780E+04  0.14154522460E+04  0.77000000000E+02 0.  0.
<mgrwt>
<rscale>  0 0.21374753E+03</rscale>
<asrwt>0</asrwt>
<pdfrwt beam="1">  1        2 0.33562455E+00 0.21374753E+03</pdfrwt>
<pdfrwt beam="2">  1       -2 0.69453223E-03 0.21374753E+03</pdfrwt>
<totfact> 0.21364046E+04</totfact>
</mgrwt>
</event>
<event>
 4    1  0.4950349E-004  0.1941043E+03  0.7818608E-02  0.1154811E+00
          2   -1    0    0  501    0  0.00000000000E+00  0.00000000000E+00  0.10638908665E+03  0.10638908668E+03  0.25500000000E-02 0.  1.
         -2   -1    0    0    0  501 -0.00000000000E+00 -0.00000000000E+00 -0.88534680826E+02  0.88534680862E+02  0.25500000000E-02 0. -1.
    5000001    1    1    2    0    0  0.44847096021E+02  0.36944206250E+02 -0.17943587399E+01  0.96479822348E+02  0.77000000000E+02 0.  0.
   -5000001    1    1    2    0    0 -0.44847096021E+02 -0.36944206250E+02  0.19648764566E+02  0.98443945197E+02  0.77000000000E+02 0.  0.
<mgrwt>
<rscale>  0 0.19410434E+03</rscale>
<asrwt>0</asrwt>
<pdfrwt beam="1">  1        2 0.15198441E-01 0.19410434E+03</pdfrwt>
<pdfrwt beam="2">  1       -2 0.12647812E-01 0.19410434E+03</pdfrwt>
<totfact> 0.16719413E+04</totfact>
</mgrwt>
</event>
<event>
 4    1  0.4950349E-004  0.2275201E+03  0.7818608E-02  0.1128397E+00
         -2   -1    0    0    0  501 -0.00000000000E+00  0.00000000000E+00  0.16985021261E+02  0.16985021453E+02  0.25500000000E-02 0. -1.
          2   -1    0    0  501    0  0.00000000000E+00 -0.00000000000E+00 -0.76192740623E+03  0.76192740623E+03  0.25500000000E-02 0.  1.
    5000001    1    1    2    0    0  0.61676521369E+02  0.31929452267E+02 -0.21230207538E+03  0.23627241570E+03  0.77000000000E+02 0.  0.
   -5000001    1    1    2    0    0 -0.61676521369E+02 -0.31929452267E+02 -0.53264030958E+03  0.54264001198E+03  0.77000000000E+02 0.  0.
<mgrwt>
<rscale>  0 0.22752014E+03</rscale>
<asrwt>0</asrwt>
<pdfrwt beam="1">  1        2 0.10884675E+00 0.22752014E+03</pdfrwt>
<pdfrwt beam="2">  1       -2 0.24264321E-02 0.22752014E+03</pdfrwt>
<totfact> 0.23637955E+04</totfact>
</mgrwt>
</event>
<event>
 4    1  0.4950349E-004  0.3186621E+03  0.7818608E-02  0.1076267E+00
         -2   -1    0    0    0  501 -0.00000000000E+00  0.00000000000E+00  0.36658377699E+02  0.36658377787E+02  0.25500000000E-02 0. -1.
          2   -1    0    0  501    0  0.00000000000E+00 -0.00000000000E+00 -0.69251258376E+03  0.69251258377E+03  0.25500000000E-02 0.  1.
    5000001    1    1    2    0    0 -0.91203181644E+02  0.91339291720E+02 -0.44893297045E+03  0.47342443802E+03  0.77000000000E+02 0.  0.
   -5000001    1    1    2    0    0  0.91203181644E+02 -0.91339291720E+02 -0.20692123561E+03  0.25574652354E+03  0.77000000000E+02 0.  0.
<mgrwt>
<rscale>  0 0.31866213E+03</rscale>
<asrwt>0</asrwt>
<pdfrwt beam="1">  1        2 0.98930362E-01 0.31866213E+03</pdfrwt>
<pdfrwt beam="2">  1       -2 0.52369115E-02 0.31866213E+03</pdfrwt>
<totfact> 0.84972718E+03</totfact>
</mgrwt>
</event>
<event>
 4    1  0.4950349E-004  0.1829199E+03  0.7818608E-02  0.1165007E+00
          2   -1    0    0  501    0  0.00000000000E+00  0.00000000000E+00  0.23512311100E+03  0.23512311102E+03  0.25500000000E-02 0.  1.
         -2   -1    0    0    0  501 -0.00000000000E+00 -0.00000000000E+00 -0.35576790686E+02  0.35576790777E+02  0.25500000000E-02 0. -1.
    5000001    1    1    2    0    0 -0.80020347471E+01  0.48016607635E+02  0.11182293900E+03  0.14423244037E+03  0.77000000000E+02 0.  0.
   -5000001    1    1    2    0    0  0.80020347471E+01 -0.48016607635E+02  0.87723381312E+02  0.12646746142E+03  0.77000000000E+02 0.  0.
<mgrwt>
<rscale>  0 0.18291994E+03</rscale>
<asrwt>0</asrwt>
<pdfrwt beam="1">  1        2 0.33589016E-01 0.18291994E+03</pdfrwt>
<pdfrwt beam="2">  1       -2 0.50823987E-02 0.18291994E+03</pdfrwt>
<totfact> 0.28193929E+04</totfact>
</mgrwt>
</event>
<event>
 4    1  0.4950349E-004  0.2636774E+03  0.7818608E-02  0.1104954E+00
         -2   -1    0    0    0  501 -0.00000000000E+00  0.00000000000E+00  0.86544151502E+01  0.86544155259E+01  0.25500000000E-02 0.  1.
          2   -1    0    0  501    0  0.00000000000E+00 -0.00000000000E+00 -0.20083906863E+04  0.20083906863E+04  0.25500000000E-02 0. -1.
    5000001    1    1    2    0    0  0.81691471833E+01 -0.99615201144E+02 -0.70732215662E+03  0.71848699119E+03  0.77000000000E+02 0.  0.
   -5000001    1    1    2    0    0 -0.81691471833E+01  0.99615201144E+02 -0.12924141145E+04  0.12985581106E+04  0.77000000000E+02 0.  0.
<mgrwt>
<rscale>  0 0.26367743E+03</rscale>
<asrwt>0</asrwt>
<pdfrwt beam="1">  1        2 0.28691266E+00 0.26367743E+03</pdfrwt>
<pdfrwt beam="2">  1       -2 0.12363463E-02 0.26367743E+03</pdfrwt>
<totfact> 0.13680982E+04</totfact>
</mgrwt>
</event>
<event>
 4    1  0.4950349E-004  0.1629315E+03  0.7818608E-02  0.1185426E+00
          2   -1    0    0  501    0  0.00000000000E+00  0.00000000000E+00  0.13933457335E+04  0.13933457335E+04  0.25500000000E-02 0.  1.
         -2   -1    0    0    0  501 -0.00000000000E+00 -0.00000000000E+00 -0.47631158925E+01  0.47631165751E+01  0.25500000000E-02 0. -1.
    5000001    1    1    2    0    0  0.82003673595E+01 -0.24892297007E+02  0.73342200885E+03  0.73791850196E+03  0.77000000000E+02 0.  0.
   -5000001    1    1    2    0    0 -0.82003673595E+01  0.24892297007E+02  0.65516060881E+03  0.66019034816E+03  0.77000000000E+02 0.  0.
<mgrwt>
<rscale>  0 0.16293149E+03</rscale>
<asrwt>0</asrwt>
<pdfrwt beam="1">  1        2 0.19904952E+00 0.16293149E+03</pdfrwt>
<pdfrwt beam="2">  1       -2 0.68044474E-03 0.16293149E+03</pdfrwt>
<totfact> 0.63158088E+04</totfact>
</mgrwt>
</event>
<event>
 4    1  0.4950349E-004  0.2026264E+03  0.7818608E-02  0.1147542E+00
          2   -1    0    0  501    0  0.00000000000E+00  0.00000000000E+00  0.18862591060E+03  0.18862591061E+03  0.25500000000E-02 0.  1.
         -2   -1    0    0    0  501 -0.00000000000E+00 -0.00000000000E+00 -0.54416490305E+02  0.54416490364E+02  0.25500000000E-02 0. -1.
    5000001    1    1    2    0    0 -0.22670398633E+02 -0.61204459698E+02  0.77521887492E+02  0.12727362610E+03  0.77000000000E+02 0.  0.
   -5000001    1    1    2    0    0  0.22670398633E+02  0.61204459698E+02  0.56687532801E+02  0.11576877488E+03  0.77000000000E+02 0.  0.
<mgrwt>
<rscale>  0 0.20262636E+03</rscale>
<asrwt>0</asrwt>
<pdfrwt beam="1">  1        2 0.26946559E-01 0.20262636E+03</pdfrwt>
<pdfrwt beam="2">  1       -2 0.77737842E-02 0.20262636E+03</pdfrwt>
<totfact> 0.18867938E+04</totfact>
</mgrwt>
</event>
<event>
 4    1  0.4950349E-004  0.4197639E+03  0.7818608E-02  0.1037143E+00
         -2   -1    0    0    0  501 -0.00000000000E+00  0.00000000000E+00  0.10965648142E+02  0.10965648438E+02  0.25500000000E-02 0. -1.
          2   -1    0    0  501    0  0.00000000000E+00 -0.00000000000E+00 -0.40171294545E+04  0.40171294545E+04  0.25500000000E-02 0.  1.
    5000001    1    1    2    0    0  0.15309760656E+03 -0.94912662267E+02 -0.27259259401E+04  0.27329560043E+04  0.77000000000E+02 0.  0.
   -5000001    1    1    2    0    0 -0.15309760656E+03  0.94912662267E+02 -0.12802378662E+04  0.12951390986E+04  0.77000000000E+02 0.  0.
<mgrwt>
<rscale>  0 0.41976388E+03</rscale>
<asrwt>0</asrwt>
<pdfrwt beam="1">  1        2 0.57387469E+00 0.41976388E+03</pdfrwt>
<pdfrwt beam="2">  1       -2 0.15665238E-02 0.41976388E+03</pdfrwt>
<totfact> 0.75937832E+02</totfact>
</mgrwt>
</event>
<event>
 4    1  0.4950349E-004  0.2530486E+03  0.7818608E-02  0.1111393E+00
         -2   -1    0    0    0  501 -0.00000000000E+00  0.00000000000E+00  0.25341825987E+02  0.25341826115E+02  0.25500000000E-02 0. -1.
          2   -1    0    0  501    0  0.00000000000E+00 -0.00000000000E+00 -0.63169868490E+03  0.63169868491E+03  0.25500000000E-02 0.  1.
    5000001    1    1    2    0    0 -0.13825574289E+02  0.63685196585E+02 -0.10488257773E+03  0.14552080909E+03  0.77000000000E+02 0.  0.
   -5000001    1    1    2    0    0  0.13825574289E+02 -0.63685196585E+02 -0.50147428119E+03  0.51151970193E+03  0.77000000000E+02 0.  0.
<mgrwt>
<rscale>  0 0.25304860E+03</rscale>
<asrwt>0</asrwt>
<pdfrwt beam="1">  1        2 0.90242659E-01 0.25304860E+03</pdfrwt>
<pdfrwt beam="2">  1       -2 0.36202613E-02 0.25304860E+03</pdfrwt>
<totfact> 0.16381617E+04</totfact>
</mgrwt>
</event>
<event>
 4    1  0.4950349E-004  0.1818423E+03  0.7818608E-02  0.1166032E+00
         -2   -1    0    0    0  501 -0.00000000000E+00  0.00000000000E+00  0.11059961317E+02  0.11059961611E+02  0.25500000000E-02 0. -1.
          2   -1    0    0  501    0  0.00000000000E+00 -0.00000000000E+00 -0.74744013729E+03  0.74744013729E+03  0.25500000000E-02 0.  1.
    5000001    1    1    2    0    0 -0.13652019327E+02  0.46321537670E+02 -0.37805797338E+03  0.38883016051E+03  0.77000000000E+02 0.  0.
   -5000001    1    1    2    0    0  0.13652019327E+02 -0.46321537670E+02 -0.35832220259E+03  0.36966993840E+03  0.77000000000E+02 0.  0.
<mgrwt>
<rscale>  0 0.18184234E+03</rscale>
<asrwt>0</asrwt>
<pdfrwt beam="1">  1        2 0.10677713E+00 0.18184234E+03</pdfrwt>
<pdfrwt beam="2">  1       -2 0.15799950E-02 0.18184234E+03</pdfrwt>
<totfact> 0.44544065E+04</totfact>
</mgrwt>
</event>
<event>
 4    1  0.4950349E-004  0.2255869E+03  0.7818608E-02  0.1129785E+00
          2   -1    0    0  501    0  0.00000000000E+00  0.00000000000E+00  0.78096963948E+03  0.78096963948E+03  0.25500000000E-02 0.  1.
         -2   -1    0    0    0  501 -0.00000000000E+00 -0.00000000000E+00 -0.16290469805E+02  0.16290470005E+02  0.25500000000E-02 0. -1.
    5000001    1    1    2    0    0  0.74639266258E+02  0.31942095989E+02  0.43257500606E+03  0.44681254843E+03  0.77000000000E+02 0.  0.
   -5000001    1    1    2    0    0 -0.74639266258E+02 -0.31942095989E+02  0.33210416361E+03  0.35044756106E+03  0.77000000000E+02 0.  0.
<mgrwt>
<rscale>  0 0.22558690E+03</rscale>
<asrwt>0</asrwt>
<pdfrwt beam="1">  1        2 0.11156711E+00 0.22558690E+03</pdfrwt>
<pdfrwt beam="2">  1       -2 0.23272096E-02 0.22558690E+03</pdfrwt>
<totfact> 0.24380324E+04</totfact>
</mgrwt>
</event>
<event>
 4    1  0.4950349E-004  0.2596203E+03  0.7818608E-02  0.1107372E+00
          2   -1    0    0  501    0  0.00000000000E+00  0.00000000000E+00  0.27784484886E+03  0.27784484887E+03  0.25500000000E-02 0.  1.
         -2   -1    0    0    0  501 -0.00000000000E+00 -0.00000000000E+00 -0.60647774302E+02  0.60647774355E+02  0.25500000000E-02 0. -1.
    5000001    1    1    2    0    0  0.29897848306E+02 -0.63692864515E+02  0.78509902938E+01  0.10460067099E+03  0.77000000000E+02 0.  0.
   -5000001    1    1    2    0    0 -0.29897848306E+02  0.63692864515E+02  0.20934608427E+03  0.23389195224E+03  0.77000000000E+02 0.  0.
<mgrwt>
<rscale>  0 0.25962027E+03</rscale>
<asrwt>0</asrwt>
<pdfrwt beam="1">  1        2 0.39692121E-01 0.25962027E+03</pdfrwt>
<pdfrwt beam="2">  1       -2 0.86639679E-02 0.25962027E+03</pdfrwt>
<totfact> 0.10611668E+04</totfact>
</mgrwt>
</event>
<event>
 4    1  0.4950349E-004  0.1988459E+03  0.7818608E-02  0.1150716E+00
         -2   -1    0    0    0  501 -0.00000000000E+00  0.00000000000E+00  0.61429395537E+03  0.61429395537E+03  0.25500000000E-02 0. -1.
          2   -1    0    0  501    0  0.00000000000E+00 -0.00000000000E+00 -0.16091517024E+02  0.16091517226E+02  0.25500000000E-02 0.  1.
    5000001    1    1    2    0    0  0.58828307662E+02  0.31188653945E+01  0.36894865628E+03  0.38147425611E+03  0.77000000000E+02 0.  0.
   -5000001    1    1    2    0    0 -0.58828307662E+02 -0.31188653945E+01  0.22925378206E+03  0.24891121649E+03  0.77000000000E+02 0.  0.
<mgrwt>
<rscale>  0 0.19884589E+03</rscale>
<asrwt>0</asrwt>
<pdfrwt beam="1">  1        2 0.22987881E-02 0.19884589E+03</pdfrwt>
<pdfrwt beam="2">  1       -2 0.87756283E-01 0.19884589E+03</pdfrwt>
<totfact> 0.51056160E+03</totfact>
</mgrwt>
</event>
<event>
 4    1  0.4950349E-004  0.3034762E+03  0.7818608E-02  0.1083516E+00
          2   -1    0    0  501    0  0.00000000000E+00  0.00000000000E+00  0.11907329775E+04  0.11907329775E+04  0.25500000000E-02 0.  1.
         -2   -1    0    0    0  501 -0.00000000000E+00 -0.00000000000E+00 -0.19336368260E+02  0.19336368428E+02  0.25500000000E-02 0. -1.
    5000001    1    1    2    0    0 -0.60585811235E+02 -0.11241557085E+03  0.69759693886E+03  0.71335712669E+03  0.77000000000E+02 0.  0.
   -5000001    1    1    2    0    0  0.60585811235E+02  0.11241557085E+03  0.47379967040E+03  0.49671221926E+03  0.77000000000E+02 0.  0.
<mgrwt>
<rscale>  0 0.30347620E+03</rscale>
<asrwt>0</asrwt>
<pdfrwt beam="1">  1        2 0.17010473E+00 0.30347620E+03</pdfrwt>
<pdfrwt beam="2">  1       -2 0.27623381E-02 0.30347620E+03</pdfrwt>
<totfact> 0.10880966E+04</totfact>
</mgrwt>
</event>
<event>
 4    1  0.4950349E-004  0.2201624E+03  0.7818608E-02  0.1133762E+00
         -2   -1    0    0    0  501 -0.00000000000E+00  0.00000000000E+00  0.15822160008E+03  0.15822160010E+03  0.25500000000E-02 0. -1.
          2   -1    0    0  501    0  0.00000000000E+00 -0.00000000000E+00 -0.76587973722E+02  0.76587973764E+02  0.25500000000E-02 0.  1.
    5000001    1    1    2    0    0  0.27644188999E+01  0.77814723312E+02  0.28840373606E+02  0.11324107173E+03  0.77000000000E+02 0.  0.
   -5000001    1    1    2    0    0 -0.27644188999E+01 -0.77814723312E+02  0.52793252751E+02  0.12156850214E+03  0.77000000000E+02 0.  0.
<mgrwt>
<rscale>  0 0.22016241E+03</rscale>
<asrwt>0</asrwt>
<pdfrwt beam="1">  1        2 0.10941139E-01 0.22016241E+03</pdfrwt>
<pdfrwt beam="2">  1       -2 0.22603086E-01 0.22016241E+03</pdfrwt>
<totfact> 0.94920670E+03</totfact>
</mgrwt>
</event>
<event>
 4    1  0.4950349E-004  0.3803989E+03  0.7818608E-02  0.1050786E+00
          2   -1    0    0  501    0  0.00000000000E+00  0.00000000000E+00  0.36458857708E+03  0.36458857708E+03  0.25500000000E-02 0. -1.
         -2   -1    0    0    0  501 -0.00000000000E+00 -0.00000000000E+00 -0.99223699306E+02  0.99223699339E+02  0.25500000000E-02 0.  1.
    5000001    1    1    2    0    0  0.67967905740E+02  0.14925914149E+03  0.62123167739E+02  0.19153645997E+03  0.77000000000E+02 0.  0.
   -5000001    1    1    2    0    0 -0.67967905740E+02 -0.14925914149E+03  0.20324171003E+03  0.27227581645E+03  0.77000000000E+02 0.  0.
<mgrwt>
<rscale>  0 0.38039888E+03</rscale>
<asrwt>0</asrwt>
<pdfrwt beam="1">  1        2 0.52084082E-01 0.38039888E+03</pdfrwt>
<pdfrwt beam="2">  1       -2 0.14174814E-01 0.38039888E+03</pdfrwt>
<totfact> 0.36259433E+03</totfact>
</mgrwt>
</event>
<event>
 4    1  0.4950349E-004  0.2192836E+03  0.7818608E-02  0.1134418E+00
          2   -1    0    0  501    0  0.00000000000E+00  0.00000000000E+00  0.47781480986E+04  0.47781480986E+04  0.25500000000E-02 0.  1.
         -2   -1    0    0    0  501 -0.00000000000E+00 -0.00000000000E+00 -0.25158953934E+01  0.25158966857E+01  0.25500000000E-02 0. -1.
    5000001    1    1    2    0    0 -0.21754096344E+02 -0.59422573613E+02  0.13916045379E+04  0.13951689765E+04  0.77000000000E+02 0.  0.
   -5000001    1    1    2    0    0  0.21754096344E+02  0.59422573613E+02  0.33840276652E+04  0.33854950187E+04  0.77000000000E+02 0.  0.
<mgrwt>
<rscale>  0 0.21928360E+03</rscale>
<asrwt>0</asrwt>
<pdfrwt beam="1">  1        2 0.68259864E+00 0.21928360E+03</pdfrwt>
<pdfrwt beam="2">  1       -2 0.35941053E-03 0.21928360E+03</pdfrwt>
<totfact> 0.18340099E+03</totfact>
</mgrwt>
</event>
<event>
 4    1  0.4950349E-004  0.2024104E+03  0.7818608E-02  0.1147721E+00
         -2   -1    0    0    0  501 -0.00000000000E+00  0.00000000000E+00  0.19086549937E+03  0.19086549938E+03  0.25500000000E-02 0. -1.
          2   -1    0    0  501    0  0.00000000000E+00 -0.00000000000E+00 -0.53663419217E+02  0.53663419278E+02  0.25500000000E-02 0.  1.
    5000001    1    1    2    0    0  0.51672247272E+02  0.97764936928E+01  0.11613106062E+03  0.14893295206E+03  0.77000000000E+02 0.  0.
   -5000001    1    1    2    0    0 -0.51672247272E+02 -0.97764936928E+01  0.21071019527E+02  0.95595966604E+02  0.77000000000E+02 0.  0.
<mgrwt>
<rscale>  0 0.20241043E+03</rscale>
<asrwt>0</asrwt>
<pdfrwt beam="1">  1        2 0.76662029E-02 0.20241043E+03</pdfrwt>
<pdfrwt beam="2">  1       -2 0.27266499E-01 0.20241043E+03</pdfrwt>
<totfact> 0.10587579E+04</totfact>
</mgrwt>
</event>
<event>
 4    1  0.4950349E-004  0.4048574E+03  0.7818608E-02  0.1042111E+00
         -2   -1    0    0    0  501 -0.00000000000E+00  0.00000000000E+00  0.27255730260E+02  0.27255730379E+02  0.25500000000E-02 0. -1.
          2   -1    0    0  501    0  0.00000000000E+00 -0.00000000000E+00 -0.15034406552E+04  0.15034406552E+04  0.25500000000E-02 0.  1.
    5000001    1    1    2    0    0 -0.17472304402E+03 -0.64685624368E+02 -0.66878863008E+03  0.69851242211E+03  0.77000000000E+02 0.  0.
   -5000001    1    1    2    0    0  0.17472304402E+03  0.64685624368E+02 -0.80739629489E+03  0.83218396350E+03  0.77000000000E+02 0.  0.
<mgrwt>
<rscale>  0 0.40485737E+03</rscale>
<asrwt>0</asrwt>
<pdfrwt beam="1">  1        2 0.21477718E+00 0.40485737E+03</pdfrwt>
<pdfrwt beam="2">  1       -2 0.38936767E-02 0.40485737E+03</pdfrwt>
<totfact> 0.44616016E+03</totfact>
</mgrwt>
</event>
<event>
 4    1  0.4950349E-004  0.2580056E+03  0.7818608E-02  0.1108347E+00
         -2   -1    0    0    0  501 -0.00000000000E+00  0.00000000000E+00  0.43510969058E+02  0.43510969133E+02  0.25500000000E-02 0. -1.
          2   -1    0    0  501    0  0.00000000000E+00 -0.00000000000E+00 -0.38247183649E+03  0.38247183650E+03  0.25500000000E-02 0.  1.
    5000001    1    1    2    0    0 -0.52956482890E+02 -0.75056177571E+02 -0.90731577763E+02  0.15032976443E+03  0.77000000000E+02 0.  0.
   -5000001    1    1    2    0    0  0.52956482890E+02  0.75056177571E+02 -0.24822928967E+03  0.27565304120E+03  0.77000000000E+02 0.  0.
<mgrwt>
<rscale>  0 0.25800558E+03</rscale>
<asrwt>0</asrwt>
<pdfrwt beam="1">  1        2 0.54638832E-01 0.25800558E+03</pdfrwt>
<pdfrwt beam="2">  1       -2 0.62158529E-02 0.25800558E+03</pdfrwt>
<totfact> 0.12596343E+04</totfact>
</mgrwt>
</event>
<event>
 4    1  0.4950349E-004  0.3203872E+03  0.7818608E-02  0.1075471E+00
          2   -1    0    0  501    0  0.00000000000E+00  0.00000000000E+00  0.95319774812E+03  0.95319774812E+03  0.25500000000E-02 0.  1.
         -2   -1    0    0    0  501 -0.00000000000E+00 -0.00000000000E+00 -0.26922007714E+02  0.26922007835E+02  0.25500000000E-02 0. -1.
    5000001    1    1    2    0    0  0.13388290918E+03  0.34648230095E+02  0.53856144671E+03  0.56133997283E+03  0.77000000000E+02 0.  0.
   -5000001    1    1    2    0    0 -0.13388290918E+03 -0.34648230095E+02  0.38771429370E+03  0.41877978313E+03  0.77000000000E+02 0.  0.
<mgrwt>
<rscale>  0 0.32038725E+03</rscale>
<asrwt>0</asrwt>
<pdfrwt beam="1">  1        2 0.13617109E+00 0.32038725E+03</pdfrwt>
<pdfrwt beam="2">  1       -2 0.38460017E-02 0.32038725E+03</pdfrwt>
<totfact> 0.90895343E+03</totfact>
</mgrwt>
</event>
<event>
 4    1  0.4950349E-004  0.2209638E+03  0.7818608E-02  0.1133167E+00
          2   -1    0    0  501    0  0.00000000000E+00  0.00000000000E+00  0.38804102836E+02  0.38804102920E+02  0.25500000000E-02 0.  1.
         -2   -1    0    0    0  501 -0.00000000000E+00 -0.00000000000E+00 -0.31456072879E+03  0.31456072880E+03  0.25500000000E-02 0. -1.
    5000001    1    1    2    0    0  0.73264836838E+02 -0.30056406434E+02 -0.13392114581E+03  0.17359434663E+03  0.77000000000E+02 0.  0.
   -5000001    1    1    2    0    0 -0.73264836838E+02  0.30056406434E+02 -0.14183548014E+03  0.17977048510E+03  0.77000000000E+02 0.  0.
<mgrwt>
<rscale>  0 0.22096377E+03</rscale>
<asrwt>0</asrwt>
<pdfrwt beam="1">  1        2 0.55434435E-02 0.22096377E+03</pdfrwt>
<pdfrwt beam="2">  1       -2 0.44937245E-01 0.22096377E+03</pdfrwt>
<totfact> 0.63848077E+03</totfact>
</mgrwt>
</event>
<event>
 4    1  0.4950349E-004  0.2090409E+03  0.7818608E-02  0.1142328E+00
         -2   -1    0    0    0  501 -0.00000000000E+00  0.00000000000E+00  0.26933049799E+02  0.26933049920E+02  0.25500000000E-02 0. -1.
          2   -1    0    0  501    0  0.00000000000E+00 -0.00000000000E+00 -0.40561772449E+03  0.40561772449E+03  0.25500000000E-02 0.  1.
    5000001    1    1    2    0    0 -0.62649876299E+02 -0.82128184260E+01 -0.12380777402E+03  0.15890192666E+03  0.77000000000E+02 0.  0.
   -5000001    1    1    2    0    0  0.62649876299E+02  0.82128184260E+01 -0.25487690066E+03  0.27364884776E+03  0.77000000000E+02 0.  0.
<mgrwt>
<rscale>  0 0.20904088E+03</rscale>
<asrwt>0</asrwt>
<pdfrwt beam="1">  1        2 0.57945386E-01 0.20904088E+03</pdfrwt>
<pdfrwt beam="2">  1       -2 0.38475788E-02 0.20904088E+03</pdfrwt>
<totfact> 0.24129945E+04</totfact>
</mgrwt>
</event>
<event>
 4    1  0.4950349E-004  0.3162601E+03  0.7818608E-02  0.1077383E+00
          2   -1    0    0  501    0  0.00000000000E+00  0.00000000000E+00  0.64621130180E+03  0.64621130180E+03  0.25500000000E-02 0.  1.
         -2   -1    0    0    0  501 -0.00000000000E+00 -0.00000000000E+00 -0.38694948092E+02  0.38694948176E+02  0.25500000000E-02 0. -1.
    5000001    1    1    2    0    0  0.72485390663E+02 -0.79492629219E+02  0.49134459294E+03  0.50884351127E+03  0.77000000000E+02 0.  0.
   -5000001    1    1    2    0    0 -0.72485390663E+02  0.79492629219E+02  0.11617176077E+03  0.17606273871E+03  0.77000000000E+02 0.  0.
<mgrwt>
<rscale>  0 0.31626010E+03</rscale>
<asrwt>0</asrwt>
<pdfrwt beam="1">  1        2 0.92315895E-01 0.31626010E+03</pdfrwt>
<pdfrwt beam="2">  1       -2 0.55278500E-02 0.31626010E+03</pdfrwt>
<totfact> 0.84850808E+03</totfact>
</mgrwt>
</event>
<event>
 4    1  0.4950349E-004  0.1963283E+03  0.7818608E-02  0.1152874E+00
          2   -1    0    0  501    0  0.00000000000E+00  0.00000000000E+00  0.76080103943E+02  0.76080103986E+02  0.25500000000E-02 0.  1.
         -2   -1    0    0    0  501 -0.00000000000E+00 -0.00000000000E+00 -0.12665856024E+03  0.12665856026E+03  0.25500000000E-02 0. -1.
    5000001    1    1    2    0    0  0.68727801994E+01 -0.60040637503E+02 -0.17625091341E+02  0.99457312975E+02  0.77000000000E+02 0.  0.
   -5000001    1    1    2    0    0 -0.68727801994E+01  0.60040637503E+02 -0.32953364954E+02  0.10328135128E+03  0.77000000000E+02 0.  0.
<mgrwt>
<rscale>  0 0.19632826E+03</rscale>
<asrwt>0</asrwt>
<pdfrwt beam="1">  1        2 0.10868586E-01 0.19632826E+03</pdfrwt>
<pdfrwt beam="2">  1       -2 0.18094080E-01 0.19632826E+03</pdfrwt>
<totfact> 0.13882471E+04</totfact>
</mgrwt>
</event>
<event>
 4    1  0.4950349E-004  0.2707889E+03  0.7818608E-02  0.1100829E+00
         -2   -1    0    0    0  501 -0.00000000000E+00  0.00000000000E+00  0.51221260586E+02  0.51221260649E+02  0.25500000000E-02 0. -1.
          2   -1    0    0  501    0  0.00000000000E+00 -0.00000000000E+00 -0.35789167010E+03  0.35789167011E+03  0.25500000000E-02 0.  1.
    5000001    1    1    2    0    0 -0.59101275608E+02  0.48237803257E+02 -0.27591478911E+03  0.29644192904E+03  0.77000000000E+02 0.  0.
   -5000001    1    1    2    0    0  0.59101275608E+02 -0.48237803257E+02 -0.30755620398E+02  0.11267100172E+03  0.77000000000E+02 0.  0.
<mgrwt>
<rscale>  0 0.27078894E+03</rscale>
<asrwt>0</asrwt>
<pdfrwt beam="1">  1        2 0.51127380E-01 0.27078894E+03</pdfrwt>
<pdfrwt beam="2">  1       -2 0.73173231E-02 0.27078894E+03</pdfrwt>
<totfact> 0.10542090E+04</totfact>
</mgrwt>
</event>
<event>
 4    1  0.4950349E-004  0.1929802E+03  0.7818608E-02  0.1155801E+00
         -2   -1    0    0    0  501 -0.00000000000E+00  0.00000000000E+00  0.42268365353E+02  0.42268365430E+02  0.25500000000E-02 0. -1.
          2   -1    0    0  501    0  0.00000000000E+00 -0.00000000000E+00 -0.22026733039E+03  0.22026733041E+03  0.25500000000E-02 0.  1.
    5000001    1    1    2    0    0 -0.41744856233E+02  0.26658414769E+02 -0.13044313133E+03  0.15936660444E+03  0.77000000000E+02 0.  0.
   -5000001    1    1    2    0    0  0.41744856233E+02 -0.26658414769E+02 -0.47555833710E+02  0.10316909140E+03  0.77000000000E+02 0.  0.
<mgrwt>
<rscale>  0 0.19298021E+03</rscale>
<asrwt>0</asrwt>
<pdfrwt beam="1">  1        2 0.31466761E-01 0.19298021E+03</pdfrwt>
<pdfrwt beam="2">  1       -2 0.60383380E-02 0.19298021E+03</pdfrwt>
<totfact> 0.23400770E+04</totfact>
</mgrwt>
</event>
<event>
 4    1  0.4950349E-004  0.2253899E+03  0.7818608E-02  0.1129927E+00
         -2   -1    0    0    0  501 -0.00000000000E+00  0.00000000000E+00  0.35264876831E+03  0.35264876832E+03  0.25500000000E-02 0. -1.
          2   -1    0    0  501    0  0.00000000000E+00 -0.00000000000E+00 -0.36013601106E+02  0.36013601196E+02  0.25500000000E-02 0.  1.
    5000001    1    1    2    0    0  0.62956655851E+02 -0.43744148277E+02  0.20987861893E+03  0.23633689028E+03  0.77000000000E+02 0.  0.
   -5000001    1    1    2    0    0 -0.62956655851E+02  0.43744148277E+02  0.10675654828E+03  0.15232547924E+03  0.77000000000E+02 0.  0.
<mgrwt>
<rscale>  0 0.22538990E+03</rscale>
<asrwt>0</asrwt>
<pdfrwt beam="1">  1        2 0.51448003E-02 0.22538990E+03</pdfrwt>
<pdfrwt beam="2">  1       -2 0.50378394E-01 0.22538990E+03</pdfrwt>
<totfact> 0.56278562E+03</totfact>
</mgrwt>
</event>
<event>
 4    1  0.4950349E-004  0.1752919E+03  0.7818608E-02  0.1172439E+00
          2   -1    0    0  501    0  0.00000000000E+00  0.00000000000E+00  0.37191974892E+03  0.37191974893E+03  0.25500000000E-02 0.  1.
         -2   -1    0    0    0  501 -0.00000000000E+00 -0.00000000000E+00 -0.20654485110E+02  0.20654485267E+02  0.25500000000E-02 0. -1.
    5000001    1    1    2    0    0 -0.34364817958E+02  0.23844334622E+02  0.17155324998E+03  0.19263699173E+03  0.77000000000E+02 0.  0.
   -5000001    1    1    2    0    0  0.34364817958E+02 -0.23844334622E+02  0.17971201383E+03  0.19993724246E+03  0.77000000000E+02 0.  0.
<mgrwt>
<rscale>  0 0.17529188E+03</rscale>
<asrwt>0</asrwt>
<pdfrwt beam="1">  1        2 0.53131389E-01 0.17529188E+03</pdfrwt>
<pdfrwt beam="2">  1       -2 0.29506409E-02 0.17529188E+03</pdfrwt>
<totfact> 0.38701536E+04</totfact>
</mgrwt>
</event>
<event>
 4    1  0.4950349E-004  0.1825529E+03  0.7818608E-02  0.1165355E+00
          2   -1    0    0  501    0  0.00000000000E+00  0.00000000000E+00  0.61166842467E+03  0.61166842468E+03  0.25500000000E-02 0.  1.
         -2   -1    0    0    0  501 -0.00000000000E+00 -0.00000000000E+00 -0.13620768303E+02  0.13620768542E+02  0.25500000000E-02 0. -1.
    5000001    1    1    2    0    0  0.41806702019E+01  0.34534566835E+02  0.41729561514E+03  0.42576371936E+03  0.77000000000E+02 0.  0.
   -5000001    1    1    2    0    0 -0.41806702019E+01 -0.34534566835E+02  0.18075204123E+03  0.19952547386E+03  0.77000000000E+02 0.  0.
<mgrwt>
<rscale>  0 0.18255294E+03</rscale>
<asrwt>0</asrwt>
<pdfrwt beam="1">  1        2 0.87381247E-01 0.18255294E+03</pdfrwt>
<pdfrwt beam="2">  1       -2 0.19458231E-02 0.18255294E+03</pdfrwt>
<totfact> 0.41549637E+04</totfact>
</mgrwt>
</event>
<event>
 4    1  0.4950349E-004  0.1869305E+03  0.7818608E-02  0.1161259E+00
          2   -1    0    0  501    0  0.00000000000E+00  0.00000000000E+00  0.43542160460E+03  0.43542160461E+03  0.25500000000E-02 0.  1.
         -2   -1    0    0    0  501 -0.00000000000E+00 -0.00000000000E+00 -0.20062751922E+02  0.20062752084E+02  0.25500000000E-02 0. -1.
    5000001    1    1    2    0    0  0.29242513547E+02 -0.44054557678E+02  0.21569708852E+03  0.23505353145E+03  0.77000000000E+02 0.  0.
   -5000001    1    1    2    0    0 -0.29242513547E+02  0.44054557678E+02  0.19966176416E+03  0.22043082525E+03  0.77000000000E+02 0.  0.
<mgrwt>
<rscale>  0 0.18693053E+03</rscale>
<asrwt>0</asrwt>
<pdfrwt beam="1">  1        2 0.62203087E-01 0.18693053E+03</pdfrwt>
<pdfrwt beam="2">  1       -2 0.28661074E-02 0.18693053E+03</pdfrwt>
<totfact> 0.34313059E+04</totfact>
</mgrwt>
</event>
<event>
 4    1  0.4950349E-004  0.2030962E+03  0.7818608E-02  0.1147153E+00
          2   -1    0    0  501    0  0.00000000000E+00  0.00000000000E+00  0.17723635012E+03  0.17723635014E+03  0.25500000000E-02 0.  1.
         -2   -1    0    0    0  501 -0.00000000000E+00 -0.00000000000E+00 -0.58182283844E+02  0.58182283900E+02  0.25500000000E-02 0. -1.
    5000001    1    1    2    0    0  0.19292911484E+00 -0.66129051946E+02  0.55874904913E+02  0.11586239136E+03  0.77000000000E+02 0.  0.
   -5000001    1    1    2    0    0 -0.19292911484E+00  0.66129051946E+02  0.63179161367E+02  0.11955624268E+03  0.77000000000E+02 0.  0.
<mgrwt>
<rscale>  0 0.20309619E+03</rscale>
<asrwt>0</asrwt>
<pdfrwt beam="1">  1        2 0.25319479E-01 0.20309619E+03</pdfrwt>
<pdfrwt beam="2">  1       -2 0.83117548E-02 0.20309619E+03</pdfrwt>
<totfact> 0.18219445E+04</totfact>
</mgrwt>
</event>
<event>
 4    1  0.4950349E-004  0.3055776E+03  0.7818608E-02  0.1082485E+00
          2   -1    0    0  501    0  0.00000000000E+00  0.00000000000E+00  0.14435629894E+04  0.14435629894E+04  0.25500000000E-02 0.  1.
         -2   -1    0    0    0  501 -0.00000000000E+00 -0.00000000000E+00 -0.16171382789E+02  0.16171382990E+02  0.25500000000E-02 0. -1.
    5000001    1    1    2    0    0 -0.25516376805E+02  0.11882223538E+03  0.95940111183E+03  0.97012849792E+03  0.77000000000E+02 0.  0.
   -5000001    1    1    2    0    0  0.25516376805E+02 -0.11882223538E+03  0.46799049475E+03  0.48960587444E+03  0.77000000000E+02 0.  0.
<mgrwt>
<rscale>  0 0.30557755E+03</rscale>
<asrwt>0</asrwt>
<pdfrwt beam="1">  1        2 0.20622320E+00 0.30557755E+03</pdfrwt>
<pdfrwt beam="2">  1       -2 0.23101985E-02 0.30557755E+03</pdfrwt>
<totfact> 0.10437782E+04</totfact>
</mgrwt>
</event>
<event>
 4    1  0.4950349E-004  0.3812274E+03  0.7818608E-02  0.1050481E+00
         -2   -1    0    0    0  501 -0.00000000000E+00  0.00000000000E+00  0.24688100006E+02  0.24688100137E+02  0.25500000000E-02 0. -1.
          2   -1    0    0  501    0  0.00000000000E+00 -0.00000000000E+00 -0.14717041936E+04  0.14717041936E+04  0.25500000000E-02 0.  1.
    5000001    1    1    2    0    0 -0.60563017899E+02  0.59146424672E+02 -0.12514536969E+03  0.16957754050E+03  0.77000000000E+02 0.  0.
   -5000001    1    1    2    0    0  0.60563017899E+02 -0.59146424672E+02 -0.13218707239E+04  0.13268147533E+04  0.77000000000E+02 0.  0.
<mgrwt>
<rscale>  0 0.38122739E+03</rscale>
<asrwt>0</asrwt>
<pdfrwt beam="1">  1        2 0.21024340E+00 0.38122739E+03</pdfrwt>
<pdfrwt beam="2">  1       -2 0.35268724E-02 0.38122739E+03</pdfrwt>
<totfact> 0.53797952E+03</totfact>
</mgrwt>
</event>
<event>
 4    1  0.4950349E-004  0.2142528E+03  0.7818608E-02  0.1138242E+00
          2   -1    0    0  501    0  0.00000000000E+00  0.00000000000E+00  0.18067264385E+03  0.18067264387E+03  0.25500000000E-02 0.  1.
         -2   -1    0    0    0  501 -0.00000000000E+00 -0.00000000000E+00 -0.63518540926E+02  0.63518540977E+02  0.25500000000E-02 0. -1.
    5000001    1    1    2    0    0 -0.21675861469E+02 -0.68186521168E+02  0.82151041880E+02  0.13340554082E+03  0.77000000000E+02 0.  0.
   -5000001    1    1    2    0    0  0.21675861469E+02  0.68186521168E+02  0.35003061042E+02  0.11078564402E+03  0.77000000000E+02 0.  0.
<mgrwt>
<rscale>  0 0.21425277E+03</rscale>
<asrwt>0</asrwt>
<pdfrwt beam="1">  1        2 0.25810378E-01 0.21425277E+03</pdfrwt>
<pdfrwt beam="2">  1       -2 0.90740771E-02 0.21425277E+03</pdfrwt>
<totfact> 0.15605490E+04</totfact>
</mgrwt>
</event>
<event>
 4    1  0.4950349E-004  0.2721727E+03  0.7818608E-02  0.1100043E+00
          2   -1    0    0  501    0  0.00000000000E+00  0.00000000000E+00  0.18228874457E+03  0.18228874459E+03  0.25500000000E-02 0.  1.
         -2   -1    0    0    0  501 -0.00000000000E+00 -0.00000000000E+00 -0.10159429861E+03  0.10159429865E+03  0.25500000000E-02 0. -1.
    5000001    1    1    2    0    0  0.19384232764E+02 -0.57830379574E+02 -0.57887802580E+02  0.11401797652E+03  0.77000000000E+02 0.  0.
   -5000001    1    1    2    0    0 -0.19384232764E+02  0.57830379574E+02  0.13858224853E+03  0.16986506672E+03  0.77000000000E+02 0.  0.
<mgrwt>
<rscale>  0 0.27217272E+03</rscale>
<asrwt>0</asrwt>
<pdfrwt beam="1">  1        2 0.26041249E-01 0.27217272E+03</pdfrwt>
<pdfrwt beam="2">  1       -2 0.14513471E-01 0.27217272E+03</pdfrwt>
<totfact> 0.73616627E+03</totfact>
</mgrwt>
</event>
<event>
 4    1  0.4950349E-004  0.6793979E+03  0.7818608E-02  0.9753128E-01
          2   -1    0    0  501    0  0.00000000000E+00  0.00000000000E+00  0.34732088796E+03  0.34732088797E+03  0.25500000000E-02 0.  1.
         -2   -1    0    0    0  501 -0.00000000000E+00 -0.00000000000E+00 -0.33224424274E+03  0.33224424275E+03  0.25500000000E-02 0. -1.
    5000001    1    1    2    0    0  0.24345657267E+03  0.12850764400E+03  0.19110747650E+03  0.34385518016E+03  0.77000000000E+02 0.  0.
   -5000001    1    1    2    0    0 -0.24345657267E+03 -0.12850764400E+03 -0.17603083128E+03  0.33570995056E+03  0.77000000000E+02 0.  0.
<mgrwt>
<rscale>  0 0.67939787E+03</rscale>
<asrwt>0</asrwt>
<pdfrwt beam="1">  1        2 0.49617270E-01 0.67939787E+03</pdfrwt>
<pdfrwt beam="2">  1       -2 0.47463463E-01 0.67939787E+03</pdfrwt>
<totfact> 0.42947242E+02</totfact>
</mgrwt>
</event>
<event>
 4    1  0.4950349E-004  0.2283665E+03  0.7818608E-02  0.1127795E+00
          2   -1    0    0  501    0  0.00000000000E+00  0.00000000000E+00  0.61500507548E+03  0.61500507549E+03  0.25500000000E-02 0.  1.
         -2   -1    0    0    0  501 -0.00000000000E+00 -0.00000000000E+00 -0.21199521579E+02  0.21199521733E+02  0.25500000000E-02 0. -1.
    5000001    1    1    2    0    0  0.66045584156E+02 -0.15465440099E+02  0.15739616113E+03  0.18789292313E+03  0.77000000000E+02 0.  0.
   -5000001    1    1    2    0    0 -0.66045584156E+02  0.15465440099E+02  0.43640939278E+03  0.44831167409E+03  0.77000000000E+02 0.  0.
<mgrwt>
<rscale>  0 0.22836649E+03</rscale>
<asrwt>0</asrwt>
<pdfrwt beam="1">  1        2 0.87857876E-01 0.22836649E+03</pdfrwt>
<pdfrwt beam="2">  1       -2 0.30285028E-02 0.22836649E+03</pdfrwt>
<totfact> 0.21911176E+04</totfact>
</mgrwt>
</event>
<event>
 4    1  0.4950349E-004  0.1587782E+03  0.7818608E-02  0.1190083E+00
         -2   -1    0    0    0  501 -0.00000000000E+00  0.00000000000E+00  0.17594550432E+01  0.17594568911E+01  0.25500000000E-02 0. -1.
          2   -1    0    0  501    0  0.00000000000E+00 -0.00000000000E+00 -0.35821453898E+04  0.35821453898E+04  0.25500000000E-02 0.  1.
    5000001    1    1    2    0    0  0.85835385856E+01 -0.10466246088E+02 -0.21016569679E+04  0.21031106081E+04  0.77000000000E+02 0.  0.
   -5000001    1    1    2    0    0 -0.85835385856E+01  0.10466246088E+02 -0.14787289669E+04  0.14807942386E+04  0.77000000000E+02 0.  0.
<mgrwt>
<rscale>  0 0.15877817E+03</rscale>
<asrwt>0</asrwt>
<pdfrwt beam="1">  1        2 0.51173038E+00 0.15877817E+03</pdfrwt>
<pdfrwt beam="2">  1       -2 0.25135315E-03 0.15877817E+03</pdfrwt>
<totfact> 0.20287127E+04</totfact>
</mgrwt>
</event>
<event>
 4    1  0.4950349E-004  0.4262968E+03  0.7818608E-02  0.1035036E+00
          2   -1    0    0  501    0  0.00000000000E+00  0.00000000000E+00  0.97238010729E+03  0.97238010730E+03  0.25500000000E-02 0.  1.
         -2   -1    0    0    0  501 -0.00000000000E+00 -0.00000000000E+00 -0.46722707273E+02  0.46722707342E+02  0.25500000000E-02 0. -1.
    5000001    1    1    2    0    0  0.26181090086E+02  0.19615315011E+03  0.41863673495E+03  0.46941157168E+03  0.77000000000E+02 0.  0.
   -5000001    1    1    2    0    0 -0.26181090086E+02 -0.19615315011E+03  0.50702066507E+03  0.54969124296E+03  0.77000000000E+02 0.  0.
<mgrwt>
<rscale>  0 0.42629676E+03</rscale>
<asrwt>0</asrwt>
<pdfrwt beam="1">  1        2 0.13891144E+00 0.42629676E+03</pdfrwt>
<pdfrwt beam="2">  1       -2 0.66746725E-02 0.42629676E+03</pdfrwt>
<totfact> 0.38181468E+03</totfact>
</mgrwt>
</event>
<event>
 4    1  0.4950349E-004  0.2210364E+03  0.7818608E-02  0.1133113E+00
          2   -1    0    0  501    0  0.00000000000E+00  0.00000000000E+00  0.11975654032E+04  0.11975654032E+04  0.25500000000E-02 0.  1.
         -2   -1    0    0    0  501 -0.00000000000E+00 -0.00000000000E+00 -0.10199251322E+02  0.10199251641E+02  0.25500000000E-02 0. -1.
    5000001    1    1    2    0    0 -0.77381977978E+02 -0.83671585118E+01  0.67606075163E+03  0.68486868796E+03  0.77000000000E+02 0.  0.
   -5000001    1    1    2    0    0  0.77381977978E+02  0.83671585118E+01  0.51130540026E+03  0.52289596689E+03  0.77000000000E+02 0.  0.
<mgrwt>
<rscale>  0 0.22103638E+03</rscale>
<asrwt>0</asrwt>
<pdfrwt beam="1">  1        2 0.17108073E+00 0.22103638E+03</pdfrwt>
<pdfrwt beam="2">  1       -2 0.14570363E-02 0.22103638E+03</pdfrwt>
<totfact> 0.27269645E+04</totfact>
</mgrwt>
</event>
<event>
 4    1  0.4950349E-004  0.2986852E+03  0.7818608E-02  0.1085900E+00
         -2   -1    0    0    0  501 -0.00000000000E+00  0.00000000000E+00  0.34335721942E+02  0.34335722037E+02  0.25500000000E-02 0. -1.
          2   -1    0    0  501    0  0.00000000000E+00 -0.00000000000E+00 -0.64956313699E+03  0.64956313700E+03  0.25500000000E-02 0.  1.
    5000001    1    1    2    0    0 -0.71132368811E+02  0.10452437819E+03 -0.26245034546E+03  0.30132099721E+03  0.77000000000E+02 0.  0.
   -5000001    1    1    2    0    0  0.71132368811E+02 -0.10452437819E+03 -0.35277706960E+03  0.38257786183E+03  0.77000000000E+02 0.  0.
<mgrwt>
<rscale>  0 0.29868525E+03</rscale>
<asrwt>0</asrwt>
<pdfrwt beam="1">  1        2 0.92794727E-01 0.29868525E+03</pdfrwt>
<pdfrwt beam="2">  1       -2 0.49051035E-02 0.29868525E+03</pdfrwt>
<totfact> 0.10103441E+04</totfact>
</mgrwt>
</event>
<event>
 4    1  0.4950349E-004  0.2175185E+03  0.7818608E-02  0.1135747E+00
         -2   -1    0    0    0  501 -0.00000000000E+00  0.00000000000E+00  0.10464072506E+02  0.10464072817E+02  0.25500000000E-02 0. -1.
          2   -1    0    0  501    0  0.00000000000E+00 -0.00000000000E+00 -0.11303990790E+04  0.11303990790E+04  0.25500000000E-02 0.  1.
    5000001    1    1    2    0    0 -0.38658852791E+02  0.86571485951E+01 -0.21483369576E+03  0.23162894887E+03  0.77000000000E+02 0.  0.
   -5000001    1    1    2    0    0  0.38658852791E+02 -0.86571485951E+01 -0.90510131072E+03  0.90923420294E+03  0.77000000000E+02 0.  0.
<mgrwt>
<rscale>  0 0.21751853E+03</rscale>
<asrwt>0</asrwt>
<pdfrwt beam="1">  1        2 0.16148551E+00 0.21751853E+03</pdfrwt>
<pdfrwt beam="2">  1       -2 0.14948682E-02 0.21751853E+03</pdfrwt>
<totfact> 0.28556357E+04</totfact>
</mgrwt>
</event>
<event>
 4    1  0.4950349E-004  0.1867841E+03  0.7818608E-02  0.1161394E+00
         -2   -1    0    0    0  501 -0.00000000000E+00  0.00000000000E+00  0.29231588620E+02  0.29231588731E+02  0.25500000000E-02 0. -1.
          2   -1    0    0  501    0  0.00000000000E+00 -0.00000000000E+00 -0.29837848431E+03  0.29837848432E+03  0.25500000000E-02 0.  1.
    5000001    1    1    2    0    0 -0.15363351600E+02 -0.41826115231E+02 -0.18441837825E+03  0.20475496263E+03  0.77000000000E+02 0.  0.
   -5000001    1    1    2    0    0  0.15363351600E+02  0.41826115231E+02 -0.84728517440E+02  0.12285511042E+03  0.77000000000E+02 0.  0.
<mgrwt>
<rscale>  0 0.18678412E+03</rscale>
<asrwt>0</asrwt>
<pdfrwt beam="1">  1        2 0.42625496E-01 0.18678412E+03</pdfrwt>
<pdfrwt beam="2">  1       -2 0.41759414E-02 0.18678412E+03</pdfrwt>
<totfact> 0.29388402E+04</totfact>
</mgrwt>
</event>
<event>
 4    1  0.4950349E-004  0.2398586E+03  0.7818608E-02  0.1119887E+00
         -2   -1    0    0    0  501 -0.00000000000E+00  0.00000000000E+00  0.17736519073E+02  0.17736519256E+02  0.25500000000E-02 0. -1.
          2   -1    0    0  501    0  0.00000000000E+00 -0.00000000000E+00 -0.81092805184E+03  0.81092805184E+03  0.25500000000E-02 0.  1.
    5000001    1    1    2    0    0  0.81489639873E+02 -0.21545252316E+02 -0.26969193871E+03  0.29286089037E+03  0.77000000000E+02 0.  0.
   -5000001    1    1    2    0    0 -0.81489639873E+02  0.21545252316E+02 -0.52349959405E+03  0.53580368073E+03  0.77000000000E+02 0.  0.
<mgrwt>
<rscale>  0 0.23985863E+03</rscale>
<asrwt>0</asrwt>
<pdfrwt beam="1">  1        2 0.11584684E+00 0.23985863E+03</pdfrwt>
<pdfrwt beam="2">  1       -2 0.25337890E-02 0.23985863E+03</pdfrwt>
<totfact> 0.20609047E+04</totfact>
</mgrwt>
</event>
<event>
 4    1  0.4950349E-004  0.3072204E+03  0.7818608E-02  0.1081686E+00
          2   -1    0    0  501    0  0.00000000000E+00  0.00000000000E+00  0.33552718562E+04  0.33552718562E+04  0.25500000000E-02 0. -1.
         -2   -1    0    0    0  501 -0.00000000000E+00 -0.00000000000E+00 -0.70325433164E+01  0.70325437787E+01  0.25500000000E-02 0.  1.
    5000001    1    1    2    0    0  0.10552807422E+03 -0.16807188924E+02  0.25392324652E+04  0.25426460958E+04  0.77000000000E+02 0.  0.
   -5000001    1    1    2    0    0 -0.10552807422E+03  0.16807188924E+02  0.80900684767E+03  0.81965830419E+03  0.77000000000E+02 0.  0.
<mgrwt>
<rscale>  0 0.30722041E+03</rscale>
<asrwt>0</asrwt>
<pdfrwt beam="1">  1        2 0.47932483E+00 0.30722041E+03</pdfrwt>
<pdfrwt beam="2">  1       -2 0.10046485E-02 0.30722041E+03</pdfrwt>
<totfact> 0.37517446E+03</totfact>
</mgrwt>
</event>
<event>
 4    1  0.4950349E-004  0.2398449E+03  0.7818608E-02  0.1119896E+00
          2   -1    0    0  501    0  0.00000000000E+00  0.00000000000E+00  0.17565514607E+03  0.17565514609E+03  0.25500000000E-02 0.  1.
         -2   -1    0    0    0  501 -0.00000000000E+00 -0.00000000000E+00 -0.81872859146E+02  0.81872859186E+02  0.25500000000E-02 0. -1.
    5000001    1    1    2    0    0 -0.81598071308E+02  0.42157108513E+02  0.42474219728E+02  0.12715552045E+03  0.77000000000E+02 0.  0.
   -5000001    1    1    2    0    0  0.81598071308E+02 -0.42157108513E+02  0.51308067192E+02  0.13037248482E+03  0.77000000000E+02 0.  0.
<mgrwt>
<rscale>  0 0.23984486E+03</rscale>
<asrwt>0</asrwt>
<pdfrwt beam="1">  1        2 0.25093592E-01 0.23984486E+03</pdfrwt>
<pdfrwt beam="2">  1       -2 0.11696123E-01 0.23984486E+03</pdfrwt>
<totfact> 0.10832597E+04</totfact>
</mgrwt>
</event>
<event>
 4    1  0.4950349E-004  0.1984501E+03  0.7818608E-02  0.1151053E+00
          2   -1    0    0  501    0  0.00000000000E+00  0.00000000000E+00  0.93989788628E+02  0.93989788663E+02  0.25500000000E-02 0.  1.
         -2   -1    0    0    0  501 -0.00000000000E+00 -0.00000000000E+00 -0.10475194280E+03  0.10475194283E+03  0.25500000000E-02 0. -1.
    5000001    1    1    2    0    0 -0.26246174233E+02 -0.47009633817E+02  0.26569496052E+02  0.97640695685E+02  0.77000000000E+02 0.  0.
   -5000001    1    1    2    0    0  0.26246174233E+02  0.47009633817E+02 -0.37331650226E+02  0.10110103581E+03  0.77000000000E+02 0.  0.
<mgrwt>
<rscale>  0 0.19845012E+03</rscale>
<asrwt>0</asrwt>
<pdfrwt beam="1">  1        2 0.13427113E-01 0.19845012E+03</pdfrwt>
<pdfrwt beam="2">  1       -2 0.14964563E-01 0.19845012E+03</pdfrwt>
<totfact> 0.14748509E+04</totfact>
</mgrwt>
</event>
<event>
 4    1  0.4950349E-004  0.1839733E+03  0.7818608E-02  0.1164012E+00
          2   -1    0    0  501    0  0.00000000000E+00  0.00000000000E+00  0.97521360867E+02  0.97521360900E+02  0.25500000000E-02 0.  1.
         -2   -1    0    0    0  501 -0.00000000000E+00 -0.00000000000E+00 -0.86766039853E+02  0.86766039891E+02  0.25500000000E-02 0. -1.
    5000001    1    1    2    0    0  0.40133362627E+02  0.30362072306E+02  0.53699272599E+01  0.92143249070E+02  0.77000000000E+02 0.  0.
   -5000001    1    1    2    0    0 -0.40133362627E+02 -0.30362072306E+02  0.53853937541E+01  0.92144151721E+02  0.77000000000E+02 0.  0.
<mgrwt>
<rscale>  0 0.18397328E+03</rscale>
<asrwt>0</asrwt>
<pdfrwt beam="1">  1        2 0.13931623E-01 0.18397328E+03</pdfrwt>
<pdfrwt beam="2">  1       -2 0.12395149E-01 0.18397328E+03</pdfrwt>
<totfact> 0.19061416E+04</totfact>
</mgrwt>
</event>
<event>
 4    1  0.4950349E-004  0.4493391E+03  0.7818608E-02  0.1027919E+00
         -2   -1    0    0    0  501 -0.00000000000E+00  0.00000000000E+00  0.15016036704E+03  0.15016036706E+03  0.25500000000E-02 0. -1.
          2   -1    0    0  501    0  0.00000000000E+00 -0.00000000000E+00 -0.33614996330E+03  0.33614996331E+03  0.25500000000E-02 0.  1.
    5000001    1    1    2    0    0  0.16558221822E+03 -0.11614631531E+02  0.48096519104E+02  0.18919472986E+03  0.77000000000E+02 0.  0.
   -5000001    1    1    2    0    0 -0.16558221822E+03  0.11614631531E+02 -0.23408611537E+03  0.29711560051E+03  0.77000000000E+02 0.  0.
<mgrwt>
<rscale>  0 0.44933908E+03</rscale>
<asrwt>0</asrwt>
<pdfrwt beam="1">  1        2 0.48021423E-01 0.44933908E+03</pdfrwt>
<pdfrwt beam="2">  1       -2 0.21451481E-01 0.44933908E+03</pdfrwt>
<totfact> 0.19649871E+03</totfact>
</mgrwt>
</event>
<event>
 4    1  0.4950349E-004  0.3026083E+03  0.7818608E-02  0.1083944E+00
          2   -1    0    0  501    0  0.00000000000E+00  0.00000000000E+00  0.86862485527E+03  0.86862485527E+03  0.25500000000E-02 0.  1.
         -2   -1    0    0    0  501 -0.00000000000E+00 -0.00000000000E+00 -0.26355394033E+02  0.26355394156E+02  0.25500000000E-02 0. -1.
    5000001    1    1    2    0    0 -0.17578202018E+01  0.10172461454E+03  0.18062612151E+03  0.22114651909E+03  0.77000000000E+02 0.  0.
   -5000001    1    1    2    0    0  0.17578202018E+01 -0.10172461454E+03  0.66164333972E+03  0.67383373033E+03  0.77000000000E+02 0.  0.
<mgrwt>
<rscale>  0 0.30260833E+03</rscale>
<asrwt>0</asrwt>
<pdfrwt beam="1">  1        2 0.12408925E+00 0.30260833E+03</pdfrwt>
<pdfrwt beam="2">  1       -2 0.37650569E-02 0.30260833E+03</pdfrwt>
<totfact> 0.10581306E+04</totfact>
</mgrwt>
</event>
<event>
 4    1  0.4950349E-004  0.1748400E+03  0.7818608E-02  0.1172892E+00
         -2   -1    0    0    0  501 -0.00000000000E+00  0.00000000000E+00  0.60350575349E+02  0.60350575403E+02  0.25500000000E-02 0. -1.
          2   -1    0    0  501    0  0.00000000000E+00 -0.00000000000E+00 -0.12663100189E+03  0.12663100191E+03  0.25500000000E-02 0.  1.
    5000001    1    1    2    0    0 -0.35403786828E+02 -0.21096117373E+02 -0.29028824676E+02  0.92033401285E+02  0.77000000000E+02 0.  0.
   -5000001    1    1    2    0    0  0.35403786828E+02  0.21096117373E+02 -0.37251601861E+02  0.94948176029E+02  0.77000000000E+02 0.  0.
<mgrwt>
<rscale>  0 0.17483997E+03</rscale>
<asrwt>0</asrwt>
<pdfrwt beam="1">  1        2 0.18090143E-01 0.17483997E+03</pdfrwt>
<pdfrwt beam="2">  1       -2 0.86215108E-02 0.17483997E+03</pdfrwt>
<totfact> 0.24849243E+04</totfact>
</mgrwt>
</event>
<event>
 4    1  0.4950349E-004  0.2063438E+03  0.7818608E-02  0.1144494E+00
          2   -1    0    0  501    0  0.00000000000E+00  0.00000000000E+00  0.13099745126E+04  0.13099745126E+04  0.25500000000E-02 0.  1.
         -2   -1    0    0    0  501 -0.00000000000E+00 -0.00000000000E+00 -0.81256872423E+01  0.81256876425E+01  0.25500000000E-02 0. -1.
    5000001    1    1    2    0    0  0.44749913413E+02  0.51328966061E+02  0.70742231895E+03  0.71485142153E+03  0.77000000000E+02 0.  0.
   -5000001    1    1    2    0    0 -0.44749913413E+02 -0.51328966061E+02  0.59442650641E+03  0.60324877872E+03  0.77000000000E+02 0.  0.
<mgrwt>
<rscale>  0 0.20634382E+03</rscale>
<asrwt>0</asrwt>
<pdfrwt beam="1">  1        2 0.18713927E+00 0.20634382E+03</pdfrwt>
<pdfrwt beam="2">  1       -2 0.11608121E-02 0.20634382E+03</pdfrwt>
<totfact> 0.32927646E+04</totfact>
</mgrwt>
</event>
<event>
 4    1  0.4950349E-004  0.2215284E+03  0.7818608E-02  0.1132749E+00
         -2   -1    0    0    0  501 -0.00000000000E+00  0.00000000000E+00  0.75371306181E+02  0.75371306224E+02  0.25500000000E-02 0. -1.
          2   -1    0    0  501    0  0.00000000000E+00 -0.00000000000E+00 -0.16277693511E+03  0.16277693513E+03  0.25500000000E-02 0.  1.
    5000001    1    1    2    0    0  0.15057990128E+02 -0.64456155538E+02 -0.91276350427E+02  0.13653465201E+03  0.77000000000E+02 0.  0.
   -5000001    1    1    2    0    0 -0.15057990128E+02  0.64456155538E+02  0.38707214991E+01  0.10161358934E+03  0.77000000000E+02 0.  0.
<mgrwt>
<rscale>  0 0.22152842E+03</rscale>
<asrwt>0</asrwt>
<pdfrwt beam="1">  1        2 0.23253848E-01 0.22152842E+03</pdfrwt>
<pdfrwt beam="2">  1       -2 0.10767329E-01 0.22152842E+03</pdfrwt>
<totfact> 0.13402516E+04</totfact>
</mgrwt>
</event>
<event>
 4    1  0.4950349E-004  0.2836520E+03  0.7818608E-02  0.1093711E+00
         -2   -1    0    0    0  501 -0.00000000000E+00  0.00000000000E+00  0.30419810517E+02  0.30419810624E+02  0.25500000000E-02 0. -1.
          2   -1    0    0  501    0  0.00000000000E+00 -0.00000000000E+00 -0.66123424014E+03  0.66123424014E+03  0.25500000000E-02 0.  1.
    5000001    1    1    2    0    0  0.96956383597E+02 -0.39929879355E+02 -0.45314241905E+03  0.47144669638E+03  0.77000000000E+02 0.  0.
   -5000001    1    1    2    0    0 -0.96956383597E+02  0.39929879355E+02 -0.17767201057E+03  0.22020735439E+03  0.77000000000E+02 0.  0.
<mgrwt>
<rscale>  0 0.28365204E+03</rscale>
<asrwt>0</asrwt>
<pdfrwt beam="1">  1        2 0.94462025E-01 0.28365204E+03</pdfrwt>
<pdfrwt beam="2">  1       -2 0.43456876E-02 0.28365204E+03</pdfrwt>
<totfact> 0.11867012E+04</totfact>
</mgrwt>
</event>
<event>
 4    1  0.4950349E-004  0.2878448E+03  0.7818608E-02  0.1091480E+00
         -2   -1    0    0    0  501 -0.00000000000E+00  0.00000000000E+00  0.34812654435E+02  0.34812654529E+02  0.25500000000E-02 0. -1.
          2   -1    0    0  501    0  0.00000000000E+00 -0.00000000000E+00 -0.59500371350E+03  0.59500371350E+03  0.25500000000E-02 0.  1.
    5000001    1    1    2    0    0 -0.56783343550E+02  0.10697000514E+03 -0.30383639321E+03  0.33602452878E+03  0.77000000000E+02 0.  0.
   -5000001    1    1    2    0    0  0.56783343550E+02 -0.10697000514E+03 -0.25635466586E+03  0.29379183925E+03  0.77000000000E+02 0.  0.
<mgrwt>
<rscale>  0 0.28784481E+03</rscale>
<asrwt>0</asrwt>
<pdfrwt beam="1">  1        2 0.85000525E-01 0.28784481E+03</pdfrwt>
<pdfrwt beam="2">  1       -2 0.49732367E-02 0.28784481E+03</pdfrwt>
<totfact> 0.10932886E+04</totfact>
</mgrwt>
</event>
<event>
 4    1  0.4950349E-004  0.2286119E+03  0.7818608E-02  0.1127621E+00
         -2   -1    0    0    0  501 -0.00000000000E+00  0.00000000000E+00  0.55871100692E+02  0.55871100750E+02  0.25500000000E-02 0. -1.
          2   -1    0    0  501    0  0.00000000000E+00 -0.00000000000E+00 -0.23385697964E+03  0.23385697965E+03  0.25500000000E-02 0.  1.
    5000001    1    1    2    0    0  0.35864886225E+01 -0.80890934075E+02 -0.11953128943E+03  0.16362437248E+03  0.77000000000E+02 0.  0.
   -5000001    1    1    2    0    0 -0.35864886225E+01  0.80890934075E+02 -0.58454589514E+02  0.12610370792E+03  0.77000000000E+02 0.  0.
<mgrwt>
<rscale>  0 0.22861187E+03</rscale>
<asrwt>0</asrwt>
<pdfrwt beam="1">  1        2 0.33408139E-01 0.22861187E+03</pdfrwt>
<pdfrwt beam="2">  1       -2 0.79815859E-02 0.22861187E+03</pdfrwt>
<totfact> 0.14435723E+04</totfact>
</mgrwt>
</event>
<event>
 4    1  0.4950349E-004  0.2089253E+03  0.7818608E-02  0.1142420E+00
         -2   -1    0    0    0  501 -0.00000000000E+00  0.00000000000E+00  0.81247893581E+01  0.81247897583E+01  0.25500000000E-02 0. -1.
          2   -1    0    0  501    0  0.00000000000E+00 -0.00000000000E+00 -0.13431051384E+04  0.13431051384E+04  0.25500000000E-02 0.  1.
    5000001    1    1    2    0    0  0.20320017271E+02 -0.67440663877E+02 -0.69803194049E+03  0.70578944183E+03  0.77000000000E+02 0.  0.
   -5000001    1    1    2    0    0 -0.20320017271E+02  0.67440663877E+02 -0.63694840856E+03  0.64544048635E+03  0.77000000000E+02 0.  0.
<mgrwt>
<rscale>  0 0.20892531E+03</rscale>
<asrwt>0</asrwt>
<pdfrwt beam="1">  1        2 0.19187202E+00 0.20892531E+03</pdfrwt>
<pdfrwt beam="2">  1       -2 0.11606851E-02 0.20892531E+03</pdfrwt>
<totfact> 0.31681378E+04</totfact>
</mgrwt>
</event>
<event>
 4    1  0.4950349E-004  0.3110413E+03  0.7818608E-02  0.1079848E+00
          2   -1    0    0  501    0  0.00000000000E+00  0.00000000000E+00  0.69632745515E+02  0.69632745562E+02  0.25500000000E-02 0.  1.
         -2   -1    0    0    0  501 -0.00000000000E+00 -0.00000000000E+00 -0.34734616575E+03  0.34734616576E+03  0.25500000000E-02 0. -1.
    5000001    1    1    2    0    0 -0.96640383917E+02 -0.17812978754E+02 -0.14528241505E+02  0.12568506601E+03  0.77000000000E+02 0.  0.
   -5000001    1    1    2    0    0  0.96640383917E+02  0.17812978754E+02 -0.26318517873E+03  0.29129384532E+03  0.77000000000E+02 0.  0.
<mgrwt>
<rscale>  0 0.31104127E+03</rscale>
<asrwt>0</asrwt>
<pdfrwt beam="1">  1        2 0.99475352E-02 0.31104127E+03</pdfrwt>
<pdfrwt beam="2">  1       -2 0.49620880E-01 0.31104127E+03</pdfrwt>
<totfact> 0.25200301E+03</totfact>
</mgrwt>
</event>
<event>
 4    1  0.4950349E-004  0.2163017E+03  0.7818608E-02  0.1136671E+00
          2   -1    0    0  501    0  0.00000000000E+00  0.00000000000E+00  0.16112065389E+02  0.16112065590E+02  0.25500000000E-02 0.  1.
         -2   -1    0    0    0  501 -0.00000000000E+00 -0.00000000000E+00 -0.72595319673E+03  0.72595319674E+03  0.25500000000E-02 0. -1.
    5000001    1    1    2    0    0 -0.24789550036E+02 -0.47517641865E+02 -0.53951486021E+03  0.54761093165E+03  0.77000000000E+02 0.  0.
   -5000001    1    1    2    0    0  0.24789550036E+02  0.47517641865E+02 -0.17032627113E+03  0.19445433067E+03  0.77000000000E+02 0.  0.
<mgrwt>
<rscale>  0 0.21630169E+03</rscale>
<asrwt>0</asrwt>
<pdfrwt beam="1">  1        2 0.23017241E-02 0.21630169E+03</pdfrwt>
<pdfrwt beam="2">  1       -2 0.10370758E+00 0.21630169E+03</pdfrwt>
<totfact> 0.34961620E+03</totfact>
</mgrwt>
</event>
<event>
 4    1  0.4950349E-004  0.1949339E+03  0.7818608E-02  0.1154085E+00
         -2   -1    0    0    0  501 -0.00000000000E+00  0.00000000000E+00  0.91342805220E+01  0.91342808780E+01  0.25500000000E-02 0. -1.
          2   -1    0    0  501    0  0.00000000000E+00 -0.00000000000E+00 -0.10400170196E+04  0.10400170196E+04  0.25500000000E-02 0.  1.
    5000001    1    1    2    0    0  0.22078952495E+02 -0.55184727758E+02 -0.54860702577E+03  0.55716380270E+03  0.77000000000E+02 0.  0.
   -5000001    1    1    2    0    0 -0.22078952495E+02  0.55184727758E+02 -0.48227571332E+03  0.49198749779E+03  0.77000000000E+02 0.  0.
<mgrwt>
<rscale>  0 0.19493391E+03</rscale>
<asrwt>0</asrwt>
<pdfrwt beam="1">  1        2 0.14857379E+00 0.19493391E+03</pdfrwt>
<pdfrwt beam="2">  1       -2 0.13048979E-02 0.19493391E+03</pdfrwt>
<totfact> 0.38807446E+04</totfact>
</mgrwt>
</event>
<event>
 4    1  0.4950349E-004  0.2478033E+03  0.7818608E-02  0.1114701E+00
          2   -1    0    0  501    0  0.00000000000E+00  0.00000000000E+00  0.27362170115E+04  0.27362170115E+04  0.25500000000E-02 0.  1.
         -2   -1    0    0    0  501 -0.00000000000E+00 -0.00000000000E+00 -0.56105271224E+01  0.56105277019E+01  0.25500000000E-02 0. -1.
    5000001    1    1    2    0    0 -0.49948507808E+02 -0.64928723100E+02  0.19415123416E+04  0.19447647068E+04  0.77000000000E+02 0.  0.
   -5000001    1    1    2    0    0  0.49948507808E+02  0.64928723100E+02  0.78909414279E+03  0.79706283235E+03  0.77000000000E+02 0.  0.
<mgrwt>
<rscale>  0 0.24780331E+03</rscale>
<asrwt>0</asrwt>
<pdfrwt beam="1">  1        2 0.39088804E+00 0.24780331E+03</pdfrwt>
<pdfrwt beam="2">  1       -2 0.80150412E-03 0.24780331E+03</pdfrwt>
<totfact> 0.11185150E+04</totfact>
</mgrwt>
</event>
<event>
 4    1  0.4950349E-004  0.3641584E+03  0.7818608E-02  0.1056949E+00
         -2   -1    0    0    0  501 -0.00000000000E+00  0.00000000000E+00  0.16693555249E+02  0.16693555444E+02  0.25500000000E-02 0. -1.
          2   -1    0    0  501    0  0.00000000000E+00 -0.00000000000E+00 -0.19859663322E+04  0.19859663322E+04  0.25500000000E-02 0.  1.
    5000001    1    1    2    0    0 -0.34030016803E+02  0.14821919687E+03 -0.13366364581E+04  0.13474616854E+04  0.77000000000E+02 0.  0.
   -5000001    1    1    2    0    0  0.34030016803E+02 -0.14821919687E+03 -0.63263631884E+03  0.65519820229E+03  0.77000000000E+02 0.  0.
<mgrwt>
<rscale>  0 0.36415842E+03</rscale>
<asrwt>0</asrwt>
<pdfrwt beam="1">  1        2 0.28370933E+00 0.36415842E+03</pdfrwt>
<pdfrwt beam="2">  1       -2 0.23847949E-02 0.36415842E+03</pdfrwt>
<totfact> 0.53519333E+03</totfact>
</mgrwt>
</event>
<event>
 4    1  0.4950349E-004  0.2350060E+03  0.7818608E-02  0.1123165E+00
          2   -1    0    0  501    0  0.00000000000E+00  0.00000000000E+00  0.28161248136E+03  0.28161248137E+03  0.25500000000E-02 0.  1.
         -2   -1    0    0    0  501 -0.00000000000E+00 -0.00000000000E+00 -0.49028211675E+02  0.49028211741E+02  0.25500000000E-02 0. -1.
    5000001    1    1    2    0    0 -0.34123397874E+02 -0.29569135659E+02  0.87807113394E+01  0.89693037398E+02  0.77000000000E+02 0.  0.
   -5000001    1    1    2    0    0  0.34123397874E+02  0.29569135659E+02  0.22380355834E+03  0.24094765571E+03  0.77000000000E+02 0.  0.
<mgrwt>
<rscale>  0 0.23500601E+03</rscale>
<asrwt>0</asrwt>
<pdfrwt beam="1">  1        2 0.40230354E-01 0.23500601E+03</pdfrwt>
<pdfrwt beam="2">  1       -2 0.70040303E-02 0.23500601E+03</pdfrwt>
<totfact> 0.14488458E+04</totfact>
</mgrwt>
</event>
<event>
 4    1  0.4950349E-004  0.3402825E+03  0.7818608E-02  0.1066676E+00
         -2   -1    0    0    0  501 -0.00000000000E+00  0.00000000000E+00  0.13042629380E+02  0.13042629629E+02  0.25500000000E-02 0. -1.
          2   -1    0    0  501    0  0.00000000000E+00 -0.00000000000E+00 -0.22194941668E+04  0.22194941668E+04  0.25500000000E-02 0.  1.
    5000001    1    1    2    0    0  0.96083898966E+02 -0.10680387025E+03 -0.14232880882E+04  0.14325910667E+04  0.77000000000E+02 0.  0.
   -5000001    1    1    2    0    0 -0.96083898966E+02  0.10680387025E+03 -0.78316344920E+03  0.79994572973E+03  0.77000000000E+02 0.  0.
<mgrwt>
<rscale>  0 0.34028247E+03</rscale>
<asrwt>0</asrwt>
<pdfrwt beam="1">  1        2 0.31707035E+00 0.34028247E+03</pdfrwt>
<pdfrwt beam="2">  1       -2 0.18632342E-02 0.34028247E+03</pdfrwt>
<totfact> 0.59226756E+03</totfact>
</mgrwt>
</event>
<event>
 4    1  0.4950349E-004  0.3501642E+03  0.7818608E-02  0.1062548E+00
         -2   -1    0    0    0  501 -0.00000000000E+00  0.00000000000E+00  0.55923614695E+02  0.55923614753E+02  0.25500000000E-02 0. -1.
          2   -1    0    0  501    0  0.00000000000E+00 -0.00000000000E+00 -0.54813601195E+03  0.54813601195E+03  0.25500000000E-02 0.  1.
    5000001    1    1    2    0    0 -0.74393751377E+02 -0.13709409655E+03 -0.28041419278E+03  0.32998536492E+03  0.77000000000E+02 0.  0.
   -5000001    1    1    2    0    0  0.74393751377E+02  0.13709409655E+03 -0.21179820448E+03  0.27407426178E+03  0.77000000000E+02 0.  0.
<mgrwt>
<rscale>  0 0.35016423E+03</rscale>
<asrwt>0</asrwt>
<pdfrwt beam="1">  1        2 0.78305142E-01 0.35016423E+03</pdfrwt>
<pdfrwt beam="2">  1       -2 0.79890881E-02 0.35016423E+03</pdfrwt>
<totfact> 0.58062354E+03</totfact>
</mgrwt>
</event>
<event>
 4    1  0.4950349E-004  0.1801575E+03  0.7818608E-02  0.1167651E+00
         -2   -1    0    0    0  501 -0.00000000000E+00  0.00000000000E+00  0.18162579413E+03  0.18162579415E+03  0.25500000000E-02 0. -1.
          2   -1    0    0  501    0  0.00000000000E+00 -0.00000000000E+00 -0.44675246596E+02  0.44675246669E+02  0.25500000000E-02 0.  1.
    5000001    1    1    2    0    0 -0.26139588334E+02  0.33717592953E+02  0.44476202949E+02  0.98627008378E+02  0.77000000000E+02 0.  0.
   -5000001    1    1    2    0    0  0.26139588334E+02 -0.33717592953E+02  0.92474344584E+02  0.12767403244E+03  0.77000000000E+02 0.  0.
<mgrwt>
<rscale>  0 0.18015746E+03</rscale>
<asrwt>0</asrwt>
<pdfrwt beam="1">  1        2 0.63821781E-02 0.18015746E+03</pdfrwt>
<pdfrwt beam="2">  1       -2 0.25946542E-01 0.18015746E+03</pdfrwt>
<totfact> 0.14487380E+04</totfact>
</mgrwt>
</event>
<event>
 4    1  0.4950349E-004  0.1824123E+03  0.7818608E-02  0.1165489E+00
          2   -1    0    0  501    0  0.00000000000E+00  0.00000000000E+00  0.34809300927E+03  0.34809300928E+03  0.25500000000E-02 0.  1.
         -2   -1    0    0    0  501 -0.00000000000E+00 -0.00000000000E+00 -0.23897519004E+02  0.23897519140E+02  0.25500000000E-02 0. -1.
    5000001    1    1    2    0    0 -0.34240268129E+02  0.34570469322E+02  0.15252265370E+03  0.17765042416E+03  0.77000000000E+02 0.  0.
   -5000001    1    1    2    0    0  0.34240268129E+02 -0.34570469322E+02  0.17167283656E+03  0.19434010426E+03  0.77000000000E+02 0.  0.
<mgrwt>
<rscale>  0 0.18241227E+03</rscale>
<asrwt>0</asrwt>
<pdfrwt beam="1">  1        2 0.49727569E-01 0.18241227E+03</pdfrwt>
<pdfrwt beam="2">  1       -2 0.34139316E-02 0.18241227E+03</pdfrwt>
<totfact> 0.33595473E+04</totfact>
</mgrwt>
</event>
<event>
 4    1  0.4950349E-004  0.3221544E+03  0.7818608E-02  0.1074662E+00
          2   -1    0    0  501    0  0.00000000000E+00  0.00000000000E+00  0.12796230565E+03  0.12796230567E+03  0.25500000000E-02 0.  1.
         -2   -1    0    0    0  501 -0.00000000000E+00 -0.00000000000E+00 -0.20276174838E+03  0.20276174840E+03  0.25500000000E-02 0. -1.
    5000001    1    1    2    0    0 -0.10196552022E+03 -0.96903546102E+02 -0.52955227794E+02  0.16888019633E+03  0.77000000000E+02 0.  0.
   -5000001    1    1    2    0    0  0.10196552022E+03  0.96903546102E+02 -0.21844214940E+02  0.16184385774E+03  0.77000000000E+02 0.  0.
<mgrwt>
<rscale>  0 0.32215438E+03</rscale>
<asrwt>0</asrwt>
<pdfrwt beam="1">  1        2 0.18280329E-01 0.32215438E+03</pdfrwt>
<pdfrwt beam="2">  1       -2 0.28965964E-01 0.32215438E+03</pdfrwt>
<totfact> 0.33670366E+03</totfact>
</mgrwt>
</event>
<event>
 4    1  0.4950349E-004  0.3138253E+03  0.7818608E-02  0.1078527E+00
         -2   -1    0    0    0  501 -0.00000000000E+00  0.00000000000E+00  0.32217548523E+02  0.32217548624E+02  0.25500000000E-02 0. -1.
          2   -1    0    0  501    0  0.00000000000E+00 -0.00000000000E+00 -0.76422905842E+03  0.76422905842E+03  0.25500000000E-02 0.  1.
    5000001    1    1    2    0    0 -0.23332432800E+02 -0.12204273431E+03 -0.51076993074E+03  0.53127559097E+03  0.77000000000E+02 0.  0.
   -5000001    1    1    2    0    0  0.23332432800E+02  0.12204273431E+03 -0.22124157916E+03  0.26517101607E+03  0.77000000000E+02 0.  0.
<mgrwt>
<rscale>  0 0.31382535E+03</rscale>
<asrwt>0</asrwt>
<pdfrwt beam="1">  1        2 0.10917557E+00 0.31382535E+03</pdfrwt>
<pdfrwt beam="2">  1       -2 0.46025074E-02 0.31382535E+03</pdfrwt>
<totfact> 0.91805226E+03</totfact>
</mgrwt>
</event>
<event>
 4    1  0.4950349E-004  0.2771294E+03  0.7818608E-02  0.1097267E+00
          2   -1    0    0  501    0  0.00000000000E+00  0.00000000000E+00  0.28652807776E+03  0.28652807777E+03  0.25500000000E-02 0.  1.
         -2   -1    0    0    0  501 -0.00000000000E+00 -0.00000000000E+00 -0.67009735222E+02  0.67009735271E+02  0.25500000000E-02 0. -1.
    5000001    1    1    2    0    0 -0.50416291201E+02  0.10054144379E+03  0.77974011966E+02  0.15703289744E+03  0.77000000000E+02 0.  0.
   -5000001    1    1    2    0    0  0.50416291201E+02 -0.10054144379E+03  0.14154433057E+03  0.19650491560E+03  0.77000000000E+02 0.  0.
<mgrwt>
<rscale>  0 0.27712936E+03</rscale>
<asrwt>0</asrwt>
<pdfrwt beam="1">  1        2 0.40932583E-01 0.27712936E+03</pdfrwt>
<pdfrwt beam="2">  1       -2 0.95728193E-02 0.27712936E+03</pdfrwt>
<totfact> 0.87974319E+03</totfact>
</mgrwt>
</event>
<event>
 4    1  0.4950349E-004  0.1822825E+03  0.7818608E-02  0.1165612E+00
          2   -1    0    0  501    0  0.00000000000E+00  0.00000000000E+00  0.40460128521E+03  0.40460128522E+03  0.25500000000E-02 0.  1.
         -2   -1    0    0    0  501 -0.00000000000E+00 -0.00000000000E+00 -0.20530642148E+02  0.20530642307E+02  0.25500000000E-02 0. -1.
    5000001    1    1    2    0    0  0.21130661786E+02 -0.42233551679E+02  0.22036510505E+03  0.23815952065E+03  0.77000000000E+02 0.  0.
   -5000001    1    1    2    0    0 -0.21130661786E+02  0.42233551679E+02  0.16370553801E+03  0.18697240687E+03  0.77000000000E+02 0.  0.
<mgrwt>
<rscale>  0 0.18228246E+03</rscale>
<asrwt>0</asrwt>
<pdfrwt beam="1">  1        2 0.57800173E-01 0.18228246E+03</pdfrwt>
<pdfrwt beam="2">  1       -2 0.29329494E-02 0.18228246E+03</pdfrwt>
<totfact> 0.35808277E+04</totfact>
</mgrwt>
</event>
<event>
 4    1  0.4950349E-004  0.3451123E+03  0.7818608E-02  0.1064639E+00
          2   -1    0    0  501    0  0.00000000000E+00  0.00000000000E+00  0.33464082588E+03  0.33464082589E+03  0.25500000000E-02 0.  1.
         -2   -1    0    0    0  501 -0.00000000000E+00 -0.00000000000E+00 -0.88977856816E+02  0.88977856853E+02  0.25500000000E-02 0. -1.
    5000001    1    1    2    0    0  0.21223892019E+02  0.14593002432E+03  0.17908972459E+03  0.24443435734E+03  0.77000000000E+02 0.  0.
   -5000001    1    1    2    0    0 -0.21223892019E+02 -0.14593002432E+03  0.66573244467E+02  0.17918432540E+03  0.77000000000E+02 0.  0.
<mgrwt>
<rscale>  0 0.34511229E+03</rscale>
<asrwt>0</asrwt>
<pdfrwt beam="1">  1        2 0.47805833E-01 0.34511229E+03</pdfrwt>
<pdfrwt beam="2">  1       -2 0.12711122E-01 0.34511229E+03</pdfrwt>
<totfact> 0.47507144E+03</totfact>
</mgrwt>
</event>
<event>
 4    1  0.4950349E-004  0.2578412E+03  0.7818608E-02  0.1108447E+00
         -2   -1    0    0    0  501 -0.00000000000E+00  0.00000000000E+00  0.51028213178E+02  0.51028213241E+02  0.25500000000E-02 0. -1.
          2   -1    0    0  501    0  0.00000000000E+00 -0.00000000000E+00 -0.32571242280E+03  0.32571242281E+03  0.25500000000E-02 0.  1.
    5000001    1    1    2    0    0 -0.10240648414E+03 -0.43583333908E+00 -0.11646040437E+03  0.17314532547E+03  0.77000000000E+02 0.  0.
   -5000001    1    1    2    0    0  0.10240648414E+03  0.43583333908E+00 -0.15822380525E+03  0.20359531058E+03  0.77000000000E+02 0.  0.
<mgrwt>
<rscale>  0 0.25784121E+03</rscale>
<asrwt>0</asrwt>
<pdfrwt beam="1">  1        2 0.46530345E-01 0.25784121E+03</pdfrwt>
<pdfrwt beam="2">  1       -2 0.72897449E-02 0.25784121E+03</pdfrwt>
<totfact> 0.11707495E+04</totfact>
</mgrwt>
</event>
<event>
 4    1  0.4950349E-004  0.2065939E+03  0.7818608E-02  0.1144292E+00
          2   -1    0    0  501    0  0.00000000000E+00  0.00000000000E+00  0.28623001121E+04  0.28623001121E+04  0.25500000000E-02 0.  1.
         -2   -1    0    0    0  501 -0.00000000000E+00 -0.00000000000E+00 -0.37278604332E+01  0.37278613054E+01  0.25500000000E-02 0. -1.
    5000001    1    1    2    0    0  0.93486860584E+01 -0.68068521430E+02  0.13664208471E+04  0.13703122465E+04  0.77000000000E+02 0.  0.
   -5000001    1    1    2    0    0 -0.93486860584E+01  0.68068521430E+02  0.14921514046E+04  0.14957157269E+04  0.77000000000E+02 0.  0.
<mgrwt>
<rscale>  0 0.20659387E+03</rscale>
<asrwt>0</asrwt>
<pdfrwt beam="1">  1        2 0.40890111E+00 0.20659387E+03</pdfrwt>
<pdfrwt beam="2">  1       -2 0.53255012E-03 0.20659387E+03</pdfrwt>
<totfact> 0.17300039E+04</totfact>
</mgrwt>
</event>
<event>
 4    1  0.4950349E-004  0.2172219E+03  0.7818608E-02  0.1135971E+00
          2   -1    0    0  501    0  0.00000000000E+00  0.00000000000E+00  0.77225034698E+03  0.77225034698E+03  0.25500000000E-02 0.  1.
         -2   -1    0    0    0  501 -0.00000000000E+00 -0.00000000000E+00 -0.15275273623E+02  0.15275273836E+02  0.25500000000E-02 0. -1.
    5000001    1    1    2    0    0 -0.18748831263E+01  0.74871091046E+02  0.43673657709E+03  0.44975219091E+03  0.77000000000E+02 0.  0.
   -5000001    1    1    2    0    0  0.18748831263E+01 -0.74871091046E+02  0.32023849627E+03  0.33777342991E+03  0.77000000000E+02 0.  0.
<mgrwt>
<rscale>  0 0.21722187E+03</rscale>
<asrwt>0</asrwt>
<pdfrwt beam="1">  1        2 0.11032151E+00 0.21722187E+03</pdfrwt>
<pdfrwt beam="2">  1       -2 0.21821813E-02 0.21722187E+03</pdfrwt>
<totfact> 0.27100571E+04</totfact>
</mgrwt>
</event>
<event>
 4    1  0.4950349E-004  0.2333693E+03  0.7818608E-02  0.1124291E+00
          2   -1    0    0  501    0  0.00000000000E+00  0.00000000000E+00  0.35232065494E+04  0.35232065494E+04  0.25500000000E-02 0.  1.
         -2   -1    0    0    0  501 -0.00000000000E+00 -0.00000000000E+00 -0.38644631111E+01  0.38644639524E+01  0.25500000000E-02 0. -1.
    5000001    1    1    2    0    0 -0.20680265104E+02 -0.85101188135E+02  0.18209097388E+04  0.18246400090E+04  0.77000000000E+02 0.  0.
   -5000001    1    1    2    0    0  0.20680265104E+02  0.85101188135E+02  0.16984323475E+04  0.17024310043E+04  0.77000000000E+02 0.  0.
<mgrwt>
<rscale>  0 0.23336926E+03</rscale>
<asrwt>0</asrwt>
<pdfrwt beam="1">  1        2 0.50331655E+00 0.23336926E+03</pdfrwt>
<pdfrwt beam="2">  1       -2 0.55206477E-03 0.23336926E+03</pdfrwt>
<totfact> 0.71818292E+03</totfact>
</mgrwt>
</event>
<event>
 4    1  0.4950349E-004  0.3613610E+03  0.7818608E-02  0.1058046E+00
         -2   -1    0    0    0  501 -0.00000000000E+00  0.00000000000E+00  0.68853211812E+02  0.68853211859E+02  0.25500000000E-02 0. -1.
          2   -1    0    0  501    0  0.00000000000E+00 -0.00000000000E+00 -0.47413099938E+03  0.47413099938E+03  0.25500000000E-02 0.  1.
    5000001    1    1    2    0    0  0.17939812986E+02 -0.15108844683E+03 -0.29237982516E+03  0.33847380669E+03  0.77000000000E+02 0.  0.
   -5000001    1    1    2    0    0 -0.17939812986E+02  0.15108844683E+03 -0.11289796241E+03  0.20451040455E+03  0.77000000000E+02 0.  0.
<mgrwt>
<rscale>  0 0.36136099E+03</rscale>
<asrwt>0</asrwt>
<pdfrwt beam="1">  1        2 0.67732998E-01 0.36136099E+03</pdfrwt>
<pdfrwt beam="2">  1       -2 0.98361734E-02 0.36136099E+03</pdfrwt>
<totfact> 0.49163302E+03</totfact>
</mgrwt>
</event>
<event>
 4    1  0.4950349E-004  0.1824337E+03  0.7818608E-02  0.1165468E+00
          2   -1    0    0  501    0  0.00000000000E+00  0.00000000000E+00  0.68829038859E+03  0.68829038860E+03  0.25500000000E-02 0.  1.
         -2   -1    0    0    0  501 -0.00000000000E+00 -0.00000000000E+00 -0.12088662758E+02  0.12088663027E+02  0.25500000000E-02 0. -1.
    5000001    1    1    2    0    0 -0.44734738239E+02  0.44938395466E+01  0.41195909459E+03  0.42149814592E+03  0.77000000000E+02 0.  0.
   -5000001    1    1    2    0    0  0.44734738239E+02 -0.44938395466E+01  0.26424263125E+03  0.27888090571E+03  0.77000000000E+02 0.  0.
<mgrwt>
<rscale>  0 0.18243366E+03</rscale>
<asrwt>0</asrwt>
<pdfrwt beam="1">  1        2 0.98327184E-01 0.18243366E+03</pdfrwt>
<pdfrwt beam="2">  1       -2 0.17269521E-02 0.18243366E+03</pdfrwt>
<totfact> 0.43160126E+04</totfact>
</mgrwt>
</event>
<event>
 4    1  0.4950349E-004  0.3184353E+03  0.7818608E-02  0.1076372E+00
         -2   -1    0    0    0  501 -0.00000000000E+00  0.00000000000E+00  0.13097385379E+02  0.13097385627E+02  0.25500000000E-02 0. -1.
          2   -1    0    0  501    0  0.00000000000E+00 -0.00000000000E+00 -0.19355202759E+04  0.19355202759E+04  0.25500000000E-02 0.  1.
    5000001    1    1    2    0    0 -0.13309428159E+03  0.31136344788E+02 -0.79500646911E+03  0.81033810578E+03  0.77000000000E+02 0.  0.
   -5000001    1    1    2    0    0  0.13309428159E+03 -0.31136344788E+02 -0.11274164214E+04  0.11382795558E+04  0.77000000000E+02 0.  0.
<mgrwt>
<rscale>  0 0.31843527E+03</rscale>
<asrwt>0</asrwt>
<pdfrwt beam="1">  1        2 0.27650271E+00 0.31843527E+03</pdfrwt>
<pdfrwt beam="2">  1       -2 0.18710563E-02 0.31843527E+03</pdfrwt>
<totfact> 0.81154368E+03</totfact>
</mgrwt>
</event>
<event>
 4    1  0.4950349E-004  0.2594621E+03  0.7818608E-02  0.1107467E+00
         -2   -1    0    0    0  501 -0.00000000000E+00  0.00000000000E+00  0.84009964356E+02  0.84009964395E+02  0.25500000000E-02 0. -1.
          2   -1    0    0  501    0  0.00000000000E+00 -0.00000000000E+00 -0.20033505200E+03  0.20033505202E+03  0.25500000000E-02 0.  1.
    5000001    1    1    2    0    0  0.74563806810E+02 -0.18867335067E+02 -0.13554132547E+03  0.17382804299E+03  0.77000000000E+02 0.  0.
   -5000001    1    1    2    0    0 -0.74563806810E+02  0.18867335067E+02  0.19216237826E+02  0.11051697342E+03  0.77000000000E+02 0.  0.
<mgrwt>
<rscale>  0 0.25946206E+03</rscale>
<asrwt>0</asrwt>
<pdfrwt beam="1">  1        2 0.28619293E-01 0.25946206E+03</pdfrwt>
<pdfrwt beam="2">  1       -2 0.12001424E-01 0.25946206E+03</pdfrwt>
<totfact> 0.90194052E+03</totfact>
</mgrwt>
</event>
<event>
 4    1  0.4950349E-004  0.1582437E+03  0.7818608E-02  0.1190694E+00
         -2   -1    0    0    0  501 -0.00000000000E+00  0.00000000000E+00  0.24778429516E+02  0.24778429648E+02  0.25500000000E-02 0. -1.
          2   -1    0    0  501    0  0.00000000000E+00 -0.00000000000E+00 -0.25264972279E+03  0.25264972280E+03  0.25500000000E-02 0.  1.
    5000001    1    1    2    0    0 -0.12244933099E+02  0.10805245112E+02 -0.99847780803E+02  0.12714271918E+03  0.77000000000E+02 0.  0.
   -5000001    1    1    2    0    0  0.12244933099E+02 -0.10805245112E+02 -0.12802351247E+03  0.15028543327E+03  0.77000000000E+02 0.  0.
<mgrwt>
<rscale>  0 0.15824365E+03</rscale>
<asrwt>0</asrwt>
<pdfrwt beam="1">  1        2 0.36092816E-01 0.15824365E+03</pdfrwt>
<pdfrwt beam="2">  1       -2 0.35397758E-02 0.15824365E+03</pdfrwt>
<totfact> 0.44209852E+04</totfact>
</mgrwt>
</event>
<event>
 4    1  0.4950349E-004  0.2515574E+03  0.7818608E-02  0.1112325E+00
         -2   -1    0    0    0  501 -0.00000000000E+00  0.00000000000E+00  0.21884476186E+02  0.21884476335E+02  0.25500000000E-02 0. -1.
          2   -1    0    0  501    0  0.00000000000E+00 -0.00000000000E+00 -0.72289966220E+03  0.72289966220E+03  0.25500000000E-02 0.  1.
    5000001    1    1    2    0    0  0.19917963209E+02  0.97080567650E+02 -0.32575106281E+03  0.34909041350E+03  0.77000000000E+02 0.  0.
   -5000001    1    1    2    0    0 -0.19917963209E+02 -0.97080567650E+02 -0.37526412320E+03  0.39569372504E+03  0.77000000000E+02 0.  0.
<mgrwt>
<rscale>  0 0.25155739E+03</rscale>
<asrwt>0</asrwt>
<pdfrwt beam="1">  1        2 0.10327137E+00 0.25155739E+03</pdfrwt>
<pdfrwt beam="2">  1       -2 0.31263542E-02 0.25155739E+03</pdfrwt>
<totfact> 0.17400917E+04</totfact>
</mgrwt>
</event>
<event>
 4    1  0.4950349E-004  0.1931365E+03  0.7818608E-02  0.1155662E+00
          2   -1    0    0  501    0  0.00000000000E+00  0.00000000000E+00  0.18355606288E+04  0.18355606288E+04  0.25500000000E-02 0.  1.
         -2   -1    0    0    0  501 -0.00000000000E+00 -0.00000000000E+00 -0.50804264768E+01  0.50804271168E+01  0.25500000000E-02 0. -1.
    5000001    1    1    2    0    0 -0.53214169589E+02  0.14252985238E+02  0.10964493678E+04  0.11005294688E+04  0.77000000000E+02 0.  0.
   -5000001    1    1    2    0    0  0.53214169589E+02 -0.14252985238E+02  0.73403083448E+03  0.74011158713E+03  0.77000000000E+02 0.  0.
<mgrwt>
<rscale>  0 0.19313655E+03</rscale>
<asrwt>0</asrwt>
<pdfrwt beam="1">  1        2 0.26222324E+00 0.19313655E+03</pdfrwt>
<pdfrwt beam="2">  1       -2 0.72577445E-03 0.19313655E+03</pdfrwt>
<totfact> 0.35372449E+04</totfact>
</mgrwt>
</event>
<event>
 4    1  0.4950349E-004  0.4151327E+03  0.7818608E-02  0.1038662E+00
          2   -1    0    0  501    0  0.00000000000E+00  0.00000000000E+00  0.40951618942E+03  0.40951618943E+03  0.25500000000E-02 0.  1.
         -2   -1    0    0    0  501 -0.00000000000E+00 -0.00000000000E+00 -0.10520654490E+03  0.10520654493E+03  0.25500000000E-02 0. -1.
    5000001    1    1    2    0    0  0.17010172397E+03 -0.37076734811E+02  0.49568583136E+02  0.19671127369E+03  0.77000000000E+02 0.  0.
   -5000001    1    1    2    0    0 -0.17010172397E+03  0.37076734811E+02  0.25474106138E+03  0.31801146067E+03  0.77000000000E+02 0.  0.
<mgrwt>
<rscale>  0 0.41513267E+03</rscale>
<asrwt>0</asrwt>
<pdfrwt beam="1">  1        2 0.58502313E-01 0.41513267E+03</pdfrwt>
<pdfrwt beam="2">  1       -2 0.15029506E-01 0.41513267E+03</pdfrwt>
<totfact> 0.29011321E+03</totfact>
</mgrwt>
</event>
<event>
 4    1  0.4950349E-004  0.2306953E+03  0.7818608E-02  0.1126151E+00
         -2   -1    0    0    0  501 -0.00000000000E+00  0.00000000000E+00  0.82870399767E+01  0.82870403690E+01  0.25500000000E-02 0. -1.
          2   -1    0    0  501    0  0.00000000000E+00 -0.00000000000E+00 -0.16055285258E+04  0.16055285258E+04  0.25500000000E-02 0.  1.
    5000001    1    1    2    0    0 -0.23180486025E+02 -0.81895642152E+02 -0.71829544038E+03  0.72740743109E+03  0.77000000000E+02 0.  0.
   -5000001    1    1    2    0    0  0.23180486025E+02  0.81895642152E+02 -0.87894604549E+03  0.88640813513E+03  0.77000000000E+02 0.  0.
<mgrwt>
<rscale>  0 0.23069529E+03</rscale>
<asrwt>0</asrwt>
<pdfrwt beam="1">  1        2 0.22936102E+00 0.23069529E+03</pdfrwt>
<pdfrwt beam="2">  1       -2 0.11838639E-02 0.23069529E+03</pdfrwt>
<totfact> 0.22825818E+04</totfact>
</mgrwt>
</event>
<event>
 4    1  0.4950349E-004  0.2103729E+03  0.7818608E-02  0.1141271E+00
          2   -1    0    0  501    0  0.00000000000E+00  0.00000000000E+00  0.79984169595E+02  0.79984169636E+02  0.25500000000E-02 0.  1.
         -2   -1    0    0    0  501 -0.00000000000E+00 -0.00000000000E+00 -0.13832978382E+03  0.13832978384E+03  0.25500000000E-02 0. -1.
    5000001    1    1    2    0    0 -0.20958407333E+01 -0.39466261576E+02  0.32859963090E+02  0.92578375042E+02  0.77000000000E+02 0.  0.
   -5000001    1    1    2    0    0  0.20958407333E+01  0.39466261576E+02 -0.91205577311E+02  0.12573557843E+03  0.77000000000E+02 0.  0.
<mgrwt>
<rscale>  0 0.21037293E+03</rscale>
<asrwt>0</asrwt>
<pdfrwt beam="1">  1        2 0.11426310E-01 0.21037293E+03</pdfrwt>
<pdfrwt beam="2">  1       -2 0.19761398E-01 0.21037293E+03</pdfrwt>
<totfact> 0.11305037E+04</totfact>
</mgrwt>
</event>
<event>
 4    1  0.4950349E-004  0.2270051E+03  0.7818608E-02  0.1128766E+00
         -2   -1    0    0    0  501 -0.00000000000E+00  0.00000000000E+00  0.16488375652E+02  0.16488375849E+02  0.25500000000E-02 0. -1.
          2   -1    0    0  501    0  0.00000000000E+00 -0.00000000000E+00 -0.78132781504E+03  0.78132781504E+03  0.25500000000E-02 0.  1.
    5000001    1    1    2    0    0 -0.51986138112E+02  0.63628253030E+02 -0.43245871318E+03  0.44687878865E+03  0.77000000000E+02 0.  0.
   -5000001    1    1    2    0    0  0.51986138112E+02 -0.63628253030E+02 -0.33238072621E+03  0.35093740224E+03  0.77000000000E+02 0.  0.
<mgrwt>
<rscale>  0 0.22700508E+03</rscale>
<asrwt>0</asrwt>
<pdfrwt beam="1">  1        2 0.11161824E+00 0.22700508E+03</pdfrwt>
<pdfrwt beam="2">  1       -2 0.23554827E-02 0.22700508E+03</pdfrwt>
<totfact> 0.23946877E+04</totfact>
</mgrwt>
</event>
<event>
 4    1  0.4950349E-004  0.3539360E+03  0.7818608E-02  0.1061011E+00
         -2   -1    0    0    0  501 -0.00000000000E+00  0.00000000000E+00  0.56347902421E+02  0.56347902479E+02  0.25500000000E-02 0. -1.
          2   -1    0    0  501    0  0.00000000000E+00 -0.00000000000E+00 -0.55579126441E+03  0.55579126442E+03  0.25500000000E-02 0.  1.
    5000001    1    1    2    0    0 -0.97471653825E+02 -0.11710840900E+03 -0.33035456105E+03  0.37185782064E+03  0.77000000000E+02 0.  0.
   -5000001    1    1    2    0    0  0.97471653825E+02  0.11710840900E+03 -0.16908880093E+03  0.24028134626E+03  0.77000000000E+02 0.  0.
<mgrwt>
<rscale>  0 0.35393599E+03</rscale>
<asrwt>0</asrwt>
<pdfrwt beam="1">  1        2 0.79398749E-01 0.35393599E+03</pdfrwt>
<pdfrwt beam="2">  1       -2 0.80497007E-02 0.35393599E+03</pdfrwt>
<totfact> 0.56495298E+03</totfact>
</mgrwt>
</event>
<event>
 4    1  0.4950349E-004  0.2668937E+03  0.7818608E-02  0.1103071E+00
          2   -1    0    0  501    0  0.00000000000E+00  0.00000000000E+00  0.61554392011E+03  0.61554392012E+03  0.25500000000E-02 0.  1.
         -2   -1    0    0    0  501 -0.00000000000E+00 -0.00000000000E+00 -0.28930600246E+02  0.28930600359E+02  0.25500000000E-02 0. -1.
    5000001    1    1    2    0    0 -0.71687985281E+02 -0.22433887934E+02  0.10261058503E+03  0.14866196125E+03  0.77000000000E+02 0.  0.
   -5000001    1    1    2    0    0  0.71687985281E+02  0.22433887934E+02  0.48400273484E+03  0.49581255923E+03  0.77000000000E+02 0.  0.
<mgrwt>
<rscale>  0 0.26689365E+03</rscale>
<asrwt>0</asrwt>
<pdfrwt beam="1">  1        2 0.87934840E-01 0.26689365E+03</pdfrwt>
<pdfrwt beam="2">  1       -2 0.41329432E-02 0.26689365E+03</pdfrwt>
<totfact> 0.13870760E+04</totfact>
</mgrwt>
</event>
<event>
 4    1  0.4950349E-004  0.1695670E+03  0.7818608E-02  0.1178300E+00
          2   -1    0    0  501    0  0.00000000000E+00  0.00000000000E+00  0.21054536708E+04  0.21054536708E+04  0.25500000000E-02 0.  1.
         -2   -1    0    0    0  501 -0.00000000000E+00 -0.00000000000E+00 -0.34141071221E+01  0.34141080744E+01  0.25500000000E-02 0. -1.
    5000001    1    1    2    0    0  0.49427116349E+01  0.34111885897E+02  0.11559571768E+04  0.11590315120E+04  0.77000000000E+02 0.  0.
   -5000001    1    1    2    0    0 -0.49427116349E+01 -0.34111885897E+02  0.94608238684E+03  0.94983626687E+03  0.77000000000E+02 0.  0.
<mgrwt>
<rscale>  0 0.16956704E+03</rscale>
<asrwt>0</asrwt>
<pdfrwt beam="1">  1        2 0.30077852E+00 0.16956704E+03</pdfrwt>
<pdfrwt beam="2">  1       -2 0.48773060E-03 0.16956704E+03</pdfrwt>
<totfact> 0.45943055E+04</totfact>
</mgrwt>
</event>
<event>
 4    1  0.4950349E-004  0.2966165E+03  0.7818608E-02  0.1086944E+00
          2   -1    0    0  501    0  0.00000000000E+00  0.00000000000E+00  0.27702299696E+04  0.27702299696E+04  0.25500000000E-02 0.  1.
         -2   -1    0    0    0  501 -0.00000000000E+00 -0.00000000000E+00 -0.79398939063E+01  0.79398943158E+01  0.25500000000E-02 0. -1.
    5000001    1    1    2    0    0 -0.26987303424E+02  0.13983635103E+02  0.22858918426E+03  0.24311699191E+03  0.77000000000E+02 0.  0.
   -5000001    1    1    2    0    0  0.26987303424E+02 -0.13983635103E+02  0.25337008915E+04  0.25350528720E+04  0.77000000000E+02 0.  0.
<mgrwt>
<rscale>  0 0.29661647E+03</rscale>
<asrwt>0</asrwt>
<pdfrwt beam="1">  1        2 0.39574758E+00 0.29661647E+03</pdfrwt>
<pdfrwt beam="2">  1       -2 0.11342693E-02 0.29661647E+03</pdfrwt>
<totfact> 0.64929240E+03</totfact>
</mgrwt>
</event>
<event>
 4    1  0.4950349E-004  0.1849237E+03  0.7818608E-02  0.1163121E+00
         -2   -1    0    0    0  501 -0.00000000000E+00  0.00000000000E+00  0.17514914289E+03  0.17514914291E+03  0.25500000000E-02 0. -1.
          2   -1    0    0  501    0  0.00000000000E+00 -0.00000000000E+00 -0.48810945031E+02  0.48810945097E+02  0.25500000000E-02 0.  1.
    5000001    1    1    2    0    0 -0.20802297224E+02 -0.39987057864E+02  0.92548933289E+02  0.12855351189E+03  0.77000000000E+02 0.  0.
   -5000001    1    1    2    0    0  0.20802297224E+02  0.39987057864E+02  0.33789264574E+02  0.95406576120E+02  0.77000000000E+02 0.  0.
<mgrwt>
<rscale>  0 0.18492372E+03</rscale>
<asrwt>0</asrwt>
<pdfrwt beam="1">  1        2 0.69729922E-02 0.18492372E+03</pdfrwt>
<pdfrwt beam="2">  1       -2 0.25021306E-01 0.18492372E+03</pdfrwt>
<totfact> 0.13813442E+04</totfact>
</mgrwt>
</event>
<event>
 4    1  0.4950349E-004  0.1930880E+03  0.7818608E-02  0.1155705E+00
          2   -1    0    0  501    0  0.00000000000E+00  0.00000000000E+00  0.90273872123E+03  0.90273872123E+03  0.25500000000E-02 0.  1.
         -2   -1    0    0    0  501 -0.00000000000E+00 -0.00000000000E+00 -0.10324960896E+02  0.10324961211E+02  0.25500000000E-02 0. -1.
    5000001    1    1    2    0    0  0.12423065571E+02 -0.19455904812E+02  0.19336815696E+03  0.20941133904E+03  0.77000000000E+02 0.  0.
   -5000001    1    1    2    0    0 -0.12423065571E+02  0.19455904812E+02  0.69904560337E+03  0.70365234340E+03  0.77000000000E+02 0.  0.
<mgrwt>
<rscale>  0 0.19308798E+03</rscale>
<asrwt>0</asrwt>
<pdfrwt beam="1">  1        2 0.12896271E+00 0.19308798E+03</pdfrwt>
<pdfrwt beam="2">  1       -2 0.14749940E-02 0.19308798E+03</pdfrwt>
<totfact> 0.39166185E+04</totfact>
</mgrwt>
</event>
<event>
 4    1  0.4950349E-004  0.2178096E+03  0.7818608E-02  0.1135527E+00
          2   -1    0    0  501    0  0.00000000000E+00  0.00000000000E+00  0.18324359502E+02  0.18324359679E+02  0.25500000000E-02 0.  1.
         -2   -1    0    0    0  501 -0.00000000000E+00 -0.00000000000E+00 -0.64723989926E+03  0.64723989927E+03  0.25500000000E-02 0. -1.
    5000001    1    1    2    0    0  0.42740420889E+02  0.19812992060E+02 -0.12828570975E+03  0.15686147251E+03  0.77000000000E+02 0.  0.
   -5000001    1    1    2    0    0 -0.42740420889E+02 -0.19812992060E+02 -0.50062983001E+03  0.50870278643E+03  0.77000000000E+02 0.  0.
<mgrwt>
<rscale>  0 0.21780961E+03</rscale>
<asrwt>0</asrwt>
<pdfrwt beam="1">  1        2 0.26177661E-02 0.21780961E+03</pdfrwt>
<pdfrwt beam="2">  1       -2 0.92462828E-01 0.21780961E+03</pdfrwt>
<totfact> 0.38218017E+03</totfact>
</mgrwt>
</event>
<event>
 4    1  0.4950349E-004  0.2774244E+03  0.7818608E-02  0.1097104E+00
          2   -1    0    0  501    0  0.00000000000E+00  0.00000000000E+00  0.72124224098E+03  0.72124224098E+03  0.25500000000E-02 0.  1.
         -2   -1    0    0    0  501 -0.00000000000E+00 -0.00000000000E+00 -0.26677678332E+02  0.26677678453E+02  0.25500000000E-02 0. -1.
    5000001    1    1    2    0    0  0.94852699569E+02  0.37054822625E+02  0.49351007596E+03  0.50975610793E+03  0.77000000000E+02 0.  0.
   -5000001    1    1    2    0    0 -0.94852699569E+02 -0.37054822625E+02  0.20105448668E+03  0.23816381151E+03  0.77000000000E+02 0.  0.
<mgrwt>
<rscale>  0 0.27742436E+03</rscale>
<asrwt>0</asrwt>
<pdfrwt beam="1">  1        2 0.10303459E+00 0.27742436E+03</pdfrwt>
<pdfrwt beam="2">  1       -2 0.38110973E-02 0.27742436E+03</pdfrwt>
<totfact> 0.13036742E+04</totfact>
</mgrwt>
</event>
<event>
 4    1  0.4950349E-004  0.2476359E+03  0.7818608E-02  0.1114808E+00
          2   -1    0    0  501    0  0.00000000000E+00  0.00000000000E+00  0.90777300592E+03  0.90777300593E+03  0.25500000000E-02 0.  1.
         -2   -1    0    0    0  501 -0.00000000000E+00 -0.00000000000E+00 -0.16888450761E+02  0.16888450954E+02  0.25500000000E-02 0. -1.
    5000001    1    1    2    0    0 -0.57571200505E+02  0.66538590337E+02  0.59757763324E+03  0.60890874101E+03  0.77000000000E+02 0.  0.
   -5000001    1    1    2    0    0  0.57571200505E+02 -0.66538590337E+02  0.29330692193E+03  0.31575271587E+03  0.77000000000E+02 0.  0.
<mgrwt>
<rscale>  0 0.24763586E+03</rscale>
<asrwt>0</asrwt>
<pdfrwt beam="1">  1        2 0.12968184E+00 0.24763586E+03</pdfrwt>
<pdfrwt beam="2">  1       -2 0.24126362E-02 0.24763586E+03</pdfrwt>
<totfact> 0.19236105E+04</totfact>
</mgrwt>
</event>
<event>
 4    1  0.4950349E-004  0.2098918E+03  0.7818608E-02  0.1141652E+00
         -2   -1    0    0    0  501 -0.00000000000E+00  0.00000000000E+00  0.78942364069E+01  0.78942368187E+01  0.25500000000E-02 0. -1.
          2   -1    0    0  501    0  0.00000000000E+00 -0.00000000000E+00 -0.13951492852E+04  0.13951492852E+04  0.25500000000E-02 0.  1.
    5000001    1    1    2    0    0  0.47027856754E+02 -0.44361187291E+02 -0.89473353765E+03  0.90036472479E+03  0.77000000000E+02 0.  0.
   -5000001    1    1    2    0    0 -0.47027856754E+02  0.44361187291E+02 -0.49252151118E+03  0.50267879727E+03  0.77000000000E+02 0.  0.
<mgrwt>
<rscale>  0 0.20989177E+03</rscale>
<asrwt>0</asrwt>
<pdfrwt beam="1">  1        2 0.19930688E+00 0.20989177E+03</pdfrwt>
<pdfrwt beam="2">  1       -2 0.11277490E-02 0.20989177E+03</pdfrwt>
<totfact> 0.31068293E+04</totfact>
</mgrwt>
</event>
<event>
 4    1  0.4950349E-004  0.2588606E+03  0.7818608E-02  0.1107830E+00
         -2   -1    0    0    0  501 -0.00000000000E+00  0.00000000000E+00  0.72284481890E+01  0.72284486388E+01  0.25500000000E-02 0. -1.
          2   -1    0    0  501    0  0.00000000000E+00 -0.00000000000E+00 -0.23175385923E+04  0.23175385923E+04  0.25500000000E-02 0.  1.
    5000001    1    1    2    0    0  0.39779482490E+02 -0.20115476982E+02 -0.19993551905E+04  0.20013338596E+04  0.77000000000E+02 0.  0.
   -5000001    1    1    2    0    0 -0.39779482490E+02  0.20115476982E+02 -0.31095495356E+03  0.32343318133E+03  0.77000000000E+02 0.  0.
<mgrwt>
<rscale>  0 0.25886064E+03</rscale>
<asrwt>0</asrwt>
<pdfrwt beam="1">  1        2 0.33107647E+00 0.25886064E+03</pdfrwt>
<pdfrwt beam="2">  1       -2 0.10326370E-02 0.25886064E+03</pdfrwt>
<totfact> 0.12551159E+04</totfact>
</mgrwt>
</event>
<event>
 4    1  0.4950349E-004  0.2613172E+03  0.7818608E-02  0.1106354E+00
          2   -1    0    0  501    0  0.00000000000E+00  0.00000000000E+00  0.12815213439E+04  0.12815213439E+04  0.25500000000E-02 0.  1.
         -2   -1    0    0    0  501 -0.00000000000E+00 -0.00000000000E+00 -0.13321410419E+02  0.13321410663E+02  0.25500000000E-02 0. -1.
    5000001    1    1    2    0    0  0.25850892098E+02  0.95197463214E+02  0.82028412251E+03  0.82977458822E+03  0.77000000000E+02 0.  0.
   -5000001    1    1    2    0    0 -0.25850892098E+02 -0.95197463214E+02  0.44791581100E+03  0.46506816637E+03  0.77000000000E+02 0.  0.
<mgrwt>
<rscale>  0 0.26131722E+03</rscale>
<asrwt>0</asrwt>
<pdfrwt beam="1">  1        2 0.18307431E+00 0.26131722E+03</pdfrwt>
<pdfrwt beam="2">  1       -2 0.19030604E-02 0.26131722E+03</pdfrwt>
<totfact> 0.16784723E+04</totfact>
</mgrwt>
</event>
<event>
 4    1  0.4950349E-004  0.3298046E+03  0.7818608E-02  0.1071223E+00
         -2   -1    0    0    0  501 -0.00000000000E+00  0.00000000000E+00  0.64072310859E+03  0.64072310860E+03  0.25500000000E-02 0. -1.
          2   -1    0    0  501    0  0.00000000000E+00 -0.00000000000E+00 -0.42440745941E+02  0.42440746018E+02  0.25500000000E-02 0.  1.
    5000001    1    1    2    0    0  0.85671347498E+02 -0.66203137029E+02  0.96805404889E+02  0.16438589219E+03  0.77000000000E+02 0.  0.
   -5000001    1    1    2    0    0 -0.85671347498E+02  0.66203137029E+02  0.50147695776E+03  0.51877796243E+03  0.77000000000E+02 0.  0.
<mgrwt>
<rscale>  0 0.32980459E+03</rscale>
<asrwt>0</asrwt>
<pdfrwt beam="1">  1        2 0.60629639E-02 0.32980459E+03</pdfrwt>
<pdfrwt beam="2">  1       -2 0.91531869E-01 0.32980459E+03</pdfrwt>
<totfact> 0.12883793E+03</totfact>
</mgrwt>
</event>
<event>
 4    1  0.4950349E-004  0.1747437E+03  0.7818608E-02  0.1172989E+00
         -2   -1    0    0    0  501 -0.00000000000E+00  0.00000000000E+00  0.82934816025E+01  0.82934819946E+01  0.25500000000E-02 0. -1.
          2   -1    0    0  501    0  0.00000000000E+00 -0.00000000000E+00 -0.92046232312E+03  0.92046232312E+03  0.25500000000E-02 0.  1.
    5000001    1    1    2    0    0  0.20207438082E+02  0.11819559109E+02 -0.63685522487E+03  0.64192025982E+03  0.77000000000E+02 0.  0.
   -5000001    1    1    2    0    0 -0.20207438082E+02 -0.11819559109E+02 -0.27531361665E+03  0.28683554529E+03  0.77000000000E+02 0.  0.
<mgrwt>
<rscale>  0 0.17474367E+03</rscale>
<asrwt>0</asrwt>
<pdfrwt beam="1">  1        2 0.13149455E+00 0.17474367E+03</pdfrwt>
<pdfrwt beam="2">  1       -2 0.11847837E-02 0.17474367E+03</pdfrwt>
<totfact> 0.52004009E+04</totfact>
</mgrwt>
</event>
<event>
 4    1  0.4950349E-004  0.2210901E+03  0.7818608E-02  0.1133073E+00
         -2   -1    0    0    0  501 -0.00000000000E+00  0.00000000000E+00  0.32630611701E+01  0.32630621665E+01  0.25500000000E-02 0. -1.
          2   -1    0    0  501    0  0.00000000000E+00 -0.00000000000E+00 -0.37450139475E+04  0.37450139475E+04  0.25500000000E-02 0.  1.
    5000001    1    1    2    0    0 -0.44716234419E+02  0.53276308005E+02 -0.25171851580E+04  0.25193229301E+04  0.77000000000E+02 0.  0.
   -5000001    1    1    2    0    0  0.44716234419E+02 -0.53276308005E+02 -0.12245657283E+04  0.12289540795E+04  0.77000000000E+02 0.  0.
<mgrwt>
<rscale>  0 0.22109013E+03</rscale>
<asrwt>0</asrwt>
<pdfrwt beam="1">  1        2 0.53499924E+00 0.22109013E+03</pdfrwt>
<pdfrwt beam="2">  1       -2 0.46615407E-03 0.22109013E+03</pdfrwt>
<totfact> 0.67656628E+03</totfact>
</mgrwt>
</event>
<event>
 4    1  0.4950349E-004  0.2313063E+03  0.7818608E-02  0.1125724E+00
         -2   -1    0    0    0  501 -0.00000000000E+00  0.00000000000E+00  0.35830968051E+02  0.35830968142E+02  0.25500000000E-02 0. -1.
          2   -1    0    0  501    0  0.00000000000E+00 -0.00000000000E+00 -0.37329875298E+03  0.37329875299E+03  0.25500000000E-02 0.  1.
    5000001    1    1    2    0    0 -0.75375890821E+02 -0.42007611394E+02 -0.16749400524E+03  0.20354214827E+03  0.77000000000E+02 0.  0.
   -5000001    1    1    2    0    0  0.75375890821E+02  0.42007611394E+02 -0.16997377969E+03  0.20558757286E+03  0.77000000000E+02 0.  0.
<mgrwt>
<rscale>  0 0.23130634E+03</rscale>
<asrwt>0</asrwt>
<pdfrwt beam="1">  1        2 0.53328391E-01 0.23130634E+03</pdfrwt>
<pdfrwt beam="2">  1       -2 0.51187099E-02 0.23130634E+03</pdfrwt>
<totfact> 0.17286098E+04</totfact>
</mgrwt>
</event>
<event>
 4    1  0.4950349E-004  0.2886478E+03  0.7818608E-02  0.1091057E+00
          2   -1    0    0  501    0  0.00000000000E+00  0.00000000000E+00  0.54420622226E+02  0.54420622286E+02  0.25500000000E-02 0.  1.
         -2   -1    0    0    0  501 -0.00000000000E+00 -0.00000000000E+00 -0.38274795662E+03  0.38274795663E+03  0.25500000000E-02 0. -1.
    5000001    1    1    2    0    0  0.77708588690E+01  0.12152968028E+03 -0.15144400746E+03  0.20903142547E+03  0.77000000000E+02 0.  0.
   -5000001    1    1    2    0    0 -0.77708588690E+01 -0.12152968028E+03 -0.17688332693E+03  0.22813715345E+03  0.77000000000E+02 0.  0.
<mgrwt>
<rscale>  0 0.28864776E+03</rscale>
<asrwt>0</asrwt>
<pdfrwt beam="1">  1        2 0.77743748E-02 0.28864776E+03</pdfrwt>
<pdfrwt beam="2">  1       -2 0.54678278E-01 0.28864776E+03</pdfrwt>
<totfact> 0.28230858E+03</totfact>
</mgrwt>
</event>
<event>
 4    1  0.4950349E-004  0.1578477E+03  0.7818608E-02  0.1191148E+00
         -2   -1    0    0    0  501 -0.00000000000E+00  0.00000000000E+00  0.64058439356E+01  0.64058444431E+01  0.25500000000E-02 0. -1.
          2   -1    0    0  501    0  0.00000000000E+00 -0.00000000000E+00 -0.97238982527E+03  0.97238982528E+03  0.25500000000E-02 0.  1.
    5000001    1    1    2    0    0  0.21285034844E+01 -0.12763852527E+02 -0.55437795217E+03  0.55984940860E+03  0.77000000000E+02 0.  0.
   -5000001    1    1    2    0    0 -0.21285034844E+01  0.12763852527E+02 -0.41160602917E+03  0.41894626112E+03  0.77000000000E+02 0.  0.
<mgrwt>
<rscale>  0 0.15784775E+03</rscale>
<asrwt>0</asrwt>
<pdfrwt beam="1">  1        2 0.13891274E+00 0.15784775E+03</pdfrwt>
<pdfrwt beam="2">  1       -2 0.91512122E-03 0.15784775E+03</pdfrwt>
<totfact> 0.69509153E+04</totfact>
</mgrwt>
</event>
<event>
 4    1  0.4950349E-004  0.2492995E+03  0.7818608E-02  0.1113748E+00
         -2   -1    0    0    0  501 -0.00000000000E+00  0.00000000000E+00  0.40758915662E+03  0.40758915662E+03  0.25500000000E-02 0. -1.
          2   -1    0    0  501    0  0.00000000000E+00 -0.00000000000E+00 -0.38120631910E+02  0.38120631995E+02  0.25500000000E-02 0.  1.
    5000001    1    1    2    0    0 -0.64270946220E+02  0.36080540873E+02  0.69199980027E+02  0.12708342612E+03  0.77000000000E+02 0.  0.
   -5000001    1    1    2    0    0  0.64270946220E+02 -0.36080540873E+02  0.30026854468E+03  0.31862636250E+03  0.77000000000E+02 0.  0.
<mgrwt>
<rscale>  0 0.24929947E+03</rscale>
<asrwt>0</asrwt>
<pdfrwt beam="1">  1        2 0.54458045E-02 0.24929947E+03</pdfrwt>
<pdfrwt beam="2">  1       -2 0.58227023E-01 0.24929947E+03</pdfrwt>
<totfact> 0.39151627E+03</totfact>
</mgrwt>
</event>
<event>
 4    1  0.4950349E-004  0.2209949E+03  0.7818608E-02  0.1133143E+00
          2   -1    0    0  501    0  0.00000000000E+00  0.00000000000E+00  0.15891027243E+04  0.15891027243E+04  0.25500000000E-02 0.  1.
         -2   -1    0    0    0  501 -0.00000000000E+00 -0.00000000000E+00 -0.76833852570E+01  0.76833856802E+01  0.25500000000E-02 0. -1.
    5000001    1    1    2    0    0  0.32134268157E+02 -0.47277836132E+02  0.11873123497E+04  0.11911790045E+04  0.77000000000E+02 0.  0.
   -5000001    1    1    2    0    0 -0.32134268157E+02  0.47277836132E+02  0.39410698933E+03  0.40560710548E+03  0.77000000000E+02 0.  0.
<mgrwt>
<rscale>  0 0.22099492E+03</rscale>
<asrwt>0</asrwt>
<pdfrwt beam="1">  1        2 0.22701470E+00 0.22099492E+03</pdfrwt>
<pdfrwt beam="2">  1       -2 0.10976264E-02 0.22099492E+03</pdfrwt>
<totfact> 0.25897500E+04</totfact>
</mgrwt>
</event>
<event>
 4    1  0.4950349E-004  0.2299354E+03  0.7818608E-02  0.1126685E+00
         -2   -1    0    0    0  501 -0.00000000000E+00  0.00000000000E+00  0.16484421906E+02  0.16484422103E+02  0.25500000000E-02 0. -1.
          2   -1    0    0  501    0  0.00000000000E+00 -0.00000000000E+00 -0.80182167892E+03  0.80182167892E+03  0.25500000000E-02 0.  1.
    5000001    1    1    2    0    0 -0.40504912272E+02 -0.41338678463E+02 -0.61602833286E+03  0.62351378585E+03  0.77000000000E+02 0.  0.
   -5000001    1    1    2    0    0  0.40504912272E+02  0.41338678463E+02 -0.16930892416E+03  0.19479231518E+03  0.77000000000E+02 0.  0.
<mgrwt>
<rscale>  0 0.22993536E+03</rscale>
<asrwt>0</asrwt>
<pdfrwt beam="1">  1        2 0.11454593E+00 0.22993536E+03</pdfrwt>
<pdfrwt beam="2">  1       -2 0.23549179E-02 0.22993536E+03</pdfrwt>
<totfact> 0.23224694E+04</totfact>
</mgrwt>
</event>
<event>
 4    1  0.4950349E-004  0.2707867E+03  0.7818608E-02  0.1100830E+00
          2   -1    0    0  501    0  0.00000000000E+00  0.00000000000E+00  0.10825065743E+04  0.10825065743E+04  0.25500000000E-02 0.  1.
         -2   -1    0    0    0  501 -0.00000000000E+00 -0.00000000000E+00 -0.16934174483E+02  0.16934174675E+02  0.25500000000E-02 0. -1.
    5000001    1    1    2    0    0  0.10230448301E+03  0.40680521262E+02  0.60087655656E+03  0.61571320294E+03  0.77000000000E+02 0.  0.
   -5000001    1    1    2    0    0 -0.10230448301E+03 -0.40680521262E+02  0.46469584329E+03  0.48372754607E+03  0.77000000000E+02 0.  0.
<mgrwt>
<rscale>  0 0.27078667E+03</rscale>
<asrwt>0</asrwt>
<pdfrwt beam="1">  1        2 0.15464382E+00 0.27078667E+03</pdfrwt>
<pdfrwt beam="2">  1       -2 0.24191674E-02 0.27078667E+03</pdfrwt>
<totfact> 0.15160878E+04</totfact>
</mgrwt>
</event>
<event>
 4    1  0.4950349E-004  0.2579068E+03  0.7818608E-02  0.1108407E+00
          2   -1    0    0  501    0  0.00000000000E+00  0.00000000000E+00  0.84061025863E+02  0.84061025902E+02  0.25500000000E-02 0.  1.
         -2   -1    0    0    0  501 -0.00000000000E+00 -0.00000000000E+00 -0.19782038289E+03  0.19782038291E+03  0.25500000000E-02 0. -1.
    5000001    1    1    2    0    0  0.22926910119E+02 -0.85563904029E+02 -0.11526001546E+03  0.16450135575E+03  0.77000000000E+02 0.  0.
   -5000001    1    1    2    0    0 -0.22926910119E+02  0.85563904029E+02  0.15006584304E+01  0.11738005306E+03  0.77000000000E+02 0.  0.
<mgrwt>
<rscale>  0 0.25790684E+03</rscale>
<asrwt>0</asrwt>
<pdfrwt beam="1">  1        2 0.12008718E-01 0.25790684E+03</pdfrwt>
<pdfrwt beam="2">  1       -2 0.28260055E-01 0.25790684E+03</pdfrwt>
<totfact> 0.57593108E+03</totfact>
</mgrwt>
</event>
<event>
 4    1  0.4950349E-004  0.2356855E+03  0.7818608E-02  0.1122701E+00
          2   -1    0    0  501    0  0.00000000000E+00  0.00000000000E+00  0.10539657015E+04  0.10539657015E+04  0.25500000000E-02 0.  1.
         -2   -1    0    0    0  501 -0.00000000000E+00 -0.00000000000E+00 -0.13175865222E+02  0.13175865469E+02  0.25500000000E-02 0. -1.
    5000001    1    1    2    0    0 -0.63316259290E+02 -0.62770754424E+02  0.50696791507E+03  0.52047534352E+03  0.77000000000E+02 0.  0.
   -5000001    1    1    2    0    0  0.63316259290E+02  0.62770754424E+02  0.53382192117E+03  0.54666622342E+03  0.77000000000E+02 0.  0.
<mgrwt>
<rscale>  0 0.23568547E+03</rscale>
<asrwt>0</asrwt>
<pdfrwt beam="1">  1        2 0.15056651E+00 0.23568547E+03</pdfrwt>
<pdfrwt beam="2">  1       -2 0.18822667E-02 0.23568547E+03</pdfrwt>
<totfact> 0.22623749E+04</totfact>
</mgrwt>
</event>
<event>
 4    1  0.4950349E-004  0.2468183E+03  0.7818608E-02  0.1115332E+00
         -2   -1    0    0    0  501 -0.00000000000E+00  0.00000000000E+00  0.39242263632E+01  0.39242271917E+01  0.25500000000E-02 0. -1.
          2   -1    0    0  501    0  0.00000000000E+00 -0.00000000000E+00 -0.38809741037E+04  0.38809741037E+04  0.25500000000E-02 0.  1.
    5000001    1    1    2    0    0  0.44446658115E+02 -0.58379331671E+02 -0.95340640268E+03  0.95932081206E+03  0.77000000000E+02 0.  0.
   -5000001    1    1    2    0    0 -0.44446658115E+02  0.58379331671E+02 -0.29236434747E+04  0.29255775188E+04  0.77000000000E+02 0.  0.
<mgrwt>
<rscale>  0 0.24681833E+03</rscale>
<asrwt>0</asrwt>
<pdfrwt beam="1">  1        2 0.55442241E+00 0.24681833E+03</pdfrwt>
<pdfrwt beam="2">  1       -2 0.56060631E-03 0.24681833E+03</pdfrwt>
<totfact> 0.42689575E+03</totfact>
</mgrwt>
</event>
<event>
 4    1  0.4950349E-004  0.1823066E+03  0.7818608E-02  0.1165589E+00
          2   -1    0    0  501    0  0.00000000000E+00  0.00000000000E+00  0.39637114618E+03  0.39637114618E+03  0.25500000000E-02 0.  1.
         -2   -1    0    0    0  501 -0.00000000000E+00 -0.00000000000E+00 -0.20962492250E+02  0.20962492406E+02  0.25500000000E-02 0. -1.
    5000001    1    1    2    0    0 -0.42373790381E+02  0.16163470406E+02  0.14655427513E+03  0.17165066690E+03  0.77000000000E+02 0.  0.
   -5000001    1    1    2    0    0  0.42373790381E+02 -0.16163470406E+02  0.22885437879E+03  0.24568297169E+03  0.77000000000E+02 0.  0.
<mgrwt>
<rscale>  0 0.18230663E+03</rscale>
<asrwt>0</asrwt>
<pdfrwt beam="1">  1        2 0.56624451E-01 0.18230663E+03</pdfrwt>
<pdfrwt beam="2">  1       -2 0.29946417E-02 0.18230663E+03</pdfrwt>
<totfact> 0.35498216E+04</totfact>
</mgrwt>
</event>
<event>
 4    1  0.4950349E-004  0.5685326E+03  0.7818608E-02  0.9972931E-01
          2   -1    0    0  501    0  0.00000000000E+00  0.00000000000E+00  0.12879786070E+04  0.12879786070E+04  0.25500000000E-02 0.  1.
         -2   -1    0    0    0  501 -0.00000000000E+00 -0.00000000000E+00 -0.62739641179E+02  0.62739641231E+02  0.25500000000E-02 0. -1.
    5000001    1    1    2    0    0  0.19060008582E+03  0.11034112626E+03  0.99845631219E+03  0.10253524098E+04  0.77000000000E+02 0.  0.
   -5000001    1    1    2    0    0 -0.19060008582E+03 -0.11034112626E+03  0.22678265366E+03  0.32536583850E+03  0.77000000000E+02 0.  0.
<mgrwt>
<rscale>  0 0.56853255E+03</rscale>
<asrwt>0</asrwt>
<pdfrwt beam="1">  1        2 0.18399695E+00 0.56853255E+03</pdfrwt>
<pdfrwt beam="2">  1       -2 0.89628055E-02 0.56853255E+03</pdfrwt>
<totfact> 0.15779696E+03</totfact>
</mgrwt>
</event>
<event>
 4    1  0.4950349E-004  0.2439084E+03  0.7818608E-02  0.1117216E+00
         -2   -1    0    0    0  501 -0.00000000000E+00  0.00000000000E+00  0.14527025393E+03  0.14527025395E+03  0.25500000000E-02 0. -1.
          2   -1    0    0  501    0  0.00000000000E+00 -0.00000000000E+00 -0.10238038925E+03  0.10238038928E+03  0.25500000000E-02 0.  1.
    5000001    1    1    2    0    0  0.39048750569E+02 -0.46043713887E+02 -0.52466148058E+02  0.11102488551E+03  0.77000000000E+02 0.  0.
   -5000001    1    1    2    0    0 -0.39048750569E+02  0.46043713887E+02  0.95356012740E+02  0.13662575773E+03  0.77000000000E+02 0.  0.
<mgrwt>
<rscale>  0 0.24390839E+03</rscale>
<asrwt>0</asrwt>
<pdfrwt beam="1">  1        2 0.14625770E-01 0.24390839E+03</pdfrwt>
<pdfrwt beam="2">  1       -2 0.20752893E-01 0.24390839E+03</pdfrwt>
<totfact> 0.77928227E+03</totfact>
</mgrwt>
</event>
<event>
 4    1  0.4950349E-004  0.1833699E+03  0.7818608E-02  0.1164581E+00
         -2   -1    0    0    0  501 -0.00000000000E+00  0.00000000000E+00  0.50105621061E+01  0.50105627550E+01  0.25500000000E-02 0. -1.
          2   -1    0    0  501    0  0.00000000000E+00 -0.00000000000E+00 -0.16776823988E+04  0.16776823988E+04  0.25500000000E-02 0.  1.
    5000001    1    1    2    0    0 -0.25776856190E+02  0.78371543010E+01 -0.45231691538E+03  0.45961446805E+03  0.77000000000E+02 0.  0.
   -5000001    1    1    2    0    0  0.25776856190E+02 -0.78371543010E+01 -0.12203549213E+04  0.12230784935E+04  0.77000000000E+02 0.  0.
<mgrwt>
<rscale>  0 0.18336993E+03</rscale>
<asrwt>0</asrwt>
<pdfrwt beam="1">  1        2 0.23966855E+00 0.18336993E+03</pdfrwt>
<pdfrwt beam="2">  1       -2 0.71579571E-03 0.18336993E+03</pdfrwt>
<totfact> 0.42889175E+04</totfact>
</mgrwt>
</event>
<event>
 4    1  0.4950349E-004  0.3761144E+03  0.7818608E-02  0.1052379E+00
         -2   -1    0    0    0  501 -0.00000000000E+00  0.00000000000E+00  0.48790790621E+03  0.48790790622E+03  0.25500000000E-02 0. -1.
          2   -1    0    0  501    0  0.00000000000E+00 -0.00000000000E+00 -0.72483992789E+02  0.72483992834E+02  0.25500000000E-02 0.  1.
    5000001    1    1    2    0    0  0.14054683997E+03 -0.87228329634E+02  0.27557127329E+03  0.33050071464E+03  0.77000000000E+02 0.  0.
   -5000001    1    1    2    0    0 -0.14054683997E+03  0.87228329634E+02  0.13985264013E+03  0.22989118441E+03  0.77000000000E+02 0.  0.
<mgrwt>
<rscale>  0 0.37611441E+03</rscale>
<asrwt>0</asrwt>
<pdfrwt beam="1">  1        2 0.10354856E-01 0.37611441E+03</pdfrwt>
<pdfrwt beam="2">  1       -2 0.69701131E-01 0.37611441E+03</pdfrwt>
<totfact> 0.11893230E+03</totfact>
</mgrwt>
</event>
<event>
 4    1  0.4950349E-004  0.4267876E+03  0.7818608E-02  0.1034880E+00
         -2   -1    0    0    0  501 -0.00000000000E+00  0.00000000000E+00  0.13327982332E+04  0.13327982332E+04  0.25500000000E-02 0. -1.
          2   -1    0    0  501    0  0.00000000000E+00 -0.00000000000E+00 -0.34166393813E+02  0.34166393908E+02  0.25500000000E-02 0.  1.
    5000001    1    1    2    0    0 -0.13096194577E+03 -0.14639637685E+03  0.75185820341E+03  0.78089864159E+03  0.77000000000E+02 0.  0.
   -5000001    1    1    2    0    0  0.13096194577E+03  0.14639637685E+03  0.54677363599E+03  0.58606598554E+03  0.77000000000E+02 0.  0.
<mgrwt>
<rscale>  0 0.42678758E+03</rscale>
<asrwt>0</asrwt>
<pdfrwt beam="1">  1        2 0.48809136E-02 0.42678758E+03</pdfrwt>
<pdfrwt beam="2">  1       -2 0.19039974E+00 0.42678758E+03</pdfrwt>
<totfact> 0.26979420E+02</totfact>
</mgrwt>
</event>
<event>
 4    1  0.4950349E-004  0.2045004E+03  0.7818608E-02  0.1145997E+00
         -2   -1    0    0    0  501 -0.00000000000E+00  0.00000000000E+00  0.50629916833E+02  0.50629916897E+02  0.25500000000E-02 0. -1.
          2   -1    0    0  501    0  0.00000000000E+00 -0.00000000000E+00 -0.20650041449E+03  0.20650041451E+03  0.25500000000E-02 0.  1.
    5000001    1    1    2    0    0  0.95068128810E+01  0.48337483773E+02 -0.20326708001E+02  0.93643296006E+02  0.77000000000E+02 0.  0.
   -5000001    1    1    2    0    0 -0.95068128810E+01 -0.48337483773E+02 -0.13554378966E+03  0.16348703540E+03  0.77000000000E+02 0.  0.
<mgrwt>
<rscale>  0 0.20450036E+03</rscale>
<asrwt>0</asrwt>
<pdfrwt beam="1">  1        2 0.29500059E-01 0.20450036E+03</pdfrwt>
<pdfrwt beam="2">  1       -2 0.72328453E-02 0.20450036E+03</pdfrwt>
<totfact> 0.19113797E+04</totfact>
</mgrwt>
</event>
<event>
 4    1  0.4950349E-004  0.1715020E+03  0.7818608E-02  0.1176291E+00
          2   -1    0    0  501    0  0.00000000000E+00  0.00000000000E+00  0.30955507028E+03  0.30955507029E+03  0.25500000000E-02 0.  1.
         -2   -1    0    0    0  501 -0.00000000000E+00 -0.00000000000E+00 -0.23754191602E+02  0.23754191739E+02  0.25500000000E-02 0. -1.
    5000001    1    1    2    0    0 -0.22215991064E+02  0.29544713978E+02  0.12812620471E+03  0.15398624847E+03  0.77000000000E+02 0.  0.
   -5000001    1    1    2    0    0  0.22215991064E+02 -0.29544713978E+02  0.15767467397E+03  0.17932301356E+03  0.77000000000E+02 0.  0.
<mgrwt>
<rscale>  0 0.17150196E+03</rscale>
<asrwt>0</asrwt>
<pdfrwt beam="1">  1        2 0.44222156E-01 0.17150196E+03</pdfrwt>
<pdfrwt beam="2">  1       -2 0.33934557E-02 0.17150196E+03</pdfrwt>
<totfact> 0.38192902E+04</totfact>
</mgrwt>
</event>
<event>
 4    1  0.4950349E-004  0.3095805E+03  0.7818608E-02  0.1080547E+00
         -2   -1    0    0    0  501 -0.00000000000E+00  0.00000000000E+00  0.20625746524E+02  0.20625746681E+02  0.25500000000E-02 0. -1.
          2   -1    0    0  501    0  0.00000000000E+00 -0.00000000000E+00 -0.11616559515E+04  0.11616559515E+04  0.25500000000E-02 0.  1.
    5000001    1    1    2    0    0  0.55074488795E+02 -0.11862962385E+03 -0.45437576561E+03  0.47905377918E+03  0.77000000000E+02 0.  0.
   -5000001    1    1    2    0    0 -0.55074488795E+02  0.11862962385E+03 -0.68665443940E+03  0.70322791904E+03  0.77000000000E+02 0.  0.
<mgrwt>
<rscale>  0 0.30958050E+03</rscale>
<asrwt>0</asrwt>
<pdfrwt beam="1">  1        2 0.16595081E+00 0.30958050E+03</pdfrwt>
<pdfrwt beam="2">  1       -2 0.29465360E-02 0.30958050E+03</pdfrwt>
<totfact> 0.10258932E+04</totfact>
</mgrwt>
</event>
<event>
 4    1  0.4950349E-004  0.1711014E+03  0.7818608E-02  0.1176704E+00
          2   -1    0    0  501    0  0.00000000000E+00  0.00000000000E+00  0.24321802845E+03  0.24321802847E+03  0.25500000000E-02 0.  1.
         -2   -1    0    0    0  501 -0.00000000000E+00 -0.00000000000E+00 -0.30092009572E+02  0.30092009680E+02  0.25500000000E-02 0. -1.
    5000001    1    1    2    0    0 -0.94628415599E+01 -0.33682717277E+02  0.85991895543E+02  0.12061375093E+03  0.77000000000E+02 0.  0.
   -5000001    1    1    2    0    0  0.94628415599E+01  0.33682717277E+02  0.12713412334E+03  0.15269628722E+03  0.77000000000E+02 0.  0.
<mgrwt>
<rscale>  0 0.17110136E+03</rscale>
<asrwt>0</asrwt>
<pdfrwt beam="1">  1        2 0.34745430E-01 0.17110136E+03</pdfrwt>
<pdfrwt beam="2">  1       -2 0.42988589E-02 0.17110136E+03</pdfrwt>
<totfact> 0.34751780E+04</totfact>
</mgrwt>
</event>
<event>
 4    1  0.4950349E-004  0.2142701E+03  0.7818608E-02  0.1138228E+00
          2   -1    0    0  501    0  0.00000000000E+00  0.00000000000E+00  0.21797445712E+03  0.21797445713E+03  0.25500000000E-02 0.  1.
         -2   -1    0    0    0  501 -0.00000000000E+00 -0.00000000000E+00 -0.52657185430E+02  0.52657185492E+02  0.25500000000E-02 0. -1.
    5000001    1    1    2    0    0 -0.15764631893E+02 -0.34165403915E+02  0.16385865243E+03  0.18491743136E+03  0.77000000000E+02 0.  0.
   -5000001    1    1    2    0    0  0.15764631893E+02  0.34165403915E+02  0.14586192591E+01  0.85714211269E+02  0.77000000000E+02 0.  0.
<mgrwt>
<rscale>  0 0.21427012E+03</rscale>
<asrwt>0</asrwt>
<pdfrwt beam="1">  1        2 0.31139208E-01 0.21427012E+03</pdfrwt>
<pdfrwt beam="2">  1       -2 0.75224551E-02 0.21427012E+03</pdfrwt>
<totfact> 0.17012738E+04</totfact>
</mgrwt>
</event>
<event>
 4    1  0.4950349E-004  0.2899456E+03  0.7818608E-02  0.1090378E+00
          2   -1    0    0  501    0  0.00000000000E+00  0.00000000000E+00  0.84905224782E+02  0.84905224820E+02  0.25500000000E-02 0.  1.
         -2   -1    0    0    0  501 -0.00000000000E+00 -0.00000000000E+00 -0.24753616767E+03  0.24753616768E+03  0.25500000000E-02 0. -1.
    5000001    1    1    2    0    0  0.95020413643E+02 -0.68169452023E+02 -0.38229029820E+02  0.14514272947E+03  0.77000000000E+02 0.  0.
   -5000001    1    1    2    0    0 -0.95020413643E+02  0.68169452023E+02 -0.12440191307E+03  0.18729866303E+03  0.77000000000E+02 0.  0.
<mgrwt>
<rscale>  0 0.28994561E+03</rscale>
<asrwt>0</asrwt>
<pdfrwt beam="1">  1        2 0.12129318E-01 0.28994561E+03</pdfrwt>
<pdfrwt beam="2">  1       -2 0.35362309E-01 0.28994561E+03</pdfrwt>
<totfact> 0.37890912E+03</totfact>
</mgrwt>
</event>
<event>
 4    1  0.4950349E-004  0.5687811E+03  0.7818608E-02  0.9972379E-01
         -2   -1    0    0    0  501 -0.00000000000E+00  0.00000000000E+00  0.25105938888E+02  0.25105939018E+02  0.25500000000E-02 0. -1.
          2   -1    0    0  501    0  0.00000000000E+00 -0.00000000000E+00 -0.32214683325E+04  0.32214683325E+04  0.25500000000E-02 0.  1.
    5000001    1    1    2    0    0  0.21733802390E+03 -0.16625764433E+03 -0.15498937035E+04  0.15757464622E+04  0.77000000000E+02 0.  0.
   -5000001    1    1    2    0    0 -0.21733802390E+03  0.16625764433E+03 -0.16464686900E+04  0.16708278093E+04  0.77000000000E+02 0.  0.
<mgrwt>
<rscale>  0 0.56878111E+03</rscale>
<asrwt>0</asrwt>
<pdfrwt beam="1">  1        2 0.46020950E+00 0.56878111E+03</pdfrwt>
<pdfrwt beam="2">  1       -2 0.35865648E-02 0.56878111E+03</pdfrwt>
<totfact> 0.65326910E+02</totfact>
</mgrwt>
</event>
<event>
 4    1  0.4950349E-004  0.2406830E+03  0.7818608E-02  0.1119339E+00
         -2   -1    0    0    0  501 -0.00000000000E+00  0.00000000000E+00  0.60567323097E+02  0.60567323151E+02  0.25500000000E-02 0. -1.
          2   -1    0    0  501    0  0.00000000000E+00 -0.00000000000E+00 -0.23910718056E+03  0.23910718058E+03  0.25500000000E-02 0.  1.
    5000001    1    1    2    0    0 -0.38831460021E+02  0.82008862532E+02 -0.11153411841E+03  0.16310179456E+03  0.77000000000E+02 0.  0.
   -5000001    1    1    2    0    0  0.38831460021E+02 -0.82008862532E+02 -0.67005739057E+02  0.13657270916E+03  0.77000000000E+02 0.  0.
<mgrwt>
<rscale>  0 0.24068304E+03</rscale>
<asrwt>0</asrwt>
<pdfrwt beam="1">  1        2 0.34158168E-01 0.24068304E+03</pdfrwt>
<pdfrwt beam="2">  1       -2 0.86524749E-02 0.24068304E+03</pdfrwt>
<totfact> 0.12459630E+04</totfact>
</mgrwt>
</event>
<event>
 4    1  0.4950349E-004  0.2293429E+03  0.7818608E-02  0.1127103E+00
         -2   -1    0    0    0  501 -0.00000000000E+00  0.00000000000E+00  0.26754378050E+03  0.26754378051E+03  0.25500000000E-02 0. -1.
          2   -1    0    0  501    0  0.00000000000E+00 -0.00000000000E+00 -0.49149141415E+02  0.49149141481E+02  0.25500000000E-02 0.  1.
    5000001    1    1    2    0    0  0.60602279155E+02  0.25478090022E+01  0.19137268678E+03  0.21501542460E+03  0.77000000000E+02 0.  0.
   -5000001    1    1    2    0    0 -0.60602279155E+02 -0.25478090022E+01  0.27021952299E+02  0.10167749739E+03  0.77000000000E+02 0.  0.
<mgrwt>
<rscale>  0 0.22934295E+03</rscale>
<asrwt>0</asrwt>
<pdfrwt beam="1">  1        2 0.70213059E-02 0.22934295E+03</pdfrwt>
<pdfrwt beam="2">  1       -2 0.38220540E-01 0.22934295E+03</pdfrwt>
<totfact> 0.64262665E+03</totfact>
</mgrwt>
</event>
<event>
 4    1  0.4950349E-004  0.2656726E+03  0.7818608E-02  0.1103782E+00
         -2   -1    0    0    0  501 -0.00000000000E+00  0.00000000000E+00  0.24963141180E+02  0.24963141310E+02  0.25500000000E-02 0. -1.
          2   -1    0    0  501    0  0.00000000000E+00 -0.00000000000E+00 -0.70686152806E+03  0.70686152806E+03  0.25500000000E-02 0.  1.
    5000001    1    1    2    0    0  0.25577271609E+02 -0.10060951343E+03 -0.25649383198E+03  0.28721865688E+03  0.77000000000E+02 0.  0.
   -5000001    1    1    2    0    0 -0.25577271609E+02  0.10060951343E+03 -0.42540455490E+03  0.44460601249E+03  0.77000000000E+02 0.  0.
<mgrwt>
<rscale>  0 0.26567261E+03</rscale>
<asrwt>0</asrwt>
<pdfrwt beam="1">  1        2 0.10098021E+00 0.26567261E+03</pdfrwt>
<pdfrwt beam="2">  1       -2 0.35661635E-02 0.26567261E+03</pdfrwt>
<totfact> 0.14724168E+04</totfact>
</mgrwt>
</event>
<event>
 4    1  0.4950349E-004  0.1809356E+03  0.7818608E-02  0.1166901E+00
         -2   -1    0    0    0  501 -0.00000000000E+00  0.00000000000E+00  0.51081832449E+01  0.51081838813E+01  0.25500000000E-02 0. -1.
          2   -1    0    0  501    0  0.00000000000E+00 -0.00000000000E+00 -0.16022181548E+04  0.16022181548E+04  0.25500000000E-02 0.  1.
    5000001    1    1    2    0    0  0.46295351901E+02  0.10023922982E+02 -0.82892250646E+03  0.83383767026E+03  0.77000000000E+02 0.  0.
   -5000001    1    1    2    0    0 -0.46295351901E+02 -0.10023922982E+02 -0.76818746507E+03  0.77348866839E+03  0.77000000000E+02 0.  0.
<mgrwt>
<rscale>  0 0.18093562E+03</rscale>
<asrwt>0</asrwt>
<pdfrwt beam="1">  1        2 0.22888799E+00 0.18093562E+03</pdfrwt>
<pdfrwt beam="2">  1       -2 0.72974153E-03 0.18093562E+03</pdfrwt>
<totfact> 0.45373018E+04</totfact>
</mgrwt>
</event>
<event>
 4    1  0.4950349E-004  0.4423551E+03  0.7818608E-02  0.1030027E+00
          2   -1    0    0  501    0  0.00000000000E+00  0.00000000000E+00  0.67045365782E+03  0.67045365783E+03  0.25500000000E-02 0.  1.
         -2   -1    0    0    0  501 -0.00000000000E+00 -0.00000000000E+00 -0.72964783064E+02  0.72964783108E+02  0.25500000000E-02 0. -1.
    5000001    1    1    2    0    0 -0.98298536446E+02 -0.11306034364E+03  0.57854783554E+02  0.17810508008E+03  0.77000000000E+02 0.  0.
   -5000001    1    1    2    0    0  0.98298536446E+02  0.11306034364E+03  0.53963409120E+03  0.56531336085E+03  0.77000000000E+02 0.  0.
<mgrwt>
<rscale>  0 0.44235509E+03</rscale>
<asrwt>0</asrwt>
<pdfrwt beam="1">  1        2 0.95779093E-01 0.44235509E+03</pdfrwt>
<pdfrwt beam="2">  1       -2 0.10423541E-01 0.44235509E+03</pdfrwt>
<totfact> 0.30203054E+03</totfact>
</mgrwt>
</event>
<event>
 4    1  0.4950349E-004  0.2120497E+03  0.7818608E-02  0.1139953E+00
         -2   -1    0    0    0  501 -0.00000000000E+00  0.00000000000E+00  0.38511995472E+02  0.38511995557E+02  0.25500000000E-02 0. -1.
          2   -1    0    0  501    0  0.00000000000E+00 -0.00000000000E+00 -0.29189008650E+03  0.29189008651E+03  0.25500000000E-02 0.  1.
    5000001    1    1    2    0    0  0.62348202252E+02  0.34098630348E+02 -0.10145616621E+03  0.14585050078E+03  0.77000000000E+02 0.  0.
   -5000001    1    1    2    0    0 -0.62348202252E+02 -0.34098630348E+02 -0.15192192482E+03  0.18455158129E+03  0.77000000000E+02 0.  0.
<mgrwt>
<rscale>  0 0.21204971E+03</rscale>
<asrwt>0</asrwt>
<pdfrwt beam="1">  1        2 0.41698583E-01 0.21204971E+03</pdfrwt>
<pdfrwt beam="2">  1       -2 0.55017138E-02 0.21204971E+03</pdfrwt>
<totfact> 0.20047286E+04</totfact>
</mgrwt>
</event>
<event>
 4    1  0.4950349E-004  0.2240576E+03  0.7818608E-02  0.1130894E+00
         -2   -1    0    0    0  501 -0.00000000000E+00  0.00000000000E+00  0.71715173353E+03  0.71715173354E+03  0.25500000000E-02 0. -1.
          2   -1    0    0  501    0  0.00000000000E+00 -0.00000000000E+00 -0.17500412527E+02  0.17500412713E+02  0.25500000000E-02 0.  1.
    5000001    1    1    2    0    0  0.42238357417E+02  0.68288540471E+02  0.39308263824E+03  0.40852217086E+03  0.77000000000E+02 0.  0.
   -5000001    1    1    2    0    0 -0.42238357417E+02 -0.68288540471E+02  0.30656868276E+03  0.32612997539E+03  0.77000000000E+02 0.  0.
<mgrwt>
<rscale>  0 0.22405759E+03</rscale>
<asrwt>0</asrwt>
<pdfrwt beam="1">  1        2 0.25000587E-02 0.22405759E+03</pdfrwt>
<pdfrwt beam="2">  1       -2 0.10245026E+00 0.22405759E+03</pdfrwt>
<totfact> 0.32190039E+03</totfact>
</mgrwt>
</event>
<event>
 4    1  0.4950349E-004  0.2138338E+03  0.7818608E-02  0.1138566E+00
          2   -1    0    0  501    0  0.00000000000E+00  0.00000000000E+00  0.11725856490E+04  0.11725856490E+04  0.25500000000E-02 0.  1.
         -2   -1    0    0    0  501 -0.00000000000E+00 -0.00000000000E+00 -0.97487281888E+01  0.97487285223E+01  0.25500000000E-02 0. -1.
    5000001    1    1    2    0    0  0.33590372673E+01 -0.73871516340E+02  0.61362821457E+03  0.62284578330E+03  0.77000000000E+02 0.  0.
   -5000001    1    1    2    0    0 -0.33590372673E+01  0.73871516340E+02  0.54920870626E+03  0.55948859425E+03  0.77000000000E+02 0.  0.
<mgrwt>
<rscale>  0 0.21383376E+03</rscale>
<asrwt>0</asrwt>
<pdfrwt beam="1">  1        2 0.16751213E+00 0.21383376E+03</pdfrwt>
<pdfrwt beam="2">  1       -2 0.13926764E-02 0.21383376E+03</pdfrwt>
<totfact> 0.29981333E+04</totfact>
</mgrwt>
</event>
<event>
 4    1  0.4950349E-004  0.3965707E+03  0.7818608E-02  0.1044974E+00
         -2   -1    0    0    0  501 -0.00000000000E+00  0.00000000000E+00  0.14402630241E+03  0.14402630243E+03  0.25500000000E-02 0. -1.
          2   -1    0    0  501    0  0.00000000000E+00 -0.00000000000E+00 -0.27298541731E+03  0.27298541732E+03  0.25500000000E-02 0.  1.
    5000001    1    1    2    0    0  0.13905839177E+03  0.10610352721E+03 -0.89077914434E+01  0.19132052570E+03  0.77000000000E+02 0.  0.
   -5000001    1    1    2    0    0 -0.13905839177E+03 -0.10610352721E+03 -0.12005132345E+03  0.22569119405E+03  0.77000000000E+02 0.  0.
<mgrwt>
<rscale>  0 0.39657070E+03</rscale>
<asrwt>0</asrwt>
<pdfrwt beam="1">  1        2 0.38997917E-01 0.39657070E+03</pdfrwt>
<pdfrwt beam="2">  1       -2 0.20575186E-01 0.39657070E+03</pdfrwt>
<totfact> 0.26478696E+03</totfact>
</mgrwt>
</event>
<event>
 4    1  0.4950349E-004  0.1821485E+03  0.7818608E-02  0.1165740E+00
         -2   -1    0    0    0  501 -0.00000000000E+00  0.00000000000E+00  0.42001018019E+01  0.42001025760E+01  0.25500000000E-02 0. -1.
          2   -1    0    0  501    0  0.00000000000E+00 -0.00000000000E+00 -0.19748381867E+04  0.19748381867E+04  0.25500000000E-02 0.  1.
    5000001    1    1    2    0    0  0.85346589227E+01  0.42538770703E+02 -0.12241346272E+04  0.12273210554E+04  0.77000000000E+02 0.  0.
   -5000001    1    1    2    0    0 -0.85346589227E+01 -0.42538770703E+02 -0.74650345766E+03  0.75171723388E+03  0.77000000000E+02 0.  0.
<mgrwt>
<rscale>  0 0.18214853E+03</rscale>
<asrwt>0</asrwt>
<pdfrwt beam="1">  1        2 0.28211915E+00 0.18214853E+03</pdfrwt>
<pdfrwt beam="2">  1       -2 0.60001586E-03 0.18214853E+03</pdfrwt>
<totfact> 0.39670381E+04</totfact>
</mgrwt>
</event>
<event>
 4    1  0.4950349E-004  0.2542226E+03  0.7818608E-02  0.1110665E+00
         -2   -1    0    0    0  501 -0.00000000000E+00  0.00000000000E+00  0.41550079943E+01  0.41550087768E+01  0.25500000000E-02 0. -1.
          2   -1    0    0  501    0  0.00000000000E+00 -0.00000000000E+00 -0.38886284455E+04  0.38886284455E+04  0.25500000000E-02 0.  1.
    5000001    1    1    2    0    0  0.24501231433E+02  0.56182718684E+02 -0.71041535543E+03  0.71719996197E+03  0.77000000000E+02 0.  0.
   -5000001    1    1    2    0    0 -0.24501231433E+02 -0.56182718684E+02 -0.31740580821E+04  0.31755834923E+04  0.77000000000E+02 0.  0.
<mgrwt>
<rscale>  0 0.25422261E+03</rscale>
<asrwt>0</asrwt>
<pdfrwt beam="1">  1        2 0.55551602E+00 0.25422261E+03</pdfrwt>
<pdfrwt beam="2">  1       -2 0.59357512E-03 0.25422261E+03</pdfrwt>
<totfact> 0.38853989E+03</totfact>
</mgrwt>
</event>
<event>
 4    1  0.4950349E-004  0.2348783E+03  0.7818608E-02  0.1123253E+00
         -2   -1    0    0    0  501 -0.00000000000E+00  0.00000000000E+00  0.52334948987E+01  0.52334955200E+01  0.25500000000E-02 0. -1.
          2   -1    0    0  501    0  0.00000000000E+00 -0.00000000000E+00 -0.26353247795E+04  0.26353247795E+04  0.25500000000E-02 0.  1.
    5000001    1    1    2    0    0 -0.41274951562E+02 -0.54365867161E+02 -0.67872201787E+03  0.68647785593E+03  0.77000000000E+02 0.  0.
   -5000001    1    1    2    0    0  0.41274951562E+02  0.54365867161E+02 -0.19513692667E+04  0.19540804191E+04  0.77000000000E+02 0.  0.
<mgrwt>
<rscale>  0 0.23487835E+03</rscale>
<asrwt>0</asrwt>
<pdfrwt beam="1">  1        2 0.37647412E+00 0.23487835E+03</pdfrwt>
<pdfrwt beam="2">  1       -2 0.74764386E-03 0.23487835E+03</pdfrwt>
<totfact> 0.13899128E+04</totfact>
</mgrwt>
</event>
<event>
 4    1  0.4950349E-004  0.1850654E+03  0.7818608E-02  0.1162989E+00
         -2   -1    0    0    0  501 -0.00000000000E+00  0.00000000000E+00  0.58294067909E+01  0.58294073486E+01  0.25500000000E-02 0. -1.
          2   -1    0    0  501    0  0.00000000000E+00 -0.00000000000E+00 -0.14688119340E+04  0.14688119340E+04  0.25500000000E-02 0.  1.
    5000001    1    1    2    0    0  0.22532033371E+02 -0.36429527449E+02 -0.50632750275E+03  0.51393710027E+03  0.77000000000E+02 0.  0.
   -5000001    1    1    2    0    0 -0.22532033371E+02  0.36429527449E+02 -0.95665502445E+03  0.96070424107E+03  0.77000000000E+02 0.  0.
<mgrwt>
<rscale>  0 0.18506542E+03</rscale>
<asrwt>0</asrwt>
<pdfrwt beam="1">  1        2 0.20983004E+00 0.18506542E+03</pdfrwt>
<pdfrwt beam="2">  1       -2 0.83277337E-03 0.18506542E+03</pdfrwt>
<totfact> 0.43780199E+04</totfact>
</mgrwt>
</event>
<event>
 4    1  0.4950349E-004  0.6674821E+03  0.7818608E-02  0.9774517E-01
          2   -1    0    0  501    0  0.00000000000E+00  0.00000000000E+00  0.47582343266E+03  0.47582343266E+03  0.25500000000E-02 0.  1.
         -2   -1    0    0    0  501 -0.00000000000E+00 -0.00000000000E+00 -0.23408491019E+03  0.23408491020E+03  0.25500000000E-02 0. -1.
    5000001    1    1    2    0    0  0.28779210577E+01  0.29613231412E+03 -0.20833935427E+02  0.30670129240E+03  0.77000000000E+02 0.  0.
   -5000001    1    1    2    0    0 -0.28779210577E+01 -0.29613231412E+03  0.26257245790E+03  0.40320705046E+03  0.77000000000E+02 0.  0.
<mgrwt>
<rscale>  0 0.66748209E+03</rscale>
<asrwt>0</asrwt>
<pdfrwt beam="1">  1        2 0.67974776E-01 0.66748209E+03</pdfrwt>
<pdfrwt beam="2">  1       -2 0.33440701E-01 0.66748209E+03</pdfrwt>
<totfact> 0.59692994E+02</totfact>
</mgrwt>
</event>
<event>
 4    1  0.4950349E-004  0.4469160E+03  0.7818608E-02  0.1028646E+00
          2   -1    0    0  501    0  0.00000000000E+00  0.00000000000E+00  0.25472603377E+04  0.25472603377E+04  0.25500000000E-02 0.  1.
         -2   -1    0    0    0  501 -0.00000000000E+00 -0.00000000000E+00 -0.19602814535E+02  0.19602814700E+02  0.25500000000E-02 0. -1.
    5000001    1    1    2    0    0 -0.19324313266E+03 -0.81614481191E+02  0.12592327905E+04  0.12789058028E+04  0.77000000000E+02 0.  0.
   -5000001    1    1    2    0    0  0.19324313266E+03  0.81614481191E+02  0.12684247327E+04  0.12879573496E+04  0.77000000000E+02 0.  0.
<mgrwt>
<rscale>  0 0.44691598E+03</rscale>
<asrwt>0</asrwt>
<pdfrwt beam="1">  1        2 0.36389449E+00 0.44691598E+03</pdfrwt>
<pdfrwt beam="2">  1       -2 0.28004009E-02 0.44691598E+03</pdfrwt>
<totfact> 0.22003489E+03</totfact>
</mgrwt>
</event>
<event>
 4    1  0.4950349E-004  0.2018751E+03  0.7818608E-02  0.1148167E+00
          2   -1    0    0  501    0  0.00000000000E+00  0.00000000000E+00  0.45043266210E+03  0.45043266211E+03  0.25500000000E-02 0.  1.
         -2   -1    0    0    0  501 -0.00000000000E+00 -0.00000000000E+00 -0.22619117878E+02  0.22619118022E+02  0.25500000000E-02 0. -1.
    5000001    1    1    2    0    0  0.50752798497E+02 -0.35453622559E+02  0.26230483693E+03  0.28029561785E+03  0.77000000000E+02 0.  0.
   -5000001    1    1    2    0    0 -0.50752798497E+02  0.35453622559E+02  0.16550870729E+03  0.19275616228E+03  0.77000000000E+02 0.  0.
<mgrwt>
<rscale>  0 0.20187511E+03</rscale>
<asrwt>0</asrwt>
<pdfrwt beam="1">  1        2 0.64347519E-01 0.20187511E+03</pdfrwt>
<pdfrwt beam="2">  1       -2 0.32313028E-02 0.20187511E+03</pdfrwt>
<totfact> 0.27873953E+04</totfact>
</mgrwt>
</event>
<event>
 4    1  0.4950349E-004  0.1899953E+03  0.7818608E-02  0.1158466E+00
          2   -1    0    0  501    0  0.00000000000E+00  0.00000000000E+00  0.79397274710E+03  0.79397274710E+03  0.25500000000E-02 0.  1.
         -2   -1    0    0    0  501 -0.00000000000E+00 -0.00000000000E+00 -0.11366329308E+02  0.11366329594E+02  0.25500000000E-02 0. -1.
    5000001    1    1    2    0    0 -0.34367311246E+02 -0.43026830602E+02  0.35762313986E+03  0.36994017137E+03  0.77000000000E+02 0.  0.
   -5000001    1    1    2    0    0  0.34367311246E+02  0.43026830602E+02  0.42498327793E+03  0.43539890532E+03  0.77000000000E+02 0.  0.
<mgrwt>
<rscale>  0 0.18999532E+03</rscale>
<asrwt>0</asrwt>
<pdfrwt beam="1">  1        2 0.11342470E+00 0.18999532E+03</pdfrwt>
<pdfrwt beam="2">  1       -2 0.16237610E-02 0.18999532E+03</pdfrwt>
<totfact> 0.39947197E+04</totfact>
</mgrwt>
</event>
<event>
 4    1  0.4950349E-004  0.1933563E+03  0.7818608E-02  0.1155469E+00
         -2   -1    0    0    0  501 -0.00000000000E+00  0.00000000000E+00  0.23914493398E+01  0.23914506993E+01  0.25500000000E-02 0. -1.
          2   -1    0    0  501    0  0.00000000000E+00 -0.00000000000E+00 -0.39083678078E+04  0.39083678078E+04  0.25500000000E-02 0.  1.
    5000001    1    1    2    0    0 -0.19142364039E+02  0.39027370967E+02 -0.27436279847E+04  0.27450524739E+04  0.77000000000E+02 0.  0.
   -5000001    1    1    2    0    0  0.19142364039E+02 -0.39027370967E+02 -0.11623483737E+04  0.11657067846E+04  0.77000000000E+02 0.  0.
<mgrwt>
<rscale>  0 0.19335632E+03</rscale>
<asrwt>0</asrwt>
<pdfrwt beam="1">  1        2 0.55833417E+00 0.19335632E+03</pdfrwt>
<pdfrwt beam="2">  1       -2 0.34163822E-03 0.19335632E+03</pdfrwt>
<totfact> 0.83618508E+03</totfact>
</mgrwt>
</event>
<event>
 4    1  0.4950349E-004  0.4590518E+03  0.7818608E-02  0.1025057E+00
          2   -1    0    0  501    0  0.00000000000E+00  0.00000000000E+00  0.27135589769E+03  0.27135589770E+03  0.25500000000E-02 0.  1.
         -2   -1    0    0    0  501 -0.00000000000E+00 -0.00000000000E+00 -0.19414406408E+03  0.19414406409E+03  0.25500000000E-02 0. -1.
    5000001    1    1    2    0    0  0.72483380341E+01 -0.10730567803E+03 -0.15160851612E+03  0.20119937649E+03  0.77000000000E+02 0.  0.
   -5000001    1    1    2    0    0 -0.72483380341E+01  0.10730567803E+03  0.22882034973E+03  0.26430058530E+03  0.77000000000E+02 0.  0.
<mgrwt>
<rscale>  0 0.45905179E+03</rscale>
<asrwt>0</asrwt>
<pdfrwt beam="1">  1        2 0.38765128E-01 0.45905179E+03</pdfrwt>
<pdfrwt beam="2">  1       -2 0.27734866E-01 0.45905179E+03</pdfrwt>
<totfact> 0.15731850E+03</totfact>
</mgrwt>
</event>
<event>
 4    1  0.4950349E-004  0.4171894E+03  0.7818608E-02  0.1037985E+00
          2   -1    0    0  501    0  0.00000000000E+00  0.00000000000E+00  0.14806490314E+03  0.14806490316E+03  0.25500000000E-02 0.  1.
         -2   -1    0    0    0  501 -0.00000000000E+00 -0.00000000000E+00 -0.29386947294E+03  0.29386947295E+03  0.25500000000E-02 0. -1.
    5000001    1    1    2    0    0  0.78374873929E+02  0.55205238365E+02 -0.25139743771E+03  0.27985694720E+03  0.77000000000E+02 0.  0.
   -5000001    1    1    2    0    0 -0.78374873929E+02 -0.55205238365E+02  0.10559286791E+03  0.16207742891E+03  0.77000000000E+02 0.  0.
<mgrwt>
<rscale>  0 0.41718943E+03</rscale>
<asrwt>0</asrwt>
<pdfrwt beam="1">  1        2 0.21152129E-01 0.41718943E+03</pdfrwt>
<pdfrwt beam="2">  1       -2 0.41981353E-01 0.41718943E+03</pdfrwt>
<totfact> 0.14240611E+03</totfact>
</mgrwt>
</event>
<event>
 4    1  0.4950349E-004  0.2129229E+03  0.7818608E-02  0.1139272E+00
         -2   -1    0    0    0  501 -0.00000000000E+00  0.00000000000E+00  0.11102759569E+03  0.11102759572E+03  0.25500000000E-02 0. -1.
          2   -1    0    0  501    0  0.00000000000E+00 -0.00000000000E+00 -0.10208313851E+03  0.10208313854E+03  0.25500000000E-02 0.  1.
    5000001    1    1    2    0    0  0.63907245579E+02 -0.17860829727E+02 -0.27208493949E+02  0.10522569752E+03  0.77000000000E+02 0.  0.
   -5000001    1    1    2    0    0 -0.63907245579E+02  0.17860829727E+02  0.36152951135E+02  0.10788503674E+03  0.77000000000E+02 0.  0.
<mgrwt>
<rscale>  0 0.21292295E+03</rscale>
<asrwt>0</asrwt>
<pdfrwt beam="1">  1        2 0.14583305E-01 0.21292295E+03</pdfrwt>
<pdfrwt beam="2">  1       -2 0.15861085E-01 0.21292295E+03</pdfrwt>
<totfact> 0.12203574E+04</totfact>
</mgrwt>
</event>
<event>
 4    1  0.4950349E-004  0.3219321E+03  0.7818608E-02  0.1074764E+00
          2   -1    0    0  501    0  0.00000000000E+00  0.00000000000E+00  0.53031060097E+03  0.53031060098E+03  0.25500000000E-02 0.  1.
         -2   -1    0    0    0  501 -0.00000000000E+00 -0.00000000000E+00 -0.48858289851E+02  0.48858289918E+02  0.25500000000E-02 0. -1.
    5000001    1    1    2    0    0  0.13981904040E+03  0.38580008322E+01  0.20399660105E+03  0.25905185093E+03  0.77000000000E+02 0.  0.
   -5000001    1    1    2    0    0 -0.13981904040E+03 -0.38580008322E+01  0.27745571007E+03  0.32011703997E+03  0.77000000000E+02 0.  0.
<mgrwt>
<rscale>  0 0.32193210E+03</rscale>
<asrwt>0</asrwt>
<pdfrwt beam="1">  1        2 0.75758663E-01 0.32193210E+03</pdfrwt>
<pdfrwt beam="2">  1       -2 0.69797552E-02 0.32193210E+03</pdfrwt>
<totfact> 0.74257828E+03</totfact>
</mgrwt>
</event>
<event>
 4    1  0.4950349E-004  0.2690977E+03  0.7818608E-02  0.1101797E+00
          2   -1    0    0  501    0  0.00000000000E+00  0.00000000000E+00  0.27577319416E+04  0.27577319416E+04  0.25500000000E-02 0.  1.
         -2   -1    0    0    0  501 -0.00000000000E+00 -0.00000000000E+00 -0.65645969224E+01  0.65645974176E+01  0.25500000000E-02 0. -1.
    5000001    1    1    2    0    0 -0.58914533630E+02  0.92886688925E+02  0.14648655273E+04  0.14710060749E+04  0.77000000000E+02 0.  0.
   -5000001    1    1    2    0    0  0.58914533630E+02 -0.92886688925E+02  0.12863018174E+04  0.12932904642E+04  0.77000000000E+02 0.  0.
<mgrwt>
<rscale>  0 0.26909775E+03</rscale>
<asrwt>0</asrwt>
<pdfrwt beam="1">  1        2 0.39396237E+00 0.26909775E+03</pdfrwt>
<pdfrwt beam="2">  1       -2 0.93779801E-03 0.26909775E+03</pdfrwt>
<totfact> 0.86919089E+03</totfact>
</mgrwt>
</event>
<event>
 4    1  0.4950349E-004  0.3081519E+03  0.7818608E-02  0.1081235E+00
          2   -1    0    0  501    0  0.00000000000E+00  0.00000000000E+00  0.25796389827E+04  0.25796389827E+04  0.25500000000E-02 0.  1.
         -2   -1    0    0    0  501 -0.00000000000E+00 -0.00000000000E+00 -0.92026042502E+01  0.92026046035E+01  0.25500000000E-02 0. -1.
    5000001    1    1    2    0    0  0.31286833443E+02  0.12378887200E+03  0.16114446482E+04  0.16183279659E+04  0.77000000000E+02 0.  0.
   -5000001    1    1    2    0    0 -0.31286833443E+02 -0.12378887200E+03  0.95899173027E+03  0.97051362149E+03  0.77000000000E+02 0.  0.
<mgrwt>
<rscale>  0 0.30815189E+03</rscale>
<asrwt>0</asrwt>
<pdfrwt beam="1">  1        2 0.36852040E+00 0.30815189E+03</pdfrwt>
<pdfrwt beam="2">  1       -2 0.13146558E-02 0.30815189E+03</pdfrwt>
<totfact> 0.65444864E+03</totfact>
</mgrwt>
</event>
<event>
 4    1  0.4950349E-004  0.1946247E+03  0.7818608E-02  0.1154355E+00
          2   -1    0    0  501    0  0.00000000000E+00  0.00000000000E+00  0.38763383180E+03  0.38763383181E+03  0.25500000000E-02 0.  1.
         -2   -1    0    0    0  501 -0.00000000000E+00 -0.00000000000E+00 -0.24429472090E+02  0.24429472223E+02  0.25500000000E-02 0. -1.
    5000001    1    1    2    0    0  0.28977147840E+02  0.48909187090E+02  0.21881387003E+03  0.23883109805E+03  0.77000000000E+02 0.  0.
   -5000001    1    1    2    0    0 -0.28977147840E+02 -0.48909187090E+02  0.14439048968E+03  0.17323220598E+03  0.77000000000E+02 0.  0.
<mgrwt>
<rscale>  0 0.19462466E+03</rscale>
<asrwt>0</asrwt>
<pdfrwt beam="1">  1        2 0.55376261E-01 0.19462466E+03</pdfrwt>
<pdfrwt beam="2">  1       -2 0.34899246E-02 0.19462466E+03</pdfrwt>
<totfact> 0.29141702E+04</totfact>
</mgrwt>
</event>
<event>
 4    1  0.4950349E-004  0.3291834E+03  0.7818608E-02  0.1071499E+00
          2   -1    0    0  501    0  0.00000000000E+00  0.00000000000E+00  0.36829797104E+02  0.36829797192E+02  0.25500000000E-02 0.  1.
         -2   -1    0    0    0  501 -0.00000000000E+00 -0.00000000000E+00 -0.73555733043E+03  0.73555733043E+03  0.25500000000E-02 0. -1.
    5000001    1    1    2    0    0 -0.14468039050E+03  0.94590320035E+01 -0.32164689117E+03  0.36111994030E+03  0.77000000000E+02 0.  0.
   -5000001    1    1    2    0    0  0.14468039050E+03 -0.94590320035E+01 -0.37708064215E+03  0.41126718732E+03  0.77000000000E+02 0.  0.
<mgrwt>
<rscale>  0 0.32918340E+03</rscale>
<asrwt>0</asrwt>
<pdfrwt beam="1">  1        2 0.52614000E-02 0.32918340E+03</pdfrwt>
<pdfrwt beam="2">  1       -2 0.10507961E+00 0.32918340E+03</pdfrwt>
<totfact> 0.11272873E+03</totfact>
</mgrwt>
</event>
<event>
 4    1  0.4950349E-004  0.3157925E+03  0.7818608E-02  0.1077602E+00
          2   -1    0    0  501    0  0.00000000000E+00  0.00000000000E+00  0.59567563235E+03  0.59567563236E+03  0.25500000000E-02 0. -1.
         -2   -1    0    0    0  501 -0.00000000000E+00 -0.00000000000E+00 -0.41853688733E+02  0.41853688811E+02  0.25500000000E-02 0.  1.
    5000001    1    1    2    0    0 -0.17465177035E+02  0.12984854495E+03  0.36342752839E+03  0.39392162346E+03  0.77000000000E+02 0.  0.
   -5000001    1    1    2    0    0  0.17465177035E+02 -0.12984854495E+03  0.19039441523E+03  0.24360769771E+03  0.77000000000E+02 0.  0.
<mgrwt>
<rscale>  0 0.31579248E+03</rscale>
<asrwt>0</asrwt>
<pdfrwt beam="1">  1        2 0.85096521E-01 0.31579248E+03</pdfrwt>
<pdfrwt beam="2">  1       -2 0.59790982E-02 0.31579248E+03</pdfrwt>
<totfact> 0.82640980E+03</totfact>
</mgrwt>
</event>
<event>
 4    1  0.4950349E-004  0.2363110E+03  0.7818608E-02  0.1122275E+00
          2   -1    0    0  501    0  0.00000000000E+00  0.00000000000E+00  0.44246479602E+03  0.44246479603E+03  0.25500000000E-02 0.  1.
         -2   -1    0    0    0  501 -0.00000000000E+00 -0.00000000000E+00 -0.31552163736E+02  0.31552163839E+02  0.25500000000E-02 0. -1.
    5000001    1    1    2    0    0 -0.46039926400E+02  0.76300998039E+02  0.18640503107E+03  0.22049343013E+03  0.77000000000E+02 0.  0.
   -5000001    1    1    2    0    0  0.46039926400E+02 -0.76300998039E+02  0.22450760122E+03  0.25352352974E+03  0.77000000000E+02 0.  0.
<mgrwt>
<rscale>  0 0.23631100E+03</rscale>
<asrwt>0</asrwt>
<pdfrwt beam="1">  1        2 0.63209260E-01 0.23631100E+03</pdfrwt>
<pdfrwt beam="2">  1       -2 0.45074517E-02 0.23631100E+03</pdfrwt>
<totfact> 0.17462305E+04</totfact>
</mgrwt>
</event>
<event>
 4    1  0.4950349E-004  0.2887707E+03  0.7818608E-02  0.1090993E+00
          2   -1    0    0  501    0  0.00000000000E+00  0.00000000000E+00  0.53524918805E+03  0.53524918806E+03  0.25500000000E-02 0.  1.
         -2   -1    0    0    0  501 -0.00000000000E+00 -0.00000000000E+00 -0.38948464003E+02  0.38948464087E+02  0.25500000000E-02 0. -1.
    5000001    1    1    2    0    0 -0.72311701588E+02  0.83507374608E+02  0.14452961133E+03  0.19753549644E+03  0.77000000000E+02 0.  0.
   -5000001    1    1    2    0    0  0.72311701588E+02 -0.83507374608E+02  0.35177111272E+03  0.37666215571E+03  0.77000000000E+02 0.  0.
<mgrwt>
<rscale>  0 0.28877073E+03</rscale>
<asrwt>0</asrwt>
<pdfrwt beam="1">  1        2 0.76464172E-01 0.28877073E+03</pdfrwt>
<pdfrwt beam="2">  1       -2 0.55640661E-02 0.28877073E+03</pdfrwt>
<totfact> 0.10384475E+04</totfact>
</mgrwt>
</event>
<event>
 4    1  0.4950349E-004  0.1911002E+03  0.7818608E-02  0.1157473E+00
         -2   -1    0    0    0  501 -0.00000000000E+00  0.00000000000E+00  0.29390916947E+01  0.29390928009E+01  0.25500000000E-02 0. -1.
          2   -1    0    0  501    0  0.00000000000E+00 -0.00000000000E+00 -0.31063406538E+04  0.31063406538E+04  0.25500000000E-02 0.  1.
    5000001    1    1    2    0    0  0.33898215892E+02  0.37952141513E+02 -0.19540006409E+04  0.19561791735E+04  0.77000000000E+02 0.  0.
   -5000001    1    1    2    0    0 -0.33898215892E+02 -0.37952141513E+02 -0.11494009212E+04  0.11531005731E+04  0.77000000000E+02 0.  0.
<mgrwt>
<rscale>  0 0.19110020E+03</rscale>
<asrwt>0</asrwt>
<pdfrwt beam="1">  1        2 0.44376085E+00 0.19110020E+03</pdfrwt>
<pdfrwt beam="2">  1       -2 0.41987231E-03 0.19110020E+03</pdfrwt>
<totfact> 0.18070685E+04</totfact>
</mgrwt>
</event>
<event>
 4    1  0.4950349E-004  0.2137516E+03  0.7818608E-02  0.1138629E+00
          2   -1    0    0  501    0  0.00000000000E+00  0.00000000000E+00  0.22990826978E+04  0.22990826978E+04  0.25500000000E-02 0.  1.
         -2   -1    0    0    0  501 -0.00000000000E+00 -0.00000000000E+00 -0.49682561320E+01  0.49682567864E+01  0.25500000000E-02 0. -1.
    5000001    1    1    2    0    0  0.68721928178E+02  0.27512755315E+02  0.11070474911E+04  0.11121882946E+04  0.77000000000E+02 0.  0.
   -5000001    1    1    2    0    0 -0.68721928178E+02 -0.27512755315E+02  0.11870669506E+04  0.11918626600E+04  0.77000000000E+02 0.  0.
<mgrwt>
<rscale>  0 0.21375156E+03</rscale>
<asrwt>0</asrwt>
<pdfrwt beam="1">  1        2 0.32843975E+00 0.21375156E+03</pdfrwt>
<pdfrwt beam="2">  1       -2 0.70975229E-03 0.21375156E+03</pdfrwt>
<totfact> 0.21913051E+04</totfact>
</mgrwt>
</event>
<event>
 4    1  0.4950349E-004  0.1833864E+03  0.7818608E-02  0.1164565E+00
         -2   -1    0    0    0  501 -0.00000000000E+00  0.00000000000E+00  0.48638916153E+02  0.48638916220E+02  0.25500000000E-02 0. -1.
          2   -1    0    0  501    0  0.00000000000E+00 -0.00000000000E+00 -0.17285836245E+03  0.17285836247E+03  0.25500000000E-02 0.  1.
    5000001    1    1    2    0    0 -0.35742506101E+02 -0.34619754549E+02 -0.60166202996E+02  0.10965868014E+03  0.77000000000E+02 0.  0.
   -5000001    1    1    2    0    0  0.35742506101E+02  0.34619754549E+02 -0.64053243297E+02  0.11183859854E+03  0.77000000000E+02 0.  0.
<mgrwt>
<rscale>  0 0.18338641E+03</rscale>
<asrwt>0</asrwt>
<pdfrwt beam="1">  1        2 0.24694051E-01 0.18338641E+03</pdfrwt>
<pdfrwt beam="2">  1       -2 0.69484167E-02 0.18338641E+03</pdfrwt>
<totfact> 0.24520357E+04</totfact>
</mgrwt>
</event>
<event>
 4    1  0.4950349E-004  0.2349544E+03  0.7818608E-02  0.1123200E+00
          2   -1    0    0  501    0  0.00000000000E+00  0.00000000000E+00  0.72346675209E+03  0.72346675210E+03  0.25500000000E-02 0.  1.
         -2   -1    0    0    0  501 -0.00000000000E+00 -0.00000000000E+00 -0.19076048144E+02  0.19076048315E+02  0.25500000000E-02 0. -1.
    5000001    1    1    2    0    0  0.55066221187E+02 -0.67855600378E+02  0.40066511703E+03  0.41725077258E+03  0.77000000000E+02 0.  0.
   -5000001    1    1    2    0    0 -0.55066221187E+02  0.67855600378E+02  0.30372558692E+03  0.32529202783E+03  0.77000000000E+02 0.  0.
<mgrwt>
<rscale>  0 0.23495435E+03</rscale>
<asrwt>0</asrwt>
<pdfrwt beam="1">  1        2 0.10335238E+00 0.23495435E+03</pdfrwt>
<pdfrwt beam="2">  1       -2 0.27251502E-02 0.23495435E+03</pdfrwt>
<totfact> 0.21235133E+04</totfact>
</mgrwt>
</event>
<event>
 4    1  0.4950349E-004  0.4638112E+03  0.7818608E-02  0.1023682E+00
         -2   -1    0    0    0  501 -0.00000000000E+00  0.00000000000E+00  0.33142583123E+03  0.33142583124E+03  0.25500000000E-02 0. -1.
          2   -1    0    0  501    0  0.00000000000E+00 -0.00000000000E+00 -0.16226921232E+03  0.16226921234E+03  0.25500000000E-02 0.  1.
    5000001    1    1    2    0    0 -0.12939737184E+03 -0.14401619383E+03 -0.23799718591E+02  0.20971354399E+03  0.77000000000E+02 0.  0.
   -5000001    1    1    2    0    0  0.12939737184E+03  0.14401619383E+03  0.19295633751E+03  0.28398149959E+03  0.77000000000E+02 0.  0.
<mgrwt>
<rscale>  0 0.46381121E+03</rscale>
<asrwt>0</asrwt>
<pdfrwt beam="1">  1        2 0.23181316E-01 0.46381121E+03</pdfrwt>
<pdfrwt beam="2">  1       -2 0.47346547E-01 0.46381121E+03</pdfrwt>
<totfact> 0.10122171E+03</totfact>
</mgrwt>
</event>
<event>
 4    1  0.4950349E-004  0.2024951E+03  0.7818608E-02  0.1147651E+00
         -2   -1    0    0    0  501 -0.00000000000E+00  0.00000000000E+00  0.72008220155E+01  0.72008224670E+01  0.25500000000E-02 0. -1.
          2   -1    0    0  501    0  0.00000000000E+00 -0.00000000000E+00 -0.14235959971E+04  0.14235959971E+04  0.25500000000E-02 0.  1.
    5000001    1    1    2    0    0 -0.72761605023E+01  0.24299612073E+02 -0.11367536732E+04  0.11396408764E+04  0.77000000000E+02 0.  0.
   -5000001    1    1    2    0    0  0.72761605023E+01 -0.24299612073E+02 -0.27964150187E+03  0.29115594314E+03  0.77000000000E+02 0.  0.
<mgrwt>
<rscale>  0 0.20249505E+03</rscale>
<asrwt>0</asrwt>
<pdfrwt beam="1">  1        2 0.20337068E+00 0.20249505E+03</pdfrwt>
<pdfrwt beam="2">  1       -2 0.10286898E-02 0.20249505E+03</pdfrwt>
<totfact> 0.34244770E+04</totfact>
</mgrwt>
</event>
<event>
 4    1  0.4950349E-004  0.1844249E+03  0.7818608E-02  0.1163588E+00
         -2   -1    0    0    0  501 -0.00000000000E+00  0.00000000000E+00  0.29543609042E+01  0.29543620047E+01  0.25500000000E-02 0. -1.
          2   -1    0    0  501    0  0.00000000000E+00 -0.00000000000E+00 -0.28781630380E+04  0.28781630380E+04  0.25500000000E-02 0.  1.
    5000001    1    1    2    0    0 -0.43427253719E+02  0.16363562003E+02 -0.11172768607E+04  0.11208881639E+04  0.77000000000E+02 0.  0.
   -5000001    1    1    2    0    0  0.43427253719E+02 -0.16363562003E+02 -0.17579318165E+04  0.17602292362E+04  0.77000000000E+02 0.  0.
<mgrwt>
<rscale>  0 0.18442488E+03</rscale>
<asrwt>0</asrwt>
<pdfrwt beam="1">  1        2 0.41116435E+00 0.18442488E+03</pdfrwt>
<pdfrwt beam="2">  1       -2 0.42205348E-03 0.18442488E+03</pdfrwt>
<totfact> 0.23586736E+04</totfact>
</mgrwt>
</event>
<event>
 4    1  0.4950349E-004  0.2474548E+03  0.7818608E-02  0.1114924E+00
         -2   -1    0    0    0  501 -0.00000000000E+00  0.00000000000E+00  0.51773719863E+02  0.51773719926E+02  0.25500000000E-02 0. -1.
          2   -1    0    0  501    0  0.00000000000E+00 -0.00000000000E+00 -0.29568039227E+03  0.29568039228E+03  0.25500000000E-02 0.  1.
    5000001    1    1    2    0    0 -0.53938363401E+02 -0.73529478772E+02 -0.76162461398E+02  0.14158266780E+03  0.77000000000E+02 0.  0.
   -5000001    1    1    2    0    0  0.53938363401E+02  0.73529478772E+02 -0.16774421100E+03  0.20587144440E+03  0.77000000000E+02 0.  0.
<mgrwt>
<rscale>  0 0.24745483E+03</rscale>
<asrwt>0</asrwt>
<pdfrwt beam="1">  1        2 0.42240055E-01 0.24745483E+03</pdfrwt>
<pdfrwt beam="2">  1       -2 0.73962458E-02 0.24745483E+03</pdfrwt>
<totfact> 0.12673288E+04</totfact>
</mgrwt>
</event>
<event>
 4    1  0.4950349E-004  0.2698553E+03  0.7818608E-02  0.1101362E+00
         -2   -1    0    0    0  501 -0.00000000000E+00  0.00000000000E+00  0.16584726977E+02  0.16584727173E+02  0.25500000000E-02 0. -1.
          2   -1    0    0  501    0  0.00000000000E+00 -0.00000000000E+00 -0.10977247953E+04  0.10977247953E+04  0.25500000000E-02 0.  1.
    5000001    1    1    2    0    0 -0.54476962067E+02  0.96177498431E+02 -0.50895589855E+03  0.52648167799E+03  0.77000000000E+02 0.  0.
   -5000001    1    1    2    0    0  0.54476962067E+02 -0.96177498431E+02 -0.57218416973E+03  0.58782784443E+03  0.77000000000E+02 0.  0.
<mgrwt>
<rscale>  0 0.26985527E+03</rscale>
<asrwt>0</asrwt>
<pdfrwt beam="1">  1        2 0.15681778E+00 0.26985527E+03</pdfrwt>
<pdfrwt beam="2">  1       -2 0.23692474E-02 0.26985527E+03</pdfrwt>
<totfact> 0.15326485E+04</totfact>
</mgrwt>
</event>
<event>
 4    1  0.4950349E-004  0.8636203E+03  0.7818608E-02  0.9472236E-01
          2   -1    0    0  501    0  0.00000000000E+00  0.00000000000E+00  0.11536342107E+04  0.11536342107E+04  0.25500000000E-02 0.  1.
         -2   -1    0    0    0  501 -0.00000000000E+00 -0.00000000000E+00 -0.16162835835E+03  0.16162835837E+03  0.25500000000E-02 0. -1.
    5000001    1    1    2    0    0 -0.10306319807E+03  0.34374909617E+03  0.14956448048E+03  0.39633823653E+03  0.77000000000E+02 0.  0.
   -5000001    1    1    2    0    0  0.10306319807E+03 -0.34374909617E+03  0.84244137185E+03  0.91892433253E+03  0.77000000000E+02 0.  0.
<mgrwt>
<rscale>  0 0.86362030E+03</rscale>
<asrwt>0</asrwt>
<pdfrwt beam="1">  1        2 0.16480489E+00 0.86362030E+03</pdfrwt>
<pdfrwt beam="2">  1       -2 0.23089765E-01 0.86362030E+03</pdfrwt>
<totfact> 0.37635250E+02</totfact>
</mgrwt>
</event>
<event>
 4    1  0.4950349E-004  0.1870961E+03  0.7818608E-02  0.1161107E+00
          2   -1    0    0  501    0  0.00000000000E+00  0.00000000000E+00  0.11179250597E+04  0.11179250597E+04  0.25500000000E-02 0.  1.
         -2   -1    0    0    0  501 -0.00000000000E+00 -0.00000000000E+00 -0.78281075627E+01  0.78281079780E+01  0.25500000000E-02 0. -1.
    5000001    1    1    2    0    0 -0.25091436260E+02  0.46642023733E+02  0.57998759712E+03  0.58746886843E+03  0.77000000000E+02 0.  0.
   -5000001    1    1    2    0    0  0.25091436260E+02 -0.46642023733E+02  0.53010935497E+03  0.53828429921E+03  0.77000000000E+02 0.  0.
<mgrwt>
<rscale>  0 0.18709610E+03</rscale>
<asrwt>0</asrwt>
<pdfrwt beam="1">  1        2 0.15970366E+00 0.18709610E+03</pdfrwt>
<pdfrwt beam="2">  1       -2 0.11183006E-02 0.18709610E+03</pdfrwt>
<totfact> 0.43716520E+04</totfact>
</mgrwt>
</event>
<event>
 4    1  0.4950349E-004  0.3341816E+03  0.7818608E-02  0.1069301E+00
          2   -1    0    0  501    0  0.00000000000E+00  0.00000000000E+00  0.23370618989E+03  0.23370618990E+03  0.25500000000E-02 0.  1.
         -2   -1    0    0    0  501 -0.00000000000E+00 -0.00000000000E+00 -0.11946336962E+03  0.11946336965E+03  0.25500000000E-02 0. -1.
    5000001    1    1    2    0    0 -0.82572682249E+02  0.12221780939E+03  0.40924530720E+02  0.17134543473E+03  0.77000000000E+02 0.  0.
   -5000001    1    1    2    0    0  0.82572682249E+02 -0.12221780939E+03  0.73318289548E+02  0.18182412483E+03  0.77000000000E+02 0.  0.
<mgrwt>
<rscale>  0 0.33418156E+03</rscale>
<asrwt>0</asrwt>
<pdfrwt beam="1">  1        2 0.33386599E-01 0.33418156E+03</pdfrwt>
<pdfrwt beam="2">  1       -2 0.17066195E-01 0.33418156E+03</pdfrwt>
<totfact> 0.43033291E+03</totfact>
</mgrwt>
</event>
<event>
 4    1  0.4950349E-004  0.4752971E+03  0.7818608E-02  0.1020436E+00
          2   -1    0    0  501    0  0.00000000000E+00  0.00000000000E+00  0.64136279154E+03  0.64136279155E+03  0.25500000000E-02 0.  1.
         -2   -1    0    0    0  501 -0.00000000000E+00 -0.00000000000E+00 -0.88057549084E+02  0.88057549121E+02  0.25500000000E-02 0. -1.
    5000001    1    1    2    0    0  0.60105658439E+02  0.17795537590E+03  0.87030076835E+02  0.22087109422E+03  0.77000000000E+02 0.  0.
   -5000001    1    1    2    0    0 -0.60105658439E+02 -0.17795537590E+03  0.46627516562E+03  0.50854924645E+03  0.77000000000E+02 0.  0.
<mgrwt>
<rscale>  0 0.47529711E+03</rscale>
<asrwt>0</asrwt>
<pdfrwt beam="1">  1        2 0.91623261E-01 0.47529711E+03</pdfrwt>
<pdfrwt beam="2">  1       -2 0.12579649E-01 0.47529711E+03</pdfrwt>
<totfact> 0.23454105E+03</totfact>
</mgrwt>
</event>
<event>
 4    1  0.4950349E-004  0.2375648E+03  0.7818608E-02  0.1121426E+00
         -2   -1    0    0    0  501 -0.00000000000E+00  0.00000000000E+00  0.67561368173E+02  0.67561368221E+02  0.25500000000E-02 0. -1.
          2   -1    0    0  501    0  0.00000000000E+00 -0.00000000000E+00 -0.20883620402E+03  0.20883620404E+03  0.25500000000E-02 0.  1.
    5000001    1    1    2    0    0  0.16397696588E+02  0.81809851881E+02 -0.30024046354E+02  0.11744011103E+03  0.77000000000E+02 0.  0.
   -5000001    1    1    2    0    0 -0.16397696588E+02 -0.81809851881E+02 -0.11125078950E+03  0.15895746123E+03  0.77000000000E+02 0.  0.
<mgrwt>
<rscale>  0 0.23756481E+03</rscale>
<asrwt>0</asrwt>
<pdfrwt beam="1">  1        2 0.29833743E-01 0.23756481E+03</pdfrwt>
<pdfrwt beam="2">  1       -2 0.96516242E-02 0.23756481E+03</pdfrwt>
<totfact> 0.12148698E+04</totfact>
</mgrwt>
</event>
<event>
 4    1  0.4950349E-004  0.3454963E+03  0.7818608E-02  0.1064479E+00
         -2   -1    0    0    0  501 -0.00000000000E+00  0.00000000000E+00  0.29937102402E+02  0.29937102511E+02  0.25500000000E-02 0. -1.
          2   -1    0    0  501    0  0.00000000000E+00 -0.00000000000E+00 -0.99682056690E+03  0.99682056690E+03  0.25500000000E-02 0.  1.
    5000001    1    1    2    0    0 -0.13898665386E+03  0.66361227554E+02 -0.44228242110E+03  0.47461968194E+03  0.77000000000E+02 0.  0.
   -5000001    1    1    2    0    0  0.13898665386E+03 -0.66361227554E+02 -0.52460104340E+03  0.55213798747E+03  0.77000000000E+02 0.  0.
<mgrwt>
<rscale>  0 0.34549628E+03</rscale>
<asrwt>0</asrwt>
<pdfrwt beam="1">  1        2 0.14240292E+00 0.34549628E+03</pdfrwt>
<pdfrwt beam="2">  1       -2 0.42767295E-02 0.34549628E+03</pdfrwt>
<totfact> 0.72994358E+03</totfact>
</mgrwt>
</event>
<event>
 4    1  0.4950349E-004  0.2068964E+03  0.7818608E-02  0.1144048E+00
         -2   -1    0    0    0  501 -0.00000000000E+00  0.00000000000E+00  0.71932264962E+01  0.71932269481E+01  0.25500000000E-02 0. -1.
          2   -1    0    0  501    0  0.00000000000E+00 -0.00000000000E+00 -0.14877224908E+04  0.14877224908E+04  0.25500000000E-02 0.  1.
    5000001    1    1    2    0    0 -0.66772253991E+02  0.27466766286E+01 -0.61377888466E+03  0.62218935814E+03  0.77000000000E+02 0.  0.
   -5000001    1    1    2    0    0  0.66772253991E+02 -0.27466766286E+01 -0.86675037964E+03  0.87272635961E+03  0.77000000000E+02 0.  0.
<mgrwt>
<rscale>  0 0.20689635E+03</rscale>
<asrwt>0</asrwt>
<pdfrwt beam="1">  1        2 0.21253159E+00 0.20689635E+03</pdfrwt>
<pdfrwt beam="2">  1       -2 0.10276048E-02 0.20689635E+03</pdfrwt>
<totfact> 0.31881209E+04</totfact>
</mgrwt>
</event>
<event>
 4    1  0.4950349E-004  0.2155693E+03  0.7818608E-02  0.1137230E+00
         -2   -1    0    0    0  501 -0.00000000000E+00  0.00000000000E+00  0.53810174134E+02  0.53810174194E+02  0.25500000000E-02 0. -1.
          2   -1    0    0  501    0  0.00000000000E+00 -0.00000000000E+00 -0.21589844316E+03  0.21589844318E+03  0.25500000000E-02 0.  1.
    5000001    1    1    2    0    0  0.62792558850E+02  0.26500824851E+02 -0.12145698496E+03  0.15914144137E+03  0.77000000000E+02 0.  0.
   -5000001    1    1    2    0    0 -0.62792558850E+02 -0.26500824851E+02 -0.40631284068E+02  0.11056717600E+03  0.77000000000E+02 0.  0.
<mgrwt>
<rscale>  0 0.21556932E+03</rscale>
<asrwt>0</asrwt>
<pdfrwt beam="1">  1        2 0.30842634E-01 0.21556932E+03</pdfrwt>
<pdfrwt beam="2">  1       -2 0.76871679E-02 0.21556932E+03</pdfrwt>
<totfact> 0.16630103E+04</totfact>
</mgrwt>
</event>
<event>
 4    1  0.4950349E-004  0.2049813E+03  0.7818608E-02  0.1145603E+00
         -2   -1    0    0    0  501 -0.00000000000E+00  0.00000000000E+00  0.30765718604E+03  0.30765718605E+03  0.25500000000E-02 0. -1.
          2   -1    0    0  501    0  0.00000000000E+00 -0.00000000000E+00 -0.34142981029E+02  0.34142981124E+02  0.25500000000E-02 0.  1.
    5000001    1    1    2    0    0  0.64830472153E+02 -0.49526580060E+01  0.16785506200E+03  0.19578519040E+03  0.77000000000E+02 0.  0.
   -5000001    1    1    2    0    0 -0.64830472153E+02  0.49526580060E+01  0.10565914302E+03  0.14601497678E+03  0.77000000000E+02 0.  0.
<mgrwt>
<rscale>  0 0.20498130E+03</rscale>
<asrwt>0</asrwt>
<pdfrwt beam="1">  1        2 0.48775685E-02 0.20498130E+03</pdfrwt>
<pdfrwt beam="2">  1       -2 0.43951029E-01 0.20498130E+03</pdfrwt>
<totfact> 0.78489310E+03</totfact>
</mgrwt>
</event>
<event>
 4    1  0.4950349E-004  0.2286514E+03  0.7818608E-02  0.1127593E+00
         -2   -1    0    0    0  501 -0.00000000000E+00  0.00000000000E+00  0.15595026328E+02  0.15595026537E+02  0.25500000000E-02 0. -1.
          2   -1    0    0  501    0  0.00000000000E+00 -0.00000000000E+00 -0.83811116014E+03  0.83811116015E+03  0.25500000000E-02 0.  1.
    5000001    1    1    2    0    0 -0.16651767821E+02 -0.43147700376E+02 -0.14718625388E+03  0.17242911224E+03  0.77000000000E+02 0.  0.
   -5000001    1    1    2    0    0  0.16651767821E+02  0.43147700376E+02 -0.67532987994E+03  0.68127707444E+03  0.77000000000E+02 0.  0.
<mgrwt>
<rscale>  0 0.22865140E+03</rscale>
<asrwt>0</asrwt>
<pdfrwt beam="1">  1        2 0.11973014E+00 0.22865140E+03</pdfrwt>
<pdfrwt beam="2">  1       -2 0.22278615E-02 0.22865140E+03</pdfrwt>
<totfact> 0.23842678E+04</totfact>
</mgrwt>
</event>
<event>
 4    1  0.4950349E-004  0.1722169E+03  0.7818608E-02  0.1175555E+00
          2   -1    0    0  501    0  0.00000000000E+00  0.00000000000E+00  0.79435926027E+03  0.79435926028E+03  0.25500000000E-02 0.  1.
         -2   -1    0    0    0  501 -0.00000000000E+00 -0.00000000000E+00 -0.93341474856E+01  0.93341478339E+01  0.25500000000E-02 0. -1.
    5000001    1    1    2    0    0  0.14816063844E+02 -0.34172492247E+02  0.43880325533E+03  0.44706215660E+03  0.77000000000E+02 0.  0.
   -5000001    1    1    2    0    0 -0.14816063844E+02  0.34172492247E+02  0.34622185746E+03  0.35663125152E+03  0.77000000000E+02 0.  0.
<mgrwt>
<rscale>  0 0.17221692E+03</rscale>
<asrwt>0</asrwt>
<pdfrwt beam="1">  1        2 0.11347990E+00 0.17221692E+03</pdfrwt>
<pdfrwt beam="2">  1       -2 0.13334496E-02 0.17221692E+03</pdfrwt>
<totfact> 0.52657545E+04</totfact>
</mgrwt>
</event>
<event>
 4    1  0.4950349E-004  0.2776001E+03  0.7818608E-02  0.1097007E+00
          2   -1    0    0  501    0  0.00000000000E+00  0.00000000000E+00  0.10759901856E+02  0.10759902159E+02  0.25500000000E-02 0.  1.
         -2   -1    0    0    0  501 -0.00000000000E+00 -0.00000000000E+00 -0.17904862454E+04  0.17904862454E+04  0.25500000000E-02 0. -1.
    5000001    1    1    2    0    0  0.44475037371E+01  0.98539909459E+02 -0.12795360221E+04  0.12856404341E+04  0.77000000000E+02 0.  0.
   -5000001    1    1    2    0    0 -0.44475037371E+01 -0.98539909459E+02 -0.50019032146E+03  0.51560571344E+03  0.77000000000E+02 0.  0.
<mgrwt>
<rscale>  0 0.27760012E+03</rscale>
<asrwt>0</asrwt>
<pdfrwt beam="1">  1        2 0.15371300E-02 0.27760012E+03</pdfrwt>
<pdfrwt beam="2">  1       -2 0.25578356E+00 0.27760012E+03</pdfrwt>
<totfact> 0.52425341E+02</totfact>
</mgrwt>
</event>
<event>
 4    1  0.4950349E-004  0.2020943E+03  0.7818608E-02  0.1147984E+00
         -2   -1    0    0    0  501 -0.00000000000E+00  0.00000000000E+00  0.37817596281E+02  0.37817596367E+02  0.25500000000E-02 0. -1.
          2   -1    0    0  501    0  0.00000000000E+00 -0.00000000000E+00 -0.26999396988E+03  0.26999396989E+03  0.25500000000E-02 0.  1.
    5000001    1    1    2    0    0  0.39664713924E+02  0.41919354031E+02 -0.16305828592E+03  0.18933443000E+03  0.77000000000E+02 0.  0.
   -5000001    1    1    2    0    0 -0.39664713924E+02 -0.41919354031E+02 -0.69118087671E+02  0.11847713626E+03  0.77000000000E+02 0.  0.
<mgrwt>
<rscale>  0 0.20209426E+03</rscale>
<asrwt>0</asrwt>
<pdfrwt beam="1">  1        2 0.38570566E-01 0.20209426E+03</pdfrwt>
<pdfrwt beam="2">  1       -2 0.54025139E-02 0.20209426E+03</pdfrwt>
<totfact> 0.22327650E+04</totfact>
</mgrwt>
</event>
<event>
 4    1  0.4950349E-004  0.1985363E+03  0.7818608E-02  0.1150980E+00
         -2   -1    0    0    0  501 -0.00000000000E+00  0.00000000000E+00  0.45797009205E+01  0.45797016304E+01  0.25500000000E-02 0. -1.
          2   -1    0    0  501    0  0.00000000000E+00 -0.00000000000E+00 -0.21517050332E+04  0.21517050332E+04  0.25500000000E-02 0.  1.
    5000001    1    1    2    0    0 -0.29131033270E+02 -0.25159711130E+02 -0.16104408159E+04  0.16127399820E+04  0.77000000000E+02 0.  0.
   -5000001    1    1    2    0    0  0.29131033270E+02  0.25159711130E+02 -0.53668451643E+03  0.54354475284E+03  0.77000000000E+02 0.  0.
<mgrwt>
<rscale>  0 0.19853631E+03</rscale>
<asrwt>0</asrwt>
<pdfrwt beam="1">  1        2 0.30738579E+00 0.19853631E+03</pdfrwt>
<pdfrwt beam="2">  1       -2 0.65424441E-03 0.19853631E+03</pdfrwt>
<totfact> 0.28946590E+04</totfact>
</mgrwt>
</event>
<event>
 4    1  0.4950349E-004  0.3590996E+03  0.7818608E-02  0.1058941E+00
         -2   -1    0    0    0  501 -0.00000000000E+00  0.00000000000E+00  0.17238553709E+04  0.17238553709E+04  0.25500000000E-02 0. -1.
          2   -1    0    0  501    0  0.00000000000E+00 -0.00000000000E+00 -0.18701178399E+02  0.18701178573E+02  0.25500000000E-02 0.  1.
    5000001    1    1    2    0    0  0.50897290995E+02 -0.15349357757E+03  0.91363363513E+03  0.93102429175E+03  0.77000000000E+02 0.  0.
   -5000001    1    1    2    0    0 -0.50897290995E+02  0.15349357757E+03  0.79152055737E+03  0.81153225772E+03  0.77000000000E+02 0.  0.
<mgrwt>
<rscale>  0 0.35909958E+03</rscale>
<asrwt>0</asrwt>
<pdfrwt beam="1">  1        2 0.26715963E-02 0.35909958E+03</pdfrwt>
<pdfrwt beam="2">  1       -2 0.24626511E+00 0.35909958E+03</pdfrwt>
<totfact> 0.27695298E+02</totfact>
</mgrwt>
</event>
<event>
 4    1  0.4950349E-004  0.1970209E+03  0.7818608E-02  0.1152277E+00
          2   -1    0    0  501    0  0.00000000000E+00  0.00000000000E+00  0.23618586302E+04  0.23618586302E+04  0.25500000000E-02 0.  1.
         -2   -1    0    0    0  501 -0.00000000000E+00 -0.00000000000E+00 -0.41087571571E+01  0.41087579484E+01  0.25500000000E-02 0. -1.
    5000001    1    1    2    0    0 -0.57700649038E+02 -0.20602015811E+02  0.12345525701E+04  0.12384679472E+04  0.77000000000E+02 0.  0.
   -5000001    1    1    2    0    0  0.57700649038E+02  0.20602015811E+02  0.11231973029E+04  0.11274994409E+04  0.77000000000E+02 0.  0.
<mgrwt>
<rscale>  0 0.19702086E+03</rscale>
<asrwt>0</asrwt>
<pdfrwt beam="1">  1        2 0.33740928E+00 0.19702086E+03</pdfrwt>
<pdfrwt beam="2">  1       -2 0.58696380E-03 0.19702086E+03</pdfrwt>
<totfact> 0.26731117E+04</totfact>
</mgrwt>
</event>
<event>
 4    1  0.4950349E-004  0.2821127E+03  0.7818608E-02  0.1094541E+00
         -2   -1    0    0    0  501 -0.00000000000E+00  0.00000000000E+00  0.26233895018E+03  0.26233895019E+03  0.25500000000E-02 0. -1.
          2   -1    0    0  501    0  0.00000000000E+00 -0.00000000000E+00 -0.75844227343E+02  0.75844227386E+02  0.25500000000E-02 0.  1.
    5000001    1    1    2    0    0  0.11327640768E+03 -0.24052789474E+02  0.64935138688E+02  0.15347851138E+03  0.77000000000E+02 0.  0.
   -5000001    1    1    2    0    0 -0.11327640768E+03  0.24052789474E+02  0.12155958415E+03  0.18470466620E+03  0.77000000000E+02 0.  0.
<mgrwt>
<rscale>  0 0.28211271E+03</rscale>
<asrwt>0</asrwt>
<pdfrwt beam="1">  1        2 0.10834890E-01 0.28211271E+03</pdfrwt>
<pdfrwt beam="2">  1       -2 0.37476993E-01 0.28211271E+03</pdfrwt>
<totfact> 0.38978398E+03</totfact>
</mgrwt>
</event>
<event>
 4    1  0.4950349E-004  0.1965854E+03  0.7818608E-02  0.1152652E+00
          2   -1    0    0  501    0  0.00000000000E+00  0.00000000000E+00  0.35851816020E+02  0.35851816110E+02  0.25500000000E-02 0.  1.
         -2   -1    0    0    0  501 -0.00000000000E+00 -0.00000000000E+00 -0.26948289667E+03  0.26948289668E+03  0.25500000000E-02 0. -1.
    5000001    1    1    2    0    0 -0.18352657907E+02  0.57402378553E+02 -0.10123724404E+03  0.14074740742E+03  0.77000000000E+02 0.  0.
   -5000001    1    1    2    0    0  0.18352657907E+02 -0.57402378553E+02 -0.13239383661E+03  0.16458730537E+03  0.77000000000E+02 0.  0.
<mgrwt>
<rscale>  0 0.19658536E+03</rscale>
<asrwt>0</asrwt>
<pdfrwt beam="1">  1        2 0.51216882E-02 0.19658536E+03</pdfrwt>
<pdfrwt beam="2">  1       -2 0.38497555E-01 0.19658536E+03</pdfrwt>
<totfact> 0.94563917E+03</totfact>
</mgrwt>
</event>
<event>
 4    1  0.4950349E-004  0.1709707E+03  0.7818608E-02  0.1176839E+00
          2   -1    0    0  501    0  0.00000000000E+00  0.00000000000E+00  0.19444330590E+03  0.19444330591E+03  0.25500000000E-02 0.  1.
         -2   -1    0    0    0  501 -0.00000000000E+00 -0.00000000000E+00 -0.37582901248E+02  0.37582901335E+02  0.25500000000E-02 0. -1.
    5000001    1    1    2    0    0  0.16541738357E+02 -0.21973873169E+02  0.44576785203E+02  0.93126634155E+02  0.77000000000E+02 0.  0.
   -5000001    1    1    2    0    0 -0.16541738357E+02  0.21973873169E+02  0.11228361944E+03  0.13889957309E+03  0.77000000000E+02 0.  0.
<mgrwt>
<rscale>  0 0.17097068E+03</rscale>
<asrwt>0</asrwt>
<pdfrwt beam="1">  1        2 0.27777615E-01 0.17097068E+03</pdfrwt>
<pdfrwt beam="2">  1       -2 0.53689860E-02 0.17097068E+03</pdfrwt>
<totfact> 0.31708539E+04</totfact>
</mgrwt>
</event>
<event>
 4    1  0.4950349E-004  0.3902132E+03  0.7818608E-02  0.1047222E+00
          2   -1    0    0  501    0  0.00000000000E+00  0.00000000000E+00  0.29821806199E+04  0.29821806199E+04  0.25500000000E-02 0.  1.
         -2   -1    0    0    0  501 -0.00000000000E+00 -0.00000000000E+00 -0.12764684446E+02  0.12764684700E+02  0.25500000000E-02 0. -1.
    5000001    1    1    2    0    0 -0.11074346485E+03 -0.58153103522E+02  0.24703507617E+04  0.24747136772E+04  0.77000000000E+02 0.  0.
   -5000001    1    1    2    0    0  0.11074346485E+03  0.58153103522E+02  0.49906517370E+03  0.52023162732E+03  0.77000000000E+02 0.  0.
<mgrwt>
<rscale>  0 0.39021325E+03</rscale>
<asrwt>0</asrwt>
<pdfrwt beam="1">  1        2 0.42602597E+00 0.39021325E+03</pdfrwt>
<pdfrwt beam="2">  1       -2 0.18235257E-02 0.39021325E+03</pdfrwt>
<totfact> 0.24874065E+03</totfact>
</mgrwt>
</event>
<event>
 4    1  0.4950349E-004  0.1965044E+03  0.7818608E-02  0.1152722E+00
         -2   -1    0    0    0  501 -0.00000000000E+00  0.00000000000E+00  0.95616474308E+01  0.95616477709E+01  0.25500000000E-02 0. -1.
          2   -1    0    0  501    0  0.00000000000E+00 -0.00000000000E+00 -0.10096061174E+04  0.10096061174E+04  0.25500000000E-02 0.  1.
    5000001    1    1    2    0    0 -0.60735287441E+02  0.49546249376E+01 -0.51735974358E+03  0.52659607645E+03  0.77000000000E+02 0.  0.
   -5000001    1    1    2    0    0  0.60735287441E+02 -0.49546249376E+01 -0.48268472636E+03  0.49257168870E+03  0.77000000000E+02 0.  0.
<mgrwt>
<rscale>  0 0.19650443E+03</rscale>
<asrwt>0</asrwt>
<pdfrwt beam="1">  1        2 0.14422938E+00 0.19650443E+03</pdfrwt>
<pdfrwt beam="2">  1       -2 0.13659503E-02 0.19650443E+03</pdfrwt>
<totfact> 0.37838652E+04</totfact>
</mgrwt>
</event>
<event>
 4    1  0.4950349E-004  0.1915740E+03  0.7818608E-02  0.1157049E+00
          2   -1    0    0  501    0  0.00000000000E+00  0.00000000000E+00  0.57167479910E+03  0.57167479911E+03  0.25500000000E-02 0.  1.
         -2   -1    0    0    0  501 -0.00000000000E+00 -0.00000000000E+00 -0.16049602506E+02  0.16049602708E+02  0.25500000000E-02 0. -1.
    5000001    1    1    2    0    0 -0.47532496298E+02  0.19653219908E+02  0.20262997671E+03  0.22278575968E+03  0.77000000000E+02 0.  0.
   -5000001    1    1    2    0    0  0.47532496298E+02 -0.19653219908E+02  0.35299521989E+03  0.36493864213E+03  0.77000000000E+02 0.  0.
<mgrwt>
<rscale>  0 0.19157404E+03</rscale>
<asrwt>0</asrwt>
<pdfrwt beam="1">  1        2 0.81667814E-01 0.19157404E+03</pdfrwt>
<pdfrwt beam="2">  1       -2 0.22928008E-02 0.19157404E+03</pdfrwt>
<totfact> 0.35420201E+04</totfact>
</mgrwt>
</event>
<event>
 4    1  0.4950349E-004  0.2923332E+03  0.7818608E-02  0.1089137E+00
         -2   -1    0    0    0  501 -0.00000000000E+00  0.00000000000E+00  0.48045312260E+02  0.48045312328E+02  0.25500000000E-02 0. -1.
          2   -1    0    0  501    0  0.00000000000E+00 -0.00000000000E+00 -0.44467759702E+03  0.44467759703E+03  0.25500000000E-02 0.  1.
    5000001    1    1    2    0    0 -0.11516519212E+03  0.38126871038E+02 -0.24351082422E+03  0.28274228775E+03  0.77000000000E+02 0.  0.
   -5000001    1    1    2    0    0  0.11516519212E+03 -0.38126871038E+02 -0.15312146054E+03  0.20998062160E+03  0.77000000000E+02 0.  0.
<mgrwt>
<rscale>  0 0.29233319E+03</rscale>
<asrwt>0</asrwt>
<pdfrwt beam="1">  1        2 0.63525369E-01 0.29233319E+03</pdfrwt>
<pdfrwt beam="2">  1       -2 0.68636163E-02 0.29233319E+03</pdfrwt>
<totfact> 0.92308310E+03</totfact>
</mgrwt>
</event>
<event>
 4    1  0.4950349E-004  0.2414608E+03  0.7818608E-02  0.1118824E+00
         -2   -1    0    0    0  501 -0.00000000000E+00  0.00000000000E+00  0.12869155537E+03  0.12869155540E+03  0.25500000000E-02 0. -1.
          2   -1    0    0  501    0  0.00000000000E+00 -0.00000000000E+00 -0.11326170997E+03  0.11326171000E+03  0.25500000000E-02 0.  1.
    5000001    1    1    2    0    0 -0.73923542066E+02  0.38187069960E+02  0.49319281592E+02  0.12362982618E+03  0.77000000000E+02 0.  0.
   -5000001    1    1    2    0    0  0.73923542066E+02 -0.38187069960E+02 -0.33889436192E+02  0.11832343922E+03  0.77000000000E+02 0.  0.
<mgrwt>
<rscale>  0 0.24146077E+03</rscale>
<asrwt>0</asrwt>
<pdfrwt beam="1">  1        2 0.16180244E-01 0.24146077E+03</pdfrwt>
<pdfrwt beam="2">  1       -2 0.18384508E-01 0.24146077E+03</pdfrwt>
<totfact> 0.84979671E+03</totfact>
</mgrwt>
</event>
<event>
 4    1  0.4950349E-004  0.2247831E+03  0.7818608E-02  0.1130367E+00
         -2   -1    0    0    0  501 -0.00000000000E+00  0.00000000000E+00  0.81038806270E+02  0.81038806310E+02  0.25500000000E-02 0. -1.
          2   -1    0    0  501    0  0.00000000000E+00 -0.00000000000E+00 -0.15587415752E+03  0.15587415754E+03  0.25500000000E-02 0.  1.
    5000001    1    1    2    0    0 -0.70104857215E+02 -0.39247076216E+02 -0.54009863231E+02  0.12369757202E+03  0.77000000000E+02 0.  0.
   -5000001    1    1    2    0    0  0.70104857215E+02  0.39247076216E+02 -0.20825488019E+02  0.11321539183E+03  0.77000000000E+02 0.  0.
<mgrwt>
<rscale>  0 0.22478306E+03</rscale>
<asrwt>0</asrwt>
<pdfrwt beam="1">  1        2 0.22267737E-01 0.22478306E+03</pdfrwt>
<pdfrwt beam="2">  1       -2 0.11576972E-01 0.22478306E+03</pdfrwt>
<totfact> 0.12542831E+04</totfact>
</mgrwt>
</event>
<event>
 4    1  0.4950349E-004  0.2564368E+03  0.7818608E-02  0.1109303E+00
          2   -1    0    0  501    0  0.00000000000E+00  0.00000000000E+00  0.29523443792E+03  0.29523443794E+03  0.25500000000E-02 0.  1.
         -2   -1    0    0    0  501 -0.00000000000E+00 -0.00000000000E+00 -0.55684420432E+02  0.55684420491E+02  0.25500000000E-02 0. -1.
    5000001    1    1    2    0    0  0.68570200006E+02 -0.57477422157E+02  0.51278619344E+02  0.12870129443E+03  0.77000000000E+02 0.  0.
   -5000001    1    1    2    0    0 -0.68570200006E+02  0.57477422157E+02  0.18827139815E+03  0.22221756399E+03  0.77000000000E+02 0.  0.
<mgrwt>
<rscale>  0 0.25643680E+03</rscale>
<asrwt>0</asrwt>
<pdfrwt beam="1">  1        2 0.42176349E-01 0.25643680E+03</pdfrwt>
<pdfrwt beam="2">  1       -2 0.79549171E-02 0.25643680E+03</pdfrwt>
<totfact> 0.11355052E+04</totfact>
</mgrwt>
</event>
<event>
 4    1  0.4950349E-004  0.1716071E+03  0.7818608E-02  0.1176182E+00
          2   -1    0    0  501    0  0.00000000000E+00  0.00000000000E+00  0.79405266184E+02  0.79405266225E+02  0.25500000000E-02 0.  1.
         -2   -1    0    0    0  501 -0.00000000000E+00 -0.00000000000E+00 -0.92717371466E+02  0.92717371501E+02  0.25500000000E-02 0. -1.
    5000001    1    1    2    0    0  0.22146403108E+02  0.17181946166E+02 -0.32179804495E+02  0.88035346663E+02  0.77000000000E+02 0.  0.
   -5000001    1    1    2    0    0 -0.22146403108E+02 -0.17181946166E+02  0.18867699214E+02  0.84087291063E+02  0.77000000000E+02 0.  0.
<mgrwt>
<rscale>  0 0.17160708E+03</rscale>
<asrwt>0</asrwt>
<pdfrwt beam="1">  1        2 0.11343609E-01 0.17160708E+03</pdfrwt>
<pdfrwt beam="2">  1       -2 0.13245339E-01 0.17160708E+03</pdfrwt>
<totfact> 0.21791294E+04</totfact>
</mgrwt>
</event>
<event>
 4    1  0.4950349E-004  0.2261497E+03  0.7818608E-02  0.1129379E+00
         -2   -1    0    0    0  501 -0.00000000000E+00  0.00000000000E+00  0.23520339333E+02  0.23520339472E+02  0.25500000000E-02 0. -1.
          2   -1    0    0  501    0  0.00000000000E+00 -0.00000000000E+00 -0.54361141886E+03  0.54361141887E+03  0.25500000000E-02 0.  1.
    5000001    1    1    2    0    0  0.48643122664E+02 -0.41047109109E+02 -0.39288420226E+03  0.40538625401E+03  0.77000000000E+02 0.  0.
   -5000001    1    1    2    0    0 -0.48643122664E+02  0.41047109109E+02 -0.12720687727E+03  0.16174550434E+03  0.77000000000E+02 0.  0.
<mgrwt>
<rscale>  0 0.22614973E+03</rscale>
<asrwt>0</asrwt>
<pdfrwt beam="1">  1        2 0.77658766E-01 0.22614973E+03</pdfrwt>
<pdfrwt beam="2">  1       -2 0.33600488E-02 0.22614973E+03</pdfrwt>
<totfact> 0.21566908E+04</totfact>
</mgrwt>
</event>
<event>
 4    1  0.4950349E-004  0.2105549E+03  0.7818608E-02  0.1141127E+00
         -2   -1    0    0    0  501 -0.00000000000E+00  0.00000000000E+00  0.23706058534E+04  0.23706058534E+04  0.25500000000E-02 0.  1.
          2   -1    0    0  501    0  0.00000000000E+00 -0.00000000000E+00 -0.46753203921E+01  0.46753210876E+01  0.25500000000E-02 0. -1.
    5000001    1    1    2    0    0  0.39628307358E+01 -0.68596275739E+02  0.14177601788E+04  0.14215111951E+04  0.77000000000E+02 0.  0.
   -5000001    1    1    2    0    0 -0.39628307358E+01  0.68596275739E+02  0.94817035419E+03  0.95376997941E+03  0.77000000000E+02 0.  0.
<mgrwt>
<rscale>  0 0.21055491E+03</rscale>
<asrwt>0</asrwt>
<pdfrwt beam="1">  1        2 0.66790259E-03 0.21055491E+03</pdfrwt>
<pdfrwt beam="2">  1       -2 0.33865817E+00 0.21055491E+03</pdfrwt>
<totfact> 0.54945195E+02</totfact>
</mgrwt>
</event>
<event>
 4    1  0.4950349E-004  0.2917435E+03  0.7818608E-02  0.1089442E+00
          2   -1    0    0  501    0  0.00000000000E+00  0.00000000000E+00  0.32270989901E+03  0.32270989902E+03  0.25500000000E-02 0.  1.
         -2   -1    0    0    0  501 -0.00000000000E+00 -0.00000000000E+00 -0.65937160809E+02  0.65937160858E+02  0.25500000000E-02 0. -1.
    5000001    1    1    2    0    0 -0.76775432600E+02 -0.15596686600E+01  0.25790477380E+03  0.27989421567E+03  0.77000000000E+02 0.  0.
   -5000001    1    1    2    0    0  0.76775432600E+02  0.15596686600E+01 -0.11320356048E+01  0.10875284420E+03  0.77000000000E+02 0.  0.
<mgrwt>
<rscale>  0 0.29174355E+03</rscale>
<asrwt>0</asrwt>
<pdfrwt beam="1">  1        2 0.46101414E-01 0.29174355E+03</pdfrwt>
<pdfrwt beam="2">  1       -2 0.94195945E-02 0.29174355E+03</pdfrwt>
<totfact> 0.79561982E+03</totfact>
</mgrwt>
</event>
<event>
 4    1  0.4950349E-004  0.2468592E+03  0.7818608E-02  0.1115306E+00
         -2   -1    0    0    0  501 -0.00000000000E+00  0.00000000000E+00  0.69829213558E+03  0.69829213559E+03  0.25500000000E-02 0. -1.
          2   -1    0    0  501    0  0.00000000000E+00 -0.00000000000E+00 -0.21817318715E+02  0.21817318864E+02  0.25500000000E-02 0.  1.
    5000001    1    1    2    0    0 -0.46570354676E+02 -0.65034659202E+02  0.18094296023E+03  0.21229144987E+03  0.77000000000E+02 0.  0.
   -5000001    1    1    2    0    0  0.46570354676E+02  0.65034659202E+02  0.49553185664E+03  0.50781800458E+03  0.77000000000E+02 0.  0.
<mgrwt>
<rscale>  0 0.24685917E+03</rscale>
<asrwt>0</asrwt>
<pdfrwt beam="1">  1        2 0.31167597E-02 0.24685917E+03</pdfrwt>
<pdfrwt beam="2">  1       -2 0.99756022E-01 0.24685917E+03</pdfrwt>
<totfact> 0.25487168E+03</totfact>
</mgrwt>
</event>
<event>
 4    1  0.4950349E-004  0.2099526E+03  0.7818608E-02  0.1141604E+00
          2   -1    0    0  501    0  0.00000000000E+00  0.00000000000E+00  0.13890860239E+04  0.13890860239E+04  0.25500000000E-02 0.  1.
         -2   -1    0    0    0  501 -0.00000000000E+00 -0.00000000000E+00 -0.79332905479E+01  0.79332909577E+01  0.25500000000E-02 0. -1.
    5000001    1    1    2    0    0  0.34994175216E+01 -0.51292801333E+02  0.36136757636E+03  0.37303984055E+03  0.77000000000E+02 0.  0.
   -5000001    1    1    2    0    0 -0.34994175216E+01  0.51292801333E+02  0.10197851570E+04  0.10239794743E+04  0.77000000000E+02 0.  0.
<mgrwt>
<rscale>  0 0.20995260E+03</rscale>
<asrwt>0</asrwt>
<pdfrwt beam="1">  1        2 0.19844077E+00 0.20995260E+03</pdfrwt>
<pdfrwt beam="2">  1       -2 0.11333278E-02 0.20995260E+03</pdfrwt>
<totfact> 0.31068416E+04</totfact>
</mgrwt>
</event>
<event>
 4    1  0.4950349E-004  0.1726353E+03  0.7818608E-02  0.1175127E+00
          2   -1    0    0  501    0  0.00000000000E+00  0.00000000000E+00  0.10166723892E+04  0.10166723892E+04  0.25500000000E-02 0.  1.
         -2   -1    0    0    0  501 -0.00000000000E+00 -0.00000000000E+00 -0.73285500395E+01  0.73285504831E+01  0.25500000000E-02 0. -1.
    5000001    1    1    2    0    0 -0.37167614503E+02 -0.11842735657E+02  0.50603426647E+03  0.51334331670E+03  0.77000000000E+02 0.  0.
   -5000001    1    1    2    0    0  0.37167614503E+02  0.11842735657E+02  0.50330957273E+03  0.51065762302E+03  0.77000000000E+02 0.  0.
<mgrwt>
<rscale>  0 0.17263528E+03</rscale>
<asrwt>0</asrwt>
<pdfrwt beam="1">  1        2 0.14523886E+00 0.17263528E+03</pdfrwt>
<pdfrwt beam="2">  1       -2 0.10469361E-02 0.17263528E+03</pdfrwt>
<totfact> 0.54454597E+04</totfact>
</mgrwt>
</event>
<event>
 4    1  0.4950349E-004  0.1673955E+03  0.7818608E-02  0.1180591E+00
          2   -1    0    0  501    0  0.00000000000E+00  0.00000000000E+00  0.21552998271E+03  0.21552998272E+03  0.25500000000E-02 0.  1.
         -2   -1    0    0    0  501 -0.00000000000E+00 -0.00000000000E+00 -0.32502734851E+02  0.32502734951E+02  0.25500000000E-02 0. -1.
    5000001    1    1    2    0    0  0.24252313109E+02 -0.21190351798E+02  0.82247479668E+02  0.11717872508E+03  0.77000000000E+02 0.  0.
   -5000001    1    1    2    0    0 -0.24252313109E+02  0.21190351798E+02  0.10077976819E+03  0.13085399259E+03  0.77000000000E+02 0.  0.
<mgrwt>
<rscale>  0 0.16739551E+03</rscale>
<asrwt>0</asrwt>
<pdfrwt beam="1">  1        2 0.30789999E-01 0.16739551E+03</pdfrwt>
<pdfrwt beam="2">  1       -2 0.46432477E-02 0.16739551E+03</pdfrwt>
<totfact> 0.35205731E+04</totfact>
</mgrwt>
</event>
<event>
 4    1  0.4950349E-004  0.2227052E+03  0.7818608E-02  0.1131882E+00
          2   -1    0    0  501    0  0.00000000000E+00  0.00000000000E+00  0.19840455503E+03  0.19840455505E+03  0.25500000000E-02 0.  1.
         -2   -1    0    0    0  501 -0.00000000000E+00 -0.00000000000E+00 -0.62495554548E+02  0.62495554600E+02  0.25500000000E-02 0. -1.
    5000001    1    1    2    0    0  0.35677365989E+02  0.68619061819E+02  0.42049877697E+02  0.11695572796E+03  0.77000000000E+02 0.  0.
   -5000001    1    1    2    0    0 -0.35677365989E+02 -0.68619061819E+02  0.93859122787E+02  0.14394438169E+03  0.77000000000E+02 0.  0.
<mgrwt>
<rscale>  0 0.22270521E+03</rscale>
<asrwt>0</asrwt>
<pdfrwt beam="1">  1        2 0.28343508E-01 0.22270521E+03</pdfrwt>
<pdfrwt beam="2">  1       -2 0.89279363E-02 0.22270521E+03</pdfrwt>
<totfact> 0.14473675E+04</totfact>
</mgrwt>
</event>
<event>
 4    1  0.4950349E-004  0.1819787E+03  0.7818608E-02  0.1165902E+00
         -2   -1    0    0    0  501 -0.00000000000E+00  0.00000000000E+00  0.12674205199E+03  0.12674205202E+03  0.25500000000E-02 0. -1.
          2   -1    0    0  501    0  0.00000000000E+00 -0.00000000000E+00 -0.65322105449E+02  0.65322105499E+02  0.25500000000E-02 0.  1.
    5000001    1    1    2    0    0 -0.35741465386E+02  0.12693314503E+02  0.62574000528E+02  0.10622183449E+03  0.77000000000E+02 0.  0.
   -5000001    1    1    2    0    0  0.35741465386E+02 -0.12693314503E+02 -0.11540539868E+01  0.85842323021E+02  0.77000000000E+02 0.  0.
<mgrwt>
<rscale>  0 0.18197865E+03</rscale>
<asrwt>0</asrwt>
<pdfrwt beam="1">  1        2 0.93317293E-02 0.18197865E+03</pdfrwt>
<pdfrwt beam="2">  1       -2 0.18106007E-01 0.18197865E+03</pdfrwt>
<totfact> 0.16636825E+04</totfact>
</mgrwt>
</event>
<event>
 4    1  0.4950349E-004  0.1692098E+03  0.7818608E-02  0.1178674E+00
         -2   -1    0    0    0  501 -0.00000000000E+00  0.00000000000E+00  0.12598485652E+02  0.12598485910E+02  0.25500000000E-02 0. -1.
          2   -1    0    0  501    0  0.00000000000E+00 -0.00000000000E+00 -0.56816283682E+03  0.56816283683E+03  0.25500000000E-02 0.  1.
    5000001    1    1    2    0    0 -0.74416123868E+01  0.33975530708E+02 -0.29285148787E+03  0.30479617490E+03  0.77000000000E+02 0.  0.
   -5000001    1    1    2    0    0  0.74416123868E+01 -0.33975530708E+02 -0.26271286330E+03  0.27596514784E+03  0.77000000000E+02 0.  0.
<mgrwt>
<rscale>  0 0.16920983E+03</rscale>
<asrwt>0</asrwt>
<pdfrwt beam="1">  1        2 0.81166103E-01 0.16920983E+03</pdfrwt>
<pdfrwt beam="2">  1       -2 0.17997840E-02 0.16920983E+03</pdfrwt>
<totfact> 0.50218058E+04</totfact>
</mgrwt>
</event>
<event>
 4    1  0.4950349E-004  0.2132196E+03  0.7818608E-02  0.1139041E+00
          2   -1    0    0  501    0  0.00000000000E+00  0.00000000000E+00  0.12637135355E+04  0.12637135355E+04  0.25500000000E-02 0.  1.
         -2   -1    0    0    0  501 -0.00000000000E+00 -0.00000000000E+00 -0.89938498221E+01  0.89938501836E+01  0.25500000000E-02 0. -1.
    5000001    1    1    2    0    0  0.38350908759E+02  0.43955570451E+02  0.89654547765E+03  0.90173481572E+03  0.77000000000E+02 0.  0.
   -5000001    1    1    2    0    0 -0.38350908759E+02 -0.43955570451E+02  0.35817420807E+03  0.37097257001E+03  0.77000000000E+02 0.  0.
<mgrwt>
<rscale>  0 0.21321960E+03</rscale>
<asrwt>0</asrwt>
<pdfrwt beam="1">  1        2 0.18053047E+00 0.21321960E+03</pdfrwt>
<pdfrwt beam="2">  1       -2 0.12848360E-02 0.21321960E+03</pdfrwt>
<totfact> 0.30117476E+04</totfact>
</mgrwt>
</event>
<event>
 4    1  0.4950349E-004  0.3804893E+03  0.7818608E-02  0.1050753E+00
         -2   -1    0    0    0  501 -0.00000000000E+00  0.00000000000E+00  0.19980170619E+02  0.19980170781E+02  0.25500000000E-02 0. -1.
          2   -1    0    0  501    0  0.00000000000E+00 -0.00000000000E+00 -0.18114469285E+04  0.18114469285E+04  0.25500000000E-02 0.  1.
    5000001    1    1    2    0    0 -0.67432757960E+02  0.68530934114E+01 -0.16669193681E+04  0.16700728491E+04  0.77000000000E+02 0.  0.
   -5000001    1    1    2    0    0  0.67432757960E+02 -0.68530934114E+01 -0.12454738981E+03  0.16135425016E+03  0.77000000000E+02 0.  0.
<mgrwt>
<rscale>  0 0.38048926E+03</rscale>
<asrwt>0</asrwt>
<pdfrwt beam="1">  1        2 0.25877803E+00 0.38048926E+03</pdfrwt>
<pdfrwt beam="2">  1       -2 0.28543112E-02 0.38048926E+03</pdfrwt>
<totfact> 0.49894427E+03</totfact>
</mgrwt>
</event>
<event>
 4    1  0.4950349E-004  0.1851699E+03  0.7818608E-02  0.1162891E+00
          2   -1    0    0  501    0  0.00000000000E+00  0.00000000000E+00  0.76774298225E+03  0.76774298226E+03  0.25500000000E-02 0.  1.
         -2   -1    0    0    0  501 -0.00000000000E+00 -0.00000000000E+00 -0.11165154051E+02  0.11165154343E+02  0.25500000000E-02 0. -1.
    5000001    1    1    2    0    0 -0.42845661609E+02  0.97750143414E+01  0.49050481934E+03  0.49845288586E+03  0.77000000000E+02 0.  0.
   -5000001    1    1    2    0    0  0.42845661609E+02 -0.97750143414E+01  0.26607300886E+03  0.28045525074E+03  0.77000000000E+02 0.  0.
<mgrwt>
<rscale>  0 0.18516985E+03</rscale>
<asrwt>0</asrwt>
<pdfrwt beam="1">  1        2 0.10967757E+00 0.18516985E+03</pdfrwt>
<pdfrwt beam="2">  1       -2 0.15950220E-02 0.18516985E+03</pdfrwt>
<totfact> 0.42611247E+04</totfact>
</mgrwt>
</event>
<event>
 4    1  0.4950349E-004  0.2163706E+03  0.7818608E-02  0.1136618E+00
         -2   -1    0    0    0  501 -0.00000000000E+00  0.00000000000E+00  0.94675405766E+01  0.94675409200E+01  0.25500000000E-02 0. -1.
          2   -1    0    0  501    0  0.00000000000E+00 -0.00000000000E+00 -0.12362296871E+04  0.12362296871E+04  0.25500000000E-02 0.  1.
    5000001    1    1    2    0    0  0.15489912460E+02 -0.72540254472E+02 -0.51825080046E+03  0.52916435829E+03  0.77000000000E+02 0.  0.
   -5000001    1    1    2    0    0 -0.15489912460E+02  0.72540254472E+02 -0.70851134605E+03  0.71653286972E+03  0.77000000000E+02 0.  0.
<mgrwt>
<rscale>  0 0.21637056E+03</rscale>
<asrwt>0</asrwt>
<pdfrwt beam="1">  1        2 0.17660414E+00 0.21637056E+03</pdfrwt>
<pdfrwt beam="2">  1       -2 0.13525066E-02 0.21637056E+03</pdfrwt>
<totfact> 0.28934451E+04</totfact>
</mgrwt>
</event>
<event>
 4    1  0.4950349E-004  0.3402285E+03  0.7818608E-02  0.1066699E+00
          2   -1    0    0  501    0  0.00000000000E+00  0.00000000000E+00  0.10053879758E+04  0.10053879758E+04  0.25500000000E-02 0.  1.
         -2   -1    0    0    0  501 -0.00000000000E+00 -0.00000000000E+00 -0.28783779210E+02  0.28783779323E+02  0.25500000000E-02 0. -1.
    5000001    1    1    2    0    0 -0.18258816448E+02  0.14981225136E+03  0.53467731283E+03  0.56087959839E+03  0.77000000000E+02 0.  0.
   -5000001    1    1    2    0    0  0.18258816448E+02 -0.14981225136E+03  0.44192688372E+03  0.47329215669E+03  0.77000000000E+02 0.  0.
<mgrwt>
<rscale>  0 0.34022854E+03</rscale>
<asrwt>0</asrwt>
<pdfrwt beam="1">  1        2 0.14362685E+00 0.34022854E+03</pdfrwt>
<pdfrwt beam="2">  1       -2 0.41119686E-02 0.34022854E+03</pdfrwt>
<totfact> 0.76545531E+03</totfact>
</mgrwt>
</event>
<event>
 4    1  0.4950349E-004  0.2158242E+03  0.7818608E-02  0.1137035E+00
          2   -1    0    0  501    0  0.00000000000E+00  0.00000000000E+00  0.31303566546E+03  0.31303566547E+03  0.25500000000E-02 0.  1.
         -2   -1    0    0    0  501 -0.00000000000E+00 -0.00000000000E+00 -0.37200285488E+02  0.37200285575E+02  0.25500000000E-02 0. -1.
    5000001    1    1    2    0    0 -0.37727373572E+02  0.47727646091E+02  0.21075760902E+03  0.23248452137E+03  0.77000000000E+02 0.  0.
   -5000001    1    1    2    0    0  0.37727373572E+02 -0.47727646091E+02  0.65077770953E+02  0.11775142967E+03  0.77000000000E+02 0.  0.
<mgrwt>
<rscale>  0 0.21582415E+03</rscale>
<asrwt>0</asrwt>
<pdfrwt beam="1">  1        2 0.44719382E-01 0.21582415E+03</pdfrwt>
<pdfrwt beam="2">  1       -2 0.53143263E-02 0.21582415E+03</pdfrwt>
<totfact> 0.19631059E+04</totfact>
</mgrwt>
</event>
<event>
 4    1  0.4950349E-004  0.1998383E+03  0.7818608E-02  0.1149876E+00
          2   -1    0    0  501    0  0.00000000000E+00  0.00000000000E+00  0.20048616105E+03  0.20048616106E+03  0.25500000000E-02 0.  1.
         -2   -1    0    0    0  501 -0.00000000000E+00 -0.00000000000E+00 -0.49798121418E+02  0.49798121484E+02  0.25500000000E-02 0. -1.
    5000001    1    1    2    0    0  0.61366581256E+02  0.78373488757E+01  0.94236808146E+02  0.13651687567E+03  0.77000000000E+02 0.  0.
   -5000001    1    1    2    0    0 -0.61366581256E+02 -0.78373488757E+01  0.56451231484E+02  0.11376740688E+03  0.77000000000E+02 0.  0.
<mgrwt>
<rscale>  0 0.19983828E+03</rscale>
<asrwt>0</asrwt>
<pdfrwt beam="1">  1        2 0.28640880E-01 0.19983828E+03</pdfrwt>
<pdfrwt beam="2">  1       -2 0.71140174E-02 0.19983828E+03</pdfrwt>
<totfact> 0.20218936E+04</totfact>
</mgrwt>
</event>
<event>
 4    1  0.4950349E-004  0.1988556E+03  0.7818608E-02  0.1150708E+00
          2   -1    0    0  501    0  0.00000000000E+00  0.00000000000E+00  0.11538295942E+04  0.11538295942E+04  0.25500000000E-02 0.  1.
         -2   -1    0    0    0  501 -0.00000000000E+00 -0.00000000000E+00 -0.85678934996E+01  0.85678938790E+01  0.25500000000E-02 0. -1.
    5000001    1    1    2    0    0 -0.56916629674E+02 -0.25788903496E+02  0.53034971726E+03  0.53954090936E+03  0.77000000000E+02 0.  0.
   -5000001    1    1    2    0    0  0.56916629674E+02  0.25788903496E+02  0.61491198347E+03  0.62285657875E+03  0.77000000000E+02 0.  0.
<mgrwt>
<rscale>  0 0.19885562E+03</rscale>
<asrwt>0</asrwt>
<pdfrwt beam="1">  1        2 0.16483259E+00 0.19885562E+03</pdfrwt>
<pdfrwt beam="2">  1       -2 0.12239864E-02 0.19885562E+03</pdfrwt>
<totfact> 0.36834444E+04</totfact>
</mgrwt>
</event>
<event>
 4    1  0.4950349E-004  0.2063874E+03  0.7818608E-02  0.1144459E+00
          2   -1    0    0  501    0  0.00000000000E+00  0.00000000000E+00  0.13297887649E+04  0.13297887649E+04  0.25500000000E-02 0.  1.
         -2   -1    0    0    0  501 -0.00000000000E+00 -0.00000000000E+00 -0.80079907028E+01  0.80079911088E+01  0.25500000000E-02 0. -1.
    5000001    1    1    2    0    0 -0.45886738680E+02  0.51075711850E+02  0.67625034717E+03  0.68407445003E+03  0.77000000000E+02 0.  0.
   -5000001    1    1    2    0    0  0.45886738680E+02 -0.51075711850E+02  0.64553042702E+03  0.65372230598E+03  0.77000000000E+02 0.  0.
<mgrwt>
<rscale>  0 0.20638737E+03</rscale>
<asrwt>0</asrwt>
<pdfrwt beam="1">  1        2 0.18996975E+00 0.20638737E+03</pdfrwt>
<pdfrwt beam="2">  1       -2 0.11439992E-02 0.20638737E+03</pdfrwt>
<totfact> 0.32843747E+04</totfact>
</mgrwt>
</event>
<event>
 4    1  0.4950349E-004  0.2509075E+03  0.7818608E-02  0.1112733E+00
         -2   -1    0    0    0  501 -0.00000000000E+00  0.00000000000E+00  0.32946493085E+02  0.32946493184E+02  0.25500000000E-02 0. -1.
          2   -1    0    0  501    0  0.00000000000E+00 -0.00000000000E+00 -0.47770297912E+03  0.47770297912E+03  0.25500000000E-02 0.  1.
    5000001    1    1    2    0    0 -0.41837042417E+02 -0.83997324694E+02 -0.15789870209E+03  0.19916548093E+03  0.77000000000E+02 0.  0.
   -5000001    1    1    2    0    0  0.41837042417E+02  0.83997324694E+02 -0.28685778395E+03  0.31148399138E+03  0.77000000000E+02 0.  0.
<mgrwt>
<rscale>  0 0.25090746E+03</rscale>
<asrwt>0</asrwt>
<pdfrwt beam="1">  1        2 0.68243278E-01 0.25090746E+03</pdfrwt>
<pdfrwt beam="2">  1       -2 0.47066422E-02 0.25090746E+03</pdfrwt>
<totfact> 0.15095864E+04</totfact>
</mgrwt>
</event>
<event>
 4    1  0.4950349E-004  0.3671645E+03  0.7818608E-02  0.1055783E+00
         -2   -1    0    0    0  501 -0.00000000000E+00  0.00000000000E+00  0.14726955339E+03  0.14726955341E+03  0.25500000000E-02 0. -1.
          2   -1    0    0  501    0  0.00000000000E+00 -0.00000000000E+00 -0.22884864952E+03  0.22884864954E+03  0.25500000000E-02 0.  1.
    5000001    1    1    2    0    0 -0.74879919563E+02 -0.14257516991E+03  0.31368773003E+01  0.17853156984E+03  0.77000000000E+02 0.  0.
   -5000001    1    1    2    0    0  0.74879919563E+02  0.14257516991E+03 -0.84715973433E+02  0.19758663311E+03  0.77000000000E+02 0.  0.
<mgrwt>
<rscale>  0 0.36716448E+03</rscale>
<asrwt>0</asrwt>
<pdfrwt beam="1">  1        2 0.32692664E-01 0.36716448E+03</pdfrwt>
<pdfrwt beam="2">  1       -2 0.21038508E-01 0.36716448E+03</pdfrwt>
<totfact> 0.30868209E+03</totfact>
</mgrwt>
</event>
<event>
 4    1  0.4950349E-004  0.2348692E+03  0.7818608E-02  0.1123259E+00
          2   -1    0    0  501    0  0.00000000000E+00  0.00000000000E+00  0.25594229246E+04  0.25594229246E+04  0.25500000000E-02 0.  1.
         -2   -1    0    0    0  501 -0.00000000000E+00 -0.00000000000E+00 -0.53882779821E+01  0.53882785855E+01  0.25500000000E-02 0. -1.
    5000001    1    1    2    0    0 -0.41147140816E+02 -0.52577481569E+02  0.19141794142E+04  0.19168905312E+04  0.77000000000E+02 0.  0.
   -5000001    1    1    2    0    0  0.41147140816E+02  0.52577481569E+02  0.63985523237E+03  0.64792067196E+03  0.77000000000E+02 0.  0.
<mgrwt>
<rscale>  0 0.23486918E+03</rscale>
<asrwt>0</asrwt>
<pdfrwt beam="1">  1        2 0.36563205E+00 0.23486918E+03</pdfrwt>
<pdfrwt beam="2">  1       -2 0.76975362E-03 0.23486918E+03</pdfrwt>
<totfact> 0.14546802E+04</totfact>
</mgrwt>
</event>
<event>
 4    1  0.4950349E-004  0.4973764E+03  0.7818608E-02  0.1014466E+00
         -2   -1    0    0    0  501 -0.00000000000E+00  0.00000000000E+00  0.17984209846E+02  0.17984210027E+02  0.25500000000E-02 0. -1.
          2   -1    0    0  501    0  0.00000000000E+00 -0.00000000000E+00 -0.34388952869E+04  0.34388952869E+04  0.25500000000E-02 0.  1.
    5000001    1    1    2    0    0  0.75847651036E+02 -0.22396365170E+03 -0.16961587579E+04  0.17142917241E+04  0.77000000000E+02 0.  0.
   -5000001    1    1    2    0    0 -0.75847651036E+02  0.22396365170E+03 -0.17247523191E+04  0.17425877728E+04  0.77000000000E+02 0.  0.
<mgrwt>
<rscale>  0 0.49737638E+03</rscale>
<asrwt>0</asrwt>
<pdfrwt beam="1">  1        2 0.49127034E+00 0.49737638E+03</pdfrwt>
<pdfrwt beam="2">  1       -2 0.25691750E-02 0.49737638E+03</pdfrwt>
<totfact> 0.81984265E+02</totfact>
</mgrwt>
</event>
<event>
 4    1  0.4950349E-004  0.3204021E+03  0.7818608E-02  0.1075464E+00
          2   -1    0    0  501    0  0.00000000000E+00  0.00000000000E+00  0.88950334649E+03  0.88950334649E+03  0.25500000000E-02 0.  1.
         -2   -1    0    0    0  501 -0.00000000000E+00 -0.00000000000E+00 -0.28852475396E+02  0.28852475508E+02  0.25500000000E-02 0. -1.
    5000001    1    1    2    0    0 -0.94963169114E+02  0.10351773972E+03  0.43377395136E+03  0.46240973909E+03  0.77000000000E+02 0.  0.
   -5000001    1    1    2    0    0  0.94963169114E+02 -0.10351773972E+03  0.42687691973E+03  0.45594608291E+03  0.77000000000E+02 0.  0.
<mgrwt>
<rscale>  0 0.32040208E+03</rscale>
<asrwt>0</asrwt>
<pdfrwt beam="1">  1        2 0.12707192E+00 0.32040208E+03</pdfrwt>
<pdfrwt beam="2">  1       -2 0.41217818E-02 0.32040208E+03</pdfrwt>
<totfact> 0.89677938E+03</totfact>
</mgrwt>
</event>
<event>
 4    1  0.4950349E-004  0.4256880E+03  0.7818608E-02  0.1035231E+00
          2   -1    0    0  501    0  0.00000000000E+00  0.00000000000E+00  0.14786468144E+03  0.14786468146E+03  0.25500000000E-02 0.  1.
         -2   -1    0    0    0  501 -0.00000000000E+00 -0.00000000000E+00 -0.30637861998E+03  0.30637861999E+03  0.25500000000E-02 0. -1.
    5000001    1    1    2    0    0  0.12726884339E+03  0.21816743915E+02 -0.24002969890E+03  0.28322532579E+03  0.77000000000E+02 0.  0.
   -5000001    1    1    2    0    0 -0.12726884339E+03 -0.21816743915E+02  0.81515760357E+02  0.17101797566E+03  0.77000000000E+02 0.  0.
<mgrwt>
<rscale>  0 0.42568804E+03</rscale>
<asrwt>0</asrwt>
<pdfrwt beam="1">  1        2 0.21123526E-01 0.42568804E+03</pdfrwt>
<pdfrwt beam="2">  1       -2 0.43768374E-01 0.42568804E+03</pdfrwt>
<totfact> 0.13149957E+03</totfact>
</mgrwt>
</event>
<event>
 4    1  0.4950349E-004  0.2281733E+03  0.7818608E-02  0.1127932E+00
         -2   -1    0    0    0  501 -0.00000000000E+00  0.00000000000E+00  0.40552934048E+02  0.40552934129E+02  0.25500000000E-02 0. -1.
          2   -1    0    0  501    0  0.00000000000E+00 -0.00000000000E+00 -0.32095743194E+03  0.32095743195E+03  0.25500000000E-02 0.  1.
    5000001    1    1    2    0    0 -0.52606241641E+02  0.62786770432E+02 -0.10943244758E+03  0.15688867322E+03  0.77000000000E+02 0.  0.
   -5000001    1    1    2    0    0  0.52606241641E+02 -0.62786770432E+02 -0.17097205031E+03  0.20462169286E+03  0.77000000000E+02 0.  0.
<mgrwt>
<rscale>  0 0.22817332E+03</rscale>
<asrwt>0</asrwt>
<pdfrwt beam="1">  1        2 0.45851060E-01 0.22817332E+03</pdfrwt>
<pdfrwt beam="2">  1       -2 0.57932765E-02 0.22817332E+03</pdfrwt>
<totfact> 0.16822401E+04</totfact>
</mgrwt>
</event>
<event>
 4    1  0.4950349E-004  0.2492170E+03  0.7818608E-02  0.1113801E+00
          2   -1    0    0  501    0  0.00000000000E+00  0.00000000000E+00  0.23184399894E+03  0.23184399896E+03  0.25500000000E-02 0.  1.
         -2   -1    0    0    0  501 -0.00000000000E+00 -0.00000000000E+00 -0.66972949931E+02  0.66972949979E+02  0.25500000000E-02 0. -1.
    5000001    1    1    2    0    0 -0.60280122660E+02 -0.71541631391E+02  0.47552843551E+02  0.13016209563E+03  0.77000000000E+02 0.  0.
   -5000001    1    1    2    0    0  0.60280122660E+02  0.71541631391E+02  0.11731820546E+03  0.16865485330E+03  0.77000000000E+02 0.  0.
<mgrwt>
<rscale>  0 0.24921699E+03</rscale>
<asrwt>0</asrwt>
<pdfrwt beam="1">  1        2 0.33120571E-01 0.24921699E+03</pdfrwt>
<pdfrwt beam="2">  1       -2 0.95675643E-02 0.24921699E+03</pdfrwt>
<totfact> 0.11018151E+04</totfact>
</mgrwt>
</event>
<event>
 4    1  0.4950349E-004  0.3646032E+03  0.7818608E-02  0.1056776E+00
         -2   -1    0    0    0  501 -0.00000000000E+00  0.00000000000E+00  0.18395179932E+03  0.18395179934E+03  0.25500000000E-02 0. -1.
          2   -1    0    0  501    0  0.00000000000E+00 -0.00000000000E+00 -0.18066616868E+03  0.18066616870E+03  0.25500000000E-02 0.  1.
    5000001    1    1    2    0    0  0.72344377519E+02  0.40237297066E+02 -0.14137389225E+03  0.18102023766E+03  0.77000000000E+02 0.  0.
   -5000001    1    1    2    0    0 -0.72344377519E+02 -0.40237297066E+02  0.14465952289E+03  0.18359773037E+03  0.77000000000E+02 0.  0.
<mgrwt>
<rscale>  0 0.36460316E+03</rscale>
<asrwt>0</asrwt>
<pdfrwt beam="1">  1        2 0.25809452E-01 0.36460316E+03</pdfrwt>
<pdfrwt beam="2">  1       -2 0.26278829E-01 0.36460316E+03</pdfrwt>
<totfact> 0.27131292E+03</totfact>
</mgrwt>
</event>
<event>
 4    1  0.4950349E-004  0.2308324E+03  0.7818608E-02  0.1126055E+00
          2   -1    0    0  501    0  0.00000000000E+00  0.00000000000E+00  0.25484600075E+04  0.25484600075E+04  0.25500000000E-02 0.  1.
         -2   -1    0    0    0  501 -0.00000000000E+00 -0.00000000000E+00 -0.52270367412E+01  0.52270373632E+01  0.25500000000E-02 0. -1.
    5000001    1    1    2    0    0 -0.74920225149E+02 -0.10283008347E+02  0.81910062317E+03  0.82618013246E+03  0.77000000000E+02 0.  0.
   -5000001    1    1    2    0    0  0.74920225149E+02  0.10283008347E+02  0.17241323476E+04  0.17275069124E+04  0.77000000000E+02 0.  0.
<mgrwt>
<rscale>  0 0.23083236E+03</rscale>
<asrwt>0</asrwt>
<pdfrwt beam="1">  1        2 0.36406568E+00 0.23083236E+03</pdfrwt>
<pdfrwt beam="2">  1       -2 0.74671966E-03 0.23083236E+03</pdfrwt>
<totfact> 0.15385102E+04</totfact>
</mgrwt>
</event>
<event>
 4    1  0.4950349E-004  0.2081010E+03  0.7818608E-02  0.1143079E+00
          2   -1    0    0  501    0  0.00000000000E+00  0.00000000000E+00  0.26709283218E+04  0.26709283218E+04  0.25500000000E-02 0.  1.
         -2   -1    0    0    0  501 -0.00000000000E+00 -0.00000000000E+00 -0.40534633427E+01  0.40534641448E+01  0.25500000000E-02 0. -1.
    5000001    1    1    2    0    0  0.66794845232E+02 -0.44115060892E+01  0.15957706129E+04  0.15990290372E+04  0.77000000000E+02 0.  0.
   -5000001    1    1    2    0    0 -0.66794845232E+02  0.44115060892E+01  0.10711042455E+04  0.10759527487E+04  0.77000000000E+02 0.  0.
<mgrwt>
<rscale>  0 0.20810104E+03</rscale>
<asrwt>0</asrwt>
<pdfrwt beam="1">  1        2 0.38156076E+00 0.20810104E+03</pdfrwt>
<pdfrwt beam="2">  1       -2 0.57906690E-03 0.20810104E+03</pdfrwt>
<totfact> 0.19203627E+04</totfact>
</mgrwt>
</event>
<event>
 4    1  0.4950349E-004  0.4687610E+03  0.7818608E-02  0.1022270E+00
         -2   -1    0    0    0  501 -0.00000000000E+00  0.00000000000E+00  0.43353431866E+02  0.43353431941E+02  0.25500000000E-02 0. -1.
          2   -1    0    0  501    0  0.00000000000E+00 -0.00000000000E+00 -0.12671250223E+04  0.12671250223E+04  0.25500000000E-02 0.  1.
    5000001    1    1    2    0    0 -0.99316538373E+02  0.92979436697E+02 -0.12368131357E+03  0.19933644365E+03  0.77000000000E+02 0.  0.
   -5000001    1    1    2    0    0  0.99316538373E+02 -0.92979436697E+02 -0.11000902769E+04  0.11111420106E+04  0.77000000000E+02 0.  0.
<mgrwt>
<rscale>  0 0.46876100E+03</rscale>
<asrwt>0</asrwt>
<pdfrwt beam="1">  1        2 0.18101784E+00 0.46876100E+03</pdfrwt>
<pdfrwt beam="2">  1       -2 0.61933482E-02 0.46876100E+03</pdfrwt>
<totfact> 0.29103761E+03</totfact>
</mgrwt>
</event>
<event>
 4    1  0.4950349E-004  0.2681238E+03  0.7818608E-02  0.1102358E+00
          2   -1    0    0  501    0  0.00000000000E+00  0.00000000000E+00  0.36131441743E+03  0.36131441744E+03  0.25500000000E-02 0.  1.
         -2   -1    0    0    0  501 -0.00000000000E+00 -0.00000000000E+00 -0.49742269895E+02  0.49742269960E+02  0.25500000000E-02 0. -1.
    5000001    1    1    2    0    0  0.95205853763E+02  0.54414082723E+02  0.14918271199E+03  0.20052313718E+03  0.77000000000E+02 0.  0.
   -5000001    1    1    2    0    0 -0.95205853763E+02 -0.54414082723E+02  0.16238943555E+03  0.21053355022E+03  0.77000000000E+02 0.  0.
<mgrwt>
<rscale>  0 0.26812385E+03</rscale>
<asrwt>0</asrwt>
<pdfrwt beam="1">  1        2 0.51616344E-01 0.26812385E+03</pdfrwt>
<pdfrwt beam="2">  1       -2 0.71060388E-02 0.26812385E+03</pdfrwt>
<totfact> 0.10914785E+04</totfact>
</mgrwt>
</event>
<event>
 4    1  0.4950349E-004  0.4221976E+03  0.7818608E-02  0.1036353E+00
          2   -1    0    0  501    0  0.00000000000E+00  0.00000000000E+00  0.54864683126E+03  0.54864683126E+03  0.25500000000E-02 0.  1.
         -2   -1    0    0    0  501 -0.00000000000E+00 -0.00000000000E+00 -0.81222918615E+02  0.81222918655E+02  0.25500000000E-02 0. -1.
    5000001    1    1    2    0    0  0.10885733610E+03 -0.16222861231E+03  0.20151854478E+03  0.29104426839E+03  0.77000000000E+02 0.  0.
   -5000001    1    1    2    0    0 -0.10885733610E+03  0.16222861231E+03  0.26590536786E+03  0.33882548153E+03  0.77000000000E+02 0.  0.
<mgrwt>
<rscale>  0 0.42219757E+03</rscale>
<asrwt>0</asrwt>
<pdfrwt beam="1">  1        2 0.78378117E-01 0.42219757E+03</pdfrwt>
<pdfrwt beam="2">  1       -2 0.11603274E-01 0.42219757E+03</pdfrwt>
<totfact> 0.32055509E+03</totfact>
</mgrwt>
</event>
<event>
 4    1  0.4950349E-004  0.3612784E+03  0.7818608E-02  0.1058079E+00
          2   -1    0    0  501    0  0.00000000000E+00  0.00000000000E+00  0.36651683606E+03  0.36651683607E+03  0.25500000000E-02 0.  1.
         -2   -1    0    0    0  501 -0.00000000000E+00 -0.00000000000E+00 -0.89028687875E+02  0.89028687912E+02  0.25500000000E-02 0. -1.
    5000001    1    1    2    0    0  0.12606020864E+03 -0.52999174969E+02  0.25153482462E+03  0.29647741356E+03  0.77000000000E+02 0.  0.
   -5000001    1    1    2    0    0 -0.12606020864E+03  0.52999174969E+02  0.25953323564E+02  0.15906811043E+03  0.77000000000E+02 0.  0.
<mgrwt>
<rscale>  0 0.36127836E+03</rscale>
<asrwt>0</asrwt>
<pdfrwt beam="1">  1        2 0.52359547E-01 0.36127836E+03</pdfrwt>
<pdfrwt beam="2">  1       -2 0.12718384E-01 0.36127836E+03</pdfrwt>
<totfact> 0.43043533E+03</totfact>
</mgrwt>
</event>
<event>
 4    1  0.4950349E-004  0.3323846E+03  0.7818608E-02  0.1070087E+00
         -2   -1    0    0    0  501 -0.00000000000E+00  0.00000000000E+00  0.14125921904E+03  0.14125921906E+03  0.25500000000E-02 0. -1.
          2   -1    0    0  501    0  0.00000000000E+00 -0.00000000000E+00 -0.19552620594E+03  0.19552620596E+03  0.25500000000E-02 0.  1.
    5000001    1    1    2    0    0 -0.11345639035E+03  0.62983250990E+02 -0.97709412767E+02  0.17976476785E+03  0.77000000000E+02 0.  0.
   -5000001    1    1    2    0    0  0.11345639035E+03 -0.62983250990E+02  0.43442425865E+02  0.15702065718E+03  0.77000000000E+02 0.  0.
<mgrwt>
<rscale>  0 0.33238459E+03</rscale>
<asrwt>0</asrwt>
<pdfrwt beam="1">  1        2 0.27932315E-01 0.33238459E+03</pdfrwt>
<pdfrwt beam="2">  1       -2 0.20179888E-01 0.33238459E+03</pdfrwt>
<totfact> 0.39384560E+03</totfact>
</mgrwt>
</event>
<event>
 4    1  0.4950349E-004  0.2979773E+03  0.7818608E-02  0.1086256E+00
          2   -1    0    0  501    0  0.00000000000E+00  0.00000000000E+00  0.65550784271E+02  0.65550784321E+02  0.25500000000E-02 0.  1.
         -2   -1    0    0    0  501 -0.00000000000E+00 -0.00000000000E+00 -0.33863238116E+03  0.33863238117E+03  0.25500000000E-02 0. -1.
    5000001    1    1    2    0    0 -0.10146364688E+03  0.17970859474E+02 -0.23850548846E+03  0.27098282502E+03  0.77000000000E+02 0.  0.
   -5000001    1    1    2    0    0  0.10146364688E+03 -0.17970859474E+02 -0.34576108425E+02  0.13320034047E+03  0.77000000000E+02 0.  0.
<mgrwt>
<rscale>  0 0.29797730E+03</rscale>
<asrwt>0</asrwt>
<pdfrwt beam="1">  1        2 0.93643979E-02 0.29797730E+03</pdfrwt>
<pdfrwt beam="2">  1       -2 0.48376054E-01 0.29797730E+03</pdfrwt>
<totfact> 0.28556248E+03</totfact>
</mgrwt>
</event>
<event>
 4    1  0.4950349E-004  0.2196681E+03  0.7818608E-02  0.1134131E+00
         -2   -1    0    0    0  501 -0.00000000000E+00  0.00000000000E+00  0.15698187539E+02  0.15698187746E+02  0.25500000000E-02 0. -1.
          2   -1    0    0  501    0  0.00000000000E+00 -0.00000000000E+00 -0.76846582776E+03  0.76846582777E+03  0.25500000000E-02 0.  1.
    5000001    1    1    2    0    0  0.71769267475E+02 -0.92256937957E+01 -0.48339228876E+03  0.49480606909E+03  0.77000000000E+02 0.  0.
   -5000001    1    1    2    0    0 -0.71769267475E+02  0.92256937957E+01 -0.26937535147E+03  0.28935794642E+03  0.77000000000E+02 0.  0.
<mgrwt>
<rscale>  0 0.21966812E+03</rscale>
<asrwt>0</asrwt>
<pdfrwt beam="1">  1        2 0.10978081E+00 0.21966812E+03</pdfrwt>
<pdfrwt beam="2">  1       -2 0.22425987E-02 0.21966812E+03</pdfrwt>
<totfact> 0.26210439E+04</totfact>
</mgrwt>
</event>
<event>
 4    1  0.4950349E-004  0.3058016E+03  0.7818608E-02  0.1082376E+00
          2   -1    0    0  501    0  0.00000000000E+00  0.00000000000E+00  0.15535269134E+02  0.15535269344E+02  0.25500000000E-02 0.  1.
         -2   -1    0    0    0  501 -0.00000000000E+00 -0.00000000000E+00 -0.15048759973E+04  0.15048759973E+04  0.25500000000E-02 0. -1.
    5000001    1    1    2    0    0 -0.82060549716E+02 -0.10278875687E+03 -0.80560215100E+03  0.81989224174E+03  0.77000000000E+02 0.  0.
   -5000001    1    1    2    0    0  0.82060549716E+02  0.10278875687E+03 -0.68373857713E+03  0.70051902488E+03  0.77000000000E+02 0.  0.
<mgrwt>
<rscale>  0 0.30580159E+03</rscale>
<asrwt>0</asrwt>
<pdfrwt beam="1">  1        2 0.22193251E-02 0.30580159E+03</pdfrwt>
<pdfrwt beam="2">  1       -2 0.21498219E+00 0.30580159E+03</pdfrwt>
<totfact> 0.55270436E+02</totfact>
</mgrwt>
</event>
<event>
 4    1  0.4950349E-004  0.2987326E+03  0.7818608E-02  0.1085876E+00
          2   -1    0    0  501    0  0.00000000000E+00  0.00000000000E+00  0.25495900248E+04  0.25495900248E+04  0.25500000000E-02 0.  1.
         -2   -1    0    0    0  501 -0.00000000000E+00 -0.00000000000E+00 -0.87505426243E+01  0.87505429959E+01  0.25500000000E-02 0. -1.
    5000001    1    1    2    0    0  0.10504454733E+03  0.66970319315E+02  0.15218445787E+04  0.15288751755E+04  0.77000000000E+02 0.  0.
   -5000001    1    1    2    0    0 -0.10504454733E+03 -0.66970319315E+02  0.10189949035E+04  0.10294653923E+04  0.77000000000E+02 0.  0.
<mgrwt>
<rscale>  0 0.29873263E+03</rscale>
<asrwt>0</asrwt>
<pdfrwt beam="1">  1        2 0.36422694E+00 0.29873263E+03</pdfrwt>
<pdfrwt beam="2">  1       -2 0.12500783E-02 0.29873263E+03</pdfrwt>
<totfact> 0.72952862E+03</totfact>
</mgrwt>
</event>
<event>
 4    1  0.4950349E-004  0.1352530E+04  0.7818608E-02  0.8988915E-01
         -2   -1    0    0    0  501 -0.00000000000E+00  0.00000000000E+00  0.37131456727E+03  0.37131456728E+03  0.25500000000E-02 0. -1.
          2   -1    0    0  501    0  0.00000000000E+00 -0.00000000000E+00 -0.12316635399E+04  0.12316635399E+04  0.25500000000E-02 0.  1.
    5000001    1    1    2    0    0  0.62737498225E+03 -0.22559190526E+03 -0.33162323306E+03  0.74859471330E+03  0.77000000000E+02 0.  0.
   -5000001    1    1    2    0    0 -0.62737498225E+03  0.22559190526E+03 -0.52872573957E+03  0.85438339389E+03  0.77000000000E+02 0.  0.
<mgrwt>
<rscale>  0 0.13525304E+04</rscale>
<asrwt>0</asrwt>
<pdfrwt beam="1">  1        2 0.17595193E+00 0.13525304E+04</pdfrwt>
<pdfrwt beam="2">  1       -2 0.53044939E-01 0.13525304E+04</pdfrwt>
<totfact> 0.67156084E+01</totfact>
</mgrwt>
</event>
<event>
 4    1  0.4950349E-004  0.2055737E+03  0.7818608E-02  0.1145120E+00
          2   -1    0    0  501    0  0.00000000000E+00  0.00000000000E+00  0.27551562964E+03  0.27551562965E+03  0.25500000000E-02 0.  1.
         -2   -1    0    0    0  501 -0.00000000000E+00 -0.00000000000E+00 -0.38346761603E+02  0.38346761688E+02  0.25500000000E-02 0. -1.
    5000001    1    1    2    0    0  0.41589723472E+02 -0.51027971960E+02  0.92026944535E+02  0.13686313434E+03  0.77000000000E+02 0.  0.
   -5000001    1    1    2    0    0 -0.41589723472E+02  0.51027971960E+02  0.14514192350E+03  0.17699925700E+03  0.77000000000E+02 0.  0.
<mgrwt>
<rscale>  0 0.20557366E+03</rscale>
<asrwt>0</asrwt>
<pdfrwt beam="1">  1        2 0.39359375E-01 0.20557366E+03</pdfrwt>
<pdfrwt beam="2">  1       -2 0.54781089E-02 0.20557366E+03</pdfrwt>
<totfact> 0.21418373E+04</totfact>
</mgrwt>
</event>
<event>
 4    1  0.4950349E-004  0.1587069E+03  0.7818608E-02  0.1190164E+00
          2   -1    0    0  501    0  0.00000000000E+00  0.00000000000E+00  0.14745549276E+04  0.14745549276E+04  0.25500000000E-02 0.  1.
         -2   -1    0    0    0  501 -0.00000000000E+00 -0.00000000000E+00 -0.42704200938E+01  0.42704208551E+01  0.25500000000E-02 0. -1.
    5000001    1    1    2    0    0  0.74304081789E-01 -0.18833103948E+02  0.70118823301E+03  0.70565475229E+03  0.77000000000E+02 0.  0.
   -5000001    1    1    2    0    0 -0.74304081789E-01  0.18833103948E+02  0.76909627450E+03  0.77317059617E+03  0.77000000000E+02 0.  0.
<mgrwt>
<rscale>  0 0.15870689E+03</rscale>
<asrwt>0</asrwt>
<pdfrwt beam="1">  1        2 0.21065074E+00 0.15870689E+03</pdfrwt>
<pdfrwt beam="2">  1       -2 0.61005997E-03 0.15870689E+03</pdfrwt>
<totfact> 0.67047447E+04</totfact>
</mgrwt>
</event>
<event>
 4    1  0.4950349E-004  0.2383124E+03  0.7818608E-02  0.1120922E+00
          2   -1    0    0  501    0  0.00000000000E+00  0.00000000000E+00  0.15394254300E+04  0.15394254300E+04  0.25500000000E-02 0.  1.
         -2   -1    0    0    0  501 -0.00000000000E+00 -0.00000000000E+00 -0.92230538357E+01  0.92230541882E+01  0.25500000000E-02 0. -1.
    5000001    1    1    2    0    0 -0.87321486592E+02  0.18661453109E+02  0.65331517447E+03  0.66386972295E+03  0.77000000000E+02 0.  0.
   -5000001    1    1    2    0    0  0.87321486592E+02 -0.18661453109E+02  0.87688720171E+03  0.88477876126E+03  0.77000000000E+02 0.  0.
<mgrwt>
<rscale>  0 0.23831243E+03</rscale>
<asrwt>0</asrwt>
<pdfrwt beam="1">  1        2 0.21991789E+00 0.23831243E+03</pdfrwt>
<pdfrwt beam="2">  1       -2 0.13175793E-02 0.23831243E+03</pdfrwt>
<totfact> 0.21106021E+04</totfact>
</mgrwt>
</event>
<event>
 4    1  0.4950349E-004  0.2256114E+03  0.7818608E-02  0.1129767E+00
          2   -1    0    0  501    0  0.00000000000E+00  0.00000000000E+00  0.92493359917E+02  0.92493359952E+02  0.25500000000E-02 0.  1.
         -2   -1    0    0    0  501 -0.00000000000E+00 -0.00000000000E+00 -0.13757880681E+03  0.13757880684E+03  0.25500000000E-02 0. -1.
    5000001    1    1    2    0    0  0.62691475755E+02  0.87602666167E+01  0.31314004425E+02  0.10448220076E+03  0.77000000000E+02 0.  0.
   -5000001    1    1    2    0    0 -0.62691475755E+02 -0.87602666167E+01 -0.76399451321E+02  0.12558996602E+03  0.77000000000E+02 0.  0.
<mgrwt>
<rscale>  0 0.22561140E+03</rscale>
<asrwt>0</asrwt>
<pdfrwt beam="1">  1        2 0.13213337E-01 0.22561140E+03</pdfrwt>
<pdfrwt beam="2">  1       -2 0.19654115E-01 0.22561140E+03</pdfrwt>
<totfact> 0.96132719E+03</totfact>
</mgrwt>
</event>
<event>
 4    1  0.4950349E-004  0.2665964E+03  0.7818608E-02  0.1103244E+00
          2   -1    0    0  501    0  0.00000000000E+00  0.00000000000E+00  0.10637654993E+02  0.10637655299E+02  0.25500000000E-02 0.  1.
         -2   -1    0    0    0  501 -0.00000000000E+00 -0.00000000000E+00 -0.16703312978E+04  0.16703312978E+04  0.25500000000E-02 0. -1.
    5000001    1    1    2    0    0 -0.85667054635E+02  0.11486198564E+02 -0.12465992421E+04  0.12519622388E+04  0.77000000000E+02 0.  0.
   -5000001    1    1    2    0    0  0.85667054635E+02 -0.11486198564E+02 -0.41309440065E+03  0.42900671423E+03  0.77000000000E+02 0.  0.
<mgrwt>
<rscale>  0 0.26659639E+03</rscale>
<asrwt>0</asrwt>
<pdfrwt beam="1">  1        2 0.15196661E-02 0.26659639E+03</pdfrwt>
<pdfrwt beam="2">  1       -2 0.23861859E+00 0.26659639E+03</pdfrwt>
<totfact> 0.67210978E+02</totfact>
</mgrwt>
</event>
<event>
 4    1  0.4950349E-004  0.2025645E+03  0.7818608E-02  0.1147593E+00
         -2   -1    0    0    0  501 -0.00000000000E+00  0.00000000000E+00  0.18339452098E+02  0.18339452275E+02  0.25500000000E-02 0. -1.
          2   -1    0    0  501    0  0.00000000000E+00 -0.00000000000E+00 -0.55934566844E+03  0.55934566844E+03  0.25500000000E-02 0.  1.
    5000001    1    1    2    0    0  0.19727012086E+02  0.58944104397E+02 -0.20897096690E+03  0.23121727327E+03  0.77000000000E+02 0.  0.
   -5000001    1    1    2    0    0 -0.19727012086E+02 -0.58944104397E+02 -0.33203524944E+03  0.34646784745E+03  0.77000000000E+02 0.  0.
<mgrwt>
<rscale>  0 0.20256449E+03</rscale>
<asrwt>0</asrwt>
<pdfrwt beam="1">  1        2 0.79906514E-01 0.20256449E+03</pdfrwt>
<pdfrwt beam="2">  1       -2 0.26199221E-02 0.20256449E+03</pdfrwt>
<totfact> 0.29965652E+04</totfact>
</mgrwt>
</event>
<event>
 4    1  0.4950349E-004  0.2688074E+03  0.7818608E-02  0.1101964E+00
          2   -1    0    0  501    0  0.00000000000E+00  0.00000000000E+00  0.28199323178E+04  0.28199323178E+04  0.25500000000E-02 0.  1.
         -2   -1    0    0    0  501 -0.00000000000E+00 -0.00000000000E+00 -0.64059507717E+01  0.64059512792E+01  0.25500000000E-02 0. -1.
    5000001    1    1    2    0    0  0.65868115366E+02  0.86235867938E+02  0.12072353578E+04  0.12145457762E+04  0.77000000000E+02 0.  0.
   -5000001    1    1    2    0    0 -0.65868115366E+02 -0.86235867938E+02  0.16062910093E+04  0.16117924928E+04  0.77000000000E+02 0.  0.
<mgrwt>
<rscale>  0 0.26880735E+03</rscale>
<asrwt>0</asrwt>
<pdfrwt beam="1">  1        2 0.40284806E+00 0.26880735E+03</pdfrwt>
<pdfrwt beam="2">  1       -2 0.91513453E-03 0.26880735E+03</pdfrwt>
<totfact> 0.83660241E+03</totfact>
</mgrwt>
</event>
<event>
 4    1  0.4950349E-004  0.2233119E+03  0.7818608E-02  0.1131438E+00
          2   -1    0    0  501    0  0.00000000000E+00  0.00000000000E+00  0.11887225605E+04  0.11887225605E+04  0.25500000000E-02 0.  1.
         -2   -1    0    0    0  501 -0.00000000000E+00 -0.00000000000E+00 -0.10487770463E+02  0.10487770773E+02  0.25500000000E-02 0. -1.
    5000001    1    1    2    0    0 -0.39102829151E+02  0.70578397770E+02  0.56084994468E+03  0.57183214489E+03  0.77000000000E+02 0.  0.
   -5000001    1    1    2    0    0  0.39102829151E+02 -0.70578397770E+02  0.61738484538E+03  0.62737818641E+03  0.77000000000E+02 0.  0.
<mgrwt>
<rscale>  0 0.22331189E+03</rscale>
<asrwt>0</asrwt>
<pdfrwt beam="1">  1        2 0.16981757E+00 0.22331189E+03</pdfrwt>
<pdfrwt beam="2">  1       -2 0.14982524E-02 0.22331189E+03</pdfrwt>
<totfact> 0.26489978E+04</totfact>
</mgrwt>
</event>
<event>
 4    1  0.4950349E-004  0.2758714E+03  0.7818608E-02  0.1097965E+00
         -2   -1    0    0    0  501 -0.00000000000E+00  0.00000000000E+00  0.88598800697E+01  0.88598804367E+01  0.25500000000E-02 0. -1.
          2   -1    0    0  501    0  0.00000000000E+00 -0.00000000000E+00 -0.21474623980E+04  0.21474623980E+04  0.25500000000E-02 0.  1.
    5000001    1    1    2    0    0  0.70687152224E+02  0.89804242624E+02 -0.11160589128E+04  0.11245345581E+04  0.77000000000E+02 0.  0.
   -5000001    1    1    2    0    0 -0.70687152224E+02 -0.89804242624E+02 -0.10225436051E+04  0.10317877203E+04  0.77000000000E+02 0.  0.
<mgrwt>
<rscale>  0 0.27587142E+03</rscale>
<asrwt>0</asrwt>
<pdfrwt beam="1">  1        2 0.30678001E+00 0.27587142E+03</pdfrwt>
<pdfrwt beam="2">  1       -2 0.12656986E-02 0.27587142E+03</pdfrwt>
<totfact> 0.11319842E+04</totfact>
</mgrwt>
</event>
<event>
 4    1  0.4950349E-004  0.3349445E+03  0.7818608E-02  0.1068970E+00
          2   -1    0    0  501    0  0.00000000000E+00  0.00000000000E+00  0.32564496430E+04  0.32564496430E+04  0.25500000000E-02 0.  1.
         -2   -1    0    0    0  501 -0.00000000000E+00 -0.00000000000E+00 -0.86127401601E+01  0.86127405376E+01  0.25500000000E-02 0. -1.
    5000001    1    1    2    0    0 -0.50179630299E+01  0.11026996644E+03  0.65236742021E+03  0.66610576968E+03  0.77000000000E+02 0.  0.
   -5000001    1    1    2    0    0  0.50179630299E+01 -0.11026996644E+03  0.25954694826E+04  0.25989566138E+04  0.77000000000E+02 0.  0.
<mgrwt>
<rscale>  0 0.33494450E+03</rscale>
<asrwt>0</asrwt>
<pdfrwt beam="1">  1        2 0.46520719E+00 0.33494450E+03</pdfrwt>
<pdfrwt beam="2">  1       -2 0.12303912E-02 0.33494450E+03</pdfrwt>
<totfact> 0.31620843E+03</totfact>
</mgrwt>
</event>
<event>
 4    1  0.4950349E-004  0.2754626E+03  0.7818608E-02  0.1098193E+00
          2   -1    0    0  501    0  0.00000000000E+00  0.00000000000E+00  0.17199963215E+04  0.17199963215E+04  0.25500000000E-02 0.  1.
         -2   -1    0    0    0  501 -0.00000000000E+00 -0.00000000000E+00 -0.11029045198E+02  0.11029045493E+02  0.25500000000E-02 0. -1.
    5000001    1    1    2    0    0 -0.67532944785E+02 -0.62088818836E+02  0.12818554277E+04  0.12874385646E+04  0.77000000000E+02 0.  0.
   -5000001    1    1    2    0    0  0.67532944785E+02  0.62088818836E+02  0.42711184856E+03  0.44358680237E+03  0.77000000000E+02 0.  0.
<mgrwt>
<rscale>  0 0.27546265E+03</rscale>
<asrwt>0</asrwt>
<pdfrwt beam="1">  1        2 0.24571372E+00 0.27546265E+03</pdfrwt>
<pdfrwt beam="2">  1       -2 0.15755782E-02 0.27546265E+03</pdfrwt>
<totfact> 0.13297170E+04</totfact>
</mgrwt>
</event>
<event>
 4    1  0.4950349E-004  0.2405816E+03  0.7818608E-02  0.1119406E+00
         -2   -1    0    0    0  501 -0.00000000000E+00  0.00000000000E+00  0.16015224771E+02  0.16015224974E+02  0.25500000000E-02 0. -1.
          2   -1    0    0  501    0  0.00000000000E+00 -0.00000000000E+00 -0.90350783903E+03  0.90350783903E+03  0.25500000000E-02 0.  1.
    5000001    1    1    2    0    0 -0.89680456356E+02  0.10497270837E+02 -0.36844988159E+03  0.38708796441E+03  0.77000000000E+02 0.  0.
   -5000001    1    1    2    0    0  0.89680456356E+02 -0.10497270837E+02 -0.51904273267E+03  0.53243509960E+03  0.77000000000E+02 0.  0.
<mgrwt>
<rscale>  0 0.24058164E+03</rscale>
<asrwt>0</asrwt>
<pdfrwt beam="1">  1        2 0.12907252E+00 0.24058164E+03</pdfrwt>
<pdfrwt beam="2">  1       -2 0.22878898E-02 0.24058164E+03</pdfrwt>
<totfact> 0.20897930E+04</totfact>
</mgrwt>
</event>
<event>
 4    1  0.4950349E-004  0.2170531E+03  0.7818608E-02  0.1136099E+00
          2   -1    0    0  501    0  0.00000000000E+00  0.00000000000E+00  0.12508131412E+04  0.12508131412E+04  0.25500000000E-02 0.  1.
         -2   -1    0    0    0  501 -0.00000000000E+00 -0.00000000000E+00 -0.94162819224E+01  0.94162822677E+01  0.25500000000E-02 0. -1.
    5000001    1    1    2    0    0 -0.19962593381E+01  0.74369110708E+02  0.51777173546E+03  0.52872612922E+03  0.77000000000E+02 0.  0.
   -5000001    1    1    2    0    0  0.19962593381E+01 -0.74369110708E+02  0.72362512381E+03  0.73150329425E+03  0.77000000000E+02 0.  0.
<mgrwt>
<rscale>  0 0.21705308E+03</rscale>
<asrwt>0</asrwt>
<pdfrwt beam="1">  1        2 0.17868760E+00 0.21705308E+03</pdfrwt>
<pdfrwt beam="2">  1       -2 0.13451831E-02 0.21705308E+03</pdfrwt>
<totfact> 0.28653516E+04</totfact>
</mgrwt>
</event>
<event>
 4    1  0.4950349E-004  0.2385399E+03  0.7818608E-02  0.1120769E+00
         -2   -1    0    0    0  501 -0.00000000000E+00  0.00000000000E+00  0.11673172134E+04  0.11673172134E+04  0.25500000000E-02 0. -1.
          2   -1    0    0  501    0  0.00000000000E+00 -0.00000000000E+00 -0.12186338854E+02  0.12186339121E+02  0.25500000000E-02 0.  1.
    5000001    1    1    2    0    0 -0.99036650759E+01 -0.88752901899E+02  0.66617916407E+03  0.67653443284E+03  0.77000000000E+02 0.  0.
   -5000001    1    1    2    0    0  0.99036650759E+01  0.88752901899E+02  0.48895171047E+03  0.50296911968E+03  0.77000000000E+02 0.  0.
<mgrwt>
<rscale>  0 0.23853992E+03</rscale>
<asrwt>0</asrwt>
<pdfrwt beam="1">  1        2 0.17409063E-02 0.23853992E+03</pdfrwt>
<pdfrwt beam="2">  1       -2 0.16675953E+00 0.23853992E+03</pdfrwt>
<totfact> 0.15831216E+03</totfact>
</mgrwt>
</event>
<event>
 4    1  0.4950349E-004  0.4307593E+03  0.7818608E-02  0.1033620E+00
         -2   -1    0    0    0  501 -0.00000000000E+00  0.00000000000E+00  0.24773771881E+02  0.24773772012E+02  0.25500000000E-02 0. -1.
          2   -1    0    0  501    0  0.00000000000E+00 -0.00000000000E+00 -0.18724802272E+04  0.18724802272E+04  0.25500000000E-02 0.  1.
    5000001    1    1    2    0    0 -0.18171490508E+03  0.39317690259E+02 -0.12619700471E+04  0.12779137637E+04  0.77000000000E+02 0.  0.
   -5000001    1    1    2    0    0  0.18171490508E+03 -0.39317690259E+02 -0.58573640815E+03  0.61934023552E+03  0.77000000000E+02 0.  0.
<mgrwt>
<rscale>  0 0.43075932E+03</rscale>
<asrwt>0</asrwt>
<pdfrwt beam="1">  1        2 0.26749709E+00 0.43075932E+03</pdfrwt>
<pdfrwt beam="2">  1       -2 0.35391114E-02 0.43075932E+03</pdfrwt>
<totfact> 0.33624007E+03</totfact>
</mgrwt>
</event>
<event>
 4    1  0.4950349E-004  0.1658168E+03  0.7818608E-02  0.1182282E+00
          2   -1    0    0  501    0  0.00000000000E+00  0.00000000000E+00  0.15650160154E+04  0.15650160154E+04  0.25500000000E-02 0.  1.
         -2   -1    0    0    0  501 -0.00000000000E+00 -0.00000000000E+00 -0.43921594600E+01  0.43921602002E+01  0.25500000000E-02 0. -1.
    5000001    1    1    2    0    0 -0.16904303357E+02 -0.21896375482E+02  0.65347285435E+03  0.65857496013E+03  0.77000000000E+02 0.  0.
   -5000001    1    1    2    0    0  0.16904303357E+02  0.21896375482E+02  0.90715100162E+03  0.91083321550E+03  0.77000000000E+02 0.  0.
<mgrwt>
<rscale>  0 0.16581677E+03</rscale>
<asrwt>0</asrwt>
<pdfrwt beam="1">  1        2 0.22357335E+00 0.16581677E+03</pdfrwt>
<pdfrwt beam="2">  1       -2 0.62745244E-03 0.16581677E+03</pdfrwt>
<totfact> 0.58335056E+04</totfact>
</mgrwt>
</event>
<event>
 4    1  0.4950349E-004  0.4338574E+03  0.7818608E-02  0.1032648E+00
          2   -1    0    0  501    0  0.00000000000E+00  0.00000000000E+00  0.25493319227E+04  0.25493319227E+04  0.25500000000E-02 0.  1.
         -2   -1    0    0    0  501 -0.00000000000E+00 -0.00000000000E+00 -0.18458974788E+02  0.18458974964E+02  0.25500000000E-02 0. -1.
    5000001    1    1    2    0    0 -0.18164720287E+03  0.21405091604E+02  0.74692703113E+03  0.77284078185E+03  0.77000000000E+02 0.  0.
   -5000001    1    1    2    0    0  0.18164720287E+03 -0.21405091604E+02  0.17839459168E+04  0.17949501158E+04  0.77000000000E+02 0.  0.
<mgrwt>
<rscale>  0 0.43385737E+03</rscale>
<asrwt>0</asrwt>
<pdfrwt beam="1">  1        2 0.36419006E+00 0.43385737E+03</pdfrwt>
<pdfrwt beam="2">  1       -2 0.26369979E-02 0.43385737E+03</pdfrwt>
<totfact> 0.24045881E+03</totfact>
</mgrwt>
</event>
<event>
 4    1  0.4950349E-004  0.2710607E+03  0.7818608E-02  0.1100674E+00
         -2   -1    0    0    0  501 -0.00000000000E+00  0.00000000000E+00  0.21876489561E+02  0.21876489709E+02  0.25500000000E-02 0. -1.
          2   -1    0    0  501    0  0.00000000000E+00 -0.00000000000E+00 -0.83964450229E+03  0.83964450230E+03  0.25500000000E-02 0.  1.
    5000001    1    1    2    0    0 -0.98966956840E+02 -0.31221281482E+02 -0.27898981984E+03  0.30746308158E+03  0.77000000000E+02 0.  0.
   -5000001    1    1    2    0    0  0.98966956840E+02  0.31221281482E+02 -0.53877819289E+03  0.55405791042E+03  0.77000000000E+02 0.  0.
<mgrwt>
<rscale>  0 0.27106069E+03</rscale>
<asrwt>0</asrwt>
<pdfrwt beam="1">  1        2 0.11994919E+00 0.27106069E+03</pdfrwt>
<pdfrwt beam="2">  1       -2 0.31252133E-02 0.27106069E+03</pdfrwt>
<totfact> 0.14541636E+04</totfact>
</mgrwt>
</event>
<event>
 4    1  0.4950349E-004  0.3164929E+03  0.7818608E-02  0.1077275E+00
         -2   -1    0    0    0  501 -0.00000000000E+00  0.00000000000E+00  0.96552509752E+01  0.96552513120E+01  0.25500000000E-02 0. -1.
          2   -1    0    0  501    0  0.00000000000E+00 -0.00000000000E+00 -0.25936085005E+04  0.25936085005E+04  0.25500000000E-02 0.  1.
    5000001    1    1    2    0    0 -0.23886302597E+02  0.13605135433E+03 -0.12451463134E+04  0.12551489427E+04  0.77000000000E+02 0.  0.
   -5000001    1    1    2    0    0  0.23886302597E+02 -0.13605135433E+03 -0.13388069361E+04  0.13481148092E+04  0.77000000000E+02 0.  0.
<mgrwt>
<rscale>  0 0.31649292E+03</rscale>
<asrwt>0</asrwt>
<pdfrwt beam="1">  1        2 0.37051505E+00 0.31649292E+03</pdfrwt>
<pdfrwt beam="2">  1       -2 0.13793233E-02 0.31649292E+03</pdfrwt>
<totfact> 0.60007639E+03</totfact>
</mgrwt>
</event>
<event>
 4    1  0.4950349E-004  0.2732607E+03  0.7818608E-02  0.1099428E+00
          2   -1    0    0  501    0  0.00000000000E+00  0.00000000000E+00  0.17592688584E+04  0.17592688584E+04  0.25500000000E-02 0.  1.
         -2   -1    0    0    0  501 -0.00000000000E+00 -0.00000000000E+00 -0.10611140448E+02  0.10611140754E+02  0.25500000000E-02 0. -1.
    5000001    1    1    2    0    0 -0.11243110059E+03  0.93460929633E+01  0.89556218334E+03  0.90591871935E+03  0.77000000000E+02 0.  0.
   -5000001    1    1    2    0    0  0.11243110059E+03 -0.93460929633E+01  0.85309553460E+03  0.86396127979E+03  0.77000000000E+02 0.  0.
<mgrwt>
<rscale>  0 0.27326068E+03</rscale>
<asrwt>0</asrwt>
<pdfrwt beam="1">  1        2 0.25132425E+00 0.27326068E+03</pdfrwt>
<pdfrwt beam="2">  1       -2 0.15158765E-02 0.27326068E+03</pdfrwt>
<totfact> 0.13455897E+04</totfact>
</mgrwt>
</event>
<event>
 4    1  0.4950349E-004  0.2002784E+03  0.7818608E-02  0.1149504E+00
          2   -1    0    0  501    0  0.00000000000E+00  0.00000000000E+00  0.32730205096E+02  0.32730205196E+02  0.25500000000E-02 0.  1.
         -2   -1    0    0    0  501 -0.00000000000E+00 -0.00000000000E+00 -0.30637930274E+03  0.30637930275E+03  0.25500000000E-02 0. -1.
    5000001    1    1    2    0    0 -0.34958156773E+02  0.48289792161E+02 -0.97300939188E+02  0.13766063170E+03  0.77000000000E+02 0.  0.
   -5000001    1    1    2    0    0  0.34958156773E+02 -0.48289792161E+02 -0.17634815846E+03  0.20144887625E+03  0.77000000000E+02 0.  0.
<mgrwt>
<rscale>  0 0.20027838E+03</rscale>
<asrwt>0</asrwt>
<pdfrwt beam="1">  1        2 0.46757438E-02 0.20027838E+03</pdfrwt>
<pdfrwt beam="2">  1       -2 0.43768470E-01 0.20027838E+03</pdfrwt>
<totfact> 0.83532561E+03</totfact>
</mgrwt>
</event>
<event>
 4    1  0.4950349E-004  0.3116259E+03  0.7818608E-02  0.1079569E+00
         -2   -1    0    0    0  501 -0.00000000000E+00  0.00000000000E+00  0.30482293052E+02  0.30482293158E+02  0.25500000000E-02 0. -1.
          2   -1    0    0  501    0  0.00000000000E+00 -0.00000000000E+00 -0.79645172956E+03  0.79645172957E+03  0.25500000000E-02 0.  1.
    5000001    1    1    2    0    0 -0.61815379343E+02  0.30654291118E+02 -0.69230803887E+03  0.69998589084E+03  0.77000000000E+02 0.  0.
   -5000001    1    1    2    0    0  0.61815379343E+02 -0.30654291118E+02 -0.73661397640E+02  0.12694813189E+03  0.77000000000E+02 0.  0.
<mgrwt>
<rscale>  0 0.31162590E+03</rscale>
<asrwt>0</asrwt>
<pdfrwt beam="1">  1        2 0.11377881E+00 0.31162590E+03</pdfrwt>
<pdfrwt beam="2">  1       -2 0.43546138E-02 0.31162590E+03</pdfrwt>
<totfact> 0.94867156E+03</totfact>
</mgrwt>
</event>
<event>
 4    1  0.4950349E-004  0.1807603E+03  0.7818608E-02  0.1167069E+00
         -2   -1    0    0    0  501 -0.00000000000E+00  0.00000000000E+00  0.37806177162E+02  0.37806177248E+02  0.25500000000E-02 0. -1.
          2   -1    0    0  501    0  0.00000000000E+00 -0.00000000000E+00 -0.21606449673E+03  0.21606449674E+03  0.25500000000E-02 0.  1.
    5000001    1    1    2    0    0 -0.10692812762E+01 -0.38910496909E+02 -0.12692982383E+03  0.15347752379E+03  0.77000000000E+02 0.  0.
   -5000001    1    1    2    0    0  0.10692812762E+01  0.38910496909E+02 -0.51328495739E+02  0.10039315020E+03  0.77000000000E+02 0.  0.
<mgrwt>
<rscale>  0 0.18076031E+03</rscale>
<asrwt>0</asrwt>
<pdfrwt beam="1">  1        2 0.30866356E-01 0.18076031E+03</pdfrwt>
<pdfrwt beam="2">  1       -2 0.54008826E-02 0.18076031E+03</pdfrwt>
<totfact> 0.28154284E+04</totfact>
</mgrwt>
</event>
<event>
 4    1  0.4950349E-004  0.2400909E+03  0.7818608E-02  0.1119732E+00
          2   -1    0    0  501    0  0.00000000000E+00  0.00000000000E+00  0.74617574916E+03  0.74617574916E+03  0.25500000000E-02 0.  1.
         -2   -1    0    0    0  501 -0.00000000000E+00 -0.00000000000E+00 -0.19313021134E+02  0.19313021303E+02  0.25500000000E-02 0. -1.
    5000001    1    1    2    0    0 -0.88959153730E+01  0.91074166410E+02  0.39660638217E+03  0.41424541455E+03  0.77000000000E+02 0.  0.
   -5000001    1    1    2    0    0  0.88959153730E+01 -0.91074166410E+02  0.33025634586E+03  0.35124335592E+03  0.77000000000E+02 0.  0.
<mgrwt>
<rscale>  0 0.24009088E+03</rscale>
<asrwt>0</asrwt>
<pdfrwt beam="1">  1        2 0.10659650E+00 0.24009088E+03</pdfrwt>
<pdfrwt beam="2">  1       -2 0.27590040E-02 0.24009088E+03</pdfrwt>
<totfact> 0.20116631E+04</totfact>
</mgrwt>
</event>
<event>
 4    1  0.4950349E-004  0.3277122E+03  0.7818608E-02  0.1072154E+00
          2   -1    0    0  501    0  0.00000000000E+00  0.00000000000E+00  0.22872478843E+04  0.22872478843E+04  0.25500000000E-02 0.  1.
         -2   -1    0    0    0  501 -0.00000000000E+00 -0.00000000000E+00 -0.11738484209E+02  0.11738484486E+02  0.25500000000E-02 0. -1.
    5000001    1    1    2    0    0 -0.90476529639E+02 -0.11280588285E+03  0.11583918148E+04  0.11699195555E+04  0.77000000000E+02 0.  0.
   -5000001    1    1    2    0    0  0.90476529639E+02  0.11280588285E+03  0.11171175853E+04  0.11290668133E+04  0.77000000000E+02 0.  0.
<mgrwt>
<rscale>  0 0.32771221E+03</rscale>
<asrwt>0</asrwt>
<pdfrwt beam="1">  1        2 0.32675006E+00 0.32771221E+03</pdfrwt>
<pdfrwt beam="2">  1       -2 0.16769245E-02 0.32771221E+03</pdfrwt>
<totfact> 0.64058691E+03</totfact>
</mgrwt>
</event>
<event>
 4    1  0.4950349E-004  0.1765731E+03  0.7818608E-02  0.1171161E+00
         -2   -1    0    0    0  501 -0.00000000000E+00  0.00000000000E+00  0.12234566330E+02  0.12234566596E+02  0.25500000000E-02 0. -1.
          2   -1    0    0  501    0  0.00000000000E+00 -0.00000000000E+00 -0.63708977371E+03  0.63708977372E+03  0.25500000000E-02 0.  1.
    5000001    1    1    2    0    0  0.24686530036E+02 -0.35171021826E+02 -0.32849548845E+03  0.34012455288E+03  0.77000000000E+02 0.  0.
   -5000001    1    1    2    0    0 -0.24686530036E+02  0.35171021826E+02 -0.29635971894E+03  0.30919978744E+03  0.77000000000E+02 0.  0.
<mgrwt>
<rscale>  0 0.17657313E+03</rscale>
<asrwt>0</asrwt>
<pdfrwt beam="1">  1        2 0.91012804E-01 0.17657313E+03</pdfrwt>
<pdfrwt beam="2">  1       -2 0.17477956E-02 0.17657313E+03</pdfrwt>
<totfact> 0.46238370E+04</totfact>
</mgrwt>
</event>
<event>
 4    1  0.4950349E-004  0.1784876E+03  0.7818608E-02  0.1169275E+00
          2   -1    0    0  501    0  0.00000000000E+00  0.00000000000E+00  0.23556202925E+02  0.23556203063E+02  0.25500000000E-02 0.  1.
         -2   -1    0    0    0  501 -0.00000000000E+00 -0.00000000000E+00 -0.33810450464E+03  0.33810450465E+03  0.25500000000E-02 0. -1.
    5000001    1    1    2    0    0  0.43639737676E+02 -0.48759739307E+00 -0.13410090114E+03  0.16067581070E+03  0.77000000000E+02 0.  0.
   -5000001    1    1    2    0    0 -0.43639737676E+02  0.48759739307E+00 -0.18044740058E+03  0.20098489702E+03  0.77000000000E+02 0.  0.
<mgrwt>
<rscale>  0 0.17848763E+03</rscale>
<asrwt>0</asrwt>
<pdfrwt beam="1">  1        2 0.33651721E-02 0.17848763E+03</pdfrwt>
<pdfrwt beam="2">  1       -2 0.48300640E-01 0.17848763E+03</pdfrwt>
<totfact> 0.10589994E+04</totfact>
</mgrwt>
</event>
<event>
 4    1  0.4950349E-004  0.2152255E+03  0.7818608E-02  0.1137493E+00
          2   -1    0    0  501    0  0.00000000000E+00  0.00000000000E+00  0.12330801543E+04  0.12330801543E+04  0.25500000000E-02 0.  1.
         -2   -1    0    0    0  501 -0.00000000000E+00 -0.00000000000E+00 -0.93915278726E+01  0.93915282188E+01  0.25500000000E-02 0. -1.
    5000001    1    1    2    0    0  0.52434624971E+02 -0.41005672404E+02  0.81353628686E+03  0.81987873804E+03  0.77000000000E+02 0.  0.
   -5000001    1    1    2    0    0 -0.52434624971E+02  0.41005672404E+02  0.41015233953E+03  0.42259294444E+03  0.77000000000E+02 0.  0.
<mgrwt>
<rscale>  0 0.21522553E+03</rscale>
<asrwt>0</asrwt>
<pdfrwt beam="1">  1        2 0.17615434E+00 0.21522553E+03</pdfrwt>
<pdfrwt beam="2">  1       -2 0.13416466E-02 0.21522553E+03</pdfrwt>
<totfact> 0.29378882E+04</totfact>
</mgrwt>
</event>
<event>
 4    1  0.4950349E-004  0.3461129E+03  0.7818608E-02  0.1064222E+00
         -2   -1    0    0    0  501 -0.00000000000E+00  0.00000000000E+00  0.10829850146E+03  0.10829850149E+03  0.25500000000E-02 0. -1.
          2   -1    0    0  501    0  0.00000000000E+00 -0.00000000000E+00 -0.27653691977E+03  0.27653691978E+03  0.25500000000E-02 0.  1.
    5000001    1    1    2    0    0 -0.11845930287E+03  0.28737339037E+02 -0.19054108337E+03  0.23894213849E+03  0.77000000000E+02 0.  0.
   -5000001    1    1    2    0    0  0.11845930287E+03 -0.28737339037E+02  0.22302665067E+02  0.14589328278E+03  0.77000000000E+02 0.  0.
<mgrwt>
<rscale>  0 0.34611289E+03</rscale>
<asrwt>0</asrwt>
<pdfrwt beam="1">  1        2 0.39505274E-01 0.34611289E+03</pdfrwt>
<pdfrwt beam="2">  1       -2 0.15471215E-01 0.34611289E+03</pdfrwt>
<totfact> 0.42249277E+03</totfact>
</mgrwt>
</event>
<event>
 4    1  0.4950349E-004  0.2488606E+03  0.7818608E-02  0.1114027E+00
          2   -1    0    0  501    0  0.00000000000E+00  0.00000000000E+00  0.25178869373E+04  0.25178869373E+04  0.25500000000E-02 0.  1.
         -2   -1    0    0    0  501 -0.00000000000E+00 -0.00000000000E+00 -0.61491628994E+01  0.61491634281E+01  0.25500000000E-02 0. -1.
    5000001    1    1    2    0    0  0.89212929282E+02  0.30203313976E+02  0.99086161313E+03  0.99830202009E+03  0.77000000000E+02 0.  0.
   -5000001    1    1    2    0    0 -0.89212929282E+02 -0.30203313976E+02  0.15208761613E+04  0.15257340806E+04  0.77000000000E+02 0.  0.
<mgrwt>
<rscale>  0 0.24886058E+03</rscale>
<asrwt>0</asrwt>
<pdfrwt beam="1">  1        2 0.35969838E+00 0.24886058E+03</pdfrwt>
<pdfrwt beam="2">  1       -2 0.87845128E-03 0.24886058E+03</pdfrwt>
<totfact> 0.12620835E+04</totfact>
</mgrwt>
</event>
<event>
 4    1  0.4950349E-004  0.1759389E+03  0.7818608E-02  0.1171792E+00
         -2   -1    0    0    0  501 -0.00000000000E+00  0.00000000000E+00  0.29721586576E+03  0.29721586577E+03  0.25500000000E-02 0. -1.
          2   -1    0    0  501    0  0.00000000000E+00 -0.00000000000E+00 -0.26037043906E+02  0.26037044030E+02  0.25500000000E-02 0.  1.
    5000001    1    1    2    0    0 -0.37629627056E+02  0.18933392679E+02  0.12469490904E+03  0.15248699135E+03  0.77000000000E+02 0.  0.
   -5000001    1    1    2    0    0  0.37629627056E+02 -0.18933392679E+02  0.14648391281E+03  0.17076591844E+03  0.77000000000E+02 0.  0.
<mgrwt>
<rscale>  0 0.17593888E+03</rscale>
<asrwt>0</asrwt>
<pdfrwt beam="1">  1        2 0.37195776E-02 0.17593888E+03</pdfrwt>
<pdfrwt beam="2">  1       -2 0.42459410E-01 0.17593888E+03</pdfrwt>
<totfact> 0.11884852E+04</totfact>
</mgrwt>
</event>
<event>
 4    1  0.4950349E-004  0.3841443E+03  0.7818608E-02  0.1049413E+00
         -2   -1    0    0    0  501 -0.00000000000E+00  0.00000000000E+00  0.62572924135E+02  0.62572924187E+02  0.25500000000E-02 0.  1.
          2   -1    0    0  501    0  0.00000000000E+00 -0.00000000000E+00 -0.58957938058E+03  0.58957938058E+03  0.25500000000E-02 0. -1.
    5000001    1    1    2    0    0 -0.12740128710E+03  0.26486635796E+02 -0.62415910341E+02  0.16357681894E+03  0.77000000000E+02 0.  0.
   -5000001    1    1    2    0    0  0.12740128710E+03 -0.26486635796E+02 -0.46459054610E+03  0.48857548583E+03  0.77000000000E+02 0.  0.
<mgrwt>
<rscale>  0 0.38414427E+03</rscale>
<asrwt>0</asrwt>
<pdfrwt beam="1">  1        2 0.84225622E-01 0.38414427E+03</pdfrwt>
<pdfrwt beam="2">  1       -2 0.89389895E-02 0.38414427E+03</pdfrwt>
<totfact> 0.44824592E+03</totfact>
</mgrwt>
</event>
<event>
 4    1  0.4950349E-004  0.2497387E+03  0.7818608E-02  0.1113470E+00
          2   -1    0    0  501    0  0.00000000000E+00  0.00000000000E+00  0.12019229036E+04  0.12019229036E+04  0.25500000000E-02 0.  1.
         -2   -1    0    0    0  501 -0.00000000000E+00 -0.00000000000E+00 -0.12972844765E+02  0.12972845016E+02  0.25500000000E-02 0. -1.
    5000001    1    1    2    0    0 -0.23598428488E+02  0.77060982766E+02  0.32066391926E+03  0.33948435900E+03  0.77000000000E+02 0.  0.
   -5000001    1    1    2    0    0  0.23598428488E+02 -0.77060982766E+02  0.86828613958E+03  0.87541138962E+03  0.77000000000E+02 0.  0.
<mgrwt>
<rscale>  0 0.24973874E+03</rscale>
<asrwt>0</asrwt>
<pdfrwt beam="1">  1        2 0.17170321E+00 0.24973874E+03</pdfrwt>
<pdfrwt beam="2">  1       -2 0.18532642E-02 0.24973874E+03</pdfrwt>
<totfact> 0.19209456E+04</totfact>
</mgrwt>
</event>
<event>
 4    1  0.4950349E-004  0.3107056E+03  0.7818608E-02  0.1080008E+00
         -2   -1    0    0    0  501 -0.00000000000E+00  0.00000000000E+00  0.13550895310E+02  0.13550895550E+02  0.25500000000E-02 0. -1.
          2   -1    0    0  501    0  0.00000000000E+00 -0.00000000000E+00 -0.17810260361E+04  0.17810260361E+04  0.25500000000E-02 0.  1.
    5000001    1    1    2    0    0  0.88529727592E+02 -0.99053828526E+02 -0.10199688506E+04  0.10314623744E+04  0.77000000000E+02 0.  0.
   -5000001    1    1    2    0    0 -0.88529727592E+02  0.99053828526E+02 -0.74750629020E+03  0.76311455726E+03  0.77000000000E+02 0.  0.
<mgrwt>
<rscale>  0 0.31070563E+03</rscale>
<asrwt>0</asrwt>
<pdfrwt beam="1">  1        2 0.25443214E+00 0.31070563E+03</pdfrwt>
<pdfrwt beam="2">  1       -2 0.19358433E-02 0.31070563E+03</pdfrwt>
<totfact> 0.91895170E+03</totfact>
</mgrwt>
</event>
<event>
 4    1  0.4950349E-004  0.2788956E+03  0.7818608E-02  0.1096294E+00
          2   -1    0    0  501    0  0.00000000000E+00  0.00000000000E+00  0.10995446254E+04  0.10995446254E+04  0.25500000000E-02 0.  1.
         -2   -1    0    0    0  501 -0.00000000000E+00 -0.00000000000E+00 -0.17685214517E+02  0.17685214701E+02  0.25500000000E-02 0. -1.
    5000001    1    1    2    0    0 -0.33776165140E+02  0.11071512420E+03  0.58444769616E+03  0.60075517277E+03  0.77000000000E+02 0.  0.
   -5000001    1    1    2    0    0  0.33776165140E+02 -0.11071512420E+03  0.49741171474E+03  0.51647466735E+03  0.77000000000E+02 0.  0.
<mgrwt>
<rscale>  0 0.27889556E+03</rscale>
<asrwt>0</asrwt>
<pdfrwt beam="1">  1        2 0.15707784E+00 0.27889556E+03</pdfrwt>
<pdfrwt beam="2">  1       -2 0.25264587E-02 0.27889556E+03</pdfrwt>
<totfact> 0.13921401E+04</totfact>
</mgrwt>
</event>
<event>
 4    1  0.4950349E-004  0.3351859E+03  0.7818608E-02  0.1068865E+00
         -2   -1    0    0    0  501 -0.00000000000E+00  0.00000000000E+00  0.20572093050E+02  0.20572093208E+02  0.25500000000E-02 0. -1.
          2   -1    0    0  501    0  0.00000000000E+00 -0.00000000000E+00 -0.13653156368E+04  0.13653156368E+04  0.25500000000E-02 0.  1.
    5000001    1    1    2    0    0  0.34916585697E+02  0.11570361669E+03 -0.31306073604E+03  0.34430004258E+03  0.77000000000E+02 0.  0.
   -5000001    1    1    2    0    0 -0.34916585697E+02 -0.11570361669E+03 -0.10316828077E+04  0.10415876874E+04  0.77000000000E+02 0.  0.
<mgrwt>
<rscale>  0 0.33518592E+03</rscale>
<asrwt>0</asrwt>
<pdfrwt beam="1">  1        2 0.19504503E+00 0.33518592E+03</pdfrwt>
<pdfrwt beam="2">  1       -2 0.29388713E-02 0.33518592E+03</pdfrwt>
<totfact> 0.80225952E+03</totfact>
</mgrwt>
</event>
<event>
 4    1  0.4950349E-004  0.2444897E+03  0.7818608E-02  0.1116838E+00
          2   -1    0    0  501    0  0.00000000000E+00  0.00000000000E+00  0.94405424862E+03  0.94405424862E+03  0.25500000000E-02 0.  1.
         -2   -1    0    0    0  501 -0.00000000000E+00 -0.00000000000E+00 -0.15829393131E+02  0.15829393337E+02  0.25500000000E-02 0. -1.
    5000001    1    1    2    0    0 -0.90431573936E+01  0.66690890158E+02  0.20117266243E+03  0.22567430877E+03  0.77000000000E+02 0.  0.
   -5000001    1    1    2    0    0  0.90431573936E+01 -0.66690890158E+02  0.72705219305E+03  0.73420933319E+03  0.77000000000E+02 0.  0.
<mgrwt>
<rscale>  0 0.24448972E+03</rscale>
<asrwt>0</asrwt>
<pdfrwt beam="1">  1        2 0.13486492E+00 0.24448972E+03</pdfrwt>
<pdfrwt beam="2">  1       -2 0.22613415E-02 0.24448972E+03</pdfrwt>
<totfact> 0.20092978E+04</totfact>
</mgrwt>
</event>
<event>
 4    1  0.4950349E-004  0.3010972E+03  0.7818608E-02  0.1084693E+00
         -2   -1    0    0    0  501 -0.00000000000E+00  0.00000000000E+00  0.64548492491E+02  0.64548492541E+02  0.25500000000E-02 0. -1.
          2   -1    0    0  501    0  0.00000000000E+00 -0.00000000000E+00 -0.35112960236E+03  0.35112960237E+03  0.25500000000E-02 0.  1.
    5000001    1    1    2    0    0 -0.47667138245E+02 -0.11324966833E+03 -0.19916838573E+03  0.24636292197E+03  0.77000000000E+02 0.  0.
   -5000001    1    1    2    0    0  0.47667138245E+02  0.11324966833E+03 -0.87412724134E+02  0.16931517294E+03  0.77000000000E+02 0.  0.
<mgrwt>
<rscale>  0 0.30109724E+03</rscale>
<asrwt>0</asrwt>
<pdfrwt beam="1">  1        2 0.50161371E-01 0.30109724E+03</pdfrwt>
<pdfrwt beam="2">  1       -2 0.92212134E-02 0.30109724E+03</pdfrwt>
<totfact> 0.75214277E+03</totfact>
</mgrwt>
</event>
<event>
 4    1  0.4950349E-004  0.2617739E+03  0.7818608E-02  0.1106082E+00
         -2   -1    0    0    0  501 -0.00000000000E+00  0.00000000000E+00  0.24072092580E+03  0.24072092581E+03  0.25500000000E-02 0. -1.
          2   -1    0    0  501    0  0.00000000000E+00 -0.00000000000E+00 -0.71167037954E+02  0.71167038000E+02  0.25500000000E-02 0.  1.
    5000001    1    1    2    0    0 -0.84918749552E+02 -0.58327277757E+02  0.11369557894E+03  0.17166522661E+03  0.77000000000E+02 0.  0.
   -5000001    1    1    2    0    0  0.84918749552E+02  0.58327277757E+02  0.55858308910E+02  0.14022273721E+03  0.77000000000E+02 0.  0.
<mgrwt>
<rscale>  0 0.26177391E+03</rscale>
<asrwt>0</asrwt>
<pdfrwt beam="1">  1        2 0.10166720E-01 0.26177391E+03</pdfrwt>
<pdfrwt beam="2">  1       -2 0.34388704E-01 0.26177391E+03</pdfrwt>
<totfact> 0.49398872E+03</totfact>
</mgrwt>
</event>
<event>
 4    1  0.4950349E-004  0.2554754E+03  0.7818608E-02  0.1109893E+00
          2   -1    0    0  501    0  0.00000000000E+00  0.00000000000E+00  0.15870903529E+04  0.15870903529E+04  0.25500000000E-02 0.  1.
         -2   -1    0    0    0  501 -0.00000000000E+00 -0.00000000000E+00 -0.10281028562E+02  0.10281028879E+02  0.25500000000E-02 0. -1.
    5000001    1    1    2    0    0  0.66242156322E+01  0.10140404800E+03  0.73946663934E+03  0.75037761952E+03  0.77000000000E+02 0.  0.
   -5000001    1    1    2    0    0 -0.66242156322E+01 -0.10140404800E+03  0.83734268499E+03  0.84699376225E+03  0.77000000000E+02 0.  0.
<mgrwt>
<rscale>  0 0.25547541E+03</rscale>
<asrwt>0</asrwt>
<pdfrwt beam="1">  1        2 0.22672743E+00 0.25547541E+03</pdfrwt>
<pdfrwt beam="2">  1       -2 0.14687168E-02 0.25547541E+03</pdfrwt>
<totfact> 0.17104809E+04</totfact>
</mgrwt>
</event>
<event>
 4    1  0.4950349E-004  0.2868859E+03  0.7818608E-02  0.1091986E+00
          2   -1    0    0  501    0  0.00000000000E+00  0.00000000000E+00  0.27518891368E+04  0.27518891368E+04  0.25500000000E-02 0.  1.
         -2   -1    0    0    0  501 -0.00000000000E+00 -0.00000000000E+00 -0.74770006898E+01  0.74770011246E+01  0.25500000000E-02 0. -1.
    5000001    1    1    2    0    0 -0.19536850643E+02 -0.83951309806E+02  0.21893330186E+04  0.21923817134E+04  0.77000000000E+02 0.  0.
   -5000001    1    1    2    0    0  0.19536850643E+02  0.83951309806E+02  0.55507911755E+03  0.56698442456E+03  0.77000000000E+02 0.  0.
<mgrwt>
<rscale>  0 0.28688588E+03</rscale>
<asrwt>0</asrwt>
<pdfrwt beam="1">  1        2 0.39312685E+00 0.28688588E+03</pdfrwt>
<pdfrwt beam="2">  1       -2 0.10681435E-02 0.28688588E+03</pdfrwt>
<totfact> 0.72434367E+03</totfact>
</mgrwt>
</event>
<event>
 4    1  0.4950349E-004  0.2468337E+03  0.7818608E-02  0.1115322E+00
         -2   -1    0    0    0  501 -0.00000000000E+00  0.00000000000E+00  0.44301771125E+01  0.44301778464E+01  0.25500000000E-02 0. -1.
          2   -1    0    0  501    0  0.00000000000E+00 -0.00000000000E+00 -0.34381748080E+04  0.34381748080E+04  0.25500000000E-02 0.  1.
    5000001    1    1    2    0    0 -0.69899454179E+02  0.56540582629E+02 -0.12297317629E+04  0.12354157114E+04  0.77000000000E+02 0.  0.
   -5000001    1    1    2    0    0  0.69899454179E+02 -0.56540582629E+02 -0.22040128680E+04  0.22071892745E+04  0.77000000000E+02 0.  0.
<mgrwt>
<rscale>  0 0.24683375E+03</rscale>
<asrwt>0</asrwt>
<pdfrwt beam="1">  1        2 0.49116612E+00 0.24683375E+03</pdfrwt>
<pdfrwt beam="2">  1       -2 0.63288470E-03 0.24683375E+03</pdfrwt>
<totfact> 0.66010483E+03</totfact>
</mgrwt>
</event>
<event>
 4    1  0.4950349E-004  0.3083978E+03  0.7818608E-02  0.1081116E+00
          2   -1    0    0  501    0  0.00000000000E+00  0.00000000000E+00  0.47780995058E+02  0.47780995126E+02  0.25500000000E-02 0.  1.
         -2   -1    0    0    0  501 -0.00000000000E+00 -0.00000000000E+00 -0.49763096253E+03  0.49763096254E+03  0.25500000000E-02 0. -1.
    5000001    1    1    2    0    0  0.43703685333E+02 -0.12616142663E+03 -0.23314151295E+03  0.27948288453E+03  0.77000000000E+02 0.  0.
   -5000001    1    1    2    0    0 -0.43703685333E+02  0.12616142663E+03 -0.21670845452E+03  0.26592907314E+03  0.77000000000E+02 0.  0.
<mgrwt>
<rscale>  0 0.30839781E+03</rscale>
<asrwt>0</asrwt>
<pdfrwt beam="1">  1        2 0.68258567E-02 0.30839781E+03</pdfrwt>
<pdfrwt beam="2">  1       -2 0.71090135E-01 0.30839781E+03</pdfrwt>
<totfact> 0.19303022E+03</totfact>
</mgrwt>
</event>
<event>
 4    1  0.4950349E-004  0.2773271E+03  0.7818608E-02  0.1097158E+00
         -2   -1    0    0    0  501 -0.00000000000E+00  0.00000000000E+00  0.10743045582E+02  0.10743045885E+02  0.25500000000E-02 0. -1.
          2   -1    0    0  501    0  0.00000000000E+00 -0.00000000000E+00 -0.17897699665E+04  0.17897699665E+04  0.25500000000E-02 0.  1.
    5000001    1    1    2    0    0 -0.28530249932E+02 -0.28077627541E+02 -0.15916592758E+04  0.15940233934E+04  0.77000000000E+02 0.  0.
   -5000001    1    1    2    0    0  0.28530249932E+02  0.28077627541E+02 -0.18736764511E+03  0.20648961902E+03  0.77000000000E+02 0.  0.
<mgrwt>
<rscale>  0 0.27732710E+03</rscale>
<asrwt>0</asrwt>
<pdfrwt beam="1">  1        2 0.25568123E+00 0.27732710E+03</pdfrwt>
<pdfrwt beam="2">  1       -2 0.15347220E-02 0.27732710E+03</pdfrwt>
<totfact> 0.12771771E+04</totfact>
</mgrwt>
</event>
<event>
 4    1  0.4950349E-004  0.3279498E+03  0.7818608E-02  0.1072048E+00
         -2   -1    0    0    0  501 -0.00000000000E+00  0.00000000000E+00  0.11840310645E+02  0.11840310920E+02  0.25500000000E-02 0. -1.
          2   -1    0    0  501    0  0.00000000000E+00 -0.00000000000E+00 -0.22708669535E+04  0.22708669535E+04  0.25500000000E-02 0.  1.
    5000001    1    1    2    0    0  0.61455804043E+02 -0.12925489361E+03 -0.12812350328E+04  0.12915013947E+04  0.77000000000E+02 0.  0.
   -5000001    1    1    2    0    0 -0.61455804043E+02  0.12925489361E+03 -0.97779161004E+03  0.99120586965E+03  0.77000000000E+02 0.  0.
<mgrwt>
<rscale>  0 0.32794982E+03</rscale>
<asrwt>0</asrwt>
<pdfrwt beam="1">  1        2 0.32440929E+00 0.32794982E+03</pdfrwt>
<pdfrwt beam="2">  1       -2 0.16914744E-02 0.32794982E+03</pdfrwt>
<totfact> 0.64439611E+03</totfact>
</mgrwt>
</event>
<event>
 4    1  0.4950349E-004  0.1552606E+03  0.7818608E-02  0.1194154E+00
          2   -1    0    0  501    0  0.00000000000E+00  0.00000000000E+00  0.16926749078E+04  0.16926749078E+04  0.25500000000E-02 0.  1.
         -2   -1    0    0    0  501 -0.00000000000E+00 -0.00000000000E+00 -0.35603169737E+01  0.35603178869E+01  0.25500000000E-02 0. -1.
    5000001    1    1    2    0    0 -0.84250539117E+01 -0.49827078037E+01  0.83051921264E+03  0.83413846062E+03  0.77000000000E+02 0.  0.
   -5000001    1    1    2    0    0  0.84250539117E+01  0.49827078037E+01  0.85859537816E+03  0.86209676505E+03  0.77000000000E+02 0.  0.
<mgrwt>
<rscale>  0 0.15526055E+03</rscale>
<asrwt>0</asrwt>
<pdfrwt beam="1">  1        2 0.24181091E+00 0.15526055E+03</pdfrwt>
<pdfrwt beam="2">  1       -2 0.50861633E-03 0.15526055E+03</pdfrwt>
<totfact> 0.67807574E+04</totfact>
</mgrwt>
</event>
<event>
 4    1  0.4950349E-004  0.4434047E+03  0.7818608E-02  0.1029707E+00
          2   -1    0    0  501    0  0.00000000000E+00  0.00000000000E+00  0.86002392589E+03  0.86002392589E+03  0.25500000000E-02 0.  1.
         -2   -1    0    0    0  501 -0.00000000000E+00 -0.00000000000E+00 -0.57151825159E+02  0.57151825216E+02  0.25500000000E-02 0. -1.
    5000001    1    1    2    0    0 -0.15005561791E+03  0.44451893119E+02  0.11834616094E+03  0.21077825571E+03  0.77000000000E+02 0.  0.
   -5000001    1    1    2    0    0  0.15005561791E+03 -0.44451893119E+02  0.68452593979E+03  0.70639749540E+03  0.77000000000E+02 0.  0.
<mgrwt>
<rscale>  0 0.44340472E+03</rscale>
<asrwt>0</asrwt>
<pdfrwt beam="1">  1        2 0.12286056E+00 0.44340472E+03</pdfrwt>
<pdfrwt beam="2">  1       -2 0.81645463E-02 0.44340472E+03</pdfrwt>
<totfact> 0.32757097E+03</totfact>
</mgrwt>
</event>
<event>
 4    1  0.4950349E-004  0.2835257E+03  0.7818608E-02  0.1093779E+00
         -2   -1    0    0    0  501 -0.00000000000E+00  0.00000000000E+00  0.27166931123E+02  0.27166931243E+02  0.25500000000E-02 0. -1.
          2   -1    0    0  501    0  0.00000000000E+00 -0.00000000000E+00 -0.73974859204E+03  0.73974859204E+03  0.25500000000E-02 0.  1.
    5000001    1    1    2    0    0  0.37866926809E+02  0.10855731444E+03 -0.27295876078E+03  0.30602954065E+03  0.77000000000E+02 0.  0.
   -5000001    1    1    2    0    0 -0.37866926809E+02 -0.10855731444E+03 -0.43962290014E+03  0.46088598264E+03  0.77000000000E+02 0.  0.
<mgrwt>
<rscale>  0 0.28352565E+03</rscale>
<asrwt>0</asrwt>
<pdfrwt beam="1">  1        2 0.10567836E+00 0.28352565E+03</pdfrwt>
<pdfrwt beam="2">  1       -2 0.38809906E-02 0.28352565E+03</pdfrwt>
<totfact> 0.12315546E+04</totfact>
</mgrwt>
</event>
<event>
 4    1  0.4950349E-004  0.2446893E+03  0.7818608E-02  0.1116708E+00
         -2   -1    0    0    0  501 -0.00000000000E+00  0.00000000000E+00  0.36835227696E+02  0.36835227785E+02  0.25500000000E-02 0. -1.
          2   -1    0    0  501    0  0.00000000000E+00 -0.00000000000E+00 -0.40635602895E+03  0.40635602896E+03  0.25500000000E-02 0.  1.
    5000001    1    1    2    0    0 -0.43690587502E+02 -0.69300520252E+02 -0.27214759675E+03  0.29445669284E+03  0.77000000000E+02 0.  0.
   -5000001    1    1    2    0    0  0.43690587502E+02  0.69300520252E+02 -0.97373204508E+02  0.14873456390E+03  0.77000000000E+02 0.  0.
<mgrwt>
<rscale>  0 0.24468933E+03</rscale>
<asrwt>0</asrwt>
<pdfrwt beam="1">  1        2 0.58050859E-01 0.24468933E+03</pdfrwt>
<pdfrwt beam="2">  1       -2 0.52621756E-02 0.24468933E+03</pdfrwt>
<totfact> 0.15176252E+04</totfact>
</mgrwt>
</event>
<event>
 4    1  0.4950349E-004  0.2471307E+03  0.7818608E-02  0.1115132E+00
         -2   -1    0    0    0  501 -0.00000000000E+00  0.00000000000E+00  0.17949436188E+02  0.17949436369E+02  0.25500000000E-02 0. -1.
          2   -1    0    0  501    0  0.00000000000E+00 -0.00000000000E+00 -0.85063372079E+03  0.85063372079E+03  0.25500000000E-02 0.  1.
    5000001    1    1    2    0    0 -0.56758139462E+01 -0.67818928664E+02 -0.65749504757E+03  0.66547754247E+03  0.77000000000E+02 0.  0.
   -5000001    1    1    2    0    0  0.56758139462E+01  0.67818928664E+02 -0.17518923703E+03  0.20310561469E+03  0.77000000000E+02 0.  0.
<mgrwt>
<rscale>  0 0.24713070E+03</rscale>
<asrwt>0</asrwt>
<pdfrwt beam="1">  1        2 0.12151908E+00 0.24713070E+03</pdfrwt>
<pdfrwt beam="2">  1       -2 0.25642057E-02 0.24713070E+03</pdfrwt>
<totfact> 0.19103758E+04</totfact>
</mgrwt>
</event>
<event>
 4    1  0.4950349E-004  0.1703310E+03  0.7818608E-02  0.1177503E+00
          2   -1    0    0  501    0  0.00000000000E+00  0.00000000000E+00  0.76706514502E+02  0.76706514545E+02  0.25500000000E-02 0.  1.
         -2   -1    0    0    0  501 -0.00000000000E+00 -0.00000000000E+00 -0.94557302031E+02  0.94557302065E+02  0.25500000000E-02 0. -1.
    5000001    1    1    2    0    0 -0.39118422610E+00 -0.35669899890E+02 -0.16981022870E+01  0.84878609406E+02  0.77000000000E+02 0.  0.
   -5000001    1    1    2    0    0  0.39118422610E+00  0.35669899890E+02 -0.16152685242E+02  0.86385207204E+02  0.77000000000E+02 0.  0.
<mgrwt>
<rscale>  0 0.17033098E+03</rscale>
<asrwt>0</asrwt>
<pdfrwt beam="1">  1        2 0.10958074E-01 0.17033098E+03</pdfrwt>
<pdfrwt beam="2">  1       -2 0.13508186E-01 0.17033098E+03</pdfrwt>
<totfact> 0.22001234E+04</totfact>
</mgrwt>
</event>
<event>
 4    1  0.4950349E-004  0.2001447E+03  0.7818608E-02  0.1149617E+00
         -2   -1    0    0    0  501 -0.00000000000E+00  0.00000000000E+00  0.20521180350E+02  0.20521180508E+02  0.25500000000E-02 0. -1.
          2   -1    0    0  501    0  0.00000000000E+00 -0.00000000000E+00 -0.48800693821E+03  0.48800693822E+03  0.25500000000E-02 0.  1.
    5000001    1    1    2    0    0  0.31517484166E+02 -0.54778308301E+02 -0.20944351699E+03  0.23192585384E+03  0.77000000000E+02 0.  0.
   -5000001    1    1    2    0    0 -0.31517484166E+02  0.54778308301E+02 -0.25804224087E+03  0.27660226489E+03  0.77000000000E+02 0.  0.
<mgrwt>
<rscale>  0 0.20014473E+03</rscale>
<asrwt>0</asrwt>
<pdfrwt beam="1">  1        2 0.69715270E-01 0.20014473E+03</pdfrwt>
<pdfrwt beam="2">  1       -2 0.29315975E-02 0.20014473E+03</pdfrwt>
<totfact> 0.29488382E+04</totfact>
</mgrwt>
</event>
<event>
 4    1  0.4950349E-004  0.5199434E+03  0.7818608E-02  0.1008701E+00
          2   -1    0    0  501    0  0.00000000000E+00  0.00000000000E+00  0.16960556378E+04  0.16960556378E+04  0.25500000000E-02 0.  1.
         -2   -1    0    0    0  501 -0.00000000000E+00 -0.00000000000E+00 -0.39848505225E+02  0.39848505306E+02  0.25500000000E-02 0. -1.
    5000001    1    1    2    0    0 -0.18455188760E+03 -0.12851616815E+03  0.47666540869E+03  0.53264877408E+03  0.77000000000E+02 0.  0.
   -5000001    1    1    2    0    0  0.18455188760E+03  0.12851616815E+03  0.11795417239E+04  0.12032553690E+04  0.77000000000E+02 0.  0.
<mgrwt>
<rscale>  0 0.51994339E+03</rscale>
<asrwt>0</asrwt>
<pdfrwt beam="1">  1        2 0.24229371E+00 0.51994339E+03</pdfrwt>
<pdfrwt beam="2">  1       -2 0.56926426E-02 0.51994339E+03</pdfrwt>
<totfact> 0.19819871E+03</totfact>
</mgrwt>
</event>
<event>
 4    1  0.4950349E-004  0.2396921E+03  0.7818608E-02  0.1119998E+00
          2   -1    0    0  501    0  0.00000000000E+00  0.00000000000E+00  0.30611448506E+04  0.30611448506E+04  0.25500000000E-02 0.  1.
         -2   -1    0    0    0  501 -0.00000000000E+00 -0.00000000000E+00 -0.46920586268E+01  0.46920593197E+01  0.25500000000E-02 0. -1.
    5000001    1    1    2    0    0 -0.87135888365E+02  0.45764178918E+01  0.11618516332E+04  0.11676651164E+04  0.77000000000E+02 0.  0.
   -5000001    1    1    2    0    0  0.87135888365E+02 -0.45764178918E+01  0.18946011588E+04  0.18981717934E+04  0.77000000000E+02 0.  0.
<mgrwt>
<rscale>  0 0.23969207E+03</rscale>
<asrwt>0</asrwt>
<pdfrwt beam="1">  1        2 0.43730576E+00 0.23969207E+03</pdfrwt>
<pdfrwt beam="2">  1       -2 0.67029513E-03 0.23969207E+03</pdfrwt>
<totfact> 0.98027289E+03</totfact>
</mgrwt>
</event>
<event>
 4    1  0.4950349E-004  0.2192766E+03  0.7818608E-02  0.1134424E+00
          2   -1    0    0  501    0  0.00000000000E+00  0.00000000000E+00  0.32746296266E+03  0.32746296267E+03  0.25500000000E-02 0.  1.
         -2   -1    0    0    0  501 -0.00000000000E+00 -0.00000000000E+00 -0.36708138554E+02  0.36708138642E+02  0.25500000000E-02 0. -1.
    5000001    1    1    2    0    0  0.24421498719E+02  0.52716057123E+02  0.58822610101E+02  0.11298005017E+03  0.77000000000E+02 0.  0.
   -5000001    1    1    2    0    0 -0.24421498719E+02 -0.52716057123E+02  0.23193221400E+03  0.25119105114E+03  0.77000000000E+02 0.  0.
<mgrwt>
<rscale>  0 0.21927659E+03</rscale>
<asrwt>0</asrwt>
<pdfrwt beam="1">  1        2 0.46780425E-01 0.21927659E+03</pdfrwt>
<pdfrwt beam="2">  1       -2 0.52440196E-02 0.21927659E+03</pdfrwt>
<totfact> 0.19109614E+04</totfact>
</mgrwt>
</event>
<event>
 4    1  0.4950349E-004  0.2593320E+03  0.7818608E-02  0.1107545E+00
         -2   -1    0    0    0  501 -0.00000000000E+00  0.00000000000E+00  0.62370624844E+01  0.62370630057E+01  0.25500000000E-02 0. -1.
          2   -1    0    0  501    0  0.00000000000E+00 -0.00000000000E+00 -0.26957027953E+04  0.26957027953E+04  0.25500000000E-02 0.  1.
    5000001    1    1    2    0    0 -0.18064125457E+02  0.96192962821E+02 -0.96837323267E+03  0.97634784605E+03  0.77000000000E+02 0.  0.
   -5000001    1    1    2    0    0  0.18064125457E+02 -0.96192962821E+02 -0.17210925001E+04  0.17255920122E+04  0.77000000000E+02 0.  0.
<mgrwt>
<rscale>  0 0.25933197E+03</rscale>
<asrwt>0</asrwt>
<pdfrwt beam="1">  1        2 0.38509965E+00 0.25933197E+03</pdfrwt>
<pdfrwt beam="2">  1       -2 0.89101069E-03 0.25933197E+03</pdfrwt>
<totfact> 0.10067696E+04</totfact>
</mgrwt>
</event>
<event>
 4    1  0.4950349E-004  0.2830149E+03  0.7818608E-02  0.1094054E+00
         -2   -1    0    0    0  501 -0.00000000000E+00  0.00000000000E+00  0.23769445761E+03  0.23769445762E+03  0.25500000000E-02 0. -1.
          2   -1    0    0  501    0  0.00000000000E+00 -0.00000000000E+00 -0.84244138282E+02  0.84244138321E+02  0.25500000000E-02 0.  1.
    5000001    1    1    2    0    0 -0.88351865752E+02 -0.33689580084E+02  0.15839271701E+03  0.19989570478E+03  0.77000000000E+02 0.  0.
   -5000001    1    1    2    0    0  0.88351865752E+02  0.33689580084E+02 -0.49423976850E+01  0.12204289116E+03  0.77000000000E+02 0.  0.
<mgrwt>
<rscale>  0 0.28301494E+03</rscale>
<asrwt>0</asrwt>
<pdfrwt beam="1">  1        2 0.12034877E-01 0.28301494E+03</pdfrwt>
<pdfrwt beam="2">  1       -2 0.33956351E-01 0.28301494E+03</pdfrwt>
<totfact> 0.41225283E+03</totfact>
</mgrwt>
</event>
<event>
 4    1  0.4950349E-004  0.2092505E+03  0.7818608E-02  0.1142161E+00
         -2   -1    0    0    0  501 -0.00000000000E+00  0.00000000000E+00  0.73690491065E+03  0.73690491066E+03  0.25500000000E-02 0. -1.
          2   -1    0    0  501    0  0.00000000000E+00 -0.00000000000E+00 -0.14854621108E+02  0.14854621327E+02  0.25500000000E-02 0.  1.
    5000001    1    1    2    0    0  0.25829126133E+02 -0.11568263069E+02  0.59431034562E+03  0.59994562702E+03  0.77000000000E+02 0.  0.
   -5000001    1    1    2    0    0 -0.25829126133E+02  0.11568263069E+02  0.12773994393E+03  0.15181390497E+03  0.77000000000E+02 0.  0.
<mgrwt>
<rscale>  0 0.20925050E+03</rscale>
<asrwt>0</asrwt>
<pdfrwt beam="1">  1        2 0.21220886E-02 0.20925050E+03</pdfrwt>
<pdfrwt beam="2">  1       -2 0.10527214E+00 0.20925050E+03</pdfrwt>
<totfact> 0.37660723E+03</totfact>
</mgrwt>
</event>
<event>
 4    1  0.4950349E-004  0.4305295E+03  0.7818608E-02  0.1033693E+00
         -2   -1    0    0    0  501 -0.00000000000E+00  0.00000000000E+00  0.73873040046E+03  0.73873040046E+03  0.25500000000E-02 0. -1.
          2   -1    0    0  501    0  0.00000000000E+00 -0.00000000000E+00 -0.62727758190E+02  0.62727758242E+02  0.25500000000E-02 0.  1.
    5000001    1    1    2    0    0 -0.86419727022E+02 -0.13537795159E+03  0.11295721842E+03  0.21091204847E+03  0.77000000000E+02 0.  0.
   -5000001    1    1    2    0    0  0.86419727022E+02  0.13537795159E+03  0.56304542385E+03  0.59054611023E+03  0.77000000000E+02 0.  0.
<mgrwt>
<rscale>  0 0.43052945E+03</rscale>
<asrwt>0</asrwt>
<pdfrwt beam="1">  1        2 0.89611086E-02 0.43052945E+03</pdfrwt>
<pdfrwt beam="2">  1       -2 0.10553291E+00 0.43052945E+03</pdfrwt>
<totfact> 0.55967414E+02</totfact>
</mgrwt>
</event>
<event>
 4    1  0.4950349E-004  0.5007834E+03  0.7818608E-02  0.1013575E+00
         -2   -1    0    0    0  501 -0.00000000000E+00  0.00000000000E+00  0.65508306837E+02  0.65508306887E+02  0.25500000000E-02 0. -1.
          2   -1    0    0  501    0  0.00000000000E+00 -0.00000000000E+00 -0.95706963397E+03  0.95706963398E+03  0.25500000000E-02 0.  1.
    5000001    1    1    2    0    0  0.11163403530E+03 -0.18467788650E+03 -0.23956397466E+03  0.33149355583E+03  0.77000000000E+02 0.  0.
   -5000001    1    1    2    0    0 -0.11163403530E+03  0.18467788650E+03 -0.65199735247E+03  0.69108438503E+03  0.77000000000E+02 0.  0.
<mgrwt>
<rscale>  0 0.50078343E+03</rscale>
<asrwt>0</asrwt>
<pdfrwt beam="1">  1        2 0.13672422E+00 0.50078343E+03</pdfrwt>
<pdfrwt beam="2">  1       -2 0.93583301E-02 0.50078343E+03</pdfrwt>
<totfact> 0.22867002E+03</totfact>
</mgrwt>
</event>
<event>
 4    1  0.4950349E-004  0.3750340E+03  0.7818608E-02  0.1052785E+00
          2   -1    0    0  501    0  0.00000000000E+00  0.00000000000E+00  0.22185771488E+03  0.22185771489E+03  0.25500000000E-02 0.  1.
         -2   -1    0    0    0  501 -0.00000000000E+00 -0.00000000000E+00 -0.15849178341E+03  0.15849178343E+03  0.25500000000E-02 0. -1.
    5000001    1    1    2    0    0 -0.79787559023E+02  0.76447782308E+02 -0.10063967903E+03  0.16812989915E+03  0.77000000000E+02 0.  0.
   -5000001    1    1    2    0    0  0.79787559023E+02 -0.76447782308E+02  0.16400561050E+03  0.21221959917E+03  0.77000000000E+02 0.  0.
<mgrwt>
<rscale>  0 0.37503400E+03</rscale>
<asrwt>0</asrwt>
<pdfrwt beam="1">  1        2 0.31693959E-01 0.37503400E+03</pdfrwt>
<pdfrwt beam="2">  1       -2 0.22641684E-01 0.37503400E+03</pdfrwt>
<totfact> 0.28116341E+03</totfact>
</mgrwt>
</event>
<event>
 4    1  0.4950349E-004  0.4158743E+03  0.7818608E-02  0.1038418E+00
         -2   -1    0    0    0  501 -0.00000000000E+00  0.00000000000E+00  0.29037402278E+02  0.29037402390E+02  0.25500000000E-02 0. -1.
          2   -1    0    0  501    0  0.00000000000E+00 -0.00000000000E+00 -0.14890399535E+04  0.14890399535E+04  0.25500000000E-02 0.  1.
    5000001    1    1    2    0    0  0.10200104062E+03 -0.14724765574E+03 -0.46619676941E+03  0.50532614441E+03  0.77000000000E+02 0.  0.
   -5000001    1    1    2    0    0 -0.10200104062E+03  0.14724765574E+03 -0.99380578184E+03  0.10127512115E+04  0.77000000000E+02 0.  0.
<mgrwt>
<rscale>  0 0.41587427E+03</rscale>
<asrwt>0</asrwt>
<pdfrwt beam="1">  1        2 0.21271994E+00 0.41587427E+03</pdfrwt>
<pdfrwt beam="2">  1       -2 0.41482013E-02 0.41587427E+03</pdfrwt>
<totfact> 0.41216236E+03</totfact>
</mgrwt>
</event>
<event>
 4    1  0.4950349E-004  0.2287789E+03  0.7818608E-02  0.1127502E+00
         -2   -1    0    0    0  501 -0.00000000000E+00  0.00000000000E+00  0.37345364232E+01  0.37345372937E+01  0.25500000000E-02 0. -1.
          2   -1    0    0  501    0  0.00000000000E+00 -0.00000000000E+00 -0.35037664063E+04  0.35037664063E+04  0.25500000000E-02 0.  1.
    5000001    1    1    2    0    0  0.58457639160E+02 -0.11822824634E+02 -0.83027623033E+03  0.83596931367E+03  0.77000000000E+02 0.  0.
   -5000001    1    1    2    0    0 -0.58457639160E+02  0.11822824634E+02 -0.26697556396E+04  0.26715316299E+04  0.77000000000E+02 0.  0.
<mgrwt>
<rscale>  0 0.22877889E+03</rscale>
<asrwt>0</asrwt>
<pdfrwt beam="1">  1        2 0.50053595E+00 0.22877889E+03</pdfrwt>
<pdfrwt beam="2">  1       -2 0.53350751E-03 0.22877889E+03</pdfrwt>
<totfact> 0.77426113E+03</totfact>
</mgrwt>
</event>
<event>
 4    1  0.4950349E-004  0.3279346E+03  0.7818608E-02  0.1072054E+00
         -2   -1    0    0    0  501 -0.00000000000E+00  0.00000000000E+00  0.33381543333E+02  0.33381543430E+02  0.25500000000E-02 0. -1.
          2   -1    0    0  501    0  0.00000000000E+00 -0.00000000000E+00 -0.80539364404E+03  0.80539364404E+03  0.25500000000E-02 0.  1.
    5000001    1    1    2    0    0 -0.13489494506E+03 -0.48087786814E+02 -0.44009516395E+03  0.46917143432E+03  0.77000000000E+02 0.  0.
   -5000001    1    1    2    0    0  0.13489494506E+03  0.48087786814E+02 -0.33191693675E+03  0.36960375315E+03  0.77000000000E+02 0.  0.
<mgrwt>
<rscale>  0 0.32793465E+03</rscale>
<asrwt>0</asrwt>
<pdfrwt beam="1">  1        2 0.11505622E+00 0.32793465E+03</pdfrwt>
<pdfrwt beam="2">  1       -2 0.47687924E-02 0.32793465E+03</pdfrwt>
<totfact> 0.81618069E+03</totfact>
</mgrwt>
</event>
<event>
 4    1  0.4950349E-004  0.4912577E+03  0.7818608E-02  0.1016086E+00
         -2   -1    0    0    0  501 -0.00000000000E+00  0.00000000000E+00  0.62318898961E+02  0.62318899013E+02  0.25500000000E-02 0. -1.
          2   -1    0    0  501    0  0.00000000000E+00 -0.00000000000E+00 -0.96814195891E+03  0.96814195891E+03  0.25500000000E-02 0.  1.
    5000001    1    1    2    0    0 -0.77133071261E+02  0.17089709270E+03 -0.74393539005E+03  0.77105394853E+03  0.77000000000E+02 0.  0.
   -5000001    1    1    2    0    0  0.77133071261E+02 -0.17089709270E+03 -0.16188766989E+03  0.25940690939E+03  0.77000000000E+02 0.  0.
<mgrwt>
<rscale>  0 0.49125774E+03</rscale>
<asrwt>0</asrwt>
<pdfrwt beam="1">  1        2 0.13830599E+00 0.49125774E+03</pdfrwt>
<pdfrwt beam="2">  1       -2 0.89027004E-02 0.49125774E+03</pdfrwt>
<totfact> 0.24384311E+03</totfact>
</mgrwt>
</event>
<event>
 4    1  0.4950349E-004  0.1915881E+03  0.7818608E-02  0.1157037E+00
         -2   -1    0    0    0  501 -0.00000000000E+00  0.00000000000E+00  0.17479645619E+03  0.17479645621E+03  0.25500000000E-02 0. -1.
          2   -1    0    0  501    0  0.00000000000E+00 -0.00000000000E+00 -0.52498192519E+02  0.52498192581E+02  0.25500000000E-02 0.  1.
    5000001    1    1    2    0    0 -0.36126161615E+02  0.37357334162E+02  0.33406598304E+02  0.98720163993E+02  0.77000000000E+02 0.  0.
   -5000001    1    1    2    0    0  0.36126161615E+02 -0.37357334162E+02  0.88891665364E+02  0.12857448479E+03  0.77000000000E+02 0.  0.
<mgrwt>
<rscale>  0 0.19158808E+03</rscale>
<asrwt>0</asrwt>
<pdfrwt beam="1">  1        2 0.74997418E-02 0.19158808E+03</pdfrwt>
<pdfrwt beam="2">  1       -2 0.24970922E-01 0.19158808E+03</pdfrwt>
<totfact> 0.12668389E+04</totfact>
</mgrwt>
</event>
<event>
 4    1  0.4950349E-004  0.2399436E+03  0.7818608E-02  0.1119830E+00
         -2   -1    0    0    0  501 -0.00000000000E+00  0.00000000000E+00  0.15910291062E+02  0.15910291266E+02  0.25500000000E-02 0. -1.
          2   -1    0    0  501    0  0.00000000000E+00 -0.00000000000E+00 -0.90464914437E+03  0.90464914437E+03  0.25500000000E-02 0.  1.
    5000001    1    1    2    0    0 -0.75130266842E+02 -0.53100366740E+02 -0.44498024892E+03  0.46086942606E+03  0.77000000000E+02 0.  0.
   -5000001    1    1    2    0    0  0.75130266842E+02  0.53100366740E+02 -0.44375860439E+03  0.45969000958E+03  0.77000000000E+02 0.  0.
<mgrwt>
<rscale>  0 0.23994359E+03</rscale>
<asrwt>0</asrwt>
<pdfrwt beam="1">  1        2 0.12923556E+00 0.23994359E+03</pdfrwt>
<pdfrwt beam="2">  1       -2 0.22728993E-02 0.23994359E+03</pdfrwt>
<totfact> 0.21063788E+04</totfact>
</mgrwt>
</event>
<event>
 4    1  0.4950349E-004  0.4201113E+03  0.7818608E-02  0.1037030E+00
         -2   -1    0    0    0  501 -0.00000000000E+00  0.00000000000E+00  0.75988423861E+02  0.75988423904E+02  0.25500000000E-02 0. -1.
          2   -1    0    0  501    0  0.00000000000E+00 -0.00000000000E+00 -0.58065918590E+03  0.58065918590E+03  0.25500000000E-02 0.  1.
    5000001    1    1    2    0    0 -0.21506924398E+02  0.18846765105E+03 -0.17882675833E+03  0.27182827812E+03  0.77000000000E+02 0.  0.
   -5000001    1    1    2    0    0  0.21506924398E+02 -0.18846765105E+03 -0.32584400370E+03  0.38481933169E+03  0.77000000000E+02 0.  0.
<mgrwt>
<rscale>  0 0.42011130E+03</rscale>
<asrwt>0</asrwt>
<pdfrwt beam="1">  1        2 0.82951310E-01 0.42011130E+03</pdfrwt>
<pdfrwt beam="2">  1       -2 0.10855489E-01 0.42011130E+03</pdfrwt>
<totfact> 0.33462561E+03</totfact>
</mgrwt>
</event>
<event>
 4    1  0.4950349E-004  0.2077208E+03  0.7818608E-02  0.1143384E+00
          2   -1    0    0  501    0  0.00000000000E+00  0.00000000000E+00  0.66100013061E+02  0.66100013110E+02  0.25500000000E-02 0.  1.
         -2   -1    0    0    0  501 -0.00000000000E+00 -0.00000000000E+00 -0.16319181889E+03  0.16319181891E+03  0.25500000000E-02 0. -1.
    5000001    1    1    2    0    0  0.64925111226E+02 -0.21661203792E+02 -0.34005956452E+02  0.10848909112E+03  0.77000000000E+02 0.  0.
   -5000001    1    1    2    0    0 -0.64925111226E+02  0.21661203792E+02 -0.63085849373E+02  0.12080274090E+03  0.77000000000E+02 0.  0.
<mgrwt>
<rscale>  0 0.20772079E+03</rscale>
<asrwt>0</asrwt>
<pdfrwt beam="1">  1        2 0.94428591E-02 0.20772079E+03</pdfrwt>
<pdfrwt beam="2">  1       -2 0.23313117E-01 0.20772079E+03</pdfrwt>
<totfact> 0.10750432E+04</totfact>
</mgrwt>
</event>
<event>
 4    1  0.4950349E-004  0.3528551E+03  0.7818608E-02  0.1061449E+00
         -2   -1    0    0    0  501 -0.00000000000E+00  0.00000000000E+00  0.34759664798E+02  0.34759664891E+02  0.25500000000E-02 0. -1.
          2   -1    0    0  501    0  0.00000000000E+00 -0.00000000000E+00 -0.89548272382E+03  0.89548272382E+03  0.25500000000E-02 0.  1.
    5000001    1    1    2    0    0 -0.29864419035E+02  0.13441967814E+03 -0.63856726426E+03  0.65776719619E+03  0.77000000000E+02 0.  0.
   -5000001    1    1    2    0    0  0.29864419035E+02 -0.13441967814E+03 -0.22215579476E+03  0.27247519253E+03  0.77000000000E+02 0.  0.
<mgrwt>
<rscale>  0 0.35285509E+03</rscale>
<asrwt>0</asrwt>
<pdfrwt beam="1">  1        2 0.12792609E+00 0.35285509E+03</pdfrwt>
<pdfrwt beam="2">  1       -2 0.49656670E-02 0.35285509E+03</pdfrwt>
<totfact> 0.67129335E+03</totfact>
</mgrwt>
</event>
<event>
 4    1  0.4950349E-004  0.2878696E+03  0.7818608E-02  0.1091467E+00
         -2   -1    0    0    0  501 -0.00000000000E+00  0.00000000000E+00  0.67551084108E+01  0.67551088921E+01  0.25500000000E-02 0. -1.
          2   -1    0    0  501    0  0.00000000000E+00 -0.00000000000E+00 -0.30668969155E+04  0.30668969155E+04  0.25500000000E-02 0.  1.
    5000001    1    1    2    0    0 -0.78912825975E+02 -0.15059056026E+02 -0.55532541934E+03  0.56636501537E+03  0.77000000000E+02 0.  0.
   -5000001    1    1    2    0    0  0.78912825975E+02  0.15059056026E+02 -0.25048163878E+04  0.25072870091E+04  0.77000000000E+02 0.  0.
<mgrwt>
<rscale>  0 0.28786957E+03</rscale>
<asrwt>0</asrwt>
<pdfrwt beam="1">  1        2 0.43812724E+00 0.28786957E+03</pdfrwt>
<pdfrwt beam="2">  1       -2 0.96501748E-03 0.28786957E+03</pdfrwt>
<totfact> 0.57400038E+03</totfact>
</mgrwt>
</event>
<event>
 4    1  0.4950349E-004  0.1823881E+03  0.7818608E-02  0.1165512E+00
          2   -1    0    0  501    0  0.00000000000E+00  0.00000000000E+00  0.38011541369E+03  0.38011541369E+03  0.25500000000E-02 0.  1.
         -2   -1    0    0    0  501 -0.00000000000E+00 -0.00000000000E+00 -0.21878507931E+02  0.21878508080E+02  0.25500000000E-02 0. -1.
    5000001    1    1    2    0    0 -0.40066372173E+01  0.41578765423E+02  0.23498647123E+03  0.25078374855E+03  0.77000000000E+02 0.  0.
   -5000001    1    1    2    0    0  0.40066372173E+01 -0.41578765423E+02  0.12325043452E+03  0.15121017322E+03  0.77000000000E+02 0.  0.
<mgrwt>
<rscale>  0 0.18238814E+03</rscale>
<asrwt>0</asrwt>
<pdfrwt beam="1">  1        2 0.54302204E-01 0.18238814E+03</pdfrwt>
<pdfrwt beam="2">  1       -2 0.31255010E-02 0.18238814E+03</pdfrwt>
<totfact> 0.34853430E+04</totfact>
</mgrwt>
</event>
<event>
 4    1  0.4950349E-004  0.2565707E+03  0.7818608E-02  0.1109221E+00
         -2   -1    0    0    0  501 -0.00000000000E+00  0.00000000000E+00  0.22396881441E+02  0.22396881586E+02  0.25500000000E-02 0. -1.
          2   -1    0    0  501    0  0.00000000000E+00 -0.00000000000E+00 -0.73479557203E+03  0.73479557204E+03  0.25500000000E-02 0.  1.
    5000001    1    1    2    0    0 -0.67043640848E+02  0.75298802711E+02 -0.41245597545E+03  0.43152484419E+03  0.77000000000E+02 0.  0.
   -5000001    1    1    2    0    0  0.67043640848E+02 -0.75298802711E+02 -0.29994271514E+03  0.32566760943E+03  0.77000000000E+02 0.  0.
<mgrwt>
<rscale>  0 0.25657069E+03</rscale>
<asrwt>0</asrwt>
<pdfrwt beam="1">  1        2 0.10497078E+00 0.25657069E+03</pdfrwt>
<pdfrwt beam="2">  1       -2 0.31995550E-02 0.25657069E+03</pdfrwt>
<totfact> 0.16502092E+04</totfact>
</mgrwt>
</event>
<event>
 4    1  0.4950349E-004  0.1622333E+03  0.7818608E-02  0.1186198E+00
         -2   -1    0    0    0  501 -0.00000000000E+00  0.00000000000E+00  0.46877857988E+02  0.46877858058E+02  0.25500000000E-02 0. -1.
          2   -1    0    0  501    0  0.00000000000E+00 -0.00000000000E+00 -0.14036288747E+03  0.14036288749E+03  0.25500000000E-02 0.  1.
    5000001    1    1    2    0    0  0.15785558054E+02 -0.20029293296E+02 -0.45882633276E+02  0.93191053591E+02  0.77000000000E+02 0.  0.
   -5000001    1    1    2    0    0 -0.15785558054E+02  0.20029293296E+02 -0.47602396203E+02  0.94049691957E+02  0.77000000000E+02 0.  0.
<mgrwt>
<rscale>  0 0.16223331E+03</rscale>
<asrwt>0</asrwt>
<pdfrwt beam="1">  1        2 0.20051841E-01 0.16223331E+03</pdfrwt>
<pdfrwt beam="2">  1       -2 0.66968369E-02 0.16223331E+03</pdfrwt>
<totfact> 0.32410569E+04</totfact>
</mgrwt>
</event>
<event>
 4    1  0.4950349E-004  0.2051748E+03  0.7818608E-02  0.1145445E+00
          2   -1    0    0  501    0  0.00000000000E+00  0.00000000000E+00  0.21563117627E+04  0.21563117627E+04  0.25500000000E-02 0.  1.
         -2   -1    0    0    0  501 -0.00000000000E+00 -0.00000000000E+00 -0.48806379272E+01  0.48806385933E+01  0.25500000000E-02 0. -1.
    5000001    1    1    2    0    0  0.61633955490E+01 -0.65910432907E+02  0.12294475823E+04  0.12336338720E+04  0.77000000000E+02 0.  0.
   -5000001    1    1    2    0    0 -0.61633955490E+01  0.65910432907E+02  0.92198354251E+03  0.92755852930E+03  0.77000000000E+02 0.  0.
<mgrwt>
<rscale>  0 0.20517483E+03</rscale>
<asrwt>0</asrwt>
<pdfrwt beam="1">  1        2 0.30804434E+00 0.20517483E+03</pdfrwt>
<pdfrwt beam="2">  1       -2 0.69723448E-03 0.20517483E+03</pdfrwt>
<totfact> 0.26325404E+04</totfact>
</mgrwt>
</event>
<event>
 4    1  0.4950349E-004  0.2333329E+03  0.7818608E-02  0.1124316E+00
          2   -1    0    0  501    0  0.00000000000E+00  0.00000000000E+00  0.33268597412E+04  0.33268597412E+04  0.25500000000E-02 0.  1.
         -2   -1    0    0    0  501 -0.00000000000E+00 -0.00000000000E+00 -0.40912627293E+01  0.40912635240E+01  0.25500000000E-02 0. -1.
    5000001    1    1    2    0    0 -0.72655901524E+02 -0.47204871807E+02  0.18501662824E+04  0.18537937999E+04  0.77000000000E+02 0.  0.
   -5000001    1    1    2    0    0  0.72655901524E+02  0.47204871807E+02  0.14726021960E+04  0.14771572048E+04  0.77000000000E+02 0.  0.
<mgrwt>
<rscale>  0 0.23333288E+03</rscale>
<asrwt>0</asrwt>
<pdfrwt beam="1">  1        2 0.47526662E+00 0.23333288E+03</pdfrwt>
<pdfrwt beam="2">  1       -2 0.58446500E-03 0.23333288E+03</pdfrwt>
<totfact> 0.85546925E+03</totfact>
</mgrwt>
</event>
<event>
 4    1  0.4950349E-004  0.2354557E+03  0.7818608E-02  0.1122858E+00
          2   -1    0    0  501    0  0.00000000000E+00  0.00000000000E+00  0.45640505149E+03  0.45640505150E+03  0.25500000000E-02 0.  1.
         -2   -1    0    0    0  501 -0.00000000000E+00 -0.00000000000E+00 -0.30367415828E+02  0.30367415935E+02  0.25500000000E-02 0. -1.
    5000001    1    1    2    0    0  0.71402486201E+02  0.52615966718E+02  0.19646866840E+03  0.22890105429E+03  0.77000000000E+02 0.  0.
   -5000001    1    1    2    0    0 -0.71402486201E+02 -0.52615966718E+02  0.22956896726E+03  0.25787141315E+03  0.77000000000E+02 0.  0.
<mgrwt>
<rscale>  0 0.23545566E+03</rscale>
<asrwt>0</asrwt>
<pdfrwt beam="1">  1        2 0.65200723E-01 0.23545566E+03</pdfrwt>
<pdfrwt beam="2">  1       -2 0.43382022E-02 0.23545566E+03</pdfrwt>
<totfact> 0.17881541E+04</totfact>
</mgrwt>
</event>
<event>
 4    1  0.4950349E-004  0.2591168E+03  0.7818608E-02  0.1107675E+00
         -2   -1    0    0    0  501 -0.00000000000E+00  0.00000000000E+00  0.82709460334E+02  0.82709460373E+02  0.25500000000E-02 0. -1.
          2   -1    0    0  501    0  0.00000000000E+00 -0.00000000000E+00 -0.20294381332E+03  0.20294381333E+03  0.25500000000E-02 0.  1.
    5000001    1    1    2    0    0 -0.97138445484E+02  0.29647849611E+02 -0.34463877538E+02  0.13202890378E+03  0.77000000000E+02 0.  0.
   -5000001    1    1    2    0    0  0.97138445484E+02 -0.29647849611E+02 -0.85770475443E+02  0.15362436993E+03  0.77000000000E+02 0.  0.
<mgrwt>
<rscale>  0 0.25911676E+03</rscale>
<asrwt>0</asrwt>
<pdfrwt beam="1">  1        2 0.28991973E-01 0.25911676E+03</pdfrwt>
<pdfrwt beam="2">  1       -2 0.11815637E-01 0.25911676E+03</pdfrwt>
<totfact> 0.91178571E+03</totfact>
</mgrwt>
</event>
<event>
 4    1  0.4950349E-004  0.1971540E+03  0.7818608E-02  0.1152163E+00
          2   -1    0    0  501    0  0.00000000000E+00  0.00000000000E+00  0.63202747626E+03  0.63202747627E+03  0.25500000000E-02 0.  1.
         -2   -1    0    0    0  501 -0.00000000000E+00 -0.00000000000E+00 -0.15375008478E+02  0.15375008689E+02  0.25500000000E-02 0. -1.
    5000001    1    1    2    0    0 -0.45132505537E+02 -0.16303071084E+02  0.18175544429E+03  0.20314225240E+03  0.77000000000E+02 0.  0.
   -5000001    1    1    2    0    0  0.45132505537E+02  0.16303071084E+02  0.43489702350E+03  0.44426023255E+03  0.77000000000E+02 0.  0.
<mgrwt>
<rscale>  0 0.19715403E+03</rscale>
<asrwt>0</asrwt>
<pdfrwt beam="1">  1        2 0.90289646E-01 0.19715403E+03</pdfrwt>
<pdfrwt beam="2">  1       -2 0.21964296E-02 0.19715403E+03</pdfrwt>
<totfact> 0.33748617E+04</totfact>
</mgrwt>
</event>
<event>
 4    1  0.4950349E-004  0.2063647E+03  0.7818608E-02  0.1144478E+00
          2   -1    0    0  501    0  0.00000000000E+00  0.00000000000E+00  0.63125319504E+03  0.63125319505E+03  0.25500000000E-02 0.  1.
         -2   -1    0    0    0  501 -0.00000000000E+00 -0.00000000000E+00 -0.16865805729E+02  0.16865805922E+02  0.25500000000E-02 0. -1.
    5000001    1    1    2    0    0 -0.20403533101E+02  0.50343531027E+02  0.43920629607E+03  0.44920145346E+03  0.77000000000E+02 0.  0.
   -5000001    1    1    2    0    0  0.20403533101E+02 -0.50343531027E+02  0.17518109324E+03  0.19891754752E+03  0.77000000000E+02 0.  0.
<mgrwt>
<rscale>  0 0.20636467E+03</rscale>
<asrwt>0</asrwt>
<pdfrwt beam="1">  1        2 0.90179014E-01 0.20636467E+03</pdfrwt>
<pdfrwt beam="2">  1       -2 0.24094012E-02 0.20636467E+03</pdfrwt>
<totfact> 0.29605527E+04</totfact>
</mgrwt>
</event>
<event>
 4    1  0.4950349E-004  0.2147810E+03  0.7818608E-02  0.1137835E+00
         -2   -1    0    0    0  501 -0.00000000000E+00  0.00000000000E+00  0.71305512124E+02  0.71305512170E+02  0.25500000000E-02 0. -1.
          2   -1    0    0  501    0  0.00000000000E+00 -0.00000000000E+00 -0.16173669929E+03  0.16173669931E+03  0.25500000000E-02 0.  1.
    5000001    1    1    2    0    0 -0.63412637555E+02 -0.14052449922E+02 -0.85596573129E+02  0.13219079878E+03  0.77000000000E+02 0.  0.
   -5000001    1    1    2    0    0  0.63412637555E+02  0.14052449922E+02 -0.48346140349E+01  0.10085141270E+03  0.77000000000E+02 0.  0.
<mgrwt>
<rscale>  0 0.21478099E+03</rscale>
<asrwt>0</asrwt>
<pdfrwt beam="1">  1        2 0.23105243E-01 0.21478099E+03</pdfrwt>
<pdfrwt beam="2">  1       -2 0.10186502E-01 0.21478099E+03</pdfrwt>
<totfact> 0.14713555E+04</totfact>
</mgrwt>
</event>
<event>
 4    1  0.4950349E-004  0.1886893E+03  0.7818608E-02  0.1159649E+00
         -2   -1    0    0    0  501 -0.00000000000E+00  0.00000000000E+00  0.10392602163E+03  0.10392602166E+03  0.25500000000E-02 0. -1.
          2   -1    0    0  501    0  0.00000000000E+00 -0.00000000000E+00 -0.85646591193E+02  0.85646591231E+02  0.25500000000E-02 0.  1.
    5000001    1    1    2    0    0 -0.43234346444E+02  0.22548099615E+02  0.33631781271E+02  0.97147939866E+02  0.77000000000E+02 0.  0.
   -5000001    1    1    2    0    0  0.43234346444E+02 -0.22548099615E+02 -0.15352350830E+02  0.92424673030E+02  0.77000000000E+02 0.  0.
<mgrwt>
<rscale>  0 0.18868926E+03</rscale>
<asrwt>0</asrwt>
<pdfrwt beam="1">  1        2 0.12235227E-01 0.18868926E+03</pdfrwt>
<pdfrwt beam="2">  1       -2 0.14846575E-01 0.18868926E+03</pdfrwt>
<totfact> 0.16642144E+04</totfact>
</mgrwt>
</event>
<event>
 4    1  0.4950349E-004  0.1973096E+03  0.7818608E-02  0.1152029E+00
         -2   -1    0    0    0  501 -0.00000000000E+00  0.00000000000E+00  0.13369876569E+03  0.13369876572E+03  0.25500000000E-02 0. -1.
          2   -1    0    0  501    0  0.00000000000E+00 -0.00000000000E+00 -0.72796283532E+02  0.72796283576E+02  0.25500000000E-02 0.  1.
    5000001    1    1    2    0    0 -0.22166355493E+02  0.48174675133E+01 -0.29570373158E+02  0.85545089150E+02  0.77000000000E+02 0.  0.
   -5000001    1    1    2    0    0  0.22166355493E+02 -0.48174675133E+01  0.90472855319E+02  0.12094996014E+03  0.77000000000E+02 0.  0.
<mgrwt>
<rscale>  0 0.19730964E+03</rscale>
<asrwt>0</asrwt>
<pdfrwt beam="1">  1        2 0.10399469E-01 0.19730964E+03</pdfrwt>
<pdfrwt beam="2">  1       -2 0.19099824E-01 0.19730964E+03</pdfrwt>
<totfact> 0.13382473E+04</totfact>
</mgrwt>
</event>
<event>
 4    1  0.4950349E-004  0.2153619E+03  0.7818608E-02  0.1137389E+00
         -2   -1    0    0    0  501 -0.00000000000E+00  0.00000000000E+00  0.72085020729E+01  0.72085025239E+01  0.25500000000E-02 0. -1.
          2   -1    0    0  501    0  0.00000000000E+00 -0.00000000000E+00 -0.16085434672E+04  0.16085434672E+04  0.25500000000E-02 0.  1.
    5000001    1    1    2    0    0  0.42726728799E+02  0.60304299414E+02 -0.90782650410E+03  0.91407884968E+03  0.77000000000E+02 0.  0.
   -5000001    1    1    2    0    0 -0.42726728799E+02 -0.60304299414E+02 -0.69350846101E+03  0.70167312004E+03  0.77000000000E+02 0.  0.
<mgrwt>
<rscale>  0 0.21536192E+03</rscale>
<asrwt>0</asrwt>
<pdfrwt beam="1">  1        2 0.22979169E+00 0.21536192E+03</pdfrwt>
<pdfrwt beam="2">  1       -2 0.10297871E-02 0.21536192E+03</pdfrwt>
<totfact> 0.27742964E+04</totfact>
</mgrwt>
</event>
<event>
 4    1  0.4950349E-004  0.2366701E+03  0.7818608E-02  0.1122031E+00
         -2   -1    0    0    0  501 -0.00000000000E+00  0.00000000000E+00  0.42710233927E+01  0.42710241539E+01  0.25500000000E-02 0. -1.
          2   -1    0    0  501    0  0.00000000000E+00 -0.00000000000E+00 -0.32786476276E+04  0.32786476276E+04  0.25500000000E-02 0.  1.
    5000001    1    1    2    0    0  0.34412548736E+02  0.78298083167E+02 -0.12549421830E+04  0.12602077988E+04  0.77000000000E+02 0.  0.
   -5000001    1    1    2    0    0 -0.34412548736E+02 -0.78298083167E+02 -0.20194344212E+04  0.20227108530E+04  0.77000000000E+02 0.  0.
<mgrwt>
<rscale>  0 0.23667008E+03</rscale>
<asrwt>0</asrwt>
<pdfrwt beam="1">  1        2 0.46837662E+00 0.23667008E+03</pdfrwt>
<pdfrwt beam="2">  1       -2 0.61014835E-03 0.23667008E+03</pdfrwt>
<totfact> 0.85530644E+03</totfact>
</mgrwt>
</event>
<event>
 4    1  0.4950349E-004  0.2792775E+03  0.7818608E-02  0.1096084E+00
          2   -1    0    0  501    0  0.00000000000E+00  0.00000000000E+00  0.42619025845E+03  0.42619025846E+03  0.25500000000E-02 0.  1.
         -2   -1    0    0    0  501 -0.00000000000E+00 -0.00000000000E+00 -0.45751807291E+02  0.45751807362E+02  0.25500000000E-02 0. -1.
    5000001    1    1    2    0    0  0.41271853460E+02 -0.10834085824E+03  0.20940255140E+03  0.25143495378E+03  0.77000000000E+02 0.  0.
   -5000001    1    1    2    0    0 -0.41271853460E+02  0.10834085824E+03  0.17103589976E+03  0.22050711204E+03  0.77000000000E+02 0.  0.
<mgrwt>
<rscale>  0 0.27927746E+03</rscale>
<asrwt>0</asrwt>
<pdfrwt beam="1">  1        2 0.60884325E-01 0.27927746E+03</pdfrwt>
<pdfrwt beam="2">  1       -2 0.65359722E-02 0.27927746E+03</pdfrwt>
<totfact> 0.10408738E+04</totfact>
</mgrwt>
</event>
<event>
 4    1  0.4950349E-004  0.2351963E+03  0.7818608E-02  0.1123035E+00
          2   -1    0    0  501    0  0.00000000000E+00  0.00000000000E+00  0.13506342294E+04  0.13506342294E+04  0.25500000000E-02 0.  1.
         -2   -1    0    0    0  501 -0.00000000000E+00 -0.00000000000E+00 -0.10239133361E+02  0.10239133678E+02  0.25500000000E-02 0. -1.
    5000001    1    1    2    0    0  0.56528053682E+02 -0.66411267040E+02  0.76948418119E+03  0.77822926079E+03  0.77000000000E+02 0.  0.
   -5000001    1    1    2    0    0 -0.56528053682E+02  0.66411267040E+02  0.57091091480E+03  0.58264410224E+03  0.77000000000E+02 0.  0.
<mgrwt>
<rscale>  0 0.23519629E+03</rscale>
<asrwt>0</asrwt>
<pdfrwt beam="1">  1        2 0.19294774E+00 0.23519629E+03</pdfrwt>
<pdfrwt beam="2">  1       -2 0.14627334E-02 0.23519629E+03</pdfrwt>
<totfact> 0.22589993E+04</totfact>
</mgrwt>
</event>
<event>
 4    1  0.4950349E-004  0.3572347E+03  0.7818608E-02  0.1059684E+00
         -2   -1    0    0    0  501 -0.00000000000E+00  0.00000000000E+00  0.14175174434E+02  0.14175174663E+02  0.25500000000E-02 0. -1.
          2   -1    0    0  501    0  0.00000000000E+00 -0.00000000000E+00 -0.22507066543E+04  0.22507066543E+04  0.25500000000E-02 0.  1.
    5000001    1    1    2    0    0 -0.95745509543E+02  0.99083373356E+02 -0.16483491612E+04  0.16558890889E+04  0.77000000000E+02 0.  0.
   -5000001    1    1    2    0    0  0.95745509543E+02 -0.99083373356E+02 -0.58818231867E+03  0.60899274008E+03  0.77000000000E+02 0.  0.
<mgrwt>
<rscale>  0 0.35723471E+03</rscale>
<asrwt>0</asrwt>
<pdfrwt beam="1">  1        2 0.32152930E+00 0.35723471E+03</pdfrwt>
<pdfrwt beam="2">  1       -2 0.20250264E-02 0.35723471E+03</pdfrwt>
<totfact> 0.50519490E+03</totfact>
</mgrwt>
</event>
<event>
 4    1  0.4950349E-004  0.1937992E+03  0.7818608E-02  0.1155079E+00
         -2   -1    0    0    0  501 -0.00000000000E+00  0.00000000000E+00  0.40824945706E+01  0.40824953670E+01  0.25500000000E-02 0. -1.
          2   -1    0    0  501    0  0.00000000000E+00 -0.00000000000E+00 -0.22999491520E+04  0.22999491520E+04  0.25500000000E-02 0.  1.
    5000001    1    1    2    0    0 -0.20431868306E+02  0.30023761126E+02 -0.16981200120E+04  0.17002527644E+04  0.77000000000E+02 0.  0.
   -5000001    1    1    2    0    0  0.20431868306E+02 -0.30023761126E+02 -0.59774664542E+03  0.60377888302E+03  0.77000000000E+02 0.  0.
<mgrwt>
<rscale>  0 0.19379918E+03</rscale>
<asrwt>0</asrwt>
<pdfrwt beam="1">  1        2 0.32856333E+00 0.19379918E+03</pdfrwt>
<pdfrwt beam="2">  1       -2 0.58321504E-03 0.19379918E+03</pdfrwt>
<totfact> 0.28894622E+04</totfact>
</mgrwt>
</event>
<event>
 4    1  0.4950349E-004  0.4020021E+03  0.7818608E-02  0.1043089E+00
         -2   -1    0    0    0  501 -0.00000000000E+00  0.00000000000E+00  0.34581911861E+02  0.34581911955E+02  0.25500000000E-02 0. -1.
          2   -1    0    0  501    0  0.00000000000E+00 -0.00000000000E+00 -0.11682820228E+04  0.11682820228E+04  0.25500000000E-02 0.  1.
    5000001    1    1    2    0    0 -0.11375278136E+03  0.34709747867E+02 -0.14023605498E+03  0.19934796959E+03  0.77000000000E+02 0.  0.
   -5000001    1    1    2    0    0  0.11375278136E+03 -0.34709747867E+02 -0.99346405600E+03  0.10035159652E+04  0.77000000000E+02 0.  0.
<mgrwt>
<rscale>  0 0.40200212E+03</rscale>
<asrwt>0</asrwt>
<pdfrwt beam="1">  1        2 0.16689741E+00 0.40200212E+03</pdfrwt>
<pdfrwt beam="2">  1       -2 0.49402739E-02 0.40200212E+03</pdfrwt>
<totfact> 0.46768930E+03</totfact>
</mgrwt>
</event>
<event>
 4    1  0.4950349E-004  0.1930051E+03  0.7818608E-02  0.1155779E+00
         -2   -1    0    0    0  501 -0.00000000000E+00  0.00000000000E+00  0.48260810778E+02  0.48260810846E+02  0.25500000000E-02 0. -1.
          2   -1    0    0  501    0  0.00000000000E+00 -0.00000000000E+00 -0.19296692094E+03  0.19296692095E+03  0.25500000000E-02 0.  1.
    5000001    1    1    2    0    0 -0.22681683577E+02 -0.53070460983E+02 -0.81435571130E+02  0.12606222608E+03  0.77000000000E+02 0.  0.
   -5000001    1    1    2    0    0  0.22681683577E+02  0.53070460983E+02 -0.63270539030E+02  0.11516550572E+03  0.77000000000E+02 0.  0.
<mgrwt>
<rscale>  0 0.19300508E+03</rscale>
<asrwt>0</asrwt>
<pdfrwt beam="1">  1        2 0.27566703E-01 0.19300508E+03</pdfrwt>
<pdfrwt beam="2">  1       -2 0.68944016E-02 0.19300508E+03</pdfrwt>
<totfact> 0.22069424E+04</totfact>
</mgrwt>
</event>
<event>
 4    1  0.4950349E-004  0.5312170E+03  0.7818608E-02  0.1005937E+00
         -2   -1    0    0    0  501 -0.00000000000E+00  0.00000000000E+00  0.12310108751E+03  0.12310108754E+03  0.25500000000E-02 0. -1.
          2   -1    0    0  501    0  0.00000000000E+00 -0.00000000000E+00 -0.57308904790E+03  0.57308904791E+03  0.25500000000E-02 0.  1.
    5000001    1    1    2    0    0  0.20974463495E+03  0.11999178059E+03 -0.32842046571E+03  0.41494558872E+03  0.77000000000E+02 0.  0.
   -5000001    1    1    2    0    0 -0.20974463495E+03 -0.11999178059E+03 -0.12156749469E+03  0.28124454673E+03  0.77000000000E+02 0.  0.
<mgrwt>
<rscale>  0 0.53121704E+03</rscale>
<asrwt>0</asrwt>
<pdfrwt beam="1">  1        2 0.81869863E-01 0.53121704E+03</pdfrwt>
<pdfrwt beam="2">  1       -2 0.17585870E-01 0.53121704E+03</pdfrwt>
<totfact> 0.15270085E+03</totfact>
</mgrwt>
</event>
<event>
 4    1  0.4950349E-004  0.2173224E+03  0.7818608E-02  0.1135895E+00
         -2   -1    0    0    0  501 -0.00000000000E+00  0.00000000000E+00  0.88051035305E+01  0.88051038997E+01  0.25500000000E-02 0. -1.
          2   -1    0    0  501    0  0.00000000000E+00 -0.00000000000E+00 -0.13409559249E+04  0.13409559249E+04  0.25500000000E-02 0.  1.
    5000001    1    1    2    0    0 -0.56012290274E+02 -0.51479296761E+02 -0.72524558594E+03  0.73327870185E+03  0.77000000000E+02 0.  0.
   -5000001    1    1    2    0    0  0.56012290274E+02  0.51479296761E+02 -0.60690523545E+03  0.61648232698E+03  0.77000000000E+02 0.  0.
<mgrwt>
<rscale>  0 0.21732240E+03</rscale>
<asrwt>0</asrwt>
<pdfrwt beam="1">  1        2 0.19156500E+00 0.21732240E+03</pdfrwt>
<pdfrwt beam="2">  1       -2 0.12578728E-02 0.21732240E+03</pdfrwt>
<totfact> 0.28336214E+04</totfact>
</mgrwt>
</event>
<event>
 4    1  0.4950349E-004  0.1918480E+03  0.7818608E-02  0.1156805E+00
         -2   -1    0    0    0  501 -0.00000000000E+00  0.00000000000E+00  0.29455482439E+02  0.29455482549E+02  0.25500000000E-02 0. -1.
          2   -1    0    0  501    0  0.00000000000E+00 -0.00000000000E+00 -0.31238379037E+03  0.31238379038E+03  0.25500000000E-02 0.  1.
    5000001    1    1    2    0    0 -0.15466349748E+02  0.41282117900E+02 -0.20642118420E+03  0.22468227905E+03  0.77000000000E+02 0.  0.
   -5000001    1    1    2    0    0  0.15466349748E+02 -0.41282117900E+02 -0.76507123728E+02  0.11715699388E+03  0.77000000000E+02 0.  0.
<mgrwt>
<rscale>  0 0.19184802E+03</rscale>
<asrwt>0</asrwt>
<pdfrwt beam="1">  1        2 0.44626254E-01 0.19184802E+03</pdfrwt>
<pdfrwt beam="2">  1       -2 0.42079262E-02 0.19184802E+03</pdfrwt>
<totfact> 0.27729536E+04</totfact>
</mgrwt>
</event>
<event>
 4    1  0.4950349E-004  0.2244409E+03  0.7818608E-02  0.1130615E+00
          2   -1    0    0  501    0  0.00000000000E+00  0.00000000000E+00  0.23795615049E+02  0.23795615185E+02  0.25500000000E-02 0.  1.
         -2   -1    0    0    0  501 -0.00000000000E+00 -0.00000000000E+00 -0.52923308221E+03  0.52923308222E+03  0.25500000000E-02 0. -1.
    5000001    1    1    2    0    0  0.46806431203E+02 -0.65577119374E+02 -0.28514914334E+03  0.30615393927E+03  0.77000000000E+02 0.  0.
   -5000001    1    1    2    0    0 -0.46806431203E+02  0.65577119374E+02 -0.22028832383E+03  0.24687475813E+03  0.77000000000E+02 0.  0.
<mgrwt>
<rscale>  0 0.22444088E+03</rscale>
<asrwt>0</asrwt>
<pdfrwt beam="1">  1        2 0.33993739E-02 0.22444088E+03</pdfrwt>
<pdfrwt beam="2">  1       -2 0.75604718E-01 0.22444088E+03</pdfrwt>
<totfact> 0.42005657E+03</totfact>
</mgrwt>
</event>
<event>
 4    1  0.4950349E-004  0.3225842E+03  0.7818608E-02  0.1074466E+00
         -2   -1    0    0    0  501 -0.00000000000E+00  0.00000000000E+00  0.40155127168E+02  0.40155127249E+02  0.25500000000E-02 0. -1.
          2   -1    0    0  501    0  0.00000000000E+00 -0.00000000000E+00 -0.64786588963E+03  0.64786588964E+03  0.25500000000E-02 0.  1.
    5000001    1    1    2    0    0  0.88676535875E+02 -0.64098917694E+02 -0.11173453550E+03  0.17431524800E+03  0.77000000000E+02 0.  0.
   -5000001    1    1    2    0    0 -0.88676535875E+02  0.64098917694E+02 -0.49597622697E+03  0.51370576888E+03  0.77000000000E+02 0.  0.
<mgrwt>
<rscale>  0 0.32258417E+03</rscale>
<asrwt>0</asrwt>
<pdfrwt beam="1">  1        2 0.92552263E-01 0.32258417E+03</pdfrwt>
<pdfrwt beam="2">  1       -2 0.57364471E-02 0.32258417E+03</pdfrwt>
<totfact> 0.79971760E+03</totfact>
</mgrwt>
</event>
<event>
 4    1  0.4950349E-004  0.2282031E+03  0.7818608E-02  0.1127911E+00
         -2   -1    0    0    0  501 -0.00000000000E+00  0.00000000000E+00  0.37528200861E+02  0.37528200947E+02  0.25500000000E-02 0. -1.
          2   -1    0    0  501    0  0.00000000000E+00 -0.00000000000E+00 -0.34691671482E+03  0.34691671483E+03  0.25500000000E-02 0.  1.
    5000001    1    1    2    0    0 -0.36504525538E+02  0.75410099076E+02 -0.16887914117E+03  0.20363798209E+03  0.77000000000E+02 0.  0.
   -5000001    1    1    2    0    0  0.36504525538E+02 -0.75410099076E+02 -0.14050937279E+03  0.18080693368E+03  0.77000000000E+02 0.  0.
<mgrwt>
<rscale>  0 0.22820307E+03</rscale>
<asrwt>0</asrwt>
<pdfrwt beam="1">  1        2 0.49559529E-01 0.22820307E+03</pdfrwt>
<pdfrwt beam="2">  1       -2 0.53611718E-02 0.22820307E+03</pdfrwt>
<totfact> 0.17417022E+04</totfact>
</mgrwt>
</event>
<event>
 4    1  0.4950349E-004  0.1960149E+03  0.7818608E-02  0.1153145E+00
          2   -1    0    0  501    0  0.00000000000E+00  0.00000000000E+00  0.66377659058E+03  0.66377659058E+03  0.25500000000E-02 0.  1.
         -2   -1    0    0    0  501 -0.00000000000E+00 -0.00000000000E+00 -0.14470921025E+02  0.14470921249E+02  0.25500000000E-02 0. -1.
    5000001    1    1    2    0    0  0.30195328838E+01  0.26896095116E+02  0.51239582204E+03  0.51885546731E+03  0.77000000000E+02 0.  0.
   -5000001    1    1    2    0    0 -0.30195328838E+01 -0.26896095116E+02  0.13690984751E+03  0.15939204452E+03  0.77000000000E+02 0.  0.
<mgrwt>
<rscale>  0 0.19601488E+03</rscale>
<asrwt>0</asrwt>
<pdfrwt beam="1">  1        2 0.94825261E-01 0.19601488E+03</pdfrwt>
<pdfrwt beam="2">  1       -2 0.20672737E-02 0.19601488E+03</pdfrwt>
<totfact> 0.34840281E+04</totfact>
</mgrwt>
</event>
<event>
 4    1  0.4950349E-004  0.2083887E+03  0.7818608E-02  0.1142848E+00
          2   -1    0    0  501    0  0.00000000000E+00  0.00000000000E+00  0.70441991123E+02  0.70441991169E+02  0.25500000000E-02 0.  1.
         -2   -1    0    0    0  501 -0.00000000000E+00 -0.00000000000E+00 -0.15411924562E+03  0.15411924564E+03  0.25500000000E-02 0. -1.
    5000001    1    1    2    0    0 -0.64181307692E+02  0.52582091554E+00 -0.11208222593E+02  0.10086694701E+03  0.77000000000E+02 0.  0.
   -5000001    1    1    2    0    0  0.64181307692E+02 -0.52582091554E+00 -0.72469031900E+02  0.12369428980E+03  0.77000000000E+02 0.  0.
<mgrwt>
<rscale>  0 0.20838874E+03</rscale>
<asrwt>0</asrwt>
<pdfrwt beam="1">  1        2 0.10063142E-01 0.20838874E+03</pdfrwt>
<pdfrwt beam="2">  1       -2 0.22017035E-01 0.20838874E+03</pdfrwt>
<totfact> 0.10972243E+04</totfact>
</mgrwt>
</event>
<event>
 4    1  0.4950349E-004  0.2181248E+03  0.7818608E-02  0.1135289E+00
         -2   -1    0    0    0  501 -0.00000000000E+00  0.00000000000E+00  0.41078932501E+02  0.41078932580E+02  0.25500000000E-02 0. -1.
          2   -1    0    0  501    0  0.00000000000E+00 -0.00000000000E+00 -0.28955494347E+03  0.28955494348E+03  0.25500000000E-02 0.  1.
    5000001    1    1    2    0    0  0.76687534828E+02 -0.18059287020E+01 -0.13791122391E+03  0.17559255411E+03  0.77000000000E+02 0.  0.
   -5000001    1    1    2    0    0 -0.76687534828E+02  0.18059287020E+01 -0.11056478705E+03  0.15504132195E+03  0.77000000000E+02 0.  0.
<mgrwt>
<rscale>  0 0.21812481E+03</rscale>
<asrwt>0</asrwt>
<pdfrwt beam="1">  1        2 0.41364991E-01 0.21812481E+03</pdfrwt>
<pdfrwt beam="2">  1       -2 0.58684191E-02 0.21812481E+03</pdfrwt>
<totfact> 0.18363494E+04</totfact>
</mgrwt>
</event>
<event>
 4    1  0.4950349E-004  0.6441793E+03  0.7818608E-02  0.9817763E-01
          2   -1    0    0  501    0  0.00000000000E+00  0.00000000000E+00  0.62836039306E+03  0.62836039306E+03  0.25500000000E-02 0.  1.
         -2   -1    0    0    0  501 -0.00000000000E+00 -0.00000000000E+00 -0.16509913525E+03  0.16509913527E+03  0.25500000000E-02 0. -1.
    5000001    1    1    2    0    0 -0.20379833073E+03  0.11473446355E+03  0.48739036944E+03  0.54605506037E+03  0.77000000000E+02 0.  0.
   -5000001    1    1    2    0    0  0.20379833073E+03 -0.11473446355E+03 -0.24129111634E+02  0.24740446795E+03  0.77000000000E+02 0.  0.
<mgrwt>
<rscale>  0 0.64417935E+03</rscale>
<asrwt>0</asrwt>
<pdfrwt beam="1">  1        2 0.89765770E-01 0.64417935E+03</pdfrwt>
<pdfrwt beam="2">  1       -2 0.23585591E-01 0.64417935E+03</pdfrwt>
<totfact> 0.82000558E+02</totfact>
</mgrwt>
</event>
<event>
 4    1  0.4950349E-004  0.2733881E+03  0.7818608E-02  0.1099356E+00
          2   -1    0    0  501    0  0.00000000000E+00  0.00000000000E+00  0.29009834616E+03  0.29009834618E+03  0.25500000000E-02 0.  1.
         -2   -1    0    0    0  501 -0.00000000000E+00 -0.00000000000E+00 -0.64410121636E+02  0.64410121687E+02  0.25500000000E-02 0. -1.
    5000001    1    1    2    0    0 -0.11194441897E+03  0.15373773230E+01  0.13218020532E+03  0.18956403442E+03  0.77000000000E+02 0.  0.
   -5000001    1    1    2    0    0  0.11194441897E+03 -0.15373773230E+01  0.93508019210E+02  0.16494443344E+03  0.77000000000E+02 0.  0.
<mgrwt>
<rscale>  0 0.27338815E+03</rscale>
<asrwt>0</asrwt>
<pdfrwt beam="1">  1        2 0.41442621E-01 0.27338815E+03</pdfrwt>
<pdfrwt beam="2">  1       -2 0.92014459E-02 0.27338815E+03</pdfrwt>
<totfact> 0.92360354E+03</totfact>
</mgrwt>
</event>
<event>
 4    1  0.4950349E-004  0.1996135E+03  0.7818608E-02  0.1150065E+00
          2   -1    0    0  501    0  0.00000000000E+00  0.00000000000E+00  0.22414304856E+04  0.22414304856E+04  0.25500000000E-02 0.  1.
         -2   -1    0    0    0  501 -0.00000000000E+00 -0.00000000000E+00 -0.44442101136E+01  0.44442108452E+01  0.25500000000E-02 0. -1.
    5000001    1    1    2    0    0  0.50306016479E+02  0.29951111318E+02  0.13951480894E+04  0.13984973921E+04  0.77000000000E+02 0.  0.
   -5000001    1    1    2    0    0 -0.50306016479E+02 -0.29951111318E+02  0.84183818608E+03  0.84737730434E+03  0.77000000000E+02 0.  0.
<mgrwt>
<rscale>  0 0.19961352E+03</rscale>
<asrwt>0</asrwt>
<pdfrwt beam="1">  1        2 0.32020490E+00 0.19961352E+03</pdfrwt>
<pdfrwt beam="2">  1       -2 0.63488612E-03 0.19961352E+03</pdfrwt>
<totfact> 0.27352677E+04</totfact>
</mgrwt>
</event>
<event>
 4    1  0.4950349E-004  0.1915668E+03  0.7818608E-02  0.1157056E+00
         -2   -1    0    0    0  501 -0.00000000000E+00  0.00000000000E+00  0.46301454852E+03  0.46301454853E+03  0.25500000000E-02 0. -1.
          2   -1    0    0  501    0  0.00000000000E+00 -0.00000000000E+00 -0.19814622630E+02  0.19814622794E+02  0.25500000000E-02 0.  1.
    5000001    1    1    2    0    0  0.31307251692E+02 -0.38326827441E+02  0.29272629681E+03  0.30670307229E+03  0.77000000000E+02 0.  0.
   -5000001    1    1    2    0    0 -0.31307251692E+02  0.38326827441E+02  0.15047362908E+03  0.17612609903E+03  0.77000000000E+02 0.  0.
<mgrwt>
<rscale>  0 0.19156679E+03</rscale>
<asrwt>0</asrwt>
<pdfrwt beam="1">  1        2 0.28306607E-02 0.19156679E+03</pdfrwt>
<pdfrwt beam="2">  1       -2 0.66144927E-01 0.19156679E+03</pdfrwt>
<totfact> 0.70900492E+03</totfact>
</mgrwt>
</event>
<event>
 4    1  0.4950349E-004  0.1683277E+03  0.7818608E-02  0.1179603E+00
         -2   -1    0    0    0  501 -0.00000000000E+00  0.00000000000E+00  0.84495016012E+01  0.84495019860E+01  0.25500000000E-02 0. -1.
          2   -1    0    0  501    0  0.00000000000E+00 -0.00000000000E+00 -0.83833946632E+03  0.83833946632E+03  0.25500000000E-02 0.  1.
    5000001    1    1    2    0    0  0.10417256333E+02 -0.27920110993E+02 -0.49706848812E+03  0.50387908640E+03  0.77000000000E+02 0.  0.
   -5000001    1    1    2    0    0 -0.10417256333E+02  0.27920110993E+02 -0.33282147659E+03  0.34290988191E+03  0.77000000000E+02 0.  0.
<mgrwt>
<rscale>  0 0.16832767E+03</rscale>
<asrwt>0</asrwt>
<pdfrwt beam="1">  1        2 0.11976273E+00 0.16832767E+03</pdfrwt>
<pdfrwt beam="2">  1       -2 0.12070722E-02 0.16832767E+03</pdfrwt>
<totfact> 0.56778122E+04</totfact>
</mgrwt>
</event>
<event>
 4    1  0.4950349E-004  0.2964184E+03  0.7818608E-02  0.1087045E+00
          2   -1    0    0  501    0  0.00000000000E+00  0.00000000000E+00  0.30107106498E+03  0.30107106499E+03  0.25500000000E-02 0.  1.
         -2   -1    0    0    0  501 -0.00000000000E+00 -0.00000000000E+00 -0.72959407448E+02  0.72959407492E+02  0.25500000000E-02 0. -1.
    5000001    1    1    2    0    0  0.85228571579E+02  0.89501148995E+02  0.79210012840E+02  0.16576366073E+03  0.77000000000E+02 0.  0.
   -5000001    1    1    2    0    0 -0.85228571579E+02 -0.89501148995E+02  0.14890164469E+03  0.20826681175E+03  0.77000000000E+02 0.  0.
<mgrwt>
<rscale>  0 0.29641840E+03</rscale>
<asrwt>0</asrwt>
<pdfrwt beam="1">  1        2 0.43010152E-01 0.29641840E+03</pdfrwt>
<pdfrwt beam="2">  1       -2 0.10422772E-01 0.29641840E+03</pdfrwt>
<totfact> 0.73034144E+03</totfact>
</mgrwt>
</event>
<event>
 4    1  0.4950349E-004  0.2376473E+03  0.7818608E-02  0.1121370E+00
         -2   -1    0    0    0  501 -0.00000000000E+00  0.00000000000E+00  0.11494636904E+02  0.11494637187E+02  0.25500000000E-02 0. -1.
          2   -1    0    0  501    0  0.00000000000E+00 -0.00000000000E+00 -0.12283169068E+04  0.12283169068E+04  0.25500000000E-02 0.  1.
    5000001    1    1    2    0    0 -0.82432777153E+02 -0.45743520574E+01 -0.80179106218E+03  0.80969994124E+03  0.77000000000E+02 0.  0.
   -5000001    1    1    2    0    0  0.82432777153E+02  0.45743520574E+01 -0.41503120772E+03  0.43011160275E+03  0.77000000000E+02 0.  0.
<mgrwt>
<rscale>  0 0.23764728E+03</rscale>
<asrwt>0</asrwt>
<pdfrwt beam="1">  1        2 0.17547376E+00 0.23764728E+03</pdfrwt>
<pdfrwt beam="2">  1       -2 0.16420918E-02 0.23764728E+03</pdfrwt>
<totfact> 0.22139888E+04</totfact>
</mgrwt>
</event>
<event>
 4    1  0.4950349E-004  0.2427386E+03  0.7818608E-02  0.1117982E+00
          2   -1    0    0  501    0  0.00000000000E+00  0.00000000000E+00  0.23204660351E+03  0.23204660352E+03  0.25500000000E-02 0.  1.
         -2   -1    0    0    0  501 -0.00000000000E+00 -0.00000000000E+00 -0.63480831657E+02  0.63480831708E+02  0.25500000000E-02 0. -1.
    5000001    1    1    2    0    0 -0.78632286083E+02  0.50403316961E+02  0.73531803141E+02  0.14163141194E+03  0.77000000000E+02 0.  0.
   -5000001    1    1    2    0    0  0.78632286083E+02 -0.50403316961E+02  0.95033968710E+02  0.15389602329E+03  0.77000000000E+02 0.  0.
<mgrwt>
<rscale>  0 0.24273864E+03</rscale>
<asrwt>0</asrwt>
<pdfrwt beam="1">  1        2 0.33149514E-01 0.24273864E+03</pdfrwt>
<pdfrwt beam="2">  1       -2 0.90686904E-02 0.24273864E+03</pdfrwt>
<totfact> 0.11961590E+04</totfact>
</mgrwt>
</event>
<event>
 4    1  0.4950349E-004  0.1843099E+03  0.7818608E-02  0.1163696E+00
          2   -1    0    0  501    0  0.00000000000E+00  0.00000000000E+00  0.76966700451E+02  0.76966700493E+02  0.25500000000E-02 0.  1.
         -2   -1    0    0    0  501 -0.00000000000E+00 -0.00000000000E+00 -0.11034036623E+03  0.11034036626E+03  0.25500000000E-02 0. -1.
    5000001    1    1    2    0    0  0.37940268389E+02 -0.12495311431E+02 -0.48304447470E+02  0.99287040537E+02  0.77000000000E+02 0.  0.
   -5000001    1    1    2    0    0 -0.37940268389E+02  0.12495311431E+02  0.14930781690E+02  0.88020026216E+02  0.77000000000E+02 0.  0.
<mgrwt>
<rscale>  0 0.18430989E+03</rscale>
<asrwt>0</asrwt>
<pdfrwt beam="1">  1        2 0.10995243E-01 0.18430989E+03</pdfrwt>
<pdfrwt beam="2">  1       -2 0.15762909E-01 0.18430989E+03</pdfrwt>
<totfact> 0.17136113E+04</totfact>
</mgrwt>
</event>
<event>
 4    1  0.4950349E-004  0.4852018E+03  0.7818608E-02  0.1017715E+00
         -2   -1    0    0    0  501 -0.00000000000E+00  0.00000000000E+00  0.13506635081E+03  0.13506635083E+03  0.25500000000E-02 0. -1.
          2   -1    0    0  501    0  0.00000000000E+00 -0.00000000000E+00 -0.43575025179E+03  0.43575025179E+03  0.25500000000E-02 0.  1.
    5000001    1    1    2    0    0 -0.16067495920E+03  0.58127478416E+02  0.30888745130E+02  0.18994304630E+03  0.77000000000E+02 0.  0.
   -5000001    1    1    2    0    0  0.16067495920E+03 -0.58127478416E+02 -0.33157264611E+03  0.38087355633E+03  0.77000000000E+02 0.  0.
<mgrwt>
<rscale>  0 0.48520180E+03</rscale>
<asrwt>0</asrwt>
<pdfrwt beam="1">  1        2 0.62250035E-01 0.48520180E+03</pdfrwt>
<pdfrwt beam="2">  1       -2 0.19295193E-01 0.48520180E+03</pdfrwt>
<totfact> 0.17757825E+03</totfact>
</mgrwt>
</event>
<event>
 4    1  0.4950349E-004  0.2787277E+03  0.7818608E-02  0.1096386E+00
         -2   -1    0    0    0  501 -0.00000000000E+00  0.00000000000E+00  0.21070487272E+02  0.21070487426E+02  0.25500000000E-02 0. -1.
          2   -1    0    0  501    0  0.00000000000E+00 -0.00000000000E+00 -0.92177651527E+03  0.92177651527E+03  0.25500000000E-02 0.  1.
    5000001    1    1    2    0    0  0.87141214130E+02 -0.19506083675E+02 -0.70165693233E+03  0.71149527699E+03  0.77000000000E+02 0.  0.
   -5000001    1    1    2    0    0 -0.87141214130E+02  0.19506083675E+02 -0.19904909567E+03  0.23135172571E+03  0.77000000000E+02 0.  0.
<mgrwt>
<rscale>  0 0.27872768E+03</rscale>
<asrwt>0</asrwt>
<pdfrwt beam="1">  1        2 0.13168233E+00 0.27872768E+03</pdfrwt>
<pdfrwt beam="2">  1       -2 0.30100702E-02 0.27872768E+03</pdfrwt>
<totfact> 0.13656304E+04</totfact>
</mgrwt>
</event>
<event>
 4    1  0.4950349E-004  0.2299609E+03  0.7818608E-02  0.1126667E+00
          2   -1    0    0  501    0  0.00000000000E+00  0.00000000000E+00  0.34225513009E+04  0.34225513009E+04  0.25500000000E-02 0.  1.
         -2   -1    0    0    0  501 -0.00000000000E+00 -0.00000000000E+00 -0.38627629550E+01  0.38627637967E+01  0.25500000000E-02 0. -1.
    5000001    1    1    2    0    0  0.18691882295E+02  0.76658710177E+02  0.12229649783E+04  0.12279243798E+04  0.77000000000E+02 0.  0.
   -5000001    1    1    2    0    0 -0.18691882295E+02 -0.76658710177E+02  0.21957235597E+04  0.21984896849E+04  0.77000000000E+02 0.  0.
<mgrwt>
<rscale>  0 0.22996092E+03</rscale>
<asrwt>0</asrwt>
<pdfrwt beam="1">  1        2 0.48893361E+00 0.22996092E+03</pdfrwt>
<pdfrwt beam="2">  1       -2 0.55182592E-03 0.22996092E+03</pdfrwt>
<totfact> 0.82089084E+03</totfact>
</mgrwt>
</event>
<event>
 4    1  0.4950349E-004  0.1685730E+03  0.7818608E-02  0.1179344E+00
         -2   -1    0    0    0  501 -0.00000000000E+00  0.00000000000E+00  0.54603002395E+02  0.54603002455E+02  0.25500000000E-02 0. -1.
          2   -1    0    0  501    0  0.00000000000E+00 -0.00000000000E+00 -0.13010667610E+03  0.13010667612E+03  0.25500000000E-02 0.  1.
    5000001    1    1    2    0    0 -0.23990727936E+02  0.19622297673E+02 -0.53804323821E+02  0.98916605556E+02  0.77000000000E+02 0.  0.
   -5000001    1    1    2    0    0  0.23990727936E+02 -0.19622297673E+02 -0.21699349879E+02  0.85793073019E+02  0.77000000000E+02 0.  0.
<mgrwt>
<rscale>  0 0.16857301E+03</rscale>
<asrwt>0</asrwt>
<pdfrwt beam="1">  1        2 0.18586668E-01 0.16857301E+03</pdfrwt>
<pdfrwt beam="2">  1       -2 0.78004290E-02 0.16857301E+03</pdfrwt>
<totfact> 0.28046051E+04</totfact>
</mgrwt>
</event>
<event>
 4    1  0.4950349E-004  0.1691310E+03  0.7818608E-02  0.1178757E+00
         -2   -1    0    0    0  501 -0.00000000000E+00  0.00000000000E+00  0.53839203703E+03  0.53839203704E+03  0.25500000000E-02 0. -1.
          2   -1    0    0  501    0  0.00000000000E+00 -0.00000000000E+00 -0.13282748570E+02  0.13282748815E+02  0.25500000000E-02 0.  1.
    5000001    1    1    2    0    0 -0.29852650489E+02  0.14354961174E+01  0.20338298893E+03  0.21951510558E+03  0.77000000000E+02 0.  0.
   -5000001    1    1    2    0    0  0.29852650489E+02 -0.14354961174E+01  0.32172629953E+03  0.33215968027E+03  0.77000000000E+02 0.  0.
<mgrwt>
<rscale>  0 0.16913103E+03</rscale>
<asrwt>0</asrwt>
<pdfrwt beam="1">  1        2 0.18975356E-02 0.16913103E+03</pdfrwt>
<pdfrwt beam="2">  1       -2 0.76913144E-01 0.16913103E+03</pdfrwt>
<totfact> 0.87720056E+03</totfact>
</mgrwt>
</event>
<event>
 4    1  0.4950349E-004  0.2040392E+03  0.7818608E-02  0.1146375E+00
         -2   -1    0    0    0  501 -0.00000000000E+00  0.00000000000E+00  0.62913873234E+01  0.62913878402E+01  0.25500000000E-02 0. -1.
          2   -1    0    0  501    0  0.00000000000E+00 -0.00000000000E+00 -0.16543253504E+04  0.16543253504E+04  0.25500000000E-02 0.  1.
    5000001    1    1    2    0    0  0.45343163418E+02  0.41869682363E+02 -0.61336275068E+03  0.62125030116E+03  0.77000000000E+02 0.  0.
   -5000001    1    1    2    0    0 -0.45343163418E+02 -0.41869682363E+02 -0.10346712124E+04  0.10393664371E+04  0.77000000000E+02 0.  0.
<mgrwt>
<rscale>  0 0.20403923E+03</rscale>
<asrwt>0</asrwt>
<pdfrwt beam="1">  1        2 0.23633191E+00 0.20403923E+03</pdfrwt>
<pdfrwt beam="2">  1       -2 0.89877071E-03 0.20403923E+03</pdfrwt>
<totfact> 0.31962178E+04</totfact>
</mgrwt>
</event>
<event>
 4    1  0.4950349E-004  0.2188026E+03  0.7818608E-02  0.1134779E+00
          2   -1    0    0  501    0  0.00000000000E+00  0.00000000000E+00  0.24230341933E+04  0.24230341933E+04  0.25500000000E-02 0.  1.
         -2   -1    0    0    0  501 -0.00000000000E+00 -0.00000000000E+00 -0.49395279852E+01  0.49395286434E+01  0.25500000000E-02 0. -1.
    5000001    1    1    2    0    0  0.27057400529E+01 -0.75812720343E+02  0.13963000945E+04  0.14004777198E+04  0.77000000000E+02 0.  0.
   -5000001    1    1    2    0    0 -0.27057400529E+01  0.75812720343E+02  0.10217945708E+04  0.10274960022E+04  0.77000000000E+02 0.  0.
<mgrwt>
<rscale>  0 0.21880261E+03</rscale>
<asrwt>0</asrwt>
<pdfrwt beam="1">  1        2 0.34614869E+00 0.21880261E+03</pdfrwt>
<pdfrwt beam="2">  1       -2 0.70564498E-03 0.21880261E+03</pdfrwt>
<totfact> 0.19229735E+04</totfact>
</mgrwt>
</event>
<event>
 4    1  0.4950349E-004  0.1698702E+03  0.7818608E-02  0.1177983E+00
          2   -1    0    0  501    0  0.00000000000E+00  0.00000000000E+00  0.32766864866E+03  0.32766864867E+03  0.25500000000E-02 0.  1.
         -2   -1    0    0    0  501 -0.00000000000E+00 -0.00000000000E+00 -0.22016057431E+02  0.22016057579E+02  0.25500000000E-02 0. -1.
    5000001    1    1    2    0    0 -0.66341624060E+01  0.34493314463E+02  0.13810075627E+03  0.16197104598E+03  0.77000000000E+02 0.  0.
   -5000001    1    1    2    0    0  0.66341624060E+01 -0.34493314463E+02  0.16755183496E+03  0.18771366027E+03  0.77000000000E+02 0.  0.
<mgrwt>
<rscale>  0 0.16987021E+03</rscale>
<asrwt>0</asrwt>
<pdfrwt beam="1">  1        2 0.46809805E-01 0.16987021E+03</pdfrwt>
<pdfrwt beam="2">  1       -2 0.31451512E-02 0.16987021E+03</pdfrwt>
<totfact> 0.40191365E+04</totfact>
</mgrwt>
</event>
<event>
 4    1  0.4950349E-004  0.4177060E+03  0.7818608E-02  0.1037816E+00
          2   -1    0    0  501    0  0.00000000000E+00  0.00000000000E+00  0.32597171695E+03  0.32597171696E+03  0.25500000000E-02 0.  1.
         -2   -1    0    0    0  501 -0.00000000000E+00 -0.00000000000E+00 -0.13381396183E+03  0.13381396185E+03  0.25500000000E-02 0. -1.
    5000001    1    1    2    0    0 -0.18584819618E+03 -0.53717474404E+02  0.11401276128E+03  0.23738792896E+03  0.77000000000E+02 0.  0.
   -5000001    1    1    2    0    0  0.18584819618E+03  0.53717474404E+02  0.78144993848E+02  0.22239774986E+03  0.77000000000E+02 0.  0.
<mgrwt>
<rscale>  0 0.41770596E+03</rscale>
<asrwt>0</asrwt>
<pdfrwt beam="1">  1        2 0.46567388E-01 0.41770596E+03</pdfrwt>
<pdfrwt beam="2">  1       -2 0.19116280E-01 0.41770596E+03</pdfrwt>
<totfact> 0.24790448E+03</totfact>
</mgrwt>
</event>
<event>
 4    1  0.4950349E-004  0.6664816E+03  0.7818608E-02  0.9776335E-01
         -2   -1    0    0    0  501 -0.00000000000E+00  0.00000000000E+00  0.12900401526E+03  0.12900401529E+03  0.25500000000E-02 0. -1.
          2   -1    0    0  501    0  0.00000000000E+00 -0.00000000000E+00 -0.86082159800E+03  0.86082159800E+03  0.25500000000E-02 0.  1.
    5000001    1    1    2    0    0 -0.18301513864E+03  0.13009017500E+03 -0.18553530033E+02  0.23809919798E+03  0.77000000000E+02 0.  0.
   -5000001    1    1    2    0    0  0.18301513864E+03 -0.13009017500E+03 -0.71326405270E+03  0.75172641531E+03  0.77000000000E+02 0.  0.
<mgrwt>
<rscale>  0 0.66648164E+03</rscale>
<asrwt>0</asrwt>
<pdfrwt beam="1">  1        2 0.12297451E+00 0.66648164E+03</pdfrwt>
<pdfrwt beam="2">  1       -2 0.18429146E-01 0.66648164E+03</pdfrwt>
<totfact> 0.85278688E+02</totfact>
</mgrwt>
</event>
<event>
 4    1  0.4950349E-004  0.3152097E+03  0.7818608E-02  0.1077875E+00
          2   -1    0    0  501    0  0.00000000000E+00  0.00000000000E+00  0.11840878416E+04  0.11840878416E+04  0.25500000000E-02 0.  1.
         -2   -1    0    0    0  501 -0.00000000000E+00 -0.00000000000E+00 -0.20977570606E+02  0.20977570761E+02  0.25500000000E-02 0. -1.
    5000001    1    1    2    0    0  0.67235716663E+02  0.11368487390E+03  0.43520662405E+03  0.46127941398E+03  0.77000000000E+02 0.  0.
   -5000001    1    1    2    0    0 -0.67235716663E+02 -0.11368487390E+03  0.72790364691E+03  0.74378599835E+03  0.77000000000E+02 0.  0.
<mgrwt>
<rscale>  0 0.31520969E+03</rscale>
<asrwt>0</asrwt>
<pdfrwt beam="1">  1        2 0.16915543E+00 0.31520969E+03</pdfrwt>
<pdfrwt beam="2">  1       -2 0.29967953E-02 0.31520969E+03</pdfrwt>
<totfact> 0.97269896E+03</totfact>
</mgrwt>
</event>
<event>
 4    1  0.4950349E-004  0.3898393E+03  0.7818608E-02  0.1047356E+00
          2   -1    0    0  501    0  0.00000000000E+00  0.00000000000E+00  0.19390411815E+03  0.19390411817E+03  0.25500000000E-02 0.  1.
         -2   -1    0    0    0  501 -0.00000000000E+00 -0.00000000000E+00 -0.19594049130E+03  0.19594049132E+03  0.25500000000E-02 0. -1.
    5000001    1    1    2    0    0 -0.87760695967E+02 -0.85152351156E+02 -0.13183207129E+03  0.19560561773E+03  0.77000000000E+02 0.  0.
   -5000001    1    1    2    0    0  0.87760695967E+02  0.85152351156E+02  0.12979569815E+03  0.19423899176E+03  0.77000000000E+02 0.  0.
<mgrwt>
<rscale>  0 0.38983929E+03</rscale>
<asrwt>0</asrwt>
<pdfrwt beam="1">  1        2 0.27700588E-01 0.38983929E+03</pdfrwt>
<pdfrwt beam="2">  1       -2 0.27991499E-01 0.38983929E+03</pdfrwt>
<totfact> 0.22398558E+03</totfact>
</mgrwt>
</event>
<event>
 4    1  0.4950349E-004  0.3059357E+03  0.7818608E-02  0.1082310E+00
          2   -1    0    0  501    0  0.00000000000E+00  0.00000000000E+00  0.71933350772E+03  0.71933350773E+03  0.25500000000E-02 0.  1.
         -2   -1    0    0    0  501 -0.00000000000E+00 -0.00000000000E+00 -0.32528951399E+02  0.32528951499E+02  0.25500000000E-02 0. -1.
    5000001    1    1    2    0    0  0.36939213855E+02 -0.12000691123E+03  0.44485018366E+03  0.46860094982E+03  0.77000000000E+02 0.  0.
   -5000001    1    1    2    0    0 -0.36939213855E+02  0.12000691123E+03  0.24195437266E+03  0.28326150941E+03  0.77000000000E+02 0.  0.
<mgrwt>
<rscale>  0 0.30593571E+03</rscale>
<asrwt>0</asrwt>
<pdfrwt beam="1">  1        2 0.10276193E+00 0.30593571E+03</pdfrwt>
<pdfrwt beam="2">  1       -2 0.46469930E-02 0.30593571E+03</pdfrwt>
<totfact> 0.97289740E+03</totfact>
</mgrwt>
</event>
<event>
 4    1  0.4950349E-004  0.2114239E+03  0.7818608E-02  0.1140443E+00
          2   -1    0    0  501    0  0.00000000000E+00  0.00000000000E+00  0.19751428276E+03  0.19751428278E+03  0.25500000000E-02 0.  1.
         -2   -1    0    0    0  501 -0.00000000000E+00 -0.00000000000E+00 -0.56578288685E+02  0.56578288743E+02  0.25500000000E-02 0. -1.
    5000001    1    1    2    0    0  0.55919671367E+02  0.81230110297E+00  0.15153783728E+02  0.96365484694E+02  0.77000000000E+02 0.  0.
   -5000001    1    1    2    0    0 -0.55919671367E+02 -0.81230110297E+00  0.12578221035E+03  0.15772708682E+03  0.77000000000E+02 0.  0.
<mgrwt>
<rscale>  0 0.21142394E+03</rscale>
<asrwt>0</asrwt>
<pdfrwt beam="1">  1        2 0.28216326E-01 0.21142394E+03</pdfrwt>
<pdfrwt beam="2">  1       -2 0.80826127E-02 0.21142394E+03</pdfrwt>
<totfact> 0.16933272E+04</totfact>
</mgrwt>
</event>
<event>
 4    1  0.4950349E-004  0.2734207E+03  0.7818608E-02  0.1099338E+00
          2   -1    0    0  501    0  0.00000000000E+00  0.00000000000E+00  0.11754913616E+04  0.11754913616E+04  0.25500000000E-02 0.  1.
         -2   -1    0    0    0  501 -0.00000000000E+00 -0.00000000000E+00 -0.15899498095E+02  0.15899498299E+02  0.25500000000E-02 0. -1.
    5000001    1    1    2    0    0 -0.32864736004E+02 -0.92610645112E+02  0.33703615930E+03  0.35941507361E+03  0.77000000000E+02 0.  0.
   -5000001    1    1    2    0    0  0.32864736004E+02  0.92610645112E+02  0.82255570420E+03  0.83197578629E+03  0.77000000000E+02 0.  0.
<mgrwt>
<rscale>  0 0.27342072E+03</rscale>
<asrwt>0</asrwt>
<pdfrwt beam="1">  1        2 0.16792734E+00 0.27342072E+03</pdfrwt>
<pdfrwt beam="2">  1       -2 0.22713569E-02 0.27342072E+03</pdfrwt>
<totfact> 0.14775538E+04</totfact>
</mgrwt>
</event>
<event>
 4    1  0.4950349E-004  0.1822337E+03  0.7818608E-02  0.1165659E+00
         -2   -1    0    0    0  501 -0.00000000000E+00  0.00000000000E+00  0.46561794973E+01  0.46561801956E+01  0.25500000000E-02 0. -1.
          2   -1    0    0  501    0  0.00000000000E+00 -0.00000000000E+00 -0.17830671688E+04  0.17830671688E+04  0.25500000000E-02 0.  1.
    5000001    1    1    2    0    0 -0.28203230736E+02 -0.30028375771E+02 -0.63411457794E+03  0.64009954189E+03  0.77000000000E+02 0.  0.
   -5000001    1    1    2    0    0  0.28203230736E+02  0.30028375771E+02 -0.11442964113E+04  0.11476238071E+04  0.77000000000E+02 0.  0.
<mgrwt>
<rscale>  0 0.18223371E+03</rscale>
<asrwt>0</asrwt>
<pdfrwt beam="1">  1        2 0.25472344E+00 0.18223371E+03</pdfrwt>
<pdfrwt beam="2">  1       -2 0.66516969E-03 0.18223371E+03</pdfrwt>
<totfact> 0.42335855E+04</totfact>
</mgrwt>
</event>
<event>
 4    1  0.4950349E-004  0.2164727E+03  0.7818608E-02  0.1136540E+00
          2   -1    0    0  501    0  0.00000000000E+00  0.00000000000E+00  0.15739779507E+04  0.15739779507E+04  0.25500000000E-02 0.  1.
         -2   -1    0    0    0  501 -0.00000000000E+00 -0.00000000000E+00 -0.74429905898E+01  0.74429910266E+01  0.25500000000E-02 0. -1.
    5000001    1    1    2    0    0  0.98548420132E+01  0.74458289195E+02  0.69531429694E+03  0.70358519475E+03  0.77000000000E+02 0.  0.
   -5000001    1    1    2    0    0 -0.98548420132E+01 -0.74458289195E+02  0.87122066319E+03  0.87783574700E+03  0.77000000000E+02 0.  0.
<mgrwt>
<rscale>  0 0.21647266E+03</rscale>
<asrwt>0</asrwt>
<pdfrwt beam="1">  1        2 0.22485414E+00 0.21647266E+03</pdfrwt>
<pdfrwt beam="2">  1       -2 0.10632837E-02 0.21647266E+03</pdfrwt>
<totfact> 0.27558648E+04</totfact>
</mgrwt>
</event>
<event>
 4    1  0.4950349E-004  0.3573180E+03  0.7818608E-02  0.1059651E+00
         -2   -1    0    0    0  501 -0.00000000000E+00  0.00000000000E+00  0.14136075206E+02  0.14136075436E+02  0.25500000000E-02 0. -1.
          2   -1    0    0  501    0  0.00000000000E+00 -0.00000000000E+00 -0.22579847390E+04  0.22579847390E+04  0.25500000000E-02 0.  1.
    5000001    1    1    2    0    0  0.14623901772E+03  0.32299885813E+02 -0.74247223132E+03  0.76132985440E+03  0.77000000000E+02 0.  0.
   -5000001    1    1    2    0    0 -0.14623901772E+03 -0.32299885813E+02 -0.15013764325E+04  0.15107909600E+04  0.77000000000E+02 0.  0.
<mgrwt>
<rscale>  0 0.35731802E+03</rscale>
<asrwt>0</asrwt>
<pdfrwt beam="1">  1        2 0.32256902E+00 0.35731802E+03</pdfrwt>
<pdfrwt beam="2">  1       -2 0.20194408E-02 0.35731802E+03</pdfrwt>
<totfact> 0.50307324E+03</totfact>
</mgrwt>
</event>
<event>
 4    1  0.4950349E-004  0.1873460E+03  0.7818608E-02  0.1160877E+00
          2   -1    0    0  501    0  0.00000000000E+00  0.00000000000E+00  0.36521282146E+02  0.36521282235E+02  0.25500000000E-02 0.  1.
         -2   -1    0    0    0  501 -0.00000000000E+00 -0.00000000000E+00 -0.24026067117E+03  0.24026067118E+03  0.25500000000E-02 0. -1.
    5000001    1    1    2    0    0 -0.16003074332E+01  0.32527044245E+02 -0.39450291405E+02  0.92444010532E+02  0.77000000000E+02 0.  0.
   -5000001    1    1    2    0    0  0.16003074332E+01 -0.32527044245E+02 -0.16428909762E+03  0.18433794288E+03  0.77000000000E+02 0.  0.
<mgrwt>
<rscale>  0 0.18734597E+03</rscale>
<asrwt>0</asrwt>
<pdfrwt beam="1">  1        2 0.52173262E-02 0.18734597E+03</pdfrwt>
<pdfrwt beam="2">  1       -2 0.34322952E-01 0.18734597E+03</pdfrwt>
<totfact> 0.11395830E+04</totfact>
</mgrwt>
</event>
<event>
 4    1  0.4950349E-004  0.1890277E+03  0.7818608E-02  0.1159341E+00
          2   -1    0    0  501    0  0.00000000000E+00  0.00000000000E+00  0.12699312543E+04  0.12699312543E+04  0.25500000000E-02 0.  1.
         -2   -1    0    0    0  501 -0.00000000000E+00 -0.00000000000E+00 -0.70341370886E+01  0.70341375508E+01  0.25500000000E-02 0. -1.
    5000001    1    1    2    0    0 -0.11946816393E+02 -0.52356481291E+02  0.70543319776E+03  0.71165224939E+03  0.77000000000E+02 0.  0.
   -5000001    1    1    2    0    0  0.11946816393E+02  0.52356481291E+02  0.55746391942E+03  0.56531314243E+03  0.77000000000E+02 0.  0.
<mgrwt>
<rscale>  0 0.18902773E+03</rscale>
<asrwt>0</asrwt>
<pdfrwt beam="1">  1        2 0.18141887E+00 0.18902773E+03</pdfrwt>
<pdfrwt beam="2">  1       -2 0.10048761E-02 0.18902773E+03</pdfrwt>
<totfact> 0.42295712E+04</totfact>
</mgrwt>
</event>
<event>
 4    1  0.4950349E-004  0.4002515E+03  0.7818608E-02  0.1043693E+00
          2   -1    0    0  501    0  0.00000000000E+00  0.00000000000E+00  0.96146041474E+03  0.96146041475E+03  0.25500000000E-02 0.  1.
         -2   -1    0    0    0  501 -0.00000000000E+00 -0.00000000000E+00 -0.41655710695E+02  0.41655710773E+02  0.25500000000E-02 0. -1.
    5000001    1    1    2    0    0 -0.11811819394E+03  0.14188172256E+03  0.44425386000E+03  0.48720921898E+03  0.77000000000E+02 0.  0.
   -5000001    1    1    2    0    0  0.11811819394E+03 -0.14188172256E+03  0.47555084405E+03  0.51590690654E+03  0.77000000000E+02 0.  0.
<mgrwt>
<rscale>  0 0.40025151E+03</rscale>
<asrwt>0</asrwt>
<pdfrwt beam="1">  1        2 0.13735148E+00 0.40025151E+03</pdfrwt>
<pdfrwt beam="2">  1       -2 0.59508162E-02 0.40025151E+03</pdfrwt>
<totfact> 0.46323115E+03</totfact>
</mgrwt>
</event>
<event>
 4    1  0.4950349E-004  0.3370902E+03  0.7818608E-02  0.1068042E+00
         -2   -1    0    0    0  501 -0.00000000000E+00  0.00000000000E+00  0.54575432766E+02  0.54575432826E+02  0.25500000000E-02 0. -1.
          2   -1    0    0  501    0  0.00000000000E+00 -0.00000000000E+00 -0.52051721158E+03  0.52051721159E+03  0.25500000000E-02 0.  1.
    5000001    1    1    2    0    0 -0.84272892075E+02  0.92167605876E+02 -0.91444178476E+02  0.17288095814E+03  0.77000000000E+02 0.  0.
   -5000001    1    1    2    0    0  0.84272892075E+02 -0.92167605876E+02 -0.37449760034E+03  0.40221168627E+03  0.77000000000E+02 0.  0.
<mgrwt>
<rscale>  0 0.33709021E+03</rscale>
<asrwt>0</asrwt>
<pdfrwt beam="1">  1        2 0.74359599E-01 0.33709021E+03</pdfrwt>
<pdfrwt beam="2">  1       -2 0.77964907E-02 0.33709021E+03</pdfrwt>
<totfact> 0.63885870E+03</totfact>
</mgrwt>
</event>
<event>
 4    1  0.4950349E-004  0.2840925E+03  0.7818608E-02  0.1093474E+00
          2   -1    0    0  501    0  0.00000000000E+00  0.00000000000E+00  0.11084142192E+04  0.11084142192E+04  0.25500000000E-02 0.  1.
         -2   -1    0    0    0  501 -0.00000000000E+00 -0.00000000000E+00 -0.18203609751E+02  0.18203609930E+02  0.25500000000E-02 0. -1.
    5000001    1    1    2    0    0  0.11209016894E+03 -0.18517404385E+02  0.39988155484E+03  0.42277814293E+03  0.77000000000E+02 0.  0.
   -5000001    1    1    2    0    0 -0.11209016894E+03  0.18517404385E+02  0.69032905456E+03  0.70383968616E+03  0.77000000000E+02 0.  0.
<mgrwt>
<rscale>  0 0.28409252E+03</rscale>
<asrwt>0</asrwt>
<pdfrwt beam="1">  1        2 0.15834493E+00 0.28409252E+03</pdfrwt>
<pdfrwt beam="2">  1       -2 0.26005150E-02 0.28409252E+03</pdfrwt>
<totfact> 0.13193835E+04</totfact>
</mgrwt>
</event>
<event>
 4    1  0.4950349E-004  0.2306915E+03  0.7818608E-02  0.1126154E+00
         -2   -1    0    0    0  501 -0.00000000000E+00  0.00000000000E+00  0.26549849137E+02  0.26549849259E+02  0.25500000000E-02 0. -1.
          2   -1    0    0  501    0  0.00000000000E+00 -0.00000000000E+00 -0.50111945833E+03  0.50111945833E+03  0.25500000000E-02 0.  1.
    5000001    1    1    2    0    0  0.37502023848E+02  0.77257755559E+02 -0.23569438078E+03  0.26240427534E+03  0.77000000000E+02 0.  0.
   -5000001    1    1    2    0    0 -0.37502023848E+02 -0.77257755559E+02 -0.23887522841E+03  0.26526503225E+03  0.77000000000E+02 0.  0.
<mgrwt>
<rscale>  0 0.23069153E+03</rscale>
<asrwt>0</asrwt>
<pdfrwt beam="1">  1        2 0.71588488E-01 0.23069153E+03</pdfrwt>
<pdfrwt beam="2">  1       -2 0.37928359E-02 0.23069153E+03</pdfrwt>
<totfact> 0.19723104E+04</totfact>
</mgrwt>
</event>
<event>
 4    1  0.4950349E-004  0.2513405E+03  0.7818608E-02  0.1112461E+00
         -2   -1    0    0    0  501 -0.00000000000E+00  0.00000000000E+00  0.14559021753E+02  0.14559021977E+02  0.25500000000E-02 0. -1.
          2   -1    0    0  501    0  0.00000000000E+00 -0.00000000000E+00 -0.10847576869E+04  0.10847576869E+04  0.25500000000E-02 0.  1.
    5000001    1    1    2    0    0  0.90999244112E+02 -0.26352078386E+02 -0.40471002823E+03  0.42272272403E+03  0.77000000000E+02 0.  0.
   -5000001    1    1    2    0    0 -0.90999244112E+02  0.26352078386E+02 -0.66548863688E+03  0.67659398481E+03  0.77000000000E+02 0.  0.
<mgrwt>
<rscale>  0 0.25134049E+03</rscale>
<asrwt>0</asrwt>
<pdfrwt beam="1">  1        2 0.15496533E+00 0.25134049E+03</pdfrwt>
<pdfrwt beam="2">  1       -2 0.20798609E-02 0.25134049E+03</pdfrwt>
<totfact> 0.18828932E+04</totfact>
</mgrwt>
</event>
<event>
 4    1  0.4950349E-004  0.1828581E+03  0.7818608E-02  0.1165065E+00
         -2   -1    0    0    0  501 -0.00000000000E+00  0.00000000000E+00  0.25847559643E+02  0.25847559769E+02  0.25500000000E-02 0. -1.
          2   -1    0    0  501    0  0.00000000000E+00 -0.00000000000E+00 -0.32340644784E+03  0.32340644785E+03  0.25500000000E-02 0.  1.
    5000001    1    1    2    0    0  0.21797504216E+02  0.44091774210E+02 -0.15512898655E+03  0.18003671351E+03  0.77000000000E+02 0.  0.
   -5000001    1    1    2    0    0 -0.21797504216E+02 -0.44091774210E+02 -0.14242990164E+03  0.16921729411E+03  0.77000000000E+02 0.  0.
<mgrwt>
<rscale>  0 0.18285806E+03</rscale>
<asrwt>0</asrwt>
<pdfrwt beam="1">  1        2 0.46200919E-01 0.18285806E+03</pdfrwt>
<pdfrwt beam="2">  1       -2 0.36925087E-02 0.18285806E+03</pdfrwt>
<totfact> 0.32345189E+04</totfact>
</mgrwt>
</event>
<event>
 4    1  0.4950349E-004  0.2187016E+03  0.7818608E-02  0.1134855E+00
         -2   -1    0    0    0  501 -0.00000000000E+00  0.00000000000E+00  0.99237966205E+01  0.99237969481E+01  0.25500000000E-02 0. -1.
          2   -1    0    0  501    0  0.00000000000E+00 -0.00000000000E+00 -0.12049413670E+04  0.12049413670E+04  0.25500000000E-02 0.  1.
    5000001    1    1    2    0    0  0.41057213602E+02 -0.42692614482E+02 -0.31864181943E+03  0.33312154420E+03  0.77000000000E+02 0.  0.
   -5000001    1    1    2    0    0 -0.41057213602E+02  0.42692614482E+02 -0.87637575097E+03  0.88174361977E+03  0.77000000000E+02 0.  0.
<mgrwt>
<rscale>  0 0.21870156E+03</rscale>
<asrwt>0</asrwt>
<pdfrwt beam="1">  1        2 0.17213439E+00 0.21870156E+03</pdfrwt>
<pdfrwt beam="2">  1       -2 0.14176860E-02 0.21870156E+03</pdfrwt>
<totfact> 0.28101441E+04</totfact>
</mgrwt>
</event>
<event>
 4    1  0.4950349E-004  0.2333823E+03  0.7818608E-02  0.1124282E+00
         -2   -1    0    0    0  501 -0.00000000000E+00  0.00000000000E+00  0.12036697540E+02  0.12036697810E+02  0.25500000000E-02 0. -1.
          2   -1    0    0  501    0  0.00000000000E+00 -0.00000000000E+00 -0.11312761406E+04  0.11312761406E+04  0.25500000000E-02 0.  1.
    5000001    1    1    2    0    0  0.86375413677E+02  0.12638935712E+02 -0.59983060517E+03  0.61102062951E+03  0.77000000000E+02 0.  0.
   -5000001    1    1    2    0    0 -0.86375413677E+02 -0.12638935712E+02 -0.51940883786E+03  0.53229220887E+03  0.77000000000E+02 0.  0.
<mgrwt>
<rscale>  0 0.23338234E+03</rscale>
<asrwt>0</asrwt>
<pdfrwt beam="1">  1        2 0.16161081E+00 0.23338234E+03</pdfrwt>
<pdfrwt beam="2">  1       -2 0.17195290E-02 0.23338234E+03</pdfrwt>
<totfact> 0.23351511E+04</totfact>
</mgrwt>
</event>
<event>
 4    1  0.4950349E-004  0.4442485E+03  0.7818608E-02  0.1029451E+00
          2   -1    0    0  501    0  0.00000000000E+00  0.00000000000E+00  0.79045004327E+02  0.79045004368E+02  0.25500000000E-02 0.  1.
         -2   -1    0    0    0  501 -0.00000000000E+00 -0.00000000000E+00 -0.62419112349E+03  0.62419112350E+03  0.25500000000E-02 0. -1.
    5000001    1    1    2    0    0  0.18709543678E+03  0.21946122352E+02 -0.13166253264E+03  0.24238472982E+03  0.77000000000E+02 0.  0.
   -5000001    1    1    2    0    0 -0.18709543678E+03 -0.21946122352E+02 -0.41348358653E+03  0.46085139804E+03  0.77000000000E+02 0.  0.
<mgrwt>
<rscale>  0 0.44424853E+03</rscale>
<asrwt>0</asrwt>
<pdfrwt beam="1">  1        2 0.11292144E-01 0.44424853E+03</pdfrwt>
<pdfrwt beam="2">  1       -2 0.89170158E-01 0.44424853E+03</pdfrwt>
<totfact> 0.61925356E+02</totfact>
</mgrwt>
</event>
<event>
 4    1  0.4950349E-004  0.3731400E+03  0.7818608E-02  0.1053499E+00
         -2   -1    0    0    0  501 -0.00000000000E+00  0.00000000000E+00  0.16834404719E+03  0.16834404721E+03  0.25500000000E-02 0. -1.
          2   -1    0    0  501    0  0.00000000000E+00 -0.00000000000E+00 -0.20676916538E+03  0.20676916539E+03  0.25500000000E-02 0.  1.
    5000001    1    1    2    0    0  0.14004291628E+02  0.94298248323E+02  0.12221216015E+03  0.17306961579E+03  0.77000000000E+02 0.  0.
   -5000001    1    1    2    0    0 -0.14004291628E+02 -0.94298248323E+02 -0.16063727834E+03  0.20204359681E+03  0.77000000000E+02 0.  0.
<mgrwt>
<rscale>  0 0.37313996E+03</rscale>
<asrwt>0</asrwt>
<pdfrwt beam="1">  1        2 0.29538452E-01 0.37313996E+03</pdfrwt>
<pdfrwt beam="2">  1       -2 0.24049149E-01 0.37313996E+03</pdfrwt>
<totfact> 0.27333217E+03</totfact>
</mgrwt>
</event>
<event>
 4    1  0.4950349E-004  0.1810274E+03  0.7818608E-02  0.1166812E+00
         -2   -1    0    0    0  501 -0.00000000000E+00  0.00000000000E+00  0.19775385134E+02  0.19775385298E+02  0.25500000000E-02 0. -1.
          2   -1    0    0  501    0  0.00000000000E+00 -0.00000000000E+00 -0.41428941180E+03  0.41428941181E+03  0.25500000000E-02 0.  1.
    5000001    1    1    2    0    0  0.39981466576E+02  0.22596438255E+02 -0.16744183415E+03  0.18993389512E+03  0.77000000000E+02 0.  0.
   -5000001    1    1    2    0    0 -0.39981466576E+02 -0.22596438255E+02 -0.22707219252E+03  0.24413090199E+03  0.77000000000E+02 0.  0.
<mgrwt>
<rscale>  0 0.18102743E+03</rscale>
<asrwt>0</asrwt>
<pdfrwt beam="1">  1        2 0.59184196E-01 0.18102743E+03</pdfrwt>
<pdfrwt beam="2">  1       -2 0.28250553E-02 0.18102743E+03</pdfrwt>
<totfact> 0.36872436E+04</totfact>
</mgrwt>
</event>
<event>
 4    1  0.4950349E-004  0.2059239E+03  0.7818608E-02  0.1144835E+00
          2   -1    0    0  501    0  0.00000000000E+00  0.00000000000E+00  0.11164317634E+04  0.11164317634E+04  0.25500000000E-02 0.  1.
         -2   -1    0    0    0  501 -0.00000000000E+00 -0.00000000000E+00 -0.94955723132E+01  0.94955726556E+01  0.25500000000E-02 0. -1.
    5000001    1    1    2    0    0 -0.60557849751E+02  0.30122158216E+02  0.49946207665E+03  0.50986857483E+03  0.77000000000E+02 0.  0.
   -5000001    1    1    2    0    0  0.60557849751E+02 -0.30122158216E+02  0.60747411442E+03  0.61605876122E+03  0.77000000000E+02 0.  0.
<mgrwt>
<rscale>  0 0.20592386E+03</rscale>
<asrwt>0</asrwt>
<pdfrwt beam="1">  1        2 0.15949016E+00 0.20592386E+03</pdfrwt>
<pdfrwt beam="2">  1       -2 0.13565112E-02 0.20592386E+03</pdfrwt>
<totfact> 0.33356453E+04</totfact>
</mgrwt>
</event>
<event>
 4    1  0.4950349E-004  0.3762290E+03  0.7818608E-02  0.1052336E+00
         -2   -1    0    0    0  501 -0.00000000000E+00  0.00000000000E+00  0.12553815460E+03  0.12553815462E+03  0.25500000000E-02 0. -1.
          2   -1    0    0  501    0  0.00000000000E+00 -0.00000000000E+00 -0.28188287838E+03  0.28188287840E+03  0.25500000000E-02 0.  1.
    5000001    1    1    2    0    0  0.14184616122E+03 -0.95870480901E+02 -0.91282867007E+02  0.20874157317E+03  0.77000000000E+02 0.  0.
   -5000001    1    1    2    0    0 -0.14184616122E+03  0.95870480901E+02 -0.65061856778E+02  0.19867945985E+03  0.77000000000E+02 0.  0.
<mgrwt>
<rscale>  0 0.37622895E+03</rscale>
<asrwt>0</asrwt>
<pdfrwt beam="1">  1        2 0.40268982E-01 0.37622895E+03</pdfrwt>
<pdfrwt beam="2">  1       -2 0.17934022E-01 0.37622895E+03</pdfrwt>
<totfact> 0.32331201E+03</totfact>
</mgrwt>
</event>
<event>
 4    1  0.4950349E-004  0.1698656E+03  0.7818608E-02  0.1177988E+00
         -2   -1    0    0    0  501 -0.00000000000E+00  0.00000000000E+00  0.51024519025E+02  0.51024519089E+02  0.25500000000E-02 0. -1.
          2   -1    0    0  501    0  0.00000000000E+00 -0.00000000000E+00 -0.14137483292E+03  0.14137483295E+03  0.25500000000E-02 0.  1.
    5000001    1    1    2    0    0 -0.13114097424E+02  0.32505411598E+02 -0.53651295129E+02  0.10018005192E+03  0.77000000000E+02 0.  0.
   -5000001    1    1    2    0    0  0.13114097424E+02 -0.32505411598E+02 -0.36699018769E+02  0.92219300111E+02  0.77000000000E+02 0.  0.
<mgrwt>
<rscale>  0 0.16986563E+03</rscale>
<asrwt>0</asrwt>
<pdfrwt beam="1">  1        2 0.20196405E-01 0.16986563E+03</pdfrwt>
<pdfrwt beam="2">  1       -2 0.72892171E-02 0.16986563E+03</pdfrwt>
<totfact> 0.28347984E+04</totfact>
</mgrwt>
</event>
<event>
 4    1  0.4950349E-004  0.2372136E+03  0.7818608E-02  0.1121663E+00
         -2   -1    0    0    0  501 -0.00000000000E+00  0.00000000000E+00  0.17652700983E+02  0.17652701168E+02  0.25500000000E-02 0. -1.
          2   -1    0    0  501    0  0.00000000000E+00 -0.00000000000E+00 -0.79690734306E+03  0.79690734306E+03  0.25500000000E-02 0.  1.
    5000001    1    1    2    0    0 -0.27312279280E+02 -0.38286035841E+02 -0.12526884965E+03  0.15437961599E+03  0.77000000000E+02 0.  0.
   -5000001    1    1    2    0    0  0.27312279280E+02  0.38286035841E+02 -0.65398579243E+03  0.66018042824E+03  0.77000000000E+02 0.  0.
<mgrwt>
<rscale>  0 0.23721355E+03</rscale>
<asrwt>0</asrwt>
<pdfrwt beam="1">  1        2 0.11384388E+00 0.23721355E+03</pdfrwt>
<pdfrwt beam="2">  1       -2 0.25218150E-02 0.23721355E+03</pdfrwt>
<totfact> 0.21192655E+04</totfact>
</mgrwt>
</event>
<event>
 4    1  0.4950349E-004  0.1687183E+03  0.7818608E-02  0.1179191E+00
          2   -1    0    0  501    0  0.00000000000E+00  0.00000000000E+00  0.39820190426E+03  0.39820190427E+03  0.25500000000E-02 0.  1.
         -2   -1    0    0    0  501 -0.00000000000E+00 -0.00000000000E+00 -0.17871509671E+02  0.17871509853E+02  0.25500000000E-02 0. -1.
    5000001    1    1    2    0    0 -0.32812274273E+02  0.10013443405E+02  0.18215333794E+03  0.20071311097E+03  0.77000000000E+02 0.  0.
   -5000001    1    1    2    0    0  0.32812274273E+02 -0.10013443405E+02  0.19817705664E+03  0.21536030315E+03  0.77000000000E+02 0.  0.
<mgrwt>
<rscale>  0 0.16871834E+03</rscale>
<asrwt>0</asrwt>
<pdfrwt beam="1">  1        2 0.56885988E-01 0.16871834E+03</pdfrwt>
<pdfrwt beam="2">  1       -2 0.25530727E-02 0.16871834E+03</pdfrwt>
<totfact> 0.44351231E+04</totfact>
</mgrwt>
</event>
<event>
 4    1  0.4950349E-004  0.3095378E+03  0.7818608E-02  0.1080568E+00
         -2   -1    0    0    0  501 -0.00000000000E+00  0.00000000000E+00  0.83563136859E+01  0.83563140750E+01  0.25500000000E-02 0. -1.
          2   -1    0    0  501    0  0.00000000000E+00 -0.00000000000E+00 -0.28665054478E+04  0.28665054478E+04  0.25500000000E-02 0.  1.
    5000001    1    1    2    0    0  0.52197580294E+02  0.81026105814E+02 -0.56106447546E+03  0.57446685095E+03  0.77000000000E+02 0.  0.
   -5000001    1    1    2    0    0 -0.52197580294E+02 -0.81026105814E+02 -0.22970846586E+04  0.23003949109E+04  0.77000000000E+02 0.  0.
<mgrwt>
<rscale>  0 0.30953784E+03</rscale>
<asrwt>0</asrwt>
<pdfrwt beam="1">  1        2 0.40950015E+00 0.30953784E+03</pdfrwt>
<pdfrwt beam="2">  1       -2 0.11937610E-02 0.30953784E+03</pdfrwt>
<totfact> 0.53694728E+03</totfact>
</mgrwt>
</event>
<event>
 4    1  0.4950349E-004  0.1619881E+03  0.7818608E-02  0.1186470E+00
         -2   -1    0    0    0  501 -0.00000000000E+00  0.00000000000E+00  0.64299132306E+01  0.64299137362E+01  0.25500000000E-02 0. -1.
          2   -1    0    0  501    0  0.00000000000E+00 -0.00000000000E+00 -0.10202369635E+04  0.10202369635E+04  0.25500000000E-02 0.  1.
    5000001    1    1    2    0    0 -0.62398034797E+01  0.20518935696E+02 -0.58980034817E+03  0.59519191239E+03  0.77000000000E+02 0.  0.
   -5000001    1    1    2    0    0  0.62398034797E+01 -0.20518935696E+02 -0.42400670214E+03  0.43147496489E+03  0.77000000000E+02 0.  0.
<mgrwt>
<rscale>  0 0.16198809E+03</rscale>
<asrwt>0</asrwt>
<pdfrwt beam="1">  1        2 0.14574803E+00 0.16198809E+03</pdfrwt>
<pdfrwt beam="2">  1       -2 0.91855972E-03 0.16198809E+03</pdfrwt>
<totfact> 0.65017368E+04</totfact>
</mgrwt>
</event>
<event>
 4    1  0.4950349E-004  0.2491293E+03  0.7818608E-02  0.1113856E+00
          2   -1    0    0  501    0  0.00000000000E+00  0.00000000000E+00  0.81507774918E+03  0.81507774919E+03  0.25500000000E-02 0.  1.
         -2   -1    0    0    0  501 -0.00000000000E+00 -0.00000000000E+00 -0.19036649375E+02  0.19036649546E+02  0.25500000000E-02 0. -1.
    5000001    1    1    2    0    0 -0.41397291479E+02  0.55535605619E+02  0.16631210470E+03  0.19592512703E+03  0.77000000000E+02 0.  0.
   -5000001    1    1    2    0    0  0.41397291479E+02 -0.55535605619E+02  0.62972899511E+03  0.63818927170E+03  0.77000000000E+02 0.  0.
<mgrwt>
<rscale>  0 0.24912928E+03</rscale>
<asrwt>0</asrwt>
<pdfrwt beam="1">  1        2 0.11643970E+00 0.24912928E+03</pdfrwt>
<pdfrwt beam="2">  1       -2 0.27195209E-02 0.24912928E+03</pdfrwt>
<totfact> 0.18481809E+04</totfact>
</mgrwt>
</event>
<event>
 4    1  0.4950349E-004  0.2597161E+03  0.7818608E-02  0.1107314E+00
          2   -1    0    0  501    0  0.00000000000E+00  0.00000000000E+00  0.57470552632E+02  0.57470552689E+02  0.25500000000E-02 0.  1.
         -2   -1    0    0    0  501 -0.00000000000E+00 -0.00000000000E+00 -0.29342174785E+03  0.29342174786E+03  0.25500000000E-02 0. -1.
    5000001    1    1    2    0    0  0.48943089437E+02  0.83938514268E+02 -0.65771289928E+02  0.14034230567E+03  0.77000000000E+02 0.  0.
   -5000001    1    1    2    0    0 -0.48943089437E+02 -0.83938514268E+02 -0.17017990529E+03  0.21054999489E+03  0.77000000000E+02 0.  0.
<mgrwt>
<rscale>  0 0.25971608E+03</rscale>
<asrwt>0</asrwt>
<pdfrwt beam="1">  1        2 0.82100791E-02 0.25971608E+03</pdfrwt>
<pdfrwt beam="2">  1       -2 0.41917392E-01 0.25971608E+03</pdfrwt>
<totfact> 0.44397993E+03</totfact>
</mgrwt>
</event>
<event>
 4    1  0.4950349E-004  0.1807620E+03  0.7818608E-02  0.1167068E+00
          2   -1    0    0  501    0  0.00000000000E+00  0.00000000000E+00  0.22767282488E+02  0.22767282631E+02  0.25500000000E-02 0.  1.
         -2   -1    0    0    0  501 -0.00000000000E+00 -0.00000000000E+00 -0.35879223351E+03  0.35879223352E+03  0.25500000000E-02 0. -1.
    5000001    1    1    2    0    0  0.13058390454E+02 -0.18236204371E+02 -0.25597759759E+03  0.26824729482E+03  0.77000000000E+02 0.  0.
   -5000001    1    1    2    0    0 -0.13058390454E+02  0.18236204371E+02 -0.80047353433E+02  0.11331222133E+03  0.77000000000E+02 0.  0.
<mgrwt>
<rscale>  0 0.18076199E+03</rscale>
<asrwt>0</asrwt>
<pdfrwt beam="1">  1        2 0.32524692E-02 0.18076199E+03</pdfrwt>
<pdfrwt beam="2">  1       -2 0.51256030E-01 0.18076199E+03</pdfrwt>
<totfact> 0.98653371E+03</totfact>
</mgrwt>
</event>
<event>
 4    1  0.4950349E-004  0.4050349E+03  0.7818608E-02  0.1042050E+00
          2   -1    0    0  501    0  0.00000000000E+00  0.00000000000E+00  0.94861233556E+03  0.94861233557E+03  0.25500000000E-02 0.  1.
         -2   -1    0    0    0  501 -0.00000000000E+00 -0.00000000000E+00 -0.43235071010E+02  0.43235071085E+02  0.25500000000E-02 0. -1.
    5000001    1    1    2    0    0 -0.14278947915E+03  0.10711793929E+03  0.31370505223E+03  0.36905683582E+03  0.77000000000E+02 0.  0.
   -5000001    1    1    2    0    0  0.14278947915E+03 -0.10711793929E+03  0.59167221233E+03  0.62279057083E+03  0.77000000000E+02 0.  0.
<mgrwt>
<rscale>  0 0.40503492E+03</rscale>
<asrwt>0</asrwt>
<pdfrwt beam="1">  1        2 0.13551604E+00 0.40503492E+03</pdfrwt>
<pdfrwt beam="2">  1       -2 0.61764390E-02 0.40503492E+03</pdfrwt>
<totfact> 0.44534373E+03</totfact>
</mgrwt>
</event>
<event>
 4    1  0.4950349E-004  0.3312191E+03  0.7818608E-02  0.1070599E+00
         -2   -1    0    0    0  501 -0.00000000000E+00  0.00000000000E+00  0.95467421630E+03  0.95467421631E+03  0.25500000000E-02 0. -1.
          2   -1    0    0  501    0  0.00000000000E+00 -0.00000000000E+00 -0.28728668992E+02  0.28728669105E+02  0.25500000000E-02 0.  1.
    5000001    1    1    2    0    0  0.98857543176E+02  0.71385137458E+02  0.70470570338E+03  0.71931062836E+03  0.77000000000E+02 0.  0.
   -5000001    1    1    2    0    0 -0.98857543176E+02 -0.71385137458E+02  0.22123984393E+03  0.26409225705E+03  0.77000000000E+02 0.  0.
<mgrwt>
<rscale>  0 0.33121908E+03</rscale>
<asrwt>0</asrwt>
<pdfrwt beam="1">  1        2 0.41040964E-02 0.33121908E+03</pdfrwt>
<pdfrwt beam="2">  1       -2 0.13638200E+00 0.33121908E+03</pdfrwt>
<totfact> 0.83267663E+02</totfact>
</mgrwt>
</event>
<event>
 4    1  0.4950349E-004  0.4075488E+03  0.7818608E-02  0.1041197E+00
          2   -1    0    0  501    0  0.00000000000E+00  0.00000000000E+00  0.14702315136E+04  0.14702315136E+04  0.25500000000E-02 0.  1.
         -2   -1    0    0    0  501 -0.00000000000E+00 -0.00000000000E+00 -0.28243169414E+02  0.28243169529E+02  0.25500000000E-02 0. -1.
    5000001    1    1    2    0    0  0.12832601152E+03  0.13814537444E+03  0.69680315851E+03  0.72595822980E+03  0.77000000000E+02 0.  0.
   -5000001    1    1    2    0    0 -0.12832601152E+03 -0.13814537444E+03  0.74518518570E+03  0.77251645335E+03  0.77000000000E+02 0.  0.
<mgrwt>
<rscale>  0 0.40754876E+03</rscale>
<asrwt>0</asrwt>
<pdfrwt beam="1">  1        2 0.21003311E+00 0.40754876E+03</pdfrwt>
<pdfrwt beam="2">  1       -2 0.40347378E-02 0.40754876E+03</pdfrwt>
<totfact> 0.43962980E+03</totfact>
</mgrwt>
</event>
<event>
 4    1  0.4950349E-004  0.1921611E+03  0.7818608E-02  0.1156527E+00
          2   -1    0    0  501    0  0.00000000000E+00  0.00000000000E+00  0.90680377694E+03  0.90680377695E+03  0.25500000000E-02 0.  1.
         -2   -1    0    0    0  501 -0.00000000000E+00 -0.00000000000E+00 -0.10180227401E+02  0.10180227720E+02  0.25500000000E-02 0. -1.
    5000001    1    1    2    0    0  0.30643069980E+02  0.10326893745E+02  0.67500859658E+03  0.68015531163E+03  0.77000000000E+02 0.  0.
   -5000001    1    1    2    0    0 -0.30643069980E+02 -0.10326893745E+02  0.22161495296E+03  0.23682869304E+03  0.77000000000E+02 0.  0.
<mgrwt>
<rscale>  0 0.19216107E+03</rscale>
<asrwt>0</asrwt>
<pdfrwt beam="1">  1        2 0.12954337E+00 0.19216107E+03</pdfrwt>
<pdfrwt beam="2">  1       -2 0.14543185E-02 0.19216107E+03</pdfrwt>
<totfact> 0.39731474E+04</totfact>
</mgrwt>
</event>
<event>
 4    1  0.4950349E-004  0.2086443E+03  0.7818608E-02  0.1142644E+00
          2   -1    0    0  501    0  0.00000000000E+00  0.00000000000E+00  0.83461224723E+03  0.83461224723E+03  0.25500000000E-02 0.  1.
         -2   -1    0    0    0  501 -0.00000000000E+00 -0.00000000000E+00 -0.13039715624E+02  0.13039715873E+02  0.25500000000E-02 0. -1.
    5000001    1    1    2    0    0 -0.15095965982E+01 -0.69366626008E+02  0.36269919572E+03  0.37721839067E+03  0.77000000000E+02 0.  0.
   -5000001    1    1    2    0    0  0.15095965982E+01  0.69366626008E+02  0.45887333588E+03  0.47043357243E+03  0.77000000000E+02 0.  0.
<mgrwt>
<rscale>  0 0.20864426E+03</rscale>
<asrwt>0</asrwt>
<pdfrwt beam="1">  1        2 0.11923034E+00 0.20864426E+03</pdfrwt>
<pdfrwt beam="2">  1       -2 0.18628163E-02 0.20864426E+03</pdfrwt>
<totfact> 0.30967075E+04</totfact>
</mgrwt>
</event>
<event>
 4    1  0.4950349E-004  0.2411982E+03  0.7818608E-02  0.1118997E+00
          2   -1    0    0  501    0  0.00000000000E+00  0.00000000000E+00  0.31606875430E+04  0.31606875430E+04  0.25500000000E-02 0.  1.
         -2   -1    0    0    0  501 -0.00000000000E+00 -0.00000000000E+00 -0.46015766866E+01  0.46015773932E+01  0.25500000000E-02 0. -1.
    5000001    1    1    2    0    0  0.41169789080E+02  0.77930542753E+02  0.11961095459E+04  0.12018216035E+04  0.77000000000E+02 0.  0.
   -5000001    1    1    2    0    0 -0.41169789080E+02 -0.77930542753E+02  0.19599764204E+04  0.19634675168E+04  0.77000000000E+02 0.  0.
<mgrwt>
<rscale>  0 0.24119824E+03</rscale>
<asrwt>0</asrwt>
<pdfrwt beam="1">  1        2 0.45152594E+00 0.24119824E+03</pdfrwt>
<pdfrwt beam="2">  1       -2 0.65736938E-03 0.24119824E+03</pdfrwt>
<totfact> 0.89138562E+03</totfact>
</mgrwt>
</event>
<event>
 4    1  0.4950349E-004  0.2750164E+03  0.7818608E-02  0.1098442E+00
          2   -1    0    0  501    0  0.00000000000E+00  0.00000000000E+00  0.31240406903E+03  0.31240406904E+03  0.25500000000E-02 0. -1.
         -2   -1    0    0    0  501 -0.00000000000E+00 -0.00000000000E+00 -0.60525789732E+02  0.60525789786E+02  0.25500000000E-02 0.  1.
    5000001    1    1    2    0    0  0.88429259436E+02  0.53120224876E+02  0.60371153763E+02  0.14218005634E+03  0.77000000000E+02 0.  0.
   -5000001    1    1    2    0    0 -0.88429259436E+02 -0.53120224876E+02  0.19150712554E+03  0.23074980249E+03  0.77000000000E+02 0.  0.
<mgrwt>
<rscale>  0 0.27501639E+03</rscale>
<asrwt>0</asrwt>
<pdfrwt beam="1">  1        2 0.44629154E-01 0.27501639E+03</pdfrwt>
<pdfrwt beam="2">  1       -2 0.86465411E-02 0.27501639E+03</pdfrwt>
<totfact> 0.94087244E+03</totfact>
</mgrwt>
</event>
<event>
 4    1  0.4950349E-004  0.3661799E+03  0.7818608E-02  0.1056163E+00
          2   -1    0    0  501    0  0.00000000000E+00  0.00000000000E+00  0.50948933946E+03  0.50948933946E+03  0.25500000000E-02 0.  1.
         -2   -1    0    0    0  501 -0.00000000000E+00 -0.00000000000E+00 -0.65795155039E+02  0.65795155088E+02  0.25500000000E-02 0. -1.
    5000001    1    1    2    0    0  0.83816501150E+01  0.15885586010E+03  0.29698656148E+03  0.34559434897E+03  0.77000000000E+02 0.  0.
   -5000001    1    1    2    0    0 -0.83816501150E+01 -0.15885586010E+03  0.14670762294E+03  0.22969014558E+03  0.77000000000E+02 0.  0.
<mgrwt>
<rscale>  0 0.36617990E+03</rscale>
<asrwt>0</asrwt>
<pdfrwt beam="1">  1        2 0.72784197E-01 0.36617990E+03</pdfrwt>
<pdfrwt beam="2">  1       -2 0.93993071E-02 0.36617990E+03</pdfrwt>
<totfact> 0.48800553E+03</totfact>
</mgrwt>
</event>
<event>
 4    1  0.4950349E-004  0.3203576E+03  0.7818608E-02  0.1075485E+00
         -2   -1    0    0    0  501 -0.00000000000E+00  0.00000000000E+00  0.41406341619E+02  0.41406341698E+02  0.25500000000E-02 0. -1.
          2   -1    0    0  501    0  0.00000000000E+00 -0.00000000000E+00 -0.61964519293E+03  0.61964519294E+03  0.25500000000E-02 0.  1.
    5000001    1    1    2    0    0  0.90653661966E+02  0.97728322837E+02 -0.19778089130E+03  0.25062959218E+03  0.77000000000E+02 0.  0.
   -5000001    1    1    2    0    0 -0.90653661966E+02 -0.97728322837E+02 -0.38045796001E+03  0.41042194245E+03  0.77000000000E+02 0.  0.
<mgrwt>
<rscale>  0 0.32035755E+03</rscale>
<asrwt>0</asrwt>
<pdfrwt beam="1">  1        2 0.88520736E-01 0.32035755E+03</pdfrwt>
<pdfrwt beam="2">  1       -2 0.59151921E-02 0.32035755E+03</pdfrwt>
<totfact> 0.80324711E+03</totfact>
</mgrwt>
</event>
<event>
 4    1  0.4950349E-004  0.2988262E+03  0.7818608E-02  0.1085829E+00
          2   -1    0    0  501    0  0.00000000000E+00  0.00000000000E+00  0.20666869807E+04  0.20666869807E+04  0.25500000000E-02 0.  1.
         -2   -1    0    0    0  501 -0.00000000000E+00 -0.00000000000E+00 -0.10801961301E+02  0.10801961602E+02  0.25500000000E-02 0. -1.
    5000001    1    1    2    0    0 -0.10807548269E+03  0.46391236245E+02  0.13798907549E+04  0.13870327870E+04  0.77000000000E+02 0.  0.
   -5000001    1    1    2    0    0  0.10807548269E+03 -0.46391236245E+02  0.67599426448E+03  0.69045615529E+03  0.77000000000E+02 0.  0.
<mgrwt>
<rscale>  0 0.29882619E+03</rscale>
<asrwt>0</asrwt>
<pdfrwt beam="1">  1        2 0.29524139E+00 0.29882619E+03</pdfrwt>
<pdfrwt beam="2">  1       -2 0.15431353E-02 0.29882619E+03</pdfrwt>
<totfact> 0.92876029E+03</totfact>
</mgrwt>
</event>
<event>
 4    1  0.4950349E-004  0.2691066E+03  0.7818608E-02  0.1101792E+00
         -2   -1    0    0    0  501 -0.00000000000E+00  0.00000000000E+00  0.32748413243E+03  0.32748413244E+03  0.25500000000E-02 0. -1.
          2   -1    0    0  501    0  0.00000000000E+00 -0.00000000000E+00 -0.55283854520E+02  0.55283854578E+02  0.25500000000E-02 0.  1.
    5000001    1    1    2    0    0 -0.46841342291E+02 -0.98111015447E+02  0.16292606673E+03  0.21046088929E+03  0.77000000000E+02 0.  0.
   -5000001    1    1    2    0    0  0.46841342291E+02  0.98111015447E+02  0.10927421118E+03  0.17230709773E+03  0.77000000000E+02 0.  0.
<mgrwt>
<rscale>  0 0.26910656E+03</rscale>
<asrwt>0</asrwt>
<pdfrwt beam="1">  1        2 0.78976938E-02 0.26910656E+03</pdfrwt>
<pdfrwt beam="2">  1       -2 0.46783446E-01 0.26910656E+03</pdfrwt>
<totfact> 0.37713468E+03</totfact>
</mgrwt>
</event>
<event>
 4    1  0.4950349E-004  0.2316409E+03  0.7818608E-02  0.1125490E+00
         -2   -1    0    0    0  501 -0.00000000000E+00  0.00000000000E+00  0.46609537084E+03  0.46609537085E+03  0.25500000000E-02 0. -1.
          2   -1    0    0  501    0  0.00000000000E+00 -0.00000000000E+00 -0.28780315240E+02  0.28780315353E+02  0.25500000000E-02 0.  1.
    5000001    1    1    2    0    0  0.82355982447E+02 -0.14669189531E+02  0.26583643497E+03  0.28912921527E+03  0.77000000000E+02 0.  0.
   -5000001    1    1    2    0    0 -0.82355982447E+02  0.14669189531E+02  0.17147862063E+03  0.20574647093E+03  0.77000000000E+02 0.  0.
<mgrwt>
<rscale>  0 0.23164086E+03</rscale>
<asrwt>0</asrwt>
<pdfrwt beam="1">  1        2 0.41114736E-02 0.23164086E+03</pdfrwt>
<pdfrwt beam="2">  1       -2 0.66585054E-01 0.23164086E+03</pdfrwt>
<totfact> 0.42801890E+03</totfact>
</mgrwt>
</event>
<event>
 4    1  0.4950349E-004  0.2045908E+03  0.7818608E-02  0.1145923E+00
         -2   -1    0    0    0  501 -0.00000000000E+00  0.00000000000E+00  0.10137018194E+02  0.10137018515E+02  0.25500000000E-02 0. -1.
          2   -1    0    0  501    0  0.00000000000E+00 -0.00000000000E+00 -0.10322907026E+04  0.10322907026E+04  0.25500000000E-02 0.  1.
    5000001    1    1    2    0    0 -0.65291580816E+02 -0.85401403045E+01 -0.43912367127E+03  0.45066009718E+03  0.77000000000E+02 0.  0.
   -5000001    1    1    2    0    0  0.65291580816E+02  0.85401403045E+01 -0.58303001311E+03  0.59176762391E+03  0.77000000000E+02 0.  0.
<mgrwt>
<rscale>  0 0.20459081E+03</rscale>
<asrwt>0</asrwt>
<pdfrwt beam="1">  1        2 0.14747003E+00 0.20459081E+03</pdfrwt>
<pdfrwt beam="2">  1       -2 0.14481461E-02 0.20459081E+03</pdfrwt>
<totfact> 0.33826709E+04</totfact>
</mgrwt>
</event>
<event>
 4    1  0.4950349E-004  0.2814100E+03  0.7818608E-02  0.1094921E+00
         -2   -1    0    0    0  501 -0.00000000000E+00  0.00000000000E+00  0.14269226330E+03  0.14269226333E+03  0.25500000000E-02 0. -1.
          2   -1    0    0  501    0  0.00000000000E+00 -0.00000000000E+00 -0.13874543660E+03  0.13874543662E+03  0.25500000000E-02 0.  1.
    5000001    1    1    2    0    0 -0.10788463200E+02  0.38869464661E+02  0.11262639417E+03  0.14227062552E+03  0.77000000000E+02 0.  0.
   -5000001    1    1    2    0    0  0.10788463200E+02 -0.38869464661E+02 -0.10867956747E+03  0.13916707443E+03  0.77000000000E+02 0.  0.
<mgrwt>
<rscale>  0 0.28141002E+03</rscale>
<asrwt>0</asrwt>
<pdfrwt beam="1">  1        2 0.19820777E-01 0.28141002E+03</pdfrwt>
<pdfrwt beam="2">  1       -2 0.20384609E-01 0.28141002E+03</pdfrwt>
<totfact> 0.56714405E+03</totfact>
</mgrwt>
</event>
<event>
 4    1  0.4950349E-004  0.1689947E+03  0.7818608E-02  0.1178900E+00
          2   -1    0    0  501    0  0.00000000000E+00  0.00000000000E+00  0.26190227400E+04  0.26190227400E+04  0.25500000000E-02 0.  1.
         -2   -1    0    0    0  501 -0.00000000000E+00 -0.00000000000E+00 -0.27261303303E+01  0.27261315230E+01  0.25500000000E-02 0. -1.
    5000001    1    1    2    0    0  0.33353283060E+02 -0.89522604964E+01  0.13743586634E+04  0.13769471014E+04  0.77000000000E+02 0.  0.
   -5000001    1    1    2    0    0 -0.33353283060E+02  0.89522604964E+01  0.12419379463E+04  0.12448017702E+04  0.77000000000E+02 0.  0.
<mgrwt>
<rscale>  0 0.16899466E+03</rscale>
<asrwt>0</asrwt>
<pdfrwt beam="1">  1        2 0.37414316E+00 0.16899466E+03</pdfrwt>
<pdfrwt beam="2">  1       -2 0.38945035E-03 0.16899466E+03</pdfrwt>
<totfact> 0.35603665E+04</totfact>
</mgrwt>
</event>
<event>
 4    1  0.4950349E-004  0.1837092E+03  0.7818608E-02  0.1164261E+00
          2   -1    0    0  501    0  0.00000000000E+00  0.00000000000E+00  0.12923936253E+03  0.12923936255E+03  0.25500000000E-02 0.  1.
         -2   -1    0    0    0  501 -0.00000000000E+00 -0.00000000000E+00 -0.65284028358E+02  0.65284028408E+02  0.25500000000E-02 0. -1.
    5000001    1    1    2    0    0 -0.55017918091E+01 -0.47831729323E+02  0.17377516206E+02  0.92461462851E+02  0.77000000000E+02 0.  0.
   -5000001    1    1    2    0    0  0.55017918091E+01  0.47831729323E+02  0.46577817964E+02  0.10206192811E+03  0.77000000000E+02 0.  0.
<mgrwt>
<rscale>  0 0.18370919E+03</rscale>
<asrwt>0</asrwt>
<pdfrwt beam="1">  1        2 0.18462766E-01 0.18370919E+03</pdfrwt>
<pdfrwt beam="2">  1       -2 0.93262897E-02 0.18370919E+03</pdfrwt>
<totfact> 0.21558050E+04</totfact>
</mgrwt>
</event>
<event>
 4    1  0.4950349E-004  0.3480443E+03  0.7818608E-02  0.1063421E+00
          2   -1    0    0  501    0  0.00000000000E+00  0.00000000000E+00  0.90556821438E+03  0.90556821438E+03  0.25500000000E-02 0.  1.
         -2   -1    0    0    0  501 -0.00000000000E+00 -0.00000000000E+00 -0.33441668014E+02  0.33441668112E+02  0.25500000000E-02 0. -1.
    5000001    1    1    2    0    0 -0.90580082607E+02  0.12228940137E+03  0.34278783909E+03  0.38287328410E+03  0.77000000000E+02 0.  0.
   -5000001    1    1    2    0    0  0.90580082607E+02 -0.12228940137E+03  0.52933870727E+03  0.55613659839E+03  0.77000000000E+02 0.  0.
<mgrwt>
<rscale>  0 0.34804432E+03</rscale>
<asrwt>0</asrwt>
<pdfrwt beam="1">  1        2 0.12936689E+00 0.34804432E+03</pdfrwt>
<pdfrwt beam="2">  1       -2 0.47773810E-02 0.34804432E+03</pdfrwt>
<totfact> 0.70155684E+03</totfact>
</mgrwt>
</event>
<event>
 4    1  0.4950349E-004  0.1137962E+04  0.7818608E-02  0.9168961E-01
          2   -1    0    0  501    0  0.00000000000E+00  0.00000000000E+00  0.45317824506E+03  0.45317824506E+03  0.25500000000E-02 0.  1.
         -2   -1    0    0    0  501 -0.00000000000E+00 -0.00000000000E+00 -0.71437584092E+03  0.71437584092E+03  0.25500000000E-02 0. -1.
    5000001    1    1    2    0    0 -0.46435697844E+02  0.33912494819E+03  0.32898759013E+03  0.48096136953E+03  0.77000000000E+02 0.  0.
   -5000001    1    1    2    0    0  0.46435697844E+02 -0.33912494819E+03 -0.59018518600E+03  0.68659271646E+03  0.77000000000E+02 0.  0.
<mgrwt>
<rscale>  0 0.11379624E+04</rscale>
<asrwt>0</asrwt>
<pdfrwt beam="1">  1        2 0.64739750E-01 0.11379624E+04</pdfrwt>
<pdfrwt beam="2">  1       -2 0.10205369E+00 0.11379624E+04</pdfrwt>
<totfact> 0.58620010E+01</totfact>
</mgrwt>
</event>
<event>
 4    1  0.4950349E-004  0.2755600E+03  0.7818608E-02  0.1098139E+00
         -2   -1    0    0    0  501 -0.00000000000E+00  0.00000000000E+00  0.75218281638E+01  0.75218285961E+01  0.25500000000E-02 0. -1.
          2   -1    0    0  501    0  0.00000000000E+00 -0.00000000000E+00 -0.25237652943E+04  0.25237652943E+04  0.25500000000E-02 0.  1.
    5000001    1    1    2    0    0  0.95822965681E+02  0.35860348051E+02 -0.79096060793E+03  0.80125881499E+03  0.77000000000E+02 0.  0.
   -5000001    1    1    2    0    0 -0.95822965681E+02 -0.35860348051E+02 -0.17252828582E+04  0.17300283079E+04  0.77000000000E+02 0.  0.
<mgrwt>
<rscale>  0 0.27556001E+03</rscale>
<asrwt>0</asrwt>
<pdfrwt beam="1">  1        2 0.36053736E+00 0.27556001E+03</pdfrwt>
<pdfrwt beam="2">  1       -2 0.10745485E-02 0.27556001E+03</pdfrwt>
<totfact> 0.93689335E+03</totfact>
</mgrwt>
</event>
<event>
 4    1  0.4950349E-004  0.2370991E+03  0.7818608E-02  0.1121741E+00
         -2   -1    0    0    0  501 -0.00000000000E+00  0.00000000000E+00  0.11286576800E+02  0.11286577088E+02  0.25500000000E-02 0. -1.
          2   -1    0    0  501    0  0.00000000000E+00 -0.00000000000E+00 -0.12451958410E+04  0.12451958410E+04  0.25500000000E-02 0.  1.
    5000001    1    1    2    0    0  0.44053550899E+02 -0.60613111244E+01 -0.10324606165E+04  0.10362824806E+04  0.77000000000E+02 0.  0.
   -5000001    1    1    2    0    0 -0.44053550899E+02  0.60613111244E+01 -0.20144864770E+03  0.22019993756E+03  0.77000000000E+02 0.  0.
<mgrwt>
<rscale>  0 0.23709912E+03</rscale>
<asrwt>0</asrwt>
<pdfrwt beam="1">  1        2 0.17788503E+00 0.23709912E+03</pdfrwt>
<pdfrwt beam="2">  1       -2 0.16123689E-02 0.23709912E+03</pdfrwt>
<totfact> 0.22269024E+04</totfact>
</mgrwt>
</event>
<event>
 4    1  0.4950349E-004  0.2320328E+03  0.7818608E-02  0.1125217E+00
         -2   -1    0    0    0  501 -0.00000000000E+00  0.00000000000E+00  0.24125229128E+03  0.24125229129E+03  0.25500000000E-02 0. -1.
          2   -1    0    0  501    0  0.00000000000E+00 -0.00000000000E+00 -0.55791386281E+02  0.55791386339E+02  0.25500000000E-02 0.  1.
    5000001    1    1    2    0    0  0.78859368439E+02 -0.14441098387E+02  0.13525583484E+03  0.17507280249E+03  0.77000000000E+02 0.  0.
   -5000001    1    1    2    0    0 -0.78859368439E+02  0.14441098387E+02  0.50205070156E+02  0.12197087514E+03  0.77000000000E+02 0.  0.
<mgrwt>
<rscale>  0 0.23203275E+03</rscale>
<asrwt>0</asrwt>
<pdfrwt beam="1">  1        2 0.79701978E-02 0.23203275E+03</pdfrwt>
<pdfrwt beam="2">  1       -2 0.34464614E-01 0.23203275E+03</pdfrwt>
<totfact> 0.66390448E+03</totfact>
</mgrwt>
</event>
<event>
 4    1  0.4950349E-004  0.3921367E+03  0.7818608E-02  0.1046537E+00
         -2   -1    0    0    0  501 -0.00000000000E+00  0.00000000000E+00  0.26825984979E+02  0.26825985100E+02  0.25500000000E-02 0. -1.
          2   -1    0    0  501    0  0.00000000000E+00 -0.00000000000E+00 -0.14330429282E+04  0.14330429282E+04  0.25500000000E-02 0.  1.
    5000001    1    1    2    0    0  0.43838531861E+01  0.17225934010E+03 -0.50536585781E+03  0.53945912603E+03  0.77000000000E+02 0.  0.
   -5000001    1    1    2    0    0 -0.43838531861E+01 -0.17225934010E+03 -0.90085108544E+03  0.92040978730E+03  0.77000000000E+02 0.  0.
<mgrwt>
<rscale>  0 0.39213665E+03</rscale>
<asrwt>0</asrwt>
<pdfrwt beam="1">  1        2 0.20472037E+00 0.39213665E+03</pdfrwt>
<pdfrwt beam="2">  1       -2 0.38322845E-02 0.39213665E+03</pdfrwt>
<totfact> 0.49684022E+03</totfact>
</mgrwt>
</event>
<event>
 4    1  0.4950349E-004  0.1908118E+03  0.7818608E-02  0.1157731E+00
         -2   -1    0    0    0  501 -0.00000000000E+00  0.00000000000E+00  0.78267404773E+02  0.78267404815E+02  0.25500000000E-02 0. -1.
          2   -1    0    0  501    0  0.00000000000E+00 -0.00000000000E+00 -0.11629727422E+03  0.11629727424E+03  0.25500000000E-02 0.  1.
    5000001    1    1    2    0    0 -0.55655105202E+01 -0.34835519071E+02  0.25766921769E+02  0.88529218644E+02  0.77000000000E+02 0.  0.
   -5000001    1    1    2    0    0  0.55655105202E+01  0.34835519071E+02 -0.63796791212E+02  0.10603546041E+03  0.77000000000E+02 0.  0.
<mgrwt>
<rscale>  0 0.19081180E+03</rscale>
<asrwt>0</asrwt>
<pdfrwt beam="1">  1        2 0.16613896E-01 0.19081180E+03</pdfrwt>
<pdfrwt beam="2">  1       -2 0.11181058E-01 0.19081180E+03</pdfrwt>
<totfact> 0.18335034E+04</totfact>
</mgrwt>
</event>
<event>
 4    1  0.4950349E-004  0.2061477E+03  0.7818608E-02  0.1144653E+00
          2   -1    0    0  501    0  0.00000000000E+00  0.00000000000E+00  0.29110713948E+02  0.29110714060E+02  0.25500000000E-02 0.  1.
         -2   -1    0    0    0  501 -0.00000000000E+00 -0.00000000000E+00 -0.36495921959E+03  0.36495921960E+03  0.25500000000E-02 0. -1.
    5000001    1    1    2    0    0 -0.21044522306E+02  0.61769901999E+02 -0.12797107662E+03  0.16298462861E+03  0.77000000000E+02 0.  0.
   -5000001    1    1    2    0    0  0.21044522306E+02 -0.61769901999E+02 -0.20787742902E+03  0.23108530505E+03  0.77000000000E+02 0.  0.
<mgrwt>
<rscale>  0 0.20614775E+03</rscale>
<asrwt>0</asrwt>
<pdfrwt beam="1">  1        2 0.41586737E-02 0.20614775E+03</pdfrwt>
<pdfrwt beam="2">  1       -2 0.52137029E-01 0.20614775E+03</pdfrwt>
<totfact> 0.69268387E+03</totfact>
</mgrwt>
</event>
<event>
 4    1  0.4950349E-004  0.3221122E+03  0.7818608E-02  0.1074681E+00
          2   -1    0    0  501    0  0.00000000000E+00  0.00000000000E+00  0.41822506672E+03  0.41822506673E+03  0.25500000000E-02 0.  1.
         -2   -1    0    0    0  501 -0.00000000000E+00 -0.00000000000E+00 -0.62021800324E+02  0.62021800377E+02  0.25500000000E-02 0. -1.
    5000001    1    1    2    0    0  0.10972704086E+03 -0.67674878925E+02  0.91292113084E+02  0.17573605961E+03  0.77000000000E+02 0.  0.
   -5000001    1    1    2    0    0 -0.10972704086E+03  0.67674878925E+02  0.26491115332E+03  0.30451080750E+03  0.77000000000E+02 0.  0.
<mgrwt>
<rscale>  0 0.32211223E+03</rscale>
<asrwt>0</asrwt>
<pdfrwt beam="1">  1        2 0.59746436E-01 0.32211223E+03</pdfrwt>
<pdfrwt beam="2">  1       -2 0.88602576E-02 0.32211223E+03</pdfrwt>
<totfact> 0.66422279E+03</totfact>
</mgrwt>
</event>
<event>
 4    1  0.4950349E-004  0.3911697E+03  0.7818608E-02  0.1046881E+00
         -2   -1    0    0    0  501 -0.00000000000E+00  0.00000000000E+00  0.16078543111E+03  0.16078543113E+03  0.25500000000E-02 0. -1.
          2   -1    0    0  501    0  0.00000000000E+00 -0.00000000000E+00 -0.23791607643E+03  0.23791607644E+03  0.25500000000E-02 0.  1.
    5000001    1    1    2    0    0 -0.38762399745E+02 -0.12628794893E+03  0.85738893770E+02  0.17530352986E+03  0.77000000000E+02 0.  0.
   -5000001    1    1    2    0    0  0.38762399745E+02  0.12628794893E+03 -0.16286953909E+03  0.22339797770E+03  0.77000000000E+02 0.  0.
<mgrwt>
<rscale>  0 0.39116973E+03</rscale>
<asrwt>0</asrwt>
<pdfrwt beam="1">  1        2 0.33988011E-01 0.39116973E+03</pdfrwt>
<pdfrwt beam="2">  1       -2 0.22969347E-01 0.39116973E+03</pdfrwt>
<totfact> 0.25403503E+03</totfact>
</mgrwt>
</event>
<event>
 4    1  0.4950349E-004  0.1925888E+03  0.7818608E-02  0.1156147E+00
          2   -1    0    0  501    0  0.00000000000E+00  0.00000000000E+00  0.20834802577E+04  0.20834802577E+04  0.25500000000E-02 0.  1.
         -2   -1    0    0    0  501 -0.00000000000E+00 -0.00000000000E+00 -0.44505401589E+01  0.44505408894E+01  0.25500000000E-02 0. -1.
    5000001    1    1    2    0    0  0.44258708715E+02  0.23141110362E+02  0.72357263179E+03  0.72937006915E+03  0.77000000000E+02 0.  0.
   -5000001    1    1    2    0    0 -0.44258708715E+02 -0.23141110362E+02  0.13554570858E+04  0.13585607295E+04  0.77000000000E+02 0.  0.
<mgrwt>
<rscale>  0 0.19258882E+03</rscale>
<asrwt>0</asrwt>
<pdfrwt beam="1">  1        2 0.29763998E+00 0.19258882E+03</pdfrwt>
<pdfrwt beam="2">  1       -2 0.63579162E-03 0.19258882E+03</pdfrwt>
<totfact> 0.32480493E+04</totfact>
</mgrwt>
</event>
<event>
 4    1  0.4950349E-004  0.2403174E+03  0.7818608E-02  0.1119582E+00
         -2   -1    0    0    0  501 -0.00000000000E+00  0.00000000000E+00  0.32140401404E+03  0.32140401405E+03  0.25500000000E-02 0. -1.
          2   -1    0    0  501    0  0.00000000000E+00 -0.00000000000E+00 -0.44922000345E+02  0.44922000417E+02  0.25500000000E-02 0.  1.
    5000001    1    1    2    0    0  0.41609736439E+02  0.82327026372E+02  0.13830580215E+03  0.18321191104E+03  0.77000000000E+02 0.  0.
   -5000001    1    1    2    0    0 -0.41609736439E+02 -0.82327026372E+02  0.13817621155E+03  0.18311410343E+03  0.77000000000E+02 0.  0.
<mgrwt>
<rscale>  0 0.24031738E+03</rscale>
<asrwt>0</asrwt>
<pdfrwt beam="1">  1        2 0.64174286E-02 0.24031738E+03</pdfrwt>
<pdfrwt beam="2">  1       -2 0.45914859E-01 0.24031738E+03</pdfrwt>
<totfact> 0.50829442E+03</totfact>
</mgrwt>
</event>
<event>
 4    1  0.4950349E-004  0.1919795E+03  0.7818608E-02  0.1156688E+00
         -2   -1    0    0    0  501 -0.00000000000E+00  0.00000000000E+00  0.64931038863E+02  0.64931038913E+02  0.25500000000E-02 0. -1.
          2   -1    0    0  501    0  0.00000000000E+00 -0.00000000000E+00 -0.14190494415E+03  0.14190494417E+03  0.25500000000E-02 0.  1.
    5000001    1    1    2    0    0 -0.38090997115E+02 -0.41289153917E+02 -0.26235171333E+02  0.98858497396E+02  0.77000000000E+02 0.  0.
   -5000001    1    1    2    0    0  0.38090997115E+02  0.41289153917E+02 -0.50738733950E+02  0.10797748569E+03  0.77000000000E+02 0.  0.
<mgrwt>
<rscale>  0 0.19197953E+03</rscale>
<asrwt>0</asrwt>
<pdfrwt beam="1">  1        2 0.20272135E-01 0.19197953E+03</pdfrwt>
<pdfrwt beam="2">  1       -2 0.92758627E-02 0.19197953E+03</pdfrwt>
<totfact> 0.19612164E+04</totfact>
</mgrwt>
</event>
<event>
 4    1  0.4950349E-004  0.2595178E+03  0.7818608E-02  0.1107433E+00
          2   -1    0    0  501    0  0.00000000000E+00  0.00000000000E+00  0.12337710034E+03  0.12337710036E+03  0.25500000000E-02 0.  1.
         -2   -1    0    0    0  501 -0.00000000000E+00 -0.00000000000E+00 -0.13647085255E+03  0.13647085257E+03  0.25500000000E-02 0. -1.
    5000001    1    1    2    0    0 -0.84346919912E+02 -0.48307902998E+02  0.31715887903E+02  0.12799591375E+03  0.77000000000E+02 0.  0.
   -5000001    1    1    2    0    0  0.84346919912E+02  0.48307902998E+02 -0.44809640116E+02  0.13185203919E+03  0.77000000000E+02 0.  0.
<mgrwt>
<rscale>  0 0.25951785E+03</rscale>
<asrwt>0</asrwt>
<pdfrwt beam="1">  1        2 0.17625300E-01 0.25951785E+03</pdfrwt>
<pdfrwt beam="2">  1       -2 0.19495836E-01 0.25951785E+03</pdfrwt>
<totfact> 0.69856239E+03</totfact>
</mgrwt>
</event>
<event>
 4    1  0.4950349E-004  0.3094519E+03  0.7818608E-02  0.1080609E+00
          2   -1    0    0  501    0  0.00000000000E+00  0.00000000000E+00  0.46915587823E+03  0.46915587824E+03  0.25500000000E-02 0.  1.
         -2   -1    0    0    0  501 -0.00000000000E+00 -0.00000000000E+00 -0.51028062415E+02  0.51028062479E+02  0.25500000000E-02 0. -1.
    5000001    1    1    2    0    0  0.13279877372E+02 -0.61878317615E+02  0.40800216726E+03  0.42000005931E+03  0.77000000000E+02 0.  0.
   -5000001    1    1    2    0    0 -0.13279877372E+02  0.61878317615E+02  0.10125648553E+02  0.10018388140E+03  0.77000000000E+02 0.  0.
<mgrwt>
<rscale>  0 0.30945187E+03</rscale>
<asrwt>0</asrwt>
<pdfrwt beam="1">  1        2 0.67022269E-01 0.30945187E+03</pdfrwt>
<pdfrwt beam="2">  1       -2 0.72897231E-02 0.30945187E+03</pdfrwt>
<totfact> 0.79426331E+03</totfact>
</mgrwt>
</event>
<event>
 4    1  0.4950349E-004  0.2723076E+03  0.7818608E-02  0.1099966E+00
          2   -1    0    0  501    0  0.00000000000E+00  0.00000000000E+00  0.22112762296E+04  0.22112762296E+04  0.25500000000E-02 0.  1.
         -2   -1    0    0    0  501 -0.00000000000E+00 -0.00000000000E+00 -0.83833308827E+01  0.83833312705E+01  0.25500000000E-02 0. -1.
    5000001    1    1    2    0    0  0.97209853956E+02 -0.35734511444E+02  0.14550801539E+04  0.14607922390E+04  0.77000000000E+02 0.  0.
   -5000001    1    1    2    0    0 -0.97209853956E+02  0.35734511444E+02  0.74781274474E+03  0.75886732187E+03  0.77000000000E+02 0.  0.
<mgrwt>
<rscale>  0 0.27230763E+03</rscale>
<asrwt>0</asrwt>
<pdfrwt beam="1">  1        2 0.31589653E+00 0.27230763E+03</pdfrwt>
<pdfrwt beam="2">  1       -2 0.11976190E-02 0.27230763E+03</pdfrwt>
<totfact> 0.11416744E+04</totfact>
</mgrwt>
</event>
<event>
 4    1  0.4950349E-004  0.2856216E+03  0.7818608E-02  0.1092658E+00
          2   -1    0    0  501    0  0.00000000000E+00  0.00000000000E+00  0.20450746611E+04  0.20450746611E+04  0.25500000000E-02 0.  1.
         -2   -1    0    0    0  501 -0.00000000000E+00 -0.00000000000E+00 -0.99727063106E+01  0.99727066366E+01  0.25500000000E-02 0. -1.
    5000001    1    1    2    0    0  0.30955402209E+02 -0.10429132102E+03  0.13866069304E+04  0.13929977373E+04  0.77000000000E+02 0.  0.
   -5000001    1    1    2    0    0 -0.30955402209E+02  0.10429132102E+03  0.64849502442E+03  0.66204963052E+03  0.77000000000E+02 0.  0.
<mgrwt>
<rscale>  0 0.28562163E+03</rscale>
<asrwt>0</asrwt>
<pdfrwt beam="1">  1        2 0.29215371E+00 0.28562163E+03</pdfrwt>
<pdfrwt beam="2">  1       -2 0.14246715E-02 0.28562163E+03</pdfrwt>
<totfact> 0.10691130E+04</totfact>
</mgrwt>
</event>
<event>
 4    1  0.4950349E-004  0.3093850E+03  0.7818608E-02  0.1080641E+00
         -2   -1    0    0    0  501 -0.00000000000E+00  0.00000000000E+00  0.38331478635E+03  0.38331478636E+03  0.25500000000E-02 0. -1.
          2   -1    0    0  501    0  0.00000000000E+00 -0.00000000000E+00 -0.62428518292E+02  0.62428518344E+02  0.25500000000E-02 0.  1.
    5000001    1    1    2    0    0 -0.44731901408E+02 -0.11892008032E+03  0.98343312958E+02  0.17816659538E+03  0.77000000000E+02 0.  0.
   -5000001    1    1    2    0    0  0.44731901408E+02  0.11892008032E+03  0.22254295510E+03  0.26757670933E+03  0.77000000000E+02 0.  0.
<mgrwt>
<rscale>  0 0.30938503E+03</rscale>
<asrwt>0</asrwt>
<pdfrwt beam="1">  1        2 0.89183598E-02 0.30938503E+03</pdfrwt>
<pdfrwt beam="2">  1       -2 0.54759255E-01 0.30938503E+03</pdfrwt>
<totfact> 0.23688883E+03</totfact>
</mgrwt>
</event>
<event>
 4    1  0.4950349E-004  0.3068585E+03  0.7818608E-02  0.1081861E+00
          2   -1    0    0  501    0  0.00000000000E+00  0.00000000000E+00  0.17091134080E+04  0.17091134080E+04  0.25500000000E-02 0.  1.
         -2   -1    0    0    0  501 -0.00000000000E+00 -0.00000000000E+00 -0.13773539306E+02  0.13773539542E+02  0.25500000000E-02 0. -1.
    5000001    1    1    2    0    0 -0.93338142971E+02  0.45380072631E+02  0.13120273256E+04  0.13183762980E+04  0.77000000000E+02 0.  0.
   -5000001    1    1    2    0    0  0.93338142971E+02 -0.45380072631E+02  0.38331254307E+03  0.40451064955E+03  0.77000000000E+02 0.  0.
<mgrwt>
<rscale>  0 0.30685854E+03</rscale>
<asrwt>0</asrwt>
<pdfrwt beam="1">  1        2 0.24415915E+00 0.30685854E+03</pdfrwt>
<pdfrwt beam="2">  1       -2 0.19676478E-02 0.30685854E+03</pdfrwt>
<totfact> 0.97336967E+03</totfact>
</mgrwt>
</event>
<event>
 4    1  0.4950349E-004  0.3129053E+03  0.7818608E-02  0.1078962E+00
          2   -1    0    0  501    0  0.00000000000E+00  0.00000000000E+00  0.12496405597E+04  0.12496405597E+04  0.25500000000E-02 0.  1.
         -2   -1    0    0    0  501 -0.00000000000E+00 -0.00000000000E+00 -0.19587574628E+02  0.19587574794E+02  0.25500000000E-02 0. -1.
    5000001    1    1    2    0    0 -0.81056209049E+02 -0.10934332752E+03  0.59584778747E+03  0.61602731931E+03  0.77000000000E+02 0.  0.
   -5000001    1    1    2    0    0  0.81056209049E+02  0.10934332752E+03  0.63420519759E+03  0.65320081518E+03  0.77000000000E+02 0.  0.
<mgrwt>
<rscale>  0 0.31290528E+03</rscale>
<asrwt>0</asrwt>
<pdfrwt beam="1">  1        2 0.17852008E+00 0.31290528E+03</pdfrwt>
<pdfrwt beam="2">  1       -2 0.27982250E-02 0.31290528E+03</pdfrwt>
<totfact> 0.99253007E+03</totfact>
</mgrwt>
</event>
<event>
 4    1  0.4950349E-004  0.4112690E+03  0.7818608E-02  0.1039946E+00
          2   -1    0    0  501    0  0.00000000000E+00  0.00000000000E+00  0.20299158923E+04  0.20299158923E+04  0.25500000000E-02 0.  1.
         -2   -1    0    0    0  501 -0.00000000000E+00 -0.00000000000E+00 -0.20831183797E+02  0.20831183953E+02  0.25500000000E-02 0. -1.
    5000001    1    1    2    0    0  0.16440040378E+03 -0.79423943323E+02  0.12786076029E+04  0.12938709587E+04  0.77000000000E+02 0.  0.
   -5000001    1    1    2    0    0 -0.16440040378E+03  0.79423943323E+02  0.73047710561E+03  0.75687611758E+03  0.77000000000E+02 0.  0.
<mgrwt>
<rscale>  0 0.41126902E+03</rscale>
<asrwt>0</asrwt>
<pdfrwt beam="1">  1        2 0.28998792E+00 0.41126902E+03</pdfrwt>
<pdfrwt beam="2">  1       -2 0.29758841E-02 0.41126902E+03</pdfrwt>
<totfact> 0.36516143E+03</totfact>
</mgrwt>
</event>
<event>
 4    1  0.4950349E-004  0.2493266E+03  0.7818608E-02  0.1113731E+00
         -2   -1    0    0    0  501 -0.00000000000E+00  0.00000000000E+00  0.34922605625E+02  0.34922605718E+02  0.25500000000E-02 0. -1.
          2   -1    0    0  501    0  0.00000000000E+00 -0.00000000000E+00 -0.44501092601E+03  0.44501092602E+03  0.25500000000E-02 0.  1.
    5000001    1    1    2    0    0 -0.26829250468E+02 -0.49143447519E+01 -0.23774619807E+02  0.85077564680E+02  0.77000000000E+02 0.  0.
   -5000001    1    1    2    0    0  0.26829250468E+02  0.49143447519E+01 -0.38631370058E+03  0.39485596705E+03  0.77000000000E+02 0.  0.
<mgrwt>
<rscale>  0 0.24932662E+03</rscale>
<asrwt>0</asrwt>
<pdfrwt beam="1">  1        2 0.63572986E-01 0.24932662E+03</pdfrwt>
<pdfrwt beam="2">  1       -2 0.49889439E-02 0.24932662E+03</pdfrwt>
<totfact> 0.14928535E+04</totfact>
</mgrwt>
</event>
<event>
 4    1  0.4950349E-004  0.1995664E+03  0.7818608E-02  0.1150105E+00
         -2   -1    0    0    0  501 -0.00000000000E+00  0.00000000000E+00  0.34102958468E+02  0.34102958563E+02  0.25500000000E-02 0. -1.
          2   -1    0    0  501    0  0.00000000000E+00 -0.00000000000E+00 -0.29195967961E+03  0.29195967962E+03  0.25500000000E-02 0.  1.
    5000001    1    1    2    0    0 -0.24983444669E+02  0.47806210203E+02 -0.74295930311E+02  0.11982692311E+03  0.77000000000E+02 0.  0.
   -5000001    1    1    2    0    0  0.24983444669E+02 -0.47806210203E+02 -0.18356079083E+03  0.20623571507E+03  0.77000000000E+02 0.  0.
<mgrwt>
<rscale>  0 0.19956642E+03</rscale>
<asrwt>0</asrwt>
<pdfrwt beam="1">  1        2 0.41708524E-01 0.19956642E+03</pdfrwt>
<pdfrwt beam="2">  1       -2 0.48718514E-02 0.19956642E+03</pdfrwt>
<totfact> 0.23987915E+04</totfact>
</mgrwt>
</event>
<event>
 4    1  0.4950349E-004  0.3799746E+03  0.7818608E-02  0.1050943E+00
         -2   -1    0    0    0  501 -0.00000000000E+00  0.00000000000E+00  0.10642266886E+02  0.10642267191E+02  0.25500000000E-02 0. -1.
          2   -1    0    0  501    0  0.00000000000E+00 -0.00000000000E+00 -0.33916818035E+04  0.33916818035E+04  0.25500000000E-02 0.  1.
    5000001    1    1    2    0    0  0.14809342722E+03 -0.83019246114E+02 -0.20185772175E+04  0.20271671962E+04  0.77000000000E+02 0.  0.
   -5000001    1    1    2    0    0 -0.14809342722E+03  0.83019246114E+02 -0.13624623191E+04  0.13751568744E+04  0.77000000000E+02 0.  0.
<mgrwt>
<rscale>  0 0.37997465E+03</rscale>
<asrwt>0</asrwt>
<pdfrwt beam="1">  1        2 0.48452528E+00 0.37997465E+03</pdfrwt>
<pdfrwt beam="2">  1       -2 0.15203260E-02 0.37997465E+03</pdfrwt>
<totfact> 0.19344264E+03</totfact>
</mgrwt>
</event>
<event>
 4    1  0.4950349E-004  0.2042304E+03  0.7818608E-02  0.1146218E+00
          2   -1    0    0  501    0  0.00000000000E+00  0.00000000000E+00  0.15346924866E+04  0.15346924866E+04  0.25500000000E-02 0.  1.
         -2   -1    0    0    0  501 -0.00000000000E+00 -0.00000000000E+00 -0.67945289517E+01  0.67945294302E+01  0.25500000000E-02 0. -1.
    5000001    1    1    2    0    0 -0.24385088395E+02 -0.51401328774E+02  0.49583961922E+03  0.50499768032E+03  0.77000000000E+02 0.  0.
   -5000001    1    1    2    0    0  0.24385088395E+02  0.51401328774E+02  0.10320583385E+04  0.10364893357E+04  0.77000000000E+02 0.  0.
<mgrwt>
<rscale>  0 0.20423039E+03</rscale>
<asrwt>0</asrwt>
<pdfrwt beam="1">  1        2 0.21924181E+00 0.20423039E+03</pdfrwt>
<pdfrwt beam="2">  1       -2 0.97064691E-03 0.20423039E+03</pdfrwt>
<totfact> 0.32771951E+04</totfact>
</mgrwt>
</event>
<event>
 4    1  0.4950349E-004  0.1726550E+03  0.7818608E-02  0.1175107E+00
         -2   -1    0    0    0  501 -0.00000000000E+00  0.00000000000E+00  0.55990267819E+01  0.55990273626E+01  0.25500000000E-02 0. -1.
          2   -1    0    0  501    0  0.00000000000E+00 -0.00000000000E+00 -0.13310237990E+04  0.13310237990E+04  0.25500000000E-02 0.  1.
    5000001    1    1    2    0    0  0.37644161268E+02  0.87369960095E+00 -0.58316144666E+03  0.58942694128E+03  0.77000000000E+02 0.  0.
   -5000001    1    1    2    0    0 -0.37644161268E+02 -0.87369960095E+00 -0.74226332552E+03  0.74719588505E+03  0.77000000000E+02 0.  0.
<mgrwt>
<rscale>  0 0.17265501E+03</rscale>
<asrwt>0</asrwt>
<pdfrwt beam="1">  1        2 0.19014606E+00 0.17265501E+03</pdfrwt>
<pdfrwt beam="2">  1       -2 0.79986186E-03 0.17265501E+03</pdfrwt>
<totfact> 0.54184979E+04</totfact>
</mgrwt>
</event>
<event>
 4    1  0.4950349E-004  0.3002624E+03  0.7818608E-02  0.1085110E+00
         -2   -1    0    0    0  501 -0.00000000000E+00  0.00000000000E+00  0.42297094276E+02  0.42297094353E+02  0.25500000000E-02 0. -1.
          2   -1    0    0  501    0  0.00000000000E+00 -0.00000000000E+00 -0.53288246815E+03  0.53288246816E+03  0.25500000000E-02 0.  1.
    5000001    1    1    2    0    0 -0.78789328553E+02 -0.54986828933E+02 -0.80740638336E+02  0.14723912635E+03  0.77000000000E+02 0.  0.
   -5000001    1    1    2    0    0  0.78789328553E+02  0.54986828933E+02 -0.40984473554E+03  0.42794043616E+03  0.77000000000E+02 0.  0.
<mgrwt>
<rscale>  0 0.30026242E+03</rscale>
<asrwt>0</asrwt>
<pdfrwt beam="1">  1        2 0.76126063E-01 0.30026242E+03</pdfrwt>
<pdfrwt beam="2">  1       -2 0.60424424E-02 0.30026242E+03</pdfrwt>
<totfact> 0.92091495E+03</totfact>
</mgrwt>
</event>
<event>
 4    1  0.4950349E-004  0.1839555E+03  0.7818608E-02  0.1164029E+00
         -2   -1    0    0    0  501 -0.00000000000E+00  0.00000000000E+00  0.81409787502E+03  0.81409787503E+03  0.25500000000E-02 0. -1.
          2   -1    0    0  501    0  0.00000000000E+00 -0.00000000000E+00 -0.10391753699E+02  0.10391754012E+02  0.25500000000E-02 0.  1.
    5000001    1    1    2    0    0 -0.16144711819E+02 -0.31156084308E+02  0.24027990758E+03  0.25474455303E+03  0.77000000000E+02 0.  0.
   -5000001    1    1    2    0    0  0.16144711819E+02  0.31156084308E+02  0.56342621374E+03  0.56974507601E+03  0.77000000000E+02 0.  0.
<mgrwt>
<rscale>  0 0.18395548E+03</rscale>
<asrwt>0</asrwt>
<pdfrwt beam="1">  1        2 0.14845370E-02 0.18395548E+03</pdfrwt>
<pdfrwt beam="2">  1       -2 0.11629964E+00 0.18395548E+03</pdfrwt>
<totfact> 0.48250175E+03</totfact>
</mgrwt>
</event>
<event>
 4    1  0.4950349E-004  0.2448184E+03  0.7818608E-02  0.1116624E+00
         -2   -1    0    0    0  501 -0.00000000000E+00  0.00000000000E+00  0.12844224551E+04  0.12844224551E+04  0.25500000000E-02 0. -1.
          2   -1    0    0  501    0  0.00000000000E+00 -0.00000000000E+00 -0.11665952257E+02  0.11665952536E+02  0.25500000000E-02 0.  1.
    5000001    1    1    2    0    0 -0.42490957366E+02 -0.54577753945E+02  0.98235357842E+03  0.98779135738E+03  0.77000000000E+02 0.  0.
   -5000001    1    1    2    0    0  0.42490957366E+02  0.54577753945E+02  0.29040292443E+03  0.30829705027E+03  0.77000000000E+02 0.  0.
<mgrwt>
<rscale>  0 0.24481839E+03</rscale>
<asrwt>0</asrwt>
<pdfrwt beam="1">  1        2 0.16665646E-02 0.24481839E+03</pdfrwt>
<pdfrwt beam="2">  1       -2 0.18348893E+00 0.24481839E+03</pdfrwt>
<totfact> 0.12965391E+03</totfact>
</mgrwt>
</event>
<event>
 4    1  0.4950349E-004  0.2263302E+03  0.7818608E-02  0.1129250E+00
          2   -1    0    0  501    0  0.00000000000E+00  0.00000000000E+00  0.68212606141E+02  0.68212606189E+02  0.25500000000E-02 0.  1.
         -2   -1    0    0    0  501 -0.00000000000E+00 -0.00000000000E+00 -0.18774152332E+03  0.18774152333E+03  0.25500000000E-02 0. -1.
    5000001    1    1    2    0    0  0.47823571978E+02  0.27216685508E+02  0.10400718317E+02  0.95210382565E+02  0.77000000000E+02 0.  0.
   -5000001    1    1    2    0    0 -0.47823571978E+02 -0.27216685508E+02 -0.12992963549E+03  0.16074374696E+03  0.77000000000E+02 0.  0.
<mgrwt>
<rscale>  0 0.22633019E+03</rscale>
<asrwt>0</asrwt>
<pdfrwt beam="1">  1        2 0.97446581E-02 0.22633019E+03</pdfrwt>
<pdfrwt beam="2">  1       -2 0.26820217E-01 0.22633019E+03</pdfrwt>
<totfact> 0.81229148E+03</totfact>
</mgrwt>
</event>
<event>
 4    1  0.4950349E-004  0.1738949E+03  0.7818608E-02  0.1173846E+00
          2   -1    0    0  501    0  0.00000000000E+00  0.00000000000E+00  0.22951283246E+02  0.22951283388E+02  0.25500000000E-02 0.  1.
         -2   -1    0    0    0  501 -0.00000000000E+00 -0.00000000000E+00 -0.32938715005E+03  0.32938715006E+03  0.25500000000E-02 0. -1.
    5000001    1    1    2    0    0  0.23830541914E+02 -0.32600156344E+02 -0.15232807538E+03  0.17539528919E+03  0.77000000000E+02 0.  0.
   -5000001    1    1    2    0    0 -0.23830541914E+02  0.32600156344E+02 -0.15410779142E+03  0.17694314425E+03  0.77000000000E+02 0.  0.
<mgrwt>
<rscale>  0 0.17389489E+03</rscale>
<asrwt>0</asrwt>
<pdfrwt beam="1">  1        2 0.32787550E-02 0.17389489E+03</pdfrwt>
<pdfrwt beam="2">  1       -2 0.47055304E-01 0.17389489E+03</pdfrwt>
<totfact> 0.11519120E+04</totfact>
</mgrwt>
</event>
<event>
 4    1  0.4950349E-004  0.4206065E+03  0.7818608E-02  0.1036869E+00
         -2   -1    0    0    0  501 -0.00000000000E+00  0.00000000000E+00  0.20480334567E+03  0.20480334569E+03  0.25500000000E-02 0. -1.
          2   -1    0    0  501    0  0.00000000000E+00 -0.00000000000E+00 -0.21595080379E+03  0.21595080380E+03  0.25500000000E-02 0.  1.
    5000001    1    1    2    0    0  0.11339601117E+03 -0.13536403707E+03 -0.89961927021E+02  0.21261285519E+03  0.77000000000E+02 0.  0.
   -5000001    1    1    2    0    0 -0.11339601117E+03  0.13536403707E+03  0.78814468908E+02  0.20814129429E+03  0.77000000000E+02 0.  0.
<mgrwt>
<rscale>  0 0.42060645E+03</rscale>
<asrwt>0</asrwt>
<pdfrwt beam="1">  1        2 0.30850115E-01 0.42060645E+03</pdfrwt>
<pdfrwt beam="2">  1       -2 0.29257621E-01 0.42060645E+03</pdfrwt>
<totfact> 0.18350999E+03</totfact>
</mgrwt>
</event>
<event>
 4    1  0.4950349E-004  0.2293045E+03  0.7818608E-02  0.1127130E+00
         -2   -1    0    0    0  501 -0.00000000000E+00  0.00000000000E+00  0.30873142436E+02  0.30873142541E+02  0.25500000000E-02 0. -1.
          2   -1    0    0  501    0  0.00000000000E+00 -0.00000000000E+00 -0.42577926228E+03  0.42577926229E+03  0.25500000000E-02 0.  1.
    5000001    1    1    2    0    0  0.44926503492E+02 -0.72058503023E+02 -0.20204867447E+03  0.23230042064E+03  0.77000000000E+02 0.  0.
   -5000001    1    1    2    0    0 -0.44926503492E+02  0.72058503023E+02 -0.19285744538E+03  0.22435198419E+03  0.77000000000E+02 0.  0.
<mgrwt>
<rscale>  0 0.22930455E+03</rscale>
<asrwt>0</asrwt>
<pdfrwt beam="1">  1        2 0.60825605E-01 0.22930455E+03</pdfrwt>
<pdfrwt beam="2">  1       -2 0.44104492E-02 0.22930455E+03</pdfrwt>
<totfact> 0.18777348E+04</totfact>
</mgrwt>
</event>
<event>
 4    1  0.4950349E-004  0.2227100E+03  0.7818608E-02  0.1131879E+00
          2   -1    0    0  501    0  0.00000000000E+00  0.00000000000E+00  0.31309526430E+03  0.31309526431E+03  0.25500000000E-02 0.  1.
         -2   -1    0    0    0  501 -0.00000000000E+00 -0.00000000000E+00 -0.39604371093E+02  0.39604371175E+02  0.25500000000E-02 0. -1.
    5000001    1    1    2    0    0  0.13901109718E+02 -0.71369181812E+02  0.82249180523E+02  0.13409223937E+03  0.77000000000E+02 0.  0.
   -5000001    1    1    2    0    0 -0.13901109718E+02  0.71369181812E+02  0.19124171268E+03  0.21860739611E+03  0.77000000000E+02 0.  0.
<mgrwt>
<rscale>  0 0.22271005E+03</rscale>
<asrwt>0</asrwt>
<pdfrwt beam="1">  1        2 0.44727896E-01 0.22271005E+03</pdfrwt>
<pdfrwt beam="2">  1       -2 0.56577672E-02 0.22271005E+03</pdfrwt>
<totfact> 0.17881972E+04</totfact>
</mgrwt>
</event>
<event>
 4    1  0.4950349E-004  0.1704338E+03  0.7818608E-02  0.1177396E+00
         -2   -1    0    0    0  501 -0.00000000000E+00  0.00000000000E+00  0.80729311717E+01  0.80729315744E+01  0.25500000000E-02 0. -1.
          2   -1    0    0  501    0  0.00000000000E+00 -0.00000000000E+00 -0.89953897108E+03  0.89953897108E+03  0.25500000000E-02 0.  1.
    5000001    1    1    2    0    0 -0.29853141958E+02 -0.19466154577E+02 -0.48792582114E+03  0.49524816829E+03  0.77000000000E+02 0.  0.
   -5000001    1    1    2    0    0  0.29853141958E+02  0.19466154577E+02 -0.40354021877E+03  0.41236373437E+03  0.77000000000E+02 0.  0.
<mgrwt>
<rscale>  0 0.17043376E+03</rscale>
<asrwt>0</asrwt>
<pdfrwt beam="1">  1        2 0.12850550E+00 0.17043376E+03</pdfrwt>
<pdfrwt beam="2">  1       -2 0.11532765E-02 0.17043376E+03</pdfrwt>
<totfact> 0.55556049E+04</totfact>
</mgrwt>
</event>
<event>
 4    1  0.4950349E-004  0.2186707E+03  0.7818608E-02  0.1134878E+00
          2   -1    0    0  501    0  0.00000000000E+00  0.00000000000E+00  0.42118486240E+03  0.42118486241E+03  0.25500000000E-02 0.  1.
         -2   -1    0    0    0  501 -0.00000000000E+00 -0.00000000000E+00 -0.28382347720E+02  0.28382347834E+02  0.25500000000E-02 0. -1.
    5000001    1    1    2    0    0  0.15731716044E+02  0.59891761107E+02  0.10017445000E+03  0.14070689525E+03  0.77000000000E+02 0.  0.
   -5000001    1    1    2    0    0 -0.15731716044E+02 -0.59891761107E+02  0.29262806468E+03  0.30886031500E+03  0.77000000000E+02 0.  0.
<mgrwt>
<rscale>  0 0.21867067E+03</rscale>
<asrwt>0</asrwt>
<pdfrwt beam="1">  1        2 0.60169261E-01 0.21867067E+03</pdfrwt>
<pdfrwt beam="2">  1       -2 0.40546215E-02 0.21867067E+03</pdfrwt>
<totfact> 0.21490597E+04</totfact>
</mgrwt>
</event>
<event>
 4    1  0.4950349E-004  0.2703374E+03  0.7818608E-02  0.1101087E+00
         -2   -1    0    0    0  501 -0.00000000000E+00  0.00000000000E+00  0.78254324488E+01  0.78254328643E+01  0.25500000000E-02 0. -1.
          2   -1    0    0  501    0  0.00000000000E+00 -0.00000000000E+00 -0.23347685164E+04  0.23347685164E+04  0.25500000000E-02 0.  1.
    5000001    1    1    2    0    0  0.15783886100E+02  0.10341986962E+03 -0.83961409271E+03  0.84960321631E+03  0.77000000000E+02 0.  0.
   -5000001    1    1    2    0    0 -0.15783886100E+02 -0.10341986962E+03 -0.14873289913E+04  0.14929907330E+04  0.77000000000E+02 0.  0.
<mgrwt>
<rscale>  0 0.27033737E+03</rscale>
<asrwt>0</asrwt>
<pdfrwt beam="1">  1        2 0.33353791E+00 0.27033737E+03</pdfrwt>
<pdfrwt beam="2">  1       -2 0.11179204E-02 0.27033737E+03</pdfrwt>
<totfact> 0.10975004E+04</totfact>
</mgrwt>
</event>
<event>
 4    1  0.4950349E-004  0.1700091E+03  0.7818608E-02  0.1177838E+00
         -2   -1    0    0    0  501 -0.00000000000E+00  0.00000000000E+00  0.65048419038E+01  0.65048424037E+01  0.25500000000E-02 0. -1.
          2   -1    0    0  501    0  0.00000000000E+00 -0.00000000000E+00 -0.11108297694E+04  0.11108297694E+04  0.25500000000E-02 0.  1.
    5000001    1    1    2    0    0 -0.20216786795E+02  0.29799348891E+02 -0.55367050097E+03  0.56015778430E+03  0.77000000000E+02 0.  0.
   -5000001    1    1    2    0    0  0.20216786795E+02 -0.29799348891E+02 -0.55065442655E+03  0.55717682754E+03  0.77000000000E+02 0.  0.
<mgrwt>
<rscale>  0 0.17000909E+03</rscale>
<asrwt>0</asrwt>
<pdfrwt beam="1">  1        2 0.15868985E+00 0.17000909E+03</pdfrwt>
<pdfrwt beam="2">  1       -2 0.92926387E-03 0.17000909E+03</pdfrwt>
<totfact> 0.57123543E+04</totfact>
</mgrwt>
</event>
<event>
 4    1  0.4950349E-004  0.4340888E+03  0.7818608E-02  0.1032576E+00
         -2   -1    0    0    0  501 -0.00000000000E+00  0.00000000000E+00  0.26791078786E+02  0.26791078908E+02  0.25500000000E-02 0. -1.
          2   -1    0    0  501    0  0.00000000000E+00 -0.00000000000E+00 -0.17583567296E+04  0.17583567296E+04  0.25500000000E-02 0.  1.
    5000001    1    1    2    0    0  0.19748293739E+03 -0.35071426708E+02 -0.99251944782E+03  0.10155064598E+04  0.77000000000E+02 0.  0.
   -5000001    1    1    2    0    0 -0.19748293739E+03  0.35071426708E+02 -0.73904620302E+03  0.76964134877E+03  0.77000000000E+02 0.  0.
<mgrwt>
<rscale>  0 0.43408881E+03</rscale>
<asrwt>0</asrwt>
<pdfrwt beam="1">  1        2 0.25119375E+00 0.43408881E+03</pdfrwt>
<pdfrwt beam="2">  1       -2 0.38272981E-02 0.43408881E+03</pdfrwt>
<totfact> 0.34032017E+03</totfact>
</mgrwt>
</event>
<event>
 4    1  0.4950349E-004  0.1837602E+03  0.7818608E-02  0.1164213E+00
          2   -1    0    0  501    0  0.00000000000E+00  0.00000000000E+00  0.27010522849E+03  0.27010522850E+03  0.25500000000E-02 0.  1.
         -2   -1    0    0    0  501 -0.00000000000E+00 -0.00000000000E+00 -0.31254308520E+02  0.31254308624E+02  0.25500000000E-02 0. -1.
    5000001    1    1    2    0    0 -0.47713486800E+01  0.49648869617E+02  0.12765410007E+03  0.15720160714E+03  0.77000000000E+02 0.  0.
   -5000001    1    1    2    0    0  0.47713486800E+01 -0.49648869617E+02  0.11119681990E+03  0.14415792999E+03  0.77000000000E+02 0.  0.
<mgrwt>
<rscale>  0 0.18376019E+03</rscale>
<asrwt>0</asrwt>
<pdfrwt beam="1">  1        2 0.38586463E-01 0.18376019E+03</pdfrwt>
<pdfrwt beam="2">  1       -2 0.44649010E-02 0.18376019E+03</pdfrwt>
<totfact> 0.29527188E+04</totfact>
</mgrwt>
</event>
<event>
 4    1  0.4950349E-004  0.4579378E+03  0.7818608E-02  0.1025381E+00
         -2   -1    0    0    0  501 -0.00000000000E+00  0.00000000000E+00  0.20523557142E+02  0.20523557301E+02  0.25500000000E-02 0. -1.
          2   -1    0    0  501    0  0.00000000000E+00 -0.00000000000E+00 -0.25544679118E+04  0.25544679118E+04  0.25500000000E-02 0.  1.
    5000001    1    1    2    0    0  0.10173010447E+03 -0.18398769950E+03 -0.99746131045E+03  0.10222810541E+04  0.77000000000E+02 0.  0.
   -5000001    1    1    2    0    0 -0.10173010447E+03  0.18398769950E+03 -0.15364830442E+04  0.15527104150E+04  0.77000000000E+02 0.  0.
<mgrwt>
<rscale>  0 0.45793785E+03</rscale>
<asrwt>0</asrwt>
<pdfrwt beam="1">  1        2 0.36492379E+00 0.45793785E+03</pdfrwt>
<pdfrwt beam="2">  1       -2 0.29319384E-02 0.45793785E+03</pdfrwt>
<totfact> 0.20345316E+03</totfact>
</mgrwt>
</event>
<event>
 4    1  0.4950349E-004  0.3014102E+03  0.7818608E-02  0.1084538E+00
         -2   -1    0    0    0  501 -0.00000000000E+00  0.00000000000E+00  0.74577059680E+01  0.74577064039E+01  0.25500000000E-02 0. -1.
          2   -1    0    0  501    0  0.00000000000E+00 -0.00000000000E+00 -0.30454437665E+04  0.30454437665E+04  0.25500000000E-02 0.  1.
    5000001    1    1    2    0    0 -0.93902031617E+02  0.29623863085E+02 -0.66626128418E+03  0.67788514042E+03  0.77000000000E+02 0.  0.
   -5000001    1    1    2    0    0  0.93902031617E+02 -0.29623863085E+02 -0.23717247764E+04  0.23750163325E+04  0.77000000000E+02 0.  0.
<mgrwt>
<rscale>  0 0.30141018E+03</rscale>
<asrwt>0</asrwt>
<pdfrwt beam="1">  1        2 0.43506260E+00 0.30141018E+03</pdfrwt>
<pdfrwt beam="2">  1       -2 0.10653885E-02 0.30141018E+03</pdfrwt>
<totfact> 0.51002865E+03</totfact>
</mgrwt>
</event>
<event>
 4    1  0.4950349E-004  0.2278848E+03  0.7818608E-02  0.1128137E+00
         -2   -1    0    0    0  501 -0.00000000000E+00  0.00000000000E+00  0.66577007390E+02  0.66577007439E+02  0.25500000000E-02 0. -1.
          2   -1    0    0  501    0  0.00000000000E+00 -0.00000000000E+00 -0.19500528498E+03  0.19500528500E+03  0.25500000000E-02 0.  1.
    5000001    1    1    2    0    0 -0.49646290353E+02  0.23163383786E+02  0.88591038429E+01  0.94914594321E+02  0.77000000000E+02 0.  0.
   -5000001    1    1    2    0    0  0.49646290353E+02 -0.23163383786E+02 -0.13728738143E+03  0.16666769811E+03  0.77000000000E+02 0.  0.
<mgrwt>
<rscale>  0 0.22788478E+03</rscale>
<asrwt>0</asrwt>
<pdfrwt beam="1">  1        2 0.27857898E-01 0.22788478E+03</pdfrwt>
<pdfrwt beam="2">  1       -2 0.95110012E-02 0.22788478E+03</pdfrwt>
<totfact> 0.13372562E+04</totfact>
</mgrwt>
</event>
<event>
 4    1  0.4950349E-004  0.3097430E+03  0.7818608E-02  0.1080469E+00
         -2   -1    0    0    0  501 -0.00000000000E+00  0.00000000000E+00  0.74133460342E+02  0.74133460386E+02  0.25500000000E-02 0. -1.
          2   -1    0    0  501    0  0.00000000000E+00 -0.00000000000E+00 -0.32354047049E+03  0.32354047050E+03  0.25500000000E-02 0.  1.
    5000001    1    1    2    0    0  0.26540452969E+02 -0.13157658819E+03 -0.11664664172E+03  0.19378398599E+03  0.77000000000E+02 0.  0.
   -5000001    1    1    2    0    0 -0.26540452969E+02  0.13157658819E+03 -0.13276036843E+03  0.20388994489E+03  0.77000000000E+02 0.  0.
<mgrwt>
<rscale>  0 0.30974296E+03</rscale>
<asrwt>0</asrwt>
<pdfrwt beam="1">  1        2 0.46220066E-01 0.30974296E+03</pdfrwt>
<pdfrwt beam="2">  1       -2 0.10590495E-01 0.30974296E+03</pdfrwt>
<totfact> 0.65972973E+03</totfact>
</mgrwt>
</event>
<event>
 4    1  0.4950349E-004  0.4995288E+03  0.7818608E-02  0.1013902E+00
          2   -1    0    0  501    0  0.00000000000E+00  0.00000000000E+00  0.21045818984E+03  0.21045818986E+03  0.25500000000E-02 0.  1.
         -2   -1    0    0    0  501 -0.00000000000E+00 -0.00000000000E+00 -0.29641160666E+03  0.29641160667E+03  0.25500000000E-02 0. -1.
    5000001    1    1    2    0    0  0.11504520913E+03 -0.20395083952E+03 -0.21119797165E+01  0.24650518361E+03  0.77000000000E+02 0.  0.
   -5000001    1    1    2    0    0 -0.11504520913E+03  0.20395083952E+03 -0.83841437106E+02  0.26036461292E+03  0.77000000000E+02 0.  0.
<mgrwt>
<rscale>  0 0.49952878E+03</rscale>
<asrwt>0</asrwt>
<pdfrwt beam="1">  1        2 0.30065456E-01 0.49952878E+03</pdfrwt>
<pdfrwt beam="2">  1       -2 0.42344515E-01 0.49952878E+03</pdfrwt>
<totfact> 0.94063548E+02</totfact>
</mgrwt>
</event>
<event>
 4    1  0.4950349E-004  0.2614836E+03  0.7818608E-02  0.1106255E+00
          2   -1    0    0  501    0  0.00000000000E+00  0.00000000000E+00  0.11196793047E+03  0.11196793050E+03  0.25500000000E-02 0.  1.
         -2   -1    0    0    0  501 -0.00000000000E+00 -0.00000000000E+00 -0.15266347452E+03  0.15266347454E+03  0.25500000000E-02 0. -1.
    5000001    1    1    2    0    0  0.32294906792E+02  0.49018334513E+02  0.68565749271E+02  0.11864240429E+03  0.77000000000E+02 0.  0.
   -5000001    1    1    2    0    0 -0.32294906792E+02 -0.49018334513E+02 -0.10926129332E+03  0.14598900075E+03  0.77000000000E+02 0.  0.
<mgrwt>
<rscale>  0 0.26148356E+03</rscale>
<asrwt>0</asrwt>
<pdfrwt beam="1">  1        2 0.15995419E-01 0.26148356E+03</pdfrwt>
<pdfrwt beam="2">  1       -2 0.21809068E-01 0.26148356E+03</pdfrwt>
<totfact> 0.64569297E+03</totfact>
</mgrwt>
</event>
<event>
 4    1  0.4950349E-004  0.2415858E+03  0.7818608E-02  0.1118741E+00
         -2   -1    0    0    0  501 -0.00000000000E+00  0.00000000000E+00  0.78544257949E+02  0.78544257991E+02  0.25500000000E-02 0. -1.
          2   -1    0    0  501    0  0.00000000000E+00 -0.00000000000E+00 -0.18576690101E+03  0.18576690103E+03  0.25500000000E-02 0.  1.
    5000001    1    1    2    0    0  0.72431009223E+02 -0.40825144652E+02 -0.78565364471E+01  0.11359431631E+03  0.77000000000E+02 0.  0.
   -5000001    1    1    2    0    0 -0.72431009223E+02  0.40825144652E+02 -0.99366106617E+02  0.15071684271E+03  0.77000000000E+02 0.  0.
<mgrwt>
<rscale>  0 0.24158579E+03</rscale>
<asrwt>0</asrwt>
<pdfrwt beam="1">  1        2 0.26538129E-01 0.24158579E+03</pdfrwt>
<pdfrwt beam="2">  1       -2 0.11220608E-01 0.24158579E+03</pdfrwt>
<totfact> 0.10884531E+04</totfact>
</mgrwt>
</event>
<event>
 4    1  0.4950349E-004  0.2319998E+03  0.7818608E-02  0.1125240E+00
          2   -1    0    0  501    0  0.00000000000E+00  0.00000000000E+00  0.62261579090E+02  0.62261579142E+02  0.25500000000E-02 0.  1.
         -2   -1    0    0    0  501 -0.00000000000E+00 -0.00000000000E+00 -0.21612002931E+03  0.21612002932E+03  0.25500000000E-02 0. -1.
    5000001    1    1    2    0    0  0.14245897963E+02  0.78514797209E+02 -0.36070954741E+02  0.11660888802E+03  0.77000000000E+02 0.  0.
   -5000001    1    1    2    0    0 -0.14245897963E+02 -0.78514797209E+02 -0.11778749548E+03  0.16177272045E+03  0.77000000000E+02 0.  0.
<mgrwt>
<rscale>  0 0.23199978E+03</rscale>
<asrwt>0</asrwt>
<pdfrwt beam="1">  1        2 0.88945114E-02 0.23199978E+03</pdfrwt>
<pdfrwt beam="2">  1       -2 0.30874289E-01 0.23199978E+03</pdfrwt>
<totfact> 0.70759851E+03</totfact>
</mgrwt>
</event>
<event>
 4    1  0.4950349E-004  0.2749579E+03  0.7818608E-02  0.1098475E+00
         -2   -1    0    0    0  501 -0.00000000000E+00  0.00000000000E+00  0.81574732867E+02  0.81574732907E+02  0.25500000000E-02 0. -1.
          2   -1    0    0  501    0  0.00000000000E+00 -0.00000000000E+00 -0.23169498861E+03  0.23169498862E+03  0.25500000000E-02 0.  1.
    5000001    1    1    2    0    0  0.10333564318E+03  0.28663510476E+02 -0.31353442008E+02  0.13569042085E+03  0.77000000000E+02 0.  0.
   -5000001    1    1    2    0    0 -0.10333564318E+03 -0.28663510476E+02 -0.11876681373E+03  0.17757930068E+03  0.77000000000E+02 0.  0.
<mgrwt>
<rscale>  0 0.27495786E+03</rscale>
<asrwt>0</asrwt>
<pdfrwt beam="1">  1        2 0.33099284E-01 0.27495786E+03</pdfrwt>
<pdfrwt beam="2">  1       -2 0.11653533E-01 0.27495786E+03</pdfrwt>
<totfact> 0.80860098E+03</totfact>
</mgrwt>
</event>
<event>
 4    1  0.4950349E-004  0.2312376E+03  0.7818608E-02  0.1125772E+00
         -2   -1    0    0    0  501 -0.00000000000E+00  0.00000000000E+00  0.16320413201E+03  0.16320413203E+03  0.25500000000E-02 0. -1.
          2   -1    0    0  501    0  0.00000000000E+00 -0.00000000000E+00 -0.81907894551E+02  0.81907894591E+02  0.25500000000E-02 0.  1.
    5000001    1    1    2    0    0  0.58547176649E+02  0.46843450361E+02  0.85827361152E+02  0.13754060003E+03  0.77000000000E+02 0.  0.
   -5000001    1    1    2    0    0 -0.58547176649E+02 -0.46843450361E+02 -0.45311236957E+01  0.10757142658E+03  0.77000000000E+02 0.  0.
<mgrwt>
<rscale>  0 0.23123760E+03</rscale>
<asrwt>0</asrwt>
<pdfrwt beam="1">  1        2 0.11701128E-01 0.23123760E+03</pdfrwt>
<pdfrwt beam="2">  1       -2 0.23314876E-01 0.23123760E+03</pdfrwt>
<totfact> 0.83096103E+03</totfact>
</mgrwt>
</event>
<event>
 4    1  0.4950349E-004  0.1950699E+03  0.7818608E-02  0.1153967E+00
         -2   -1    0    0    0  501 -0.00000000000E+00  0.00000000000E+00  0.12635884512E+02  0.12635884769E+02  0.25500000000E-02 0. -1.
          2   -1    0    0  501    0  0.00000000000E+00 -0.00000000000E+00 -0.75286075276E+03  0.75286075276E+03  0.25500000000E-02 0.  1.
    5000001    1    1    2    0    0  0.25021139271E+02 -0.48644063795E+02 -0.27465150157E+03  0.29043889145E+03  0.77000000000E+02 0.  0.
   -5000001    1    1    2    0    0 -0.25021139271E+02  0.48644063795E+02 -0.46557336668E+03  0.47505774608E+03  0.77000000000E+02 0.  0.
<mgrwt>
<rscale>  0 0.19506985E+03</rscale>
<asrwt>0</asrwt>
<pdfrwt beam="1">  1        2 0.10755151E+00 0.19506985E+03</pdfrwt>
<pdfrwt beam="2">  1       -2 0.18051269E-02 0.19506985E+03</pdfrwt>
<totfact> 0.36595802E+04</totfact>
</mgrwt>
</event>
<event>
 4    1  0.4950349E-004  0.3988176E+03  0.7818608E-02  0.1044190E+00
          2   -1    0    0  501    0  0.00000000000E+00  0.00000000000E+00  0.10966237942E+04  0.10966237942E+04  0.25500000000E-02 0.  1.
         -2   -1    0    0    0  501 -0.00000000000E+00 -0.00000000000E+00 -0.36260269964E+02  0.36260270054E+02  0.25500000000E-02 0. -1.
    5000001    1    1    2    0    0 -0.87239265464E+02 -0.15943108545E+03  0.44954082067E+03  0.49096324699E+03  0.77000000000E+02 0.  0.
   -5000001    1    1    2    0    0  0.87239265464E+02  0.15943108545E+03  0.61082270355E+03  0.64192081725E+03  0.77000000000E+02 0.  0.
<mgrwt>
<rscale>  0 0.39881763E+03</rscale>
<asrwt>0</asrwt>
<pdfrwt beam="1">  1        2 0.15666055E+00 0.39881763E+03</pdfrwt>
<pdfrwt beam="2">  1       -2 0.51800382E-02 0.39881763E+03</pdfrwt>
<totfact> 0.47730962E+03</totfact>
</mgrwt>
</event>
<event>
 4    1  0.4950349E-004  0.3010403E+03  0.7818608E-02  0.1084722E+00
         -2   -1    0    0    0  501 -0.00000000000E+00  0.00000000000E+00  0.22756859763E+02  0.22756859906E+02  0.25500000000E-02 0. -1.
          2   -1    0    0  501    0  0.00000000000E+00 -0.00000000000E+00 -0.99558192511E+03  0.99558192512E+03  0.25500000000E-02 0.  1.
    5000001    1    1    2    0    0 -0.11361601573E+03  0.18963748253E+02 -0.28746026231E+03  0.31910911173E+03  0.77000000000E+02 0.  0.
   -5000001    1    1    2    0    0  0.11361601573E+03 -0.18963748253E+02 -0.68536480304E+03  0.69922967330E+03  0.77000000000E+02 0.  0.
<mgrwt>
<rscale>  0 0.30104032E+03</rscale>
<asrwt>0</asrwt>
<pdfrwt beam="1">  1        2 0.14222596E+00 0.30104032E+03</pdfrwt>
<pdfrwt beam="2">  1       -2 0.32509806E-02 0.30104032E+03</pdfrwt>
<totfact> 0.11012946E+04</totfact>
</mgrwt>
</event>
