<event>
 4    1  0.2013882E-005  0.1338691E+04  0.7818608E-02  0.8999433E-01
         -2   -1    0    0    0  501 -0.00000000000E+00  0.00000000000E+00  0.22394336032E+03  0.22394336034E+03  0.25500000000E-02 0. -1.
          2   -1    0    0  501    0  0.00000000000E+00 -0.00000000000E+00 -0.20006100611E+04  0.20006100611E+04  0.25500000000E-02 0.  1.
    5000001    1    1    2    0    0  0.49641305508E+03 -0.20429060702E+03 -0.30554226203E+03  0.64682350550E+03  0.19200000000E+03 0.  0.
   -5000001    1    1    2    0    0 -0.49641305508E+03  0.20429060702E+03 -0.14711244387E+04  0.15777299159E+04  0.19200000000E+03 0.  0.
<mgrwt>
<rscale>  0 0.13386909E+04</rscale>
<asrwt>0</asrwt>
<pdfrwt beam="1">  1        2 0.28580143E+00 0.13386909E+04</pdfrwt>
<pdfrwt beam="2">  1       -2 0.31991910E-01 0.13386909E+04</pdfrwt>
<totfact> 0.71284172E+01</totfact>
</mgrwt>
</event>
<event>
 4    1  0.2013882E-005  0.5528817E+03  0.7818608E-02  0.1000829E+00
          2   -1    0    0  501    0  0.00000000000E+00  0.00000000000E+00  0.10509533266E+04  0.10509533266E+04  0.25500000000E-02 0.  1.
         -2   -1    0    0    0  501 -0.00000000000E+00 -0.00000000000E+00 -0.72714486761E+02  0.72714486805E+02  0.25500000000E-02 0. -1.
    5000001    1    1    2    0    0 -0.16989399126E+03  0.24736017389E+02  0.28507279734E+03  0.38419570353E+03  0.19200000000E+03 0.  0.
   -5000001    1    1    2    0    0  0.16989399126E+03 -0.24736017389E+02  0.69316604247E+03  0.73947210985E+03  0.19200000000E+03 0.  0.
<mgrwt>
<rscale>  0 0.55288166E+03</rscale>
<asrwt>0</asrwt>
<pdfrwt beam="1">  1        2 0.15013620E+00 0.55288166E+03</pdfrwt>
<pdfrwt beam="2">  1       -2 0.10387783E-01 0.55288166E+03</pdfrwt>
<totfact> 0.16943522E+03</totfact>
</mgrwt>
</event>
<event>
 4    1  0.2013882E-005  0.4891252E+03  0.7818608E-02  0.1016657E+00
          2   -1    0    0  501    0  0.00000000000E+00  0.00000000000E+00  0.13955210002E+04  0.13955210002E+04  0.25500000000E-02 0.  1.
         -2   -1    0    0    0  501 -0.00000000000E+00 -0.00000000000E+00 -0.42859172936E+02  0.42859173012E+02  0.25500000000E-02 0. -1.
    5000001    1    1    2    0    0  0.73438022329E+02  0.12617822569E+03  0.79515884449E+03  0.83093662558E+03  0.19200000000E+03 0.  0.
   -5000001    1    1    2    0    0 -0.73438022329E+02 -0.12617822569E+03  0.55750298280E+03  0.60744354765E+03  0.19200000000E+03 0.  0.
<mgrwt>
<rscale>  0 0.48912524E+03</rscale>
<asrwt>0</asrwt>
<pdfrwt beam="1">  1        2 0.19936015E+00 0.48912524E+03</pdfrwt>
<pdfrwt beam="2">  1       -2 0.61227387E-02 0.48912524E+03</pdfrwt>
<totfact> 0.25289428E+03</totfact>
</mgrwt>
</event>
<event>
 4    1  0.2013882E-005  0.6618409E+03  0.7818608E-02  0.9784811E-01
         -2   -1    0    0    0  501 -0.00000000000E+00  0.00000000000E+00  0.40763526457E+03  0.40763526458E+03  0.25500000000E-02 0. -1.
          2   -1    0    0  501    0  0.00000000000E+00 -0.00000000000E+00 -0.26864299575E+03  0.26864299576E+03  0.25500000000E-02 0.  1.
    5000001    1    1    2    0    0  0.21453773010E+03 -0.83093098507E+02  0.21296352596E+03  0.36762530387E+03  0.19200000000E+03 0.  0.
   -5000001    1    1    2    0    0 -0.21453773010E+03  0.83093098507E+02 -0.73971257135E+02  0.30865295647E+03  0.19200000000E+03 0.  0.
<mgrwt>
<rscale>  0 0.66184094E+03</rscale>
<asrwt>0</asrwt>
<pdfrwt beam="1">  1        2 0.38377571E-01 0.66184094E+03</pdfrwt>
<pdfrwt beam="2">  1       -2 0.58233609E-01 0.66184094E+03</pdfrwt>
<totfact> 0.37544710E+02</totfact>
</mgrwt>
</event>
<event>
 4    1  0.2013882E-005  0.5601578E+03  0.7818608E-02  0.9991698E-01
          2   -1    0    0  501    0  0.00000000000E+00  0.00000000000E+00  0.74102012080E+03  0.74102012080E+03  0.25500000000E-02 0.  1.
         -2   -1    0    0    0  501 -0.00000000000E+00 -0.00000000000E+00 -0.10585973263E+03  0.10585973267E+03  0.25500000000E-02 0. -1.
    5000001    1    1    2    0    0  0.38922065117E+02 -0.19672587417E+03  0.37342074070E+03  0.46532036953E+03  0.19200000000E+03 0.  0.
   -5000001    1    1    2    0    0 -0.38922065117E+02  0.19672587417E+03  0.26173964747E+03  0.38155948393E+03  0.19200000000E+03 0.  0.
<mgrwt>
<rscale>  0 0.56015781E+03</rscale>
<asrwt>0</asrwt>
<pdfrwt beam="1">  1        2 0.10586002E+00 0.56015781E+03</pdfrwt>
<pdfrwt beam="2">  1       -2 0.15122819E-01 0.56015781E+03</pdfrwt>
<totfact> 0.14494621E+03</totfact>
</mgrwt>
</event>
<event>
 4    1  0.2013882E-005  0.4886932E+03  0.7818608E-02  0.1016773E+00
         -2   -1    0    0    0  501 -0.00000000000E+00  0.00000000000E+00  0.31088899166E+02  0.31088899270E+02  0.25500000000E-02 0. -1.
          2   -1    0    0  501    0  0.00000000000E+00 -0.00000000000E+00 -0.19204684146E+04  0.19204684146E+04  0.25500000000E-02 0.  1.
    5000001    1    1    2    0    0  0.14715775325E+03  0.18172645836E+02 -0.82787967183E+03  0.86269021116E+03  0.19200000000E+03 0.  0.
   -5000001    1    1    2    0    0 -0.14715775325E+03 -0.18172645836E+02 -0.10614998436E+04  0.10888671027E+04  0.19200000000E+03 0.  0.
<mgrwt>
<rscale>  0 0.48869315E+03</rscale>
<asrwt>0</asrwt>
<pdfrwt beam="1">  1        2 0.27435256E+00 0.48869315E+03</pdfrwt>
<pdfrwt beam="2">  1       -2 0.44412725E-02 0.48869315E+03</pdfrwt>
<totfact> 0.22467515E+03</totfact>
</mgrwt>
</event>
<event>
 4    1  0.2013882E-005  0.6871617E+03  0.7818608E-02  0.9739443E-01
          2   -1    0    0  501    0  0.00000000000E+00  0.00000000000E+00  0.46418834509E+03  0.46418834510E+03  0.25500000000E-02 0.  1.
         -2   -1    0    0    0  501 -0.00000000000E+00 -0.00000000000E+00 -0.25431011779E+03  0.25431011781E+03  0.25500000000E-02 0. -1.
    5000001    1    1    2    0    0 -0.15058067185E+03  0.11474049727E+03  0.32759091589E+03  0.42428731848E+03  0.19200000000E+03 0.  0.
   -5000001    1    1    2    0    0  0.15058067185E+03 -0.11474049727E+03 -0.11771268859E+03  0.29421114443E+03  0.19200000000E+03 0.  0.
<mgrwt>
<rscale>  0 0.68716168E+03</rscale>
<asrwt>0</asrwt>
<pdfrwt beam="1">  1        2 0.66312620E-01 0.68716168E+03</pdfrwt>
<pdfrwt beam="2">  1       -2 0.36330017E-01 0.68716168E+03</pdfrwt>
<totfact> 0.52431749E+02</totfact>
</mgrwt>
</event>
<event>
 4    1  0.2013882E-005  0.8778023E+03  0.7818608E-02  0.9453763E-01
          2   -1    0    0  501    0  0.00000000000E+00  0.00000000000E+00  0.28179442428E+04  0.28179442428E+04  0.25500000000E-02 0.  1.
         -2   -1    0    0    0  501 -0.00000000000E+00 -0.00000000000E+00 -0.68359833038E+02  0.68359833086E+02  0.25500000000E-02 0. -1.
    5000001    1    1    2    0    0 -0.21493199062E+03  0.31792894794E+03  0.16778622194E+04  0.17318661044E+04  0.19200000000E+03 0.  0.
   -5000001    1    1    2    0    0  0.21493199062E+03 -0.31792894794E+03  0.10717221904E+04  0.11544379714E+04  0.19200000000E+03 0.  0.
<mgrwt>
<rscale>  0 0.87780225E+03</rscale>
<asrwt>0</asrwt>
<pdfrwt beam="1">  1        2 0.40256352E+00 0.87780225E+03</pdfrwt>
<pdfrwt beam="2">  1       -2 0.97656890E-02 0.87780225E+03</pdfrwt>
<totfact> 0.21844953E+02</totfact>
</mgrwt>
</event>
<event>
 4    1  0.2013882E-005  0.5016167E+03  0.7818608E-02  0.1013358E+00
          2   -1    0    0  501    0  0.00000000000E+00  0.00000000000E+00  0.30440031829E+03  0.30440031830E+03  0.25500000000E-02 0.  1.
         -2   -1    0    0    0  501 -0.00000000000E+00 -0.00000000000E+00 -0.20665161532E+03  0.20665161534E+03  0.25500000000E-02 0. -1.
    5000001    1    1    2    0    0 -0.64249464707E+00 -0.12069781448E+03  0.15799854003E+03  0.27639810757E+03  0.19200000000E+03 0.  0.
   -5000001    1    1    2    0    0  0.64249464707E+00  0.12069781448E+03 -0.60249837063E+02  0.23465382606E+03  0.19200000000E+03 0.  0.
<mgrwt>
<rscale>  0 0.50161666E+03</rscale>
<asrwt>0</asrwt>
<pdfrwt beam="1">  1        2 0.43485759E-01 0.50161666E+03</pdfrwt>
<pdfrwt beam="2">  1       -2 0.29521660E-01 0.50161666E+03</pdfrwt>
<totfact> 0.12380057E+03</totfact>
</mgrwt>
</event>
<event>
 4    1  0.2013882E-005  0.4732063E+03  0.7818608E-02  0.1021019E+00
         -2   -1    0    0    0  501 -0.00000000000E+00  0.00000000000E+00  0.11550358136E+04  0.11550358136E+04  0.25500000000E-02 0. -1.
          2   -1    0    0  501    0  0.00000000000E+00 -0.00000000000E+00 -0.48466943213E+02  0.48466943280E+02  0.25500000000E-02 0.  1.
    5000001    1    1    2    0    0  0.65525162135E+02  0.85593314903E+02  0.33306847591E+03  0.39927230316E+03  0.19200000000E+03 0.  0.
   -5000001    1    1    2    0    0 -0.65525162135E+02 -0.85593314903E+02  0.77350039444E+03  0.80423045368E+03  0.19200000000E+03 0.  0.
<mgrwt>
<rscale>  0 0.47320632E+03</rscale>
<asrwt>0</asrwt>
<pdfrwt beam="1">  1        2 0.69238497E-02 0.47320632E+03</pdfrwt>
<pdfrwt beam="2">  1       -2 0.16500510E+00 0.47320632E+03</pdfrwt>
<totfact> 0.25268793E+02</totfact>
</mgrwt>
</event>
<event>
 4    1  0.2013882E-005  0.1209979E+04  0.7818608E-02  0.9104167E-01
          2   -1    0    0  501    0  0.00000000000E+00  0.00000000000E+00  0.10739388110E+04  0.10739388110E+04  0.25500000000E-02 0.  1.
         -2   -1    0    0    0  501 -0.00000000000E+00 -0.00000000000E+00 -0.34081285888E+03  0.34081285889E+03  0.25500000000E-02 0. -1.
    5000001    1    1    2    0    0 -0.30132310445E+03  0.38275316813E+03  0.12200207303E+02  0.52374463821E+03  0.19200000000E+03 0.  0.
   -5000001    1    1    2    0    0  0.30132310445E+03 -0.38275316813E+03  0.72092574484E+03  0.89100703172E+03  0.19200000000E+03 0.  0.
<mgrwt>
<rscale>  0 0.12099788E+04</rscale>
<asrwt>0</asrwt>
<pdfrwt beam="1">  1        2 0.15341983E+00 0.12099788E+04</pdfrwt>
<pdfrwt beam="2">  1       -2 0.48687551E-01 0.12099788E+04</pdfrwt>
<totfact> 0.99748796E+01</totfact>
</mgrwt>
</event>
<event>
 4    1  0.2013882E-005  0.5907993E+03  0.7818608E-02  0.9924681E-01
         -2   -1    0    0    0  501 -0.00000000000E+00  0.00000000000E+00  0.69923154545E+02  0.69923154592E+02  0.25500000000E-02 0.  1.
          2   -1    0    0  501    0  0.00000000000E+00 -0.00000000000E+00 -0.12479550914E+04  0.12479550914E+04  0.25500000000E-02 0. -1.
    5000001    1    1    2    0    0 -0.82870983332E+01  0.19311465960E+03 -0.84369370184E+03  0.88659179461E+03  0.19200000000E+03 0.  0.
   -5000001    1    1    2    0    0  0.82870983332E+01 -0.19311465960E+03 -0.33433823500E+03  0.43128645137E+03  0.19200000000E+03 0.  0.
<mgrwt>
<rscale>  0 0.59079931E+03</rscale>
<asrwt>0</asrwt>
<pdfrwt beam="1">  1        2 0.17827929E+00 0.59079931E+03</pdfrwt>
<pdfrwt beam="2">  1       -2 0.99890228E-02 0.59079931E+03</pdfrwt>
<totfact> 0.13927186E+03</totfact>
</mgrwt>
</event>
<event>
 4    1  0.2013882E-005  0.6542150E+03  0.7818608E-02  0.9798902E-01
         -2   -1    0    0    0  501 -0.00000000000E+00  0.00000000000E+00  0.76882875486E+02  0.76882875528E+02  0.25500000000E-02 0. -1.
          2   -1    0    0  501    0  0.00000000000E+00 -0.00000000000E+00 -0.13917185949E+04  0.13917185949E+04  0.25500000000E-02 0.  1.
    5000001    1    1    2    0    0 -0.21285946463E+03 -0.97367846954E+02 -0.93550216725E+03  0.98326901418E+03  0.19200000000E+03 0.  0.
   -5000001    1    1    2    0    0  0.21285946463E+03  0.97367846954E+02 -0.37933355219E+03  0.48533245628E+03  0.19200000000E+03 0.  0.
<mgrwt>
<rscale>  0 0.65421503E+03</rscale>
<asrwt>0</asrwt>
<pdfrwt beam="1">  1        2 0.19881693E+00 0.65421503E+03</pdfrwt>
<pdfrwt beam="2">  1       -2 0.10983269E-01 0.65421503E+03</pdfrwt>
<totfact> 0.99525073E+02</totfact>
</mgrwt>
</event>
<event>
 4    1  0.2013882E-005  0.6009826E+03  0.7818608E-02  0.9903370E-01
         -2   -1    0    0    0  501 -0.00000000000E+00  0.00000000000E+00  0.69250039305E+02  0.69250039352E+02  0.25500000000E-02 0. -1.
          2   -1    0    0  501    0  0.00000000000E+00 -0.00000000000E+00 -0.13038984436E+04  0.13038984436E+04  0.25500000000E-02 0.  1.
    5000001    1    1    2    0    0 -0.13947943547E+03 -0.18178580561E+03 -0.54763000228E+03  0.62390961801E+03  0.19200000000E+03 0.  0.
   -5000001    1    1    2    0    0  0.13947943547E+03  0.18178580561E+03 -0.68701840202E+03  0.74923886495E+03  0.19200000000E+03 0.  0.
<mgrwt>
<rscale>  0 0.60098259E+03</rscale>
<asrwt>0</asrwt>
<pdfrwt beam="1">  1        2 0.18627119E+00 0.60098259E+03</pdfrwt>
<pdfrwt beam="2">  1       -2 0.98928636E-02 0.60098259E+03</pdfrwt>
<totfact> 0.13180153E+03</totfact>
</mgrwt>
</event>
<event>
 4    1  0.2013882E-005  0.4793834E+03  0.7818608E-02  0.1019305E+00
         -2   -1    0    0    0  501 -0.00000000000E+00  0.00000000000E+00  0.99118115385E+02  0.99118115418E+02  0.25500000000E-02 0. -1.
          2   -1    0    0  501    0  0.00000000000E+00 -0.00000000000E+00 -0.57963287746E+03  0.57963287747E+03  0.25500000000E-02 0.  1.
    5000001    1    1    2    0    0  0.96845090220E+02 -0.16614564770E+01 -0.39014310060E+03  0.44548554509E+03  0.19200000000E+03 0.  0.
   -5000001    1    1    2    0    0 -0.96845090220E+02  0.16614564770E+01 -0.90371661477E+02  0.23326544780E+03  0.19200000000E+03 0.  0.
<mgrwt>
<rscale>  0 0.47938343E+03</rscale>
<asrwt>0</asrwt>
<pdfrwt beam="1">  1        2 0.82804695E-01 0.47938343E+03</pdfrwt>
<pdfrwt beam="2">  1       -2 0.14159731E-01 0.47938343E+03</pdfrwt>
<totfact> 0.21711948E+03</totfact>
</mgrwt>
</event>
<event>
 4    1  0.2013882E-005  0.5859234E+03  0.7818608E-02  0.9935049E-01
          2   -1    0    0  501    0  0.00000000000E+00  0.00000000000E+00  0.14734317203E+03  0.14734317205E+03  0.25500000000E-02 0.  1.
         -2   -1    0    0    0  501 -0.00000000000E+00 -0.00000000000E+00 -0.58249429665E+03  0.58249429666E+03  0.25500000000E-02 0. -1.
    5000001    1    1    2    0    0  0.18100725523E+03  0.11610274564E+03 -0.15262295697E+03  0.32619203084E+03  0.19200000000E+03 0.  0.
   -5000001    1    1    2    0    0 -0.18100725523E+03 -0.11610274564E+03 -0.28252816765E+03  0.40364543786E+03  0.19200000000E+03 0.  0.
<mgrwt>
<rscale>  0 0.58592340E+03</rscale>
<asrwt>0</asrwt>
<pdfrwt beam="1">  1        2 0.21049025E-01 0.58592340E+03</pdfrwt>
<pdfrwt beam="2">  1       -2 0.83213470E-01 0.58592340E+03</pdfrwt>
<totfact> 0.34190771E+02</totfact>
</mgrwt>
</event>
<event>
 4    1  0.2013882E-005  0.6489362E+03  0.7818608E-02  0.9808777E-01
         -2   -1    0    0    0  501 -0.00000000000E+00  0.00000000000E+00  0.20381984011E+03  0.20381984013E+03  0.25500000000E-02 0. -1.
          2   -1    0    0  501    0  0.00000000000E+00 -0.00000000000E+00 -0.51653231322E+03  0.51653231322E+03  0.25500000000E-02 0.  1.
    5000001    1    1    2    0    0  0.12596452133E+03 -0.13146583421E+03  0.52100583150E+02  0.26968277098E+03  0.19200000000E+03 0.  0.
   -5000001    1    1    2    0    0 -0.12596452133E+03  0.13146583421E+03 -0.36481305625E+03  0.45066938237E+03  0.19200000000E+03 0.  0.
<mgrwt>
<rscale>  0 0.64893616E+03</rscale>
<asrwt>0</asrwt>
<pdfrwt beam="1">  1        2 0.73790330E-01 0.64893616E+03</pdfrwt>
<pdfrwt beam="2">  1       -2 0.29117120E-01 0.64893616E+03</pdfrwt>
<totfact> 0.70376273E+02</totfact>
</mgrwt>
</event>
<event>
 4    1  0.2013882E-005  0.5674234E+03  0.7818608E-02  0.9975397E-01
          2   -1    0    0  501    0  0.00000000000E+00  0.00000000000E+00  0.27857597557E+04  0.27857597557E+04  0.25500000000E-02 0.  1.
         -2   -1    0    0    0  501 -0.00000000000E+00 -0.00000000000E+00 -0.28894207213E+02  0.28894207326E+02  0.25500000000E-02 0. -1.
    5000001    1    1    2    0    0  0.16476739676E+03  0.11856035481E+03  0.11342380094E+04  0.11681458449E+04  0.19200000000E+03 0.  0.
   -5000001    1    1    2    0    0 -0.16476739676E+03 -0.11856035481E+03  0.16226275391E+04  0.16465081182E+04  0.19200000000E+03 0.  0.
<mgrwt>
<rscale>  0 0.56742337E+03</rscale>
<asrwt>0</asrwt>
<pdfrwt beam="1">  1        2 0.39796550E+00 0.56742337E+03</pdfrwt>
<pdfrwt beam="2">  1       -2 0.41277457E-02 0.56742337E+03</pdfrwt>
<totfact> 0.90923264E+02</totfact>
</mgrwt>
</event>
<event>
 4    1  0.2013882E-005  0.5930328E+03  0.7818608E-02  0.9919967E-01
         -2   -1    0    0    0  501 -0.00000000000E+00  0.00000000000E+00  0.57314839271E+02  0.57314839328E+02  0.25500000000E-02 0. -1.
          2   -1    0    0  501    0  0.00000000000E+00 -0.00000000000E+00 -0.15340177672E+04  0.15340177672E+04  0.25500000000E-02 0.  1.
    5000001    1    1    2    0    0 -0.82380846609E+02  0.66064432171E+02 -0.12744023988E+04  0.12931034712E+04  0.19200000000E+03 0.  0.
   -5000001    1    1    2    0    0  0.82380846609E+02 -0.66064432171E+02 -0.20230052910E+03  0.29822913533E+03  0.19200000000E+03 0.  0.
<mgrwt>
<rscale>  0 0.59303282E+03</rscale>
<asrwt>0</asrwt>
<pdfrwt beam="1">  1        2 0.21914537E+00 0.59303282E+03</pdfrwt>
<pdfrwt beam="2">  1       -2 0.81878351E-02 0.59303282E+03</pdfrwt>
<totfact> 0.13497059E+03</totfact>
</mgrwt>
</event>
<event>
 4    1  0.2013882E-005  0.1118030E+04  0.7818608E-02  0.9187794E-01
          2   -1    0    0  501    0  0.00000000000E+00  0.00000000000E+00  0.14611413310E+04  0.14611413310E+04  0.25500000000E-02 0.  1.
         -2   -1    0    0    0  501 -0.00000000000E+00 -0.00000000000E+00 -0.21387247353E+03  0.21387247354E+03  0.25500000000E-02 0. -1.
    5000001    1    1    2    0    0  0.46342330377E+03 -0.15336152547E+03  0.33408177543E+03  0.62189673471E+03  0.19200000000E+03 0.  0.
   -5000001    1    1    2    0    0 -0.46342330377E+03  0.15336152547E+03  0.91318708203E+03  0.10531170698E+04  0.19200000000E+03 0.  0.
<mgrwt>
<rscale>  0 0.11180303E+04</rscale>
<asrwt>0</asrwt>
<pdfrwt beam="1">  1        2 0.20873449E+00 0.11180303E+04</pdfrwt>
<pdfrwt beam="2">  1       -2 0.30553209E-01 0.11180303E+04</pdfrwt>
<totfact> 0.15047435E+02</totfact>
</mgrwt>
</event>
<event>
 4    1  0.2013882E-005  0.8739981E+03  0.7818608E-02  0.9458682E-01
         -2   -1    0    0    0  501 -0.00000000000E+00  0.00000000000E+00  0.11845460316E+03  0.11845460319E+03  0.25500000000E-02 0. -1.
          2   -1    0    0  501    0  0.00000000000E+00 -0.00000000000E+00 -0.16121632371E+04  0.16121632371E+04  0.25500000000E-02 0.  1.
    5000001    1    1    2    0    0  0.26776064913E+03  0.13131417354E+03 -0.12523271662E+04  0.13015861510E+04  0.19200000000E+03 0.  0.
   -5000001    1    1    2    0    0 -0.26776064913E+03 -0.13131417354E+03 -0.24138146769E+03  0.42903168920E+03  0.19200000000E+03 0.  0.
<mgrwt>
<rscale>  0 0.87399807E+03</rscale>
<asrwt>0</asrwt>
<pdfrwt beam="1">  1        2 0.23030902E+00 0.87399807E+03</pdfrwt>
<pdfrwt beam="2">  1       -2 0.16922087E-01 0.87399807E+03</pdfrwt>
<totfact> 0.36552395E+02</totfact>
</mgrwt>
</event>
<event>
 4    1  0.2013882E-005  0.5578742E+03  0.7818608E-02  0.9996876E-01
          2   -1    0    0  501    0  0.00000000000E+00  0.00000000000E+00  0.36431461223E+04  0.36431461223E+04  0.25500000000E-02 0.  1.
         -2   -1    0    0    0  501 -0.00000000000E+00 -0.00000000000E+00 -0.21356786652E+02  0.21356786804E+02  0.25500000000E-02 0. -1.
    5000001    1    1    2    0    0  0.11793882774E+03  0.15481613704E+03  0.14472779403E+04  0.14728730563E+04  0.19200000000E+03 0.  0.
   -5000001    1    1    2    0    0 -0.11793882774E+03 -0.15481613704E+03  0.21745113953E+04  0.21916298528E+04  0.19200000000E+03 0.  0.
<mgrwt>
<rscale>  0 0.55787416E+03</rscale>
<asrwt>0</asrwt>
<pdfrwt beam="1">  1        2 0.52044952E+00 0.55787416E+03</pdfrwt>
<pdfrwt beam="2">  1       -2 0.30509691E-02 0.55787416E+03</pdfrwt>
<totfact> 0.47400089E+02</totfact>
</mgrwt>
</event>
<event>
 4    1  0.2013882E-005  0.7947113E+03  0.7818608E-02  0.9567704E-01
          2   -1    0    0  501    0  0.00000000000E+00  0.00000000000E+00  0.62241717699E+03  0.62241717700E+03  0.25500000000E-02 0.  1.
         -2   -1    0    0    0  501 -0.00000000000E+00 -0.00000000000E+00 -0.25367472381E+03  0.25367472382E+03  0.25500000000E-02 0. -1.
    5000001    1    1    2    0    0  0.15654384775E+03  0.25473417959E+03 -0.11695454744E+02  0.35552251994E+03  0.19200000000E+03 0.  0.
   -5000001    1    1    2    0    0 -0.15654384775E+03 -0.25473417959E+03  0.38043790793E+03  0.52056938088E+03  0.19200000000E+03 0.  0.
<mgrwt>
<rscale>  0 0.79471128E+03</rscale>
<asrwt>0</asrwt>
<pdfrwt beam="1">  1        2 0.88916738E-01 0.79471128E+03</pdfrwt>
<pdfrwt beam="2">  1       -2 0.36239247E-01 0.79471128E+03</pdfrwt>
<totfact> 0.37367707E+02</totfact>
</mgrwt>
</event>
<event>
 4    1  0.2013882E-005  0.4429384E+03  0.7818608E-02  0.1029849E+00
         -2   -1    0    0    0  501 -0.00000000000E+00  0.00000000000E+00  0.15308568765E+03  0.15308568767E+03  0.25500000000E-02 0. -1.
          2   -1    0    0  501    0  0.00000000000E+00 -0.00000000000E+00 -0.32039973137E+03  0.32039973138E+03  0.25500000000E-02 0.  1.
    5000001    1    1    2    0    0 -0.29583550629E+02 -0.97608044280E+02 -0.12878323055E+03  0.25268881504E+03  0.19200000000E+03 0.  0.
   -5000001    1    1    2    0    0  0.29583550629E+02  0.97608044280E+02 -0.38530813169E+02  0.22079660400E+03  0.19200000000E+03 0.  0.
<mgrwt>
<rscale>  0 0.44293843E+03</rscale>
<asrwt>0</asrwt>
<pdfrwt beam="1">  1        2 0.45771390E-01 0.44293843E+03</pdfrwt>
<pdfrwt beam="2">  1       -2 0.21869384E-01 0.44293843E+03</pdfrwt>
<totfact> 0.20018927E+03</totfact>
</mgrwt>
</event>
<event>
 4    1  0.2013882E-005  0.4702950E+03  0.7818608E-02  0.1021837E+00
          2   -1    0    0  501    0  0.00000000000E+00  0.00000000000E+00  0.70785607007E+02  0.70785607053E+02  0.25500000000E-02 0.  1.
         -2   -1    0    0    0  501 -0.00000000000E+00 -0.00000000000E+00 -0.78115225735E+03  0.78115225735E+03  0.25500000000E-02 0. -1.
    5000001    1    1    2    0    0  0.11807659360E+03  0.66973405935E+02 -0.35822408576E+03  0.42850439283E+03  0.19200000000E+03 0.  0.
   -5000001    1    1    2    0    0 -0.11807659360E+03 -0.66973405935E+02 -0.35214256458E+03  0.42343347157E+03  0.19200000000E+03 0.  0.
<mgrwt>
<rscale>  0 0.47029496E+03</rscale>
<asrwt>0</asrwt>
<pdfrwt beam="1">  1        2 0.10112230E-01 0.47029496E+03</pdfrwt>
<pdfrwt beam="2">  1       -2 0.11159317E+00 0.47029496E+03</pdfrwt>
<totfact> 0.42015234E+02</totfact>
</mgrwt>
</event>
<event>
 4    1  0.2013882E-005  0.1006994E+04  0.7818608E-02  0.9300907E-01
         -2   -1    0    0    0  501 -0.00000000000E+00  0.00000000000E+00  0.37152608178E+03  0.37152608179E+03  0.25500000000E-02 0. -1.
          2   -1    0    0  501    0  0.00000000000E+00 -0.00000000000E+00 -0.68234552622E+03  0.68234552622E+03  0.25500000000E-02 0.  1.
    5000001    1    1    2    0    0  0.18674234198E+03 -0.13066825604E+03  0.26931289850E+03  0.40167192175E+03  0.19200000000E+03 0.  0.
   -5000001    1    1    2    0    0 -0.18674234198E+03  0.13066825604E+03 -0.58013234294E+03  0.65219968626E+03  0.19200000000E+03 0.  0.
<mgrwt>
<rscale>  0 0.10069939E+04</rscale>
<asrwt>0</asrwt>
<pdfrwt beam="1">  1        2 0.97477932E-01 0.10069939E+04</pdfrwt>
<pdfrwt beam="2">  1       -2 0.53075155E-01 0.10069939E+04</pdfrwt>
<totfact> 0.15518765E+02</totfact>
</mgrwt>
</event>
<event>
 4    1  0.2013882E-005  0.5683844E+03  0.7818608E-02  0.9973260E-01
          2   -1    0    0  501    0  0.00000000000E+00  0.00000000000E+00  0.57885114274E+03  0.57885114274E+03  0.25500000000E-02 0.  1.
         -2   -1    0    0    0  501 -0.00000000000E+00 -0.00000000000E+00 -0.13952674123E+03  0.13952674125E+03  0.25500000000E-02 0. -1.
    5000001    1    1    2    0    0 -0.32346156407E+02  0.19987488494E+03  0.28778329602E+03  0.40084843636E+03  0.19200000000E+03 0.  0.
   -5000001    1    1    2    0    0  0.32346156407E+02 -0.19987488494E+03  0.15154110549E+03  0.31752944764E+03  0.19200000000E+03 0.  0.
<mgrwt>
<rscale>  0 0.56838442E+03</rscale>
<asrwt>0</asrwt>
<pdfrwt beam="1">  1        2 0.82693020E-01 0.56838442E+03</pdfrwt>
<pdfrwt beam="2">  1       -2 0.19932392E-01 0.56838442E+03</pdfrwt>
<totfact> 0.12160739E+03</totfact>
</mgrwt>
</event>
<event>
 4    1  0.2013882E-005  0.6274349E+03  0.7818608E-02  0.9850067E-01
          2   -1    0    0  501    0  0.00000000000E+00  0.00000000000E+00  0.11001712102E+04  0.11001712102E+04  0.25500000000E-02 0.  1.
         -2   -1    0    0    0  501 -0.00000000000E+00 -0.00000000000E+00 -0.89457577330E+02  0.89457577367E+02  0.25500000000E-02 0. -1.
    5000001    1    1    2    0    0 -0.10849072566E+03  0.22136701742E+03  0.45236800497E+03  0.54979487618E+03  0.19200000000E+03 0.  0.
   -5000001    1    1    2    0    0  0.10849072566E+03 -0.22136701742E+03  0.55834562787E+03  0.63983391135E+03  0.19200000000E+03 0.  0.
<mgrwt>
<rscale>  0 0.62743494E+03</rscale>
<asrwt>0</asrwt>
<pdfrwt beam="1">  1        2 0.15716731E+00 0.62743494E+03</pdfrwt>
<pdfrwt beam="2">  1       -2 0.12779654E-01 0.62743494E+03</pdfrwt>
<totfact> 0.11267595E+03</totfact>
</mgrwt>
</event>
<event>
 4    1  0.2013882E-005  0.8035850E+03  0.7818608E-02  0.9554842E-01
         -2   -1    0    0    0  501 -0.00000000000E+00  0.00000000000E+00  0.74605145893E+02  0.74605145937E+02  0.25500000000E-02 0.  1.
          2   -1    0    0  501    0  0.00000000000E+00 -0.00000000000E+00 -0.21638885264E+04  0.21638885264E+04  0.25500000000E-02 0. -1.
    5000001    1    1    2    0    0 -0.91408844999E+02  0.29030101358E+03 -0.54677663321E+03  0.65456775207E+03  0.19200000000E+03 0.  0.
   -5000001    1    1    2    0    0  0.91408844999E+02 -0.29030101358E+03 -0.15425067473E+04  0.15839259202E+04  0.19200000000E+03 0.  0.
<mgrwt>
<rscale>  0 0.80358502E+03</rscale>
<asrwt>0</asrwt>
<pdfrwt beam="1">  1        2 0.30912689E+00 0.80358502E+03</pdfrwt>
<pdfrwt beam="2">  1       -2 0.10657879E-01 0.80358502E+03</pdfrwt>
<totfact> 0.41656128E+02</totfact>
</mgrwt>
</event>
<event>
 4    1  0.2013882E-005  0.5967831E+03  0.7818608E-02  0.9912103E-01
          2   -1    0    0  501    0  0.00000000000E+00  0.00000000000E+00  0.87979000048E+03  0.87979000048E+03  0.25500000000E-02 0.  1.
         -2   -1    0    0    0  501 -0.00000000000E+00 -0.00000000000E+00 -0.10120315909E+03  0.10120315913E+03  0.25500000000E-02 0. -1.
    5000001    1    1    2    0    0 -0.75213486185E+02  0.21207257018E+03  0.32475072451E+03  0.43927084651E+03  0.19200000000E+03 0.  0.
   -5000001    1    1    2    0    0  0.75213486185E+02 -0.21207257018E+03  0.45383611688E+03  0.54172231310E+03  0.19200000000E+03 0.  0.
<mgrwt>
<rscale>  0 0.59678313E+03</rscale>
<asrwt>0</asrwt>
<pdfrwt beam="1">  1        2 0.12568428E+00 0.59678313E+03</pdfrwt>
<pdfrwt beam="2">  1       -2 0.14457594E-01 0.59678313E+03</pdfrwt>
<totfact> 0.12540168E+03</totfact>
</mgrwt>
</event>
<event>
 4    1  0.2013882E-005  0.4468507E+03  0.7818608E-02  0.1028665E+00
          2   -1    0    0  501    0  0.00000000000E+00  0.00000000000E+00  0.12633500527E+04  0.12633500527E+04  0.25500000000E-02 0.  1.
         -2   -1    0    0    0  501 -0.00000000000E+00 -0.00000000000E+00 -0.39513111906E+02  0.39513111988E+02  0.25500000000E-02 0. -1.
    5000001    1    1    2    0    0 -0.20320544518E+02 -0.85307390628E+02  0.82547147551E+03  0.85203135641E+03  0.19200000000E+03 0.  0.
   -5000001    1    1    2    0    0  0.20320544518E+02  0.85307390628E+02  0.39836546527E+03  0.45083180827E+03  0.19200000000E+03 0.  0.
<mgrwt>
<rscale>  0 0.44685072E+03</rscale>
<asrwt>0</asrwt>
<pdfrwt beam="1">  1        2 0.18047858E+00 0.44685072E+03</pdfrwt>
<pdfrwt beam="2">  1       -2 0.56447303E-02 0.44685072E+03</pdfrwt>
<totfact> 0.33776825E+03</totfact>
</mgrwt>
</event>
<event>
 4    1  0.2013882E-005  0.9995473E+03  0.7818608E-02  0.9309041E-01
         -2   -1    0    0    0  501 -0.00000000000E+00  0.00000000000E+00  0.37174064840E+03  0.37174064841E+03  0.25500000000E-02 0. -1.
          2   -1    0    0  501    0  0.00000000000E+00 -0.00000000000E+00 -0.67190310882E+03  0.67190310882E+03  0.25500000000E-02 0.  1.
    5000001    1    1    2    0    0 -0.43564822326E+03 -0.15085911776E+03 -0.16994277026E+03  0.52753425766E+03  0.19200000000E+03 0.  0.
   -5000001    1    1    2    0    0  0.43564822326E+03  0.15085911776E+03 -0.13021969016E+03  0.51610949957E+03  0.19200000000E+03 0.  0.
<mgrwt>
<rscale>  0 0.99954729E+03</rscale>
<asrwt>0</asrwt>
<pdfrwt beam="1">  1        2 0.95986158E-01 0.99954729E+03</pdfrwt>
<pdfrwt beam="2">  1       -2 0.53105807E-01 0.99954729E+03</pdfrwt>
<totfact> 0.15802357E+02</totfact>
</mgrwt>
</event>
<event>
 4    1  0.2013882E-005  0.4297583E+03  0.7818608E-02  0.1033936E+00
         -2   -1    0    0    0  501 -0.00000000000E+00  0.00000000000E+00  0.29873772098E+02  0.29873772207E+02  0.25500000000E-02 0. -1.
          2   -1    0    0  501    0  0.00000000000E+00 -0.00000000000E+00 -0.15456046420E+04  0.15456046420E+04  0.25500000000E-02 0.  1.
    5000001    1    1    2    0    0  0.32814528228E+02 -0.79006927841E+02 -0.59432262474E+03  0.63039850109E+03  0.19200000000E+03 0.  0.
   -5000001    1    1    2    0    0 -0.32814528228E+02  0.79006927841E+02 -0.92140824514E+03  0.94507991308E+03  0.19200000000E+03 0.  0.
<mgrwt>
<rscale>  0 0.42975826E+03</rscale>
<asrwt>0</asrwt>
<pdfrwt beam="1">  1        2 0.22080061E+00 0.42975826E+03</pdfrwt>
<pdfrwt beam="2">  1       -2 0.42676827E-02 0.42975826E+03</pdfrwt>
<totfact> 0.36917747E+03</totfact>
</mgrwt>
</event>
<event>
 4    1  0.2013882E-005  0.5509312E+03  0.7818608E-02  0.1001279E+00
          2   -1    0    0  501    0  0.00000000000E+00  0.00000000000E+00  0.98254282264E+03  0.98254282264E+03  0.25500000000E-02 0.  1.
         -2   -1    0    0    0  501 -0.00000000000E+00 -0.00000000000E+00 -0.77229519834E+02  0.77229519876E+02  0.25500000000E-02 0. -1.
    5000001    1    1    2    0    0 -0.24119853586E+02  0.13970729720E+03  0.71722997985E+03  0.75589863092E+03  0.19200000000E+03 0.  0.
   -5000001    1    1    2    0    0  0.24119853586E+02 -0.13970729720E+03  0.18808332296E+03  0.30387371160E+03  0.19200000000E+03 0.  0.
<mgrwt>
<rscale>  0 0.55093125E+03</rscale>
<asrwt>0</asrwt>
<pdfrwt beam="1">  1        2 0.14036326E+00 0.55093125E+03</pdfrwt>
<pdfrwt beam="2">  1       -2 0.11032789E-01 0.55093125E+03</pdfrwt>
<totfact> 0.16891640E+03</totfact>
</mgrwt>
</event>
<event>
 4    1  0.2013882E-005  0.7020526E+03  0.7818608E-02  0.9713728E-01
         -2   -1    0    0    0  501 -0.00000000000E+00  0.00000000000E+00  0.52852195852E+02  0.52852195914E+02  0.25500000000E-02 0. -1.
          2   -1    0    0  501    0  0.00000000000E+00 -0.00000000000E+00 -0.23313970533E+04  0.23313970533E+04  0.25500000000E-02 0.  1.
    5000001    1    1    2    0    0  0.25246338704E+03  0.13888138326E+03 -0.13352387901E+04  0.13794029241E+04  0.19200000000E+03 0.  0.
   -5000001    1    1    2    0    0 -0.25246338704E+03 -0.13888138326E+03 -0.94330606734E+03  0.10048463251E+04  0.19200000000E+03 0.  0.
<mgrwt>
<rscale>  0 0.70205257E+03</rscale>
<asrwt>0</asrwt>
<pdfrwt beam="1">  1        2 0.33305666E+00 0.70205257E+03</pdfrwt>
<pdfrwt beam="2">  1       -2 0.75503152E-02 0.70205257E+03</pdfrwt>
<totfact> 0.60163653E+02</totfact>
</mgrwt>
</event>
<event>
 4    1  0.2013882E-005  0.7343073E+03  0.7818608E-02  0.9660296E-01
         -2   -1    0    0    0  501 -0.00000000000E+00  0.00000000000E+00  0.31272253865E+02  0.31272253969E+02  0.25500000000E-02 0. -1.
          2   -1    0    0  501    0  0.00000000000E+00 -0.00000000000E+00 -0.43105882086E+04  0.43105882086E+04  0.25500000000E-02 0.  1.
    5000001    1    1    2    0    0 -0.16862773445E+03  0.23375022707E+03 -0.28605264468E+04  0.28814145891E+04  0.19200000000E+03 0.  0.
   -5000001    1    1    2    0    0  0.16862773445E+03 -0.23375022707E+03 -0.14187895079E+04  0.14604458734E+04  0.19200000000E+03 0.  0.
<mgrwt>
<rscale>  0 0.73430732E+03</rscale>
<asrwt>0</asrwt>
<pdfrwt beam="1">  1        2 0.61579794E+00 0.73430732E+03</pdfrwt>
<pdfrwt beam="2">  1       -2 0.44674676E-02 0.73430732E+03</pdfrwt>
<totfact> 0.92480171E+01</totfact>
</mgrwt>
</event>
<event>
 4    1  0.2013882E-005  0.6486370E+03  0.7818608E-02  0.9809340E-01
         -2   -1    0    0    0  501 -0.00000000000E+00  0.00000000000E+00  0.27655964477E+02  0.27655964594E+02  0.25500000000E-02 0. -1.
          2   -1    0    0  501    0  0.00000000000E+00 -0.00000000000E+00 -0.38032484364E+04  0.38032484364E+04  0.25500000000E-02 0.  1.
    5000001    1    1    2    0    0 -0.15879575586E+03 -0.78259781954E+02 -0.75207902174E+03  0.79613286611E+03  0.19200000000E+03 0.  0.
   -5000001    1    1    2    0    0  0.15879575586E+03  0.78259781954E+02 -0.30235134502E+04  0.30347715349E+04  0.19200000000E+03 0.  0.
<mgrwt>
<rscale>  0 0.64863704E+03</rscale>
<asrwt>0</asrwt>
<pdfrwt beam="1">  1        2 0.54332087E+00 0.64863704E+03</pdfrwt>
<pdfrwt beam="2">  1       -2 0.39508545E-02 0.64863704E+03</pdfrwt>
<totfact> 0.25081176E+02</totfact>
</mgrwt>
</event>
<event>
 4    1  0.2013882E-005  0.4654994E+03  0.7818608E-02  0.1023198E+00
         -2   -1    0    0    0  501 -0.00000000000E+00  0.00000000000E+00  0.26572166031E+02  0.26572166153E+02  0.25500000000E-02 0. -1.
          2   -1    0    0  501    0  0.00000000000E+00 -0.00000000000E+00 -0.20386906800E+04  0.20386906800E+04  0.25500000000E-02 0.  1.
    5000001    1    1    2    0    0  0.66738474397E+02 -0.20947345010E+00 -0.15090748057E+04  0.15227031349E+04  0.19200000000E+03 0.  0.
   -5000001    1    1    2    0    0 -0.66738474397E+02  0.20947345010E+00 -0.50304370827E+03  0.54255971125E+03  0.19200000000E+03 0.  0.
<mgrwt>
<rscale>  0 0.46549942E+03</rscale>
<asrwt>0</asrwt>
<pdfrwt beam="1">  1        2 0.29124143E+00 0.46549942E+03</pdfrwt>
<pdfrwt beam="2">  1       -2 0.37960250E-02 0.46549942E+03</pdfrwt>
<totfact> 0.24964033E+03</totfact>
</mgrwt>
</event>
<event>
 4    1  0.2013882E-005  0.4426339E+03  0.7818608E-02  0.1029942E+00
         -2   -1    0    0    0  501 -0.00000000000E+00  0.00000000000E+00  0.14160927061E+03  0.14160927063E+03  0.25500000000E-02 0. -1.
          2   -1    0    0  501    0  0.00000000000E+00 -0.00000000000E+00 -0.34588980188E+03  0.34588980189E+03  0.25500000000E-02 0.  1.
    5000001    1    1    2    0    0 -0.99452519198E+02  0.28823427243E+02 -0.14328468728E+03  0.26099060355E+03  0.19200000000E+03 0.  0.
   -5000001    1    1    2    0    0  0.99452519198E+02 -0.28823427243E+02 -0.60995843990E+02  0.22650846897E+03  0.19200000000E+03 0.  0.
<mgrwt>
<rscale>  0 0.44263395E+03</rscale>
<asrwt>0</asrwt>
<pdfrwt beam="1">  1        2 0.49412829E-01 0.44263395E+03</pdfrwt>
<pdfrwt beam="2">  1       -2 0.20229896E-01 0.44263395E+03</pdfrwt>
<totfact> 0.21086942E+03</totfact>
</mgrwt>
</event>
<event>
 4    1  0.2013882E-005  0.5894985E+03  0.7818608E-02  0.9927436E-01
          2   -1    0    0  501    0  0.00000000000E+00  0.00000000000E+00  0.12613822793E+04  0.12613822793E+04  0.25500000000E-02 0.  1.
         -2   -1    0    0    0  501 -0.00000000000E+00 -0.00000000000E+00 -0.68874527905E+02  0.68874527952E+02  0.25500000000E-02 0. -1.
    5000001    1    1    2    0    0 -0.16116961840E+03 -0.14412111027E+03  0.72522684910E+03  0.78074613222E+03  0.19200000000E+03 0.  0.
   -5000001    1    1    2    0    0  0.16116961840E+03  0.14412111027E+03  0.46728090225E+03  0.54951067499E+03  0.19200000000E+03 0.  0.
<mgrwt>
<rscale>  0 0.58949846E+03</rscale>
<asrwt>0</asrwt>
<pdfrwt beam="1">  1        2 0.18019747E+00 0.58949846E+03</pdfrwt>
<pdfrwt beam="2">  1       -2 0.98392182E-02 0.58949846E+03</pdfrwt>
<totfact> 0.14031756E+03</totfact>
</mgrwt>
</event>
<event>
 4    1  0.2013882E-005  0.5796302E+03  0.7818608E-02  0.9948592E-01
         -2   -1    0    0    0  501 -0.00000000000E+00  0.00000000000E+00  0.55823363370E+02  0.55823363428E+02  0.25500000000E-02 0. -1.
          2   -1    0    0  501    0  0.00000000000E+00 -0.00000000000E+00 -0.15046173906E+04  0.15046173906E+04  0.25500000000E-02 0.  1.
    5000001    1    1    2    0    0 -0.49371511330E+02  0.18529778551E+03 -0.99836007966E+03  0.10345818789E+04  0.19200000000E+03 0.  0.
   -5000001    1    1    2    0    0  0.49371511330E+02 -0.18529778551E+03 -0.45043394752E+03  0.52585887511E+03  0.19200000000E+03 0.  0.
<mgrwt>
<rscale>  0 0.57963024E+03</rscale>
<asrwt>0</asrwt>
<pdfrwt beam="1">  1        2 0.21494532E+00 0.57963024E+03</pdfrwt>
<pdfrwt beam="2">  1       -2 0.79747672E-02 0.57963024E+03</pdfrwt>
<totfact> 0.14586920E+03</totfact>
</mgrwt>
</event>
<event>
 4    1  0.2013882E-005  0.6423641E+03  0.7818608E-02  0.9821214E-01
          2   -1    0    0  501    0  0.00000000000E+00  0.00000000000E+00  0.25326592582E+04  0.25326592582E+04  0.25500000000E-02 0.  1.
         -2   -1    0    0    0  501 -0.00000000000E+00 -0.00000000000E+00 -0.40731059260E+02  0.40731059340E+02  0.25500000000E-02 0. -1.
    5000001    1    1    2    0    0 -0.25305688562E+03  0.34933025790E+02  0.11170321785E+04  0.11618446503E+04  0.19200000000E+03 0.  0.
   -5000001    1    1    2    0    0  0.25305688562E+03 -0.34933025790E+02  0.13748960204E+04  0.14115456672E+04  0.19200000000E+03 0.  0.
<mgrwt>
<rscale>  0 0.64236405E+03</rscale>
<asrwt>0</asrwt>
<pdfrwt beam="1">  1        2 0.36180847E+00 0.64236405E+03</pdfrwt>
<pdfrwt beam="2">  1       -2 0.58187228E-02 0.64236405E+03</pdfrwt>
<totfact> 0.71910720E+02</totfact>
</mgrwt>
</event>
<event>
 4    1  0.2013882E-005  0.4148048E+03  0.7818608E-02  0.1038771E+00
         -2   -1    0    0    0  501 -0.00000000000E+00  0.00000000000E+00  0.44949874483E+02  0.44949874555E+02  0.25500000000E-02 0. -1.
          2   -1    0    0  501    0  0.00000000000E+00 -0.00000000000E+00 -0.95697162319E+03  0.95697162319E+03  0.25500000000E-02 0.  1.
    5000001    1    1    2    0    0 -0.19749582850E+01 -0.71776188205E+02 -0.53224101703E+03  0.57035096376E+03  0.19200000000E+03 0.  0.
   -5000001    1    1    2    0    0  0.19749582850E+01  0.71776188205E+02 -0.37978073167E+03  0.43157053399E+03  0.19200000000E+03 0.  0.
<mgrwt>
<rscale>  0 0.41480479E+03</rscale>
<asrwt>0</asrwt>
<pdfrwt beam="1">  1        2 0.13671022E+00 0.41480479E+03</pdfrwt>
<pdfrwt beam="2">  1       -2 0.64214112E-02 0.41480479E+03</pdfrwt>
<totfact> 0.41437065E+03</totfact>
</mgrwt>
</event>
<event>
 4    1  0.2013882E-005  0.7799728E+03  0.7818608E-02  0.9589467E-01
         -2   -1    0    0    0  501 -0.00000000000E+00  0.00000000000E+00  0.57646863622E+02  0.57646863679E+02  0.25500000000E-02 0. -1.
          2   -1    0    0  501    0  0.00000000000E+00 -0.00000000000E+00 -0.26382943807E+04  0.26382943807E+04  0.25500000000E-02 0.  1.
    5000001    1    1    2    0    0 -0.27384750285E+03 -0.19996526982E+03 -0.12360197216E+04  0.12959889337E+04  0.19200000000E+03 0.  0.
   -5000001    1    1    2    0    0  0.27384750285E+03  0.19996526982E+03 -0.13446277955E+04  0.13999523107E+04  0.19200000000E+03 0.  0.
<mgrwt>
<rscale>  0 0.77997281E+03</rscale>
<asrwt>0</asrwt>
<pdfrwt beam="1">  1        2 0.37689912E+00 0.77997281E+03</pdfrwt>
<pdfrwt beam="2">  1       -2 0.82352679E-02 0.77997281E+03</pdfrwt>
<totfact> 0.36139183E+02</totfact>
</mgrwt>
</event>
<event>
 4    1  0.2013882E-005  0.5834513E+03  0.7818608E-02  0.9940347E-01
          2   -1    0    0  501    0  0.00000000000E+00  0.00000000000E+00  0.64741672016E+03  0.64741672017E+03  0.25500000000E-02 0.  1.
         -2   -1    0    0    0  501 -0.00000000000E+00 -0.00000000000E+00 -0.13145145285E+03  0.13145145287E+03  0.25500000000E-02 0. -1.
    5000001    1    1    2    0    0  0.11180344925E+02  0.10695903442E+03  0.23347503708E+01  0.22007881819E+03  0.19200000000E+03 0.  0.
   -5000001    1    1    2    0    0 -0.11180344925E+02 -0.10695903442E+03  0.51363051694E+03  0.55878935485E+03  0.19200000000E+03 0.  0.
<mgrwt>
<rscale>  0 0.58345135E+03</rscale>
<asrwt>0</asrwt>
<pdfrwt beam="1">  1        2 0.92488103E-01 0.58345135E+03</pdfrwt>
<pdfrwt beam="2">  1       -2 0.18778779E-01 0.58345135E+03</pdfrwt>
<totfact> 0.11813511E+03</totfact>
</mgrwt>
</event>
<event>
 4    1  0.2013882E-005  0.4771716E+03  0.7818608E-02  0.1019915E+00
         -2   -1    0    0    0  501 -0.00000000000E+00  0.00000000000E+00  0.39017413480E+02  0.39017413563E+02  0.25500000000E-02 0. -1.
          2   -1    0    0  501    0  0.00000000000E+00 -0.00000000000E+00 -0.14589174964E+04  0.14589174965E+04  0.25500000000E-02 0.  1.
    5000001    1    1    2    0    0 -0.50058829247E+02 -0.82127565172E+02 -0.10363110912E+04  0.10583267459E+04  0.19200000000E+03 0.  0.
   -5000001    1    1    2    0    0  0.50058829247E+02  0.82127565172E+02 -0.38358899176E+03  0.43960816410E+03  0.19200000000E+03 0.  0.
<mgrwt>
<rscale>  0 0.47717161E+03</rscale>
<asrwt>0</asrwt>
<pdfrwt beam="1">  1        2 0.20841675E+00 0.47717161E+03</pdfrwt>
<pdfrwt beam="2">  1       -2 0.55739171E-02 0.47717161E+03</pdfrwt>
<totfact> 0.27117033E+03</totfact>
</mgrwt>
</event>
<event>
 4    1  0.2013882E-005  0.5850192E+03  0.7818608E-02  0.9936983E-01
          2   -1    0    0  501    0  0.00000000000E+00  0.00000000000E+00  0.17297544657E+04  0.17297544657E+04  0.25500000000E-02 0.  1.
         -2   -1    0    0    0  501 -0.00000000000E+00 -0.00000000000E+00 -0.49464753736E+02  0.49464753802E+02  0.25500000000E-02 0. -1.
    5000001    1    1    2    0    0  0.14781306618E+03  0.93535965104E+02  0.43097748885E+03  0.50319307944E+03  0.19200000000E+03 0.  0.
   -5000001    1    1    2    0    0 -0.14781306618E+03 -0.93535965104E+02  0.12493122232E+04  0.12760261401E+04  0.19200000000E+03 0.  0.
<mgrwt>
<rscale>  0 0.58501924E+03</rscale>
<asrwt>0</asrwt>
<pdfrwt beam="1">  1        2 0.24710779E+00 0.58501924E+03</pdfrwt>
<pdfrwt beam="2">  1       -2 0.70663930E-02 0.58501924E+03</pdfrwt>
<totfact> 0.13543918E+03</totfact>
</mgrwt>
</event>
<event>
 4    1  0.2013882E-005  0.5972835E+03  0.7818608E-02  0.9911058E-01
         -2   -1    0    0    0  501 -0.00000000000E+00  0.00000000000E+00  0.86836153851E+02  0.86836153888E+02  0.25500000000E-02 0. -1.
          2   -1    0    0  501    0  0.00000000000E+00 -0.00000000000E+00 -0.10270711368E+04  0.10270711368E+04  0.25500000000E-02 0.  1.
    5000001    1    1    2    0    0 -0.15005436771E+03 -0.15703276686E+03 -0.60391820012E+03  0.66989312250E+03  0.19200000000E+03 0.  0.
   -5000001    1    1    2    0    0  0.15005436771E+03  0.15703276686E+03 -0.33631678281E+03  0.44401416817E+03  0.19200000000E+03 0.  0.
<mgrwt>
<rscale>  0 0.59728354E+03</rscale>
<asrwt>0</asrwt>
<pdfrwt beam="1">  1        2 0.14672444E+00 0.59728354E+03</pdfrwt>
<pdfrwt beam="2">  1       -2 0.12405165E-01 0.59728354E+03</pdfrwt>
<totfact> 0.13084728E+03</totfact>
</mgrwt>
</event>
<event>
 4    1  0.2013882E-005  0.7302775E+03  0.7818608E-02  0.9666810E-01
          2   -1    0    0  501    0  0.00000000000E+00  0.00000000000E+00  0.12806897796E+04  0.12806897797E+04  0.25500000000E-02 0.  1.
         -2   -1    0    0    0  501 -0.00000000000E+00 -0.00000000000E+00 -0.10410507073E+03  0.10410507076E+03  0.25500000000E-02 0. -1.
    5000001    1    1    2    0    0 -0.21223814077E+03  0.22417818525E+03  0.52366879605E+03  0.63749030981E+03  0.19200000000E+03 0.  0.
   -5000001    1    1    2    0    0  0.21223814077E+03 -0.22417818525E+03  0.65291591286E+03  0.74730454061E+03  0.19200000000E+03 0.  0.
<mgrwt>
<rscale>  0 0.73027748E+03</rscale>
<asrwt>0</asrwt>
<pdfrwt beam="1">  1        2 0.18295567E+00 0.73027748E+03</pdfrwt>
<pdfrwt beam="2">  1       -2 0.14872154E-01 0.73027748E+03</pdfrwt>
<totfact> 0.68874113E+02</totfact>
</mgrwt>
</event>
<event>
 4    1  0.2013882E-005  0.4909779E+03  0.7818608E-02  0.1016161E+00
          2   -1    0    0  501    0  0.00000000000E+00  0.00000000000E+00  0.57188938878E+03  0.57188938878E+03  0.25500000000E-02 0.  1.
         -2   -1    0    0    0  501 -0.00000000000E+00 -0.00000000000E+00 -0.10537846364E+03  0.10537846367E+03  0.25500000000E-02 0. -1.
    5000001    1    1    2    0    0 -0.52564939578E+01 -0.12452912101E+03  0.35559504577E+03  0.42290302586E+03  0.19200000000E+03 0.  0.
   -5000001    1    1    2    0    0  0.52564939578E+01  0.12452912101E+03  0.11091587937E+03  0.25436482659E+03  0.19200000000E+03 0.  0.
<mgrwt>
<rscale>  0 0.49097790E+03</rscale>
<asrwt>0</asrwt>
<pdfrwt beam="1">  1        2 0.81698486E-01 0.49097790E+03</pdfrwt>
<pdfrwt beam="2">  1       -2 0.15054066E-01 0.49097790E+03</pdfrwt>
<totfact> 0.19910814E+03</totfact>
</mgrwt>
</event>
<event>
 4    1  0.2013882E-005  0.5346717E+03  0.7818608E-02  0.1005105E+00
          2   -1    0    0  501    0  0.00000000000E+00  0.00000000000E+00  0.58387750565E+03  0.58387750565E+03  0.25500000000E-02 0.  1.
         -2   -1    0    0    0  501 -0.00000000000E+00 -0.00000000000E+00 -0.12240319014E+03  0.12240319016E+03  0.25500000000E-02 0. -1.
    5000001    1    1    2    0    0  0.94530634395E+02  0.14371620585E+03  0.13719965752E+03  0.29202420223E+03  0.19200000000E+03 0.  0.
   -5000001    1    1    2    0    0 -0.94530634395E+02 -0.14371620585E+03  0.32427465799E+03  0.41425649359E+03  0.19200000000E+03 0.  0.
<mgrwt>
<rscale>  0 0.53467175E+03</rscale>
<asrwt>0</asrwt>
<pdfrwt beam="1">  1        2 0.83411071E-01 0.53467175E+03</pdfrwt>
<pdfrwt beam="2">  1       -2 0.17486170E-01 0.53467175E+03</pdfrwt>
<totfact> 0.15088264E+03</totfact>
</mgrwt>
</event>
<event>
 4    1  0.2013882E-005  0.4766186E+03  0.7818608E-02  0.1020069E+00
         -2   -1    0    0    0  501 -0.00000000000E+00  0.00000000000E+00  0.11893082377E+03  0.11893082380E+03  0.25500000000E-02 0. -1.
          2   -1    0    0  501    0  0.00000000000E+00 -0.00000000000E+00 -0.47751550039E+03  0.47751550040E+03  0.25500000000E-02 0.  1.
    5000001    1    1    2    0    0  0.71758014247E+02  0.11753497916E+03 -0.21813912519E+03  0.32157792504E+03  0.19200000000E+03 0.  0.
   -5000001    1    1    2    0    0 -0.71758014247E+02 -0.11753497916E+03 -0.14044555143E+03  0.27486839915E+03  0.19200000000E+03 0.  0.
<mgrwt>
<rscale>  0 0.47661856E+03</rscale>
<asrwt>0</asrwt>
<pdfrwt beam="1">  1        2 0.68216499E-01 0.47661856E+03</pdfrwt>
<pdfrwt beam="2">  1       -2 0.16990118E-01 0.47661856E+03</pdfrwt>
<totfact> 0.19930573E+03</totfact>
</mgrwt>
</event>
<event>
 4    1  0.2013882E-005  0.5785579E+03  0.7818608E-02  0.9950918E-01
          2   -1    0    0  501    0  0.00000000000E+00  0.00000000000E+00  0.39570176595E+04  0.39570176595E+04  0.25500000000E-02 0.  1.
         -2   -1    0    0    0  501 -0.00000000000E+00 -0.00000000000E+00 -0.21147823266E+02  0.21147823420E+02  0.25500000000E-02 0. -1.
    5000001    1    1    2    0    0 -0.17740792812E+03  0.11228034366E+03  0.23277188693E+04  0.23450414886E+04  0.19200000000E+03 0.  0.
   -5000001    1    1    2    0    0  0.17740792812E+03 -0.11228034366E+03  0.16081509669E+04  0.16331239943E+04  0.19200000000E+03 0.  0.
<mgrwt>
<rscale>  0 0.57855790E+03</rscale>
<asrwt>0</asrwt>
<pdfrwt beam="1">  1        2 0.56528843E+00 0.57855790E+03</pdfrwt>
<pdfrwt beam="2">  1       -2 0.30211166E-02 0.57855790E+03</pdfrwt>
<totfact> 0.30343454E+02</totfact>
</mgrwt>
</event>
<event>
 4    1  0.2013882E-005  0.4404161E+03  0.7818608E-02  0.1030619E+00
         -2   -1    0    0    0  501 -0.00000000000E+00  0.00000000000E+00  0.13278987063E+03  0.13278987065E+03  0.25500000000E-02 0.  1.
          2   -1    0    0  501    0  0.00000000000E+00 -0.00000000000E+00 -0.36517538913E+03  0.36517538914E+03  0.25500000000E-02 0. -1.
    5000001    1    1    2    0    0  0.53088281104E+02 -0.60034157608E+02 -0.34618809416E+02  0.21091450314E+03  0.19200000000E+03 0.  0.
   -5000001    1    1    2    0    0 -0.53088281104E+02  0.60034157608E+02 -0.19776670909E+03  0.28705075665E+03  0.19200000000E+03 0.  0.
<mgrwt>
<rscale>  0 0.44041613E+03</rscale>
<asrwt>0</asrwt>
<pdfrwt beam="1">  1        2 0.52167912E-01 0.44041613E+03</pdfrwt>
<pdfrwt beam="2">  1       -2 0.18969982E-01 0.44041613E+03</pdfrwt>
<totfact> 0.22200592E+03</totfact>
</mgrwt>
</event>
<event>
 4    1  0.2013882E-005  0.9346364E+03  0.7818608E-02  0.9383291E-01
         -2   -1    0    0    0  501 -0.00000000000E+00  0.00000000000E+00  0.20297166053E+03  0.20297166055E+03  0.25500000000E-02 0. -1.
          2   -1    0    0  501    0  0.00000000000E+00 -0.00000000000E+00 -0.10759446846E+04  0.10759446846E+04  0.25500000000E-02 0.  1.
    5000001    1    1    2    0    0  0.12384651474E+03 -0.27931441377E+03 -0.84279361665E+03  0.91679854997E+03  0.19200000000E+03 0.  0.
   -5000001    1    1    2    0    0 -0.12384651474E+03  0.27931441377E+03 -0.30179407409E+02  0.36211779518E+03  0.19200000000E+03 0.  0.
<mgrwt>
<rscale>  0 0.93463636E+03</rscale>
<asrwt>0</asrwt>
<pdfrwt beam="1">  1        2 0.15370638E+00 0.93463636E+03</pdfrwt>
<pdfrwt beam="2">  1       -2 0.28995952E-01 0.93463636E+03</pdfrwt>
<totfact> 0.27536628E+02</totfact>
</mgrwt>
</event>
<event>
 4    1  0.2013882E-005  0.4329092E+03  0.7818608E-02  0.1032945E+00
         -2   -1    0    0    0  501 -0.00000000000E+00  0.00000000000E+00  0.21097369993E+03  0.21097369994E+03  0.25500000000E-02 0. -1.
          2   -1    0    0  501    0  0.00000000000E+00 -0.00000000000E+00 -0.22207791884E+03  0.22207791885E+03  0.25500000000E-02 0.  1.
    5000001    1    1    2    0    0  0.40492805055E+02 -0.89795156640E+02  0.11357970730E+02  0.21609220466E+03  0.19200000000E+03 0.  0.
   -5000001    1    1    2    0    0 -0.40492805055E+02  0.89795156640E+02 -0.22462189639E+02  0.21695941413E+03  0.19200000000E+03 0.  0.
<mgrwt>
<rscale>  0 0.43290923E+03</rscale>
<asrwt>0</asrwt>
<pdfrwt beam="1">  1        2 0.31725417E-01 0.43290923E+03</pdfrwt>
<pdfrwt beam="2">  1       -2 0.30139100E-01 0.43290923E+03</pdfrwt>
<totfact> 0.16853838E+03</totfact>
</mgrwt>
</event>
<event>
 4    1  0.2013882E-005  0.6540990E+03  0.7818608E-02  0.9799118E-01
          2   -1    0    0  501    0  0.00000000000E+00  0.00000000000E+00  0.20886096528E+04  0.20886096528E+04  0.25500000000E-02 0.  1.
         -2   -1    0    0    0  501 -0.00000000000E+00 -0.00000000000E+00 -0.51211760976E+02  0.51211761040E+02  0.25500000000E-02 0. -1.
    5000001    1    1    2    0    0  0.62326109269E+02 -0.24450425219E+03  0.75636373665E+03  0.82013229138E+03  0.19200000000E+03 0.  0.
   -5000001    1    1    2    0    0 -0.62326109269E+02  0.24450425219E+03  0.12810341552E+04  0.13196891225E+04  0.19200000000E+03 0.  0.
<mgrwt>
<rscale>  0 0.65409901E+03</rscale>
<asrwt>0</asrwt>
<pdfrwt beam="1">  1        2 0.29837286E+00 0.65409901E+03</pdfrwt>
<pdfrwt beam="2">  1       -2 0.73159645E-02 0.65409901E+03</pdfrwt>
<totfact> 0.84220628E+02</totfact>
</mgrwt>
</event>
<event>
 4    1  0.2013882E-005  0.1682220E+04  0.7818608E-02  0.8771571E-01
         -2   -1    0    0    0  501 -0.00000000000E+00  0.00000000000E+00  0.55812607770E+03  0.55812607771E+03  0.25500000000E-02 0. -1.
          2   -1    0    0  501    0  0.00000000000E+00 -0.00000000000E+00 -0.12675732746E+04  0.12675732746E+04  0.25500000000E-02 0.  1.
    5000001    1    1    2    0    0 -0.61853994282E+03  0.49512932204E+03 -0.57939998066E+03  0.10001565097E+04  0.19200000000E+03 0.  0.
   -5000001    1    1    2    0    0  0.61853994282E+03 -0.49512932204E+03 -0.13004721620E+03  0.82554284253E+03  0.19200000000E+03 0.  0.
<mgrwt>
<rscale>  0 0.16822196E+04</rscale>
<asrwt>0</asrwt>
<pdfrwt beam="1">  1        2 0.18108190E+00 0.16822196E+04</pdfrwt>
<pdfrwt beam="2">  1       -2 0.79732297E-01 0.16822196E+04</pdfrwt>
<totfact> 0.26043060E+01</totfact>
</mgrwt>
</event>
<event>
 4    1  0.2013882E-005  0.5631827E+03  0.7818608E-02  0.9984879E-01
         -2   -1    0    0    0  501 -0.00000000000E+00  0.00000000000E+00  0.73743532101E+02  0.73743532145E+02  0.25500000000E-02 0. -1.
          2   -1    0    0  501    0  0.00000000000E+00 -0.00000000000E+00 -0.10752628245E+04  0.10752628245E+04  0.25500000000E-02 0.  1.
    5000001    1    1    2    0    0 -0.81234864216E+02  0.14030933845E+03 -0.75998466306E+03  0.80045393478E+03  0.19200000000E+03 0.  0.
   -5000001    1    1    2    0    0  0.81234864216E+02 -0.14030933845E+03 -0.24153462935E+03  0.34855242188E+03  0.19200000000E+03 0.  0.
<mgrwt>
<rscale>  0 0.56318267E+03</rscale>
<asrwt>0</asrwt>
<pdfrwt beam="1">  1        2 0.15360897E+00 0.56318267E+03</pdfrwt>
<pdfrwt beam="2">  1       -2 0.10534791E-01 0.56318267E+03</pdfrwt>
<totfact> 0.16020975E+03</totfact>
</mgrwt>
</event>
<event>
 4    1  0.2013882E-005  0.6426296E+03  0.7818608E-02  0.9820708E-01
         -2   -1    0    0    0  501 -0.00000000000E+00  0.00000000000E+00  0.25035321707E+03  0.25035321708E+03  0.25500000000E-02 0. -1.
          2   -1    0    0  501    0  0.00000000000E+00 -0.00000000000E+00 -0.41239015132E+03  0.41239015133E+03  0.25500000000E-02 0.  1.
    5000001    1    1    2    0    0 -0.96544595264E+02  0.56589929808E+02 -0.32035081274E+03  0.38988706346E+03  0.19200000000E+03 0.  0.
   -5000001    1    1    2    0    0  0.96544595264E+02 -0.56589929808E+02  0.15831387848E+03  0.27285630495E+03  0.19200000000E+03 0.  0.
<mgrwt>
<rscale>  0 0.64262960E+03</rscale>
<asrwt>0</asrwt>
<pdfrwt beam="1">  1        2 0.58912879E-01 0.64262960E+03</pdfrwt>
<pdfrwt beam="2">  1       -2 0.35764745E-01 0.64262960E+03</pdfrwt>
<totfact> 0.61760311E+02</totfact>
</mgrwt>
</event>
<event>
 4    1  0.2013882E-005  0.4643496E+03  0.7818608E-02  0.1023527E+00
          2   -1    0    0  501    0  0.00000000000E+00  0.00000000000E+00  0.69907669806E+03  0.69907669806E+03  0.25500000000E-02 0.  1.
         -2   -1    0    0    0  501 -0.00000000000E+00 -0.00000000000E+00 -0.77109043696E+02  0.77109043738E+02  0.25500000000E-02 0. -1.
    5000001    1    1    2    0    0 -0.10809119712E+03 -0.60028302305E+02  0.24097717452E+03  0.33199563644E+03  0.19200000000E+03 0.  0.
   -5000001    1    1    2    0    0  0.10809119712E+03  0.60028302305E+02  0.38099047984E+03  0.44419010537E+03  0.19200000000E+03 0.  0.
<mgrwt>
<rscale>  0 0.46434959E+03</rscale>
<asrwt>0</asrwt>
<pdfrwt beam="1">  1        2 0.99868103E-01 0.46434959E+03</pdfrwt>
<pdfrwt beam="2">  1       -2 0.11015577E-01 0.46434959E+03</pdfrwt>
<totfact> 0.26274508E+03</totfact>
</mgrwt>
</event>
<event>
 4    1  0.2013882E-005  0.8797755E+03  0.7818608E-02  0.9451222E-01
          2   -1    0    0  501    0  0.00000000000E+00  0.00000000000E+00  0.82787612592E+03  0.82787612592E+03  0.25500000000E-02 0.  1.
         -2   -1    0    0    0  501 -0.00000000000E+00 -0.00000000000E+00 -0.23373208372E+03  0.23373208374E+03  0.25500000000E-02 0. -1.
    5000001    1    1    2    0    0 -0.12672969294E+03 -0.29498434952E+03  0.17806776505E+02  0.37450936280E+03  0.19200000000E+03 0.  0.
   -5000001    1    1    2    0    0  0.12672969294E+03  0.29498434952E+03  0.57633726569E+03  0.68709884686E+03  0.19200000000E+03 0.  0.
<mgrwt>
<rscale>  0 0.87977545E+03</rscale>
<asrwt>0</asrwt>
<pdfrwt beam="1">  1        2 0.11826802E+00 0.87977545E+03</pdfrwt>
<pdfrwt beam="2">  1       -2 0.33390297E-01 0.87977545E+03</pdfrwt>
<totfact> 0.30492841E+02</totfact>
</mgrwt>
</event>
<event>
 4    1  0.2013882E-005  0.5365710E+03  0.7818608E-02  0.1004651E+00
          2   -1    0    0  501    0  0.00000000000E+00  0.00000000000E+00  0.33156648814E+04  0.33156648814E+04  0.25500000000E-02 0.  1.
         -2   -1    0    0    0  501 -0.00000000000E+00 -0.00000000000E+00 -0.21708195906E+02  0.21708196055E+02  0.25500000000E-02 0. -1.
    5000001    1    1    2    0    0 -0.15659652963E+03  0.45577061713E+02  0.22208676277E+04  0.22351100110E+04  0.19200000000E+03 0.  0.
   -5000001    1    1    2    0    0  0.15659652963E+03 -0.45577061713E+02  0.10730890578E+04  0.11022630665E+04  0.19200000000E+03 0.  0.
<mgrwt>
<rscale>  0 0.53657098E+03</rscale>
<asrwt>0</asrwt>
<pdfrwt beam="1">  1        2 0.47366625E+00 0.53657098E+03</pdfrwt>
<pdfrwt beam="2">  1       -2 0.31011719E-02 0.53657098E+03</pdfrwt>
<totfact> 0.72341062E+02</totfact>
</mgrwt>
</event>
<event>
 4    1  0.2013882E-005  0.8471452E+03  0.7818608E-02  0.9494177E-01
         -2   -1    0    0    0  501 -0.00000000000E+00  0.00000000000E+00  0.37313477472E+03  0.37313477473E+03  0.25500000000E-02 0. -1.
          2   -1    0    0  501    0  0.00000000000E+00 -0.00000000000E+00 -0.48082830267E+03  0.48082830268E+03  0.25500000000E-02 0.  1.
    5000001    1    1    2    0    0  0.33590092369E+03 -0.17731669160E+02 -0.22670838958E+03  0.44878116775E+03  0.19200000000E+03 0.  0.
   -5000001    1    1    2    0    0 -0.33590092369E+03  0.17731669160E+02  0.11901486163E+03  0.40518190966E+03  0.19200000000E+03 0.  0.
<mgrwt>
<rscale>  0 0.84714523E+03</rscale>
<asrwt>0</asrwt>
<pdfrwt beam="1">  1        2 0.68689757E-01 0.84714523E+03</pdfrwt>
<pdfrwt beam="2">  1       -2 0.53304968E-01 0.84714523E+03</pdfrwt>
<totfact> 0.23416140E+02</totfact>
</mgrwt>
</event>
<event>
 4    1  0.2013882E-005  0.5043735E+03  0.7818608E-02  0.1012644E+00
          2   -1    0    0  501    0  0.00000000000E+00  0.00000000000E+00  0.11439943293E+04  0.11439943293E+04  0.25500000000E-02 0.  1.
         -2   -1    0    0    0  501 -0.00000000000E+00 -0.00000000000E+00 -0.55593070500E+02  0.55593070559E+02  0.25500000000E-02 0. -1.
    5000001    1    1    2    0    0  0.43059020914E+01 -0.14392160332E+03  0.35993919104E+03  0.43261089901E+03  0.19200000000E+03 0.  0.
   -5000001    1    1    2    0    0 -0.43059020914E+01  0.14392160332E+03  0.72846206778E+03  0.76697650087E+03  0.19200000000E+03 0.  0.
<mgrwt>
<rscale>  0 0.50437350E+03</rscale>
<asrwt>0</asrwt>
<pdfrwt beam="1">  1        2 0.16342776E+00 0.50437350E+03</pdfrwt>
<pdfrwt beam="2">  1       -2 0.79418674E-02 0.50437350E+03</pdfrwt>
<totfact> 0.23033611E+03</totfact>
</mgrwt>
</event>
<event>
 4    1  0.2013882E-005  0.4416711E+03  0.7818608E-02  0.1030235E+00
          2   -1    0    0  501    0  0.00000000000E+00  0.00000000000E+00  0.56952445949E+03  0.56952445950E+03  0.25500000000E-02 0.  1.
         -2   -1    0    0    0  501 -0.00000000000E+00 -0.00000000000E+00 -0.85629949601E+02  0.85629949639E+02  0.25500000000E-02 0. -1.
    5000001    1    1    2    0    0 -0.90430734279E+02  0.59200212660E+02  0.26404712500E+03  0.34390008302E+03  0.19200000000E+03 0.  0.
   -5000001    1    1    2    0    0  0.90430734279E+02 -0.59200212660E+02  0.21984738489E+03  0.31125432611E+03  0.19200000000E+03 0.  0.
<mgrwt>
<rscale>  0 0.44167115E+03</rscale>
<asrwt>0</asrwt>
<pdfrwt beam="1">  1        2 0.81360641E-01 0.44167115E+03</pdfrwt>
<pdfrwt beam="2">  1       -2 0.12232849E-01 0.44167115E+03</pdfrwt>
<totfact> 0.28189596E+03</totfact>
</mgrwt>
</event>
<event>
 4    1  0.2013882E-005  0.5485600E+03  0.7818608E-02  0.1001828E+00
         -2   -1    0    0    0  501 -0.00000000000E+00  0.00000000000E+00  0.18611434634E+02  0.18611434808E+02  0.25500000000E-02 0. -1.
          2   -1    0    0  501    0  0.00000000000E+00 -0.00000000000E+00 -0.40421128491E+04  0.40421128491E+04  0.25500000000E-02 0.  1.
    5000001    1    1    2    0    0  0.16939084285E+03  0.37140110333E+02 -0.13376389583E+04  0.13624296782E+04  0.19200000000E+03 0.  0.
   -5000001    1    1    2    0    0 -0.16939084285E+03 -0.37140110333E+02 -0.26858624562E+04  0.26982946057E+04  0.19200000000E+03 0.  0.
<mgrwt>
<rscale>  0 0.54856000E+03</rscale>
<asrwt>0</asrwt>
<pdfrwt beam="1">  1        2 0.57744413E+00 0.54856000E+03</pdfrwt>
<pdfrwt beam="2">  1       -2 0.26587790E-02 0.54856000E+03</pdfrwt>
<totfact> 0.32466742E+02</totfact>
</mgrwt>
</event>
<event>
 4    1  0.2013882E-005  0.4507305E+03  0.7818608E-02  0.1027504E+00
          2   -1    0    0  501    0  0.00000000000E+00  0.00000000000E+00  0.29773215122E+04  0.29773215122E+04  0.25500000000E-02 0.  1.
         -2   -1    0    0    0  501 -0.00000000000E+00 -0.00000000000E+00 -0.17058786216E+02  0.17058786406E+02  0.25500000000E-02 0. -1.
    5000001    1    1    2    0    0 -0.81255969536E+02  0.66406570012E+02  0.11215648825E+04  0.11427091279E+04  0.19200000000E+03 0.  0.
   -5000001    1    1    2    0    0  0.81255969536E+02 -0.66406570012E+02  0.18386978435E+04  0.18516711708E+04  0.19200000000E+03 0.  0.
<mgrwt>
<rscale>  0 0.45073048E+03</rscale>
<asrwt>0</asrwt>
<pdfrwt beam="1">  1        2 0.42533177E+00 0.45073048E+03</pdfrwt>
<pdfrwt beam="2">  1       -2 0.24369688E-02 0.45073048E+03</pdfrwt>
<totfact> 0.16155876E+03</totfact>
</mgrwt>
</event>
<event>
 4    1  0.2013882E-005  0.7268824E+03  0.7818608E-02  0.9672333E-01
          2   -1    0    0  501    0  0.00000000000E+00  0.00000000000E+00  0.13744635175E+04  0.13744635175E+04  0.25500000000E-02 0.  1.
         -2   -1    0    0    0  501 -0.00000000000E+00 -0.00000000000E+00 -0.96102582144E+02  0.96102582178E+02  0.25500000000E-02 0. -1.
    5000001    1    1    2    0    0 -0.30777975600E+03 -0.59087902627E+00  0.68427213098E+03  0.77448116605E+03  0.19200000000E+03 0.  0.
   -5000001    1    1    2    0    0  0.30777975600E+03  0.59087902627E+00  0.59408880439E+03  0.69608493364E+03  0.19200000000E+03 0.  0.
<mgrwt>
<rscale>  0 0.72688236E+03</rscale>
<asrwt>0</asrwt>
<pdfrwt beam="1">  1        2 0.19635192E+00 0.72688236E+03</pdfrwt>
<pdfrwt beam="2">  1       -2 0.13728941E-01 0.72688236E+03</pdfrwt>
<totfact> 0.70069170E+02</totfact>
</mgrwt>
</event>
<event>
 4    1  0.2013882E-005  0.4424923E+03  0.7818608E-02  0.1029985E+00
          2   -1    0    0  501    0  0.00000000000E+00  0.00000000000E+00  0.17833922687E+03  0.17833922689E+03  0.25500000000E-02 0.  1.
         -2   -1    0    0    0  501 -0.00000000000E+00 -0.00000000000E+00 -0.27447614521E+03  0.27447614522E+03  0.25500000000E-02 0. -1.
    5000001    1    1    2    0    0 -0.15280027142E+01  0.10961138741E+03 -0.56561013497E+02  0.22821073439E+03  0.19200000000E+03 0.  0.
   -5000001    1    1    2    0    0  0.15280027142E+01 -0.10961138741E+03 -0.39575904842E+02  0.22460463772E+03  0.19200000000E+03 0.  0.
<mgrwt>
<rscale>  0 0.44249232E+03</rscale>
<asrwt>0</asrwt>
<pdfrwt beam="1">  1        2 0.25477032E-01 0.44249232E+03</pdfrwt>
<pdfrwt beam="2">  1       -2 0.39210878E-01 0.44249232E+03</pdfrwt>
<totfact> 0.13146499E+03</totfact>
</mgrwt>
</event>
<event>
 4    1  0.2013882E-005  0.6380210E+03  0.7818608E-02  0.9829520E-01
          2   -1    0    0  501    0  0.00000000000E+00  0.00000000000E+00  0.80150269931E+03  0.80150269931E+03  0.25500000000E-02 0.  1.
         -2   -1    0    0    0  501 -0.00000000000E+00 -0.00000000000E+00 -0.12697114402E+03  0.12697114404E+03  0.25500000000E-02 0. -1.
    5000001    1    1    2    0    0 -0.25149612828E+03 -0.23941340878E+01  0.27819521108E+03  0.42132245357E+03  0.19200000000E+03 0.  0.
   -5000001    1    1    2    0    0  0.25149612828E+03  0.23941340878E+01  0.39633634421E+03  0.50715138978E+03  0.19200000000E+03 0.  0.
<mgrwt>
<rscale>  0 0.63802105E+03</rscale>
<asrwt>0</asrwt>
<pdfrwt beam="1">  1        2 0.11450039E+00 0.63802105E+03</pdfrwt>
<pdfrwt beam="2">  1       -2 0.18138734E-01 0.63802105E+03</pdfrwt>
<totfact> 0.96231963E+02</totfact>
</mgrwt>
</event>
<event>
 4    1  0.2013882E-005  0.4635475E+03  0.7818608E-02  0.1023757E+00
          2   -1    0    0  501    0  0.00000000000E+00  0.00000000000E+00  0.86421288684E+03  0.86421288684E+03  0.25500000000E-02 0.  1.
         -2   -1    0    0    0  501 -0.00000000000E+00 -0.00000000000E+00 -0.62159523204E+02  0.62159523256E+02  0.25500000000E-02 0. -1.
    5000001    1    1    2    0    0 -0.33010491867E+02 -0.12205547224E+03  0.45989867977E+03  0.51415758920E+03  0.19200000000E+03 0.  0.
   -5000001    1    1    2    0    0  0.33010491867E+02  0.12205547224E+03  0.34215468386E+03  0.41221482090E+03  0.19200000000E+03 0.  0.
<mgrwt>
<rscale>  0 0.46354746E+03</rscale>
<asrwt>0</asrwt>
<pdfrwt beam="1">  1        2 0.12345899E+00 0.46354746E+03</pdfrwt>
<pdfrwt beam="2">  1       -2 0.88799318E-02 0.46354746E+03</pdfrwt>
<totfact> 0.28489929E+03</totfact>
</mgrwt>
</event>
<event>
 4    1  0.2013882E-005  0.4166632E+03  0.7818608E-02  0.1038158E+00
          2   -1    0    0  501    0  0.00000000000E+00  0.00000000000E+00  0.13539550547E+03  0.13539550549E+03  0.25500000000E-02 0.  1.
         -2   -1    0    0    0  501 -0.00000000000E+00 -0.00000000000E+00 -0.32055755559E+03  0.32055755560E+03  0.25500000000E-02 0. -1.
    5000001    1    1    2    0    0  0.61769512993E+02 -0.49946621069E+02 -0.10910144440E+03  0.23468545515E+03  0.19200000000E+03 0.  0.
   -5000001    1    1    2    0    0 -0.61769512993E+02  0.49946621069E+02 -0.76060605726E+02  0.22126760593E+03  0.19200000000E+03 0.  0.
<mgrwt>
<rscale>  0 0.41666318E+03</rscale>
<asrwt>0</asrwt>
<pdfrwt beam="1">  1        2 0.19342215E-01 0.41666318E+03</pdfrwt>
<pdfrwt beam="2">  1       -2 0.45793936E-01 0.41666318E+03</pdfrwt>
<totfact> 0.13319337E+03</totfact>
</mgrwt>
</event>
<event>
 4    1  0.2013882E-005  0.5131054E+03  0.7818608E-02  0.1010414E+00
         -2   -1    0    0    0  501 -0.00000000000E+00  0.00000000000E+00  0.28905895778E+02  0.28905895891E+02  0.25500000000E-02 0. -1.
          2   -1    0    0  501    0  0.00000000000E+00 -0.00000000000E+00 -0.22770195929E+04  0.22770195929E+04  0.25500000000E-02 0.  1.
    5000001    1    1    2    0    0 -0.78508898814E+02  0.14196538041E+03 -0.89325843019E+03  0.92795066654E+03  0.19200000000E+03 0.  0.
   -5000001    1    1    2    0    0  0.78508898814E+02 -0.14196538041E+03 -0.13548552670E+04  0.13779748223E+04  0.19200000000E+03 0.  0.
<mgrwt>
<rscale>  0 0.51310541E+03</rscale>
<asrwt>0</asrwt>
<pdfrwt beam="1">  1        2 0.32528840E+00 0.51310541E+03</pdfrwt>
<pdfrwt beam="2">  1       -2 0.41294151E-02 0.51310541E+03</pdfrwt>
<totfact> 0.16648087E+03</totfact>
</mgrwt>
</event>
<event>
 4    1  0.2013882E-005  0.6186581E+03  0.7818608E-02  0.9867435E-01
          2   -1    0    0  501    0  0.00000000000E+00  0.00000000000E+00  0.16193090058E+04  0.16193090058E+04  0.25500000000E-02 0.  1.
         -2   -1    0    0    0  501 -0.00000000000E+00 -0.00000000000E+00 -0.59089693866E+02  0.59089693921E+02  0.25500000000E-02 0. -1.
    5000001    1    1    2    0    0  0.10607140367E+03 -0.11571742030E+03  0.12816696267E+04  0.13054434864E+04  0.19200000000E+03 0.  0.
   -5000001    1    1    2    0    0 -0.10607140367E+03  0.11571742030E+03  0.27854968521E+03  0.37295521336E+03  0.19200000000E+03 0.  0.
<mgrwt>
<rscale>  0 0.61865814E+03</rscale>
<asrwt>0</asrwt>
<pdfrwt beam="1">  1        2 0.23132983E+00 0.61865814E+03</pdfrwt>
<pdfrwt beam="2">  1       -2 0.84413857E-02 0.61865814E+03</pdfrwt>
<totfact> 0.11605039E+03</totfact>
</mgrwt>
</event>
<event>
 4    1  0.2013882E-005  0.6659889E+03  0.7818608E-02  0.9777231E-01
          2   -1    0    0  501    0  0.00000000000E+00  0.00000000000E+00  0.38924069968E+04  0.38924069968E+04  0.25500000000E-02 0.  1.
         -2   -1    0    0    0  501 -0.00000000000E+00 -0.00000000000E+00 -0.28487590521E+02  0.28487590636E+02  0.25500000000E-02 0. -1.
    5000001    1    1    2    0    0 -0.73985690989E+02  0.22726806457E+03  0.26972362090E+04  0.27146034375E+04  0.19200000000E+03 0.  0.
   -5000001    1    1    2    0    0  0.73985690989E+02 -0.22726806457E+03  0.11666831972E+04  0.12062911499E+04  0.19200000000E+03 0.  0.
<mgrwt>
<rscale>  0 0.66598888E+03</rscale>
<asrwt>0</asrwt>
<pdfrwt beam="1">  1        2 0.55605800E+00 0.66598888E+03</pdfrwt>
<pdfrwt beam="2">  1       -2 0.40696569E-02 0.66598888E+03</pdfrwt>
<totfact> 0.20949655E+02</totfact>
</mgrwt>
</event>
<event>
 4    1  0.2013882E-005  0.5792298E+03  0.7818608E-02  0.9949460E-01
         -2   -1    0    0    0  501 -0.00000000000E+00  0.00000000000E+00  0.37680185104E+02  0.37680185190E+02  0.25500000000E-02 0. -1.
          2   -1    0    0  501    0  0.00000000000E+00 -0.00000000000E+00 -0.22260186764E+04  0.22260186764E+04  0.25500000000E-02 0.  1.
    5000001    1    1    2    0    0  0.49199781441E+02 -0.12916201598E+03 -0.17470631436E+04  0.17630079616E+04  0.19200000000E+03 0.  0.
   -5000001    1    1    2    0    0 -0.49199781441E+02  0.12916201598E+03 -0.44127534765E+03  0.50069089997E+03  0.19200000000E+03 0.  0.
<mgrwt>
<rscale>  0 0.57922982E+03</rscale>
<asrwt>0</asrwt>
<pdfrwt beam="1">  1        2 0.31800259E+00 0.57922982E+03</pdfrwt>
<pdfrwt beam="2">  1       -2 0.53828850E-02 0.57922982E+03</pdfrwt>
<totfact> 0.11683514E+03</totfact>
</mgrwt>
</event>
<event>
 4    1  0.2013882E-005  0.5407289E+03  0.7818608E-02  0.1003663E+00
         -2   -1    0    0    0  501 -0.00000000000E+00  0.00000000000E+00  0.14999461723E+03  0.14999461725E+03  0.25500000000E-02 0. -1.
          2   -1    0    0  501    0  0.00000000000E+00 -0.00000000000E+00 -0.48733033674E+03  0.48733033674E+03  0.25500000000E-02 0.  1.
    5000001    1    1    2    0    0  0.15818684841E+03 -0.97179055713E+02 -0.21819993063E+03  0.34487977268E+03  0.19200000000E+03 0.  0.
   -5000001    1    1    2    0    0 -0.15818684841E+03  0.97179055713E+02 -0.11913578888E+03  0.29244518131E+03  0.19200000000E+03 0.  0.
<mgrwt>
<rscale>  0 0.54072887E+03</rscale>
<asrwt>0</asrwt>
<pdfrwt beam="1">  1        2 0.69618619E-01 0.54072887E+03</pdfrwt>
<pdfrwt beam="2">  1       -2 0.21427803E-01 0.54072887E+03</pdfrwt>
<totfact> 0.13057547E+03</totfact>
</mgrwt>
</event>
<event>
 4    1  0.2013882E-005  0.4892584E+03  0.7818608E-02  0.1016621E+00
          2   -1    0    0  501    0  0.00000000000E+00  0.00000000000E+00  0.76251236421E+03  0.76251236421E+03  0.25500000000E-02 0.  1.
         -2   -1    0    0    0  501 -0.00000000000E+00 -0.00000000000E+00 -0.78481947314E+02  0.78481947355E+02  0.25500000000E-02 0. -1.
    5000001    1    1    2    0    0  0.46496474571E+02  0.14388267561E+03  0.36047325830E+03  0.43551017949E+03  0.19200000000E+03 0.  0.
   -5000001    1    1    2    0    0 -0.46496474571E+02 -0.14388267561E+03  0.32355715860E+03  0.40548413208E+03  0.19200000000E+03 0.  0.
<mgrwt>
<rscale>  0 0.48925844E+03</rscale>
<asrwt>0</asrwt>
<pdfrwt beam="1">  1        2 0.10893034E+00 0.48925844E+03</pdfrwt>
<pdfrwt beam="2">  1       -2 0.11211706E-01 0.48925844E+03</pdfrwt>
<totfact> 0.22952693E+03</totfact>
</mgrwt>
</event>
<event>
 4    1  0.2013882E-005  0.6334054E+03  0.7818608E-02  0.9838426E-01
         -2   -1    0    0    0  501 -0.00000000000E+00  0.00000000000E+00  0.75172499077E+02  0.75172499120E+02  0.25500000000E-02 0. -1.
          2   -1    0    0  501    0  0.00000000000E+00 -0.00000000000E+00 -0.13342725605E+04  0.13342725605E+04  0.25500000000E-02 0.  1.
    5000001    1    1    2    0    0  0.21825013927E+03 -0.92240955413E+02 -0.81960603031E+03  0.87450532421E+03  0.19200000000E+03 0.  0.
   -5000001    1    1    2    0    0 -0.21825013927E+03  0.92240955413E+02 -0.43949403113E+03  0.53493973543E+03  0.19200000000E+03 0.  0.
<mgrwt>
<rscale>  0 0.63340541E+03</rscale>
<asrwt>0</asrwt>
<pdfrwt beam="1">  1        2 0.19061035E+00 0.63340541E+03</pdfrwt>
<pdfrwt beam="2">  1       -2 0.10738929E-01 0.63340541E+03</pdfrwt>
<totfact> 0.11093459E+03</totfact>
</mgrwt>
</event>
<event>
 4    1  0.2013882E-005  0.8918312E+03  0.7818608E-02  0.9435851E-01
         -2   -1    0    0    0  501 -0.00000000000E+00  0.00000000000E+00  0.13482722767E+04  0.13482722767E+04  0.25500000000E-02 0. -1.
          2   -1    0    0  501    0  0.00000000000E+00 -0.00000000000E+00 -0.14747817768E+03  0.14747817770E+03  0.25500000000E-02 0.  1.
    5000001    1    1    2    0    0  0.94867216977E+02  0.24297163900E+03  0.86346596649E+02  0.33519358730E+03  0.19200000000E+03 0.  0.
   -5000001    1    1    2    0    0 -0.94867216977E+02 -0.24297163900E+03  0.11144475023E+04  0.11605568671E+04  0.19200000000E+03 0.  0.
<mgrwt>
<rscale>  0 0.89183124E+03</rscale>
<asrwt>0</asrwt>
<pdfrwt beam="1">  1        2 0.21068310E-01 0.89183124E+03</pdfrwt>
<pdfrwt beam="2">  1       -2 0.19261033E+00 0.89183124E+03</pdfrwt>
<totfact> 0.40097605E+01</totfact>
</mgrwt>
</event>
<event>
 4    1  0.2013882E-005  0.4178078E+03  0.7818608E-02  0.1037782E+00
          2   -1    0    0  501    0  0.00000000000E+00  0.00000000000E+00  0.16965457078E+04  0.16965457078E+04  0.25500000000E-02 0.  1.
         -2   -1    0    0    0  501 -0.00000000000E+00 -0.00000000000E+00 -0.25723344907E+02  0.25723345034E+02  0.25500000000E-02 0. -1.
    5000001    1    1    2    0    0 -0.38475608103E+02 -0.50551882103E+02  0.61959884447E+03  0.65176881888E+03  0.19200000000E+03 0.  0.
   -5000001    1    1    2    0    0  0.38475608103E+02  0.50551882103E+02  0.10512235184E+04  0.10705002340E+04  0.19200000000E+03 0.  0.
<mgrwt>
<rscale>  0 0.41780776E+03</rscale>
<asrwt>0</asrwt>
<pdfrwt beam="1">  1        2 0.24236363E+00 0.41780776E+03</pdfrwt>
<pdfrwt beam="2">  1       -2 0.36747642E-02 0.41780776E+03</pdfrwt>
<totfact> 0.38883959E+03</totfact>
</mgrwt>
</event>
<event>
 4    1  0.2013882E-005  0.4771390E+03  0.7818608E-02  0.1019924E+00
          2   -1    0    0  501    0  0.00000000000E+00  0.00000000000E+00  0.64271997693E+02  0.64271997744E+02  0.25500000000E-02 0.  1.
         -2   -1    0    0    0  501 -0.00000000000E+00 -0.00000000000E+00 -0.88553970620E+03  0.88553970620E+03  0.25500000000E-02 0. -1.
    5000001    1    1    2    0    0  0.10598507743E+03  0.92125923600E+02 -0.37439636747E+03  0.44357261233E+03  0.19200000000E+03 0.  0.
   -5000001    1    1    2    0    0 -0.10598507743E+03 -0.92125923600E+02 -0.44687134103E+03  0.50623909161E+03  0.19200000000E+03 0.  0.
<mgrwt>
<rscale>  0 0.47713900E+03</rscale>
<asrwt>0</asrwt>
<pdfrwt beam="1">  1        2 0.91817145E-02 0.47713900E+03</pdfrwt>
<pdfrwt beam="2">  1       -2 0.12650567E+00 0.47713900E+03</pdfrwt>
<totfact> 0.34930519E+02</totfact>
</mgrwt>
</event>
<event>
 4    1  0.2013882E-005  0.6617419E+03  0.7818608E-02  0.9784992E-01
          2   -1    0    0  501    0  0.00000000000E+00  0.00000000000E+00  0.29205063400E+03  0.29205063401E+03  0.25500000000E-02 0.  1.
         -2   -1    0    0    0  501 -0.00000000000E+00 -0.00000000000E+00 -0.37485144125E+03  0.37485144126E+03  0.25500000000E-02 0. -1.
    5000001    1    1    2    0    0 -0.87370868791E+02  0.16505165031E+03  0.15437164002E+03  0.30914449571E+03  0.19200000000E+03 0.  0.
   -5000001    1    1    2    0    0  0.87370868791E+02 -0.16505165031E+03 -0.23717244728E+03  0.35775757956E+03  0.19200000000E+03 0.  0.
<mgrwt>
<rscale>  0 0.66174195E+03</rscale>
<asrwt>0</asrwt>
<pdfrwt beam="1">  1        2 0.41721520E-01 0.66174195E+03</pdfrwt>
<pdfrwt beam="2">  1       -2 0.53550205E-01 0.66174195E+03</pdfrwt>
<totfact> 0.40728624E+02</totfact>
</mgrwt>
</event>
<event>
 4    1  0.2013882E-005  0.6061327E+03  0.7818608E-02  0.9892764E-01
         -2   -1    0    0    0  501 -0.00000000000E+00  0.00000000000E+00  0.10880879058E+03  0.10880879061E+03  0.25500000000E-02 0. -1.
          2   -1    0    0  501    0  0.00000000000E+00 -0.00000000000E+00 -0.84413401483E+03  0.84413401484E+03  0.25500000000E-02 0.  1.
    5000001    1    1    2    0    0 -0.88791439067E+02  0.16400481053E+03 -0.14419497158E+03  0.30403566790E+03  0.19200000000E+03 0.  0.
   -5000001    1    1    2    0    0  0.88791439067E+02 -0.16400481053E+03 -0.59113025267E+03  0.64890713754E+03  0.19200000000E+03 0.  0.
<mgrwt>
<rscale>  0 0.60613266E+03</rscale>
<asrwt>0</asrwt>
<pdfrwt beam="1">  1        2 0.12059057E+00 0.60613266E+03</pdfrwt>
<pdfrwt beam="2">  1       -2 0.15544113E-01 0.60613266E+03</pdfrwt>
<totfact> 0.11718397E+03</totfact>
</mgrwt>
</event>
<event>
 4    1  0.2013882E-005  0.5123804E+03  0.7818608E-02  0.1010597E+00
         -2   -1    0    0    0  501 -0.00000000000E+00  0.00000000000E+00  0.21749467800E+02  0.21749467950E+02  0.25500000000E-02 0. -1.
          2   -1    0    0  501    0  0.00000000000E+00 -0.00000000000E+00 -0.30177027345E+04  0.30177027345E+04  0.25500000000E-02 0.  1.
    5000001    1    1    2    0    0 -0.14970834724E+03 -0.81227012940E+01 -0.10274785843E+04  0.10559615564E+04  0.19200000000E+03 0.  0.
   -5000001    1    1    2    0    0  0.14970834724E+03  0.81227012940E+01 -0.19684746825E+04  0.19834906461E+04  0.19200000000E+03 0.  0.
<mgrwt>
<rscale>  0 0.51238044E+03</rscale>
<asrwt>0</asrwt>
<pdfrwt beam="1">  1        2 0.43110012E+00 0.51238044E+03</pdfrwt>
<pdfrwt beam="2">  1       -2 0.31070688E-02 0.51238044E+03</pdfrwt>
<totfact> 0.10592117E+03</totfact>
</mgrwt>
</event>
<event>
 4    1  0.2013882E-005  0.4615563E+03  0.7818608E-02  0.1024331E+00
          2   -1    0    0  501    0  0.00000000000E+00  0.00000000000E+00  0.27940518571E+03  0.27940518572E+03  0.25500000000E-02 0.  1.
         -2   -1    0    0    0  501 -0.00000000000E+00 -0.00000000000E+00 -0.19061403230E+03  0.19061403231E+03  0.25500000000E-02 0. -1.
    5000001    1    1    2    0    0 -0.44208921875E+02 -0.10172118571E+03  0.10954455659E+03  0.24731687826E+03  0.19200000000E+03 0.  0.
   -5000001    1    1    2    0    0  0.44208921875E+02  0.10172118571E+03 -0.20753403180E+02  0.22270233977E+03  0.19200000000E+03 0.  0.
<mgrwt>
<rscale>  0 0.46155628E+03</rscale>
<asrwt>0</asrwt>
<pdfrwt beam="1">  1        2 0.39915026E-01 0.46155628E+03</pdfrwt>
<pdfrwt beam="2">  1       -2 0.27230576E-01 0.46155628E+03</pdfrwt>
<totfact> 0.15750612E+03</totfact>
</mgrwt>
</event>
<event>
 4    1  0.2013882E-005  0.4542180E+03  0.7818608E-02  0.1026472E+00
          2   -1    0    0  501    0  0.00000000000E+00  0.00000000000E+00  0.53035969592E+03  0.53035969592E+03  0.25500000000E-02 0.  1.
         -2   -1    0    0    0  501 -0.00000000000E+00 -0.00000000000E+00 -0.97251911757E+02  0.97251911790E+02  0.25500000000E-02 0. -1.
    5000001    1    1    2    0    0  0.11843182755E+03 -0.21458103100E+02  0.19569251353E+03  0.29940959874E+03  0.19200000000E+03 0.  0.
   -5000001    1    1    2    0    0 -0.11843182755E+03  0.21458103100E+02  0.23741527064E+03  0.32820200898E+03  0.19200000000E+03 0.  0.
<mgrwt>
<rscale>  0 0.45421798E+03</rscale>
<asrwt>0</asrwt>
<pdfrwt beam="1">  1        2 0.75765673E-01 0.45421798E+03</pdfrwt>
<pdfrwt beam="2">  1       -2 0.13893130E-01 0.45421798E+03</pdfrwt>
<totfact> 0.24804192E+03</totfact>
</mgrwt>
</event>
<event>
 4    1  0.2013882E-005  0.6002784E+03  0.7818608E-02  0.9904829E-01
         -2   -1    0    0    0  501 -0.00000000000E+00  0.00000000000E+00  0.18815106519E+03  0.18815106521E+03  0.25500000000E-02 0. -1.
          2   -1    0    0  501    0  0.00000000000E+00 -0.00000000000E+00 -0.47878304029E+03  0.47878304029E+03  0.25500000000E-02 0.  1.
    5000001    1    1    2    0    0 -0.13018121978E+03 -0.17381739224E+03 -0.23180542155E+03  0.37115682573E+03  0.19200000000E+03 0.  0.
   -5000001    1    1    2    0    0  0.13018121978E+03  0.17381739224E+03 -0.58826553546E+02  0.29577727977E+03  0.19200000000E+03 0.  0.
<mgrwt>
<rscale>  0 0.60027840E+03</rscale>
<asrwt>0</asrwt>
<pdfrwt beam="1">  1        2 0.68397577E-01 0.60027840E+03</pdfrwt>
<pdfrwt beam="2">  1       -2 0.26878724E-01 0.60027840E+03</pdfrwt>
<totfact> 0.88883514E+02</totfact>
</mgrwt>
</event>
<event>
 4    1  0.2013882E-005  0.6144606E+03  0.7818608E-02  0.9875851E-01
         -2   -1    0    0    0  501 -0.00000000000E+00  0.00000000000E+00  0.72169415626E+02  0.72169415671E+02  0.25500000000E-02 0. -1.
          2   -1    0    0  501    0  0.00000000000E+00 -0.00000000000E+00 -0.13079009181E+04  0.13079009181E+04  0.25500000000E-02 0.  1.
    5000001    1    1    2    0    0  0.11183613542E+03  0.39376777721E+01 -0.14140083767E+03  0.26340277786E+03  0.19200000000E+03 0.  0.
   -5000001    1    1    2    0    0 -0.11183613542E+03 -0.39376777721E+01 -0.10943306648E+04  0.11166675559E+04  0.19200000000E+03 0.  0.
<mgrwt>
<rscale>  0 0.61446056E+03</rscale>
<asrwt>0</asrwt>
<pdfrwt beam="1">  1        2 0.18684297E+00 0.61446056E+03</pdfrwt>
<pdfrwt beam="2">  1       -2 0.10309917E-01 0.61446056E+03</pdfrwt>
<totfact> 0.12259320E+03</totfact>
</mgrwt>
</event>
<event>
 4    1  0.2013882E-005  0.7059114E+03  0.7818608E-02  0.9707176E-01
         -2   -1    0    0    0  501 -0.00000000000E+00  0.00000000000E+00  0.11617049748E+03  0.11617049751E+03  0.25500000000E-02 0. -1.
          2   -1    0    0  501    0  0.00000000000E+00 -0.00000000000E+00 -0.10723698212E+04  0.10723698212E+04  0.25500000000E-02 0.  1.
    5000001    1    1    2    0    0  0.14056498498E+03  0.25556766773E+03 -0.56461588824E+03  0.66387382012E+03  0.19200000000E+03 0.  0.
   -5000001    1    1    2    0    0 -0.14056498498E+03 -0.25556766773E+03 -0.39158343547E+03  0.52466649858E+03  0.19200000000E+03 0.  0.
<mgrwt>
<rscale>  0 0.70591143E+03</rscale>
<asrwt>0</asrwt>
<pdfrwt beam="1">  1        2 0.15319568E+00 0.70591143E+03</pdfrwt>
<pdfrwt beam="2">  1       -2 0.16595786E-01 0.70591143E+03</pdfrwt>
<totfact> 0.75202107E+02</totfact>
</mgrwt>
</event>
<event>
 4    1  0.2013882E-005  0.4947290E+03  0.7818608E-02  0.1015164E+00
         -2   -1    0    0    0  501 -0.00000000000E+00  0.00000000000E+00  0.30120902612E+02  0.30120902720E+02  0.25500000000E-02 0. -1.
          2   -1    0    0  501    0  0.00000000000E+00 -0.00000000000E+00 -0.20314529005E+04  0.20314529005E+04  0.25500000000E-02 0.  1.
    5000001    1    1    2    0    0 -0.25449186546E+02 -0.95244058735E+02 -0.49705094375E+03  0.54188811806E+03  0.19200000000E+03 0.  0.
   -5000001    1    1    2    0    0  0.25449186546E+02  0.95244058735E+02 -0.15042810542E+04  0.15196856852E+04  0.19200000000E+03 0.  0.
<mgrwt>
<rscale>  0 0.49472900E+03</rscale>
<asrwt>0</asrwt>
<pdfrwt beam="1">  1        2 0.29020747E+00 0.49472900E+03</pdfrwt>
<pdfrwt beam="2">  1       -2 0.43029874E-02 0.49472900E+03</pdfrwt>
<totfact> 0.20757944E+03</totfact>
</mgrwt>
</event>
<event>
 4    1  0.2013882E-005  0.4232695E+03  0.7818608E-02  0.1036007E+00
          2   -1    0    0  501    0  0.00000000000E+00  0.00000000000E+00  0.63253772422E+03  0.63253772422E+03  0.25500000000E-02 0. -1.
         -2   -1    0    0    0  501 -0.00000000000E+00 -0.00000000000E+00 -0.70808864285E+02  0.70808864331E+02  0.25500000000E-02 0.  1.
    5000001    1    1    2    0    0  0.78248280899E+02 -0.35132915496E+02  0.32047295847E+03  0.38330670791E+03  0.19200000000E+03 0.  0.
   -5000001    1    1    2    0    0 -0.78248280899E+02  0.35132915496E+02  0.24125590146E+03  0.32003988065E+03  0.19200000000E+03 0.  0.
<mgrwt>
<rscale>  0 0.42326955E+03</rscale>
<asrwt>0</asrwt>
<pdfrwt beam="1">  1        2 0.90362536E-01 0.42326955E+03</pdfrwt>
<pdfrwt beam="2">  1       -2 0.10115552E-01 0.42326955E+03</pdfrwt>
<totfact> 0.33946656E+03</totfact>
</mgrwt>
</event>
<event>
 4    1  0.2013882E-005  0.4783391E+03  0.7818608E-02  0.1019593E+00
         -2   -1    0    0    0  501 -0.00000000000E+00  0.00000000000E+00  0.66380709398E+02  0.66380709447E+02  0.25500000000E-02 0. -1.
          2   -1    0    0  501    0  0.00000000000E+00 -0.00000000000E+00 -0.86172728444E+03  0.86172728445E+03  0.25500000000E-02 0.  1.
    5000001    1    1    2    0    0 -0.65658374172E+02  0.12511811180E+03 -0.36022530741E+03  0.43196277166E+03  0.19200000000E+03 0.  0.
   -5000001    1    1    2    0    0  0.65658374172E+02 -0.12511811180E+03 -0.43512126763E+03  0.49614522223E+03  0.19200000000E+03 0.  0.
<mgrwt>
<rscale>  0 0.47833908E+03</rscale>
<asrwt>0</asrwt>
<pdfrwt beam="1">  1        2 0.12310389E+00 0.47833908E+03</pdfrwt>
<pdfrwt beam="2">  1       -2 0.94829590E-02 0.47833908E+03</pdfrwt>
<totfact> 0.25745762E+03</totfact>
</mgrwt>
</event>
<event>
 4    1  0.2013882E-005  0.6197652E+03  0.7818608E-02  0.9865227E-01
         -2   -1    0    0    0  501 -0.00000000000E+00  0.00000000000E+00  0.51878629696E+02  0.51878629759E+02  0.25500000000E-02 0. -1.
          2   -1    0    0  501    0  0.00000000000E+00 -0.00000000000E+00 -0.18509979446E+04  0.18509979446E+04  0.25500000000E-02 0.  1.
    5000001    1    1    2    0    0 -0.37601322079E+02  0.23421053987E+03 -0.73436624161E+03  0.79525229533E+03  0.19200000000E+03 0.  0.
   -5000001    1    1    2    0    0  0.37601322079E+02 -0.23421053987E+03 -0.10647530732E+04  0.11076242790E+04  0.19200000000E+03 0.  0.
<mgrwt>
<rscale>  0 0.61976524E+03</rscale>
<asrwt>0</asrwt>
<pdfrwt beam="1">  1        2 0.26442824E+00 0.61976524E+03</pdfrwt>
<pdfrwt beam="2">  1       -2 0.74112340E-02 0.61976524E+03</pdfrwt>
<totfact> 0.10888903E+03</totfact>
</mgrwt>
</event>
<event>
 4    1  0.2013882E-005  0.9957276E+03  0.7818608E-02  0.9313243E-01
          2   -1    0    0  501    0  0.00000000000E+00  0.00000000000E+00  0.12312571846E+04  0.12312571846E+04  0.25500000000E-02 0.  1.
         -2   -1    0    0    0  501 -0.00000000000E+00 -0.00000000000E+00 -0.20131325076E+03  0.20131325078E+03  0.25500000000E-02 0. -1.
    5000001    1    1    2    0    0  0.35090595408E+02 -0.39942018041E+03  0.83743901929E+03  0.94812232409E+03  0.19200000000E+03 0.  0.
   -5000001    1    1    2    0    0 -0.35090595408E+02  0.39942018041E+03  0.19250491453E+03  0.48444811128E+03  0.19200000000E+03 0.  0.
<mgrwt>
<rscale>  0 0.99572765E+03</rscale>
<asrwt>0</asrwt>
<pdfrwt beam="1">  1        2 0.17589389E+00 0.99572765E+03</pdfrwt>
<pdfrwt beam="2">  1       -2 0.28759035E-01 0.99572765E+03</pdfrwt>
<totfact> 0.22659916E+02</totfact>
</mgrwt>
</event>
<event>
 4    1  0.2013882E-005  0.5600050E+03  0.7818608E-02  0.9992043E-01
          2   -1    0    0  501    0  0.00000000000E+00  0.00000000000E+00  0.53574716738E+03  0.53574716739E+03  0.25500000000E-02 0.  1.
         -2   -1    0    0    0  501 -0.00000000000E+00 -0.00000000000E+00 -0.14634032032E+03  0.14634032034E+03  0.25500000000E-02 0. -1.
    5000001    1    1    2    0    0  0.89849396906E+02 -0.64376992700E+01 -0.27971447815E+02  0.21391764768E+03  0.19200000000E+03 0.  0.
   -5000001    1    1    2    0    0 -0.89849396906E+02  0.64376992700E+01  0.41737829488E+03  0.46816984005E+03  0.19200000000E+03 0.  0.
<mgrwt>
<rscale>  0 0.56000504E+03</rscale>
<asrwt>0</asrwt>
<pdfrwt beam="1">  1        2 0.76535311E-01 0.56000504E+03</pdfrwt>
<pdfrwt beam="2">  1       -2 0.20905760E-01 0.56000504E+03</pdfrwt>
<totfact> 0.12238966E+03</totfact>
</mgrwt>
</event>
<event>
 4    1  0.2013882E-005  0.1610430E+04  0.7818608E-02  0.8814166E-01
          2   -1    0    0  501    0  0.00000000000E+00  0.00000000000E+00  0.20575785103E+04  0.20575785103E+04  0.25500000000E-02 0.  1.
         -2   -1    0    0    0  501 -0.00000000000E+00 -0.00000000000E+00 -0.31511359129E+03  0.31511359130E+03  0.25500000000E-02 0. -1.
    5000001    1    1    2    0    0 -0.75622026148E+03  0.18216313411E+03  0.98959919050E+03  0.12732725746E+04  0.19200000000E+03 0.  0.
   -5000001    1    1    2    0    0  0.75622026148E+03 -0.18216313411E+03  0.75286572853E+03  0.10994195271E+04  0.19200000000E+03 0.  0.
<mgrwt>
<rscale>  0 0.16104297E+04</rscale>
<asrwt>0</asrwt>
<pdfrwt beam="1">  1        2 0.29393979E+00 0.16104297E+04</pdfrwt>
<pdfrwt beam="2">  1       -2 0.45016227E-01 0.16104297E+04</pdfrwt>
<totfact> 0.33663043E+01</totfact>
</mgrwt>
</event>
<event>
 4    1  0.2013882E-005  0.1372801E+04  0.7818608E-02  0.8973745E-01
          2   -1    0    0  501    0  0.00000000000E+00  0.00000000000E+00  0.14600518348E+04  0.14600518348E+04  0.25500000000E-02 0. -1.
         -2   -1    0    0    0  501 -0.00000000000E+00 -0.00000000000E+00 -0.32269120381E+03  0.32269120382E+03  0.25500000000E-02 0.  1.
    5000001    1    1    2    0    0  0.64766520319E+03 -0.13580703822E+02  0.72573906902E+03  0.99157241150E+03  0.19200000000E+03 0.  0.
   -5000001    1    1    2    0    0 -0.64766520319E+03  0.13580703822E+02  0.41162156196E+03  0.79117062712E+03  0.19200000000E+03 0.  0.
<mgrwt>
<rscale>  0 0.13728013E+04</rscale>
<asrwt>0</asrwt>
<pdfrwt beam="1">  1        2 0.20857883E+00 0.13728013E+04</pdfrwt>
<pdfrwt beam="2">  1       -2 0.46098743E-01 0.13728013E+04</pdfrwt>
<totfact> 0.66849781E+01</totfact>
</mgrwt>
</event>
<event>
 4    1  0.2013882E-005  0.5061682E+03  0.7818608E-02  0.1012181E+00
          2   -1    0    0  501    0  0.00000000000E+00  0.00000000000E+00  0.83093507756E+03  0.83093507756E+03  0.25500000000E-02 0.  1.
         -2   -1    0    0    0  501 -0.00000000000E+00 -0.00000000000E+00 -0.77083710724E+02  0.77083710766E+02  0.25500000000E-02 0. -1.
    5000001    1    1    2    0    0 -0.73257935834E+02  0.57304567415E+02  0.62116746095E+03  0.65678272903E+03  0.19200000000E+03 0.  0.
   -5000001    1    1    2    0    0  0.73257935834E+02 -0.57304567415E+02  0.13268390588E+03  0.25123605929E+03  0.19200000000E+03 0.  0.
<mgrwt>
<rscale>  0 0.50616819E+03</rscale>
<asrwt>0</asrwt>
<pdfrwt beam="1">  1        2 0.11870502E+00 0.50616819E+03</pdfrwt>
<pdfrwt beam="2">  1       -2 0.11011958E-01 0.50616819E+03</pdfrwt>
<totfact> 0.21197873E+03</totfact>
</mgrwt>
</event>
<event>
 4    1  0.2013882E-005  0.7772085E+03  0.7818608E-02  0.9593606E-01
         -2   -1    0    0    0  501 -0.00000000000E+00  0.00000000000E+00  0.17335997743E+04  0.17335997743E+04  0.25500000000E-02 0. -1.
          2   -1    0    0  501    0  0.00000000000E+00 -0.00000000000E+00 -0.87109641302E+02  0.87109641339E+02  0.25500000000E-02 0.  1.
    5000001    1    1    2    0    0 -0.24873268379E+03  0.22138464186E+03  0.68928148798E+03  0.78920978029E+03  0.19200000000E+03 0.  0.
   -5000001    1    1    2    0    0  0.24873268379E+03 -0.22138464186E+03  0.95720864505E+03  0.10314996354E+04  0.19200000000E+03 0.  0.
<mgrwt>
<rscale>  0 0.77720848E+03</rscale>
<asrwt>0</asrwt>
<pdfrwt beam="1">  1        2 0.12444235E-01 0.77720848E+03</pdfrwt>
<pdfrwt beam="2">  1       -2 0.24765709E+00 0.77720848E+03</pdfrwt>
<totfact> 0.34383085E+01</totfact>
</mgrwt>
</event>
<event>
 4    1  0.2013882E-005  0.6795192E+03  0.7818608E-02  0.9752913E-01
          2   -1    0    0  501    0  0.00000000000E+00  0.00000000000E+00  0.63809925616E+03  0.63809925616E+03  0.25500000000E-02 0.  1.
         -2   -1    0    0    0  501 -0.00000000000E+00 -0.00000000000E+00 -0.18090692327E+03  0.18090692329E+03  0.25500000000E-02 0. -1.
    5000001    1    1    2    0    0  0.21713457026E+03 -0.15746911882E+03  0.32672514989E+03  0.46428145403E+03  0.19200000000E+03 0.  0.
   -5000001    1    1    2    0    0 -0.21713457026E+03  0.15746911882E+03  0.13046718299E+03  0.35472472542E+03  0.19200000000E+03 0.  0.
<mgrwt>
<rscale>  0 0.67951916E+03</rscale>
<asrwt>0</asrwt>
<pdfrwt beam="1">  1        2 0.91157037E-01 0.67951916E+03</pdfrwt>
<pdfrwt beam="2">  1       -2 0.25843846E-01 0.67951916E+03</pdfrwt>
<totfact> 0.68264686E+02</totfact>
</mgrwt>
</event>
<event>
 4    1  0.2013882E-005  0.5185288E+03  0.7818608E-02  0.1009053E+00
          2   -1    0    0  501    0  0.00000000000E+00  0.00000000000E+00  0.19254366398E+03  0.19254366399E+03  0.25500000000E-02 0.  1.
         -2   -1    0    0    0  501 -0.00000000000E+00 -0.00000000000E+00 -0.34910544156E+03  0.34910544157E+03  0.25500000000E-02 0. -1.
    5000001    1    1    2    0    0  0.53133258418E+02  0.14498726400E+03 -0.16256039060E+03  0.29518524771E+03  0.19200000000E+03 0.  0.
   -5000001    1    1    2    0    0 -0.53133258418E+02 -0.14498726400E+03  0.59986130156E+01  0.24646385786E+03  0.19200000000E+03 0.  0.
<mgrwt>
<rscale>  0 0.51852885E+03</rscale>
<asrwt>0</asrwt>
<pdfrwt beam="1">  1        2 0.27506238E-01 0.51852885E+03</pdfrwt>
<pdfrwt beam="2">  1       -2 0.49872205E-01 0.51852885E+03</pdfrwt>
<totfact> 0.75091215E+02</totfact>
</mgrwt>
</event>
<event>
 4    1  0.2013882E-005  0.4139634E+03  0.7818608E-02  0.1039049E+00
          2   -1    0    0  501    0  0.00000000000E+00  0.00000000000E+00  0.16619284544E+04  0.16619284544E+04  0.25500000000E-02 0.  1.
         -2   -1    0    0    0  501 -0.00000000000E+00 -0.00000000000E+00 -0.25778142469E+02  0.25778142596E+02  0.25500000000E-02 0. -1.
    5000001    1    1    2    0    0 -0.48176943136E+02 -0.31651380516E+02  0.60801939641E+03  0.64021435016E+03  0.19200000000E+03 0.  0.
   -5000001    1    1    2    0    0  0.48176943136E+02  0.31651380516E+02  0.10281309155E+04  0.10474922469E+04  0.19200000000E+03 0.  0.
<mgrwt>
<rscale>  0 0.41396342E+03</rscale>
<asrwt>0</asrwt>
<pdfrwt beam="1">  1        2 0.23741834E+00 0.41396342E+03</pdfrwt>
<pdfrwt beam="2">  1       -2 0.36825919E-02 0.41396342E+03</pdfrwt>
<totfact> 0.40343610E+03</totfact>
</mgrwt>
</event>
<event>
 4    1  0.2013882E-005  0.4391333E+03  0.7818608E-02  0.1031013E+00
          2   -1    0    0  501    0  0.00000000000E+00  0.00000000000E+00  0.25437236031E+04  0.25437236031E+04  0.25500000000E-02 0.  1.
         -2   -1    0    0    0  501 -0.00000000000E+00 -0.00000000000E+00 -0.18952340982E+02  0.18952341153E+02  0.25500000000E-02 0. -1.
    5000001    1    1    2    0    0  0.15990692587E+02  0.41433899630E+02  0.18273716524E+04  0.18379672539E+04  0.19200000000E+03 0.  0.
   -5000001    1    1    2    0    0 -0.15990692587E+02 -0.41433899630E+02  0.69739960968E+03  0.72470869035E+03  0.19200000000E+03 0.  0.
<mgrwt>
<rscale>  0 0.43913332E+03</rscale>
<asrwt>0</asrwt>
<pdfrwt beam="1">  1        2 0.36338898E+00 0.43913332E+03</pdfrwt>
<pdfrwt beam="2">  1       -2 0.27074781E-02 0.43913332E+03</pdfrwt>
<totfact> 0.23256832E+03</totfact>
</mgrwt>
</event>
<event>
 4    1  0.2013882E-005  0.4747159E+03  0.7818608E-02  0.1020598E+00
          2   -1    0    0  501    0  0.00000000000E+00  0.00000000000E+00  0.84286839215E+03  0.84286839216E+03  0.25500000000E-02 0.  1.
         -2   -1    0    0    0  501 -0.00000000000E+00 -0.00000000000E+00 -0.66841748921E+02  0.66841748970E+02  0.25500000000E-02 0. -1.
    5000001    1    1    2    0    0 -0.12136764466E+02 -0.11173487216E+03  0.54653426407E+03  0.59008108299E+03  0.19200000000E+03 0.  0.
   -5000001    1    1    2    0    0  0.12136764466E+02  0.11173487216E+03  0.22949237916E+03  0.31962905813E+03  0.19200000000E+03 0.  0.
<mgrwt>
<rscale>  0 0.47471590E+03</rscale>
<asrwt>0</asrwt>
<pdfrwt beam="1">  1        2 0.12040977E+00 0.47471590E+03</pdfrwt>
<pdfrwt beam="2">  1       -2 0.95488216E-02 0.47471590E+03</pdfrwt>
<totfact> 0.26201771E+03</totfact>
</mgrwt>
</event>
<event>
 4    1  0.2013882E-005  0.5716059E+03  0.7818608E-02  0.9966131E-01
          2   -1    0    0  501    0  0.00000000000E+00  0.00000000000E+00  0.23041938575E+03  0.23041938577E+03  0.25500000000E-02 0.  1.
         -2   -1    0    0    0  501 -0.00000000000E+00 -0.00000000000E+00 -0.35449851551E+03  0.35449851552E+03  0.25500000000E-02 0. -1.
    5000001    1    1    2    0    0  0.13508479612E+03 -0.15031241910E+03 -0.12657660018E+03  0.30614924660E+03  0.19200000000E+03 0.  0.
   -5000001    1    1    2    0    0 -0.13508479612E+03  0.15031241910E+03  0.24974704204E+01  0.27876865469E+03  0.19200000000E+03 0.  0.
<mgrwt>
<rscale>  0 0.57160591E+03</rscale>
<asrwt>0</asrwt>
<pdfrwt beam="1">  1        2 0.32917055E-01 0.57160591E+03</pdfrwt>
<pdfrwt beam="2">  1       -2 0.50642645E-01 0.57160591E+03</pdfrwt>
<totfact> 0.59495435E+02</totfact>
</mgrwt>
</event>
<event>
 4    1  0.2013882E-005  0.4215097E+03  0.7818608E-02  0.1036576E+00
         -2   -1    0    0    0  501 -0.00000000000E+00  0.00000000000E+00  0.22170516618E+02  0.22170516765E+02  0.25500000000E-02 0. -1.
          2   -1    0    0  501    0  0.00000000000E+00 -0.00000000000E+00 -0.20034537228E+04  0.20034537228E+04  0.25500000000E-02 0.  1.
    5000001    1    1    2    0    0  0.33181537879E+02 -0.78329105019E+02 -0.90506056317E+03  0.92910445384E+03  0.19200000000E+03 0.  0.
   -5000001    1    1    2    0    0 -0.33181537879E+02  0.78329105019E+02 -0.10762226430E+04  0.10965197857E+04  0.19200000000E+03 0.  0.
<mgrwt>
<rscale>  0 0.42150969E+03</rscale>
<asrwt>0</asrwt>
<pdfrwt beam="1">  1        2 0.28620756E+00 0.42150969E+03</pdfrwt>
<pdfrwt beam="2">  1       -2 0.31672180E-02 0.42150969E+03</pdfrwt>
<totfact> 0.34252449E+03</totfact>
</mgrwt>
</event>
<event>
 4    1  0.2013882E-005  0.9303487E+03  0.7818608E-02  0.9388419E-01
          2   -1    0    0  501    0  0.00000000000E+00  0.00000000000E+00  0.12033597347E+04  0.12033597347E+04  0.25500000000E-02 0.  1.
         -2   -1    0    0    0  501 -0.00000000000E+00 -0.00000000000E+00 -0.17981920052E+03  0.17981920053E+03  0.25500000000E-02 0. -1.
    5000001    1    1    2    0    0  0.74975437676E+02 -0.36525206268E+03  0.21259788095E+03  0.47020447098E+03  0.19200000000E+03 0.  0.
   -5000001    1    1    2    0    0 -0.74975437676E+02  0.36525206268E+03  0.81094265323E+03  0.91297446425E+03  0.19200000000E+03 0.  0.
<mgrwt>
<rscale>  0 0.93034872E+03</rscale>
<asrwt>0</asrwt>
<pdfrwt beam="1">  1        2 0.17190853E+00 0.93034872E+03</pdfrwt>
<pdfrwt beam="2">  1       -2 0.25688457E-01 0.93034872E+03</pdfrwt>
<totfact> 0.28996106E+02</totfact>
</mgrwt>
</event>
<event>
 4    1  0.2013882E-005  0.5480811E+03  0.7818608E-02  0.1001939E+00
          2   -1    0    0  501    0  0.00000000000E+00  0.00000000000E+00  0.90497313574E+02  0.90497313610E+02  0.25500000000E-02 0.  1.
         -2   -1    0    0    0  501 -0.00000000000E+00 -0.00000000000E+00 -0.82983914712E+03  0.82983914712E+03  0.25500000000E-02 0. -1.
    5000001    1    1    2    0    0 -0.17397962479E+03 -0.76494187926E+02 -0.29246537842E+03  0.39814603879E+03  0.19200000000E+03 0.  0.
   -5000001    1    1    2    0    0  0.17397962479E+03  0.76494187926E+02 -0.44687645512E+03  0.52219042194E+03  0.19200000000E+03 0.  0.
<mgrwt>
<rscale>  0 0.54808107E+03</rscale>
<asrwt>0</asrwt>
<pdfrwt beam="1">  1        2 0.12928188E-01 0.54808107E+03</pdfrwt>
<pdfrwt beam="2">  1       -2 0.11854845E+00 0.54808107E+03</pdfrwt>
<totfact> 0.26686812E+02</totfact>
</mgrwt>
</event>
<event>
 4    1  0.2013882E-005  0.7777602E+03  0.7818608E-02  0.9592778E-01
         -2   -1    0    0    0  501 -0.00000000000E+00  0.00000000000E+00  0.46796507047E+03  0.46796507048E+03  0.25500000000E-02 0. -1.
          2   -1    0    0  501    0  0.00000000000E+00 -0.00000000000E+00 -0.32316031250E+03  0.32316031251E+03  0.25500000000E-02 0.  1.
    5000001    1    1    2    0    0  0.90001526864E+01  0.29597962800E+03  0.23854562968E+03  0.42597295733E+03  0.19200000000E+03 0.  0.
   -5000001    1    1    2    0    0 -0.90001526864E+01 -0.29597962800E+03 -0.93740871705E+02  0.36515242566E+03  0.19200000000E+03 0.  0.
<mgrwt>
<rscale>  0 0.77776022E+03</rscale>
<asrwt>0</asrwt>
<pdfrwt beam="1">  1        2 0.46165759E-01 0.77776022E+03</pdfrwt>
<pdfrwt beam="2">  1       -2 0.66852153E-01 0.77776022E+03</pdfrwt>
<totfact> 0.22730958E+02</totfact>
</mgrwt>
</event>
<event>
 4    1  0.2013882E-005  0.5043359E+03  0.7818608E-02  0.1012653E+00
         -2   -1    0    0    0  501 -0.00000000000E+00  0.00000000000E+00  0.19807505634E+03  0.19807505636E+03  0.25500000000E-02 0. -1.
          2   -1    0    0  501    0  0.00000000000E+00 -0.00000000000E+00 -0.32103325815E+03  0.32103325816E+03  0.25500000000E-02 0.  1.
    5000001    1    1    2    0    0 -0.11315667132E+03  0.84927949677E+02  0.22819071128E+02  0.23958693393E+03  0.19200000000E+03 0.  0.
   -5000001    1    1    2    0    0  0.11315667132E+03 -0.84927949677E+02 -0.14577727294E+03  0.27952138059E+03  0.19200000000E+03 0.  0.
<mgrwt>
<rscale>  0 0.50433592E+03</rscale>
<asrwt>0</asrwt>
<pdfrwt beam="1">  1        2 0.45861894E-01 0.50433592E+03</pdfrwt>
<pdfrwt beam="2">  1       -2 0.28296437E-01 0.50433592E+03</pdfrwt>
<totfact> 0.12619663E+03</totfact>
</mgrwt>
</event>
<event>
 4    1  0.2013882E-005  0.7166482E+03  0.7818608E-02  0.9689178E-01
         -2   -1    0    0    0  501 -0.00000000000E+00  0.00000000000E+00  0.48359726509E+02  0.48359726576E+02  0.25500000000E-02 0. -1.
          2   -1    0    0  501    0  0.00000000000E+00 -0.00000000000E+00 -0.26550227076E+04  0.26550227076E+04  0.25500000000E-02 0.  1.
    5000001    1    1    2    0    0  0.19331487213E+03 -0.13655670782E+03 -0.59244540610E+03  0.66623864601E+03  0.19200000000E+03 0.  0.
   -5000001    1    1    2    0    0 -0.19331487213E+03  0.13655670782E+03 -0.20142175750E+04  0.20371437882E+04  0.19200000000E+03 0.  0.
<mgrwt>
<rscale>  0 0.71664823E+03</rscale>
<asrwt>0</asrwt>
<pdfrwt beam="1">  1        2 0.37928887E+00 0.71664823E+03</pdfrwt>
<pdfrwt beam="2">  1       -2 0.69085340E-02 0.71664823E+03</pdfrwt>
<totfact> 0.47115146E+02</totfact>
</mgrwt>
</event>
<event>
 4    1  0.2013882E-005  0.4702894E+03  0.7818608E-02  0.1021839E+00
          2   -1    0    0  501    0  0.00000000000E+00  0.00000000000E+00  0.12049003556E+04  0.12049003556E+04  0.25500000000E-02 0. -1.
         -2   -1    0    0    0  501 -0.00000000000E+00 -0.00000000000E+00 -0.45890121661E+02  0.45890121732E+02  0.25500000000E-02 0.  1.
    5000001    1    1    2    0    0  0.12988159937E+03 -0.95344138371E+01  0.68143790340E+03  0.71984842230E+03  0.19200000000E+03 0.  0.
   -5000001    1    1    2    0    0 -0.12988159937E+03  0.95344138371E+01  0.47757233052E+03  0.53094205501E+03  0.19200000000E+03 0.  0.
<mgrwt>
<rscale>  0 0.47028937E+03</rscale>
<asrwt>0</asrwt>
<pdfrwt beam="1">  1        2 0.17212863E+00 0.47028937E+03</pdfrwt>
<pdfrwt beam="2">  1       -2 0.65557312E-02 0.47028937E+03</pdfrwt>
<totfact> 0.28808117E+03</totfact>
</mgrwt>
</event>
<event>
 4    1  0.2013882E-005  0.4557986E+03  0.7818608E-02  0.1026007E+00
          2   -1    0    0  501    0  0.00000000000E+00  0.00000000000E+00  0.14434532014E+04  0.14434532014E+04  0.25500000000E-02 0.  1.
         -2   -1    0    0    0  501 -0.00000000000E+00 -0.00000000000E+00 -0.35981828467E+02  0.35981828557E+02  0.25500000000E-02 0. -1.
    5000001    1    1    2    0    0  0.10539274205E+03 -0.44403986104E+02  0.55876965668E+03  0.60180301867E+03  0.19200000000E+03 0.  0.
   -5000001    1    1    2    0    0 -0.10539274205E+03  0.44403986104E+02  0.84870171621E+03  0.87763201124E+03  0.19200000000E+03 0.  0.
<mgrwt>
<rscale>  0 0.45579858E+03</rscale>
<asrwt>0</asrwt>
<pdfrwt beam="1">  1        2 0.20620762E+00 0.45579858E+03</pdfrwt>
<pdfrwt beam="2">  1       -2 0.51402607E-02 0.45579858E+03</pdfrwt>
<totfact> 0.31319274E+03</totfact>
</mgrwt>
</event>
<event>
 4    1  0.2013882E-005  0.4329845E+03  0.7818608E-02  0.1032921E+00
          2   -1    0    0  501    0  0.00000000000E+00  0.00000000000E+00  0.70450936449E+03  0.70450936449E+03  0.25500000000E-02 0. -1.
         -2   -1    0    0    0  501 -0.00000000000E+00 -0.00000000000E+00 -0.66527014608E+02  0.66527014657E+02  0.25500000000E-02 0.  1.
    5000001    1    1    2    0    0 -0.77292622552E+02 -0.60906178433E+02  0.35090547509E+03  0.41192519287E+03  0.19200000000E+03 0.  0.
   -5000001    1    1    2    0    0  0.77292622552E+02  0.60906178433E+02  0.28707687478E+03  0.35911118628E+03  0.19200000000E+03 0.  0.
<mgrwt>
<rscale>  0 0.43298455E+03</rscale>
<asrwt>0</asrwt>
<pdfrwt beam="1">  1        2 0.10064419E+00 0.43298455E+03</pdfrwt>
<pdfrwt beam="2">  1       -2 0.95038597E-02 0.43298455E+03</pdfrwt>
<totfact> 0.33004194E+03</totfact>
</mgrwt>
</event>
<event>
 4    1  0.2013882E-005  0.5204864E+03  0.7818608E-02  0.1008566E+00
          2   -1    0    0  501    0  0.00000000000E+00  0.00000000000E+00  0.94118579963E+03  0.94118579963E+03  0.25500000000E-02 0.  1.
         -2   -1    0    0    0  501 -0.00000000000E+00 -0.00000000000E+00 -0.71958718904E+02  0.71958718949E+02  0.25500000000E-02 0. -1.
    5000001    1    1    2    0    0  0.16677881456E+03  0.11212253547E+02  0.32939915510E+03  0.41630360435E+03  0.19200000000E+03 0.  0.
   -5000001    1    1    2    0    0 -0.16677881456E+03 -0.11212253547E+02  0.53982792562E+03  0.59684091422E+03  0.19200000000E+03 0.  0.
<mgrwt>
<rscale>  0 0.52048640E+03</rscale>
<asrwt>0</asrwt>
<pdfrwt beam="1">  1        2 0.13445511E+00 0.52048640E+03</pdfrwt>
<pdfrwt beam="2">  1       -2 0.10279817E-01 0.52048640E+03</pdfrwt>
<totfact> 0.20104815E+03</totfact>
</mgrwt>
</event>
<event>
 4    1  0.2013882E-005  0.5372918E+03  0.7818608E-02  0.1004479E+00
         -2   -1    0    0    0  501 -0.00000000000E+00  0.00000000000E+00  0.44951484272E+02  0.44951484344E+02  0.25500000000E-02 0.  1.
          2   -1    0    0  501    0  0.00000000000E+00 -0.00000000000E+00 -0.16055227958E+04  0.16055227958E+04  0.25500000000E-02 0. -1.
    5000001    1    1    2    0    0  0.24704471705E+02 -0.17782739040E+03 -0.95059251843E+03  0.98626721926E+03  0.19200000000E+03 0.  0.
   -5000001    1    1    2    0    0 -0.24704471705E+02  0.17782739040E+03 -0.60997879309E+03  0.66420706088E+03  0.19200000000E+03 0.  0.
<mgrwt>
<rscale>  0 0.53729185E+03</rscale>
<asrwt>0</asrwt>
<pdfrwt beam="1">  1        2 0.22936036E+00 0.53729185E+03</pdfrwt>
<pdfrwt beam="2">  1       -2 0.64216416E-02 0.53729185E+03</pdfrwt>
<totfact> 0.18245873E+03</totfact>
</mgrwt>
</event>
<event>
 4    1  0.2013882E-005  0.8366251E+03  0.7818608E-02  0.9508466E-01
         -2   -1    0    0    0  501 -0.00000000000E+00  0.00000000000E+00  0.94603610222E+03  0.94603610223E+03  0.25500000000E-02 0. -1.
          2   -1    0    0  501    0  0.00000000000E+00 -0.00000000000E+00 -0.18496692874E+03  0.18496692876E+03  0.25500000000E-02 0.  1.
    5000001    1    1    2    0    0  0.52161370222E+02  0.34014637202E+03  0.19078653098E+03  0.43781715744E+03  0.19200000000E+03 0.  0.
   -5000001    1    1    2    0    0 -0.52161370222E+02 -0.34014637202E+03  0.57028264250E+03  0.69318587354E+03  0.19200000000E+03 0.  0.
<mgrwt>
<rscale>  0 0.83662511E+03</rscale>
<asrwt>0</asrwt>
<pdfrwt beam="1">  1        2 0.26423847E-01 0.83662511E+03</pdfrwt>
<pdfrwt beam="2">  1       -2 0.13514802E+00 0.83662511E+03</pdfrwt>
<totfact> 0.81412045E+01</totfact>
</mgrwt>
</event>
<event>
 4    1  0.2013882E-005  0.4767704E+03  0.7818608E-02  0.1020027E+00
          2   -1    0    0  501    0  0.00000000000E+00  0.00000000000E+00  0.76273324670E+03  0.76273324670E+03  0.25500000000E-02 0.  1.
         -2   -1    0    0    0  501 -0.00000000000E+00 -0.00000000000E+00 -0.74505088295E+02  0.74505088339E+02  0.25500000000E-02 0. -1.
    5000001    1    1    2    0    0 -0.92860233896E+02 -0.10055696130E+03  0.40567105799E+03  0.46922034567E+03  0.19200000000E+03 0.  0.
   -5000001    1    1    2    0    0  0.92860233896E+02  0.10055696130E+03  0.28255710042E+03  0.36801798937E+03  0.19200000000E+03 0.  0.
<mgrwt>
<rscale>  0 0.47677042E+03</rscale>
<asrwt>0</asrwt>
<pdfrwt beam="1">  1        2 0.10896189E+00 0.47677042E+03</pdfrwt>
<pdfrwt beam="2">  1       -2 0.10643585E-01 0.47677042E+03</pdfrwt>
<totfact> 0.24963824E+03</totfact>
</mgrwt>
</event>
<event>
 4    1  0.2013882E-005  0.4298754E+03  0.7818608E-02  0.1033899E+00
          2   -1    0    0  501    0  0.00000000000E+00  0.00000000000E+00  0.97464550506E+02  0.97464550539E+02  0.25500000000E-02 0.  1.
         -2   -1    0    0    0  501 -0.00000000000E+00 -0.00000000000E+00 -0.47400025637E+03  0.47400025638E+03  0.25500000000E-02 0. -1.
    5000001    1    1    2    0    0 -0.58893670252E+01  0.60530990033E+02 -0.88471539380E+02  0.21997704125E+03  0.19200000000E+03 0.  0.
   -5000001    1    1    2    0    0  0.58893670252E+01 -0.60530990033E+02 -0.28806416649E+03  0.35148776566E+03  0.19200000000E+03 0.  0.
<mgrwt>
<rscale>  0 0.42987543E+03</rscale>
<asrwt>0</asrwt>
<pdfrwt beam="1">  1        2 0.13923507E-01 0.42987543E+03</pdfrwt>
<pdfrwt beam="2">  1       -2 0.67714321E-01 0.42987543E+03</pdfrwt>
<totfact> 0.88003432E+02</totfact>
</mgrwt>
</event>
<event>
 4    1  0.2013882E-005  0.4234337E+03  0.7818608E-02  0.1035955E+00
          2   -1    0    0  501    0  0.00000000000E+00  0.00000000000E+00  0.19020119897E+04  0.19020119897E+04  0.25500000000E-02 0.  1.
         -2   -1    0    0    0  501 -0.00000000000E+00 -0.00000000000E+00 -0.23566636828E+02  0.23566636965E+02  0.25500000000E-02 0. -1.
    5000001    1    1    2    0    0  0.87477044271E+02 -0.84331804518E+01  0.86926244678E+03  0.89454153240E+03  0.19200000000E+03 0.  0.
   -5000001    1    1    2    0    0 -0.87477044271E+02  0.84331804518E+01  0.10091829061E+04  0.10310370943E+04  0.19200000000E+03 0.  0.
<mgrwt>
<rscale>  0 0.42343371E+03</rscale>
<asrwt>0</asrwt>
<pdfrwt beam="1">  1        2 0.27171596E+00 0.42343371E+03</pdfrwt>
<pdfrwt beam="2">  1       -2 0.33666629E-02 0.42343371E+03</pdfrwt>
<totfact> 0.35067298E+03</totfact>
</mgrwt>
</event>
<event>
 4    1  0.2013882E-005  0.4662180E+03  0.7818608E-02  0.1022993E+00
         -2   -1    0    0    0  501 -0.00000000000E+00  0.00000000000E+00  0.18180627583E+03  0.18180627585E+03  0.25500000000E-02 0. -1.
          2   -1    0    0  501    0  0.00000000000E+00 -0.00000000000E+00 -0.29888849698E+03  0.29888849699E+03  0.25500000000E-02 0.  1.
    5000001    1    1    2    0    0  0.65221248700E+02 -0.85832012606E+02  0.20351909800E+02  0.22113151269E+03  0.19200000000E+03 0.  0.
   -5000001    1    1    2    0    0 -0.65221248700E+02  0.85832012606E+02 -0.13743413096E+03  0.25956326015E+03  0.19200000000E+03 0.  0.
<mgrwt>
<rscale>  0 0.46621799E+03</rscale>
<asrwt>0</asrwt>
<pdfrwt beam="1">  1        2 0.42698357E-01 0.46621799E+03</pdfrwt>
<pdfrwt beam="2">  1       -2 0.25972325E-01 0.46621799E+03</pdfrwt>
<totfact> 0.15932212E+03</totfact>
</mgrwt>
</event>
<event>
 4    1  0.2013882E-005  0.5882877E+03  0.7818608E-02  0.9930008E-01
          2   -1    0    0  501    0  0.00000000000E+00  0.00000000000E+00  0.19724448320E+04  0.19724448320E+04  0.25500000000E-02 0.  1.
         -2   -1    0    0    0  501 -0.00000000000E+00 -0.00000000000E+00 -0.43864647998E+02  0.43864648072E+02  0.25500000000E-02 0. -1.
    5000001    1    1    2    0    0  0.21981041623E+03  0.28647111126E+01  0.10893685416E+04  0.11277910468E+04  0.19200000000E+03 0.  0.
   -5000001    1    1    2    0    0 -0.21981041623E+03 -0.28647111126E+01  0.83921164236E+03  0.88851843330E+03  0.19200000000E+03 0.  0.
<mgrwt>
<rscale>  0 0.58828768E+03</rscale>
<asrwt>0</asrwt>
<pdfrwt beam="1">  1        2 0.28177780E+00 0.58828768E+03</pdfrwt>
<pdfrwt beam="2">  1       -2 0.62663790E-02 0.58828768E+03</pdfrwt>
<totfact> 0.12347933E+03</totfact>
</mgrwt>
</event>
<event>
 4    1  0.2013882E-005  0.4653084E+03  0.7818608E-02  0.1023253E+00
          2   -1    0    0  501    0  0.00000000000E+00  0.00000000000E+00  0.86502539467E+03  0.86502539467E+03  0.25500000000E-02 0.  1.
         -2   -1    0    0    0  501 -0.00000000000E+00 -0.00000000000E+00 -0.62573860212E+02  0.62573860264E+02  0.25500000000E-02 0. -1.
    5000001    1    1    2    0    0  0.10315800051E+03  0.76648484298E+02  0.45572625377E+03  0.51094714168E+03  0.19200000000E+03 0.  0.
   -5000001    1    1    2    0    0 -0.10315800051E+03 -0.76648484298E+02  0.34672528068E+03  0.41665211325E+03  0.19200000000E+03 0.  0.
<mgrwt>
<rscale>  0 0.46530841E+03</rscale>
<asrwt>0</asrwt>
<pdfrwt beam="1">  1        2 0.12357506E+00 0.46530841E+03</pdfrwt>
<pdfrwt beam="2">  1       -2 0.89391227E-02 0.46530841E+03</pdfrwt>
<totfact> 0.28155414E+03</totfact>
</mgrwt>
</event>
<event>
 4    1  0.2013882E-005  0.7156906E+03  0.7818608E-02  0.9690769E-01
          2   -1    0    0  501    0  0.00000000000E+00  0.00000000000E+00  0.24373469230E+04  0.24373469230E+04  0.25500000000E-02 0.  1.
         -2   -1    0    0    0  501 -0.00000000000E+00 -0.00000000000E+00 -0.52537967849E+02  0.52537967911E+02  0.25500000000E-02 0. -1.
    5000001    1    1    2    0    0  0.23698991232E+03 -0.15367241248E+03  0.15640196734E+04  0.16008750631E+04  0.19200000000E+03 0.  0.
   -5000001    1    1    2    0    0 -0.23698991232E+03  0.15367241248E+03  0.82078928178E+03  0.88900982783E+03  0.19200000000E+03 0.  0.
<mgrwt>
<rscale>  0 0.71569059E+03</rscale>
<asrwt>0</asrwt>
<pdfrwt beam="1">  1        2 0.34819247E+00 0.71569059E+03</pdfrwt>
<pdfrwt beam="2">  1       -2 0.75054229E-02 0.71569059E+03</pdfrwt>
<totfact> 0.53558503E+02</totfact>
</mgrwt>
</event>
<event>
 4    1  0.2013882E-005  0.5341599E+03  0.7818608E-02  0.1005228E+00
         -2   -1    0    0    0  501 -0.00000000000E+00  0.00000000000E+00  0.44567725500E+03  0.44567725500E+03  0.25500000000E-02 0. -1.
          2   -1    0    0  501    0  0.00000000000E+00 -0.00000000000E+00 -0.16005234596E+03  0.16005234598E+03  0.25500000000E-02 0.  1.
    5000001    1    1    2    0    0  0.32753393266E+02 -0.12857412513E+03  0.29007173962E+03  0.37230324273E+03  0.19200000000E+03 0.  0.
   -5000001    1    1    2    0    0 -0.32753393266E+02  0.12857412513E+03 -0.44468305811E+01  0.23342635825E+03  0.19200000000E+03 0.  0.
<mgrwt>
<rscale>  0 0.53415986E+03</rscale>
<asrwt>0</asrwt>
<pdfrwt beam="1">  1        2 0.22864621E-01 0.53415986E+03</pdfrwt>
<pdfrwt beam="2">  1       -2 0.63668179E-01 0.53415986E+03</pdfrwt>
<totfact> 0.55885932E+02</totfact>
</mgrwt>
</event>
<event>
 4    1  0.2013882E-005  0.7249364E+03  0.7818608E-02  0.9675513E-01
         -2   -1    0    0    0  501 -0.00000000000E+00  0.00000000000E+00  0.55956734012E+02  0.55956734070E+02  0.25500000000E-02 0. -1.
          2   -1    0    0  501    0  0.00000000000E+00 -0.00000000000E+00 -0.23479426413E+04  0.23479426413E+04  0.25500000000E-02 0.  1.
    5000001    1    1    2    0    0 -0.26817009207E+03 -0.90397175800E+02 -0.15443614241E+04  0.15817721252E+04  0.19200000000E+03 0.  0.
   -5000001    1    1    2    0    0  0.26817009207E+03  0.90397175800E+02 -0.74762448314E+03  0.82212725017E+03  0.19200000000E+03 0.  0.
<mgrwt>
<rscale>  0 0.72493642E+03</rscale>
<asrwt>0</asrwt>
<pdfrwt beam="1">  1        2 0.33542031E+00 0.72493642E+03</pdfrwt>
<pdfrwt beam="2">  1       -2 0.79938206E-02 0.72493642E+03</pdfrwt>
<totfact> 0.53776774E+02</totfact>
</mgrwt>
</event>
<event>
 4    1  0.2013882E-005  0.9728225E+03  0.7818608E-02  0.9338865E-01
         -2   -1    0    0    0  501 -0.00000000000E+00  0.00000000000E+00  0.11418831552E+03  0.11418831555E+03  0.25500000000E-02 0. -1.
          2   -1    0    0  501    0  0.00000000000E+00 -0.00000000000E+00 -0.20719799853E+04  0.20719799853E+04  0.25500000000E-02 0.  1.
    5000001    1    1    2    0    0 -0.29391093914E+03  0.32716006593E+03 -0.80032053943E+03  0.93316360555E+03  0.19200000000E+03 0.  0.
   -5000001    1    1    2    0    0  0.29391093914E+03 -0.32716006593E+03 -0.11574711304E+04  0.12530046953E+04  0.19200000000E+03 0.  0.
<mgrwt>
<rscale>  0 0.97282250E+03</rscale>
<asrwt>0</asrwt>
<pdfrwt beam="1">  1        2 0.29599712E+00 0.97282250E+03</pdfrwt>
<pdfrwt beam="2">  1       -2 0.16312618E-01 0.97282250E+03</pdfrwt>
<totfact> 0.22488175E+02</totfact>
</mgrwt>
</event>
<event>
 4    1  0.2013882E-005  0.4376647E+03  0.7818608E-02  0.1031466E+00
          2   -1    0    0  501    0  0.00000000000E+00  0.00000000000E+00  0.44857103478E+03  0.44857103479E+03  0.25500000000E-02 0. -1.
         -2   -1    0    0    0  501 -0.00000000000E+00 -0.00000000000E+00 -0.10675587409E+03  0.10675587412E+03  0.25500000000E-02 0.  1.
    5000001    1    1    2    0    0  0.39553188250E+02  0.94474970613E+02  0.20021803223E+03  0.29570464184E+03  0.19200000000E+03 0.  0.
   -5000001    1    1    2    0    0 -0.39553188250E+02 -0.94474970613E+02  0.14159712845E+03  0.25962226707E+03  0.19200000000E+03 0.  0.
<mgrwt>
<rscale>  0 0.43766468E+03</rscale>
<asrwt>0</asrwt>
<pdfrwt beam="1">  1        2 0.64081579E-01 0.43766468E+03</pdfrwt>
<pdfrwt beam="2">  1       -2 0.15250839E-01 0.43766468E+03</pdfrwt>
<totfact> 0.25618428E+03</totfact>
</mgrwt>
</event>
<event>
 4    1  0.2013882E-005  0.4843731E+03  0.7818608E-02  0.1017940E+00
          2   -1    0    0  501    0  0.00000000000E+00  0.00000000000E+00  0.61423589858E+02  0.61423589911E+02  0.25500000000E-02 0.  1.
         -2   -1    0    0    0  501 -0.00000000000E+00 -0.00000000000E+00 -0.95491536540E+03  0.95491536540E+03  0.25500000000E-02 0. -1.
    5000001    1    1    2    0    0 -0.11170638280E+03 -0.50945677084E+02 -0.27478419065E+03  0.35699317837E+03  0.19200000000E+03 0.  0.
   -5000001    1    1    2    0    0  0.11170638280E+03  0.50945677084E+02 -0.61870758489E+03  0.65934577694E+03  0.19200000000E+03 0.  0.
<mgrwt>
<rscale>  0 0.48437312E+03</rscale>
<asrwt>0</asrwt>
<pdfrwt beam="1">  1        2 0.87747991E-02 0.48437312E+03</pdfrwt>
<pdfrwt beam="2">  1       -2 0.13641647E+00 0.48437312E+03</pdfrwt>
<totfact> 0.30621070E+02</totfact>
</mgrwt>
</event>
<event>
 4    1  0.2013882E-005  0.7921854E+03  0.7818608E-02  0.9571398E-01
          2   -1    0    0  501    0  0.00000000000E+00  0.00000000000E+00  0.16395317516E+04  0.16395317516E+04  0.25500000000E-02 0.  1.
         -2   -1    0    0    0  501 -0.00000000000E+00 -0.00000000000E+00 -0.95691609230E+02  0.95691609264E+02  0.25500000000E-02 0. -1.
    5000001    1    1    2    0    0  0.84006848401E+02  0.33586475067E+03  0.74394168775E+03  0.84271912053E+03  0.19200000000E+03 0.  0.
   -5000001    1    1    2    0    0 -0.84006848401E+02 -0.33586475067E+03  0.79989845457E+03  0.89250424030E+03  0.19200000000E+03 0.  0.
<mgrwt>
<rscale>  0 0.79218541E+03</rscale>
<asrwt>0</asrwt>
<pdfrwt beam="1">  1        2 0.23421879E+00 0.79218541E+03</pdfrwt>
<pdfrwt beam="2">  1       -2 0.13670232E-01 0.79218541E+03</pdfrwt>
<totfact> 0.51041265E+02</totfact>
</mgrwt>
</event>
<event>
 4    1  0.2013882E-005  0.6614770E+03  0.7818608E-02  0.9785479E-01
          2   -1    0    0  501    0  0.00000000000E+00  0.00000000000E+00  0.89902171797E+02  0.89902171833E+02  0.25500000000E-02 0.  1.
         -2   -1    0    0    0  501 -0.00000000000E+00 -0.00000000000E+00 -0.12167442075E+04  0.12167442075E+04  0.25500000000E-02 0. -1.
    5000001    1    1    2    0    0  0.28287823070E+02  0.26566665052E+03 -0.49658021522E+03  0.59568018289E+03  0.19200000000E+03 0.  0.
   -5000001    1    1    2    0    0 -0.28287823070E+02 -0.26566665052E+03 -0.63026182045E+03  0.71096619642E+03  0.19200000000E+03 0.  0.
<mgrwt>
<rscale>  0 0.66147697E+03</rscale>
<asrwt>0</asrwt>
<pdfrwt beam="1">  1        2 0.12843168E-01 0.66147697E+03</pdfrwt>
<pdfrwt beam="2">  1       -2 0.17382059E+00 0.66147697E+03</pdfrwt>
<totfact> 0.98920968E+01</totfact>
</mgrwt>
</event>
<event>
 4    1  0.2013882E-005  0.8393111E+03  0.7818608E-02  0.9504797E-01
         -2   -1    0    0    0  501 -0.00000000000E+00  0.00000000000E+00  0.11068381944E+03  0.11068381947E+03  0.25500000000E-02 0. -1.
          2   -1    0    0  501    0  0.00000000000E+00 -0.00000000000E+00 -0.15911158912E+04  0.15911158912E+04  0.25500000000E-02 0.  1.
    5000001    1    1    2    0    0  0.12850488947E+03  0.33179787269E+03 -0.51222474547E+03  0.65256534141E+03  0.19200000000E+03 0.  0.
   -5000001    1    1    2    0    0 -0.12850488947E+03 -0.33179787269E+03 -0.96820732624E+03  0.10492343692E+04  0.19200000000E+03 0.  0.
<mgrwt>
<rscale>  0 0.83931111E+03</rscale>
<asrwt>0</asrwt>
<pdfrwt beam="1">  1        2 0.22730226E+00 0.83931111E+03</pdfrwt>
<pdfrwt beam="2">  1       -2 0.15811975E-01 0.83931111E+03</pdfrwt>
<totfact> 0.42179365E+02</totfact>
</mgrwt>
</event>
<event>
 4    1  0.2013882E-005  0.4765306E+03  0.7818608E-02  0.1020093E+00
         -2   -1    0    0    0  501 -0.00000000000E+00  0.00000000000E+00  0.22334366410E+03  0.22334366412E+03  0.25500000000E-02 0. -1.
          2   -1    0    0  501    0  0.00000000000E+00 -0.00000000000E+00 -0.25418382839E+03  0.25418382840E+03  0.25500000000E-02 0.  1.
    5000001    1    1    2    0    0  0.10149384357E+03  0.63086488523E+02 -0.90579938983E+02  0.24361779628E+03  0.19200000000E+03 0.  0.
   -5000001    1    1    2    0    0 -0.10149384357E+03 -0.63086488523E+02  0.59739774695E+02  0.23390969624E+03  0.19200000000E+03 0.  0.
<mgrwt>
<rscale>  0 0.47653058E+03</rscale>
<asrwt>0</asrwt>
<pdfrwt beam="1">  1        2 0.36311975E-01 0.47653058E+03</pdfrwt>
<pdfrwt beam="2">  1       -2 0.31906238E-01 0.47653058E+03</pdfrwt>
<totfact> 0.13075571E+03</totfact>
</mgrwt>
</event>
<event>
 4    1  0.2013882E-005  0.5756613E+03  0.7818608E-02  0.9957229E-01
         -2   -1    0    0    0  501 -0.00000000000E+00  0.00000000000E+00  0.16914532872E+03  0.16914532874E+03  0.25500000000E-02 0. -1.
          2   -1    0    0  501    0  0.00000000000E+00 -0.00000000000E+00 -0.48979465772E+03  0.48979465773E+03  0.25500000000E-02 0.  1.
    5000001    1    1    2    0    0  0.15810546308E+03  0.14477050654E+03 -0.15441643786E+03  0.32659496828E+03  0.19200000000E+03 0.  0.
   -5000001    1    1    2    0    0 -0.15810546308E+03 -0.14477050654E+03 -0.16623289114E+03  0.33234501819E+03  0.19200000000E+03 0.  0.
<mgrwt>
<rscale>  0 0.57566128E+03</rscale>
<asrwt>0</asrwt>
<pdfrwt beam="1">  1        2 0.69970665E-01 0.57566128E+03</pdfrwt>
<pdfrwt beam="2">  1       -2 0.24163619E-01 0.57566128E+03</pdfrwt>
<totfact> 0.10495033E+03</totfact>
</mgrwt>
</event>
<event>
 4    1  0.2013882E-005  0.7119776E+03  0.7818608E-02  0.9696965E-01
          2   -1    0    0  501    0  0.00000000000E+00  0.00000000000E+00  0.16972053363E+03  0.16972053365E+03  0.25500000000E-02 0.  1.
         -2   -1    0    0    0  501 -0.00000000000E+00 -0.00000000000E+00 -0.74668653904E+03  0.74668653904E+03  0.25500000000E-02 0. -1.
    5000001    1    1    2    0    0 -0.14645586873E+03  0.20006665835E+03 -0.71617810554E+02  0.32166613135E+03  0.19200000000E+03 0.  0.
   -5000001    1    1    2    0    0  0.14645586873E+03 -0.20006665835E+03 -0.50534819485E+03  0.59474094134E+03  0.19200000000E+03 0.  0.
<mgrwt>
<rscale>  0 0.71197763E+03</rscale>
<asrwt>0</asrwt>
<pdfrwt beam="1">  1        2 0.24245791E-01 0.71197763E+03</pdfrwt>
<pdfrwt beam="2">  1       -2 0.10666950E+00 0.71197763E+03</pdfrwt>
<totfact> 0.16228373E+02</totfact>
</mgrwt>
</event>
<event>
 4    1  0.2013882E-005  0.7875830E+03  0.7818608E-02  0.9578166E-01
         -2   -1    0    0    0  501 -0.00000000000E+00  0.00000000000E+00  0.92463491250E+02  0.92463491285E+02  0.25500000000E-02 0. -1.
          2   -1    0    0  501    0  0.00000000000E+00 -0.00000000000E+00 -0.16771133333E+04  0.16771133333E+04  0.25500000000E-02 0.  1.
    5000001    1    1    2    0    0  0.20275839358E+03 -0.15435278567E+03 -0.13109130842E+04  0.13491822942E+04  0.19200000000E+03 0.  0.
   -5000001    1    1    2    0    0 -0.20275839358E+03  0.15435278567E+03 -0.27373675791E+03  0.42039453046E+03  0.19200000000E+03 0.  0.
<mgrwt>
<rscale>  0 0.78758302E+03</rscale>
<asrwt>0</asrwt>
<pdfrwt beam="1">  1        2 0.23958760E+00 0.78758302E+03</pdfrwt>
<pdfrwt beam="2">  1       -2 0.13209071E-01 0.78758302E+03</pdfrwt>
<totfact> 0.51712937E+02</totfact>
</mgrwt>
</event>
<event>
 4    1  0.2013882E-005  0.9593808E+03  0.7818608E-02  0.9354253E-01
          2   -1    0    0  501    0  0.00000000000E+00  0.00000000000E+00  0.74170734137E+03  0.74170734138E+03  0.25500000000E-02 0. -1.
         -2   -1    0    0    0  501 -0.00000000000E+00 -0.00000000000E+00 -0.31023403882E+03  0.31023403883E+03  0.25500000000E-02 0.  1.
    5000001    1    1    2    0    0  0.11701355361E+03 -0.39959592835E+03  0.61176643353E+02  0.46257503107E+03  0.19200000000E+03 0.  0.
   -5000001    1    1    2    0    0 -0.11701355361E+03  0.39959592835E+03  0.37029665920E+03  0.58936634914E+03  0.19200000000E+03 0.  0.
<mgrwt>
<rscale>  0 0.95938077E+03</rscale>
<asrwt>0</asrwt>
<pdfrwt beam="1">  1        2 0.10595819E+00 0.95938077E+03</pdfrwt>
<pdfrwt beam="2">  1       -2 0.44319149E-01 0.95938077E+03</pdfrwt>
<totfact> 0.20202941E+02</totfact>
</mgrwt>
</event>
<event>
 4    1  0.2013882E-005  0.4354128E+03  0.7818608E-02  0.1032164E+00
          2   -1    0    0  501    0  0.00000000000E+00  0.00000000000E+00  0.22759184424E+04  0.22759184424E+04  0.25500000000E-02 0. -1.
         -2   -1    0    0    0  501 -0.00000000000E+00 -0.00000000000E+00 -0.20825037264E+02  0.20825037420E+02  0.25500000000E-02 0.  1.
    5000001    1    1    2    0    0 -0.62260389226E+02  0.57105155060E+02  0.14348830926E+04  0.14501347677E+04  0.19200000000E+03 0.  0.
   -5000001    1    1    2    0    0  0.62260389226E+02 -0.57105155060E+02  0.82021031251E+03  0.84660871218E+03  0.19200000000E+03 0.  0.
<mgrwt>
<rscale>  0 0.43541285E+03</rscale>
<asrwt>0</asrwt>
<pdfrwt beam="1">  1        2 0.32513083E+00 0.43541285E+03</pdfrwt>
<pdfrwt beam="2">  1       -2 0.29750088E-02 0.43541285E+03</pdfrwt>
<totfact> 0.27546234E+03</totfact>
</mgrwt>
</event>
<event>
 4    1  0.2013882E-005  0.5425776E+03  0.7818608E-02  0.1003227E+00
         -2   -1    0    0    0  501 -0.00000000000E+00  0.00000000000E+00  0.30247794772E+02  0.30247794879E+02  0.25500000000E-02 0. -1.
          2   -1    0    0  501    0  0.00000000000E+00 -0.00000000000E+00 -0.24331562535E+04  0.24331562535E+04  0.25500000000E-02 0.  1.
    5000001    1    1    2    0    0 -0.16379000849E+03  0.54971444393E+02 -0.82473944439E+03  0.86423849585E+03  0.19200000000E+03 0.  0.
   -5000001    1    1    2    0    0  0.16379000849E+03 -0.54971444393E+02 -0.15781690143E+04  0.15991655525E+04  0.19200000000E+03 0.  0.
<mgrwt>
<rscale>  0 0.54257759E+03</rscale>
<asrwt>0</asrwt>
<pdfrwt beam="1">  1        2 0.34759363E+00 0.54257759E+03</pdfrwt>
<pdfrwt beam="2">  1       -2 0.43211151E-02 0.54257759E+03</pdfrwt>
<totfact> 0.12923615E+03</totfact>
</mgrwt>
</event>
<event>
 4    1  0.2013882E-005  0.6354444E+03  0.7818608E-02  0.9834482E-01
         -2   -1    0    0    0  501 -0.00000000000E+00  0.00000000000E+00  0.33860662138E+03  0.33860662139E+03  0.25500000000E-02 0. -1.
          2   -1    0    0  501    0  0.00000000000E+00 -0.00000000000E+00 -0.29812589170E+03  0.29812589171E+03  0.25500000000E-02 0.  1.
    5000001    1    1    2    0    0  0.22858609581E+03 -0.49839080156E+02  0.11712070361E+03  0.32452549410E+03  0.19200000000E+03 0.  0.
   -5000001    1    1    2    0    0 -0.22858609581E+03  0.49839080156E+02 -0.76639973924E+02  0.31220701900E+03  0.19200000000E+03 0.  0.
<mgrwt>
<rscale>  0 0.63544441E+03</rscale>
<asrwt>0</asrwt>
<pdfrwt beam="1">  1        2 0.42589413E-01 0.63544441E+03</pdfrwt>
<pdfrwt beam="2">  1       -2 0.48372374E-01 0.63544441E+03</pdfrwt>
<totfact> 0.48998106E+02</totfact>
</mgrwt>
</event>
<event>
 4    1  0.2013882E-005  0.4767023E+03  0.7818608E-02  0.1020045E+00
         -2   -1    0    0    0  501 -0.00000000000E+00  0.00000000000E+00  0.96289233225E+02  0.96289233259E+02  0.25500000000E-02 0. -1.
          2   -1    0    0  501    0  0.00000000000E+00 -0.00000000000E+00 -0.59000656365E+03  0.59000656366E+03  0.25500000000E-02 0.  1.
    5000001    1    1    2    0    0  0.12887603192E+03 -0.57437668064E+02 -0.23784921678E+03  0.33666655201E+03  0.19200000000E+03 0.  0.
   -5000001    1    1    2    0    0 -0.12887603192E+03  0.57437668064E+02 -0.25586811365E+03  0.34962924491E+03  0.19200000000E+03 0.  0.
<mgrwt>
<rscale>  0 0.47670234E+03</rscale>
<asrwt>0</asrwt>
<pdfrwt beam="1">  1        2 0.84286650E-01 0.47670234E+03</pdfrwt>
<pdfrwt beam="2">  1       -2 0.13755605E-01 0.47670234E+03</pdfrwt>
<totfact> 0.22317434E+03</totfact>
</mgrwt>
</event>
<event>
 4    1  0.2013882E-005  0.4935191E+03  0.7818608E-02  0.1015484E+00
          2   -1    0    0  501    0  0.00000000000E+00  0.00000000000E+00  0.15224646456E+03  0.15224646458E+03  0.25500000000E-02 0.  1.
         -2   -1    0    0    0  501 -0.00000000000E+00 -0.00000000000E+00 -0.39994547241E+03  0.39994547242E+03  0.25500000000E-02 0. -1.
    5000001    1    1    2    0    0 -0.53506497564E+02 -0.13652938147E+03 -0.67647674946E+02  0.25088528297E+03  0.19200000000E+03 0.  0.
   -5000001    1    1    2    0    0  0.53506497564E+02  0.13652938147E+03 -0.18005133290E+03  0.30130665403E+03  0.19200000000E+03 0.  0.
<mgrwt>
<rscale>  0 0.49351914E+03</rscale>
<asrwt>0</asrwt>
<pdfrwt beam="1">  1        2 0.21749495E-01 0.49351914E+03</pdfrwt>
<pdfrwt beam="2">  1       -2 0.57135067E-01 0.49351914E+03</pdfrwt>
<totfact> 0.74325471E+02</totfact>
</mgrwt>
</event>
<event>
 4    1  0.2013882E-005  0.4434374E+03  0.7818608E-02  0.1029697E+00
         -2   -1    0    0    0  501 -0.00000000000E+00  0.00000000000E+00  0.37832908183E+03  0.37832908184E+03  0.25500000000E-02 0. -1.
          2   -1    0    0  501    0  0.00000000000E+00 -0.00000000000E+00 -0.12993759813E+03  0.12993759815E+03  0.25500000000E-02 0.  1.
    5000001    1    1    2    0    0 -0.11027463691E+03 -0.11602858250E+02  0.12445290314E+03  0.25425901551E+03  0.19200000000E+03 0.  0.
   -5000001    1    1    2    0    0  0.11027463691E+03  0.11602858250E+02  0.12393858056E+03  0.25400766448E+03  0.19200000000E+03 0.  0.
<mgrwt>
<rscale>  0 0.44343736E+03</rscale>
<asrwt>0</asrwt>
<pdfrwt beam="1">  1        2 0.18562514E-01 0.44343736E+03</pdfrwt>
<pdfrwt beam="2">  1       -2 0.54047012E-01 0.44343736E+03</pdfrwt>
<totfact> 0.10017687E+03</totfact>
</mgrwt>
</event>
<event>
 4    1  0.2013882E-005  0.9373681E+03  0.7818608E-02  0.9380038E-01
         -2   -1    0    0    0  501 -0.00000000000E+00  0.00000000000E+00  0.86660290376E+02  0.86660290413E+02  0.25500000000E-02 0. -1.
          2   -1    0    0  501    0  0.00000000000E+00 -0.00000000000E+00 -0.25347795132E+04  0.25347795132E+04  0.25500000000E-02 0.  1.
    5000001    1    1    2    0    0  0.33242081113E+03  0.20178708900E+03 -0.72709023326E+03  0.84660842912E+03  0.19200000000E+03 0.  0.
   -5000001    1    1    2    0    0 -0.33242081113E+03 -0.20178708900E+03 -0.17210289896E+04  0.17748313745E+04  0.19200000000E+03 0.  0.
<mgrwt>
<rscale>  0 0.93736808E+03</rscale>
<asrwt>0</asrwt>
<pdfrwt beam="1">  1        2 0.36211131E+00 0.93736808E+03</pdfrwt>
<pdfrwt beam="2">  1       -2 0.12380043E-01 0.93736808E+03</pdfrwt>
<totfact> 0.20764176E+02</totfact>
</mgrwt>
</event>
<event>
 4    1  0.2013882E-005  0.4816914E+03  0.7818608E-02  0.1018671E+00
          2   -1    0    0  501    0  0.00000000000E+00  0.00000000000E+00  0.60429324008E+02  0.60429324062E+02  0.25500000000E-02 0.  1.
         -2   -1    0    0    0  501 -0.00000000000E+00 -0.00000000000E+00 -0.95990894771E+03  0.95990894771E+03  0.25500000000E-02 0. -1.
    5000001    1    1    2    0    0  0.14414773013E+03 -0.34890603260E-01 -0.40932194174E+03  0.47453874585E+03  0.19200000000E+03 0.  0.
   -5000001    1    1    2    0    0 -0.14414773013E+03  0.34890603260E-01 -0.49015768196E+03  0.54579952593E+03  0.19200000000E+03 0.  0.
<mgrwt>
<rscale>  0 0.48169139E+03</rscale>
<asrwt>0</asrwt>
<pdfrwt beam="1">  1        2 0.86327612E-02 0.48169139E+03</pdfrwt>
<pdfrwt beam="2">  1       -2 0.13712984E+00 0.48169139E+03</pdfrwt>
<totfact> 0.30857246E+02</totfact>
</mgrwt>
</event>
<event>
 4    1  0.2013882E-005  0.5293092E+03  0.7818608E-02  0.1006400E+00
         -2   -1    0    0    0  501 -0.00000000000E+00  0.00000000000E+00  0.11886165742E+03  0.11886165745E+03  0.25500000000E-02 0. -1.
          2   -1    0    0  501    0  0.00000000000E+00 -0.00000000000E+00 -0.58927379998E+03  0.58927379998E+03  0.25500000000E-02 0.  1.
    5000001    1    1    2    0    0 -0.17146075174E+03 -0.35229317460E+02 -0.16780497980E+03  0.30929339702E+03  0.19200000000E+03 0.  0.
   -5000001    1    1    2    0    0  0.17146075174E+03  0.35229317460E+02 -0.30260716276E+03  0.39884206041E+03  0.19200000000E+03 0.  0.
<mgrwt>
<rscale>  0 0.52930921E+03</rscale>
<asrwt>0</asrwt>
<pdfrwt beam="1">  1        2 0.84181970E-01 0.52930921E+03</pdfrwt>
<pdfrwt beam="2">  1       -2 0.16980237E-01 0.52930921E+03</pdfrwt>
<totfact> 0.15693619E+03</totfact>
</mgrwt>
</event>
<event>
 4    1  0.2013882E-005  0.4929438E+03  0.7818608E-02  0.1015637E+00
         -2   -1    0    0    0  501 -0.00000000000E+00  0.00000000000E+00  0.26850960214E+02  0.26850960335E+02  0.25500000000E-02 0. -1.
          2   -1    0    0  501    0  0.00000000000E+00 -0.00000000000E+00 -0.22624294886E+04  0.22624294886E+04  0.25500000000E-02 0.  1.
    5000001    1    1    2    0    0  0.71494613036E+02 -0.82030735857E+02 -0.16274542874E+04  0.16423495301E+04  0.19200000000E+03 0.  0.
   -5000001    1    1    2    0    0 -0.71494613036E+02  0.82030735857E+02 -0.60812424096E+03  0.64693091885E+03  0.19200000000E+03 0.  0.
<mgrwt>
<rscale>  0 0.49294383E+03</rscale>
<asrwt>0</asrwt>
<pdfrwt beam="1">  1        2 0.32320409E+00 0.49294383E+03</pdfrwt>
<pdfrwt beam="2">  1       -2 0.38358529E-02 0.49294383E+03</pdfrwt>
<totfact> 0.18973534E+03</totfact>
</mgrwt>
</event>
<event>
 4    1  0.2013882E-005  0.4716133E+03  0.7818608E-02  0.1021466E+00
          2   -1    0    0  501    0  0.00000000000E+00  0.00000000000E+00  0.41226740526E+04  0.41226740526E+04  0.25500000000E-02 0.  1.
         -2   -1    0    0    0  501 -0.00000000000E+00 -0.00000000000E+00 -0.13487549974E+02  0.13487550215E+02  0.25500000000E-02 0. -1.
    5000001    1    1    2    0    0  0.10217635117E+03  0.83335001829E+02  0.17316335872E+04  0.17472274064E+04  0.19200000000E+03 0.  0.
   -5000001    1    1    2    0    0 -0.10217635117E+03 -0.83335001829E+02  0.23775529154E+04  0.23889341964E+04  0.19200000000E+03 0.  0.
<mgrwt>
<rscale>  0 0.47161329E+03</rscale>
<asrwt>0</asrwt>
<pdfrwt beam="1">  1        2 0.58895392E+00 0.47161329E+03</pdfrwt>
<pdfrwt beam="2">  1       -2 0.19267913E-02 0.47161329E+03</pdfrwt>
<totfact> 0.46991397E+02</totfact>
</mgrwt>
</event>
<event>
 4    1  0.2013882E-005  0.5376416E+03  0.7818608E-02  0.1004396E+00
          2   -1    0    0  501    0  0.00000000000E+00  0.00000000000E+00  0.14393098386E+04  0.14393098386E+04  0.25500000000E-02 0.  1.
         -2   -1    0    0    0  501 -0.00000000000E+00 -0.00000000000E+00 -0.50207821813E+02  0.50207821877E+02  0.25500000000E-02 0. -1.
    5000001    1    1    2    0    0  0.58373331401E+01  0.16366115457E+03  0.95119792211E+03  0.98410392490E+03  0.19200000000E+03 0.  0.
   -5000001    1    1    2    0    0 -0.58373331401E+01 -0.16366115457E+03  0.43790409462E+03  0.50541373553E+03  0.19200000000E+03 0.  0.
<mgrwt>
<rscale>  0 0.53764156E+03</rscale>
<asrwt>0</asrwt>
<pdfrwt beam="1">  1        2 0.20561568E+00 0.53764156E+03</pdfrwt>
<pdfrwt beam="2">  1       -2 0.71725465E-02 0.53764156E+03</pdfrwt>
<totfact> 0.18690445E+03</totfact>
</mgrwt>
</event>
<event>
 4    1  0.2013882E-005  0.5739523E+03  0.7818608E-02  0.9960971E-01
          2   -1    0    0  501    0  0.00000000000E+00  0.00000000000E+00  0.14657144208E+04  0.14657144208E+04  0.25500000000E-02 0.  1.
         -2   -1    0    0    0  501 -0.00000000000E+00 -0.00000000000E+00 -0.56187832454E+02  0.56187832512E+02  0.25500000000E-02 0. -1.
    5000001    1    1    2    0    0 -0.96037207561E+02 -0.17888196968E+03  0.53150462289E+03  0.60048569381E+03  0.19200000000E+03 0.  0.
   -5000001    1    1    2    0    0  0.96037207561E+02  0.17888196968E+03  0.87802196548E+03  0.92141655953E+03  0.19200000000E+03 0.  0.
<mgrwt>
<rscale>  0 0.57395232E+03</rscale>
<asrwt>0</asrwt>
<pdfrwt beam="1">  1        2 0.20938778E+00 0.57395232E+03</pdfrwt>
<pdfrwt beam="2">  1       -2 0.80268332E-02 0.57395232E+03</pdfrwt>
<totfact> 0.15130124E+03</totfact>
</mgrwt>
</event>
<event>
 4    1  0.2013882E-005  0.5504664E+03  0.7818608E-02  0.1001386E+00
         -2   -1    0    0    0  501 -0.00000000000E+00  0.00000000000E+00  0.19031716948E+02  0.19031717119E+02  0.25500000000E-02 0. -1.
          2   -1    0    0  501    0  0.00000000000E+00 -0.00000000000E+00 -0.39803721722E+04  0.39803721722E+04  0.25500000000E-02 0.  1.
    5000001    1    1    2    0    0  0.35189407790E+02  0.17618232285E+03 -0.13899364128E+04  0.14145903071E+04  0.19200000000E+03 0.  0.
   -5000001    1    1    2    0    0 -0.35189407790E+02 -0.17618232285E+03 -0.25714040425E+04  0.25848135822E+04  0.19200000000E+03 0.  0.
<mgrwt>
<rscale>  0 0.55046641E+03</rscale>
<asrwt>0</asrwt>
<pdfrwt beam="1">  1        2 0.56862407E+00 0.55046641E+03</pdfrwt>
<pdfrwt beam="2">  1       -2 0.27188193E-02 0.55046641E+03</pdfrwt>
<totfact> 0.34502752E+02</totfact>
</mgrwt>
</event>
<event>
 4    1  0.2013882E-005  0.6146580E+03  0.7818608E-02  0.9875453E-01
         -2   -1    0    0    0  501 -0.00000000000E+00  0.00000000000E+00  0.52198407184E+02  0.52198407246E+02  0.25500000000E-02 0. -1.
          2   -1    0    0  501    0  0.00000000000E+00 -0.00000000000E+00 -0.18094638197E+04  0.18094638197E+04  0.25500000000E-02 0.  1.
    5000001    1    1    2    0    0 -0.16845993086E+03  0.72739256641E+02 -0.41022489404E+03  0.48869030219E+03  0.19200000000E+03 0.  0.
   -5000001    1    1    2    0    0  0.16845993086E+03 -0.72739256641E+02 -0.13470405185E+04  0.13729719248E+04  0.19200000000E+03 0.  0.
<mgrwt>
<rscale>  0 0.61465805E+03</rscale>
<asrwt>0</asrwt>
<pdfrwt beam="1">  1        2 0.25849479E+00 0.61465805E+03</pdfrwt>
<pdfrwt beam="2">  1       -2 0.74569164E-02 0.61465805E+03</pdfrwt>
<totfact> 0.11319418E+03</totfact>
</mgrwt>
</event>
<event>
 4    1  0.2013882E-005  0.7981397E+03  0.7818608E-02  0.9562714E-01
          2   -1    0    0  501    0  0.00000000000E+00  0.00000000000E+00  0.13484509979E+04  0.13484509979E+04  0.25500000000E-02 0.  1.
         -2   -1    0    0    0  501 -0.00000000000E+00 -0.00000000000E+00 -0.11810345863E+03  0.11810345866E+03  0.25500000000E-02 0. -1.
    5000001    1    1    2    0    0  0.19863906475E+02 -0.23742619430E+03  0.10858913623E+04  0.11281798719E+04  0.19200000000E+03 0.  0.
   -5000001    1    1    2    0    0 -0.19863906475E+02  0.23742619430E+03  0.14445617697E+03  0.33837458472E+03  0.19200000000E+03 0.  0.
<mgrwt>
<rscale>  0 0.79813965E+03</rscale>
<asrwt>0</asrwt>
<pdfrwt beam="1">  1        2 0.19263586E+00 0.79813965E+03</pdfrwt>
<pdfrwt beam="2">  1       -2 0.16871922E-01 0.79813965E+03</pdfrwt>
<totfact> 0.50875949E+02</totfact>
</mgrwt>
</event>
<event>
 4    1  0.2013882E-005  0.4641570E+03  0.7818608E-02  0.1023582E+00
         -2   -1    0    0    0  501 -0.00000000000E+00  0.00000000000E+00  0.14646454367E+03  0.14646454370E+03  0.25500000000E-02 0. -1.
          2   -1    0    0  501    0  0.00000000000E+00 -0.00000000000E+00 -0.36773705869E+03  0.36773705869E+03  0.25500000000E-02 0.  1.
    5000001    1    1    2    0    0  0.48738923074E+02  0.95571754504E+02 -0.19269707997E+03  0.29241341883E+03  0.19200000000E+03 0.  0.
   -5000001    1    1    2    0    0 -0.48738923074E+02 -0.95571754504E+02 -0.28575435045E+02  0.22178818357E+03  0.19200000000E+03 0.  0.
<mgrwt>
<rscale>  0 0.46415704E+03</rscale>
<asrwt>0</asrwt>
<pdfrwt beam="1">  1        2 0.52533865E-01 0.46415704E+03</pdfrwt>
<pdfrwt beam="2">  1       -2 0.20923506E-01 0.46415704E+03</pdfrwt>
<totfact> 0.18604022E+03</totfact>
</mgrwt>
</event>
<event>
 4    1  0.2013882E-005  0.1378676E+04  0.7818608E-02  0.8969401E-01
          2   -1    0    0  501    0  0.00000000000E+00  0.00000000000E+00  0.32855813923E+04  0.32855813923E+04  0.25500000000E-02 0.  1.
         -2   -1    0    0    0  501 -0.00000000000E+00 -0.00000000000E+00 -0.14462784730E+03  0.14462784733E+03  0.25500000000E-02 0. -1.
    5000001    1    1    2    0    0 -0.50906889578E+03  0.21789198177E+02  0.26222370175E+04  0.26781741702E+04  0.19200000000E+03 0.  0.
   -5000001    1    1    2    0    0  0.50906889578E+03 -0.21789198177E+02  0.51871652753E+03  0.75203506949E+03  0.19200000000E+03 0.  0.
<mgrwt>
<rscale>  0 0.13786755E+04</rscale>
<asrwt>0</asrwt>
<pdfrwt beam="1">  1        2 0.46936876E+00 0.13786755E+04</pdfrwt>
<pdfrwt beam="2">  1       -2 0.20661122E-01 0.13786755E+04</pdfrwt>
<totfact> 0.32182044E+01</totfact>
</mgrwt>
</event>
<event>
 4    1  0.2013882E-005  0.5914350E+03  0.7818608E-02  0.9923337E-01
         -2   -1    0    0    0  501 -0.00000000000E+00  0.00000000000E+00  0.18390504408E+03  0.18390504410E+03  0.25500000000E-02 0. -1.
          2   -1    0    0  501    0  0.00000000000E+00 -0.00000000000E+00 -0.47551076294E+03  0.47551076295E+03  0.25500000000E-02 0.  1.
    5000001    1    1    2    0    0  0.32201892617E+02 -0.22187923443E+03 -0.12593712730E+03  0.32092291379E+03  0.19200000000E+03 0.  0.
   -5000001    1    1    2    0    0 -0.32201892617E+02  0.22187923443E+03 -0.16566859156E+03  0.33849289326E+03  0.19200000000E+03 0.  0.
<mgrwt>
<rscale>  0 0.59143496E+03</rscale>
<asrwt>0</asrwt>
<pdfrwt beam="1">  1        2 0.67930109E-01 0.59143496E+03</pdfrwt>
<pdfrwt beam="2">  1       -2 0.26272149E-01 0.59143496E+03</pdfrwt>
<totfact> 0.93366363E+02</totfact>
</mgrwt>
</event>
<event>
 4    1  0.2013882E-005  0.4882999E+03  0.7818608E-02  0.1016879E+00
          2   -1    0    0  501    0  0.00000000000E+00  0.00000000000E+00  0.97994846002E+03  0.97994846002E+03  0.25500000000E-02 0.  1.
         -2   -1    0    0    0  501 -0.00000000000E+00 -0.00000000000E+00 -0.60828915410E+02  0.60828915464E+02  0.25500000000E-02 0. -1.
    5000001    1    1    2    0    0 -0.14751909925E+03  0.19510074017E+02  0.40723437220E+03  0.47417967220E+03  0.19200000000E+03 0.  0.
   -5000001    1    1    2    0    0  0.14751909925E+03 -0.19510074017E+02  0.51188517241E+03  0.56659770328E+03  0.19200000000E+03 0.  0.
<mgrwt>
<rscale>  0 0.48829992E+03</rscale>
<asrwt>0</asrwt>
<pdfrwt beam="1">  1        2 0.13999264E+00 0.48829992E+03</pdfrwt>
<pdfrwt beam="2">  1       -2 0.86898446E-02 0.48829992E+03</pdfrwt>
<totfact> 0.24925945E+03</totfact>
</mgrwt>
</event>
<event>
 4    1  0.2013882E-005  0.7476487E+03  0.7818608E-02  0.9639046E-01
          2   -1    0    0  501    0  0.00000000000E+00  0.00000000000E+00  0.11264342684E+04  0.11264342684E+04  0.25500000000E-02 0.  1.
         -2   -1    0    0    0  501 -0.00000000000E+00 -0.00000000000E+00 -0.12405928663E+03  0.12405928665E+03  0.25500000000E-02 0. -1.
    5000001    1    1    2    0    0  0.28403015504E+03  0.27871502446E+02  0.25633648476E+03  0.42897825474E+03  0.19200000000E+03 0.  0.
   -5000001    1    1    2    0    0 -0.28403015504E+03 -0.27871502446E+02  0.74603849701E+03  0.82151530030E+03  0.19200000000E+03 0.  0.
<mgrwt>
<rscale>  0 0.74764867E+03</rscale>
<asrwt>0</asrwt>
<pdfrwt beam="1">  1        2 0.16091919E+00 0.74764867E+03</pdfrwt>
<pdfrwt beam="2">  1       -2 0.17722754E-01 0.74764867E+03</pdfrwt>
<totfact> 0.62367653E+02</totfact>
</mgrwt>
</event>
<event>
 4    1  0.2013882E-005  0.5019293E+03  0.7818608E-02  0.1013277E+00
          2   -1    0    0  501    0  0.00000000000E+00  0.00000000000E+00  0.13733415842E+03  0.13733415844E+03  0.25500000000E-02 0.  1.
         -2   -1    0    0    0  501 -0.00000000000E+00 -0.00000000000E+00 -0.45861315266E+03  0.45861315267E+03  0.25500000000E-02 0. -1.
    5000001    1    1    2    0    0 -0.10910039579E+03 -0.61549582776E+02 -0.39393915119E+02  0.23260938943E+03  0.19200000000E+03 0.  0.
   -5000001    1    1    2    0    0  0.10910039579E+03  0.61549582776E+02 -0.28188507912E+03  0.36333792169E+03  0.19200000000E+03 0.  0.
<mgrwt>
<rscale>  0 0.50192928E+03</rscale>
<asrwt>0</asrwt>
<pdfrwt beam="1">  1        2 0.19619166E-01 0.50192928E+03</pdfrwt>
<pdfrwt beam="2">  1       -2 0.65516164E-01 0.50192928E+03</pdfrwt>
<totfact> 0.62808816E+02</totfact>
</mgrwt>
</event>
<event>
 4    1  0.2013882E-005  0.9157547E+03  0.7818608E-02  0.9406099E-01
         -2   -1    0    0    0  501 -0.00000000000E+00  0.00000000000E+00  0.78897779361E+03  0.78897779361E+03  0.25500000000E-02 0. -1.
          2   -1    0    0  501    0  0.00000000000E+00 -0.00000000000E+00 -0.26572569690E+03  0.26572569691E+03  0.25500000000E-02 0.  1.
    5000001    1    1    2    0    0 -0.12881724296E+03  0.30330872035E+03 -0.30190998135E+02  0.38257751933E+03  0.19200000000E+03 0.  0.
   -5000001    1    1    2    0    0  0.12881724296E+03 -0.30330872035E+03  0.55344309484E+03  0.67212597120E+03  0.19200000000E+03 0.  0.
<mgrwt>
<rscale>  0 0.91575471E+03</rscale>
<asrwt>0</asrwt>
<pdfrwt beam="1">  1        2 0.37960814E-01 0.91575471E+03</pdfrwt>
<pdfrwt beam="2">  1       -2 0.11271111E+00 0.91575471E+03</pdfrwt>
<totfact> 0.84791558E+01</totfact>
</mgrwt>
</event>
<event>
 4    1  0.2013882E-005  0.4203474E+03  0.7818608E-02  0.1036953E+00
          2   -1    0    0  501    0  0.00000000000E+00  0.00000000000E+00  0.15159260748E+04  0.15159260748E+04  0.25500000000E-02 0.  1.
         -2   -1    0    0    0  501 -0.00000000000E+00 -0.00000000000E+00 -0.29139275825E+02  0.29139275937E+02  0.25500000000E-02 0. -1.
    5000001    1    1    2    0    0 -0.56341508442E+02  0.57269424682E+02  0.85086154436E+03  0.87594721316E+03  0.19200000000E+03 0.  0.
   -5000001    1    1    2    0    0  0.56341508442E+02 -0.57269424682E+02  0.63592525462E+03  0.66911813758E+03  0.19200000000E+03 0.  0.
<mgrwt>
<rscale>  0 0.42034742E+03</rscale>
<asrwt>0</asrwt>
<pdfrwt beam="1">  1        2 0.21656088E+00 0.42034742E+03</pdfrwt>
<pdfrwt beam="2">  1       -2 0.41627534E-02 0.42034742E+03</pdfrwt>
<totfact> 0.39713493E+03</totfact>
</mgrwt>
</event>
<event>
 4    1  0.2013882E-005  0.1171770E+04  0.7818608E-02  0.9137931E-01
         -2   -1    0    0    0  501 -0.00000000000E+00  0.00000000000E+00  0.11795066832E+03  0.11795066835E+03  0.25500000000E-02 0. -1.
          2   -1    0    0  501    0  0.00000000000E+00 -0.00000000000E+00 -0.29102124541E+04  0.29102124541E+04  0.25500000000E-02 0.  1.
    5000001    1    1    2    0    0  0.53538582027E+03  0.20913356792E+02 -0.17553542317E+04  0.18453205206E+04  0.19200000000E+03 0.  0.
   -5000001    1    1    2    0    0 -0.53538582027E+03 -0.20913356792E+02 -0.10369075541E+04  0.11828426018E+04  0.19200000000E+03 0.  0.
<mgrwt>
<rscale>  0 0.11717705E+04</rscale>
<asrwt>0</asrwt>
<pdfrwt beam="1">  1        2 0.41574459E+00 0.11717705E+04</pdfrwt>
<pdfrwt beam="2">  1       -2 0.16850097E-01 0.11717705E+04</pdfrwt>
<totfact> 0.76175802E+01</totfact>
</mgrwt>
</event>
<event>
 4    1  0.2013882E-005  0.6832970E+03  0.7818608E-02  0.9746231E-01
         -2   -1    0    0    0  501 -0.00000000000E+00  0.00000000000E+00  0.38165186561E+03  0.38165186562E+03  0.25500000000E-02 0. -1.
          2   -1    0    0  501    0  0.00000000000E+00 -0.00000000000E+00 -0.30583813247E+03  0.30583813248E+03  0.25500000000E-02 0.  1.
    5000001    1    1    2    0    0 -0.16281271195E+03  0.23072837492E+03  0.27064296947E+02  0.34254932248E+03  0.19200000000E+03 0.  0.
   -5000001    1    1    2    0    0  0.16281271195E+03 -0.23072837492E+03  0.48749436194E+02  0.34494067562E+03  0.19200000000E+03 0.  0.
<mgrwt>
<rscale>  0 0.68329699E+03</rscale>
<asrwt>0</asrwt>
<pdfrwt beam="1">  1        2 0.43691162E-01 0.68329699E+03</pdfrwt>
<pdfrwt beam="2">  1       -2 0.54521695E-01 0.68329699E+03</pdfrwt>
<totfact> 0.37273042E+02</totfact>
</mgrwt>
</event>
<event>
 4    1  0.2013882E-005  0.5119371E+03  0.7818608E-02  0.1010709E+00
         -2   -1    0    0    0  501 -0.00000000000E+00  0.00000000000E+00  0.24431577344E+02  0.24431577477E+02  0.25500000000E-02 0. -1.
          2   -1    0    0  501    0  0.00000000000E+00 -0.00000000000E+00 -0.26817709630E+04  0.26817709630E+04  0.25500000000E-02 0.  1.
    5000001    1    1    2    0    0  0.17510372804E+01 -0.11003458187E+03 -0.20086243817E+04  0.20207787068E+04  0.19200000000E+03 0.  0.
   -5000001    1    1    2    0    0 -0.17510372804E+01  0.11003458187E+03 -0.64871500400E+03  0.68542383366E+03  0.19200000000E+03 0.  0.
<mgrwt>
<rscale>  0 0.51193709E+03</rscale>
<asrwt>0</asrwt>
<pdfrwt beam="1">  1        2 0.38310995E+00 0.51193709E+03</pdfrwt>
<pdfrwt beam="2">  1       -2 0.34902270E-02 0.51193709E+03</pdfrwt>
<totfact> 0.13380694E+03</totfact>
</mgrwt>
</event>
<event>
 4    1  0.2013882E-005  0.5202635E+03  0.7818608E-02  0.1008621E+00
          2   -1    0    0  501    0  0.00000000000E+00  0.00000000000E+00  0.30238685396E+04  0.30238685396E+04  0.25500000000E-02 0.  1.
         -2   -1    0    0    0  501 -0.00000000000E+00 -0.00000000000E+00 -0.22378135528E+02  0.22378135674E+02  0.25500000000E-02 0. -1.
    5000001    1    1    2    0    0  0.13189461597E+03  0.51735082713E+02  0.89417845818E+03  0.92546843467E+03  0.19200000000E+03 0.  0.
   -5000001    1    1    2    0    0 -0.13189461597E+03 -0.51735082713E+02  0.21073119459E+04  0.21207782406E+04  0.19200000000E+03 0.  0.
<mgrwt>
<rscale>  0 0.52026355E+03</rscale>
<asrwt>0</asrwt>
<pdfrwt beam="1">  1        2 0.43198167E+00 0.52026355E+03</pdfrwt>
<pdfrwt beam="2">  1       -2 0.31968732E-02 0.52026355E+03</pdfrwt>
<totfact> 0.10058583E+03</totfact>
</mgrwt>
</event>
<event>
 4    1  0.2013882E-005  0.4641461E+03  0.7818608E-02  0.1023586E+00
          2   -1    0    0  501    0  0.00000000000E+00  0.00000000000E+00  0.30141430012E+03  0.30141430013E+03  0.25500000000E-02 0.  1.
         -2   -1    0    0    0  501 -0.00000000000E+00 -0.00000000000E+00 -0.17868394443E+03  0.17868394445E+03  0.25500000000E-02 0. -1.
    5000001    1    1    2    0    0  0.48871471704E+02 -0.11933806921E+03  0.81096981612E+02  0.24509328007E+03  0.19200000000E+03 0.  0.
   -5000001    1    1    2    0    0 -0.48871471704E+02  0.11933806921E+03  0.41633374068E+02  0.23500496451E+03  0.19200000000E+03 0.  0.
<mgrwt>
<rscale>  0 0.46414608E+03</rscale>
<asrwt>0</asrwt>
<pdfrwt beam="1">  1        2 0.43059186E-01 0.46414608E+03</pdfrwt>
<pdfrwt beam="2">  1       -2 0.25526278E-01 0.46414608E+03</pdfrwt>
<totfact> 0.16283684E+03</totfact>
</mgrwt>
</event>
<event>
 4    1  0.2013882E-005  0.4730296E+03  0.7818608E-02  0.1021069E+00
          2   -1    0    0  501    0  0.00000000000E+00  0.00000000000E+00  0.19721678412E+04  0.19721678412E+04  0.25500000000E-02 0.  1.
         -2   -1    0    0    0  501 -0.00000000000E+00 -0.00000000000E+00 -0.28364342625E+02  0.28364342739E+02  0.25500000000E-02 0. -1.
    5000001    1    1    2    0    0  0.98026439226E+02 -0.70915291852E+01  0.13822808291E+04  0.13990081354E+04  0.19200000000E+03 0.  0.
   -5000001    1    1    2    0    0 -0.98026439226E+02  0.70915291852E+01  0.56152266951E+03  0.60152404852E+03  0.19200000000E+03 0.  0.
<mgrwt>
<rscale>  0 0.47302957E+03</rscale>
<asrwt>0</asrwt>
<pdfrwt beam="1">  1        2 0.28173826E+00 0.47302957E+03</pdfrwt>
<pdfrwt beam="2">  1       -2 0.40520490E-02 0.47302957E+03</pdfrwt>
<totfact> 0.24381035E+03</totfact>
</mgrwt>
</event>
<event>
 4    1  0.2013882E-005  0.5507627E+03  0.7818608E-02  0.1001318E+00
         -2   -1    0    0    0  501 -0.00000000000E+00  0.00000000000E+00  0.91994037690E+02  0.91994037725E+02  0.25500000000E-02 0. -1.
          2   -1    0    0  501    0  0.00000000000E+00 -0.00000000000E+00 -0.82434568254E+03  0.82434568255E+03  0.25500000000E-02 0.  1.
    5000001    1    1    2    0    0  0.18649081825E+03  0.62589714116E+02 -0.33860596552E+03  0.43613564116E+03  0.19200000000E+03 0.  0.
   -5000001    1    1    2    0    0 -0.18649081825E+03 -0.62589714116E+02 -0.39374567933E+03  0.48020407911E+03  0.19200000000E+03 0.  0.
<mgrwt>
<rscale>  0 0.55076270E+03</rscale>
<asrwt>0</asrwt>
<pdfrwt beam="1">  1        2 0.11776366E+00 0.55076270E+03</pdfrwt>
<pdfrwt beam="2">  1       -2 0.13142006E-01 0.55076270E+03</pdfrwt>
<totfact> 0.16016130E+03</totfact>
</mgrwt>
</event>
<event>
 4    1  0.2013882E-005  0.7489343E+03  0.7818608E-02  0.9637024E-01
          2   -1    0    0  501    0  0.00000000000E+00  0.00000000000E+00  0.34348060900E+03  0.34348060901E+03  0.25500000000E-02 0.  1.
         -2   -1    0    0    0  501 -0.00000000000E+00 -0.00000000000E+00 -0.40824913920E+03  0.40824913921E+03  0.25500000000E-02 0. -1.
    5000001    1    1    2    0    0  0.13265466957E+02  0.17836604457E+03 -0.30053539117E+03  0.39896859503E+03  0.19200000000E+03 0.  0.
   -5000001    1    1    2    0    0 -0.13265466957E+02 -0.17836604457E+03  0.23576686097E+03  0.35276115319E+03  0.19200000000E+03 0.  0.
<mgrwt>
<rscale>  0 0.74893434E+03</rscale>
<asrwt>0</asrwt>
<pdfrwt beam="1">  1        2 0.49068658E-01 0.74893434E+03</pdfrwt>
<pdfrwt beam="2">  1       -2 0.58321306E-01 0.74893434E+03</pdfrwt>
<totfact> 0.28430099E+02</totfact>
</mgrwt>
</event>
<event>
 4    1  0.2013882E-005  0.9444086E+03  0.7818608E-02  0.9371710E-01
          2   -1    0    0  501    0  0.00000000000E+00  0.00000000000E+00  0.17564390284E+03  0.17564390286E+03  0.25500000000E-02 0. -1.
         -2   -1    0    0    0  501 -0.00000000000E+00 -0.00000000000E+00 -0.12694826980E+04  0.12694826980E+04  0.25500000000E-02 0.  1.
    5000001    1    1    2    0    0 -0.35973210659E+03 -0.12798358023E+03 -0.85420206021E+03  0.95515032586E+03  0.19200000000E+03 0.  0.
   -5000001    1    1    2    0    0  0.35973210659E+03  0.12798358023E+03 -0.23963673493E+03  0.48997627498E+03  0.19200000000E+03 0.  0.
<mgrwt>
<rscale>  0 0.94440859E+03</rscale>
<asrwt>0</asrwt>
<pdfrwt beam="1">  1        2 0.25091987E-01 0.94440859E+03</pdfrwt>
<pdfrwt beam="2">  1       -2 0.18135467E+00 0.94440859E+03</pdfrwt>
<totfact> 0.38847171E+01</totfact>
</mgrwt>
</event>
<event>
 4    1  0.2013882E-005  0.1262615E+04  0.7818608E-02  0.9059748E-01
          2   -1    0    0  501    0  0.00000000000E+00  0.00000000000E+00  0.18715498578E+03  0.18715498580E+03  0.25500000000E-02 0. -1.
         -2   -1    0    0    0  501 -0.00000000000E+00 -0.00000000000E+00 -0.21295153018E+04  0.21295153018E+04  0.25500000000E-02 0.  1.
    5000001    1    1    2    0    0  0.23105185788E+03  0.52814658753E+03 -0.65677967166E+03  0.89473309766E+03  0.19200000000E+03 0.  0.
   -5000001    1    1    2    0    0 -0.23105185788E+03 -0.52814658753E+03 -0.12855806444E+04  0.14219371899E+04  0.19200000000E+03 0.  0.
<mgrwt>
<rscale>  0 0.12626154E+04</rscale>
<asrwt>0</asrwt>
<pdfrwt beam="1">  1        2 0.26736428E-01 0.12626154E+04</pdfrwt>
<pdfrwt beam="2">  1       -2 0.30421646E+00 0.12626154E+04</pdfrwt>
<totfact> 0.60298398E+00</totfact>
</mgrwt>
</event>
<event>
 4    1  0.2013882E-005  0.5768566E+03  0.7818608E-02  0.9954620E-01
         -2   -1    0    0    0  501 -0.00000000000E+00  0.00000000000E+00  0.45716970603E+02  0.45716970674E+02  0.25500000000E-02 0. -1.
          2   -1    0    0  501    0  0.00000000000E+00 -0.00000000000E+00 -0.18196936485E+04  0.18196936485E+04  0.25500000000E-02 0.  1.
    5000001    1    1    2    0    0  0.20297271965E+03 -0.34941618307E+02 -0.10891440705E+04  0.11249522870E+04  0.19200000000E+03 0.  0.
   -5000001    1    1    2    0    0 -0.20297271965E+03  0.34941618307E+02 -0.68483260743E+03  0.74045833226E+03  0.19200000000E+03 0.  0.
<mgrwt>
<rscale>  0 0.57685659E+03</rscale>
<asrwt>0</asrwt>
<pdfrwt beam="1">  1        2 0.25995619E+00 0.57685659E+03</pdfrwt>
<pdfrwt beam="2">  1       -2 0.65309970E-02 0.57685659E+03</pdfrwt>
<totfact> 0.13816432E+03</totfact>
</mgrwt>
</event>
<event>
 4    1  0.2013882E-005  0.5493535E+03  0.7818608E-02  0.1001644E+00
          2   -1    0    0  501    0  0.00000000000E+00  0.00000000000E+00  0.10363882753E+04  0.10363882753E+04  0.25500000000E-02 0.  1.
         -2   -1    0    0    0  501 -0.00000000000E+00 -0.00000000000E+00 -0.72798321409E+02  0.72798321454E+02  0.25500000000E-02 0. -1.
    5000001    1    1    2    0    0  0.79232520849E+02 -0.16115082109E+03  0.32107921668E+03  0.41497378578E+03  0.19200000000E+03 0.  0.
   -5000001    1    1    2    0    0 -0.79232520849E+02  0.16115082109E+03  0.64251073721E+03  0.69421281098E+03  0.19200000000E+03 0.  0.
<mgrwt>
<rscale>  0 0.54935354E+03</rscale>
<asrwt>0</asrwt>
<pdfrwt beam="1">  1        2 0.14805546E+00 0.54935354E+03</pdfrwt>
<pdfrwt beam="2">  1       -2 0.10399761E-01 0.54935354E+03</pdfrwt>
<totfact> 0.17253332E+03</totfact>
</mgrwt>
</event>
<event>
 4    1  0.2013882E-005  0.7918339E+03  0.7818608E-02  0.9571913E-01
         -2   -1    0    0    0  501 -0.00000000000E+00  0.00000000000E+00  0.70326940092E+02  0.70326940138E+02  0.25500000000E-02 0. -1.
          2   -1    0    0  501    0  0.00000000000E+00 -0.00000000000E+00 -0.22288787171E+04  0.22288787171E+04  0.25500000000E-02 0.  1.
    5000001    1    1    2    0    0 -0.29402705700E+03 -0.17629016900E+03 -0.12202175301E+04  0.12819223669E+04  0.19200000000E+03 0.  0.
   -5000001    1    1    2    0    0  0.29402705700E+03  0.17629016900E+03 -0.93833424691E+03  0.10172832904E+04  0.19200000000E+03 0.  0.
<mgrwt>
<rscale>  0 0.79183387E+03</rscale>
<asrwt>0</asrwt>
<pdfrwt beam="1">  1        2 0.31841120E+00 0.79183387E+03</pdfrwt>
<pdfrwt beam="2">  1       -2 0.10046707E-01 0.79183387E+03</pdfrwt>
<totfact> 0.42551019E+02</totfact>
</mgrwt>
</event>
<event>
 4    1  0.2013882E-005  0.6398050E+03  0.7818608E-02  0.9826100E-01
         -2   -1    0    0    0  501 -0.00000000000E+00  0.00000000000E+00  0.88098678288E+02  0.88098678325E+02  0.25500000000E-02 0. -1.
          2   -1    0    0  501    0  0.00000000000E+00 -0.00000000000E+00 -0.11616249366E+04  0.11616249366E+04  0.25500000000E-02 0.  1.
    5000001    1    1    2    0    0 -0.22904565968E+03 -0.11292447334E+03 -0.50528119501E+03  0.59781848159E+03  0.19200000000E+03 0.  0.
   -5000001    1    1    2    0    0  0.22904565968E+03  0.11292447334E+03 -0.56824506326E+03  0.65190513329E+03  0.19200000000E+03 0.  0.
<mgrwt>
<rscale>  0 0.63980504E+03</rscale>
<asrwt>0</asrwt>
<pdfrwt beam="1">  1        2 0.16594641E+00 0.63980504E+03</pdfrwt>
<pdfrwt beam="2">  1       -2 0.12585526E-01 0.63980504E+03</pdfrwt>
<totfact> 0.10648857E+03</totfact>
</mgrwt>
</event>
<event>
 4    1  0.2013882E-005  0.5818268E+03  0.7818608E-02  0.9943844E-01
          2   -1    0    0  501    0  0.00000000000E+00  0.00000000000E+00  0.54915716816E+03  0.54915716816E+03  0.25500000000E-02 0.  1.
         -2   -1    0    0    0  501 -0.00000000000E+00 -0.00000000000E+00 -0.15410997513E+03  0.15410997515E+03  0.25500000000E-02 0. -1.
    5000001    1    1    2    0    0  0.12668795407E+03 -0.17064691799E+03  0.25911378399E+03  0.38623071004E+03  0.19200000000E+03 0.  0.
   -5000001    1    1    2    0    0 -0.12668795407E+03  0.17064691799E+03  0.13593340904E+03  0.31703643327E+03  0.19200000000E+03 0.  0.
<mgrwt>
<rscale>  0 0.58182677E+03</rscale>
<asrwt>0</asrwt>
<pdfrwt beam="1">  1        2 0.78451024E-01 0.58182677E+03</pdfrwt>
<pdfrwt beam="2">  1       -2 0.22015711E-01 0.58182677E+03</pdfrwt>
<totfact> 0.10860843E+03</totfact>
</mgrwt>
</event>
<event>
 4    1  0.2013882E-005  0.6414332E+03  0.7818608E-02  0.9822988E-01
          2   -1    0    0  501    0  0.00000000000E+00  0.00000000000E+00  0.18332099406E+04  0.18332099406E+04  0.25500000000E-02 0.  1.
         -2   -1    0    0    0  501 -0.00000000000E+00 -0.00000000000E+00 -0.56108766417E+02  0.56108766475E+02  0.25500000000E-02 0. -1.
    5000001    1    1    2    0    0  0.13621848284E+03  0.21674656881E+03  0.82533634908E+03  0.88519977365E+03  0.19200000000E+03 0.  0.
   -5000001    1    1    2    0    0 -0.13621848284E+03 -0.21674656881E+03  0.95176482507E+03  0.10041189334E+04  0.19200000000E+03 0.  0.
<mgrwt>
<rscale>  0 0.64143323E+03</rscale>
<asrwt>0</asrwt>
<pdfrwt beam="1">  1        2 0.26188720E+00 0.64143323E+03</pdfrwt>
<pdfrwt beam="2">  1       -2 0.80155359E-02 0.64143323E+03</pdfrwt>
<totfact> 0.98017496E+02</totfact>
</mgrwt>
</event>
<event>
 4    1  0.2013882E-005  0.5448006E+03  0.7818608E-02  0.1002705E+00
          2   -1    0    0  501    0  0.00000000000E+00  0.00000000000E+00  0.92083640211E+03  0.92083640211E+03  0.25500000000E-02 0.  1.
         -2   -1    0    0    0  501 -0.00000000000E+00 -0.00000000000E+00 -0.80581007201E+02  0.80581007241E+02  0.25500000000E-02 0. -1.
    5000001    1    1    2    0    0 -0.11998833161E+03 -0.15030529292E+03  0.45446906805E+03  0.52952338440E+03  0.19200000000E+03 0.  0.
   -5000001    1    1    2    0    0  0.11998833161E+03  0.15030529292E+03  0.38578632685E+03  0.47189402496E+03  0.19200000000E+03 0.  0.
<mgrwt>
<rscale>  0 0.54480060E+03</rscale>
<asrwt>0</asrwt>
<pdfrwt beam="1">  1        2 0.13154805E+00 0.54480060E+03</pdfrwt>
<pdfrwt beam="2">  1       -2 0.11511573E-01 0.54480060E+03</pdfrwt>
<totfact> 0.17220452E+03</totfact>
</mgrwt>
</event>
<event>
 4    1  0.2013882E-005  0.6136208E+03  0.7818608E-02  0.9877543E-01
         -2   -1    0    0    0  501 -0.00000000000E+00  0.00000000000E+00  0.31781664397E+02  0.31781664499E+02  0.25500000000E-02 0. -1.
          2   -1    0    0  501    0  0.00000000000E+00 -0.00000000000E+00 -0.29618532083E+04  0.29618532083E+04  0.25500000000E-02 0.  1.
    5000001    1    1    2    0    0 -0.10759992514E+03 -0.18924876890E+03 -0.98021128201E+03  0.10222871406E+04  0.19200000000E+03 0.  0.
   -5000001    1    1    2    0    0  0.10759992514E+03  0.18924876890E+03 -0.19498602619E+04  0.19713477323E+04  0.19200000000E+03 0.  0.
<mgrwt>
<rscale>  0 0.61362081E+03</rscale>
<asrwt>0</asrwt>
<pdfrwt beam="1">  1        2 0.42312171E+00 0.61362081E+03</pdfrwt>
<pdfrwt beam="2">  1       -2 0.45402397E-02 0.61362081E+03</pdfrwt>
<totfact> 0.62956270E+02</totfact>
</mgrwt>
</event>
<event>
 4    1  0.2013882E-005  0.6665560E+03  0.7818608E-02  0.9776200E-01
         -2   -1    0    0    0  501 -0.00000000000E+00  0.00000000000E+00  0.84776437719E+02  0.84776437758E+02  0.25500000000E-02 0. -1.
          2   -1    0    0  501    0  0.00000000000E+00 -0.00000000000E+00 -0.13102016479E+04  0.13102016479E+04  0.25500000000E-02 0.  1.
    5000001    1    1    2    0    0  0.21932810848E+03 -0.23616954528E+02 -0.94722037115E+03  0.99133899915E+03  0.19200000000E+03 0.  0.
   -5000001    1    1    2    0    0 -0.21932810848E+03  0.23616954528E+02 -0.27820483907E+03  0.40363908656E+03  0.19200000000E+03 0.  0.
<mgrwt>
<rscale>  0 0.66655601E+03</rscale>
<asrwt>0</asrwt>
<pdfrwt beam="1">  1        2 0.18717165E+00 0.66655601E+03</pdfrwt>
<pdfrwt beam="2">  1       -2 0.12110921E-01 0.66655601E+03</pdfrwt>
<totfact> 0.93732974E+02</totfact>
</mgrwt>
</event>
<event>
 4    1  0.2013882E-005  0.4804731E+03  0.7818608E-02  0.1019005E+00
          2   -1    0    0  501    0  0.00000000000E+00  0.00000000000E+00  0.63084576998E+03  0.63084576999E+03  0.25500000000E-02 0.  1.
         -2   -1    0    0    0  501 -0.00000000000E+00 -0.00000000000E+00 -0.91486080302E+02  0.91486080337E+02  0.25500000000E-02 0. -1.
    5000001    1    1    2    0    0 -0.26697486783E+02  0.10173390536E+03  0.12095145921E+03  0.25011157268E+03  0.19200000000E+03 0.  0.
   -5000001    1    1    2    0    0  0.26697486783E+02 -0.10173390536E+03  0.41840823047E+03  0.47222027765E+03  0.19200000000E+03 0.  0.
<mgrwt>
<rscale>  0 0.48047313E+03</rscale>
<asrwt>0</asrwt>
<pdfrwt beam="1">  1        2 0.90120826E-01 0.48047313E+03</pdfrwt>
<pdfrwt beam="2">  1       -2 0.13069440E-01 0.48047313E+03</pdfrwt>
<totfact> 0.22459894E+03</totfact>
</mgrwt>
</event>
<event>
 4    1  0.2013882E-005  0.6903683E+03  0.7818608E-02  0.9733847E-01
         -2   -1    0    0    0  501 -0.00000000000E+00  0.00000000000E+00  0.59135234430E+02  0.59135234485E+02  0.25500000000E-02 0. -1.
          2   -1    0    0  501    0  0.00000000000E+00 -0.00000000000E+00 -0.20149086745E+04  0.20149086745E+04  0.25500000000E-02 0.  1.
    5000001    1    1    2    0    0  0.99092899593E+02  0.11486385884E+03 -0.17093168453E+04  0.17267429416E+04  0.19200000000E+03 0.  0.
   -5000001    1    1    2    0    0 -0.99092899593E+02 -0.11486385884E+03 -0.24645659473E+03  0.34730096733E+03  0.19200000000E+03 0.  0.
<mgrwt>
<rscale>  0 0.69036830E+03</rscale>
<asrwt>0</asrwt>
<pdfrwt beam="1">  1        2 0.28784405E+00 0.69036830E+03</pdfrwt>
<pdfrwt beam="2">  1       -2 0.84478919E-02 0.69036830E+03</pdfrwt>
<totfact> 0.72761817E+02</totfact>
</mgrwt>
</event>
<event>
 4    1  0.2013882E-005  0.5791835E+03  0.7818608E-02  0.9949560E-01
          2   -1    0    0  501    0  0.00000000000E+00  0.00000000000E+00  0.14790928864E+04  0.14790928864E+04  0.25500000000E-02 0.  1.
         -2   -1    0    0    0  501 -0.00000000000E+00 -0.00000000000E+00 -0.56699197623E+02  0.56699197680E+02  0.25500000000E-02 0. -1.
    5000001    1    1    2    0    0  0.11154308377E+03 -0.16922177453E+03  0.91524493411E+03  0.95687781766E+03  0.19200000000E+03 0.  0.
   -5000001    1    1    2    0    0 -0.11154308377E+03  0.16922177453E+03  0.50714875470E+03  0.57891426645E+03  0.19200000000E+03 0.  0.
<mgrwt>
<rscale>  0 0.57918349E+03</rscale>
<asrwt>0</asrwt>
<pdfrwt beam="1">  1        2 0.21129899E+00 0.57918349E+03</pdfrwt>
<pdfrwt beam="2">  1       -2 0.80998850E-02 0.57918349E+03</pdfrwt>
<totfact> 0.14672510E+03</totfact>
</mgrwt>
</event>
<event>
 4    1  0.2013882E-005  0.4916122E+03  0.7818608E-02  0.1015992E+00
         -2   -1    0    0    0  501 -0.00000000000E+00  0.00000000000E+00  0.15395907129E+02  0.15395907340E+02  0.25500000000E-02 0. -1.
          2   -1    0    0  501    0  0.00000000000E+00 -0.00000000000E+00 -0.39244613570E+04  0.39244613570E+04  0.25500000000E-02 0.  1.
    5000001    1    1    2    0    0  0.11062474535E+03  0.10590136942E+03 -0.18729185948E+04  0.18889523544E+04  0.19200000000E+03 0.  0.
   -5000001    1    1    2    0    0 -0.11062474535E+03 -0.10590136942E+03 -0.20361468551E+04  0.20509049100E+04  0.19200000000E+03 0.  0.
<mgrwt>
<rscale>  0 0.49161222E+03</rscale>
<asrwt>0</asrwt>
<pdfrwt beam="1">  1        2 0.56063670E+00 0.49161222E+03</pdfrwt>
<pdfrwt beam="2">  1       -2 0.21994178E-02 0.49161222E+03</pdfrwt>
<totfact> 0.52108209E+02</totfact>
</mgrwt>
</event>
<event>
 4    1  0.2013882E-005  0.6252115E+03  0.7818608E-02  0.9854438E-01
         -2   -1    0    0    0  501 -0.00000000000E+00  0.00000000000E+00  0.65242633021E+02  0.65242633071E+02  0.25500000000E-02 0. -1.
          2   -1    0    0  501    0  0.00000000000E+00 -0.00000000000E+00 -0.14978297587E+04  0.14978297587E+04  0.25500000000E-02 0.  1.
    5000001    1    1    2    0    0  0.14369185016E+03 -0.13485525294E+03 -0.34526206413E+03  0.44147840261E+03  0.19200000000E+03 0.  0.
   -5000001    1    1    2    0    0 -0.14369185016E+03  0.13485525294E+03 -0.10873250616E+04  0.11215939892E+04  0.19200000000E+03 0.  0.
<mgrwt>
<rscale>  0 0.62521151E+03</rscale>
<asrwt>0</asrwt>
<pdfrwt beam="1">  1        2 0.21397566E+00 0.62521151E+03</pdfrwt>
<pdfrwt beam="2">  1       -2 0.93203770E-02 0.62521151E+03</pdfrwt>
<totfact> 0.11435703E+03</totfact>
</mgrwt>
</event>
<event>
 4    1  0.2013882E-005  0.4948954E+03  0.7818608E-02  0.1015120E+00
         -2   -1    0    0    0  501 -0.00000000000E+00  0.00000000000E+00  0.52434602112E+03  0.52434602113E+03  0.25500000000E-02 0. -1.
          2   -1    0    0  501    0  0.00000000000E+00 -0.00000000000E+00 -0.11677474321E+03  0.11677474323E+03  0.25500000000E-02 0.  1.
    5000001    1    1    2    0    0 -0.11861207267E+03 -0.10021265540E+03  0.22447144998E+03  0.33371070097E+03  0.19200000000E+03 0.  0.
   -5000001    1    1    2    0    0  0.11861207267E+03  0.10021265540E+03  0.18309982793E+03  0.30741006339E+03  0.19200000000E+03 0.  0.
<mgrwt>
<rscale>  0 0.49489543E+03</rscale>
<asrwt>0</asrwt>
<pdfrwt beam="1">  1        2 0.16682106E-01 0.49489543E+03</pdfrwt>
<pdfrwt beam="2">  1       -2 0.74906575E-01 0.49489543E+03</pdfrwt>
<totfact> 0.56895566E+02</totfact>
</mgrwt>
</event>
<event>
 4    1  0.2013882E-005  0.6640490E+03  0.7818608E-02  0.9780769E-01
          2   -1    0    0  501    0  0.00000000000E+00  0.00000000000E+00  0.31614330138E+04  0.31614330138E+04  0.25500000000E-02 0.  1.
         -2   -1    0    0    0  501 -0.00000000000E+00 -0.00000000000E+00 -0.34870349129E+02  0.34870349222E+02  0.25500000000E-02 0. -1.
    5000001    1    1    2    0    0  0.18698328996E+03  0.13907636363E+03  0.89856268552E+03  0.94793664632E+03  0.19200000000E+03 0.  0.
   -5000001    1    1    2    0    0 -0.18698328996E+03 -0.13907636363E+03  0.22279999792E+04  0.22483667167E+04  0.19200000000E+03 0.  0.
<mgrwt>
<rscale>  0 0.66404901E+03</rscale>
<asrwt>0</asrwt>
<pdfrwt beam="1">  1        2 0.45163309E+00 0.66404901E+03</pdfrwt>
<pdfrwt beam="2">  1       -2 0.49814806E-02 0.66404901E+03</pdfrwt>
<totfact> 0.42135626E+02</totfact>
</mgrwt>
</event>
<event>
 4    1  0.2013882E-005  0.4136233E+03  0.7818608E-02  0.1039162E+00
         -2   -1    0    0    0  501 -0.00000000000E+00  0.00000000000E+00  0.54093231083E+02  0.54093231143E+02  0.25500000000E-02 0. -1.
          2   -1    0    0  501    0  0.00000000000E+00 -0.00000000000E+00 -0.79069157386E+03  0.79069157386E+03  0.25500000000E-02 0.  1.
    5000001    1    1    2    0    0 -0.57281446272E+02 -0.17118605016E+02 -0.26965200576E+03  0.33637838060E+03  0.19200000000E+03 0.  0.
   -5000001    1    1    2    0    0  0.57281446272E+02  0.17118605016E+02 -0.46694633702E+03  0.50840642441E+03  0.19200000000E+03 0.  0.
<mgrwt>
<rscale>  0 0.41362332E+03</rscale>
<asrwt>0</asrwt>
<pdfrwt beam="1">  1        2 0.11295593E+00 0.41362332E+03</pdfrwt>
<pdfrwt beam="2">  1       -2 0.77276049E-02 0.41362332E+03</pdfrwt>
<totfact> 0.39746757E+03</totfact>
</mgrwt>
</event>
<event>
 4    1  0.2013882E-005  0.5820320E+03  0.7818608E-02  0.9943401E-01
          2   -1    0    0  501    0  0.00000000000E+00  0.00000000000E+00  0.29136765625E+04  0.29136765626E+04  0.25500000000E-02 0.  1.
         -2   -1    0    0    0  501 -0.00000000000E+00 -0.00000000000E+00 -0.29066475795E+02  0.29066475907E+02  0.25500000000E-02 0. -1.
    5000001    1    1    2    0    0 -0.17885436002E+03  0.12191172290E+03  0.12844353740E+04  0.13166205149E+04  0.19200000000E+03 0.  0.
   -5000001    1    1    2    0    0  0.17885436002E+03 -0.12191172290E+03  0.16001747128E+04  0.16261225236E+04  0.19200000000E+03 0.  0.
<mgrwt>
<rscale>  0 0.58203199E+03</rscale>
<asrwt>0</asrwt>
<pdfrwt beam="1">  1        2 0.41623959E+00 0.58203199E+03</pdfrwt>
<pdfrwt beam="2">  1       -2 0.41523528E-02 0.58203199E+03</pdfrwt>
<totfact> 0.76924702E+02</totfact>
</mgrwt>
</event>
<event>
 4    1  0.2013882E-005  0.8041448E+03  0.7818608E-02  0.9554037E-01
         -2   -1    0    0    0  501 -0.00000000000E+00  0.00000000000E+00  0.51050323040E+03  0.51050323041E+03  0.25500000000E-02 0.  1.
          2   -1    0    0  501    0  0.00000000000E+00 -0.00000000000E+00 -0.31667223281E+03  0.31667223282E+03  0.25500000000E-02 0. -1.
    5000001    1    1    2    0    0  0.29165537371E+03  0.30136751105E+02  0.29960487251E+03  0.46108368049E+03  0.19200000000E+03 0.  0.
   -5000001    1    1    2    0    0 -0.29165537371E+03 -0.30136751105E+02 -0.10577387492E+03  0.36609178275E+03  0.19200000000E+03 0.  0.
<mgrwt>
<rscale>  0 0.80414476E+03</rscale>
<asrwt>0</asrwt>
<pdfrwt beam="1">  1        2 0.45238891E-01 0.80414476E+03</pdfrwt>
<pdfrwt beam="2">  1       -2 0.72929032E-01 0.80414476E+03</pdfrwt>
<totfact> 0.19212906E+02</totfact>
</mgrwt>
</event>
<event>
 4    1  0.2013882E-005  0.9278330E+03  0.7818608E-02  0.9391442E-01
          2   -1    0    0  501    0  0.00000000000E+00  0.00000000000E+00  0.94395864782E+03  0.94395864783E+03  0.25500000000E-02 0.  1.
         -2   -1    0    0    0  501 -0.00000000000E+00 -0.00000000000E+00 -0.22799572283E+03  0.22799572285E+03  0.25500000000E-02 0. -1.
    5000001    1    1    2    0    0  0.57931598059E+02 -0.36990650590E+03  0.60474928707E+03  0.73673101833E+03  0.19200000000E+03 0.  0.
   -5000001    1    1    2    0    0 -0.57931598059E+02  0.36990650590E+03  0.11121363792E+03  0.43522335234E+03  0.19200000000E+03 0.  0.
<mgrwt>
<rscale>  0 0.92783303E+03</rscale>
<asrwt>0</asrwt>
<pdfrwt beam="1">  1        2 0.13485124E+00 0.92783303E+03</pdfrwt>
<pdfrwt beam="2">  1       -2 0.32570817E-01 0.92783303E+03</pdfrwt>
<totfact> 0.26729052E+02</totfact>
</mgrwt>
</event>
<event>
 4    1  0.2013882E-005  0.7005329E+03  0.7818608E-02  0.9716321E-01
         -2   -1    0    0    0  501 -0.00000000000E+00  0.00000000000E+00  0.55825635872E+02  0.55825635930E+02  0.25500000000E-02 0. -1.
          2   -1    0    0  501    0  0.00000000000E+00 -0.00000000000E+00 -0.21976743871E+04  0.21976743871E+04  0.25500000000E-02 0.  1.
    5000001    1    1    2    0    0  0.25939719898E+03  0.10338072594E+03 -0.13559021652E+04  0.13976083725E+04  0.19200000000E+03 0.  0.
   -5000001    1    1    2    0    0 -0.25939719898E+03 -0.10338072594E+03 -0.78594658603E+03  0.85589165052E+03  0.19200000000E+03 0.  0.
<mgrwt>
<rscale>  0 0.70053285E+03</rscale>
<asrwt>0</asrwt>
<pdfrwt beam="1">  1        2 0.31395343E+00 0.70053285E+03</pdfrwt>
<pdfrwt beam="2">  1       -2 0.79750922E-02 0.70053285E+03</pdfrwt>
<totfact> 0.64469601E+02</totfact>
</mgrwt>
</event>
<event>
 4    1  0.2013882E-005  0.4035837E+03  0.7818608E-02  0.1042546E+00
          2   -1    0    0  501    0  0.00000000000E+00  0.00000000000E+00  0.36465792869E+03  0.36465792870E+03  0.25500000000E-02 0.  1.
         -2   -1    0    0    0  501 -0.00000000000E+00 -0.00000000000E+00 -0.11166616526E+03  0.11166616529E+03  0.25500000000E-02 0. -1.
    5000001    1    1    2    0    0  0.39332968517E+02 -0.48033613751E+02  0.12800827674E+03  0.23896533091E+03  0.19200000000E+03 0.  0.
   -5000001    1    1    2    0    0 -0.39332968517E+02  0.48033613751E+02  0.12498348669E+03  0.23735876307E+03  0.19200000000E+03 0.  0.
<mgrwt>
<rscale>  0 0.40358371E+03</rscale>
<asrwt>0</asrwt>
<pdfrwt beam="1">  1        2 0.52093989E-01 0.40358371E+03</pdfrwt>
<pdfrwt beam="2">  1       -2 0.15952310E-01 0.40358371E+03</pdfrwt>
<totfact> 0.29804538E+03</totfact>
</mgrwt>
</event>
<event>
 4    1  0.2013882E-005  0.5648687E+03  0.7818608E-02  0.9981098E-01
         -2   -1    0    0    0  501 -0.00000000000E+00  0.00000000000E+00  0.35401007904E+02  0.35401007996E+02  0.25500000000E-02 0. -1.
          2   -1    0    0  501    0  0.00000000000E+00 -0.00000000000E+00 -0.22533021966E+04  0.22533021966E+04  0.25500000000E-02 0.  1.
    5000001    1    1    2    0    0 -0.15121613354E+03 -0.68366392834E+02 -0.16111851877E+04  0.16310493530E+04  0.19200000000E+03 0.  0.
   -5000001    1    1    2    0    0  0.15121613354E+03  0.68366392834E+02 -0.60671600096E+03  0.65765385160E+03  0.19200000000E+03 0.  0.
<mgrwt>
<rscale>  0 0.56486872E+03</rscale>
<asrwt>0</asrwt>
<pdfrwt beam="1">  1        2 0.32190022E+00 0.56486872E+03</pdfrwt>
<pdfrwt beam="2">  1       -2 0.50572883E-02 0.56486872E+03</pdfrwt>
<totfact> 0.12482337E+03</totfact>
</mgrwt>
</event>
<event>
 4    1  0.2013882E-005  0.8761671E+03  0.7818608E-02  0.9455874E-01
          2   -1    0    0  501    0  0.00000000000E+00  0.00000000000E+00  0.31057620795E+04  0.31057620795E+04  0.25500000000E-02 0.  1.
         -2   -1    0    0    0  501 -0.00000000000E+00 -0.00000000000E+00 -0.61793915648E+02  0.61793915701E+02  0.25500000000E-02 0. -1.
    5000001    1    1    2    0    0 -0.33211789636E+03  0.14090946436E+03  0.95156094138E+03  0.10356109305E+04  0.19200000000E+03 0.  0.
   -5000001    1    1    2    0    0  0.33211789636E+03 -0.14090946436E+03  0.20924072225E+04  0.21319450647E+04  0.19200000000E+03 0.  0.
<mgrwt>
<rscale>  0 0.87616711E+03</rscale>
<asrwt>0</asrwt>
<pdfrwt beam="1">  1        2 0.44368048E+00 0.87616711E+03</pdfrwt>
<pdfrwt beam="2">  1       -2 0.88276986E-02 0.87616711E+03</pdfrwt>
<totfact> 0.17909044E+02</totfact>
</mgrwt>
</event>
<event>
 4    1  0.2013882E-005  0.5697685E+03  0.7818608E-02  0.9970191E-01
         -2   -1    0    0    0  501 -0.00000000000E+00  0.00000000000E+00  0.43650715516E+03  0.43650715517E+03  0.25500000000E-02 0. -1.
          2   -1    0    0  501    0  0.00000000000E+00 -0.00000000000E+00 -0.18592829244E+03  0.18592829245E+03  0.25500000000E-02 0.  1.
    5000001    1    1    2    0    0  0.20994140953E+03  0.30200792991E+01  0.14113967965E+03  0.31759868621E+03  0.19200000000E+03 0.  0.
   -5000001    1    1    2    0    0 -0.20994140953E+03 -0.30200792991E+01  0.10943918308E+03  0.30483676141E+03  0.19200000000E+03 0.  0.
<mgrwt>
<rscale>  0 0.56976848E+03</rscale>
<asrwt>0</asrwt>
<pdfrwt beam="1">  1        2 0.26561185E-01 0.56976848E+03</pdfrwt>
<pdfrwt beam="2">  1       -2 0.62358165E-01 0.56976848E+03</pdfrwt>
<totfact> 0.49191384E+02</totfact>
</mgrwt>
</event>
<event>
 4    1  0.2013882E-005  0.4384279E+03  0.7818608E-02  0.1031230E+00
          2   -1    0    0  501    0  0.00000000000E+00  0.00000000000E+00  0.68301547831E+03  0.68301547832E+03  0.25500000000E-02 0.  1.
         -2   -1    0    0    0  501 -0.00000000000E+00 -0.00000000000E+00 -0.70356749931E+02  0.70356749977E+02  0.25500000000E-02 0. -1.
    5000001    1    1    2    0    0  0.12357545291E+02  0.94837451243E+02  0.22864366518E+03  0.31351040925E+03  0.19200000000E+03 0.  0.
   -5000001    1    1    2    0    0 -0.12357545291E+02 -0.94837451243E+02  0.38401506321E+03  0.43986181905E+03  0.19200000000E+03 0.  0.
<mgrwt>
<rscale>  0 0.43842787E+03</rscale>
<asrwt>0</asrwt>
<pdfrwt beam="1">  1        2 0.97573633E-01 0.43842787E+03</pdfrwt>
<pdfrwt beam="2">  1       -2 0.10050965E-01 0.43842787E+03</pdfrwt>
<totfact> 0.31320650E+03</totfact>
</mgrwt>
</event>
<event>
 4    1  0.2013882E-005  0.6456416E+03  0.7818608E-02  0.9814992E-01
         -2   -1    0    0    0  501 -0.00000000000E+00  0.00000000000E+00  0.87615160854E+02  0.87615160891E+02  0.25500000000E-02 0. -1.
          2   -1    0    0  501    0  0.00000000000E+00 -0.00000000000E+00 -0.11894433710E+04  0.11894433710E+04  0.25500000000E-02 0.  1.
    5000001    1    1    2    0    0 -0.51509716299E+02  0.25415075258E+03 -0.57102882445E+03  0.65588396403E+03  0.19200000000E+03 0.  0.
   -5000001    1    1    2    0    0  0.51509716299E+02 -0.25415075258E+03 -0.53079938570E+03  0.62117456787E+03  0.19200000000E+03 0.  0.
<mgrwt>
<rscale>  0 0.64564161E+03</rscale>
<asrwt>0</asrwt>
<pdfrwt beam="1">  1        2 0.16992047E+00 0.64564161E+03</pdfrwt>
<pdfrwt beam="2">  1       -2 0.12516452E-01 0.64564161E+03</pdfrwt>
<totfact> 0.10361426E+03</totfact>
</mgrwt>
</event>
<event>
 4    1  0.2013882E-005  0.5387980E+03  0.7818608E-02  0.1004121E+00
          2   -1    0    0  501    0  0.00000000000E+00  0.00000000000E+00  0.31653339040E+03  0.31653339041E+03  0.25500000000E-02 0.  1.
         -2   -1    0    0    0  501 -0.00000000000E+00 -0.00000000000E+00 -0.22928334092E+03  0.22928334093E+03  0.25500000000E-02 0. -1.
    5000001    1    1    2    0    0  0.18403553994E+03 -0.15698158342E+01  0.87082435487E+02  0.27985513190E+03  0.19200000000E+03 0.  0.
   -5000001    1    1    2    0    0 -0.18403553994E+03  0.15698158342E+01  0.16761399465E+00  0.26596159944E+03  0.19200000000E+03 0.  0.
<mgrwt>
<rscale>  0 0.53879804E+03</rscale>
<asrwt>0</asrwt>
<pdfrwt beam="1">  1        2 0.45219056E-01 0.53879804E+03</pdfrwt>
<pdfrwt beam="2">  1       -2 0.32754763E-01 0.53879804E+03</pdfrwt>
<totfact> 0.97823593E+02</totfact>
</mgrwt>
</event>
<event>
 4    1  0.2013882E-005  0.4361173E+03  0.7818608E-02  0.1031945E+00
          2   -1    0    0  501    0  0.00000000000E+00  0.00000000000E+00  0.52628232222E+03  0.52628232223E+03  0.25500000000E-02 0.  1.
         -2   -1    0    0    0  501 -0.00000000000E+00 -0.00000000000E+00 -0.90349944018E+02  0.90349944054E+02  0.25500000000E-02 0. -1.
    5000001    1    1    2    0    0  0.87676841832E+02  0.54557731161E+02  0.21136399305E+03  0.30364866570E+03  0.19200000000E+03 0.  0.
   -5000001    1    1    2    0    0 -0.87676841832E+02 -0.54557731161E+02  0.22456838515E+03  0.31298360058E+03  0.19200000000E+03 0.  0.
<mgrwt>
<rscale>  0 0.43611732E+03</rscale>
<asrwt>0</asrwt>
<pdfrwt beam="1">  1        2 0.75183190E-01 0.43611732E+03</pdfrwt>
<pdfrwt beam="2">  1       -2 0.12907135E-01 0.43611732E+03</pdfrwt>
<totfact> 0.28247279E+03</totfact>
</mgrwt>
</event>
<event>
 4    1  0.2013882E-005  0.5471759E+03  0.7818608E-02  0.1002150E+00
         -2   -1    0    0    0  501 -0.00000000000E+00  0.00000000000E+00  0.52578705829E+02  0.52578705890E+02  0.25500000000E-02 0. -1.
          2   -1    0    0  501    0  0.00000000000E+00 -0.00000000000E+00 -0.14235869062E+04  0.14235869062E+04  0.25500000000E-02 0.  1.
    5000001    1    1    2    0    0 -0.19232097162E+03  0.24917887671E+02 -0.63304613221E+03  0.68936177930E+03  0.19200000000E+03 0.  0.
   -5000001    1    1    2    0    0  0.19232097162E+03 -0.24917887671E+02 -0.73796206815E+03  0.78680383278E+03  0.19200000000E+03 0.  0.
<mgrwt>
<rscale>  0 0.54717587E+03</rscale>
<asrwt>0</asrwt>
<pdfrwt beam="1">  1        2 0.20336953E+00 0.54717587E+03</pdfrwt>
<pdfrwt beam="2">  1       -2 0.75112446E-02 0.54717587E+03</pdfrwt>
<totfact> 0.17704826E+03</totfact>
</mgrwt>
</event>
<event>
 4    1  0.2013882E-005  0.4977550E+03  0.7818608E-02  0.1014367E+00
         -2   -1    0    0    0  501 -0.00000000000E+00  0.00000000000E+00  0.25031043852E+02  0.25031043982E+02  0.25500000000E-02 0. -1.
          2   -1    0    0  501    0  0.00000000000E+00 -0.00000000000E+00 -0.24745279400E+04  0.24745279400E+04  0.25500000000E-02 0.  1.
    5000001    1    1    2    0    0  0.13907612369E+03  0.62972760760E+02 -0.10135827642E+04  0.10428431122E+04  0.19200000000E+03 0.  0.
   -5000001    1    1    2    0    0 -0.13907612369E+03 -0.62972760760E+02 -0.14359141319E+04  0.14567158717E+04  0.19200000000E+03 0.  0.
<mgrwt>
<rscale>  0 0.49775503E+03</rscale>
<asrwt>0</asrwt>
<pdfrwt beam="1">  1        2 0.35350384E+00 0.49775503E+03</pdfrwt>
<pdfrwt beam="2">  1       -2 0.35758650E-02 0.49775503E+03</pdfrwt>
<totfact> 0.16496428E+03</totfact>
</mgrwt>
</event>
<event>
 4    1  0.2013882E-005  0.6601478E+03  0.7818608E-02  0.9787922E-01
          2   -1    0    0  501    0  0.00000000000E+00  0.00000000000E+00  0.31493688943E+03  0.31493688944E+03  0.25500000000E-02 0.  1.
         -2   -1    0    0    0  501 -0.00000000000E+00 -0.00000000000E+00 -0.34593845015E+03  0.34593845016E+03  0.25500000000E-02 0. -1.
    5000001    1    1    2    0    0 -0.13685628160E+03  0.21157589538E+03  0.77287818616E+02  0.32608497087E+03  0.19200000000E+03 0.  0.
   -5000001    1    1    2    0    0  0.13685628160E+03 -0.21157589538E+03 -0.10828937933E+03  0.33479036874E+03  0.19200000000E+03 0.  0.
<mgrwt>
<rscale>  0 0.66014780E+03</rscale>
<asrwt>0</asrwt>
<pdfrwt beam="1">  1        2 0.44990984E-01 0.66014780E+03</pdfrwt>
<pdfrwt beam="2">  1       -2 0.49419779E-01 0.66014780E+03</pdfrwt>
<totfact> 0.44138307E+02</totfact>
</mgrwt>
</event>
<event>
 4    1  0.2013882E-005  0.5823783E+03  0.7818608E-02  0.9942655E-01
         -2   -1    0    0    0  501 -0.00000000000E+00  0.00000000000E+00  0.72241488374E+02  0.72241488419E+02  0.25500000000E-02 0. -1.
          2   -1    0    0  501    0  0.00000000000E+00 -0.00000000000E+00 -0.11737177866E+04  0.11737177866E+04  0.25500000000E-02 0.  1.
    5000001    1    1    2    0    0 -0.47263669213E+02 -0.21281337997E+03 -0.59372588532E+03  0.66098246272E+03  0.19200000000E+03 0.  0.
   -5000001    1    1    2    0    0  0.47263669213E+02  0.21281337997E+03 -0.50775041289E+03  0.58497681229E+03  0.19200000000E+03 0.  0.
<mgrwt>
<rscale>  0 0.58237830E+03</rscale>
<asrwt>0</asrwt>
<pdfrwt beam="1">  1        2 0.16767396E+00 0.58237830E+03</pdfrwt>
<pdfrwt beam="2">  1       -2 0.10320213E-01 0.58237830E+03</pdfrwt>
<totfact> 0.14534669E+03</totfact>
</mgrwt>
</event>
<event>
 4    1  0.2013882E-005  0.7134229E+03  0.7818608E-02  0.9694549E-01
          2   -1    0    0  501    0  0.00000000000E+00  0.00000000000E+00  0.12672143181E+04  0.12672143181E+04  0.25500000000E-02 0.  1.
         -2   -1    0    0    0  501 -0.00000000000E+00 -0.00000000000E+00 -0.10041164268E+03  0.10041164271E+03  0.25500000000E-02 0. -1.
    5000001    1    1    2    0    0  0.96036541991E+02 -0.20515157103E+03  0.96231109374E+03  0.10070833261E+04  0.19200000000E+03 0.  0.
   -5000001    1    1    2    0    0 -0.96036541991E+02  0.20515157103E+03  0.20449158167E+03  0.36054263474E+03  0.19200000000E+03 0.  0.
<mgrwt>
<rscale>  0 0.71342294E+03</rscale>
<asrwt>0</asrwt>
<pdfrwt beam="1">  1        2 0.18103061E+00 0.71342294E+03</pdfrwt>
<pdfrwt beam="2">  1       -2 0.14344521E-01 0.71342294E+03</pdfrwt>
<totfact> 0.74510041E+02</totfact>
</mgrwt>
</event>
<event>
 4    1  0.2013882E-005  0.7491415E+03  0.7818608E-02  0.9636698E-01
         -2   -1    0    0    0  501 -0.00000000000E+00  0.00000000000E+00  0.71683925573E+02  0.71683925618E+02  0.25500000000E-02 0.  1.
          2   -1    0    0  501    0  0.00000000000E+00 -0.00000000000E+00 -0.19572483983E+04  0.19572483983E+04  0.25500000000E-02 0. -1.
    5000001    1    1    2    0    0 -0.12869833453E+03 -0.29324748153E+03 -0.10232114503E+04  0.10892121091E+04  0.19200000000E+03 0.  0.
   -5000001    1    1    2    0    0  0.12869833453E+03  0.29324748153E+03 -0.86235302250E+03  0.93972021483E+03  0.19200000000E+03 0.  0.
<mgrwt>
<rscale>  0 0.74914150E+03</rscale>
<asrwt>0</asrwt>
<pdfrwt beam="1">  1        2 0.27960688E+00 0.74914150E+03</pdfrwt>
<pdfrwt beam="2">  1       -2 0.10240562E-01 0.74914150E+03</pdfrwt>
<totfact> 0.56790966E+02</totfact>
</mgrwt>
</event>
<event>
 4    1  0.2013882E-005  0.7614086E+03  0.7818608E-02  0.9617620E-01
          2   -1    0    0  501    0  0.00000000000E+00  0.00000000000E+00  0.12562084418E+04  0.12562084418E+04  0.25500000000E-02 0.  1.
         -2   -1    0    0    0  501 -0.00000000000E+00 -0.00000000000E+00 -0.11537557352E+03  0.11537557355E+03  0.25500000000E-02 0. -1.
    5000001    1    1    2    0    0  0.21609627680E+03 -0.17278905051E+03  0.25061181604E+03  0.41979035144E+03  0.19200000000E+03 0.  0.
   -5000001    1    1    2    0    0 -0.21609627680E+03  0.17278905051E+03  0.89022105227E+03  0.95179366394E+03  0.19200000000E+03 0.  0.
<mgrwt>
<rscale>  0 0.76140861E+03</rscale>
<asrwt>0</asrwt>
<pdfrwt beam="1">  1        2 0.17945835E+00 0.76140861E+03</pdfrwt>
<pdfrwt beam="2">  1       -2 0.16482225E-01 0.76140861E+03</pdfrwt>
<totfact> 0.59594153E+02</totfact>
</mgrwt>
</event>
<event>
 4    1  0.2013882E-005  0.4965357E+03  0.7818608E-02  0.1014687E+00
          2   -1    0    0  501    0  0.00000000000E+00  0.00000000000E+00  0.19104086443E+04  0.19104086443E+04  0.25500000000E-02 0.  1.
         -2   -1    0    0    0  501 -0.00000000000E+00 -0.00000000000E+00 -0.32263739008E+02  0.32263739109E+02  0.25500000000E-02 0. -1.
    5000001    1    1    2    0    0 -0.84051947943E+02 -0.21631645947E+02  0.42535882028E+03  0.47468598468E+03  0.19200000000E+03 0.  0.
   -5000001    1    1    2    0    0  0.84051947943E+02  0.21631645947E+02  0.14527860850E+04  0.14679863987E+04  0.19200000000E+03 0.  0.
<mgrwt>
<rscale>  0 0.49653570E+03</rscale>
<asrwt>0</asrwt>
<pdfrwt beam="1">  1        2 0.27291561E+00 0.49653570E+03</pdfrwt>
<pdfrwt beam="2">  1       -2 0.46091041E-02 0.49653570E+03</pdfrwt>
<totfact> 0.21462814E+03</totfact>
</mgrwt>
</event>
<event>
 4    1  0.2013882E-005  0.8894613E+03  0.7818608E-02  0.9438852E-01
          2   -1    0    0  501    0  0.00000000000E+00  0.00000000000E+00  0.25111935736E+03  0.25111935737E+03  0.25500000000E-02 0.  1.
         -2   -1    0    0    0  501 -0.00000000000E+00 -0.00000000000E+00 -0.78761490662E+03  0.78761490662E+03  0.25500000000E-02 0. -1.
    5000001    1    1    2    0    0  0.23640727126E+03  0.21446408043E+03 -0.55200284059E+03  0.66592370112E+03  0.19200000000E+03 0.  0.
   -5000001    1    1    2    0    0 -0.23640727126E+03 -0.21446408043E+03  0.15507291330E+02  0.37281056287E+03  0.19200000000E+03 0.  0.
<mgrwt>
<rscale>  0 0.88946130E+03</rscale>
<asrwt>0</asrwt>
<pdfrwt beam="1">  1        2 0.35874194E-01 0.88946130E+03</pdfrwt>
<pdfrwt beam="2">  1       -2 0.11251641E+00 0.88946130E+03</pdfrwt>
<totfact> 0.90820715E+01</totfact>
</mgrwt>
</event>
<event>
 4    1  0.2013882E-005  0.9310931E+03  0.7818608E-02  0.9387527E-01
         -2   -1    0    0    0  501 -0.00000000000E+00  0.00000000000E+00  0.26295114940E+03  0.26295114941E+03  0.25500000000E-02 0. -1.
          2   -1    0    0  501    0  0.00000000000E+00 -0.00000000000E+00 -0.82423516936E+03  0.82423516937E+03  0.25500000000E-02 0.  1.
    5000001    1    1    2    0    0  0.70623924438E+02 -0.27012145550E+03  0.92120806119E+02  0.35114609829E+03  0.19200000000E+03 0.  0.
   -5000001    1    1    2    0    0 -0.70623924438E+02  0.27012145550E+03 -0.65340482608E+03  0.73604022049E+03  0.19200000000E+03 0.  0.
<mgrwt>
<rscale>  0 0.93109309E+03</rscale>
<asrwt>0</asrwt>
<pdfrwt beam="1">  1        2 0.11774788E+00 0.93109309E+03</pdfrwt>
<pdfrwt beam="2">  1       -2 0.37564450E-01 0.93109309E+03</pdfrwt>
<totfact> 0.24432078E+02</totfact>
</mgrwt>
</event>
<event>
 4    1  0.2013882E-005  0.4959638E+03  0.7818608E-02  0.1014838E+00
          2   -1    0    0  501    0  0.00000000000E+00  0.00000000000E+00  0.59705146535E+03  0.59705146535E+03  0.25500000000E-02 0.  1.
         -2   -1    0    0    0  501 -0.00000000000E+00 -0.00000000000E+00 -0.10299784728E+03  0.10299784731E+03  0.25500000000E-02 0. -1.
    5000001    1    1    2    0    0 -0.56486627023E+02 -0.11876187159E+03  0.36792093997E+03  0.43534462124E+03  0.19200000000E+03 0.  0.
   -5000001    1    1    2    0    0  0.56486627023E+02  0.11876187159E+03  0.12613267810E+03  0.26470469142E+03  0.19200000000E+03 0.  0.
<mgrwt>
<rscale>  0 0.49596377E+03</rscale>
<asrwt>0</asrwt>
<pdfrwt beam="1">  1        2 0.85293066E-01 0.49596377E+03</pdfrwt>
<pdfrwt beam="2">  1       -2 0.14713978E-01 0.49596377E+03</pdfrwt>
<totfact> 0.19678780E+03</totfact>
</mgrwt>
</event>
<event>
 4    1  0.2013882E-005  0.4604589E+03  0.7818608E-02  0.1024648E+00
          2   -1    0    0  501    0  0.00000000000E+00  0.00000000000E+00  0.30025320892E+03  0.30025320894E+03  0.25500000000E-02 0.  1.
         -2   -1    0    0    0  501 -0.00000000000E+00 -0.00000000000E+00 -0.17653629745E+03  0.17653629747E+03  0.25500000000E-02 0. -1.
    5000001    1    1    2    0    0 -0.10746978145E+03 -0.55175899481E+02  0.10259132577E+03  0.24896408161E+03  0.19200000000E+03 0.  0.
   -5000001    1    1    2    0    0  0.10746978145E+03  0.55175899481E+02  0.21125585704E+02  0.22782542479E+03  0.19200000000E+03 0.  0.
<mgrwt>
<rscale>  0 0.46045886E+03</rscale>
<asrwt>0</asrwt>
<pdfrwt beam="1">  1        2 0.42893316E-01 0.46045886E+03</pdfrwt>
<pdfrwt beam="2">  1       -2 0.25219471E-01 0.46045886E+03</pdfrwt>
<totfact> 0.16709311E+03</totfact>
</mgrwt>
</event>
<event>
 4    1  0.2013882E-005  0.9232226E+03  0.7818608E-02  0.9397009E-01
         -2   -1    0    0    0  501 -0.00000000000E+00  0.00000000000E+00  0.71689535318E+02  0.71689535363E+02  0.25500000000E-02 0.  1.
          2   -1    0    0  501    0  0.00000000000E+00 -0.00000000000E+00 -0.29723304171E+04  0.29723304171E+04  0.25500000000E-02 0. -1.
    5000001    1    1    2    0    0 -0.41298495992E+02 -0.16540163234E+03 -0.27151517276E+04  0.27272653281E+04  0.19200000000E+03 0.  0.
   -5000001    1    1    2    0    0  0.41298495992E+02  0.16540163234E+03 -0.18548915414E+03  0.31675462436E+03  0.19200000000E+03 0.  0.
<mgrwt>
<rscale>  0 0.92322259E+03</rscale>
<asrwt>0</asrwt>
<pdfrwt beam="1">  1        2 0.42461855E+00 0.92322259E+03</pdfrwt>
<pdfrwt beam="2">  1       -2 0.10241364E-01 0.92322259E+03</pdfrwt>
<totfact> 0.16599993E+02</totfact>
</mgrwt>
</event>
<event>
 4    1  0.2013882E-005  0.1004566E+04  0.7818608E-02  0.9303551E-01
          2   -1    0    0  501    0  0.00000000000E+00  0.00000000000E+00  0.59911966639E+03  0.59911966640E+03  0.25500000000E-02 0. -1.
         -2   -1    0    0    0  501 -0.00000000000E+00 -0.00000000000E+00 -0.42109799914E+03  0.42109799914E+03  0.25500000000E-02 0.  1.
    5000001    1    1    2    0    0 -0.32636083292E+03 -0.20042351191E+03  0.35528502339E+03  0.55657203059E+03  0.19200000000E+03 0.  0.
   -5000001    1    1    2    0    0  0.32636083292E+03  0.20042351191E+03 -0.17726335613E+03  0.46364563496E+03  0.19200000000E+03 0.  0.
<mgrwt>
<rscale>  0 0.10045658E+04</rscale>
<asrwt>0</asrwt>
<pdfrwt beam="1">  1        2 0.85588523E-01 0.10045658E+04</pdfrwt>
<pdfrwt beam="2">  1       -2 0.60156858E-01 0.10045658E+04</pdfrwt>
<totfact> 0.13982238E+02</totfact>
</mgrwt>
</event>
<event>
 4    1  0.2013882E-005  0.6379982E+03  0.7818608E-02  0.9829564E-01
         -2   -1    0    0    0  501 -0.00000000000E+00  0.00000000000E+00  0.36318955219E+03  0.36318955220E+03  0.25500000000E-02 0. -1.
          2   -1    0    0  501    0  0.00000000000E+00 -0.00000000000E+00 -0.28018546540E+03  0.28018546541E+03  0.25500000000E-02 0.  1.
    5000001    1    1    2    0    0  0.23700330862E+03 -0.34370726711E+02  0.12909324590E+03  0.33298795967E+03  0.19200000000E+03 0.  0.
   -5000001    1    1    2    0    0 -0.23700330862E+03  0.34370726711E+02 -0.46089159109E+02  0.31038705794E+03  0.19200000000E+03 0.  0.
<mgrwt>
<rscale>  0 0.63799822E+03</rscale>
<asrwt>0</asrwt>
<pdfrwt beam="1">  1        2 0.40026495E-01 0.63799822E+03</pdfrwt>
<pdfrwt beam="2">  1       -2 0.51884222E-01 0.63799822E+03</pdfrwt>
<totfact> 0.45520927E+02</totfact>
</mgrwt>
</event>
<event>
 4    1  0.2013882E-005  0.4228773E+03  0.7818608E-02  0.1036134E+00
          2   -1    0    0  501    0  0.00000000000E+00  0.00000000000E+00  0.70638800018E+03  0.70638800019E+03  0.25500000000E-02 0.  1.
         -2   -1    0    0    0  501 -0.00000000000E+00 -0.00000000000E+00 -0.63288584586E+02  0.63288584638E+02  0.25500000000E-02 0. -1.
    5000001    1    1    2    0    0  0.56319463776E+02  0.50299682584E+02  0.23734487761E+03  0.31448136828E+03  0.19200000000E+03 0.  0.
   -5000001    1    1    2    0    0 -0.56319463776E+02 -0.50299682584E+02  0.40575453799E+03  0.45519521655E+03  0.19200000000E+03 0.  0.
<mgrwt>
<rscale>  0 0.42287727E+03</rscale>
<asrwt>0</asrwt>
<pdfrwt beam="1">  1        2 0.10091257E+00 0.42287727E+03</pdfrwt>
<pdfrwt beam="2">  1       -2 0.90412266E-02 0.42287727E+03</pdfrwt>
<totfact> 0.35619445E+03</totfact>
</mgrwt>
</event>
<event>
 4    1  0.2013882E-005  0.5016644E+03  0.7818608E-02  0.1013345E+00
          2   -1    0    0  501    0  0.00000000000E+00  0.00000000000E+00  0.60279802203E+03  0.60279802203E+03  0.25500000000E-02 0.  1.
         -2   -1    0    0    0  501 -0.00000000000E+00 -0.00000000000E+00 -0.10437459190E+03  0.10437459193E+03  0.25500000000E-02 0. -1.
    5000001    1    1    2    0    0 -0.46341742669E+02  0.91019760503E+02  0.73029690614E+02  0.22941118026E+03  0.19200000000E+03 0.  0.
   -5000001    1    1    2    0    0  0.46341742669E+02 -0.91019760503E+02  0.42539373952E+03  0.47776143370E+03  0.19200000000E+03 0.  0.
<mgrwt>
<rscale>  0 0.50166442E+03</rscale>
<asrwt>0</asrwt>
<pdfrwt beam="1">  1        2 0.86114004E-01 0.50166442E+03</pdfrwt>
<pdfrwt beam="2">  1       -2 0.14910656E-01 0.50166442E+03</pdfrwt>
<totfact> 0.19032458E+03</totfact>
</mgrwt>
</event>
<event>
 4    1  0.2013882E-005  0.8928475E+03  0.7818608E-02  0.9434567E-01
          2   -1    0    0  501    0  0.00000000000E+00  0.00000000000E+00  0.20326117808E+03  0.20326117810E+03  0.25500000000E-02 0.  1.
         -2   -1    0    0    0  501 -0.00000000000E+00 -0.00000000000E+00 -0.98048308038E+03  0.98048308039E+03  0.25500000000E-02 0. -1.
    5000001    1    1    2    0    0  0.24829661572E+03  0.12002172671E+03  0.10361373716E+01  0.33603794108E+03  0.19200000000E+03 0.  0.
   -5000001    1    1    2    0    0 -0.24829661572E+03 -0.12002172671E+03 -0.77825803967E+03  0.84770631741E+03  0.19200000000E+03 0.  0.
<mgrwt>
<rscale>  0 0.89284746E+03</rscale>
<asrwt>0</asrwt>
<pdfrwt beam="1">  1        2 0.29037312E-01 0.89284746E+03</pdfrwt>
<pdfrwt beam="2">  1       -2 0.14006901E+00 0.89284746E+03</pdfrwt>
<totfact> 0.66492209E+01</totfact>
</mgrwt>
</event>
<event>
 4    1  0.2013882E-005  0.5024151E+03  0.7818608E-02  0.1013150E+00
         -2   -1    0    0    0  501 -0.00000000000E+00  0.00000000000E+00  0.11351767972E+03  0.11351767975E+03  0.25500000000E-02 0. -1.
          2   -1    0    0  501    0  0.00000000000E+00 -0.00000000000E+00 -0.55590659469E+03  0.55590659470E+03  0.25500000000E-02 0.  1.
    5000001    1    1    2    0    0 -0.13337957656E+03  0.86685354039E+02 -0.26197509977E+03  0.36166201756E+03  0.19200000000E+03 0.  0.
   -5000001    1    1    2    0    0  0.13337957656E+03 -0.86685354039E+02 -0.18041381521E+03  0.30776225689E+03  0.19200000000E+03 0.  0.
<mgrwt>
<rscale>  0 0.50241507E+03</rscale>
<asrwt>0</asrwt>
<pdfrwt beam="1">  1        2 0.79415226E-01 0.50241507E+03</pdfrwt>
<pdfrwt beam="2">  1       -2 0.16216812E-01 0.50241507E+03</pdfrwt>
<totfact> 0.18152317E+03</totfact>
</mgrwt>
</event>
<event>
 4    1  0.2013882E-005  0.6284286E+03  0.7818608E-02  0.9848120E-01
         -2   -1    0    0    0  501 -0.00000000000E+00  0.00000000000E+00  0.11368639372E+03  0.11368639375E+03  0.25500000000E-02 0. -1.
          2   -1    0    0  501    0  0.00000000000E+00 -0.00000000000E+00 -0.86844723336E+03  0.86844723337E+03  0.25500000000E-02 0.  1.
    5000001    1    1    2    0    0  0.13236140045E+03  0.20943519304E+03 -0.34299815517E+03  0.46464435309E+03  0.19200000000E+03 0.  0.
   -5000001    1    1    2    0    0 -0.13236140045E+03 -0.20943519304E+03 -0.41176268447E+03  0.51748927403E+03  0.19200000000E+03 0.  0.
<mgrwt>
<rscale>  0 0.62842862E+03</rscale>
<asrwt>0</asrwt>
<pdfrwt beam="1">  1        2 0.12406389E+00 0.62842862E+03</pdfrwt>
<pdfrwt beam="2">  1       -2 0.16240914E-01 0.62842862E+03</pdfrwt>
<totfact> 0.10476380E+03</totfact>
</mgrwt>
</event>
<event>
 4    1  0.2013882E-005  0.5598542E+03  0.7818608E-02  0.9992385E-01
         -2   -1    0    0    0  501 -0.00000000000E+00  0.00000000000E+00  0.52962793023E+02  0.52962793085E+02  0.25500000000E-02 0. -1.
          2   -1    0    0  501    0  0.00000000000E+00 -0.00000000000E+00 -0.14795138923E+04  0.14795138923E+04  0.25500000000E-02 0.  1.
    5000001    1    1    2    0    0  0.19059715972E+03 -0.10225374067E+02 -0.51849840289E+03  0.58492429370E+03  0.19200000000E+03 0.  0.
   -5000001    1    1    2    0    0 -0.19059715972E+03  0.10225374067E+02 -0.90805269637E+03  0.94755239166E+03  0.19200000000E+03 0.  0.
<mgrwt>
<rscale>  0 0.55985422E+03</rscale>
<asrwt>0</asrwt>
<pdfrwt beam="1">  1        2 0.21135910E+00 0.55985422E+03</pdfrwt>
<pdfrwt beam="2">  1       -2 0.75661142E-02 0.55985422E+03</pdfrwt>
<totfact> 0.16353620E+03</totfact>
</mgrwt>
</event>
<event>
 4    1  0.2013882E-005  0.5735281E+03  0.7818608E-02  0.9961902E-01
          2   -1    0    0  501    0  0.00000000000E+00  0.00000000000E+00  0.25670889737E+03  0.25670889739E+03  0.25500000000E-02 0.  1.
         -2   -1    0    0    0  501 -0.00000000000E+00 -0.00000000000E+00 -0.32033807673E+03  0.32033807674E+03  0.25500000000E-02 0. -1.
    5000001    1    1    2    0    0  0.13684173725E+03 -0.15188050301E+03 -0.91983557962E+02  0.29515813250E+03  0.19200000000E+03 0.  0.
   -5000001    1    1    2    0    0 -0.13684173725E+03  0.15188050301E+03  0.28354378601E+02  0.28188884163E+03  0.19200000000E+03 0.  0.
<mgrwt>
<rscale>  0 0.57352815E+03</rscale>
<asrwt>0</asrwt>
<pdfrwt beam="1">  1        2 0.36672700E-01 0.57352815E+03</pdfrwt>
<pdfrwt beam="2">  1       -2 0.45762582E-01 0.57352815E+03</pdfrwt>
<totfact> 0.64673617E+02</totfact>
</mgrwt>
</event>
<event>
 4    1  0.2013882E-005  0.5160983E+03  0.7818608E-02  0.1009660E+00
          2   -1    0    0  501    0  0.00000000000E+00  0.00000000000E+00  0.13455390479E+04  0.13455390479E+04  0.25500000000E-02 0.  1.
         -2   -1    0    0    0  501 -0.00000000000E+00 -0.00000000000E+00 -0.49488990438E+02  0.49488990504E+02  0.25500000000E-02 0. -1.
    5000001    1    1    2    0    0  0.14090853661E+03  0.59455006641E+02  0.43287938243E+03  0.49763307089E+03  0.19200000000E+03 0.  0.
   -5000001    1    1    2    0    0 -0.14090853661E+03 -0.59455006641E+02  0.86317067503E+03  0.89739496752E+03  0.19200000000E+03 0.  0.
<mgrwt>
<rscale>  0 0.51609832E+03</rscale>
<asrwt>0</asrwt>
<pdfrwt beam="1">  1        2 0.19221987E+00 0.51609832E+03</pdfrwt>
<pdfrwt beam="2">  1       -2 0.70698555E-02 0.51609832E+03</pdfrwt>
<totfact> 0.21445905E+03</totfact>
</mgrwt>
</event>
<event>
 4    1  0.2013882E-005  0.1172202E+04  0.7818608E-02  0.9137542E-01
          2   -1    0    0  501    0  0.00000000000E+00  0.00000000000E+00  0.17439790064E+04  0.17439790064E+04  0.25500000000E-02 0.  1.
         -2   -1    0    0    0  501 -0.00000000000E+00 -0.00000000000E+00 -0.19697173312E+03  0.19697173313E+03  0.25500000000E-02 0. -1.
    5000001    1    1    2    0    0 -0.26897664370E+03 -0.16040361571E+03  0.17296473194E+02  0.36775116965E+03  0.19200000000E+03 0.  0.
   -5000001    1    1    2    0    0  0.26897664370E+03  0.16040361571E+03  0.15297108001E+04  0.15731995699E+04  0.19200000000E+03 0.  0.
<mgrwt>
<rscale>  0 0.11722023E+04</rscale>
<asrwt>0</asrwt>
<pdfrwt beam="1">  1        2 0.24913985E+00 0.11722023E+04</pdfrwt>
<pdfrwt beam="2">  1       -2 0.28138820E-01 0.11722023E+04</pdfrwt>
<totfact> 0.12416077E+02</totfact>
</mgrwt>
</event>
<event>
 4    1  0.2013882E-005  0.6279591E+03  0.7818608E-02  0.9849040E-01
         -2   -1    0    0    0  501 -0.00000000000E+00  0.00000000000E+00  0.53674603135E+02  0.53674603196E+02  0.25500000000E-02 0. -1.
          2   -1    0    0  501    0  0.00000000000E+00 -0.00000000000E+00 -0.18366813579E+04  0.18366813579E+04  0.25500000000E-02 0.  1.
    5000001    1    1    2    0    0  0.37273036819E+02 -0.18381051142E+03 -0.13819501119E+04  0.14077733110E+04  0.19200000000E+03 0.  0.
   -5000001    1    1    2    0    0 -0.37273036819E+02  0.18381051142E+03 -0.40105664282E+03  0.48258265005E+03  0.19200000000E+03 0.  0.
<mgrwt>
<rscale>  0 0.62795905E+03</rscale>
<asrwt>0</asrwt>
<pdfrwt beam="1">  1        2 0.26238301E+00 0.62795905E+03</pdfrwt>
<pdfrwt beam="2">  1       -2 0.76678016E-02 0.62795905E+03</pdfrwt>
<totfact> 0.10484425E+03</totfact>
</mgrwt>
</event>
<event>
 4    1  0.2013882E-005  0.7522897E+03  0.7818608E-02  0.9631765E-01
         -2   -1    0    0    0  501 -0.00000000000E+00  0.00000000000E+00  0.25666849124E+03  0.25666849126E+03  0.25500000000E-02 0. -1.
          2   -1    0    0  501    0  0.00000000000E+00 -0.00000000000E+00 -0.55123616580E+03  0.55123616581E+03  0.25500000000E-02 0.  1.
    5000001    1    1    2    0    0 -0.58235121963E+02  0.29735063542E+03 -0.25724795761E+02  0.35963105390E+03  0.19200000000E+03 0.  0.
   -5000001    1    1    2    0    0  0.58235121963E+02 -0.29735063542E+03 -0.26884287880E+03  0.44827360317E+03  0.19200000000E+03 0.  0.
<mgrwt>
<rscale>  0 0.75228972E+03</rscale>
<asrwt>0</asrwt>
<pdfrwt beam="1">  1        2 0.78748023E-01 0.75228972E+03</pdfrwt>
<pdfrwt beam="2">  1       -2 0.36666927E-01 0.75228972E+03</pdfrwt>
<totfact> 0.42223350E+02</totfact>
</mgrwt>
</event>
<event>
 4    1  0.2013882E-005  0.6881196E+03  0.7818608E-02  0.9737768E-01
         -2   -1    0    0    0  501 -0.00000000000E+00  0.00000000000E+00  0.36849238178E+03  0.36849238179E+03  0.25500000000E-02 0. -1.
          2   -1    0    0  501    0  0.00000000000E+00 -0.00000000000E+00 -0.32124722388E+03  0.32124722389E+03  0.25500000000E-02 0.  1.
    5000001    1    1    2    0    0  0.21460432174E+03  0.97565079995E+02  0.18505823639E+03  0.35592767608E+03  0.19200000000E+03 0.  0.
   -5000001    1    1    2    0    0 -0.21460432174E+03 -0.97565079995E+02 -0.13781307849E+03  0.33381192960E+03  0.19200000000E+03 0.  0.
<mgrwt>
<rscale>  0 0.68811963E+03</rscale>
<asrwt>0</asrwt>
<pdfrwt beam="1">  1        2 0.45892460E-01 0.68811963E+03</pdfrwt>
<pdfrwt beam="2">  1       -2 0.52641769E-01 0.68811963E+03</pdfrwt>
<totfact> 0.37938644E+02</totfact>
</mgrwt>
</event>
<event>
 4    1  0.2013882E-005  0.5599647E+03  0.7818608E-02  0.9992135E-01
          2   -1    0    0  501    0  0.00000000000E+00  0.00000000000E+00  0.13680806882E+04  0.13680806882E+04  0.25500000000E-02 0.  1.
         -2   -1    0    0    0  501 -0.00000000000E+00 -0.00000000000E+00 -0.57299333375E+02  0.57299333432E+02  0.25500000000E-02 0. -1.
    5000001    1    1    2    0    0 -0.19819064139E+03 -0.14338872860E+02  0.77038838387E+03  0.81844205391E+03  0.19200000000E+03 0.  0.
   -5000001    1    1    2    0    0  0.19819064139E+03  0.14338872860E+02  0.54039297100E+03  0.60693796776E+03  0.19200000000E+03 0.  0.
<mgrwt>
<rscale>  0 0.55996468E+03</rscale>
<asrwt>0</asrwt>
<pdfrwt beam="1">  1        2 0.19544008E+00 0.55996468E+03</pdfrwt>
<pdfrwt beam="2">  1       -2 0.81856196E-02 0.55996468E+03</pdfrwt>
<totfact> 0.16520939E+03</totfact>
</mgrwt>
</event>
<event>
 4    1  0.2013882E-005  0.4437269E+03  0.7818608E-02  0.1029609E+00
         -2   -1    0    0    0  501 -0.00000000000E+00  0.00000000000E+00  0.97406595711E+02  0.97406595745E+02  0.25500000000E-02 0. -1.
          2   -1    0    0  501    0  0.00000000000E+00 -0.00000000000E+00 -0.50533948855E+03  0.50533948855E+03  0.25500000000E-02 0.  1.
    5000001    1    1    2    0    0 -0.58734837253E+02  0.31238703334E+02 -0.82974023537E+02  0.21948650591E+03  0.19200000000E+03 0.  0.
   -5000001    1    1    2    0    0  0.58734837253E+02 -0.31238703334E+02 -0.32495886930E+03  0.38325957839E+03  0.19200000000E+03 0.  0.
<mgrwt>
<rscale>  0 0.44372694E+03</rscale>
<asrwt>0</asrwt>
<pdfrwt beam="1">  1        2 0.72191354E-01 0.44372694E+03</pdfrwt>
<pdfrwt beam="2">  1       -2 0.13915228E-01 0.44372694E+03</pdfrwt>
<totfact> 0.26124687E+03</totfact>
</mgrwt>
</event>
<event>
 4    1  0.2013882E-005  0.7392006E+03  0.7818608E-02  0.9652447E-01
          2   -1    0    0  501    0  0.00000000000E+00  0.00000000000E+00  0.28547267906E+04  0.28547267906E+04  0.25500000000E-02 0.  1.
         -2   -1    0    0    0  501 -0.00000000000E+00 -0.00000000000E+00 -0.47852001411E+02  0.47852001479E+02  0.25500000000E-02 0. -1.
    5000001    1    1    2    0    0  0.28185120271E+03 -0.61410759591E+02  0.19082673263E+04  0.19394740448E+04  0.19200000000E+03 0.  0.
   -5000001    1    1    2    0    0 -0.28185120271E+03  0.61410759591E+02  0.89860746291E+03  0.96310474729E+03  0.19200000000E+03 0.  0.
<mgrwt>
<rscale>  0 0.73920062E+03</rscale>
<asrwt>0</asrwt>
<pdfrwt beam="1">  1        2 0.40781816E+00 0.73920062E+03</pdfrwt>
<pdfrwt beam="2">  1       -2 0.68359994E-02 0.73920062E+03</pdfrwt>
<totfact> 0.37477169E+02</totfact>
</mgrwt>
</event>
<event>
 4    1  0.2013882E-005  0.6972494E+03  0.7818608E-02  0.9721948E-01
          2   -1    0    0  501    0  0.00000000000E+00  0.00000000000E+00  0.72661074867E+03  0.72661074867E+03  0.25500000000E-02 0.  1.
         -2   -1    0    0    0  501 -0.00000000000E+00 -0.00000000000E+00 -0.16726862743E+03  0.16726862745E+03  0.25500000000E-02 0. -1.
    5000001    1    1    2    0    0  0.79852096455E+02 -0.19885751066E+03  0.53204930985E+03  0.60486455919E+03  0.19200000000E+03 0.  0.
   -5000001    1    1    2    0    0 -0.79852096455E+02  0.19885751066E+03  0.27292811381E+02  0.28901481693E+03  0.19200000000E+03 0.  0.
<mgrwt>
<rscale>  0 0.69724940E+03</rscale>
<asrwt>0</asrwt>
<pdfrwt beam="1">  1        2 0.10380153E+00 0.69724940E+03</pdfrwt>
<pdfrwt beam="2">  1       -2 0.23895518E-01 0.69724940E+03</pdfrwt>
<totfact> 0.67049463E+02</totfact>
</mgrwt>
</event>
<event>
 4    1  0.2013882E-005  0.6535866E+03  0.7818608E-02  0.9800072E-01
          2   -1    0    0  501    0  0.00000000000E+00  0.00000000000E+00  0.11197123789E+04  0.11197123789E+04  0.25500000000E-02 0.  1.
         -2   -1    0    0    0  501 -0.00000000000E+00 -0.00000000000E+00 -0.95376157749E+02  0.95376157783E+02  0.25500000000E-02 0. -1.
    5000001    1    1    2    0    0  0.11085188548E+03 -0.99123257787E+02  0.91869827688E+03  0.95025474726E+03  0.19200000000E+03 0.  0.
   -5000001    1    1    2    0    0 -0.11085188548E+03  0.99123257787E+02  0.10563794426E+03  0.26483378942E+03  0.19200000000E+03 0.  0.
<mgrwt>
<rscale>  0 0.65358661E+03</rscale>
<asrwt>0</asrwt>
<pdfrwt beam="1">  1        2 0.15995892E+00 0.65358661E+03</pdfrwt>
<pdfrwt beam="2">  1       -2 0.13625164E-01 0.65358661E+03</pdfrwt>
<totfact> 0.98596738E+02</totfact>
</mgrwt>
</event>
<event>
 4    1  0.2013882E-005  0.4387064E+03  0.7818608E-02  0.1031144E+00
          2   -1    0    0  501    0  0.00000000000E+00  0.00000000000E+00  0.47961296292E+03  0.47961296292E+03  0.25500000000E-02 0.  1.
         -2   -1    0    0    0  501 -0.00000000000E+00 -0.00000000000E+00 -0.10032219904E+03  0.10032219907E+03  0.25500000000E-02 0. -1.
    5000001    1    1    2    0    0 -0.24840788714E+02  0.10274346383E+03  0.17792992603E+03  0.28230540682E+03  0.19200000000E+03 0.  0.
   -5000001    1    1    2    0    0  0.24840788714E+02 -0.10274346383E+03  0.20136083785E+03  0.29762975517E+03  0.19200000000E+03 0.  0.
<mgrwt>
<rscale>  0 0.43870640E+03</rscale>
<asrwt>0</asrwt>
<pdfrwt beam="1">  1        2 0.68516138E-01 0.43870640E+03</pdfrwt>
<pdfrwt beam="2">  1       -2 0.14331743E-01 0.43870640E+03</pdfrwt>
<totfact> 0.26376519E+03</totfact>
</mgrwt>
</event>
<event>
 4    1  0.2013882E-005  0.5338164E+03  0.7818608E-02  0.1005311E+00
          2   -1    0    0  501    0  0.00000000000E+00  0.00000000000E+00  0.12820491601E+04  0.12820491601E+04  0.25500000000E-02 0.  1.
         -2   -1    0    0    0  501 -0.00000000000E+00 -0.00000000000E+00 -0.55567285281E+02  0.55567285340E+02  0.25500000000E-02 0. -1.
    5000001    1    1    2    0    0 -0.13211562447E+03 -0.38798671161E+02  0.92436038876E+03  0.95407861491E+03  0.19200000000E+03 0.  0.
   -5000001    1    1    2    0    0  0.13211562447E+03  0.38798671161E+02  0.30212148606E+03  0.38353783054E+03  0.19200000000E+03 0.  0.
<mgrwt>
<rscale>  0 0.53381642E+03</rscale>
<asrwt>0</asrwt>
<pdfrwt beam="1">  1        2 0.18314989E+00 0.53381642E+03</pdfrwt>
<pdfrwt beam="2">  1       -2 0.79381834E-02 0.53381642E+03</pdfrwt>
<totfact> 0.19312480E+03</totfact>
</mgrwt>
</event>
<event>
 4    1  0.2013882E-005  0.7536337E+03  0.7818608E-02  0.9629667E-01
          2   -1    0    0  501    0  0.00000000000E+00  0.00000000000E+00  0.26498016157E+04  0.26498016157E+04  0.25500000000E-02 0.  1.
         -2   -1    0    0    0  501 -0.00000000000E+00 -0.00000000000E+00 -0.53585495041E+02  0.53585495101E+02  0.25500000000E-02 0. -1.
    5000001    1    1    2    0    0 -0.24745505782E+03 -0.17498110793E+03  0.17114006714E+04  0.17486019135E+04  0.19200000000E+03 0.  0.
   -5000001    1    1    2    0    0  0.24745505782E+03  0.17498110793E+03  0.88481544926E+03  0.95478519732E+03  0.19200000000E+03 0.  0.
<mgrwt>
<rscale>  0 0.75363368E+03</rscale>
<asrwt>0</asrwt>
<pdfrwt beam="1">  1        2 0.37854320E+00 0.75363368E+03</pdfrwt>
<pdfrwt beam="2">  1       -2 0.76550685E-02 0.75363368E+03</pdfrwt>
<totfact> 0.40150224E+02</totfact>
</mgrwt>
</event>
<event>
 4    1  0.2013882E-005  0.4118242E+03  0.7818608E-02  0.1039761E+00
          2   -1    0    0  501    0  0.00000000000E+00  0.00000000000E+00  0.17851596262E+04  0.17851596262E+04  0.25500000000E-02 0.  1.
         -2   -1    0    0    0  501 -0.00000000000E+00 -0.00000000000E+00 -0.23751265705E+02  0.23751265842E+02  0.25500000000E-02 0. -1.
    5000001    1    1    2    0    0 -0.24576878843E+02  0.26011798008E+02  0.59417858184E+03  0.62545409402E+03  0.19200000000E+03 0.  0.
   -5000001    1    1    2    0    0  0.24576878843E+02 -0.26011798008E+02  0.11672297786E+04  0.11834567980E+04  0.19200000000E+03 0.  0.
<mgrwt>
<rscale>  0 0.41182424E+03</rscale>
<asrwt>0</asrwt>
<pdfrwt beam="1">  1        2 0.25502284E+00 0.41182424E+03</pdfrwt>
<pdfrwt beam="2">  1       -2 0.33930375E-02 0.41182424E+03</pdfrwt>
<totfact> 0.39623973E+03</totfact>
</mgrwt>
</event>
<event>
 4    1  0.2013882E-005  0.1116746E+04  0.7818608E-02  0.9189022E-01
         -2   -1    0    0    0  501 -0.00000000000E+00  0.00000000000E+00  0.12850635180E+03  0.12850635182E+03  0.25500000000E-02 0. -1.
          2   -1    0    0  501    0  0.00000000000E+00 -0.00000000000E+00 -0.24261848935E+04  0.24261848935E+04  0.25500000000E-02 0.  1.
    5000001    1    1    2    0    0  0.31922444769E+03  0.33885992686E+03 -0.17006535714E+04  0.17736450795E+04  0.19200000000E+03 0.  0.
   -5000001    1    1    2    0    0 -0.31922444769E+03 -0.33885992686E+03 -0.59702497034E+03  0.78104616589E+03  0.19200000000E+03 0.  0.
<mgrwt>
<rscale>  0 0.11167456E+04</rscale>
<asrwt>0</asrwt>
<pdfrwt beam="1">  1        2 0.34659781E+00 0.11167456E+04</pdfrwt>
<pdfrwt beam="2">  1       -2 0.18358052E-01 0.11167456E+04</pdfrwt>
<totfact> 0.11935003E+02</totfact>
</mgrwt>
</event>
<event>
 4    1  0.2013882E-005  0.5491771E+03  0.7818608E-02  0.1001685E+00
         -2   -1    0    0    0  501 -0.00000000000E+00  0.00000000000E+00  0.39500797564E+02  0.39500797646E+02  0.25500000000E-02 0. -1.
          2   -1    0    0  501    0  0.00000000000E+00 -0.00000000000E+00 -0.19087937787E+04  0.19087937787E+04  0.25500000000E-02 0.  1.
    5000001    1    1    2    0    0 -0.98124805128E+02 -0.85971422695E+02 -0.14550210191E+04  0.14734210970E+04  0.19200000000E+03 0.  0.
   -5000001    1    1    2    0    0  0.98124805128E+02  0.85971422695E+02 -0.41427196195E+03  0.47487347932E+03  0.19200000000E+03 0.  0.
<mgrwt>
<rscale>  0 0.54917712E+03</rscale>
<asrwt>0</asrwt>
<pdfrwt beam="1">  1        2 0.27268477E+00 0.54917712E+03</pdfrwt>
<pdfrwt beam="2">  1       -2 0.56429723E-02 0.54917712E+03</pdfrwt>
<totfact> 0.15685379E+03</totfact>
</mgrwt>
</event>
<event>
 4    1  0.2013882E-005  0.5693651E+03  0.7818608E-02  0.9971085E-01
         -2   -1    0    0    0  501 -0.00000000000E+00  0.00000000000E+00  0.10110266229E+04  0.10110266229E+04  0.25500000000E-02 0. -1.
          2   -1    0    0  501    0  0.00000000000E+00 -0.00000000000E+00 -0.80160261589E+02  0.80160261630E+02  0.25500000000E-02 0.  1.
    5000001    1    1    2    0    0 -0.17077862178E+03  0.11626533259E+03  0.39127702111E+03  0.48233253308E+03  0.19200000000E+03 0.  0.
   -5000001    1    1    2    0    0  0.17077862178E+03 -0.11626533259E+03  0.53958934018E+03  0.60885435143E+03  0.19200000000E+03 0.  0.
<mgrwt>
<rscale>  0 0.56936512E+03</rscale>
<asrwt>0</asrwt>
<pdfrwt beam="1">  1        2 0.11451467E-01 0.56936512E+03</pdfrwt>
<pdfrwt beam="2">  1       -2 0.14443237E+00 0.56936512E+03</pdfrwt>
<totfact> 0.18835012E+02</totfact>
</mgrwt>
</event>
<event>
 4    1  0.2013882E-005  0.8291850E+03  0.7818608E-02  0.9518708E-01
          2   -1    0    0  501    0  0.00000000000E+00  0.00000000000E+00  0.12930870071E+03  0.12930870073E+03  0.25500000000E-02 0.  1.
         -2   -1    0    0    0  501 -0.00000000000E+00 -0.00000000000E+00 -0.13292758841E+04  0.13292758841E+04  0.25500000000E-02 0. -1.
    5000001    1    1    2    0    0 -0.29997683978E+03  0.20924652266E+03 -0.66224346052E+03  0.78051304451E+03  0.19200000000E+03 0.  0.
   -5000001    1    1    2    0    0  0.29997683978E+03 -0.20924652266E+03 -0.53772372285E+03  0.67807154030E+03  0.19200000000E+03 0.  0.
<mgrwt>
<rscale>  0 0.82918499E+03</rscale>
<asrwt>0</asrwt>
<pdfrwt beam="1">  1        2 0.18472672E-01 0.82918499E+03</pdfrwt>
<pdfrwt beam="2">  1       -2 0.18989655E+00 0.82918499E+03</pdfrwt>
<totfact> 0.49003770E+01</totfact>
</mgrwt>
</event>
<event>
 4    1  0.2013882E-005  0.4448876E+03  0.7818608E-02  0.1029258E+00
         -2   -1    0    0    0  501 -0.00000000000E+00  0.00000000000E+00  0.29319759983E+03  0.29319759984E+03  0.25500000000E-02 0. -1.
          2   -1    0    0  501    0  0.00000000000E+00 -0.00000000000E+00 -0.16876417623E+03  0.16876417625E+03  0.25500000000E-02 0.  1.
    5000001    1    1    2    0    0  0.90154612160E+02 -0.47657355408E+02  0.13311685740E+02  0.21780789379E+03  0.19200000000E+03 0.  0.
   -5000001    1    1    2    0    0 -0.90154612160E+02  0.47657355408E+02  0.11112173786E+03  0.24415388230E+03  0.19200000000E+03 0.  0.
<mgrwt>
<rscale>  0 0.44488763E+03</rscale>
<asrwt>0</asrwt>
<pdfrwt beam="1">  1        2 0.24109168E-01 0.44488763E+03</pdfrwt>
<pdfrwt beam="2">  1       -2 0.41885371E-01 0.44488763E+03</pdfrwt>
<totfact> 0.12319644E+03</totfact>
</mgrwt>
</event>
<event>
 4    1  0.2013882E-005  0.5798852E+03  0.7818608E-02  0.9948040E-01
          2   -1    0    0  501    0  0.00000000000E+00  0.00000000000E+00  0.49710880313E+03  0.49710880314E+03  0.25500000000E-02 0. -1.
         -2   -1    0    0    0  501 -0.00000000000E+00 -0.00000000000E+00 -0.16911126892E+03  0.16911126894E+03  0.25500000000E-02 0.  1.
    5000001    1    1    2    0    0  0.22015723662E+02  0.20038562773E+03  0.70920764672E+02  0.28728530549E+03  0.19200000000E+03 0.  0.
   -5000001    1    1    2    0    0 -0.22015723662E+02 -0.20038562773E+03  0.25707676954E+03  0.37893476659E+03  0.19200000000E+03 0.  0.
<mgrwt>
<rscale>  0 0.57988516E+03</rscale>
<asrwt>0</asrwt>
<pdfrwt beam="1">  1        2 0.71015544E-01 0.57988516E+03</pdfrwt>
<pdfrwt beam="2">  1       -2 0.24158752E-01 0.57988516E+03</pdfrwt>
<totfact> 0.10323377E+03</totfact>
</mgrwt>
</event>
<event>
 4    1  0.2013882E-005  0.8378730E+03  0.7818608E-02  0.9506759E-01
          2   -1    0    0  501    0  0.00000000000E+00  0.00000000000E+00  0.24553474898E+04  0.24553474898E+04  0.25500000000E-02 0.  1.
         -2   -1    0    0    0  501 -0.00000000000E+00 -0.00000000000E+00 -0.71479818643E+02  0.71479818688E+02  0.25500000000E-02 0. -1.
    5000001    1    1    2    0    0 -0.25764214695E+03 -0.20409667763E+03  0.66431417949E+03  0.76564499527E+03  0.19200000000E+03 0.  0.
   -5000001    1    1    2    0    0  0.25764214695E+03  0.20409667763E+03  0.17195534917E+04  0.17611823132E+04  0.19200000000E+03 0.  0.
<mgrwt>
<rscale>  0 0.83787301E+03</rscale>
<asrwt>0</asrwt>
<pdfrwt beam="1">  1        2 0.35076388E+00 0.83787301E+03</pdfrwt>
<pdfrwt beam="2">  1       -2 0.10211404E-01 0.83787301E+03</pdfrwt>
<totfact> 0.31611663E+02</totfact>
</mgrwt>
</event>
<event>
 4    1  0.2013882E-005  0.8080511E+03  0.7818608E-02  0.9548436E-01
         -2   -1    0    0    0  501 -0.00000000000E+00  0.00000000000E+00  0.32099108258E+03  0.32099108259E+03  0.25500000000E-02 0. -1.
          2   -1    0    0  501    0  0.00000000000E+00 -0.00000000000E+00 -0.50853947357E+03  0.50853947358E+03  0.25500000000E-02 0.  1.
    5000001    1    1    2    0    0  0.27079911181E+03 -0.18200325211E+03 -0.23864702050E+03  0.44751954497E+03  0.19200000000E+03 0.  0.
   -5000001    1    1    2    0    0 -0.27079911181E+03  0.18200325211E+03  0.51098629517E+02  0.38201101120E+03  0.19200000000E+03 0.  0.
<mgrwt>
<rscale>  0 0.80805108E+03</rscale>
<asrwt>0</asrwt>
<pdfrwt beam="1">  1        2 0.72648496E-01 0.80805108E+03</pdfrwt>
<pdfrwt beam="2">  1       -2 0.45855869E-01 0.80805108E+03</pdfrwt>
<totfact> 0.29857096E+02</totfact>
</mgrwt>
</event>
<event>
 4    1  0.2013882E-005  0.5215034E+03  0.7818608E-02  0.1008314E+00
         -2   -1    0    0    0  501 -0.00000000000E+00  0.00000000000E+00  0.42610645019E+02  0.42610645096E+02  0.25500000000E-02 0. -1.
          2   -1    0    0  501    0  0.00000000000E+00 -0.00000000000E+00 -0.15956447693E+04  0.15956447693E+04  0.25500000000E-02 0.  1.
    5000001    1    1    2    0    0 -0.12720214365E+03  0.11747211863E+03 -0.67010864263E+03  0.71825460454E+03  0.19200000000E+03 0.  0.
   -5000001    1    1    2    0    0  0.12720214365E+03 -0.11747211863E+03 -0.88292548164E+03  0.92000080985E+03  0.19200000000E+03 0.  0.
<mgrwt>
<rscale>  0 0.52150341E+03</rscale>
<asrwt>0</asrwt>
<pdfrwt beam="1">  1        2 0.22794922E+00 0.52150341E+03</pdfrwt>
<pdfrwt beam="2">  1       -2 0.60872360E-02 0.52150341E+03</pdfrwt>
<totfact> 0.20080637E+03</totfact>
</mgrwt>
</event>
<event>
 4    1  0.2013882E-005  0.5135163E+03  0.7818608E-02  0.1010310E+00
         -2   -1    0    0    0  501 -0.00000000000E+00  0.00000000000E+00  0.67668335438E+02  0.67668335486E+02  0.25500000000E-02 0. -1.
          2   -1    0    0  501    0  0.00000000000E+00 -0.00000000000E+00 -0.97423322982E+03  0.97423322982E+03  0.25500000000E-02 0.  1.
    5000001    1    1    2    0    0  0.27400145144E+02  0.14640253064E+03 -0.62153009646E+03  0.66734408646E+03  0.19200000000E+03 0.  0.
   -5000001    1    1    2    0    0 -0.27400145144E+02 -0.14640253064E+03 -0.28503479792E+03  0.37455747885E+03  0.19200000000E+03 0.  0.
<mgrwt>
<rscale>  0 0.51351627E+03</rscale>
<asrwt>0</asrwt>
<pdfrwt beam="1">  1        2 0.13917617E+00 0.51351627E+03</pdfrwt>
<pdfrwt beam="2">  1       -2 0.96669056E-02 0.51351627E+03</pdfrwt>
<totfact> 0.21180788E+03</totfact>
</mgrwt>
</event>
<event>
 4    1  0.2013882E-005  0.4750378E+03  0.7818608E-02  0.1020508E+00
          2   -1    0    0  501    0  0.00000000000E+00  0.00000000000E+00  0.23397332008E+04  0.23397332008E+04  0.25500000000E-02 0.  1.
         -2   -1    0    0    0  501 -0.00000000000E+00 -0.00000000000E+00 -0.24111820632E+02  0.24111820767E+02  0.25500000000E-02 0. -1.
    5000001    1    1    2    0    0 -0.21541233910E+02  0.10051548146E+03  0.16294628773E+04  0.16439527533E+04  0.19200000000E+03 0.  0.
   -5000001    1    1    2    0    0  0.21541233910E+02 -0.10051548146E+03  0.68615850287E+03  0.71989226821E+03  0.19200000000E+03 0.  0.
<mgrwt>
<rscale>  0 0.47503780E+03</rscale>
<asrwt>0</asrwt>
<pdfrwt beam="1">  1        2 0.33424754E+00 0.47503780E+03</pdfrwt>
<pdfrwt beam="2">  1       -2 0.34445464E-02 0.47503780E+03</pdfrwt>
<totfact> 0.20459387E+03</totfact>
</mgrwt>
</event>
<event>
 4    1  0.2013882E-005  0.4864748E+03  0.7818608E-02  0.1017371E+00
          2   -1    0    0  501    0  0.00000000000E+00  0.00000000000E+00  0.93467332756E+03  0.93467332757E+03  0.25500000000E-02 0.  1.
         -2   -1    0    0    0  501 -0.00000000000E+00 -0.00000000000E+00 -0.63299576780E+02  0.63299576831E+02  0.25500000000E-02 0. -1.
    5000001    1    1    2    0    0 -0.78300035091E+02  0.12686828429E+03  0.41804342983E+03  0.48358118892E+03  0.19200000000E+03 0.  0.
   -5000001    1    1    2    0    0  0.78300035091E+02 -0.12686828429E+03  0.45333032095E+03  0.51439171547E+03  0.19200000000E+03 0.  0.
<mgrwt>
<rscale>  0 0.48647477E+03</rscale>
<asrwt>0</asrwt>
<pdfrwt beam="1">  1        2 0.13352474E+00 0.48647477E+03</pdfrwt>
<pdfrwt beam="2">  1       -2 0.90427983E-02 0.48647477E+03</pdfrwt>
<totfact> 0.24948131E+03</totfact>
</mgrwt>
</event>
<event>
 4    1  0.2013882E-005  0.7500084E+03  0.7818608E-02  0.9635337E-01
         -2   -1    0    0    0  501 -0.00000000000E+00  0.00000000000E+00  0.10312080923E+03  0.10312080926E+03  0.25500000000E-02 0. -1.
          2   -1    0    0  501    0  0.00000000000E+00 -0.00000000000E+00 -0.13637224821E+04  0.13637224821E+04  0.25500000000E-02 0.  1.
    5000001    1    1    2    0    0  0.74549015120E+02 -0.24013759259E+03 -0.23651293541E+03  0.39500125019E+03  0.19200000000E+03 0.  0.
   -5000001    1    1    2    0    0 -0.74549015120E+02  0.24013759259E+03 -0.10240887374E+04  0.10718420412E+04  0.19200000000E+03 0.  0.
<mgrwt>
<rscale>  0 0.75000844E+03</rscale>
<asrwt>0</asrwt>
<pdfrwt beam="1">  1        2 0.19481749E+00 0.75000844E+03</pdfrwt>
<pdfrwt beam="2">  1       -2 0.14731545E-01 0.75000844E+03</pdfrwt>
<totfact> 0.63010290E+02</totfact>
</mgrwt>
</event>
<event>
 4    1  0.2013882E-005  0.4527830E+03  0.7818608E-02  0.1026895E+00
         -2   -1    0    0    0  501 -0.00000000000E+00  0.00000000000E+00  0.40285492233E+02  0.40285492314E+02  0.25500000000E-02 0. -1.
          2   -1    0    0  501    0  0.00000000000E+00 -0.00000000000E+00 -0.12722475951E+04  0.12722475951E+04  0.25500000000E-02 0.  1.
    5000001    1    1    2    0    0 -0.82829082961E+01 -0.11614919675E+03 -0.53247320517E+03  0.57788489918E+03  0.19200000000E+03 0.  0.
   -5000001    1    1    2    0    0  0.82829082961E+01  0.11614919675E+03 -0.69948889767E+03  0.73464818820E+03  0.19200000000E+03 0.  0.
<mgrwt>
<rscale>  0 0.45278304E+03</rscale>
<asrwt>0</asrwt>
<pdfrwt beam="1">  1        2 0.18174963E+00 0.45278304E+03</pdfrwt>
<pdfrwt beam="2">  1       -2 0.57550711E-02 0.45278304E+03</pdfrwt>
<totfact> 0.32415941E+03</totfact>
</mgrwt>
</event>
<event>
 4    1  0.2013882E-005  0.4419571E+03  0.7818608E-02  0.1030148E+00
          2   -1    0    0  501    0  0.00000000000E+00  0.00000000000E+00  0.56116222343E+03  0.56116222344E+03  0.25500000000E-02 0.  1.
         -2   -1    0    0    0  501 -0.00000000000E+00 -0.00000000000E+00 -0.87018536001E+02  0.87018536039E+02  0.25500000000E-02 0. -1.
    5000001    1    1    2    0    0 -0.52347119267E+02  0.61805210637E+02  0.34491949654E+03  0.40298084824E+03  0.19200000000E+03 0.  0.
   -5000001    1    1    2    0    0  0.52347119267E+02 -0.61805210637E+02  0.12922419089E+03  0.24519991123E+03  0.19200000000E+03 0.  0.
<mgrwt>
<rscale>  0 0.44195708E+03</rscale>
<asrwt>0</asrwt>
<pdfrwt beam="1">  1        2 0.80166029E-01 0.44195708E+03</pdfrwt>
<pdfrwt beam="2">  1       -2 0.12431220E-01 0.44195708E+03</pdfrwt>
<totfact> 0.27927506E+03</totfact>
</mgrwt>
</event>
<event>
 4    1  0.2013882E-005  0.5233592E+03  0.7818608E-02  0.1007855E+00
         -2   -1    0    0    0  501 -0.00000000000E+00  0.00000000000E+00  0.36986729872E+02  0.36986729960E+02  0.25500000000E-02 0. -1.
          2   -1    0    0  501    0  0.00000000000E+00 -0.00000000000E+00 -0.18513727688E+04  0.18513727688E+04  0.25500000000E-02 0.  1.
    5000001    1    1    2    0    0  0.70604091234E+01 -0.17543783292E+03 -0.10082175262E+04  0.10412467828E+04  0.19200000000E+03 0.  0.
   -5000001    1    1    2    0    0 -0.70604091234E+01  0.17543783292E+03 -0.80616851273E+03  0.84711271594E+03  0.19200000000E+03 0.  0.
<mgrwt>
<rscale>  0 0.52335924E+03</rscale>
<asrwt>0</asrwt>
<pdfrwt beam="1">  1        2 0.26448177E+00 0.52335924E+03</pdfrwt>
<pdfrwt beam="2">  1       -2 0.52838197E-02 0.52335924E+03</pdfrwt>
<totfact> 0.18583836E+03</totfact>
</mgrwt>
</event>
<event>
 4    1  0.2013882E-005  0.4110952E+03  0.7818608E-02  0.1040004E+00
          2   -1    0    0  501    0  0.00000000000E+00  0.00000000000E+00  0.87839335039E+03  0.87839335039E+03  0.25500000000E-02 0.  1.
         -2   -1    0    0    0  501 -0.00000000000E+00 -0.00000000000E+00 -0.48098978229E+02  0.48098978296E+02  0.25500000000E-02 0. -1.
    5000001    1    1    2    0    0 -0.52861256541E+02  0.48848506342E+02  0.44744175227E+03  0.49218757674E+03  0.19200000000E+03 0.  0.
   -5000001    1    1    2    0    0  0.52861256541E+02 -0.48848506342E+02  0.38285261988E+03  0.43430475195E+03  0.19200000000E+03 0.  0.
<mgrwt>
<rscale>  0 0.41109523E+03</rscale>
<asrwt>0</asrwt>
<pdfrwt beam="1">  1        2 0.12548477E+00 0.41109523E+03</pdfrwt>
<pdfrwt beam="2">  1       -2 0.68712825E-02 0.41109523E+03</pdfrwt>
<totfact> 0.41774328E+03</totfact>
</mgrwt>
</event>
<event>
 4    1  0.2013882E-005  0.1006589E+04  0.7818608E-02  0.9301348E-01
         -2   -1    0    0    0  501 -0.00000000000E+00  0.00000000000E+00  0.87282873059E+02  0.87282873097E+02  0.25500000000E-02 0. -1.
          2   -1    0    0  501    0  0.00000000000E+00 -0.00000000000E+00 -0.29021183946E+04  0.29021183946E+04  0.25500000000E-02 0.  1.
    5000001    1    1    2    0    0  0.17803391213E+03 -0.10152526403E+03 -0.16704445120E+03  0.32675878225E+03  0.19200000000E+03 0.  0.
   -5000001    1    1    2    0    0 -0.17803391213E+03  0.10152526403E+03 -0.26477910703E+04  0.26626424854E+04  0.19200000000E+03 0.  0.
<mgrwt>
<rscale>  0 0.10065888E+04</rscale>
<asrwt>0</asrwt>
<pdfrwt beam="1">  1        2 0.41458828E+00 0.10065888E+04</pdfrwt>
<pdfrwt beam="2">  1       -2 0.12468984E-01 0.10065888E+04</pdfrwt>
<totfact> 0.13003384E+02</totfact>
</mgrwt>
</event>
<event>
 4    1  0.2013882E-005  0.4890952E+03  0.7818608E-02  0.1016665E+00
          2   -1    0    0  501    0  0.00000000000E+00  0.00000000000E+00  0.84489819714E+03  0.84489819715E+03  0.25500000000E-02 0.  1.
         -2   -1    0    0    0  501 -0.00000000000E+00 -0.00000000000E+00 -0.70781939068E+02  0.70781939114E+02  0.25500000000E-02 0. -1.
    5000001    1    1    2    0    0  0.12166862131E+03 -0.88416456704E+02  0.42048656122E+03  0.48610047458E+03  0.19200000000E+03 0.  0.
   -5000001    1    1    2    0    0 -0.12166862131E+03  0.88416456704E+02  0.35362969686E+03  0.42957966168E+03  0.19200000000E+03 0.  0.
<mgrwt>
<rscale>  0 0.48909522E+03</rscale>
<asrwt>0</asrwt>
<pdfrwt beam="1">  1        2 0.12069974E+00 0.48909522E+03</pdfrwt>
<pdfrwt beam="2">  1       -2 0.10111706E-01 0.48909522E+03</pdfrwt>
<totfact> 0.23821692E+03</totfact>
</mgrwt>
</event>
<event>
 4    1  0.2013882E-005  0.4882997E+03  0.7818608E-02  0.1016879E+00
         -2   -1    0    0    0  501 -0.00000000000E+00  0.00000000000E+00  0.25402710546E+03  0.25402710547E+03  0.25500000000E-02 0. -1.
          2   -1    0    0  501    0  0.00000000000E+00 -0.00000000000E+00 -0.23465661991E+03  0.23465661993E+03  0.25500000000E-02 0.  1.
    5000001    1    1    2    0    0 -0.69327957943E+02  0.41456512738E+02 -0.11777321537E+03  0.23928965389E+03  0.19200000000E+03 0.  0.
   -5000001    1    1    2    0    0  0.69327957943E+02 -0.41456512738E+02  0.13714370092E+03  0.24939407151E+03  0.19200000000E+03 0.  0.
<mgrwt>
<rscale>  0 0.48829967E+03</rscale>
<asrwt>0</asrwt>
<pdfrwt beam="1">  1        2 0.33522374E-01 0.48829967E+03</pdfrwt>
<pdfrwt beam="2">  1       -2 0.36289587E-01 0.48829967E+03</pdfrwt>
<totfact> 0.11217771E+03</totfact>
</mgrwt>
</event>
<event>
 4    1  0.2013882E-005  0.1689753E+04  0.7818608E-02  0.8767230E-01
          2   -1    0    0  501    0  0.00000000000E+00  0.00000000000E+00  0.53240779384E+03  0.53240779385E+03  0.25500000000E-02 0.  1.
         -2   -1    0    0    0  501 -0.00000000000E+00 -0.00000000000E+00 -0.13407329996E+04  0.13407329996E+04  0.25500000000E-02 0. -1.
    5000001    1    1    2    0    0  0.69357186473E+03 -0.18125973041E+03  0.43463121479E+02  0.74340437471E+03  0.19200000000E+03 0.  0.
   -5000001    1    1    2    0    0 -0.69357186473E+03  0.18125973041E+03 -0.85178832721E+03  0.11297364187E+04  0.19200000000E+03 0.  0.
<mgrwt>
<rscale>  0 0.16897535E+04</rscale>
<asrwt>0</asrwt>
<pdfrwt beam="1">  1        2 0.76058257E-01 0.16897535E+04</pdfrwt>
<pdfrwt beam="2">  1       -2 0.19153328E+00 0.16897535E+04</pdfrwt>
<totfact> 0.90164069E+00</totfact>
</mgrwt>
</event>
<event>
 4    1  0.2013882E-005  0.5404990E+03  0.7818608E-02  0.1003717E+00
          2   -1    0    0  501    0  0.00000000000E+00  0.00000000000E+00  0.18145344595E+04  0.18145344595E+04  0.25500000000E-02 0.  1.
         -2   -1    0    0    0  501 -0.00000000000E+00 -0.00000000000E+00 -0.40249881522E+02  0.40249881603E+02  0.25500000000E-02 0. -1.
    5000001    1    1    2    0    0  0.18925956223E+03  0.83759322675E+01  0.82957098798E+03  0.87231952990E+03  0.19200000000E+03 0.  0.
   -5000001    1    1    2    0    0 -0.18925956223E+03 -0.83759322675E+01  0.94471358998E+03  0.98246481119E+03  0.19200000000E+03 0.  0.
<mgrwt>
<rscale>  0 0.54049902E+03</rscale>
<asrwt>0</asrwt>
<pdfrwt beam="1">  1        2 0.25921922E+00 0.54049902E+03</pdfrwt>
<pdfrwt beam="2">  1       -2 0.57499829E-02 0.54049902E+03</pdfrwt>
<totfact> 0.16992357E+03</totfact>
</mgrwt>
</event>
<event>
 4    1  0.2013882E-005  0.6892294E+03  0.7818608E-02  0.9735831E-01
          2   -1    0    0  501    0  0.00000000000E+00  0.00000000000E+00  0.23483092872E+03  0.23483092873E+03  0.25500000000E-02 0.  1.
         -2   -1    0    0    0  501 -0.00000000000E+00 -0.00000000000E+00 -0.50572248106E+03  0.50572248106E+03  0.25500000000E-02 0. -1.
    5000001    1    1    2    0    0 -0.53655417247E+02  0.22627247462E+03  0.43758709643E+02  0.30472440211E+03  0.19200000000E+03 0.  0.
   -5000001    1    1    2    0    0  0.53655417247E+02 -0.22627247462E+03 -0.31465026198E+03  0.43582900768E+03  0.19200000000E+03 0.  0.
<mgrwt>
<rscale>  0 0.68922937E+03</rscale>
<asrwt>0</asrwt>
<pdfrwt beam="1">  1        2 0.33547276E-01 0.68922937E+03</pdfrwt>
<pdfrwt beam="2">  1       -2 0.72246069E-01 0.68922937E+03</pdfrwt>
<totfact> 0.27465707E+02</totfact>
</mgrwt>
</event>
<event>
 4    1  0.2013882E-005  0.8078959E+03  0.7818608E-02  0.9548658E-01
         -2   -1    0    0    0  501 -0.00000000000E+00  0.00000000000E+00  0.98611605684E+02  0.98611605717E+02  0.25500000000E-02 0. -1.
          2   -1    0    0  501    0  0.00000000000E+00 -0.00000000000E+00 -0.16547132888E+04  0.16547132888E+04  0.25500000000E-02 0.  1.
    5000001    1    1    2    0    0  0.12634506738E+03 -0.25505558772E+03 -0.12399263971E+04  0.12865838096E+04  0.19200000000E+03 0.  0.
   -5000001    1    1    2    0    0 -0.12634506738E+03  0.25505558772E+03 -0.31617528603E+03  0.46674108494E+03  0.19200000000E+03 0.  0.
<mgrwt>
<rscale>  0 0.80789587E+03</rscale>
<asrwt>0</asrwt>
<pdfrwt beam="1">  1        2 0.23638760E+00 0.80789587E+03</pdfrwt>
<pdfrwt beam="2">  1       -2 0.14087373E-01 0.80789587E+03</pdfrwt>
<totfact> 0.47620279E+02</totfact>
</mgrwt>
</event>
<event>
 4    1  0.2013882E-005  0.4619471E+03  0.7818608E-02  0.1024218E+00
          2   -1    0    0  501    0  0.00000000000E+00  0.00000000000E+00  0.19098537736E+03  0.19098537738E+03  0.25500000000E-02 0.  1.
         -2   -1    0    0    0  501 -0.00000000000E+00 -0.00000000000E+00 -0.27933439363E+03  0.27933439364E+03  0.25500000000E-02 0. -1.
    5000001    1    1    2    0    0  0.12649115434E+03 -0.16164503700E+02 -0.28954266470E+02  0.23230078100E+03  0.19200000000E+03 0.  0.
   -5000001    1    1    2    0    0 -0.12649115434E+03  0.16164503700E+02 -0.59394749798E+02  0.23801899002E+03  0.19200000000E+03 0.  0.
<mgrwt>
<rscale>  0 0.46194712E+03</rscale>
<asrwt>0</asrwt>
<pdfrwt beam="1">  1        2 0.27283625E-01 0.46194712E+03</pdfrwt>
<pdfrwt beam="2">  1       -2 0.39904913E-01 0.46194712E+03</pdfrwt>
<totfact> 0.11766819E+03</totfact>
</mgrwt>
</event>
<event>
 4    1  0.2013882E-005  0.5846295E+03  0.7818608E-02  0.9937818E-01
          2   -1    0    0  501    0  0.00000000000E+00  0.00000000000E+00  0.16188687754E+04  0.16188687754E+04  0.25500000000E-02 0.  1.
         -2   -1    0    0    0  501 -0.00000000000E+00 -0.00000000000E+00 -0.52782482595E+02  0.52782482656E+02  0.25500000000E-02 0. -1.
    5000001    1    1    2    0    0 -0.41954050517E+02  0.17423991470E+03  0.41615340308E+03  0.49210501433E+03  0.19200000000E+03 0.  0.
   -5000001    1    1    2    0    0  0.41954050517E+02 -0.17423991470E+03  0.11499328897E+04  0.11795462437E+04  0.19200000000E+03 0.  0.
<mgrwt>
<rscale>  0 0.58462950E+03</rscale>
<asrwt>0</asrwt>
<pdfrwt beam="1">  1        2 0.23126697E+00 0.58462950E+03</pdfrwt>
<pdfrwt beam="2">  1       -2 0.75403545E-02 0.58462950E+03</pdfrwt>
<totfact> 0.13918604E+03</totfact>
</mgrwt>
</event>
<event>
 4    1  0.2013882E-005  0.7049191E+03  0.7818608E-02  0.9708857E-01
         -2   -1    0    0    0  501 -0.00000000000E+00  0.00000000000E+00  0.26150046894E+03  0.26150046895E+03  0.25500000000E-02 0. -1.
          2   -1    0    0  501    0  0.00000000000E+00 -0.00000000000E+00 -0.47505746713E+03  0.47505746713E+03  0.25500000000E-02 0.  1.
    5000001    1    1    2    0    0 -0.22757438718E+03 -0.12356202916E+03 -0.25567366087E+03  0.41144950798E+03  0.19200000000E+03 0.  0.
   -5000001    1    1    2    0    0  0.22757438718E+03  0.12356202916E+03  0.42116662682E+02  0.32510842811E+03  0.19200000000E+03 0.  0.
<mgrwt>
<rscale>  0 0.70491915E+03</rscale>
<asrwt>0</asrwt>
<pdfrwt beam="1">  1        2 0.67865353E-01 0.70491915E+03</pdfrwt>
<pdfrwt beam="2">  1       -2 0.37357210E-01 0.70491915E+03</pdfrwt>
<totfact> 0.48394845E+02</totfact>
</mgrwt>
</event>
<event>
 4    1  0.2013882E-005  0.8908809E+03  0.7818608E-02  0.9437053E-01
         -2   -1    0    0    0  501 -0.00000000000E+00  0.00000000000E+00  0.11158929900E+03  0.11158929903E+03  0.25500000000E-02 0. -1.
          2   -1    0    0  501    0  0.00000000000E+00 -0.00000000000E+00 -0.17781022015E+04  0.17781022015E+04  0.25500000000E-02 0.  1.
    5000001    1    1    2    0    0 -0.37119035013E+03  0.84454569783E+02 -0.55965013540E+03  0.70355321366E+03  0.19200000000E+03 0.  0.
   -5000001    1    1    2    0    0  0.37119035013E+03 -0.84454569783E+02 -0.11068627671E+04  0.11861382869E+04  0.19200000000E+03 0.  0.
<mgrwt>
<rscale>  0 0.89088086E+03</rscale>
<asrwt>0</asrwt>
<pdfrwt beam="1">  1        2 0.25401458E+00 0.89088086E+03</pdfrwt>
<pdfrwt beam="2">  1       -2 0.15941330E-01 0.89088086E+03</pdfrwt>
<totfact> 0.33213552E+02</totfact>
</mgrwt>
</event>
<event>
 4    1  0.2013882E-005  0.5821698E+03  0.7818608E-02  0.9943104E-01
         -2   -1    0    0    0  501 -0.00000000000E+00  0.00000000000E+00  0.61125713986E+03  0.61125713987E+03  0.25500000000E-02 0. -1.
          2   -1    0    0  501    0  0.00000000000E+00 -0.00000000000E+00 -0.13861666286E+03  0.13861666289E+03  0.25500000000E-02 0.  1.
    5000001    1    1    2    0    0 -0.31496080674E+02 -0.18807523385E+03  0.37446282900E+03  0.46200725859E+03  0.19200000000E+03 0.  0.
   -5000001    1    1    2    0    0  0.31496080674E+02  0.18807523385E+03  0.98177648000E+02  0.28786654417E+03  0.19200000000E+03 0.  0.
<mgrwt>
<rscale>  0 0.58216982E+03</rscale>
<asrwt>0</asrwt>
<pdfrwt beam="1">  1        2 0.19802381E-01 0.58216982E+03</pdfrwt>
<pdfrwt beam="2">  1       -2 0.87322448E-01 0.58216982E+03</pdfrwt>
<totfact> 0.32918331E+02</totfact>
</mgrwt>
</event>
<event>
 4    1  0.2013882E-005  0.4128632E+03  0.7818608E-02  0.1039414E+00
         -2   -1    0    0    0  501 -0.00000000000E+00  0.00000000000E+00  0.31915823917E+03  0.31915823918E+03  0.25500000000E-02 0. -1.
          2   -1    0    0  501    0  0.00000000000E+00 -0.00000000000E+00 -0.13351996990E+03  0.13351996992E+03  0.25500000000E-02 0.  1.
    5000001    1    1    2    0    0  0.59616656299E+01 -0.75087586422E+02  0.83241061079E+02  0.22241124374E+03  0.19200000000E+03 0.  0.
   -5000001    1    1    2    0    0 -0.59616656299E+01  0.75087586422E+02  0.10239720819E+03  0.23026696536E+03  0.19200000000E+03 0.  0.
<mgrwt>
<rscale>  0 0.41286317E+03</rscale>
<asrwt>0</asrwt>
<pdfrwt beam="1">  1        2 0.19074281E-01 0.41286317E+03</pdfrwt>
<pdfrwt beam="2">  1       -2 0.45594034E-01 0.41286317E+03</pdfrwt>
<totfact> 0.13653996E+03</totfact>
</mgrwt>
</event>
<event>
 4    1  0.2013882E-005  0.4520539E+03  0.7818608E-02  0.1027111E+00
          2   -1    0    0  501    0  0.00000000000E+00  0.00000000000E+00  0.25057117341E+03  0.25057117343E+03  0.25500000000E-02 0.  1.
         -2   -1    0    0    0  501 -0.00000000000E+00 -0.00000000000E+00 -0.20388691494E+03  0.20388691496E+03  0.25500000000E-02 0. -1.
    5000001    1    1    2    0    0 -0.47082835776E+02 -0.92373168510E+02 -0.35916999073E+02  0.22114164354E+03  0.19200000000E+03 0.  0.
   -5000001    1    1    2    0    0  0.47082835776E+02  0.92373168510E+02  0.82601257545E+02  0.23331644484E+03  0.19200000000E+03 0.  0.
<mgrwt>
<rscale>  0 0.45205391E+03</rscale>
<asrwt>0</asrwt>
<pdfrwt beam="1">  1        2 0.35795882E-01 0.45205391E+03</pdfrwt>
<pdfrwt beam="2">  1       -2 0.29126702E-01 0.45205391E+03</pdfrwt>
<totfact> 0.15707043E+03</totfact>
</mgrwt>
</event>
<event>
 4    1  0.2013882E-005  0.8397329E+03  0.7818608E-02  0.9504222E-01
          2   -1    0    0  501    0  0.00000000000E+00  0.00000000000E+00  0.51250877875E+03  0.51250877876E+03  0.25500000000E-02 0.  1.
         -2   -1    0    0    0  501 -0.00000000000E+00 -0.00000000000E+00 -0.34397033483E+03  0.34397033484E+03  0.25500000000E-02 0. -1.
    5000001    1    1    2    0    0 -0.22652954221E+03  0.24301401071E+03 -0.89577473607E+02  0.39402990581E+03  0.19200000000E+03 0.  0.
   -5000001    1    1    2    0    0  0.22652954221E+03 -0.24301401071E+03  0.25811591753E+03  0.46244920778E+03  0.19200000000E+03 0.  0.
<mgrwt>
<rscale>  0 0.83973285E+03</rscale>
<asrwt>0</asrwt>
<pdfrwt beam="1">  1        2 0.73215540E-01 0.83973285E+03</pdfrwt>
<pdfrwt beam="2">  1       -2 0.49138619E-01 0.83973285E+03</pdfrwt>
<totfact> 0.25713268E+02</totfact>
</mgrwt>
</event>
<event>
 4    1  0.2013882E-005  0.5646569E+03  0.7818608E-02  0.9981572E-01
          2   -1    0    0  501    0  0.00000000000E+00  0.00000000000E+00  0.85972327349E+03  0.85972327350E+03  0.25500000000E-02 0.  1.
         -2   -1    0    0    0  501 -0.00000000000E+00 -0.00000000000E+00 -0.92715143398E+02  0.92715143433E+02  0.25500000000E-02 0. -1.
    5000001    1    1    2    0    0 -0.14373539503E+03  0.12485916972E+03  0.24651611528E+03  0.36590145004E+03  0.19200000000E+03 0.  0.
   -5000001    1    1    2    0    0  0.14373539503E+03 -0.12485916972E+03  0.52049201481E+03  0.58653696689E+03  0.19200000000E+03 0.  0.
<mgrwt>
<rscale>  0 0.56465695E+03</rscale>
<asrwt>0</asrwt>
<pdfrwt beam="1">  1        2 0.12281761E+00 0.56465695E+03</pdfrwt>
<pdfrwt beam="2">  1       -2 0.13245020E-01 0.56465695E+03</pdfrwt>
<totfact> 0.14968219E+03</totfact>
</mgrwt>
</event>
<event>
 4    1  0.2013882E-005  0.1140794E+04  0.7818608E-02  0.9166318E-01
         -2   -1    0    0    0  501 -0.00000000000E+00  0.00000000000E+00  0.83662349845E+03  0.83662349845E+03  0.25500000000E-02 0. -1.
          2   -1    0    0  501    0  0.00000000000E+00 -0.00000000000E+00 -0.38888815143E+03  0.38888815144E+03  0.25500000000E-02 0.  1.
    5000001    1    1    2    0    0 -0.50459137168E+03 -0.48552857981E+02  0.41458809481E+03  0.68243470072E+03  0.19200000000E+03 0.  0.
   -5000001    1    1    2    0    0  0.50459137168E+03  0.48552857981E+02  0.33147252212E+02  0.54307694917E+03  0.19200000000E+03 0.  0.
<mgrwt>
<rscale>  0 0.11407944E+04</rscale>
<asrwt>0</asrwt>
<pdfrwt beam="1">  1        2 0.55555451E-01 0.11407944E+04</pdfrwt>
<pdfrwt beam="2">  1       -2 0.11951764E+00 0.11407944E+04</pdfrwt>
<totfact> 0.47440737E+01</totfact>
</mgrwt>
</event>
<event>
 4    1  0.2013882E-005  0.5912292E+03  0.7818608E-02  0.9923772E-01
         -2   -1    0    0    0  501 -0.00000000000E+00  0.00000000000E+00  0.18779657177E+03  0.18779657179E+03  0.25500000000E-02 0. -1.
          2   -1    0    0  501    0  0.00000000000E+00 -0.00000000000E+00 -0.46533322707E+03  0.46533322707E+03  0.25500000000E-02 0.  1.
    5000001    1    1    2    0    0  0.13902991178E+03 -0.77434459986E+02 -0.31412876220E+03  0.40108140222E+03  0.19200000000E+03 0.  0.
   -5000001    1    1    2    0    0 -0.13902991178E+03  0.77434459986E+02  0.36592106908E+02  0.25204839664E+03  0.19200000000E+03 0.  0.
<mgrwt>
<rscale>  0 0.59122918E+03</rscale>
<asrwt>0</asrwt>
<pdfrwt beam="1">  1        2 0.66476175E-01 0.59122918E+03</pdfrwt>
<pdfrwt beam="2">  1       -2 0.26828082E-01 0.59122918E+03</pdfrwt>
<totfact> 0.92113294E+02</totfact>
</mgrwt>
</event>
<event>
 4    1  0.2013882E-005  0.4016448E+03  0.7818608E-02  0.1043212E+00
         -2   -1    0    0    0  501 -0.00000000000E+00  0.00000000000E+00  0.34063973283E+02  0.34063973379E+02  0.25500000000E-02 0.  1.
          2   -1    0    0  501    0  0.00000000000E+00 -0.00000000000E+00 -0.11839381352E+04  0.11839381352E+04  0.25500000000E-02 0. -1.
    5000001    1    1    2    0    0  0.35056146541E+02 -0.83964869904E+01 -0.71607880890E+03  0.74224813570E+03  0.19200000000E+03 0.  0.
   -5000001    1    1    2    0    0 -0.35056146541E+02  0.83964869904E+01 -0.43379535298E+03  0.47575397284E+03  0.19200000000E+03 0.  0.
<mgrwt>
<rscale>  0 0.40164480E+03</rscale>
<asrwt>0</asrwt>
<pdfrwt beam="1">  1        2 0.16913399E+00 0.40164480E+03</pdfrwt>
<pdfrwt beam="2">  1       -2 0.48662826E-02 0.40164480E+03</pdfrwt>
<totfact> 0.46913949E+03</totfact>
</mgrwt>
</event>
<event>
 4    1  0.2013882E-005  0.4257082E+03  0.7818608E-02  0.1035224E+00
         -2   -1    0    0    0  501 -0.00000000000E+00  0.00000000000E+00  0.65361588120E+02  0.65361588169E+02  0.25500000000E-02 0. -1.
          2   -1    0    0  501    0  0.00000000000E+00 -0.00000000000E+00 -0.69317262498E+03  0.69317262499E+03  0.25500000000E-02 0.  1.
    5000001    1    1    2    0    0  0.84214644579E+02  0.36484784102E+02 -0.32179754080E+03  0.38579904497E+03  0.19200000000E+03 0.  0.
   -5000001    1    1    2    0    0 -0.84214644579E+02 -0.36484784102E+02 -0.30601349606E+03  0.37273516819E+03  0.19200000000E+03 0.  0.
<mgrwt>
<rscale>  0 0.42570818E+03</rscale>
<asrwt>0</asrwt>
<pdfrwt beam="1">  1        2 0.99024657E-01 0.42570818E+03</pdfrwt>
<pdfrwt beam="2">  1       -2 0.93373701E-02 0.42570818E+03</pdfrwt>
<totfact> 0.34616163E+03</totfact>
</mgrwt>
</event>
<event>
 4    1  0.2013882E-005  0.4220971E+03  0.7818608E-02  0.1036386E+00
          2   -1    0    0  501    0  0.00000000000E+00  0.00000000000E+00  0.38900622814E+04  0.38900622814E+04  0.25500000000E-02 0.  1.
         -2   -1    0    0    0  501 -0.00000000000E+00 -0.00000000000E+00 -0.11450071650E+02  0.11450071934E+02  0.25500000000E-02 0. -1.
    5000001    1    1    2    0    0 -0.43006249204E+02  0.73540069975E+02  0.17499198007E+04  0.17624814859E+04  0.19200000000E+03 0.  0.
   -5000001    1    1    2    0    0  0.43006249204E+02 -0.73540069975E+02  0.21286924091E+04  0.21390308674E+04  0.19200000000E+03 0.  0.
<mgrwt>
<rscale>  0 0.42209711E+03</rscale>
<asrwt>0</asrwt>
<pdfrwt beam="1">  1        2 0.55572429E+00 0.42209711E+03</pdfrwt>
<pdfrwt beam="2">  1       -2 0.16357213E-02 0.42209711E+03</pdfrwt>
<totfact> 0.86174109E+02</totfact>
</mgrwt>
</event>
<event>
 4    1  0.2013882E-005  0.7069237E+03  0.7818608E-02  0.9705464E-01
         -2   -1    0    0    0  501 -0.00000000000E+00  0.00000000000E+00  0.21965751250E+03  0.21965751252E+03  0.25500000000E-02 0. -1.
          2   -1    0    0  501    0  0.00000000000E+00 -0.00000000000E+00 -0.56877310080E+03  0.56877310081E+03  0.25500000000E-02 0.  1.
    5000001    1    1    2    0    0  0.17270546856E+03 -0.59483663287E+02  0.86302279490E+02  0.27870695814E+03  0.19200000000E+03 0.  0.
   -5000001    1    1    2    0    0 -0.17270546856E+03  0.59483663287E+02 -0.43541786779E+03  0.50972365519E+03  0.19200000000E+03 0.  0.
<mgrwt>
<rscale>  0 0.70692371E+03</rscale>
<asrwt>0</asrwt>
<pdfrwt beam="1">  1        2 0.81253300E-01 0.70692371E+03</pdfrwt>
<pdfrwt beam="2">  1       -2 0.31379645E-01 0.70692371E+03</pdfrwt>
<totfact> 0.54723349E+02</totfact>
</mgrwt>
</event>
<event>
 4    1  0.2013882E-005  0.4689214E+03  0.7818608E-02  0.1022225E+00
         -2   -1    0    0    0  501 -0.00000000000E+00  0.00000000000E+00  0.70835725691E+02  0.70835725737E+02  0.25500000000E-02 0. -1.
          2   -1    0    0  501    0  0.00000000000E+00 -0.00000000000E+00 -0.77604649492E+03  0.77604649492E+03  0.25500000000E-02 0.  1.
    5000001    1    1    2    0    0  0.10162256310E+03 -0.51272414859E+02 -0.48223461058E+03  0.53138519503E+03  0.19200000000E+03 0.  0.
   -5000001    1    1    2    0    0 -0.10162256310E+03  0.51272414859E+02 -0.22297615865E+03  0.31549702564E+03  0.19200000000E+03 0.  0.
<mgrwt>
<rscale>  0 0.46892139E+03</rscale>
<asrwt>0</asrwt>
<pdfrwt beam="1">  1        2 0.11086378E+00 0.46892139E+03</pdfrwt>
<pdfrwt beam="2">  1       -2 0.10119390E-01 0.46892139E+03</pdfrwt>
<totfact> 0.26505792E+03</totfact>
</mgrwt>
</event>
<event>
 4    1  0.2013882E-005  0.1465867E+04  0.7818608E-02  0.8907474E-01
         -2   -1    0    0    0  501 -0.00000000000E+00  0.00000000000E+00  0.37479523508E+03  0.37479523509E+03  0.25500000000E-02 0. -1.
          2   -1    0    0  501    0  0.00000000000E+00 -0.00000000000E+00 -0.14332925614E+04  0.14332925614E+04  0.25500000000E-02 0.  1.
    5000001    1    1    2    0    0 -0.58155353866E+03  0.66072525535E+02 -0.39334993217E+02  0.61723685781E+03  0.19200000000E+03 0.  0.
   -5000001    1    1    2    0    0  0.58155353866E+03 -0.66072525535E+02 -0.10191623331E+04  0.11908509387E+04  0.19200000000E+03 0.  0.
<mgrwt>
<rscale>  0 0.14658666E+04</rscale>
<asrwt>0</asrwt>
<pdfrwt beam="1">  1        2 0.20475608E+00 0.14658666E+04</pdfrwt>
<pdfrwt beam="2">  1       -2 0.53542177E-01 0.14658666E+04</pdfrwt>
<totfact> 0.50605026E+01</totfact>
</mgrwt>
</event>
<event>
 4    1  0.2013882E-005  0.1135616E+04  0.7818608E-02  0.9171156E-01
          2   -1    0    0  501    0  0.00000000000E+00  0.00000000000E+00  0.14804008755E+04  0.14804008755E+04  0.25500000000E-02 0.  1.
         -2   -1    0    0    0  501 -0.00000000000E+00 -0.00000000000E+00 -0.21778303741E+03  0.21778303742E+03  0.25500000000E-02 0. -1.
    5000001    1    1    2    0    0  0.20724720571E+03  0.42154865349E+03  0.25038903050E+03  0.56587395958E+03  0.19200000000E+03 0.  0.
   -5000001    1    1    2    0    0 -0.20724720571E+03 -0.42154865349E+03  0.10122288076E+04  0.11323099534E+04  0.19200000000E+03 0.  0.
<mgrwt>
<rscale>  0 0.11356165E+04</rscale>
<asrwt>0</asrwt>
<pdfrwt beam="1">  1        2 0.21148584E+00 0.11356165E+04</pdfrwt>
<pdfrwt beam="2">  1       -2 0.31111863E-01 0.11356165E+04</pdfrwt>
<totfact> 0.14190231E+02</totfact>
</mgrwt>
</event>
<event>
 4    1  0.2013882E-005  0.4501464E+03  0.7818608E-02  0.1027678E+00
          2   -1    0    0  501    0  0.00000000000E+00  0.00000000000E+00  0.54945469727E+03  0.54945469727E+03  0.25500000000E-02 0.  1.
         -2   -1    0    0    0  501 -0.00000000000E+00 -0.00000000000E+00 -0.92196762103E+02  0.92196762138E+02  0.25500000000E-02 0. -1.
    5000001    1    1    2    0    0  0.11912390290E+02 -0.61954834048E+02  0.87420604972E+02  0.22019688617E+03  0.19200000000E+03 0.  0.
   -5000001    1    1    2    0    0 -0.11912390290E+02  0.61954834048E+02  0.36983733019E+03  0.42145457324E+03  0.19200000000E+03 0.  0.
<mgrwt>
<rscale>  0 0.45014639E+03</rscale>
<asrwt>0</asrwt>
<pdfrwt beam="1">  1        2 0.78493526E-01 0.45014639E+03</pdfrwt>
<pdfrwt beam="2">  1       -2 0.13170966E-01 0.45014639E+03</pdfrwt>
<totfact> 0.26020819E+03</totfact>
</mgrwt>
</event>
<event>
 4    1  0.2013882E-005  0.4783467E+03  0.7818608E-02  0.1019591E+00
          2   -1    0    0  501    0  0.00000000000E+00  0.00000000000E+00  0.84675079179E+03  0.84675079179E+03  0.25500000000E-02 0.  1.
         -2   -1    0    0    0  501 -0.00000000000E+00 -0.00000000000E+00 -0.67556934002E+02  0.67556934050E+02  0.25500000000E-02 0. -1.
    5000001    1    1    2    0    0  0.11234933692E+02  0.13678837542E+03  0.31550483095E+03  0.39401089038E+03  0.19200000000E+03 0.  0.
   -5000001    1    1    2    0    0 -0.11234933692E+02 -0.13678837542E+03  0.46368902684E+03  0.52029683547E+03  0.19200000000E+03 0.  0.
<mgrwt>
<rscale>  0 0.47834668E+03</rscale>
<asrwt>0</asrwt>
<pdfrwt beam="1">  1        2 0.12096440E+00 0.47834668E+03</pdfrwt>
<pdfrwt beam="2">  1       -2 0.96509906E-02 0.47834668E+03</pdfrwt>
<totfact> 0.25605749E+03</totfact>
</mgrwt>
</event>
<event>
 4    1  0.2013882E-005  0.4374904E+03  0.7818608E-02  0.1031520E+00
          2   -1    0    0  501    0  0.00000000000E+00  0.00000000000E+00  0.24398860334E+04  0.24398860334E+04  0.25500000000E-02 0.  1.
         -2   -1    0    0    0  501 -0.00000000000E+00 -0.00000000000E+00 -0.19611352999E+02  0.19611353165E+02  0.25500000000E-02 0. -1.
    5000001    1    1    2    0    0  0.80954959215E+02 -0.64430941691E+02  0.11159964509E+04  0.11371091109E+04  0.19200000000E+03 0.  0.
   -5000001    1    1    2    0    0 -0.80954959215E+02  0.64430941691E+02  0.13042782295E+04  0.13223882756E+04  0.19200000000E+03 0.  0.
<mgrwt>
<rscale>  0 0.43749042E+03</rscale>
<asrwt>0</asrwt>
<pdfrwt beam="1">  1        2 0.34855554E+00 0.43749042E+03</pdfrwt>
<pdfrwt beam="2">  1       -2 0.28016187E-02 0.43749042E+03</pdfrwt>
<totfact> 0.24942678E+03</totfact>
</mgrwt>
</event>
<event>
 4    1  0.2013882E-005  0.4961379E+03  0.7818608E-02  0.1014792E+00
         -2   -1    0    0    0  501 -0.00000000000E+00  0.00000000000E+00  0.61558058008E+02  0.61558058061E+02  0.25500000000E-02 0. -1.
          2   -1    0    0  501    0  0.00000000000E+00 -0.00000000000E+00 -0.99967756801E+03  0.99967756801E+03  0.25500000000E-02 0.  1.
    5000001    1    1    2    0    0 -0.22855706587E+02 -0.13419124743E+03 -0.63672919997E+03  0.67883558267E+03  0.19200000000E+03 0.  0.
   -5000001    1    1    2    0    0  0.22855706587E+02  0.13419124743E+03 -0.30139031003E+03  0.38240004340E+03  0.19200000000E+03 0.  0.
<mgrwt>
<rscale>  0 0.49613792E+03</rscale>
<asrwt>0</asrwt>
<pdfrwt beam="1">  1        2 0.14281107E+00 0.49613792E+03</pdfrwt>
<pdfrwt beam="2">  1       -2 0.87940089E-02 0.49613792E+03</pdfrwt>
<totfact> 0.23790041E+03</totfact>
</mgrwt>
</event>
<event>
 4    1  0.2013882E-005  0.6711111E+03  0.7818608E-02  0.9767953E-01
         -2   -1    0    0    0  501 -0.00000000000E+00  0.00000000000E+00  0.11921763706E+03  0.11921763709E+03  0.25500000000E-02 0. -1.
          2   -1    0    0  501    0  0.00000000000E+00 -0.00000000000E+00 -0.94447031517E+03  0.94447031517E+03  0.25500000000E-02 0.  1.
    5000001    1    1    2    0    0 -0.27469442703E+03  0.84649761898E+01 -0.38994220881E+03  0.51424469883E+03  0.19200000000E+03 0.  0.
   -5000001    1    1    2    0    0  0.27469442703E+03 -0.84649761898E+01 -0.43531046929E+03  0.54944325343E+03  0.19200000000E+03 0.  0.
<mgrwt>
<rscale>  0 0.67111108E+03</rscale>
<asrwt>0</asrwt>
<pdfrwt beam="1">  1        2 0.13492433E+00 0.67111108E+03</pdfrwt>
<pdfrwt beam="2">  1       -2 0.17031091E-01 0.67111108E+03</pdfrwt>
<totfact> 0.86205191E+02</totfact>
</mgrwt>
</event>
<event>
 4    1  0.2013882E-005  0.1228343E+04  0.7818608E-02  0.9088404E-01
         -2   -1    0    0    0  501 -0.00000000000E+00  0.00000000000E+00  0.28331583746E+03  0.28331583747E+03  0.25500000000E-02 0. -1.
          2   -1    0    0  501    0  0.00000000000E+00 -0.00000000000E+00 -0.13313990967E+04  0.13313990967E+04  0.25500000000E-02 0.  1.
    5000001    1    1    2    0    0 -0.47398271087E+03  0.33463428121E+03 -0.44405124495E+03  0.75543710560E+03  0.19200000000E+03 0.  0.
   -5000001    1    1    2    0    0  0.47398271087E+03 -0.33463428121E+03 -0.60403201425E+03  0.85927782853E+03  0.19200000000E+03 0.  0.
<mgrwt>
<rscale>  0 0.12283427E+04</rscale>
<asrwt>0</asrwt>
<pdfrwt beam="1">  1        2 0.19019987E+00 0.12283427E+04</pdfrwt>
<pdfrwt beam="2">  1       -2 0.40473692E-01 0.12283427E+04</pdfrwt>
<totfact> 0.10261533E+02</totfact>
</mgrwt>
</event>
<event>
 4    1  0.2013882E-005  0.6439218E+03  0.7818608E-02  0.9818252E-01
         -2   -1    0    0    0  501 -0.00000000000E+00  0.00000000000E+00  0.50783532064E+02  0.50783532128E+02  0.25500000000E-02 0. -1.
          2   -1    0    0  501    0  0.00000000000E+00 -0.00000000000E+00 -0.20411896834E+04  0.20411896834E+04  0.25500000000E-02 0.  1.
    5000001    1    1    2    0    0 -0.24534389943E+03 -0.81209197881E+02 -0.98707523176E+03  0.10382533775E+04  0.19200000000E+03 0.  0.
   -5000001    1    1    2    0    0  0.24534389943E+03  0.81209197881E+02 -0.10033309196E+04  0.10537198380E+04  0.19200000000E+03 0.  0.
<mgrwt>
<rscale>  0 0.64392180E+03</rscale>
<asrwt>0</asrwt>
<pdfrwt beam="1">  1        2 0.29159847E+00 0.64392180E+03</pdfrwt>
<pdfrwt beam="2">  1       -2 0.72547916E-02 0.64392180E+03</pdfrwt>
<totfact> 0.90229946E+02</totfact>
</mgrwt>
</event>
<event>
 4    1  0.2013882E-005  0.4919013E+03  0.7818608E-02  0.1015915E+00
         -2   -1    0    0    0  501 -0.00000000000E+00  0.00000000000E+00  0.21522296030E+02  0.21522296181E+02  0.25500000000E-02 0. -1.
          2   -1    0    0  501    0  0.00000000000E+00 -0.00000000000E+00 -0.28106540002E+04  0.28106540002E+04  0.25500000000E-02 0.  1.
    5000001    1    1    2    0    0 -0.79364215292E+02  0.13065770510E+03 -0.13021543040E+04  0.13250811092E+04  0.19200000000E+03 0.  0.
   -5000001    1    1    2    0    0  0.79364215292E+02 -0.13065770510E+03 -0.14869774002E+04  0.15070951872E+04  0.19200000000E+03 0.  0.
<mgrwt>
<rscale>  0 0.49190132E+03</rscale>
<asrwt>0</asrwt>
<pdfrwt beam="1">  1        2 0.40152177E+00 0.49190132E+03</pdfrwt>
<pdfrwt beam="2">  1       -2 0.30746155E-02 0.49190132E+03</pdfrwt>
<totfact> 0.13910365E+03</totfact>
</mgrwt>
</event>
<event>
 4    1  0.2013882E-005  0.5792948E+03  0.7818608E-02  0.9949319E-01
          2   -1    0    0  501    0  0.00000000000E+00  0.00000000000E+00  0.11956698971E+03  0.11956698974E+03  0.25500000000E-02 0.  1.
         -2   -1    0    0    0  501 -0.00000000000E+00 -0.00000000000E+00 -0.70166194542E+03  0.70166194542E+03  0.25500000000E-02 0. -1.
    5000001    1    1    2    0    0  0.19802728280E+03  0.71481777002E+02 -0.21728739509E+03  0.35833261258E+03  0.19200000000E+03 0.  0.
   -5000001    1    1    2    0    0 -0.19802728280E+03 -0.71481777002E+02 -0.36480756062E+03  0.46289632258E+03  0.19200000000E+03 0.  0.
<mgrwt>
<rscale>  0 0.57929477E+03</rscale>
<asrwt>0</asrwt>
<pdfrwt beam="1">  1        2 0.17080999E-01 0.57929477E+03</pdfrwt>
<pdfrwt beam="2">  1       -2 0.10023742E+00 0.57929477E+03</pdfrwt>
<totfact> 0.28480316E+02</totfact>
</mgrwt>
</event>
<event>
 4    1  0.2013882E-005  0.4253963E+03  0.7818608E-02  0.1035324E+00
         -2   -1    0    0    0  501 -0.00000000000E+00  0.00000000000E+00  0.14591292991E+03  0.14591292993E+03  0.25500000000E-02 0.  1.
          2   -1    0    0  501    0  0.00000000000E+00 -0.00000000000E+00 -0.31005139817E+03  0.31005139818E+03  0.25500000000E-02 0. -1.
    5000001    1    1    2    0    0  0.44922512959E+02 -0.55035225363E+02 -0.14391830073E+03  0.25024664930E+03  0.19200000000E+03 0.  0.
   -5000001    1    1    2    0    0 -0.44922512959E+02  0.55035225363E+02 -0.20220167527E+02  0.20571767881E+03  0.19200000000E+03 0.  0.
<mgrwt>
<rscale>  0 0.42539632E+03</rscale>
<asrwt>0</asrwt>
<pdfrwt beam="1">  1        2 0.44293056E-01 0.42539632E+03</pdfrwt>
<pdfrwt beam="2">  1       -2 0.20844704E-01 0.42539632E+03</pdfrwt>
<totfact> 0.22551328E+03</totfact>
</mgrwt>
</event>
<event>
 4    1  0.2013882E-005  0.4683371E+03  0.7818608E-02  0.1022391E+00
         -2   -1    0    0    0  501 -0.00000000000E+00  0.00000000000E+00  0.60059675489E+02  0.60059675543E+02  0.25500000000E-02 0. -1.
          2   -1    0    0  501    0  0.00000000000E+00 -0.00000000000E+00 -0.91300707245E+03  0.91300707246E+03  0.25500000000E-02 0.  1.
    5000001    1    1    2    0    0 -0.33060879199E+02 -0.11813134183E+03 -0.31414543705E+03  0.38807137395E+03  0.19200000000E+03 0.  0.
   -5000001    1    1    2    0    0  0.33060879199E+02  0.11813134183E+03 -0.53880195992E+03  0.58499537406E+03  0.19200000000E+03 0.  0.
<mgrwt>
<rscale>  0 0.46833709E+03</rscale>
<asrwt>0</asrwt>
<pdfrwt beam="1">  1        2 0.13042957E+00 0.46833709E+03</pdfrwt>
<pdfrwt beam="2">  1       -2 0.85799542E-02 0.46833709E+03</pdfrwt>
<totfact> 0.27994186E+03</totfact>
</mgrwt>
</event>
<event>
 4    1  0.2013882E-005  0.1487427E+04  0.7818608E-02  0.8892857E-01
          2   -1    0    0  501    0  0.00000000000E+00  0.00000000000E+00  0.14236743054E+04  0.14236743054E+04  0.25500000000E-02 0.  1.
         -2   -1    0    0    0  501 -0.00000000000E+00 -0.00000000000E+00 -0.38850866343E+03  0.38850866344E+03  0.25500000000E-02 0. -1.
    5000001    1    1    2    0    0  0.41179444913E+03  0.57452288874E+03  0.67452856764E+03  0.99574294202E+03  0.19200000000E+03 0.  0.
   -5000001    1    1    2    0    0 -0.41179444913E+03 -0.57452288874E+03  0.36063707433E+03  0.81644002682E+03  0.19200000000E+03 0.  0.
<mgrwt>
<rscale>  0 0.14874270E+04</rscale>
<asrwt>0</asrwt>
<pdfrwt beam="1">  1        2 0.20338205E+00 0.14874270E+04</pdfrwt>
<pdfrwt beam="2">  1       -2 0.55501236E-01 0.14874270E+04</pdfrwt>
<totfact> 0.47459932E+01</totfact>
</mgrwt>
</event>
<event>
 4    1  0.2013882E-005  0.5196167E+03  0.7818608E-02  0.1008782E+00
         -2   -1    0    0    0  501 -0.00000000000E+00  0.00000000000E+00  0.35457265503E+02  0.35457265595E+02  0.25500000000E-02 0. -1.
          2   -1    0    0  501    0  0.00000000000E+00 -0.00000000000E+00 -0.19037105218E+04  0.19037105218E+04  0.25500000000E-02 0.  1.
    5000001    1    1    2    0    0 -0.20794595387E+02  0.13978492034E+03 -0.13195118349E+04  0.13408757293E+04  0.19200000000E+03 0.  0.
   -5000001    1    1    2    0    0  0.20794595387E+02 -0.13978492034E+03 -0.54874142144E+03  0.59829205807E+03  0.19200000000E+03 0.  0.
<mgrwt>
<rscale>  0 0.51961666E+03</rscale>
<asrwt>0</asrwt>
<pdfrwt beam="1">  1        2 0.27195858E+00 0.51961666E+03</pdfrwt>
<pdfrwt beam="2">  1       -2 0.50653248E-02 0.51961666E+03</pdfrwt>
<totfact> 0.18680954E+03</totfact>
</mgrwt>
</event>
<event>
 4    1  0.2013882E-005  0.5422292E+03  0.7818608E-02  0.1003309E+00
         -2   -1    0    0    0  501 -0.00000000000E+00  0.00000000000E+00  0.44790224837E+02  0.44790224909E+02  0.25500000000E-02 0. -1.
          2   -1    0    0  501    0  0.00000000000E+00 -0.00000000000E+00 -0.16410530631E+04  0.16410530631E+04  0.25500000000E-02 0.  1.
    5000001    1    1    2    0    0 -0.13412625116E+03 -0.84981422872E+02 -0.46577138913E+03  0.52822218849E+03  0.19200000000E+03 0.  0.
   -5000001    1    1    2    0    0  0.13412625116E+03  0.84981422872E+02 -0.11304914491E+04  0.11576210995E+04  0.19200000000E+03 0.  0.
<mgrwt>
<rscale>  0 0.54222923E+03</rscale>
<asrwt>0</asrwt>
<pdfrwt beam="1">  1        2 0.23443611E+00 0.54222923E+03</pdfrwt>
<pdfrwt beam="2">  1       -2 0.63986046E-02 0.54222923E+03</pdfrwt>
<totfact> 0.17595590E+03</totfact>
</mgrwt>
</event>
<event>
 4    1  0.2013882E-005  0.2150557E+04  0.7818608E-02  0.8539294E-01
          2   -1    0    0  501    0  0.00000000000E+00  0.00000000000E+00  0.22316794519E+04  0.22316794519E+04  0.25500000000E-02 0.  1.
         -2   -1    0    0    0  501 -0.00000000000E+00 -0.00000000000E+00 -0.51809580307E+03  0.51809580308E+03  0.25500000000E-02 0. -1.
    5000001    1    1    2    0    0  0.99361931869E+03 -0.36291697897E+03  0.88144240779E+03  0.13902491871E+04  0.19200000000E+03 0.  0.
   -5000001    1    1    2    0    0 -0.99361931869E+03  0.36291697897E+03  0.83214124106E+03  0.13595260679E+04  0.19200000000E+03 0.  0.
<mgrwt>
<rscale>  0 0.21505569E+04</rscale>
<asrwt>0</asrwt>
<pdfrwt beam="1">  1        2 0.31881136E+00 0.21505569E+04</pdfrwt>
<pdfrwt beam="2">  1       -2 0.74013685E-01 0.21505569E+04</pdfrwt>
<totfact> 0.92290472E+00</totfact>
</mgrwt>
</event>
<event>
 4    1  0.2013882E-005  0.6149772E+03  0.7818608E-02  0.9874811E-01
         -2   -1    0    0    0  501 -0.00000000000E+00  0.00000000000E+00  0.95354332792E+02  0.95354332826E+02  0.25500000000E-02 0. -1.
          2   -1    0    0  501    0  0.00000000000E+00 -0.00000000000E+00 -0.99155688366E+03  0.99155688366E+03  0.25500000000E-02 0.  1.
    5000001    1    1    2    0    0  0.18317463501E+03  0.15531370874E+03 -0.45367631183E+03  0.54805245274E+03  0.19200000000E+03 0.  0.
   -5000001    1    1    2    0    0 -0.18317463501E+03 -0.15531370874E+03 -0.44252623903E+03  0.53885876375E+03  0.19200000000E+03 0.  0.
<mgrwt>
<rscale>  0 0.61497722E+03</rscale>
<asrwt>0</asrwt>
<pdfrwt beam="1">  1        2 0.14165098E+00 0.61497722E+03</pdfrwt>
<pdfrwt beam="2">  1       -2 0.13622048E-01 0.61497722E+03</pdfrwt>
<totfact> 0.11768110E+03</totfact>
</mgrwt>
</event>
<event>
 4    1  0.2013882E-005  0.5431838E+03  0.7818608E-02  0.1003084E+00
         -2   -1    0    0    0  501 -0.00000000000E+00  0.00000000000E+00  0.42617995881E+02  0.42617995957E+02  0.25500000000E-02 0. -1.
          2   -1    0    0  501    0  0.00000000000E+00 -0.00000000000E+00 -0.17307749635E+04  0.17307749635E+04  0.25500000000E-02 0.  1.
    5000001    1    1    2    0    0  0.46446248721E+02 -0.17348168174E+03 -0.10665895476E+04  0.10985128178E+04  0.19200000000E+03 0.  0.
   -5000001    1    1    2    0    0 -0.46446248721E+02  0.17348168174E+03 -0.62156742006E+03  0.67488014165E+03  0.19200000000E+03 0.  0.
<mgrwt>
<rscale>  0 0.54318380E+03</rscale>
<asrwt>0</asrwt>
<pdfrwt beam="1">  1        2 0.24725352E+00 0.54318380E+03</pdfrwt>
<pdfrwt beam="2">  1       -2 0.60882862E-02 0.54318380E+03</pdfrwt>
<totfact> 0.17126552E+03</totfact>
</mgrwt>
</event>
<event>
 4    1  0.2013882E-005  0.4801476E+03  0.7818608E-02  0.1019095E+00
          2   -1    0    0  501    0  0.00000000000E+00  0.00000000000E+00  0.15050901363E+03  0.15050901365E+03  0.25500000000E-02 0.  1.
         -2   -1    0    0    0  501 -0.00000000000E+00 -0.00000000000E+00 -0.38293677573E+03  0.38293677574E+03  0.25500000000E-02 0. -1.
    5000001    1    1    2    0    0  0.13666138336E+03  0.32538066196E+01 -0.65489347523E+02  0.24462169895E+03  0.19200000000E+03 0.  0.
   -5000001    1    1    2    0    0 -0.13666138336E+03 -0.32538066196E+01 -0.16693841458E+03  0.28882409045E+03  0.19200000000E+03 0.  0.
<mgrwt>
<rscale>  0 0.48014763E+03</rscale>
<asrwt>0</asrwt>
<pdfrwt beam="1">  1        2 0.21501288E-01 0.48014763E+03</pdfrwt>
<pdfrwt beam="2">  1       -2 0.54705253E-01 0.48014763E+03</pdfrwt>
<totfact> 0.82386296E+02</totfact>
</mgrwt>
</event>
<event>
 4    1  0.2013882E-005  0.9979259E+03  0.7818608E-02  0.9310823E-01
         -2   -1    0    0    0  501 -0.00000000000E+00  0.00000000000E+00  0.22446472948E+03  0.22446472949E+03  0.25500000000E-02 0. -1.
          2   -1    0    0  501    0  0.00000000000E+00 -0.00000000000E+00 -0.11091455131E+04  0.11091455131E+04  0.25500000000E-02 0.  1.
    5000001    1    1    2    0    0  0.43618302682E+03 -0.97702552454E+01 -0.24525709261E+03  0.53606541788E+03  0.19200000000E+03 0.  0.
   -5000001    1    1    2    0    0 -0.43618302682E+03  0.97702552454E+01 -0.63942369097E+03  0.79754482467E+03  0.19200000000E+03 0.  0.
<mgrwt>
<rscale>  0 0.99792594E+03</rscale>
<asrwt>0</asrwt>
<pdfrwt beam="1">  1        2 0.15844936E+00 0.99792594E+03</pdfrwt>
<pdfrwt beam="2">  1       -2 0.32066391E-01 0.99792594E+03</pdfrwt>
<totfact> 0.21743252E+02</totfact>
</mgrwt>
</event>
<event>
 4    1  0.2013882E-005  0.7083688E+03  0.7818608E-02  0.9703027E-01
          2   -1    0    0  501    0  0.00000000000E+00  0.00000000000E+00  0.81000569870E+03  0.81000569870E+03  0.25500000000E-02 0.  1.
         -2   -1    0    0    0  501 -0.00000000000E+00 -0.00000000000E+00 -0.15487122661E+03  0.15487122663E+03  0.25500000000E-02 0. -1.
    5000001    1    1    2    0    0 -0.11405215900E+03 -0.26108536787E+03  0.44481257698E+03  0.56204598827E+03  0.19200000000E+03 0.  0.
   -5000001    1    1    2    0    0  0.11405215900E+03  0.26108536787E+03  0.21032189511E+03  0.40283093706E+03  0.19200000000E+03 0.  0.
<mgrwt>
<rscale>  0 0.70836876E+03</rscale>
<asrwt>0</asrwt>
<pdfrwt beam="1">  1        2 0.11571510E+00 0.70836876E+03</pdfrwt>
<pdfrwt beam="2">  1       -2 0.22124461E-01 0.70836876E+03</pdfrwt>
<totfact> 0.66993132E+02</totfact>
</mgrwt>
</event>
<event>
 4    1  0.2013882E-005  0.9493315E+03  0.7818608E-02  0.9365932E-01
         -2   -1    0    0    0  501 -0.00000000000E+00  0.00000000000E+00  0.94969828820E+03  0.94969828821E+03  0.25500000000E-02 0. -1.
          2   -1    0    0  501    0  0.00000000000E+00 -0.00000000000E+00 -0.23724123648E+03  0.23724123650E+03  0.25500000000E-02 0.  1.
    5000001    1    1    2    0    0  0.34939582181E+03 -0.22480780003E+03  0.19893228820E+03  0.49905314600E+03  0.19200000000E+03 0.  0.
   -5000001    1    1    2    0    0 -0.34939582181E+03  0.22480780003E+03  0.51352476352E+03  0.68788637870E+03  0.19200000000E+03 0.  0.
<mgrwt>
<rscale>  0 0.94933155E+03</rscale>
<asrwt>0</asrwt>
<pdfrwt beam="1">  1        2 0.33891605E-01 0.94933155E+03</pdfrwt>
<pdfrwt beam="2">  1       -2 0.13567118E+00 0.94933155E+03</pdfrwt>
<totfact> 0.60461935E+01</totfact>
</mgrwt>
</event>
<event>
 4    1  0.2013882E-005  0.6771392E+03  0.7818608E-02  0.9757146E-01
          2   -1    0    0  501    0  0.00000000000E+00  0.00000000000E+00  0.34315737383E+03  0.34315737384E+03  0.25500000000E-02 0.  1.
         -2   -1    0    0    0  501 -0.00000000000E+00 -0.00000000000E+00 -0.33404318490E+03  0.33404318491E+03  0.25500000000E-02 0. -1.
    5000001    1    1    2    0    0 -0.10969301099E+03 -0.22901857139E+03  0.11982081765E+03  0.34015157070E+03  0.19200000000E+03 0.  0.
   -5000001    1    1    2    0    0  0.10969301099E+03  0.22901857139E+03 -0.11070662873E+03  0.33704898805E+03  0.19200000000E+03 0.  0.
<mgrwt>
<rscale>  0 0.67713922E+03</rscale>
<asrwt>0</asrwt>
<pdfrwt beam="1">  1        2 0.49022482E-01 0.67713922E+03</pdfrwt>
<pdfrwt beam="2">  1       -2 0.47720455E-01 0.67713922E+03</pdfrwt>
<totfact> 0.43057610E+02</totfact>
</mgrwt>
</event>
<event>
 4    1  0.2013882E-005  0.6632172E+03  0.7818608E-02  0.9782289E-01
         -2   -1    0    0    0  501 -0.00000000000E+00  0.00000000000E+00  0.16027105209E+03  0.16027105211E+03  0.25500000000E-02 0. -1.
          2   -1    0    0  501    0  0.00000000000E+00 -0.00000000000E+00 -0.68611426785E+03  0.68611426786E+03  0.25500000000E-02 0.  1.
    5000001    1    1    2    0    0 -0.27028643311E+03 -0.16532981048E+01 -0.27126731196E+03  0.42837768832E+03  0.19200000000E+03 0.  0.
   -5000001    1    1    2    0    0  0.27028643311E+03  0.16532981048E+01 -0.25457590380E+03  0.41800763164E+03  0.19200000000E+03 0.  0.
<mgrwt>
<rscale>  0 0.66321718E+03</rscale>
<asrwt>0</asrwt>
<pdfrwt beam="1">  1        2 0.98016322E-01 0.66321718E+03</pdfrwt>
<pdfrwt beam="2">  1       -2 0.22895865E-01 0.66321718E+03</pdfrwt>
<totfact> 0.77719566E+02</totfact>
</mgrwt>
</event>
<event>
 4    1  0.2013882E-005  0.4347744E+03  0.7818608E-02  0.1032362E+00
          2   -1    0    0  501    0  0.00000000000E+00  0.00000000000E+00  0.60785195239E+03  0.60785195239E+03  0.25500000000E-02 0.  1.
         -2   -1    0    0    0  501 -0.00000000000E+00 -0.00000000000E+00 -0.77744594010E+02  0.77744594052E+02  0.25500000000E-02 0. -1.
    5000001    1    1    2    0    0 -0.30027756984E+02  0.97188242226E+02  0.27574673036E+03  0.35106620447E+03  0.19200000000E+03 0.  0.
   -5000001    1    1    2    0    0  0.30027756984E+02 -0.97188242226E+02  0.25436062802E+03  0.33453034197E+03  0.19200000000E+03 0.  0.
<mgrwt>
<rscale>  0 0.43477444E+03</rscale>
<asrwt>0</asrwt>
<pdfrwt beam="1">  1        2 0.86835996E-01 0.43477444E+03</pdfrwt>
<pdfrwt beam="2">  1       -2 0.11106370E-01 0.43477444E+03</pdfrwt>
<totfact> 0.30592807E+03</totfact>
</mgrwt>
</event>
<event>
 4    1  0.2013882E-005  0.1050301E+04  0.7818608E-02  0.9255033E-01
          2   -1    0    0  501    0  0.00000000000E+00  0.00000000000E+00  0.75582675182E+03  0.75582675183E+03  0.25500000000E-02 0.  1.
         -2   -1    0    0    0  501 -0.00000000000E+00 -0.00000000000E+00 -0.36487604571E+03  0.36487604572E+03  0.25500000000E-02 0. -1.
    5000001    1    1    2    0    0  0.30869929838E+03 -0.25937137895E+03 -0.99361691640E+02  0.45749919651E+03  0.19200000000E+03 0.  0.
   -5000001    1    1    2    0    0 -0.30869929838E+03  0.25937137895E+03  0.49031239775E+03  0.66320360104E+03  0.19200000000E+03 0.  0.
<mgrwt>
<rscale>  0 0.10503011E+04</rscale>
<asrwt>0</asrwt>
<pdfrwt beam="1">  1        2 0.10797525E+00 0.10503011E+04</pdfrwt>
<pdfrwt beam="2">  1       -2 0.52125149E-01 0.10503011E+04</pdfrwt>
<totfact> 0.14143015E+02</totfact>
</mgrwt>
</event>
<event>
 4    1  0.2013882E-005  0.7612057E+03  0.7818608E-02  0.9617933E-01
          2   -1    0    0  501    0  0.00000000000E+00  0.00000000000E+00  0.97875006614E+03  0.97875006614E+03  0.25500000000E-02 0.  1.
         -2   -1    0    0    0  501 -0.00000000000E+00 -0.00000000000E+00 -0.14800358250E+03  0.14800358252E+03  0.25500000000E-02 0. -1.
    5000001    1    1    2    0    0 -0.27957204639E+03  0.15279930545E+03  0.29615918626E+03  0.47548125144E+03  0.19200000000E+03 0.  0.
   -5000001    1    1    2    0    0  0.27957204639E+03 -0.15279930545E+03  0.53458729737E+03  0.65127239722E+03  0.19200000000E+03 0.  0.
<mgrwt>
<rscale>  0 0.76120567E+03</rscale>
<asrwt>0</asrwt>
<pdfrwt beam="1">  1        2 0.13982144E+00 0.76120567E+03</pdfrwt>
<pdfrwt beam="2">  1       -2 0.21143369E-01 0.76120567E+03</pdfrwt>
<totfact> 0.56200715E+02</totfact>
</mgrwt>
</event>
<event>
 4    1  0.2013882E-005  0.4513255E+03  0.7818608E-02  0.1027328E+00
          2   -1    0    0  501    0  0.00000000000E+00  0.00000000000E+00  0.71716735643E+03  0.71716735644E+03  0.25500000000E-02 0.  1.
         -2   -1    0    0    0  501 -0.00000000000E+00 -0.00000000000E+00 -0.71006671504E+02  0.71006671550E+02  0.25500000000E-02 0. -1.
    5000001    1    1    2    0    0  0.55500426723E+02 -0.63440663841E+02  0.46871675844E+03  0.51348263343E+03  0.19200000000E+03 0.  0.
   -5000001    1    1    2    0    0 -0.55500426723E+02  0.63440663841E+02  0.17744392649E+03  0.27469139456E+03  0.19200000000E+03 0.  0.
<mgrwt>
<rscale>  0 0.45132546E+03</rscale>
<asrwt>0</asrwt>
<pdfrwt beam="1">  1        2 0.10245247E+00 0.45132546E+03</pdfrwt>
<pdfrwt beam="2">  1       -2 0.10143811E-01 0.45132546E+03</pdfrwt>
<totfact> 0.29098723E+03</totfact>
</mgrwt>
</event>
<event>
 4    1  0.2013882E-005  0.6184033E+03  0.7818608E-02  0.9867944E-01
          2   -1    0    0  501    0  0.00000000000E+00  0.00000000000E+00  0.11769321815E+04  0.11769321815E+04  0.25500000000E-02 0. -1.
         -2   -1    0    0    0  501 -0.00000000000E+00 -0.00000000000E+00 -0.81232948141E+02  0.81232948181E+02  0.25500000000E-02 0.  1.
    5000001    1    1    2    0    0  0.22429121883E+03  0.57864935450E+02  0.69295610857E+03  0.75545156694E+03  0.19200000000E+03 0.  0.
   -5000001    1    1    2    0    0 -0.22429121883E+03 -0.57864935450E+02  0.40274312481E+03  0.50271356275E+03  0.19200000000E+03 0.  0.
<mgrwt>
<rscale>  0 0.61840333E+03</rscale>
<asrwt>0</asrwt>
<pdfrwt beam="1">  1        2 0.16813318E+00 0.61840333E+03</pdfrwt>
<pdfrwt beam="2">  1       -2 0.11604706E-01 0.61840333E+03</pdfrwt>
<totfact> 0.11939657E+03</totfact>
</mgrwt>
</event>
<event>
 4    1  0.2013882E-005  0.8770562E+03  0.7818608E-02  0.9454726E-01
          2   -1    0    0  501    0  0.00000000000E+00  0.00000000000E+00  0.24356359193E+04  0.24356359193E+04  0.25500000000E-02 0.  1.
         -2   -1    0    0    0  501 -0.00000000000E+00 -0.00000000000E+00 -0.78955521147E+02  0.78955521188E+02  0.25500000000E-02 0. -1.
    5000001    1    1    2    0    0 -0.65474968741E+00  0.33823547570E+03  0.59752276709E+03  0.71295239877E+03  0.19200000000E+03 0.  0.
   -5000001    1    1    2    0    0  0.65474968741E+00 -0.33823547570E+03  0.17591576311E+04  0.18016390417E+04  0.19200000000E+03 0.  0.
<mgrwt>
<rscale>  0 0.87705622E+03</rscale>
<asrwt>0</asrwt>
<pdfrwt beam="1">  1        2 0.34794790E+00 0.87705622E+03</pdfrwt>
<pdfrwt beam="2">  1       -2 0.11279363E-01 0.87705622E+03</pdfrwt>
<totfact> 0.27403200E+02</totfact>
</mgrwt>
</event>
<event>
 4    1  0.2013882E-005  0.7537784E+03  0.7818608E-02  0.9629441E-01
         -2   -1    0    0    0  501 -0.00000000000E+00  0.00000000000E+00  0.57726334919E+02  0.57726334975E+02  0.25500000000E-02 0. -1.
          2   -1    0    0  501    0  0.00000000000E+00 -0.00000000000E+00 -0.24606701361E+04  0.24606701361E+04  0.25500000000E-02 0.  1.
    5000001    1    1    2    0    0 -0.23659371121E+03 -0.21155700647E+03 -0.97863451378E+03  0.10465765441E+04  0.19200000000E+03 0.  0.
   -5000001    1    1    2    0    0  0.23659371121E+03  0.21155700647E+03 -0.14243092874E+04  0.14718199270E+04  0.19200000000E+03 0.  0.
<mgrwt>
<rscale>  0 0.75377840E+03</rscale>
<asrwt>0</asrwt>
<pdfrwt beam="1">  1        2 0.35152424E+00 0.75377840E+03</pdfrwt>
<pdfrwt beam="2">  1       -2 0.82466208E-02 0.75377840E+03</pdfrwt>
<totfact> 0.44688033E+02</totfact>
</mgrwt>
</event>
<event>
 4    1  0.2013882E-005  0.8323882E+03  0.7818608E-02  0.9514285E-01
         -2   -1    0    0    0  501 -0.00000000000E+00  0.00000000000E+00  0.73719928441E+02  0.73719928485E+02  0.25500000000E-02 0. -1.
          2   -1    0    0  501    0  0.00000000000E+00 -0.00000000000E+00 -0.23496702121E+04  0.23496702121E+04  0.25500000000E-02 0.  1.
    5000001    1    1    2    0    0  0.11081566297E+03  0.33029958896E+03 -0.14942534721E+04  0.15462973092E+04  0.19200000000E+03 0.  0.
   -5000001    1    1    2    0    0 -0.11081566297E+03 -0.33029958896E+03 -0.78169681154E+03  0.87709283134E+03  0.19200000000E+03 0.  0.
<mgrwt>
<rscale>  0 0.83238818E+03</rscale>
<asrwt>0</asrwt>
<pdfrwt beam="1">  1        2 0.33566713E+00 0.83238818E+03</pdfrwt>
<pdfrwt beam="2">  1       -2 0.10531420E-01 0.83238818E+03</pdfrwt>
<totfact> 0.34079456E+02</totfact>
</mgrwt>
</event>
<event>
 4    1  0.2013882E-005  0.6376042E+03  0.7818608E-02  0.9830321E-01
         -2   -1    0    0    0  501 -0.00000000000E+00  0.00000000000E+00  0.63593226757E+02  0.63593226808E+02  0.25500000000E-02 0.  1.
          2   -1    0    0  501    0  0.00000000000E+00 -0.00000000000E+00 -0.15982014755E+04  0.15982014755E+04  0.25500000000E-02 0. -1.
    5000001    1    1    2    0    0 -0.16926313090E+03 -0.30526346159E+02 -0.27839384225E+03  0.37940611052E+03  0.19200000000E+03 0.  0.
   -5000001    1    1    2    0    0  0.16926313090E+03  0.30526346159E+02 -0.12562144065E+04  0.12823885918E+04  0.19200000000E+03 0.  0.
<mgrwt>
<rscale>  0 0.63760423E+03</rscale>
<asrwt>0</asrwt>
<pdfrwt beam="1">  1        2 0.22831447E+00 0.63760423E+03</pdfrwt>
<pdfrwt beam="2">  1       -2 0.90847476E-02 0.63760423E+03</pdfrwt>
<totfact> 0.10566415E+03</totfact>
</mgrwt>
</event>
<event>
 4    1  0.2013882E-005  0.5796240E+03  0.7818608E-02  0.9948605E-01
          2   -1    0    0  501    0  0.00000000000E+00  0.00000000000E+00  0.13537091471E+04  0.13537091471E+04  0.25500000000E-02 0.  1.
         -2   -1    0    0    0  501 -0.00000000000E+00 -0.00000000000E+00 -0.62045089345E+02  0.62045089398E+02  0.25500000000E-02 0. -1.
    5000001    1    1    2    0    0 -0.96776288348E+02  0.11642963910E+03  0.26581902172E+03  0.36117206862E+03  0.19200000000E+03 0.  0.
   -5000001    1    1    2    0    0  0.96776288348E+02 -0.11642963910E+03  0.10258450361E+04  0.10545821679E+04  0.19200000000E+03 0.  0.
<mgrwt>
<rscale>  0 0.57962403E+03</rscale>
<asrwt>0</asrwt>
<pdfrwt beam="1">  1        2 0.19338704E+00 0.57962403E+03</pdfrwt>
<pdfrwt beam="2">  1       -2 0.88635835E-02 0.57962403E+03</pdfrwt>
<totfact> 0.14798872E+03</totfact>
</mgrwt>
</event>
<event>
 4    1  0.2013882E-005  0.7006834E+03  0.7818608E-02  0.9716064E-01
         -2   -1    0    0    0  501 -0.00000000000E+00  0.00000000000E+00  0.25874308151E+03  0.25874308152E+03  0.25500000000E-02 0. -1.
          2   -1    0    0  501    0  0.00000000000E+00 -0.00000000000E+00 -0.47436746584E+03  0.47436746584E+03  0.25500000000E-02 0.  1.
    5000001    1    1    2    0    0 -0.28709576569E+03  0.14768226043E+02 -0.48319266415E+02  0.34905705935E+03  0.19200000000E+03 0.  0.
   -5000001    1    1    2    0    0  0.28709576569E+03 -0.14768226043E+02 -0.16730511791E+03  0.38405348801E+03  0.19200000000E+03 0.  0.
<mgrwt>
<rscale>  0 0.70068338E+03</rscale>
<asrwt>0</asrwt>
<pdfrwt beam="1">  1        2 0.67766780E-01 0.70068338E+03</pdfrwt>
<pdfrwt beam="2">  1       -2 0.36963298E-01 0.70068338E+03</pdfrwt>
<totfact> 0.49476981E+02</totfact>
</mgrwt>
</event>
<event>
 4    1  0.2013882E-005  0.1613826E+04  0.7818608E-02  0.8812099E-01
         -2   -1    0    0    0  501 -0.00000000000E+00  0.00000000000E+00  0.21670809416E+04  0.21670809416E+04  0.25500000000E-02 0. -1.
          2   -1    0    0  501    0  0.00000000000E+00 -0.00000000000E+00 -0.30045411128E+03  0.30045411129E+03  0.25500000000E-02 0.  1.
    5000001    1    1    2    0    0 -0.99117603223E+02 -0.70285236882E+03  0.42523837041E+03  0.84942181706E+03  0.19200000000E+03 0.  0.
   -5000001    1    1    2    0    0  0.99117603223E+02  0.70285236882E+03  0.14413884599E+04  0.16181132358E+04  0.19200000000E+03 0.  0.
<mgrwt>
<rscale>  0 0.16138257E+04</rscale>
<asrwt>0</asrwt>
<pdfrwt beam="1">  1        2 0.42922014E-01 0.16138257E+04</pdfrwt>
<pdfrwt beam="2">  1       -2 0.30958301E+00 0.16138257E+04</pdfrwt>
<totfact> 0.31838768E+00</totfact>
</mgrwt>
</event>
<event>
 4    1  0.2013882E-005  0.5355016E+03  0.7818608E-02  0.1004907E+00
         -2   -1    0    0    0  501 -0.00000000000E+00  0.00000000000E+00  0.22628934751E+02  0.22628934895E+02  0.25500000000E-02 0. -1.
          2   -1    0    0  501    0  0.00000000000E+00 -0.00000000000E+00 -0.31680893202E+04  0.31680893202E+04  0.25500000000E-02 0.  1.
    5000001    1    1    2    0    0  0.15314225300E+03  0.10200600085E+03 -0.13872808775E+04  0.14125402673E+04  0.19200000000E+03 0.  0.
   -5000001    1    1    2    0    0 -0.15314225300E+03 -0.10200600085E+03 -0.17581795080E+04  0.17781779878E+04  0.19200000000E+03 0.  0.
<mgrwt>
<rscale>  0 0.53550158E+03</rscale>
<asrwt>0</asrwt>
<pdfrwt beam="1">  1        2 0.45258391E+00 0.53550158E+03</pdfrwt>
<pdfrwt beam="2">  1       -2 0.32327070E-02 0.53550158E+03</pdfrwt>
<totfact> 0.82266888E+02</totfact>
</mgrwt>
</event>
<event>
 4    1  0.2013882E-005  0.7550017E+03  0.7818608E-02  0.9627536E-01
         -2   -1    0    0    0  501 -0.00000000000E+00  0.00000000000E+00  0.13584680193E+03  0.13584680195E+03  0.25500000000E-02 0.  1.
          2   -1    0    0  501    0  0.00000000000E+00 -0.00000000000E+00 -0.10490265092E+04  0.10490265092E+04  0.25500000000E-02 0. -1.
    5000001    1    1    2    0    0  0.18055360099E+03  0.88907460829E+02 -0.56051863598E+02  0.28374275468E+03  0.19200000000E+03 0.  0.
   -5000001    1    1    2    0    0 -0.18055360099E+03 -0.88907460829E+02 -0.85712784370E+03  0.90113055650E+03  0.19200000000E+03 0.  0.
<mgrwt>
<rscale>  0 0.75500171E+03</rscale>
<asrwt>0</asrwt>
<pdfrwt beam="1">  1        2 0.14986092E+00 0.75500171E+03</pdfrwt>
<pdfrwt beam="2">  1       -2 0.19406687E-01 0.75500171E+03</pdfrwt>
<totfact> 0.59181602E+02</totfact>
</mgrwt>
</event>
<event>
 4    1  0.2013882E-005  0.4889508E+03  0.7818608E-02  0.1016704E+00
         -2   -1    0    0    0  501 -0.00000000000E+00  0.00000000000E+00  0.10965484218E+03  0.10965484221E+03  0.25500000000E-02 0. -1.
          2   -1    0    0  501    0  0.00000000000E+00 -0.00000000000E+00 -0.54505780912E+03  0.54505780913E+03  0.25500000000E-02 0.  1.
    5000001    1    1    2    0    0  0.13398789674E+03 -0.26438410356E+02 -0.13038287803E+03  0.26928691186E+03  0.19200000000E+03 0.  0.
   -5000001    1    1    2    0    0 -0.13398789674E+03  0.26438410356E+02 -0.30502008891E+03  0.38542573948E+03  0.19200000000E+03 0.  0.
<mgrwt>
<rscale>  0 0.48895083E+03</rscale>
<asrwt>0</asrwt>
<pdfrwt beam="1">  1        2 0.77865400E-01 0.48895083E+03</pdfrwt>
<pdfrwt beam="2">  1       -2 0.15664978E-01 0.48895083E+03</pdfrwt>
<totfact> 0.19682851E+03</totfact>
</mgrwt>
</event>
<event>
 4    1  0.2013882E-005  0.6993987E+03  0.7818608E-02  0.9718261E-01
          2   -1    0    0  501    0  0.00000000000E+00  0.00000000000E+00  0.32786518272E+04  0.32786518272E+04  0.25500000000E-02 0.  1.
         -2   -1    0    0    0  501 -0.00000000000E+00 -0.00000000000E+00 -0.37298760545E+02  0.37298760632E+02  0.25500000000E-02 0. -1.
    5000001    1    1    2    0    0 -0.13982952475E+03  0.13924734415E+03  0.59848387252E+03  0.65877846391E+03  0.19200000000E+03 0.  0.
   -5000001    1    1    2    0    0  0.13982952475E+03 -0.13924734415E+03  0.26428691942E+04  0.26571721240E+04  0.19200000000E+03 0.  0.
<mgrwt>
<rscale>  0 0.69939874E+03</rscale>
<asrwt>0</asrwt>
<pdfrwt beam="1">  1        2 0.46837871E+00 0.69939874E+03</pdfrwt>
<pdfrwt beam="2">  1       -2 0.53283958E-02 0.69939874E+03</pdfrwt>
<totfact> 0.32447323E+02</totfact>
</mgrwt>
</event>
<event>
 4    1  0.2013882E-005  0.7004855E+03  0.7818608E-02  0.9716402E-01
          2   -1    0    0  501    0  0.00000000000E+00  0.00000000000E+00  0.55299312916E+03  0.55299312917E+03  0.25500000000E-02 0.  1.
         -2   -1    0    0    0  501 -0.00000000000E+00 -0.00000000000E+00 -0.22182913718E+03  0.22182913720E+03  0.25500000000E-02 0. -1.
    5000001    1    1    2    0    0  0.15267600355E+03 -0.24535549998E+03  0.11257226877E+03  0.36475443675E+03  0.19200000000E+03 0.  0.
   -5000001    1    1    2    0    0 -0.15267600355E+03  0.24535549998E+03  0.21859172321E+03  0.41006782962E+03  0.19200000000E+03 0.  0.
<mgrwt>
<rscale>  0 0.70048551E+03</rscale>
<asrwt>0</asrwt>
<pdfrwt beam="1">  1        2 0.78999018E-01 0.70048551E+03</pdfrwt>
<pdfrwt beam="2">  1       -2 0.31689877E-01 0.70048551E+03</pdfrwt>
<totfact> 0.55528355E+02</totfact>
</mgrwt>
</event>
<event>
 4    1  0.2013882E-005  0.5742837E+03  0.7818608E-02  0.9960244E-01
          2   -1    0    0  501    0  0.00000000000E+00  0.00000000000E+00  0.33583926265E+03  0.33583926266E+03  0.25500000000E-02 0.  1.
         -2   -1    0    0    0  501 -0.00000000000E+00 -0.00000000000E+00 -0.24550566379E+03  0.24550566380E+03  0.25500000000E-02 0. -1.
    5000001    1    1    2    0    0 -0.19214072155E+03 -0.60864351897E+02  0.11648815072E+03  0.30175489303E+03  0.19200000000E+03 0.  0.
   -5000001    1    1    2    0    0  0.19214072155E+03  0.60864351897E+02 -0.26154551864E+02  0.27959003343E+03  0.19200000000E+03 0.  0.
<mgrwt>
<rscale>  0 0.57428370E+03</rscale>
<asrwt>0</asrwt>
<pdfrwt beam="1">  1        2 0.47977038E-01 0.57428370E+03</pdfrwt>
<pdfrwt beam="2">  1       -2 0.35072238E-01 0.57428370E+03</pdfrwt>
<totfact> 0.80565581E+02</totfact>
</mgrwt>
</event>
<event>
 4    1  0.2013882E-005  0.4518326E+03  0.7818608E-02  0.1027177E+00
         -2   -1    0    0    0  501 -0.00000000000E+00  0.00000000000E+00  0.33546830904E+02  0.33546831001E+02  0.25500000000E-02 0. -1.
          2   -1    0    0  501    0  0.00000000000E+00 -0.00000000000E+00 -0.15214008173E+04  0.15214008173E+04  0.25500000000E-02 0.  1.
    5000001    1    1    2    0    0  0.77285272682E+02 -0.47356637489E+02 -0.47827865954E+03  0.52328781818E+03  0.19200000000E+03 0.  0.
   -5000001    1    1    2    0    0 -0.77285272682E+02  0.47356637489E+02 -0.10095753269E+04  0.10316598301E+04  0.19200000000E+03 0.  0.
<mgrwt>
<rscale>  0 0.45183261E+03</rscale>
<asrwt>0</asrwt>
<pdfrwt beam="1">  1        2 0.21734293E+00 0.45183261E+03</pdfrwt>
<pdfrwt beam="2">  1       -2 0.47924054E-02 0.45183261E+03</pdfrwt>
<totfact> 0.31796696E+03</totfact>
</mgrwt>
</event>
<event>
 4    1  0.2013882E-005  0.5901953E+03  0.7818608E-02  0.9925959E-01
         -2   -1    0    0    0  501 -0.00000000000E+00  0.00000000000E+00  0.53703628964E+02  0.53703629024E+02  0.25500000000E-02 0. -1.
          2   -1    0    0  501    0  0.00000000000E+00 -0.00000000000E+00 -0.16215409775E+04  0.16215409775E+04  0.25500000000E-02 0.  1.
    5000001    1    1    2    0    0  0.17034891707E+03 -0.77592603565E+02 -0.43420880738E+03  0.51033386531E+03  0.19200000000E+03 0.  0.
   -5000001    1    1    2    0    0 -0.17034891707E+03  0.77592603565E+02 -0.11336285412E+04  0.11649107412E+04  0.19200000000E+03 0.  0.
<mgrwt>
<rscale>  0 0.59019534E+03</rscale>
<asrwt>0</asrwt>
<pdfrwt beam="1">  1        2 0.23164868E+00 0.59019534E+03</pdfrwt>
<pdfrwt beam="2">  1       -2 0.76719480E-02 0.59019534E+03</pdfrwt>
<totfact> 0.13495907E+03</totfact>
</mgrwt>
</event>
<event>
 4    1  0.2013882E-005  0.5176216E+03  0.7818608E-02  0.1009279E+00
          2   -1    0    0  501    0  0.00000000000E+00  0.00000000000E+00  0.26693043596E+03  0.26693043597E+03  0.25500000000E-02 0.  1.
         -2   -1    0    0    0  501 -0.00000000000E+00 -0.00000000000E+00 -0.25093812316E+03  0.25093812318E+03  0.25500000000E-02 0. -1.
    5000001    1    1    2    0    0 -0.61767167900E+01 -0.13027659511E+03 -0.10655249097E+03  0.25539689974E+03  0.19200000000E+03 0.  0.
   -5000001    1    1    2    0    0  0.61767167900E+01  0.13027659511E+03  0.12254480376E+03  0.26247165941E+03  0.19200000000E+03 0.  0.
<mgrwt>
<rscale>  0 0.51762157E+03</rscale>
<asrwt>0</asrwt>
<pdfrwt beam="1">  1        2 0.38132919E-01 0.51762157E+03</pdfrwt>
<pdfrwt beam="2">  1       -2 0.35848304E-01 0.51762157E+03</pdfrwt>
<totfact> 0.99566427E+02</totfact>
</mgrwt>
</event>
<event>
 4    1  0.2013882E-005  0.5760696E+03  0.7818608E-02  0.9956337E-01
         -2   -1    0    0    0  501 -0.00000000000E+00  0.00000000000E+00  0.57560869934E+02  0.57560869991E+02  0.25500000000E-02 0. -1.
          2   -1    0    0  501    0  0.00000000000E+00 -0.00000000000E+00 -0.14413273537E+04  0.14413273537E+04  0.25500000000E-02 0.  1.
    5000001    1    1    2    0    0  0.89795702285E+02 -0.16433314526E+03 -0.96516439997E+03  0.10017359781E+04  0.19200000000E+03 0.  0.
   -5000001    1    1    2    0    0 -0.89795702285E+02  0.16433314526E+03 -0.41860208383E+03  0.49715224566E+03  0.19200000000E+03 0.  0.
<mgrwt>
<rscale>  0 0.57606964E+03</rscale>
<asrwt>0</asrwt>
<pdfrwt beam="1">  1        2 0.20590389E+00 0.57606964E+03</pdfrwt>
<pdfrwt beam="2">  1       -2 0.82229823E-02 0.57606964E+03</pdfrwt>
<totfact> 0.14993246E+03</totfact>
</mgrwt>
</event>
<event>
 4    1  0.2013882E-005  0.6574798E+03  0.7818608E-02  0.9792844E-01
         -2   -1    0    0    0  501 -0.00000000000E+00  0.00000000000E+00  0.80655297459E+02  0.80655297499E+02  0.25500000000E-02 0.  1.
          2   -1    0    0  501    0  0.00000000000E+00 -0.00000000000E+00 -0.13398988142E+04  0.13398988142E+04  0.25500000000E-02 0. -1.
    5000001    1    1    2    0    0  0.20077054516E+03 -0.13522627392E+03 -0.38698881720E+03  0.49519622535E+03  0.19200000000E+03 0.  0.
   -5000001    1    1    2    0    0 -0.20077054516E+03  0.13522627392E+03 -0.87225469957E+03  0.92535788638E+03  0.19200000000E+03 0.  0.
<mgrwt>
<rscale>  0 0.65747985E+03</rscale>
<asrwt>0</asrwt>
<pdfrwt beam="1">  1        2 0.19141410E+00 0.65747985E+03</pdfrwt>
<pdfrwt beam="2">  1       -2 0.11522186E-01 0.65747985E+03</pdfrwt>
<totfact> 0.98080463E+02</totfact>
</mgrwt>
</event>
<event>
 4    1  0.2013882E-005  0.5057047E+03  0.7818608E-02  0.1012301E+00
          2   -1    0    0  501    0  0.00000000000E+00  0.00000000000E+00  0.53194199971E+03  0.53194199972E+03  0.25500000000E-02 0.  1.
         -2   -1    0    0    0  501 -0.00000000000E+00 -0.00000000000E+00 -0.12019036390E+03  0.12019036393E+03  0.25500000000E-02 0. -1.
    5000001    1    1    2    0    0 -0.15362937749E+03 -0.57767535629E+02  0.19110334324E+03  0.31673894866E+03  0.19200000000E+03 0.  0.
   -5000001    1    1    2    0    0  0.15362937749E+03  0.57767535629E+02  0.22064829257E+03  0.33539341498E+03  0.19200000000E+03 0.  0.
<mgrwt>
<rscale>  0 0.50570467E+03</rscale>
<asrwt>0</asrwt>
<pdfrwt beam="1">  1        2 0.75991717E-01 0.50570467E+03</pdfrwt>
<pdfrwt beam="2">  1       -2 0.17170051E-01 0.50570467E+03</pdfrwt>
<totfact> 0.17330293E+03</totfact>
</mgrwt>
</event>
<event>
 4    1  0.2013882E-005  0.4719602E+03  0.7818608E-02  0.1021368E+00
          2   -1    0    0  501    0  0.00000000000E+00  0.00000000000E+00  0.38675914222E+03  0.38675914223E+03  0.25500000000E-02 0.  1.
         -2   -1    0    0    0  501 -0.00000000000E+00 -0.00000000000E+00 -0.14398266485E+03  0.14398266488E+03  0.25500000000E-02 0. -1.
    5000001    1    1    2    0    0  0.45668505854E+02 -0.12079471329E+03  0.17347843659E+03  0.28919844942E+03  0.19200000000E+03 0.  0.
   -5000001    1    1    2    0    0 -0.45668505854E+02  0.12079471329E+03  0.69298040773E+02  0.24154335768E+03  0.19200000000E+03 0.  0.
<mgrwt>
<rscale>  0 0.47196022E+03</rscale>
<asrwt>0</asrwt>
<pdfrwt beam="1">  1        2 0.55251306E-01 0.47196022E+03</pdfrwt>
<pdfrwt beam="2">  1       -2 0.20568952E-01 0.47196022E+03</pdfrwt>
<totfact> 0.18133687E+03</totfact>
</mgrwt>
</event>
<event>
 4    1  0.2013882E-005  0.6209942E+03  0.7818608E-02  0.9862782E-01
          2   -1    0    0  501    0  0.00000000000E+00  0.00000000000E+00  0.20020790160E+04  0.20020790160E+04  0.25500000000E-02 0.  1.
         -2   -1    0    0    0  501 -0.00000000000E+00 -0.00000000000E+00 -0.48154163117E+02  0.48154163185E+02  0.25500000000E-02 0. -1.
    5000001    1    1    2    0    0 -0.10250842369E+03  0.22114693748E+03  0.93924759537E+03  0.98917338738E+03  0.19200000000E+03 0.  0.
   -5000001    1    1    2    0    0  0.10250842369E+03 -0.22114693748E+03  0.10146772576E+04  0.10610597919E+04  0.19200000000E+03 0.  0.
<mgrwt>
<rscale>  0 0.62099417E+03</rscale>
<asrwt>0</asrwt>
<pdfrwt beam="1">  1        2 0.28601133E+00 0.62099417E+03</pdfrwt>
<pdfrwt beam="2">  1       -2 0.68791651E-02 0.62099417E+03</pdfrwt>
<totfact> 0.10283564E+03</totfact>
</mgrwt>
</event>
<event>
 4    1  0.2013882E-005  0.5477731E+03  0.7818608E-02  0.1002011E+00
         -2   -1    0    0    0  501 -0.00000000000E+00  0.00000000000E+00  0.22980176939E+03  0.22980176940E+03  0.25500000000E-02 0. -1.
          2   -1    0    0  501    0  0.00000000000E+00 -0.00000000000E+00 -0.32642846958E+03  0.32642846959E+03  0.25500000000E-02 0.  1.
    5000001    1    1    2    0    0  0.21786151844E+02 -0.72098064803E+02  0.13468296245E+03  0.24632553204E+03  0.19200000000E+03 0.  0.
   -5000001    1    1    2    0    0 -0.21786151844E+02  0.72098064803E+02 -0.23130966264E+03  0.30990470695E+03  0.19200000000E+03 0.  0.
<mgrwt>
<rscale>  0 0.54777309E+03</rscale>
<asrwt>0</asrwt>
<pdfrwt beam="1">  1        2 0.46632638E-01 0.54777309E+03</pdfrwt>
<pdfrwt beam="2">  1       -2 0.32828824E-01 0.54777309E+03</pdfrwt>
<totfact> 0.94163329E+02</totfact>
</mgrwt>
</event>
<event>
 4    1  0.2013882E-005  0.7146747E+03  0.7818608E-02  0.9692460E-01
         -2   -1    0    0    0  501 -0.00000000000E+00  0.00000000000E+00  0.35905245273E+02  0.35905245364E+02  0.25500000000E-02 0. -1.
          2   -1    0    0  501    0  0.00000000000E+00 -0.00000000000E+00 -0.35563045324E+04  0.35563045324E+04  0.25500000000E-02 0.  1.
    5000001    1    1    2    0    0 -0.19378991633E+03 -0.19119901946E+03 -0.24100278214E+04  0.24329426004E+04  0.19200000000E+03 0.  0.
   -5000001    1    1    2    0    0  0.19378991633E+03  0.19119901946E+03 -0.11103714657E+04  0.11592671774E+04  0.19200000000E+03 0.  0.
<mgrwt>
<rscale>  0 0.71467471E+03</rscale>
<asrwt>0</asrwt>
<pdfrwt beam="1">  1        2 0.50804328E+00 0.71467471E+03</pdfrwt>
<pdfrwt beam="2">  1       -2 0.51293230E-02 0.71467471E+03</pdfrwt>
<totfact> 0.23615050E+02</totfact>
</mgrwt>
</event>
<event>
 4    1  0.2013882E-005  0.4765949E+03  0.7818608E-02  0.1020075E+00
         -2   -1    0    0    0  501 -0.00000000000E+00  0.00000000000E+00  0.15617112203E+02  0.15617112411E+02  0.25500000000E-02 0. -1.
          2   -1    0    0  501    0  0.00000000000E+00 -0.00000000000E+00 -0.36361183376E+04  0.36361183376E+04  0.25500000000E-02 0.  1.
    5000001    1    1    2    0    0 -0.80271515351E+02  0.11339521551E+03 -0.20009866508E+04  0.20149723491E+04  0.19200000000E+03 0.  0.
   -5000001    1    1    2    0    0  0.80271515351E+02 -0.11339521551E+03 -0.16195145746E+04  0.16367631008E+04  0.19200000000E+03 0.  0.
<mgrwt>
<rscale>  0 0.47659487E+03</rscale>
<asrwt>0</asrwt>
<pdfrwt beam="1">  1        2 0.51944494E+00 0.47659487E+03</pdfrwt>
<pdfrwt beam="2">  1       -2 0.22310184E-02 0.47659487E+03</pdfrwt>
<totfact> 0.77557362E+02</totfact>
</mgrwt>
</event>
<event>
 4    1  0.2013882E-005  0.1113131E+04  0.7818608E-02  0.9192487E-01
         -2   -1    0    0    0  501 -0.00000000000E+00  0.00000000000E+00  0.27517344253E+03  0.27517344254E+03  0.25500000000E-02 0. -1.
          2   -1    0    0  501    0  0.00000000000E+00 -0.00000000000E+00 -0.11257092442E+04  0.11257092442E+04  0.25500000000E-02 0.  1.
    5000001    1    1    2    0    0 -0.13238850110E+02  0.42634243129E+03 -0.45711594204E+02  0.46999647415E+03  0.19200000000E+03 0.  0.
   -5000001    1    1    2    0    0  0.13238850110E+02 -0.42634243129E+03 -0.80482420742E+03  0.93088621255E+03  0.19200000000E+03 0.  0.
<mgrwt>
<rscale>  0 0.11131312E+04</rscale>
<asrwt>0</asrwt>
<pdfrwt beam="1">  1        2 0.16081560E+00 0.11131312E+04</pdfrwt>
<pdfrwt beam="2">  1       -2 0.39310492E-01 0.11131312E+04</pdfrwt>
<totfact> 0.14305613E+02</totfact>
</mgrwt>
</event>
<event>
 4    1  0.2013882E-005  0.4597566E+03  0.7818608E-02  0.1024852E+00
         -2   -1    0    0    0  501 -0.00000000000E+00  0.00000000000E+00  0.21272425174E+02  0.21272425327E+02  0.25500000000E-02 0. -1.
          2   -1    0    0  501    0  0.00000000000E+00 -0.00000000000E+00 -0.24841561135E+04  0.24841561135E+04  0.25500000000E-02 0.  1.
    5000001    1    1    2    0    0 -0.46570124053E+02  0.53336077203E+02 -0.66076752289E+03  0.69173060717E+03  0.19200000000E+03 0.  0.
   -5000001    1    1    2    0    0  0.46570124053E+02 -0.53336077203E+02 -0.18021161654E+04  0.18136979317E+04  0.19200000000E+03 0.  0.
<mgrwt>
<rscale>  0 0.45975657E+03</rscale>
<asrwt>0</asrwt>
<pdfrwt beam="1">  1        2 0.35487926E+00 0.45975657E+03</pdfrwt>
<pdfrwt beam="2">  1       -2 0.30389195E-02 0.45975657E+03</pdfrwt>
<totfact> 0.20927863E+03</totfact>
</mgrwt>
</event>
<event>
 4    1  0.2013882E-005  0.5428884E+03  0.7818608E-02  0.1003154E+00
          2   -1    0    0  501    0  0.00000000000E+00  0.00000000000E+00  0.21014484740E+04  0.21014484740E+04  0.25500000000E-02 0.  1.
         -2   -1    0    0    0  501 -0.00000000000E+00 -0.00000000000E+00 -0.35062461751E+02  0.35062461844E+02  0.25500000000E-02 0. -1.
    5000001    1    1    2    0    0 -0.13743213126E+02 -0.17491043043E+03  0.13389302730E+04  0.13639577745E+04  0.19200000000E+03 0.  0.
   -5000001    1    1    2    0    0  0.13743213126E+02  0.17491043043E+03  0.72745573922E+03  0.77255316134E+03  0.19200000000E+03 0.  0.
<mgrwt>
<rscale>  0 0.54288841E+03</rscale>
<asrwt>0</asrwt>
<pdfrwt beam="1">  1        2 0.30020691E+00 0.54288841E+03</pdfrwt>
<pdfrwt beam="2">  1       -2 0.50089234E-02 0.54288841E+03</pdfrwt>
<totfact> 0.15120073E+03</totfact>
</mgrwt>
</event>
<event>
 4    1  0.2013882E-005  0.5694117E+03  0.7818608E-02  0.9970981E-01
          2   -1    0    0  501    0  0.00000000000E+00  0.00000000000E+00  0.14264348205E+04  0.14264348205E+04  0.25500000000E-02 0.  1.
         -2   -1    0    0    0  501 -0.00000000000E+00 -0.00000000000E+00 -0.56825186407E+02  0.56825186464E+02  0.25500000000E-02 0. -1.
    5000001    1    1    2    0    0  0.14674048950E+03 -0.12780477778E+03  0.89199816568E+03  0.93294777992E+03  0.19200000000E+03 0.  0.
   -5000001    1    1    2    0    0 -0.14674048950E+03  0.12780477778E+03  0.47761146845E+03  0.55031222708E+03  0.19200000000E+03 0.  0.
<mgrwt>
<rscale>  0 0.56941171E+03</rscale>
<asrwt>0</asrwt>
<pdfrwt beam="1">  1        2 0.20377643E+00 0.56941171E+03</pdfrwt>
<pdfrwt beam="2">  1       -2 0.81178825E-02 0.56941171E+03</pdfrwt>
<totfact> 0.15585913E+03</totfact>
</mgrwt>
</event>
<event>
 4    1  0.2013882E-005  0.9259182E+03  0.7818608E-02  0.9393750E-01
          2   -1    0    0  501    0  0.00000000000E+00  0.00000000000E+00  0.33418960467E+04  0.33418960467E+04  0.25500000000E-02 0.  1.
         -2   -1    0    0    0  501 -0.00000000000E+00 -0.00000000000E+00 -0.64134595320E+02  0.64134595370E+02  0.25500000000E-02 0. -1.
    5000001    1    1    2    0    0  0.41815341152E+03 -0.28869574322E+02  0.14836207889E+04  0.15536023858E+04  0.19200000000E+03 0.  0.
   -5000001    1    1    2    0    0 -0.41815341152E+03  0.28869574322E+02  0.17941406625E+04  0.18524282563E+04  0.19200000000E+03 0.  0.
<mgrwt>
<rscale>  0 0.92591825E+03</rscale>
<asrwt>0</asrwt>
<pdfrwt beam="1">  1        2 0.47741393E+00 0.92591825E+03</pdfrwt>
<pdfrwt beam="2">  1       -2 0.91620811E-02 0.92591825E+03</pdfrwt>
<totfact> 0.12304991E+02</totfact>
</mgrwt>
</event>
<event>
 4    1  0.2013882E-005  0.5385022E+03  0.7818608E-02  0.1004191E+00
         -2   -1    0    0    0  501 -0.00000000000E+00  0.00000000000E+00  0.44032027281E+02  0.44032027355E+02  0.25500000000E-02 0. -1.
          2   -1    0    0  501    0  0.00000000000E+00 -0.00000000000E+00 -0.16464411977E+04  0.16464411977E+04  0.25500000000E-02 0.  1.
    5000001    1    1    2    0    0 -0.87007308288E+02  0.16025746174E+02 -0.27774558802E+03  0.34904685631E+03  0.19200000000E+03 0.  0.
   -5000001    1    1    2    0    0  0.87007308288E+02 -0.16025746174E+02 -0.13246635824E+04  0.13414263687E+04  0.19200000000E+03 0.  0.
<mgrwt>
<rscale>  0 0.53850216E+03</rscale>
<asrwt>0</asrwt>
<pdfrwt beam="1">  1        2 0.23520585E+00 0.53850216E+03</pdfrwt>
<pdfrwt beam="2">  1       -2 0.62902906E-02 0.53850216E+03</pdfrwt>
<totfact> 0.17961176E+03</totfact>
</mgrwt>
</event>
<event>
 4    1  0.2013882E-005  0.1405684E+04  0.7818608E-02  0.8949714E-01
         -2   -1    0    0    0  501 -0.00000000000E+00  0.00000000000E+00  0.76729962870E+03  0.76729962871E+03  0.25500000000E-02 0. -1.
          2   -1    0    0  501    0  0.00000000000E+00 -0.00000000000E+00 -0.64379914768E+03  0.64379914769E+03  0.25500000000E-02 0.  1.
    5000001    1    1    2    0    0 -0.63569078542E+03  0.17155342598E+03  0.21593059599E+03  0.71904337486E+03  0.19200000000E+03 0.  0.
   -5000001    1    1    2    0    0  0.63569078542E+03 -0.17155342598E+03 -0.92430114973E+02  0.69205540153E+03  0.19200000000E+03 0.  0.
<mgrwt>
<rscale>  0 0.14056840E+04</rscale>
<asrwt>0</asrwt>
<pdfrwt beam="1">  1        2 0.91971307E-01 0.14056840E+04</pdfrwt>
<pdfrwt beam="2">  1       -2 0.10961423E+00 0.14056840E+04</pdfrwt>
<totfact> 0.32202642E+01</totfact>
</mgrwt>
</event>
<event>
 4    1  0.2013882E-005  0.6595183E+03  0.7818608E-02  0.9789081E-01
         -2   -1    0    0    0  501 -0.00000000000E+00  0.00000000000E+00  0.30324633163E+03  0.30324633164E+03  0.25500000000E-02 0. -1.
          2   -1    0    0  501    0  0.00000000000E+00 -0.00000000000E+00 -0.35858997094E+03  0.35858997094E+03  0.25500000000E-02 0.  1.
    5000001    1    1    2    0    0  0.23371578238E+03 -0.12963145177E+03 -0.48952792520E+02  0.33269769479E+03  0.19200000000E+03 0.  0.
   -5000001    1    1    2    0    0 -0.23371578238E+03  0.12963145177E+03 -0.63908467831E+01  0.32913860780E+03  0.19200000000E+03 0.  0.
<mgrwt>
<rscale>  0 0.65951829E+03</rscale>
<asrwt>0</asrwt>
<pdfrwt beam="1">  1        2 0.51227139E-01 0.65951829E+03</pdfrwt>
<pdfrwt beam="2">  1       -2 0.43320905E-01 0.65951829E+03</pdfrwt>
<totfact> 0.49743179E+02</totfact>
</mgrwt>
</event>
<event>
 4    1  0.2013882E-005  0.7996430E+03  0.7818608E-02  0.9560534E-01
         -2   -1    0    0    0  501 -0.00000000000E+00  0.00000000000E+00  0.33781363640E+02  0.33781363736E+02  0.25500000000E-02 0. -1.
          2   -1    0    0  501    0  0.00000000000E+00 -0.00000000000E+00 -0.47321134468E+04  0.47321134468E+04  0.25500000000E-02 0.  1.
    5000001    1    1    2    0    0  0.31513922529E+03  0.14698630557E+03 -0.20776385233E+04  0.21152691410E+04  0.19200000000E+03 0.  0.
   -5000001    1    1    2    0    0 -0.31513922529E+03 -0.14698630557E+03 -0.26206935599E+04  0.26506256695E+04  0.19200000000E+03 0.  0.
<mgrwt>
<rscale>  0 0.79964303E+03</rscale>
<asrwt>0</asrwt>
<pdfrwt beam="1">  1        2 0.67601578E+00 0.79964303E+03</pdfrwt>
<pdfrwt beam="2">  1       -2 0.48259121E-02 0.79964303E+03</pdfrwt>
<totfact> 0.37844520E+01</totfact>
</mgrwt>
</event>
<event>
 4    1  0.2013882E-005  0.4981615E+03  0.7818608E-02  0.1014260E+00
          2   -1    0    0  501    0  0.00000000000E+00  0.00000000000E+00  0.24177473976E+04  0.24177473976E+04  0.25500000000E-02 0.  1.
         -2   -1    0    0    0  501 -0.00000000000E+00 -0.00000000000E+00 -0.25660748821E+02  0.25660748948E+02  0.25500000000E-02 0. -1.
    5000001    1    1    2    0    0  0.20398187317E+02 -0.14780483951E+03  0.14608531932E+04  0.14809518590E+04  0.19200000000E+03 0.  0.
   -5000001    1    1    2    0    0 -0.20398187317E+02  0.14780483951E+03  0.93123345554E+03  0.96245628750E+03  0.19200000000E+03 0.  0.
<mgrwt>
<rscale>  0 0.49816146E+03</rscale>
<asrwt>0</asrwt>
<pdfrwt beam="1">  1        2 0.34539241E+00 0.49816146E+03</pdfrwt>
<pdfrwt beam="2">  1       -2 0.36658220E-02 0.49816146E+03</pdfrwt>
<totfact> 0.16973471E+03</totfact>
</mgrwt>
</event>
<event>
 4    1  0.2013882E-005  0.8169301E+03  0.7818608E-02  0.9535830E-01
         -2   -1    0    0    0  501 -0.00000000000E+00  0.00000000000E+00  0.31709701227E+03  0.31709701228E+03  0.25500000000E-02 0. -1.
          2   -1    0    0  501    0  0.00000000000E+00 -0.00000000000E+00 -0.52615976467E+03  0.52615976468E+03  0.25500000000E-02 0.  1.
    5000001    1    1    2    0    0  0.55482873556E+02 -0.31786600285E+03  0.61469574860E+02  0.38047293420E+03  0.19200000000E+03 0.  0.
   -5000001    1    1    2    0    0 -0.55482873556E+02  0.31786600285E+03 -0.27053232726E+03  0.46278384276E+03  0.19200000000E+03 0.  0.
<mgrwt>
<rscale>  0 0.81693008E+03</rscale>
<asrwt>0</asrwt>
<pdfrwt beam="1">  1        2 0.75165680E-01 0.81693008E+03</pdfrwt>
<pdfrwt beam="2">  1       -2 0.45299573E-01 0.81693008E+03</pdfrwt>
<totfact> 0.29406388E+02</totfact>
</mgrwt>
</event>
<event>
 4    1  0.2013882E-005  0.8186924E+03  0.7818608E-02  0.9533348E-01
         -2   -1    0    0    0  501 -0.00000000000E+00  0.00000000000E+00  0.37708140539E+03  0.37708140540E+03  0.25500000000E-02 0. -1.
          2   -1    0    0  501    0  0.00000000000E+00 -0.00000000000E+00 -0.44437173461E+03  0.44437173461E+03  0.25500000000E-02 0.  1.
    5000001    1    1    2    0    0  0.22689595716E+03 -0.25695812932E+03 -0.14888481108E+03  0.42016656527E+03  0.19200000000E+03 0.  0.
   -5000001    1    1    2    0    0 -0.22689595716E+03  0.25695812932E+03  0.81594481860E+02  0.40128657474E+03  0.19200000000E+03 0.  0.
<mgrwt>
<rscale>  0 0.81869242E+03</rscale>
<asrwt>0</asrwt>
<pdfrwt beam="1">  1        2 0.63481676E-01 0.81869242E+03</pdfrwt>
<pdfrwt beam="2">  1       -2 0.53868773E-01 0.81869242E+03</pdfrwt>
<totfact> 0.25085934E+02</totfact>
</mgrwt>
</event>
<event>
 4    1  0.2013882E-005  0.8664771E+03  0.7818608E-02  0.9468485E-01
          2   -1    0    0  501    0  0.00000000000E+00  0.00000000000E+00  0.11810430793E+04  0.11810430793E+04  0.25500000000E-02 0.  1.
         -2   -1    0    0    0  501 -0.00000000000E+00 -0.00000000000E+00 -0.15892363754E+03  0.15892363756E+03  0.25500000000E-02 0. -1.
    5000001    1    1    2    0    0 -0.21745394424E+03  0.16565148204E+03  0.93768204842E+03  0.99540858711E+03  0.19200000000E+03 0.  0.
   -5000001    1    1    2    0    0  0.21745394424E+03 -0.16565148204E+03  0.84437393304E+02  0.34455812972E+03  0.19200000000E+03 0.  0.
<mgrwt>
<rscale>  0 0.86647715E+03</rscale>
<asrwt>0</asrwt>
<pdfrwt beam="1">  1        2 0.16872044E+00 0.86647715E+03</pdfrwt>
<pdfrwt beam="2">  1       -2 0.22703377E-01 0.86647715E+03</pdfrwt>
<totfact> 0.37401511E+02</totfact>
</mgrwt>
</event>
<event>
 4    1  0.2013882E-005  0.6377547E+03  0.7818608E-02  0.9830032E-01
          2   -1    0    0  501    0  0.00000000000E+00  0.00000000000E+00  0.47008341152E+03  0.47008341153E+03  0.25500000000E-02 0.  1.
         -2   -1    0    0    0  501 -0.00000000000E+00 -0.00000000000E+00 -0.21630790884E+03  0.21630790886E+03  0.25500000000E-02 0. -1.
    5000001    1    1    2    0    0 -0.21991622011E+03 -0.12807653431E+03  0.13465007461E+03  0.34606557919E+03  0.19200000000E+03 0.  0.
   -5000001    1    1    2    0    0  0.21991622011E+03  0.12807653431E+03  0.11912542807E+03  0.34032574119E+03  0.19200000000E+03 0.  0.
<mgrwt>
<rscale>  0 0.63775469E+03</rscale>
<asrwt>0</asrwt>
<pdfrwt beam="1">  1        2 0.67154773E-01 0.63775469E+03</pdfrwt>
<pdfrwt beam="2">  1       -2 0.30901130E-01 0.63775469E+03</pdfrwt>
<totfact> 0.70198777E+02</totfact>
</mgrwt>
</event>
<event>
 4    1  0.2013882E-005  0.5842632E+03  0.7818608E-02  0.9938604E-01
          2   -1    0    0  501    0  0.00000000000E+00  0.00000000000E+00  0.10694987569E+04  0.10694987569E+04  0.25500000000E-02 0.  1.
         -2   -1    0    0    0  501 -0.00000000000E+00 -0.00000000000E+00 -0.79795210038E+02  0.79795210078E+02  0.25500000000E-02 0. -1.
    5000001    1    1    2    0    0 -0.13721051441E+03 -0.16808047015E+03  0.42127372951E+03  0.51128595216E+03  0.19200000000E+03 0.  0.
   -5000001    1    1    2    0    0  0.13721051441E+03  0.16808047015E+03  0.56842981735E+03  0.63800801481E+03  0.19200000000E+03 0.  0.
<mgrwt>
<rscale>  0 0.58426322E+03</rscale>
<asrwt>0</asrwt>
<pdfrwt beam="1">  1        2 0.15278552E+00 0.58426322E+03</pdfrwt>
<pdfrwt beam="2">  1       -2 0.11399317E-01 0.58426322E+03</pdfrwt>
<totfact> 0.14191352E+03</totfact>
</mgrwt>
</event>
<event>
 4    1  0.2013882E-005  0.5358938E+03  0.7818608E-02  0.1004813E+00
         -2   -1    0    0    0  501 -0.00000000000E+00  0.00000000000E+00  0.20935538801E+02  0.20935538956E+02  0.25500000000E-02 0. -1.
          2   -1    0    0  501    0  0.00000000000E+00 -0.00000000000E+00 -0.34293619446E+04  0.34293619446E+04  0.25500000000E-02 0.  1.
    5000001    1    1    2    0    0  0.85047973344E+01 -0.16130398600E+03 -0.23095675475E+04  0.23231568100E+04  0.19200000000E+03 0.  0.
   -5000001    1    1    2    0    0 -0.85047973344E+01  0.16130398600E+03 -0.10988588583E+04  0.11271406735E+04  0.19200000000E+03 0.  0.
<mgrwt>
<rscale>  0 0.53589380E+03</rscale>
<asrwt>0</asrwt>
<pdfrwt beam="1">  1        2 0.48990849E+00 0.53589380E+03</pdfrwt>
<pdfrwt beam="2">  1       -2 0.29907935E-02 0.53589380E+03</pdfrwt>
<totfact> 0.65714729E+02</totfact>
</mgrwt>
</event>
<event>
 4    1  0.2013882E-005  0.6049575E+03  0.7818608E-02  0.9895174E-01
         -2   -1    0    0    0  501 -0.00000000000E+00  0.00000000000E+00  0.20216379306E+03  0.20216379308E+03  0.25500000000E-02 0. -1.
          2   -1    0    0  501    0  0.00000000000E+00 -0.00000000000E+00 -0.45257057851E+03  0.45257057852E+03  0.25500000000E-02 0.  1.
    5000001    1    1    2    0    0 -0.26687585667E+02 -0.22230437824E+03 -0.19778828023E+03  0.35512767790E+03  0.19200000000E+03 0.  0.
   -5000001    1    1    2    0    0  0.26687585667E+02  0.22230437824E+03 -0.52618505218E+02  0.29960669369E+03  0.19200000000E+03 0.  0.
<mgrwt>
<rscale>  0 0.60495747E+03</rscale>
<asrwt>0</asrwt>
<pdfrwt beam="1">  1        2 0.64652939E-01 0.60495747E+03</pdfrwt>
<pdfrwt beam="2">  1       -2 0.28880542E-01 0.60495747E+03</pdfrwt>
<totfact> 0.83061150E+02</totfact>
</mgrwt>
</event>
<event>
 4    1  0.2013882E-005  0.1031704E+04  0.7818608E-02  0.9274440E-01
          2   -1    0    0  501    0  0.00000000000E+00  0.00000000000E+00  0.81006393945E+03  0.81006393945E+03  0.25500000000E-02 0.  1.
         -2   -1    0    0    0  501 -0.00000000000E+00 -0.00000000000E+00 -0.32849683253E+03  0.32849683254E+03  0.25500000000E-02 0. -1.
    5000001    1    1    2    0    0  0.25587782564E+03 -0.82680790159E+02 -0.19638989403E+03  0.38437295065E+03  0.19200000000E+03 0.  0.
   -5000001    1    1    2    0    0 -0.25587782564E+03  0.82680790159E+02  0.67795700095E+03  0.75418782134E+03  0.19200000000E+03 0.  0.
<mgrwt>
<rscale>  0 0.10317043E+04</rscale>
<asrwt>0</asrwt>
<pdfrwt beam="1">  1        2 0.11572342E+00 0.10317043E+04</pdfrwt>
<pdfrwt beam="2">  1       -2 0.46928120E-01 0.10317043E+04</pdfrwt>
<totfact> 0.16035670E+02</totfact>
</mgrwt>
</event>
<event>
 4    1  0.2013882E-005  0.6088927E+03  0.7818608E-02  0.9887126E-01
         -2   -1    0    0    0  501 -0.00000000000E+00  0.00000000000E+00  0.33514211464E+03  0.33514211465E+03  0.25500000000E-02 0. -1.
          2   -1    0    0  501    0  0.00000000000E+00 -0.00000000000E+00 -0.27656204404E+03  0.27656204405E+03  0.25500000000E-02 0.  1.
    5000001    1    1    2    0    0  0.14748719593E+03  0.14854160488E+03  0.13937017813E+03  0.31639394415E+03  0.19200000000E+03 0.  0.
   -5000001    1    1    2    0    0 -0.14748719593E+03 -0.14854160488E+03 -0.80790107528E+02  0.29531021455E+03  0.19200000000E+03 0.  0.
<mgrwt>
<rscale>  0 0.60889273E+03</rscale>
<asrwt>0</asrwt>
<pdfrwt beam="1">  1        2 0.39508863E-01 0.60889273E+03</pdfrwt>
<pdfrwt beam="2">  1       -2 0.47877445E-01 0.60889273E+03</pdfrwt>
<totfact> 0.54379390E+02</totfact>
</mgrwt>
</event>
<event>
 4    1  0.2013882E-005  0.4788164E+03  0.7818608E-02  0.1019461E+00
         -2   -1    0    0    0  501 -0.00000000000E+00  0.00000000000E+00  0.61915943803E+02  0.61915943855E+02  0.25500000000E-02 0. -1.
          2   -1    0    0  501    0  0.00000000000E+00 -0.00000000000E+00 -0.92571135187E+03  0.92571135187E+03  0.25500000000E-02 0.  1.
    5000001    1    1    2    0    0  0.66132297917E+01  0.84234570617E+02 -0.66989035711E+03  0.70196601644E+03  0.19200000000E+03 0.  0.
   -5000001    1    1    2    0    0 -0.66132297917E+01 -0.84234570617E+02 -0.19390505096E+03  0.28566127929E+03  0.19200000000E+03 0.  0.
<mgrwt>
<rscale>  0 0.47881642E+03</rscale>
<asrwt>0</asrwt>
<pdfrwt beam="1">  1        2 0.13224447E+00 0.47881642E+03</pdfrwt>
<pdfrwt beam="2">  1       -2 0.88451353E-02 0.47881642E+03</pdfrwt>
<totfact> 0.26181616E+03</totfact>
</mgrwt>
</event>
<event>
 4    1  0.2013882E-005  0.4499642E+03  0.7818608E-02  0.1027733E+00
          2   -1    0    0  501    0  0.00000000000E+00  0.00000000000E+00  0.17218624878E+04  0.17218624878E+04  0.25500000000E-02 0.  1.
         -2   -1    0    0    0  501 -0.00000000000E+00 -0.00000000000E+00 -0.29396628107E+02  0.29396628217E+02  0.25500000000E-02 0. -1.
    5000001    1    1    2    0    0  0.89091707492E+02 -0.57189324370E+01  0.55026425897E+03  0.58959714487E+03  0.19200000000E+03 0.  0.
   -5000001    1    1    2    0    0 -0.89091707492E+02  0.57189324370E+01  0.11422016007E+04  0.11616619711E+04  0.19200000000E+03 0.  0.
<mgrwt>
<rscale>  0 0.44996423E+03</rscale>
<asrwt>0</asrwt>
<pdfrwt beam="1">  1        2 0.24598032E+00 0.44996423E+03</pdfrwt>
<pdfrwt beam="2">  1       -2 0.41995190E-02 0.44996423E+03</pdfrwt>
<totfact> 0.30803761E+03</totfact>
</mgrwt>
</event>
<event>
 4    1  0.2013882E-005  0.6000259E+03  0.7818608E-02  0.9905352E-01
          2   -1    0    0  501    0  0.00000000000E+00  0.00000000000E+00  0.21619818346E+04  0.21619818346E+04  0.25500000000E-02 0.  1.
         -2   -1    0    0    0  501 -0.00000000000E+00 -0.00000000000E+00 -0.41632061237E+02  0.41632061316E+02  0.25500000000E-02 0. -1.
    5000001    1    1    2    0    0  0.21118527815E+03 -0.62983179757E+02  0.81169732255E+03  0.86271817303E+03  0.19200000000E+03 0.  0.
   -5000001    1    1    2    0    0 -0.21118527815E+03  0.62983179757E+02  0.13086524508E+04  0.13408957229E+04  0.19200000000E+03 0.  0.
<mgrwt>
<rscale>  0 0.60002587E+03</rscale>
<asrwt>0</asrwt>
<pdfrwt beam="1">  1        2 0.30885454E+00 0.60002587E+03</pdfrwt>
<pdfrwt beam="2">  1       -2 0.59474375E-02 0.60002587E+03</pdfrwt>
<totfact> 0.10756437E+03</totfact>
</mgrwt>
</event>
<event>
 4    1  0.2013882E-005  0.1279281E+04  0.7818608E-02  0.9046158E-01
         -2   -1    0    0    0  501 -0.00000000000E+00  0.00000000000E+00  0.68308148453E+03  0.68308148454E+03  0.25500000000E-02 0. -1.
          2   -1    0    0  501    0  0.00000000000E+00 -0.00000000000E+00 -0.59896260813E+03  0.59896260814E+03  0.25500000000E-02 0.  1.
    5000001    1    1    2    0    0 -0.44449034385E+03 -0.32189864344E+03 -0.22513565621E+03  0.62349055015E+03  0.19200000000E+03 0.  0.
   -5000001    1    1    2    0    0  0.44449034385E+03  0.32189864344E+03  0.30925453261E+03  0.65855354252E+03  0.19200000000E+03 0.  0.
<mgrwt>
<rscale>  0 0.12792815E+04</rscale>
<asrwt>0</asrwt>
<pdfrwt beam="1">  1        2 0.85566087E-01 0.12792815E+04</pdfrwt>
<pdfrwt beam="2">  1       -2 0.97583070E-01 0.12792815E+04</pdfrwt>
<totfact> 0.46778023E+01</totfact>
</mgrwt>
</event>
<event>
 4    1  0.2013882E-005  0.5258572E+03  0.7818608E-02  0.1007242E+00
          2   -1    0    0  501    0  0.00000000000E+00  0.00000000000E+00  0.57070741795E+03  0.57070741795E+03  0.25500000000E-02 0.  1.
         -2   -1    0    0    0  501 -0.00000000000E+00 -0.00000000000E+00 -0.12113291839E+03  0.12113291841E+03  0.25500000000E-02 0. -1.
    5000001    1    1    2    0    0  0.10649341569E+03 -0.10985581716E+03  0.10096080707E+03  0.26545476585E+03  0.19200000000E+03 0.  0.
   -5000001    1    1    2    0    0 -0.10649341569E+03  0.10985581716E+03  0.34861369249E+03  0.42638557051E+03  0.19200000000E+03 0.  0.
<mgrwt>
<rscale>  0 0.52585722E+03</rscale>
<asrwt>0</asrwt>
<pdfrwt beam="1">  1        2 0.81529633E-01 0.52585722E+03</pdfrwt>
<pdfrwt beam="2">  1       -2 0.17304702E-01 0.52585722E+03</pdfrwt>
<totfact> 0.15772094E+03</totfact>
</mgrwt>
</event>
<event>
 4    1  0.2013882E-005  0.1320801E+04  0.7818608E-02  0.9013230E-01
         -2   -1    0    0    0  501 -0.00000000000E+00  0.00000000000E+00  0.91272239550E+03  0.91272239551E+03  0.25500000000E-02 0. -1.
          2   -1    0    0  501    0  0.00000000000E+00 -0.00000000000E+00 -0.47783304959E+03  0.47783304960E+03  0.25500000000E-02 0.  1.
    5000001    1    1    2    0    0 -0.37285722848E+03  0.40780165966E+03  0.54012809444E+03  0.79619536852E+03  0.19200000000E+03 0.  0.
   -5000001    1    1    2    0    0  0.37285722848E+03 -0.40780165966E+03 -0.10523874852E+03  0.59436007659E+03  0.19200000000E+03 0.  0.
<mgrwt>
<rscale>  0 0.13208012E+04</rscale>
<asrwt>0</asrwt>
<pdfrwt beam="1">  1        2 0.68261864E-01 0.13208012E+04</pdfrwt>
<pdfrwt beam="2">  1       -2 0.13038891E+00 0.13208012E+04</pdfrwt>
<totfact> 0.29864773E+01</totfact>
</mgrwt>
</event>
<event>
 4    1  0.2013882E-005  0.7802155E+03  0.7818608E-02  0.9589104E-01
         -2   -1    0    0    0  501 -0.00000000000E+00  0.00000000000E+00  0.52190717243E+03  0.52190717244E+03  0.25500000000E-02 0. -1.
          2   -1    0    0  501    0  0.00000000000E+00 -0.00000000000E+00 -0.29159222934E+03  0.29159222935E+03  0.25500000000E-02 0.  1.
    5000001    1    1    2    0    0 -0.33178235026E+03  0.90109096124E+01  0.40264649702E+02  0.38554632205E+03  0.19200000000E+03 0.  0.
   -5000001    1    1    2    0    0  0.33178235026E+03 -0.90109096124E+01  0.19005029339E+03  0.42795307973E+03  0.19200000000E+03 0.  0.
<mgrwt>
<rscale>  0 0.78021555E+03</rscale>
<asrwt>0</asrwt>
<pdfrwt beam="1">  1        2 0.41656033E-01 0.78021555E+03</pdfrwt>
<pdfrwt beam="2">  1       -2 0.74558167E-01 0.78021555E+03</pdfrwt>
<totfact> 0.20072172E+02</totfact>
</mgrwt>
</event>
<event>
 4    1  0.2013882E-005  0.7466680E+03  0.7818608E-02  0.9640592E-01
         -2   -1    0    0    0  501 -0.00000000000E+00  0.00000000000E+00  0.15005770199E+04  0.15005770199E+04  0.25500000000E-02 0. -1.
          2   -1    0    0  501    0  0.00000000000E+00 -0.00000000000E+00 -0.92883127876E+02  0.92883127911E+02  0.25500000000E-02 0.  1.
    5000001    1    1    2    0    0 -0.13443697808E+03 -0.24953697191E+03  0.38607256369E+03  0.51600196304E+03  0.19200000000E+03 0.  0.
   -5000001    1    1    2    0    0  0.13443697808E+03  0.24953697191E+03  0.10216213283E+04  0.10774581847E+04  0.19200000000E+03 0.  0.
<mgrwt>
<rscale>  0 0.74666803E+03</rscale>
<asrwt>0</asrwt>
<pdfrwt beam="1">  1        2 0.13269017E-01 0.74666803E+03</pdfrwt>
<pdfrwt beam="2">  1       -2 0.21436816E+00 0.74666803E+03</pdfrwt>
<totfact> 0.51058483E+01</totfact>
</mgrwt>
</event>
<event>
 4    1  0.2013882E-005  0.4813623E+03  0.7818608E-02  0.1018761E+00
          2   -1    0    0  501    0  0.00000000000E+00  0.00000000000E+00  0.21693483504E+03  0.21693483505E+03  0.25500000000E-02 0. -1.
         -2   -1    0    0    0  501 -0.00000000000E+00 -0.00000000000E+00 -0.26702680451E+03  0.26702680453E+03  0.25500000000E-02 0.  1.
    5000001    1    1    2    0    0  0.11484730289E+03 -0.54679145725E+02  0.45214885714E+02  0.23470853808E+03  0.19200000000E+03 0.  0.
   -5000001    1    1    2    0    0 -0.11484730289E+03  0.54679145725E+02 -0.95306855191E+02  0.24925310149E+03  0.19200000000E+03 0.  0.
<mgrwt>
<rscale>  0 0.48136230E+03</rscale>
<asrwt>0</asrwt>
<pdfrwt beam="1">  1        2 0.30990691E-01 0.48136230E+03</pdfrwt>
<pdfrwt beam="2">  1       -2 0.38146686E-01 0.48136230E+03</pdfrwt>
<totfact> 0.11128640E+03</totfact>
</mgrwt>
</event>
<event>
 4    1  0.2013882E-005  0.7078767E+03  0.7818608E-02  0.9703856E-01
         -2   -1    0    0    0  501 -0.00000000000E+00  0.00000000000E+00  0.55038714108E+03  0.55038714109E+03  0.25500000000E-02 0. -1.
          2   -1    0    0  501    0  0.00000000000E+00 -0.00000000000E+00 -0.22760772847E+03  0.22760772848E+03  0.25500000000E-02 0.  1.
    5000001    1    1    2    0    0 -0.60227754551E+02 -0.26805911781E+03  0.28634058352E+03  0.44083784187E+03  0.19200000000E+03 0.  0.
   -5000001    1    1    2    0    0  0.60227754551E+02  0.26805911781E+03  0.36438829092E+02  0.33715702769E+03  0.19200000000E+03 0.  0.
<mgrwt>
<rscale>  0 0.70787673E+03</rscale>
<asrwt>0</asrwt>
<pdfrwt beam="1">  1        2 0.32515389E-01 0.70787673E+03</pdfrwt>
<pdfrwt beam="2">  1       -2 0.78626735E-01 0.70787673E+03</pdfrwt>
<totfact> 0.23570528E+02</totfact>
</mgrwt>
</event>
<event>
 4    1  0.2013882E-005  0.5131320E+03  0.7818608E-02  0.1010407E+00
         -2   -1    0    0    0  501 -0.00000000000E+00  0.00000000000E+00  0.10001975563E+03  0.10001975566E+03  0.25500000000E-02 0. -1.
          2   -1    0    0  501    0  0.00000000000E+00 -0.00000000000E+00 -0.65813104049E+03  0.65813104049E+03  0.25500000000E-02 0.  1.
    5000001    1    1    2    0    0 -0.32234683274E+02  0.16216659481E+03 -0.33861592530E+03  0.42292058847E+03  0.19200000000E+03 0.  0.
   -5000001    1    1    2    0    0  0.32234683274E+02 -0.16216659481E+03 -0.21949535956E+03  0.33523020769E+03  0.19200000000E+03 0.  0.
<mgrwt>
<rscale>  0 0.51313197E+03</rscale>
<asrwt>0</asrwt>
<pdfrwt beam="1">  1        2 0.94018718E-01 0.51313197E+03</pdfrwt>
<pdfrwt beam="2">  1       -2 0.14288537E-01 0.51313197E+03</pdfrwt>
<totfact> 0.18422334E+03</totfact>
</mgrwt>
</event>
<event>
 4    1  0.2013882E-005  0.1788346E+04  0.7818608E-02  0.8712522E-01
         -2   -1    0    0    0  501 -0.00000000000E+00  0.00000000000E+00  0.22539961759E+04  0.22539961759E+04  0.25500000000E-02 0. -1.
          2   -1    0    0  501    0  0.00000000000E+00 -0.00000000000E+00 -0.35472348081E+03  0.35472348082E+03  0.25500000000E-02 0.  1.
    5000001    1    1    2    0    0 -0.85461590403E+02 -0.82023678364E+03  0.53042043089E+03  0.99915058834E+03  0.19200000000E+03 0.  0.
   -5000001    1    1    2    0    0  0.85461590403E+02  0.82023678364E+03  0.13688522642E+04  0.16095690684E+04  0.19200000000E+03 0.  0.
<mgrwt>
<rscale>  0 0.17883460E+04</rscale>
<asrwt>0</asrwt>
<pdfrwt beam="1">  1        2 0.50674782E-01 0.17883460E+04</pdfrwt>
<pdfrwt beam="2">  1       -2 0.32199946E+00 0.17883460E+04</pdfrwt>
<totfact> 0.21874280E+00</totfact>
</mgrwt>
</event>
<event>
 4    1  0.2013882E-005  0.5748071E+03  0.7818608E-02  0.9959097E-01
         -2   -1    0    0    0  501 -0.00000000000E+00  0.00000000000E+00  0.26808881511E+03  0.26808881512E+03  0.25500000000E-02 0.  1.
          2   -1    0    0  501    0  0.00000000000E+00 -0.00000000000E+00 -0.30810986695E+03  0.30810986696E+03  0.25500000000E-02 0. -1.
    5000001    1    1    2    0    0  0.34530473815E+02 -0.15923249753E+03  0.11885088484E+03  0.27845443922E+03  0.19200000000E+03 0.  0.
   -5000001    1    1    2    0    0 -0.34530473815E+02  0.15923249753E+03 -0.15887193669E+03  0.29774424286E+03  0.19200000000E+03 0.  0.
<mgrwt>
<rscale>  0 0.57480713E+03</rscale>
<asrwt>0</asrwt>
<pdfrwt beam="1">  1        2 0.44015695E-01 0.57480713E+03</pdfrwt>
<pdfrwt beam="2">  1       -2 0.38298402E-01 0.57480713E+03</pdfrwt>
<totfact> 0.74893108E+02</totfact>
</mgrwt>
</event>
<event>
 4    1  0.2013882E-005  0.5184463E+03  0.7818608E-02  0.1009073E+00
          2   -1    0    0  501    0  0.00000000000E+00  0.00000000000E+00  0.20529238250E+03  0.20529238252E+03  0.25500000000E-02 0.  1.
         -2   -1    0    0    0  501 -0.00000000000E+00 -0.00000000000E+00 -0.32732159169E+03  0.32732159170E+03  0.25500000000E-02 0. -1.
    5000001    1    1    2    0    0 -0.17253630735E+03 -0.10402117731E+02 -0.82943843108E+02  0.27133127818E+03  0.19200000000E+03 0.  0.
   -5000001    1    1    2    0    0  0.17253630735E+03  0.10402117731E+02 -0.39085366075E+02  0.26128269604E+03  0.19200000000E+03 0.  0.
<mgrwt>
<rscale>  0 0.51844625E+03</rscale>
<asrwt>0</asrwt>
<pdfrwt beam="1">  1        2 0.29327483E-01 0.51844625E+03</pdfrwt>
<pdfrwt beam="2">  1       -2 0.46760227E-01 0.51844625E+03</pdfrwt>
<totfact> 0.79512028E+02</totfact>
</mgrwt>
</event>
<event>
 4    1  0.2013882E-005  0.6065783E+03  0.7818608E-02  0.9891851E-01
          2   -1    0    0  501    0  0.00000000000E+00  0.00000000000E+00  0.10593030502E+04  0.10593030502E+04  0.25500000000E-02 0.  1.
         -2   -1    0    0    0  501 -0.00000000000E+00 -0.00000000000E+00 -0.86834746173E+02  0.86834746210E+02  0.25500000000E-02 0. -1.
    5000001    1    1    2    0    0 -0.12094002458E+03 -0.18208695313E+03  0.32437261924E+03  0.43573357015E+03  0.19200000000E+03 0.  0.
   -5000001    1    1    2    0    0  0.12094002458E+03  0.18208695313E+03  0.64809568475E+03  0.71040422623E+03  0.19200000000E+03 0.  0.
<mgrwt>
<rscale>  0 0.60657831E+03</rscale>
<asrwt>0</asrwt>
<pdfrwt beam="1">  1        2 0.15132900E+00 0.60657831E+03</pdfrwt>
<pdfrwt beam="2">  1       -2 0.12404964E-01 0.60657831E+03</pdfrwt>
<totfact> 0.12515602E+03</totfact>
</mgrwt>
</event>
<event>
 4    1  0.2013882E-005  0.6373287E+03  0.7818608E-02  0.9830851E-01
         -2   -1    0    0    0  501 -0.00000000000E+00  0.00000000000E+00  0.78882503195E+03  0.78882503195E+03  0.25500000000E-02 0. -1.
          2   -1    0    0  501    0  0.00000000000E+00 -0.00000000000E+00 -0.12873193531E+03  0.12873193533E+03  0.25500000000E-02 0.  1.
    5000001    1    1    2    0    0  0.23640941728E+03 -0.82583283649E+02  0.26608854424E+03  0.41276691327E+03  0.19200000000E+03 0.  0.
   -5000001    1    1    2    0    0 -0.23640941728E+03  0.82583283649E+02  0.39400455240E+03  0.50479005401E+03  0.19200000000E+03 0.  0.
<mgrwt>
<rscale>  0 0.63732872E+03</rscale>
<asrwt>0</asrwt>
<pdfrwt beam="1">  1        2 0.18390277E-01 0.63732872E+03</pdfrwt>
<pdfrwt beam="2">  1       -2 0.11268929E+00 0.63732872E+03</pdfrwt>
<totfact> 0.19676751E+02</totfact>
</mgrwt>
</event>
<event>
 4    1  0.2013882E-005  0.4309344E+03  0.7818608E-02  0.1033565E+00
         -2   -1    0    0    0  501 -0.00000000000E+00  0.00000000000E+00  0.21058343266E+02  0.21058343420E+02  0.25500000000E-02 0. -1.
          2   -1    0    0  501    0  0.00000000000E+00 -0.00000000000E+00 -0.22046421237E+04  0.22046421237E+04  0.25500000000E-02 0.  1.
    5000001    1    1    2    0    0 -0.57655938345E+02  0.55074707467E+02 -0.13841720612E+04  0.13996977265E+04  0.19200000000E+03 0.  0.
   -5000001    1    1    2    0    0  0.57655938345E+02 -0.55074707467E+02 -0.79941171928E+03  0.82600274065E+03  0.19200000000E+03 0.  0.
<mgrwt>
<rscale>  0 0.43093438E+03</rscale>
<asrwt>0</asrwt>
<pdfrwt beam="1">  1        2 0.31494873E+00 0.43093438E+03</pdfrwt>
<pdfrwt beam="2">  1       -2 0.30083362E-02 0.43093438E+03</pdfrwt>
<totfact> 0.29403576E+03</totfact>
</mgrwt>
</event>
<event>
 4    1  0.2013882E-005  0.5957737E+03  0.7818608E-02  0.9914213E-01
         -2   -1    0    0    0  501 -0.00000000000E+00  0.00000000000E+00  0.18466456936E+02  0.18466457112E+02  0.25500000000E-02 0. -1.
          2   -1    0    0  501    0  0.00000000000E+00 -0.00000000000E+00 -0.48052850625E+04  0.48052850625E+04  0.25500000000E-02 0.  1.
    5000001    1    1    2    0    0  0.21240036492E+03 -0.33887115400E+02 -0.29998636267E+04  0.30136867837E+04  0.19200000000E+03 0.  0.
   -5000001    1    1    2    0    0 -0.21240036492E+03  0.33887115400E+02 -0.17869549789E+04  0.18100647359E+04  0.19200000000E+03 0.  0.
<mgrwt>
<rscale>  0 0.59577375E+03</rscale>
<asrwt>0</asrwt>
<pdfrwt beam="1">  1        2 0.68646850E+00 0.59577375E+03</pdfrwt>
<pdfrwt beam="2">  1       -2 0.26380684E-02 0.59577375E+03</pdfrwt>
<totfact> 0.85817817E+01</totfact>
</mgrwt>
</event>
<event>
 4    1  0.2013882E-005  0.4649066E+03  0.7818608E-02  0.1023368E+00
         -2   -1    0    0    0  501 -0.00000000000E+00  0.00000000000E+00  0.23217616841E+02  0.23217616981E+02  0.25500000000E-02 0. -1.
          2   -1    0    0  501    0  0.00000000000E+00 -0.00000000000E+00 -0.23273078434E+04  0.23273078434E+04  0.25500000000E-02 0.  1.
    5000001    1    1    2    0    0 -0.90710938352E+02 -0.16824807367E+02 -0.16225161938E+04  0.16364395337E+04  0.19200000000E+03 0.  0.
   -5000001    1    1    2    0    0  0.90710938352E+02  0.16824807367E+02 -0.68157403274E+03  0.71408592661E+03  0.19200000000E+03 0.  0.
<mgrwt>
<rscale>  0 0.46490662E+03</rscale>
<asrwt>0</asrwt>
<pdfrwt beam="1">  1        2 0.33247240E+00 0.46490662E+03</pdfrwt>
<pdfrwt beam="2">  1       -2 0.33168039E-02 0.46490662E+03</pdfrwt>
<totfact> 0.21992962E+03</totfact>
</mgrwt>
</event>
<event>
 4    1  0.2013882E-005  0.4478643E+03  0.7818608E-02  0.1028361E+00
          2   -1    0    0  501    0  0.00000000000E+00  0.00000000000E+00  0.21890348969E+04  0.21890348969E+04  0.25500000000E-02 0.  1.
         -2   -1    0    0    0  501 -0.00000000000E+00 -0.00000000000E+00 -0.22907633436E+02  0.22907633578E+02  0.25500000000E-02 0. -1.
    5000001    1    1    2    0    0  0.89510653513E+02  0.70068145598E+02  0.98936730714E+03  0.10142156430E+04  0.19200000000E+03 0.  0.
   -5000001    1    1    2    0    0 -0.89510653513E+02 -0.70068145598E+02  0.11767599563E+04  0.11977268874E+04  0.19200000000E+03 0.  0.
<mgrwt>
<rscale>  0 0.44786431E+03</rscale>
<asrwt>0</asrwt>
<pdfrwt beam="1">  1        2 0.31271904E+00 0.44786431E+03</pdfrwt>
<pdfrwt beam="2">  1       -2 0.32725215E-02 0.44786431E+03</pdfrwt>
<totfact> 0.26342027E+03</totfact>
</mgrwt>
</event>
<event>
 4    1  0.2013882E-005  0.6013402E+03  0.7818608E-02  0.9902629E-01
         -2   -1    0    0    0  501 -0.00000000000E+00  0.00000000000E+00  0.11298126808E+03  0.11298126811E+03  0.25500000000E-02 0. -1.
          2   -1    0    0  501    0  0.00000000000E+00 -0.00000000000E+00 -0.80015483301E+03  0.80015483302E+03  0.25500000000E-02 0.  1.
    5000001    1    1    2    0    0  0.22993820403E+03  0.24659205688E+02 -0.35523613614E+03  0.46533468226E+03  0.19200000000E+03 0.  0.
   -5000001    1    1    2    0    0 -0.22993820403E+03 -0.24659205688E+02 -0.33193742879E+03  0.44780141886E+03  0.19200000000E+03 0.  0.
<mgrwt>
<rscale>  0 0.60134020E+03</rscale>
<asrwt>0</asrwt>
<pdfrwt beam="1">  1        2 0.11430783E+00 0.60134020E+03</pdfrwt>
<pdfrwt beam="2">  1       -2 0.16140182E-01 0.60134020E+03</pdfrwt>
<totfact> 0.11782037E+03</totfact>
</mgrwt>
</event>
<event>
 4    1  0.2013882E-005  0.4732878E+03  0.7818608E-02  0.1020996E+00
          2   -1    0    0  501    0  0.00000000000E+00  0.00000000000E+00  0.12228386676E+04  0.12228386676E+04  0.25500000000E-02 0.  1.
         -2   -1    0    0    0  501 -0.00000000000E+00 -0.00000000000E+00 -0.45795353778E+02  0.45795353849E+02  0.25500000000E-02 0. -1.
    5000001    1    1    2    0    0 -0.64650499957E+02 -0.11225020972E+03  0.45840053358E+03  0.51359015364E+03  0.19200000000E+03 0.  0.
   -5000001    1    1    2    0    0  0.64650499957E+02  0.11225020972E+03  0.71864278023E+03  0.75504386780E+03  0.19200000000E+03 0.  0.
<mgrwt>
<rscale>  0 0.47328777E+03</rscale>
<asrwt>0</asrwt>
<pdfrwt beam="1">  1        2 0.17469124E+00 0.47328777E+03</pdfrwt>
<pdfrwt beam="2">  1       -2 0.65421933E-02 0.47328777E+03</pdfrwt>
<totfact> 0.28248940E+03</totfact>
</mgrwt>
</event>
<event>
 4    1  0.2013882E-005  0.4284316E+03  0.7818608E-02  0.1034357E+00
         -2   -1    0    0    0  501 -0.00000000000E+00  0.00000000000E+00  0.93715917136E+02  0.93715917171E+02  0.25500000000E-02 0. -1.
          2   -1    0    0  501    0  0.00000000000E+00 -0.00000000000E+00 -0.48965446020E+03  0.48965446021E+03  0.25500000000E-02 0.  1.
    5000001    1    1    2    0    0 -0.40053015415E+01 -0.92686785062E+02 -0.17014595479E+03  0.27280126190E+03  0.19200000000E+03 0.  0.
   -5000001    1    1    2    0    0  0.40053015415E+01  0.92686785062E+02 -0.22579258828E+03  0.31056911547E+03  0.19200000000E+03 0.  0.
<mgrwt>
<rscale>  0 0.42843164E+03</rscale>
<asrwt>0</asrwt>
<pdfrwt beam="1">  1        2 0.69950636E-01 0.42843164E+03</pdfrwt>
<pdfrwt beam="2">  1       -2 0.13387988E-01 0.42843164E+03</pdfrwt>
<totfact> 0.28842527E+03</totfact>
</mgrwt>
</event>
<event>
 4    1  0.2013882E-005  0.6645483E+03  0.7818608E-02  0.9779857E-01
         -2   -1    0    0    0  501 -0.00000000000E+00  0.00000000000E+00  0.23562033441E+03  0.23562033442E+03  0.25500000000E-02 0.  1.
          2   -1    0    0  501    0  0.00000000000E+00 -0.00000000000E+00 -0.46857633692E+03  0.46857633692E+03  0.25500000000E-02 0. -1.
    5000001    1    1    2    0    0 -0.15233220140E+03 -0.14899563869E+03  0.61271636642E+02  0.29329680085E+03  0.19200000000E+03 0.  0.
   -5000001    1    1    2    0    0  0.15233220140E+03  0.14899563869E+03 -0.29422763915E+03  0.41089987049E+03  0.19200000000E+03 0.  0.
<mgrwt>
<rscale>  0 0.66454831E+03</rscale>
<asrwt>0</asrwt>
<pdfrwt beam="1">  1        2 0.66939476E-01 0.66454831E+03</pdfrwt>
<pdfrwt beam="2">  1       -2 0.33660048E-01 0.66454831E+03</pdfrwt>
<totfact> 0.59999472E+02</totfact>
</mgrwt>
</event>
<event>
 4    1  0.2013882E-005  0.6779583E+03  0.7818608E-02  0.9755687E-01
          2   -1    0    0  501    0  0.00000000000E+00  0.00000000000E+00  0.71280387307E+03  0.71280387307E+03  0.25500000000E-02 0.  1.
         -2   -1    0    0    0  501 -0.00000000000E+00 -0.00000000000E+00 -0.16120404219E+03  0.16120404221E+03  0.25500000000E-02 0. -1.
    5000001    1    1    2    0    0  0.16823389461E+03  0.16621052535E+03  0.46751170375E+03  0.55799621430E+03  0.19200000000E+03 0.  0.
   -5000001    1    1    2    0    0 -0.16823389461E+03 -0.16621052535E+03  0.84088127134E+02  0.31601170098E+03  0.19200000000E+03 0.  0.
<mgrwt>
<rscale>  0 0.67795830E+03</rscale>
<asrwt>0</asrwt>
<pdfrwt beam="1">  1        2 0.10182912E+00 0.67795830E+03</pdfrwt>
<pdfrwt beam="2">  1       -2 0.23029149E-01 0.67795830E+03</pdfrwt>
<totfact> 0.73374618E+02</totfact>
</mgrwt>
</event>
<event>
 4    1  0.2013882E-005  0.6675740E+03  0.7818608E-02  0.9774350E-01
         -2   -1    0    0    0  501 -0.00000000000E+00  0.00000000000E+00  0.32626076740E+02  0.32626076840E+02  0.25500000000E-02 0. -1.
          2   -1    0    0  501    0  0.00000000000E+00 -0.00000000000E+00 -0.34148688178E+04  0.34148688178E+04  0.25500000000E-02 0.  1.
    5000001    1    1    2    0    0 -0.34327847680E+01  0.26237404080E+03 -0.20809374418E+04  0.21061853095E+04  0.19200000000E+03 0.  0.
   -5000001    1    1    2    0    0  0.34327847680E+01 -0.26237404080E+03 -0.13013052993E+04  0.13413095852E+04  0.19200000000E+03 0.  0.
<mgrwt>
<rscale>  0 0.66757403E+03</rscale>
<asrwt>0</asrwt>
<pdfrwt beam="1">  1        2 0.48783817E+00 0.66757403E+03</pdfrwt>
<pdfrwt beam="2">  1       -2 0.46608703E-02 0.66757403E+03</pdfrwt>
<totfact> 0.33444226E+02</totfact>
</mgrwt>
</event>
<event>
 4    1  0.2013882E-005  0.4575481E+03  0.7818608E-02  0.1025495E+00
          2   -1    0    0  501    0  0.00000000000E+00  0.00000000000E+00  0.18652247746E+04  0.18652247746E+04  0.25500000000E-02 0. -1.
         -2   -1    0    0    0  501 -0.00000000000E+00 -0.00000000000E+00 -0.28059652543E+02  0.28059652659E+02  0.25500000000E-02 0.  1.
    5000001    1    1    2    0    0 -0.10366262338E+03 -0.43415128320E+02  0.11392042422E+04  0.11607243938E+04  0.19200000000E+03 0.  0.
   -5000001    1    1    2    0    0  0.10366262338E+03  0.43415128320E+02  0.69796087986E+03  0.73256003349E+03  0.19200000000E+03 0.  0.
<mgrwt>
<rscale>  0 0.45754807E+03</rscale>
<asrwt>0</asrwt>
<pdfrwt beam="1">  1        2 0.26646070E+00 0.45754807E+03</pdfrwt>
<pdfrwt beam="2">  1       -2 0.40085215E-02 0.45754807E+03</pdfrwt>
<totfact> 0.28034929E+03</totfact>
</mgrwt>
</event>
<event>
 4    1  0.2013882E-005  0.5802184E+03  0.7818608E-02  0.9947318E-01
          2   -1    0    0  501    0  0.00000000000E+00  0.00000000000E+00  0.16200478081E+04  0.16200478081E+04  0.25500000000E-02 0.  1.
         -2   -1    0    0    0  501 -0.00000000000E+00 -0.00000000000E+00 -0.51951152272E+02  0.51951152334E+02  0.25500000000E-02 0. -1.
    5000001    1    1    2    0    0 -0.12733150684E+03 -0.33673714024E+02  0.28532661782E+03  0.36826961657E+03  0.19200000000E+03 0.  0.
   -5000001    1    1    2    0    0  0.12733150684E+03  0.33673714024E+02  0.12827700380E+04  0.13037293439E+04  0.19200000000E+03 0.  0.
<mgrwt>
<rscale>  0 0.58021841E+03</rscale>
<asrwt>0</asrwt>
<pdfrwt beam="1">  1        2 0.23143541E+00 0.58021841E+03</pdfrwt>
<pdfrwt beam="2">  1       -2 0.74215927E-02 0.58021841E+03</pdfrwt>
<totfact> 0.14256037E+03</totfact>
</mgrwt>
</event>
<event>
 4    1  0.2013882E-005  0.5138566E+03  0.7818608E-02  0.1010224E+00
          2   -1    0    0  501    0  0.00000000000E+00  0.00000000000E+00  0.87935379265E+03  0.87935379265E+03  0.25500000000E-02 0.  1.
         -2   -1    0    0    0  501 -0.00000000000E+00 -0.00000000000E+00 -0.75068927713E+02  0.75068927756E+02  0.25500000000E-02 0. -1.
    5000001    1    1    2    0    0  0.11383547333E+02 -0.11604473220E+03  0.17051259522E+03  0.28201863440E+03  0.19200000000E+03 0.  0.
   -5000001    1    1    2    0    0 -0.11383547333E+02  0.11604473220E+03  0.63377226971E+03  0.67240408601E+03  0.19200000000E+03 0.  0.
<mgrwt>
<rscale>  0 0.51385658E+03</rscale>
<asrwt>0</asrwt>
<pdfrwt beam="1">  1        2 0.12562197E+00 0.51385658E+03</pdfrwt>
<pdfrwt beam="2">  1       -2 0.10724132E-01 0.51385658E+03</pdfrwt>
<totfact> 0.20556908E+03</totfact>
</mgrwt>
</event>
<event>
 4    1  0.2013882E-005  0.6865964E+03  0.7818608E-02  0.9740433E-01
          2   -1    0    0  501    0  0.00000000000E+00  0.00000000000E+00  0.17044333783E+03  0.17044333785E+03  0.25500000000E-02 0.  1.
         -2   -1    0    0    0  501 -0.00000000000E+00 -0.00000000000E+00 -0.69145359574E+03  0.69145359574E+03  0.25500000000E-02 0. -1.
    5000001    1    1    2    0    0  0.26539073328E+03  0.99602018916E+02 -0.22882592912E+03  0.41179862714E+03  0.19200000000E+03 0.  0.
   -5000001    1    1    2    0    0 -0.26539073328E+03 -0.99602018916E+02 -0.29218432879E+03  0.45009830645E+03  0.19200000000E+03 0.  0.
<mgrwt>
<rscale>  0 0.68659641E+03</rscale>
<asrwt>0</asrwt>
<pdfrwt beam="1">  1        2 0.24349049E-01 0.68659641E+03</pdfrwt>
<pdfrwt beam="2">  1       -2 0.98779083E-01 0.68659641E+03</pdfrwt>
<totfact> 0.19409758E+02</totfact>
</mgrwt>
</event>
<event>
 4    1  0.2013882E-005  0.1164375E+04  0.7818608E-02  0.9144624E-01
         -2   -1    0    0    0  501 -0.00000000000E+00  0.00000000000E+00  0.30942780789E+03  0.30942780790E+03  0.25500000000E-02 0. -1.
          2   -1    0    0  501    0  0.00000000000E+00 -0.00000000000E+00 -0.10953833339E+04  0.10953833339E+04  0.25500000000E-02 0.  1.
    5000001    1    1    2    0    0 -0.88320577099E+02  0.54244963196E+03 -0.39912215290E+03  0.70584319823E+03  0.19200000000E+03 0.  0.
   -5000001    1    1    2    0    0  0.88320577099E+02 -0.54244963196E+03 -0.38683337306E+03  0.69896794352E+03  0.19200000000E+03 0.  0.
<mgrwt>
<rscale>  0 0.11643746E+04</rscale>
<asrwt>0</asrwt>
<pdfrwt beam="1">  1        2 0.15648333E+00 0.11643746E+04</pdfrwt>
<pdfrwt beam="2">  1       -2 0.44203973E-01 0.11643746E+04</pdfrwt>
<totfact> 0.11794509E+02</totfact>
</mgrwt>
</event>
<event>
 4    1  0.2013882E-005  0.4096452E+03  0.7818608E-02  0.1040490E+00
         -2   -1    0    0    0  501 -0.00000000000E+00  0.00000000000E+00  0.16408737162E+03  0.16408737164E+03  0.25500000000E-02 0. -1.
          2   -1    0    0  501    0  0.00000000000E+00 -0.00000000000E+00 -0.25567049848E+03  0.25567049849E+03  0.25500000000E-02 0.  1.
    5000001    1    1    2    0    0 -0.29745363269E+02 -0.57105352092E+02 -0.77249472514E+02  0.21674244826E+03  0.19200000000E+03 0.  0.
   -5000001    1    1    2    0    0  0.29745363269E+02  0.57105352092E+02 -0.14333654341E+02  0.20301542188E+03  0.19200000000E+03 0.  0.
<mgrwt>
<rscale>  0 0.40964521E+03</rscale>
<asrwt>0</asrwt>
<pdfrwt beam="1">  1        2 0.36524357E-01 0.40964521E+03</pdfrwt>
<pdfrwt beam="2">  1       -2 0.23441053E-01 0.40964521E+03</pdfrwt>
<totfact> 0.22663225E+03</totfact>
</mgrwt>
</event>
<event>
 4    1  0.2013882E-005  0.1634394E+04  0.7818608E-02  0.8799693E-01
          2   -1    0    0  501    0  0.00000000000E+00  0.00000000000E+00  0.17118303696E+04  0.17118303696E+04  0.25500000000E-02 0.  1.
         -2   -1    0    0    0  501 -0.00000000000E+00 -0.00000000000E+00 -0.39011499227E+03  0.39011499228E+03  0.25500000000E-02 0. -1.
    5000001    1    1    2    0    0  0.54688103066E+03  0.56652997898E+03  0.79519888554E+03  0.11354472010E+04  0.19200000000E+03 0.  0.
   -5000001    1    1    2    0    0 -0.54688103066E+03 -0.56652997898E+03  0.52651649176E+03  0.96649816082E+03  0.19200000000E+03 0.  0.
<mgrwt>
<rscale>  0 0.16343937E+04</rscale>
<asrwt>0</asrwt>
<pdfrwt beam="1">  1        2 0.24454720E+00 0.16343937E+04</pdfrwt>
<pdfrwt beam="2">  1       -2 0.55730713E-01 0.16343937E+04</pdfrwt>
<totfact> 0.32779107E+01</totfact>
</mgrwt>
</event>
<event>
 4    1  0.2013882E-005  0.4926045E+03  0.7818608E-02  0.1015727E+00
         -2   -1    0    0    0  501 -0.00000000000E+00  0.00000000000E+00  0.81693145822E+02  0.81693145862E+02  0.25500000000E-02 0. -1.
          2   -1    0    0  501    0  0.00000000000E+00 -0.00000000000E+00 -0.74259362176E+03  0.74259362176E+03  0.25500000000E-02 0.  1.
    5000001    1    1    2    0    0 -0.12487794406E+03  0.32044212341E+02 -0.18866653754E+03  0.29846338946E+03  0.19200000000E+03 0.  0.
   -5000001    1    1    2    0    0  0.12487794406E+03 -0.32044212341E+02 -0.47223393839E+03  0.52582337817E+03  0.19200000000E+03 0.  0.
<mgrwt>
<rscale>  0 0.49260454E+03</rscale>
<asrwt>0</asrwt>
<pdfrwt beam="1">  1        2 0.10608480E+00 0.49260454E+03</pdfrwt>
<pdfrwt beam="2">  1       -2 0.11670450E-01 0.49260454E+03</pdfrwt>
<totfact> 0.22218178E+03</totfact>
</mgrwt>
</event>
<event>
 4    1  0.2013882E-005  0.5371136E+03  0.7818608E-02  0.1004521E+00
         -2   -1    0    0    0  501 -0.00000000000E+00  0.00000000000E+00  0.37401276043E+02  0.37401276130E+02  0.25500000000E-02 0. -1.
          2   -1    0    0  501    0  0.00000000000E+00 -0.00000000000E+00 -0.19283500869E+04  0.19283500869E+04  0.25500000000E-02 0.  1.
    5000001    1    1    2    0    0  0.11663180973E+03  0.14710180943E+03 -0.96048985254E+03  0.99731974723E+03  0.19200000000E+03 0.  0.
   -5000001    1    1    2    0    0 -0.11663180973E+03 -0.14710180943E+03 -0.93045895834E+03  0.96843161583E+03  0.19200000000E+03 0.  0.
<mgrwt>
<rscale>  0 0.53711360E+03</rscale>
<asrwt>0</asrwt>
<pdfrwt beam="1">  1        2 0.27547852E+00 0.53711360E+03</pdfrwt>
<pdfrwt beam="2">  1       -2 0.53430407E-02 0.53711360E+03</pdfrwt>
<totfact> 0.16703898E+03</totfact>
</mgrwt>
</event>
<event>
 4    1  0.2013882E-005  0.8357459E+03  0.7818608E-02  0.9509671E-01
          2   -1    0    0  501    0  0.00000000000E+00  0.00000000000E+00  0.85317271531E+03  0.85317271532E+03  0.25500000000E-02 0.  1.
         -2   -1    0    0    0  501 -0.00000000000E+00 -0.00000000000E+00 -0.20466877717E+03  0.20466877719E+03  0.25500000000E-02 0. -1.
    5000001    1    1    2    0    0  0.22479110881E+03 -0.73991938692E+02 -0.37644882963E+02  0.30706186152E+03  0.19200000000E+03 0.  0.
   -5000001    1    1    2    0    0 -0.22479110881E+03  0.73991938692E+02  0.68614882111E+03  0.75077963098E+03  0.19200000000E+03 0.  0.
<mgrwt>
<rscale>  0 0.83574593E+03</rscale>
<asrwt>0</asrwt>
<pdfrwt beam="1">  1        2 0.12188181E+00 0.83574593E+03</pdfrwt>
<pdfrwt beam="2">  1       -2 0.29238397E-01 0.83574593E+03</pdfrwt>
<totfact> 0.37638607E+02</totfact>
</mgrwt>
</event>
<event>
 4    1  0.2013882E-005  0.5305381E+03  0.7818608E-02  0.1006102E+00
          2   -1    0    0  501    0  0.00000000000E+00  0.00000000000E+00  0.74290808359E+03  0.74290808359E+03  0.25500000000E-02 0.  1.
         -2   -1    0    0    0  501 -0.00000000000E+00 -0.00000000000E+00 -0.94719224302E+02  0.94719224337E+02  0.25500000000E-02 0. -1.
    5000001    1    1    2    0    0 -0.17714814405E+03 -0.23585638939E+02  0.38657146478E+03  0.46716083385E+03  0.19200000000E+03 0.  0.
   -5000001    1    1    2    0    0  0.17714814405E+03  0.23585638939E+02  0.26161739451E+03  0.37046647408E+03  0.19200000000E+03 0.  0.
<mgrwt>
<rscale>  0 0.53053813E+03</rscale>
<asrwt>0</asrwt>
<pdfrwt beam="1">  1        2 0.10612973E+00 0.53053813E+03</pdfrwt>
<pdfrwt beam="2">  1       -2 0.13531317E-01 0.53053813E+03</pdfrwt>
<totfact> 0.17403492E+03</totfact>
</mgrwt>
</event>
<event>
 4    1  0.2013882E-005  0.7035739E+03  0.7818608E-02  0.9711140E-01
         -2   -1    0    0    0  501 -0.00000000000E+00  0.00000000000E+00  0.58237724636E+02  0.58237724692E+02  0.25500000000E-02 0.  1.
          2   -1    0    0  501    0  0.00000000000E+00 -0.00000000000E+00 -0.21249807728E+04  0.21249807728E+04  0.25500000000E-02 0. -1.
    5000001    1    1    2    0    0 -0.18672271131E+03 -0.22725296719E+03 -0.10939216375E+04  0.11489289930E+04  0.19200000000E+03 0.  0.
   -5000001    1    1    2    0    0  0.18672271131E+03  0.22725296719E+03 -0.97282141069E+03  0.10342895045E+04  0.19200000000E+03 0.  0.
<mgrwt>
<rscale>  0 0.70357386E+03</rscale>
<asrwt>0</asrwt>
<pdfrwt beam="1">  1        2 0.30356863E+00 0.70357386E+03</pdfrwt>
<pdfrwt beam="2">  1       -2 0.83196763E-02 0.70357386E+03</pdfrwt>
<totfact> 0.65557826E+02</totfact>
</mgrwt>
</event>
<event>
 4    1  0.2013882E-005  0.6401733E+03  0.7818608E-02  0.9825395E-01
         -2   -1    0    0    0  501 -0.00000000000E+00  0.00000000000E+00  0.15389898221E+04  0.15389898221E+04  0.25500000000E-02 0. -1.
          2   -1    0    0  501    0  0.00000000000E+00 -0.00000000000E+00 -0.66573183030E+02  0.66573183079E+02  0.25500000000E-02 0.  1.
    5000001    1    1    2    0    0 -0.28063828753E+01 -0.20977536983E+03  0.36779603431E+03  0.46492096579E+03  0.19200000000E+03 0.  0.
   -5000001    1    1    2    0    0  0.28063828753E+01  0.20977536983E+03  0.11046206048E+04  0.11406420394E+04  0.19200000000E+03 0.  0.
<mgrwt>
<rscale>  0 0.64017326E+03</rscale>
<asrwt>0</asrwt>
<pdfrwt beam="1">  1        2 0.95104554E-02 0.64017326E+03</pdfrwt>
<pdfrwt beam="2">  1       -2 0.21985567E+00 0.64017326E+03</pdfrwt>
<totfact> 0.72180552E+01</totfact>
</mgrwt>
</event>
<event>
 4    1  0.2013882E-005  0.5767074E+03  0.7818608E-02  0.9954945E-01
         -2   -1    0    0    0  501 -0.00000000000E+00  0.00000000000E+00  0.32200740683E+03  0.32200740685E+03  0.25500000000E-02 0. -1.
          2   -1    0    0  501    0  0.00000000000E+00 -0.00000000000E+00 -0.25821719865E+03  0.25821719866E+03  0.25500000000E-02 0.  1.
    5000001    1    1    2    0    0 -0.16031027669E+03  0.79965149864E+02  0.15174356218E+03  0.30328850731E+03  0.19200000000E+03 0.  0.
   -5000001    1    1    2    0    0  0.16031027669E+03 -0.79965149864E+02 -0.87953353997E+02  0.27693609820E+03  0.19200000000E+03 0.  0.
<mgrwt>
<rscale>  0 0.57670738E+03</rscale>
<asrwt>0</asrwt>
<pdfrwt beam="1">  1        2 0.36888171E-01 0.57670738E+03</pdfrwt>
<pdfrwt beam="2">  1       -2 0.46001058E-01 0.57670738E+03</pdfrwt>
<totfact> 0.63591224E+02</totfact>
</mgrwt>
</event>
<event>
 4    1  0.2013882E-005  0.7801567E+03  0.7818608E-02  0.9589192E-01
         -2   -1    0    0    0  501 -0.00000000000E+00  0.00000000000E+00  0.65015469429E+03  0.65015469430E+03  0.25500000000E-02 0. -1.
          2   -1    0    0  501    0  0.00000000000E+00 -0.00000000000E+00 -0.23403831241E+03  0.23403831242E+03  0.25500000000E-02 0.  1.
    5000001    1    1    2    0    0  0.14448382499E+03  0.29174810223E+03  0.98734683155E+02  0.39064698706E+03  0.19200000000E+03 0.  0.
   -5000001    1    1    2    0    0 -0.14448382499E+03 -0.29174810223E+03  0.31738169873E+03  0.49354601967E+03  0.19200000000E+03 0.  0.
<mgrwt>
<rscale>  0 0.78015667E+03</rscale>
<asrwt>0</asrwt>
<pdfrwt beam="1">  1        2 0.33434045E-01 0.78015667E+03</pdfrwt>
<pdfrwt beam="2">  1       -2 0.92879242E-01 0.78015667E+03</pdfrwt>
<totfact> 0.15591409E+02</totfact>
</mgrwt>
</event>
<event>
 4    1  0.2013882E-005  0.4789138E+03  0.7818608E-02  0.1019434E+00
         -2   -1    0    0    0  501 -0.00000000000E+00  0.00000000000E+00  0.22922744266E+03  0.22922744267E+03  0.25500000000E-02 0. -1.
          2   -1    0    0  501    0  0.00000000000E+00 -0.00000000000E+00 -0.25014287344E+03  0.25014287346E+03  0.25500000000E-02 0.  1.
    5000001    1    1    2    0    0  0.12581338135E+03 -0.66408731783E+02  0.49349987839E+01  0.23901355777E+03  0.19200000000E+03 0.  0.
   -5000001    1    1    2    0    0 -0.12581338135E+03  0.66408731783E+02 -0.25850429568E+02  0.24035675837E+03  0.19200000000E+03 0.  0.
<mgrwt>
<rscale>  0 0.47891382E+03</rscale>
<asrwt>0</asrwt>
<pdfrwt beam="1">  1        2 0.35734696E-01 0.47891382E+03</pdfrwt>
<pdfrwt beam="2">  1       -2 0.32746777E-01 0.47891382E+03</pdfrwt>
<totfact> 0.12680444E+03</totfact>
</mgrwt>
</event>
<event>
 4    1  0.2013882E-005  0.9285256E+03  0.7818608E-02  0.9390609E-01
          2   -1    0    0  501    0  0.00000000000E+00  0.00000000000E+00  0.81364520512E+03  0.81364520513E+03  0.25500000000E-02 0. -1.
         -2   -1    0    0    0  501 -0.00000000000E+00 -0.00000000000E+00 -0.26490653435E+03  0.26490653436E+03  0.25500000000E-02 0.  1.
    5000001    1    1    2    0    0  0.38791912709E+03  0.46456397212E+02  0.86939683692E+02  0.44391660771E+03  0.19200000000E+03 0.  0.
   -5000001    1    1    2    0    0 -0.38791912709E+03 -0.46456397212E+02  0.46179898708E+03  0.63463513177E+03  0.19200000000E+03 0.  0.
<mgrwt>
<rscale>  0 0.92852557E+03</rscale>
<asrwt>0</asrwt>
<pdfrwt beam="1">  1        2 0.11623503E+00 0.92852557E+03</pdfrwt>
<pdfrwt beam="2">  1       -2 0.37843791E-01 0.92852557E+03</pdfrwt>
<totfact> 0.24497479E+02</totfact>
</mgrwt>
</event>
<event>
 4    1  0.2013882E-005  0.5044286E+03  0.7818608E-02  0.1012629E+00
         -2   -1    0    0    0  501 -0.00000000000E+00  0.00000000000E+00  0.30727072884E+02  0.30727072990E+02  0.25500000000E-02 0. -1.
          2   -1    0    0  501    0  0.00000000000E+00 -0.00000000000E+00 -0.20702279971E+04  0.20702279971E+04  0.25500000000E-02 0.  1.
    5000001    1    1    2    0    0  0.14794223180E+03  0.64493089480E+02 -0.11300868733E+04  0.11575865427E+04  0.19200000000E+03 0.  0.
   -5000001    1    1    2    0    0 -0.14794223180E+03 -0.64493089480E+02 -0.90941405084E+03  0.94336852736E+03  0.19200000000E+03 0.  0.
<mgrwt>
<rscale>  0 0.50442857E+03</rscale>
<asrwt>0</asrwt>
<pdfrwt beam="1">  1        2 0.29574677E+00 0.50442857E+03</pdfrwt>
<pdfrwt beam="2">  1       -2 0.43895832E-02 0.50442857E+03</pdfrwt>
<totfact> 0.19247370E+03</totfact>
</mgrwt>
</event>
<event>
 4    1  0.2013882E-005  0.9196509E+03  0.7818608E-02  0.9401345E-01
         -2   -1    0    0    0  501 -0.00000000000E+00  0.00000000000E+00  0.10473893236E+04  0.10473893236E+04  0.25500000000E-02 0. -1.
          2   -1    0    0  501    0  0.00000000000E+00 -0.00000000000E+00 -0.20187281452E+03  0.20187281454E+03  0.25500000000E-02 0.  1.
    5000001    1    1    2    0    0 -0.39275503104E+03  0.50549361949E+02  0.60380763415E+03  0.74716759262E+03  0.19200000000E+03 0.  0.
   -5000001    1    1    2    0    0  0.39275503104E+03 -0.50549361949E+02  0.24170887488E+03  0.50209454547E+03  0.19200000000E+03 0.  0.
<mgrwt>
<rscale>  0 0.91965087E+03</rscale>
<asrwt>0</asrwt>
<pdfrwt beam="1">  1        2 0.28838973E-01 0.91965087E+03</pdfrwt>
<pdfrwt beam="2">  1       -2 0.14962705E+00 0.91965087E+03</pdfrwt>
<totfact> 0.56284332E+01</totfact>
</mgrwt>
</event>
<event>
 4    1  0.2013882E-005  0.6237906E+03  0.7818608E-02  0.9857241E-01
         -2   -1    0    0    0  501 -0.00000000000E+00  0.00000000000E+00  0.10453440368E+03  0.10453440371E+03  0.25500000000E-02 0. -1.
          2   -1    0    0  501    0  0.00000000000E+00 -0.00000000000E+00 -0.93059004731E+03  0.93059004732E+03  0.25500000000E-02 0.  1.
    5000001    1    1    2    0    0  0.22022032898E+02 -0.24477421548E+03 -0.40653929656E+03  0.51238421731E+03  0.19200000000E+03 0.  0.
   -5000001    1    1    2    0    0 -0.22022032898E+02  0.24477421548E+03 -0.41951634707E+03  0.52274023372E+03  0.19200000000E+03 0.  0.
<mgrwt>
<rscale>  0 0.62379059E+03</rscale>
<asrwt>0</asrwt>
<pdfrwt beam="1">  1        2 0.13294143E+00 0.62379059E+03</pdfrwt>
<pdfrwt beam="2">  1       -2 0.14933487E-01 0.62379059E+03</pdfrwt>
<totfact> 0.11008197E+03</totfact>
</mgrwt>
</event>
<event>
 4    1  0.2013882E-005  0.9532614E+03  0.7818608E-02  0.9361347E-01
         -2   -1    0    0    0  501 -0.00000000000E+00  0.00000000000E+00  0.13758784796E+04  0.13758784796E+04  0.25500000000E-02 0. -1.
          2   -1    0    0  501    0  0.00000000000E+00 -0.00000000000E+00 -0.16511400128E+03  0.16511400130E+03  0.25500000000E-02 0.  1.
    5000001    1    1    2    0    0 -0.72004409295E+02 -0.40704148699E+03  0.37995992318E+03  0.59338094873E+03  0.19200000000E+03 0.  0.
   -5000001    1    1    2    0    0  0.72004409295E+02  0.40704148699E+03  0.83080455512E+03  0.94761153217E+03  0.19200000000E+03 0.  0.
<mgrwt>
<rscale>  0 0.95326135E+03</rscale>
<asrwt>0</asrwt>
<pdfrwt beam="1">  1        2 0.23587713E-01 0.95326135E+03</pdfrwt>
<pdfrwt beam="2">  1       -2 0.19655408E+00 0.95326135E+03</pdfrwt>
<totfact> 0.32974802E+01</totfact>
</mgrwt>
</event>
<event>
 4    1  0.2013882E-005  0.4801062E+03  0.7818608E-02  0.1019106E+00
          2   -1    0    0  501    0  0.00000000000E+00  0.00000000000E+00  0.12639816685E+04  0.12639816685E+04  0.25500000000E-02 0.  1.
         -2   -1    0    0    0  501 -0.00000000000E+00 -0.00000000000E+00 -0.45590456962E+02  0.45590457033E+02  0.25500000000E-02 0. -1.
    5000001    1    1    2    0    0  0.13057293961E+03  0.44105823295E+02  0.49453973576E+03  0.54811327885E+03  0.19200000000E+03 0.  0.
   -5000001    1    1    2    0    0 -0.13057293961E+03 -0.44105823295E+02  0.72385147573E+03  0.76145884664E+03  0.19200000000E+03 0.  0.
<mgrwt>
<rscale>  0 0.48010625E+03</rscale>
<asrwt>0</asrwt>
<pdfrwt beam="1">  1        2 0.18056876E+00 0.48010625E+03</pdfrwt>
<pdfrwt beam="2">  1       -2 0.65129242E-02 0.48010625E+03</pdfrwt>
<totfact> 0.27008228E+03</totfact>
</mgrwt>
</event>
<event>
 4    1  0.2013882E-005  0.8056064E+03  0.7818608E-02  0.9551937E-01
         -2   -1    0    0    0  501 -0.00000000000E+00  0.00000000000E+00  0.53035631128E+02  0.53035631190E+02  0.25500000000E-02 0. -1.
          2   -1    0    0  501    0  0.00000000000E+00 -0.00000000000E+00 -0.30592718913E+04  0.30592718913E+04  0.25500000000E-02 0.  1.
    5000001    1    1    2    0    0 -0.24751385883E+03 -0.73654531071E+02 -0.56712552742E+03  0.65206093588E+03  0.19200000000E+03 0.  0.
   -5000001    1    1    2    0    0  0.24751385883E+03  0.73654531071E+02 -0.24391107328E+04  0.24602465866E+04  0.19200000000E+03 0.  0.
<mgrwt>
<rscale>  0 0.80560639E+03</rscale>
<asrwt>0</asrwt>
<pdfrwt beam="1">  1        2 0.43703873E+00 0.80560639E+03</pdfrwt>
<pdfrwt beam="2">  1       -2 0.75765207E-02 0.80560639E+03</pdfrwt>
<totfact> 0.24466522E+02</totfact>
</mgrwt>
</event>
<event>
 4    1  0.2013882E-005  0.6398941E+03  0.7818608E-02  0.9825929E-01
          2   -1    0    0  501    0  0.00000000000E+00  0.00000000000E+00  0.17490085256E+04  0.17490085256E+04  0.25500000000E-02 0.  1.
         -2   -1    0    0    0  501 -0.00000000000E+00 -0.00000000000E+00 -0.58528090084E+02  0.58528090140E+02  0.25500000000E-02 0. -1.
    5000001    1    1    2    0    0  0.48661045308E+02  0.25094206610E+03  0.80925264298E+03  0.87011129060E+03  0.19200000000E+03 0.  0.
   -5000001    1    1    2    0    0 -0.48661045308E+02 -0.25094206610E+03  0.88122779255E+03  0.93742532515E+03  0.19200000000E+03 0.  0.
<mgrwt>
<rscale>  0 0.63989414E+03</rscale>
<asrwt>0</asrwt>
<pdfrwt beam="1">  1        2 0.24985831E+00 0.63989414E+03</pdfrwt>
<pdfrwt beam="2">  1       -2 0.83611575E-02 0.63989414E+03</pdfrwt>
<totfact> 0.10108301E+03</totfact>
</mgrwt>
</event>
<event>
 4    1  0.2013882E-005  0.6627161E+03  0.7818608E-02  0.9783207E-01
         -2   -1    0    0    0  501 -0.00000000000E+00  0.00000000000E+00  0.10561300999E+03  0.10561301002E+03  0.25500000000E-02 0. -1.
          2   -1    0    0  501    0  0.00000000000E+00 -0.00000000000E+00 -0.10396271848E+04  0.10396271848E+04  0.25500000000E-02 0.  1.
    5000001    1    1    2    0    0  0.81530485322E+02  0.17378663802E+03 -0.79527865129E+03  0.84034585070E+03  0.19200000000E+03 0.  0.
   -5000001    1    1    2    0    0 -0.81530485322E+02 -0.17378663802E+03 -0.13873552350E+03  0.30489434411E+03  0.19200000000E+03 0.  0.
<mgrwt>
<rscale>  0 0.66271610E+03</rscale>
<asrwt>0</asrwt>
<pdfrwt beam="1">  1        2 0.14851816E+00 0.66271610E+03</pdfrwt>
<pdfrwt beam="2">  1       -2 0.15087574E-01 0.66271610E+03</pdfrwt>
<totfact> 0.92592938E+02</totfact>
</mgrwt>
</event>
<event>
 4    1  0.2013882E-005  0.6113275E+03  0.7818608E-02  0.9882180E-01
         -2   -1    0    0    0  501 -0.00000000000E+00  0.00000000000E+00  0.10419319002E+03  0.10419319006E+03  0.25500000000E-02 0. -1.
          2   -1    0    0  501    0  0.00000000000E+00 -0.00000000000E+00 -0.89670280228E+03  0.89670280228E+03  0.25500000000E-02 0.  1.
    5000001    1    1    2    0    0 -0.22919986742E+03  0.58836460909E+02 -0.43541271966E+03  0.53145323858E+03  0.19200000000E+03 0.  0.
   -5000001    1    1    2    0    0  0.22919986742E+03 -0.58836460909E+02 -0.35709689259E+03  0.46944275376E+03  0.19200000000E+03 0.  0.
<mgrwt>
<rscale>  0 0.61132749E+03</rscale>
<asrwt>0</asrwt>
<pdfrwt beam="1">  1        2 0.12810040E+00 0.61132749E+03</pdfrwt>
<pdfrwt beam="2">  1       -2 0.14884742E-01 0.61132749E+03</pdfrwt>
<totfact> 0.11639526E+03</totfact>
</mgrwt>
</event>
<event>
 4    1  0.2013882E-005  0.9031172E+03  0.7818608E-02  0.9421693E-01
          2   -1    0    0  501    0  0.00000000000E+00  0.00000000000E+00  0.35395049090E+03  0.35395049091E+03  0.25500000000E-02 0.  1.
         -2   -1    0    0    0  501 -0.00000000000E+00 -0.00000000000E+00 -0.57608390816E+03  0.57608390816E+03  0.25500000000E-02 0. -1.
    5000001    1    1    2    0    0  0.40476367421E+03  0.39705904657E+02 -0.69477495440E+02  0.45508385293E+03  0.19200000000E+03 0.  0.
   -5000001    1    1    2    0    0 -0.40476367421E+03 -0.39705904657E+02 -0.15265592181E+03  0.47495054615E+03  0.19200000000E+03 0.  0.
<mgrwt>
<rscale>  0 0.90311723E+03</rscale>
<asrwt>0</asrwt>
<pdfrwt beam="1">  1        2 0.50564356E-01 0.90311723E+03</pdfrwt>
<pdfrwt beam="2">  1       -2 0.82297701E-01 0.90311723E+03</pdfrwt>
<totfact> 0.12907835E+02</totfact>
</mgrwt>
</event>
<event>
 4    1  0.2013882E-005  0.1051887E+04  0.7818608E-02  0.9253398E-01
         -2   -1    0    0    0  501 -0.00000000000E+00  0.00000000000E+00  0.94363443474E+02  0.94363443509E+02  0.25500000000E-02 0. -1.
          2   -1    0    0  501    0  0.00000000000E+00 -0.00000000000E+00 -0.29313967585E+04  0.29313967585E+04  0.25500000000E-02 0.  1.
    5000001    1    1    2    0    0  0.12103944223E+02 -0.48155036185E+03 -0.16711819289E+04  0.17497857857E+04  0.19200000000E+03 0.  0.
   -5000001    1    1    2    0    0 -0.12103944223E+02  0.48155036185E+03 -0.11658513861E+04  0.12759744163E+04  0.19200000000E+03 0.  0.
<mgrwt>
<rscale>  0 0.10518872E+04</rscale>
<asrwt>0</asrwt>
<pdfrwt beam="1">  1        2 0.41877091E+00 0.10518872E+04</pdfrwt>
<pdfrwt beam="2">  1       -2 0.13480494E-01 0.10518872E+04</pdfrwt>
<totfact> 0.10954895E+02</totfact>
</mgrwt>
</event>
<event>
 4    1  0.2013882E-005  0.6136118E+03  0.7818608E-02  0.9877562E-01
         -2   -1    0    0    0  501 -0.00000000000E+00  0.00000000000E+00  0.21029451933E+03  0.21029451935E+03  0.25500000000E-02 0. -1.
          2   -1    0    0  501    0  0.00000000000E+00 -0.00000000000E+00 -0.44760959655E+03  0.44760959655E+03  0.25500000000E-02 0.  1.
    5000001    1    1    2    0    0  0.53394748864E+02 -0.18257201233E+03  0.37020730063E+02  0.27279676198E+03  0.19200000000E+03 0.  0.
   -5000001    1    1    2    0    0 -0.53394748864E+02  0.18257201233E+03 -0.27433580728E+03  0.38510735392E+03  0.19200000000E+03 0.  0.
<mgrwt>
<rscale>  0 0.61361175E+03</rscale>
<asrwt>0</asrwt>
<pdfrwt beam="1">  1        2 0.63944228E-01 0.61361175E+03</pdfrwt>
<pdfrwt beam="2">  1       -2 0.30042074E-01 0.61361175E+03</pdfrwt>
<totfact> 0.78193123E+02</totfact>
</mgrwt>
</event>
<event>
 4    1  0.2013882E-005  0.4991848E+03  0.7818608E-02  0.1013992E+00
          2   -1    0    0  501    0  0.00000000000E+00  0.00000000000E+00  0.27620689952E+03  0.27620689954E+03  0.25500000000E-02 0.  1.
         -2   -1    0    0    0  501 -0.00000000000E+00 -0.00000000000E+00 -0.22554236474E+03  0.22554236475E+03  0.25500000000E-02 0. -1.
    5000001    1    1    2    0    0 -0.35889442136E+02  0.14103140556E+03  0.90893487272E+02  0.25749472896E+03  0.19200000000E+03 0.  0.
   -5000001    1    1    2    0    0  0.35889442136E+02 -0.14103140556E+03 -0.40228952484E+02  0.24425453533E+03  0.19200000000E+03 0.  0.
<mgrwt>
<rscale>  0 0.49918476E+03</rscale>
<asrwt>0</asrwt>
<pdfrwt beam="1">  1        2 0.39458128E-01 0.49918476E+03</pdfrwt>
<pdfrwt beam="2">  1       -2 0.32220338E-01 0.49918476E+03</pdfrwt>
<totfact> 0.11717949E+03</totfact>
</mgrwt>
</event>
<event>
 4    1  0.2013882E-005  0.4179731E+03  0.7818608E-02  0.1037728E+00
          2   -1    0    0  501    0  0.00000000000E+00  0.00000000000E+00  0.63143581735E+03  0.63143581735E+03  0.25500000000E-02 0.  1.
         -2   -1    0    0    0  501 -0.00000000000E+00 -0.00000000000E+00 -0.69168357688E+02  0.69168357735E+02  0.25500000000E-02 0. -1.
    5000001    1    1    2    0    0  0.49498457887E+02  0.38347166613E+02  0.19101156722E+03  0.27797485738E+03  0.19200000000E+03 0.  0.
   -5000001    1    1    2    0    0 -0.49498457887E+02 -0.38347166613E+02  0.37125589244E+03  0.42262931771E+03  0.19200000000E+03 0.  0.
<mgrwt>
<rscale>  0 0.41797310E+03</rscale>
<asrwt>0</asrwt>
<pdfrwt beam="1">  1        2 0.90205120E-01 0.41797310E+03</pdfrwt>
<pdfrwt beam="2">  1       -2 0.98811937E-02 0.41797310E+03</pdfrwt>
<totfact> 0.35316283E+03</totfact>
</mgrwt>
</event>
<event>
 4    1  0.2013882E-005  0.4599597E+03  0.7818608E-02  0.1024793E+00
         -2   -1    0    0    0  501 -0.00000000000E+00  0.00000000000E+00  0.64909795722E+02  0.64909795772E+02  0.25500000000E-02 0. -1.
          2   -1    0    0  501    0  0.00000000000E+00 -0.00000000000E+00 -0.81483441470E+03  0.81483441471E+03  0.25500000000E-02 0.  1.
    5000001    1    1    2    0    0  0.61869765016E+02  0.84727953223E+00 -0.58620592830E+03  0.61994352652E+03  0.19200000000E+03 0.  0.
   -5000001    1    1    2    0    0 -0.61869765016E+02 -0.84727953223E+00 -0.16371869069E+03  0.25980068396E+03  0.19200000000E+03 0.  0.
<mgrwt>
<rscale>  0 0.45995972E+03</rscale>
<asrwt>0</asrwt>
<pdfrwt beam="1">  1        2 0.11640491E+00 0.45995972E+03</pdfrwt>
<pdfrwt beam="2">  1       -2 0.92728284E-02 0.45995972E+03</pdfrwt>
<totfact> 0.28675877E+03</totfact>
</mgrwt>
</event>
<event>
 4    1  0.2013882E-005  0.5006086E+03  0.7818608E-02  0.1013620E+00
          2   -1    0    0  501    0  0.00000000000E+00  0.00000000000E+00  0.42989957166E+02  0.42989957241E+02  0.25500000000E-02 0.  1.
         -2   -1    0    0    0  501 -0.00000000000E+00 -0.00000000000E+00 -0.14573692184E+04  0.14573692184E+04  0.25500000000E-02 0. -1.
    5000001    1    1    2    0    0  0.11286859848E+03 -0.10947618630E+03 -0.80494579856E+03  0.84233371920E+03  0.19200000000E+03 0.  0.
   -5000001    1    1    2    0    0 -0.11286859848E+03  0.10947618630E+03 -0.60943346264E+03  0.65802545640E+03  0.19200000000E+03 0.  0.
<mgrwt>
<rscale>  0 0.50060859E+03</rscale>
<asrwt>0</asrwt>
<pdfrwt beam="1">  1        2 0.61414234E-02 0.50060859E+03</pdfrwt>
<pdfrwt beam="2">  1       -2 0.20819557E+00 0.50060859E+03</pdfrwt>
<totfact> 0.15217812E+02</totfact>
</mgrwt>
</event>
<event>
 4    1  0.2013882E-005  0.5717884E+03  0.7818608E-02  0.9965729E-01
         -2   -1    0    0    0  501 -0.00000000000E+00  0.00000000000E+00  0.10710878005E+03  0.10710878008E+03  0.25500000000E-02 0. -1.
          2   -1    0    0  501    0  0.00000000000E+00 -0.00000000000E+00 -0.76310731376E+03  0.76310731377E+03  0.25500000000E-02 0.  1.
    5000001    1    1    2    0    0  0.20905232369E+03  0.76970409013E+01 -0.37869027766E+03  0.47332065756E+03  0.19200000000E+03 0.  0.
   -5000001    1    1    2    0    0 -0.20905232369E+03 -0.76970409013E+01 -0.27730825605E+03  0.39689543629E+03  0.19200000000E+03 0.  0.
<mgrwt>
<rscale>  0 0.57178840E+03</rscale>
<asrwt>0</asrwt>
<pdfrwt beam="1">  1        2 0.10901533E+00 0.57178840E+03</pdfrwt>
<pdfrwt beam="2">  1       -2 0.15301255E-01 0.57178840E+03</pdfrwt>
<totfact> 0.13698031E+03</totfact>
</mgrwt>
</event>
<event>
 4    1  0.2013882E-005  0.1006220E+04  0.7818608E-02  0.9301748E-01
         -2   -1    0    0    0  501 -0.00000000000E+00  0.00000000000E+00  0.16242465014E+03  0.16242465016E+03  0.25500000000E-02 0. -1.
          2   -1    0    0  501    0  0.00000000000E+00 -0.00000000000E+00 -0.15583836038E+04  0.15583836038E+04  0.25500000000E-02 0.  1.
    5000001    1    1    2    0    0  0.25822265011E+03  0.33780980047E+03 -0.10200255162E+04  0.11216552287E+04  0.19200000000E+03 0.  0.
   -5000001    1    1    2    0    0 -0.25822265011E+03 -0.33780980047E+03 -0.37593343749E+03  0.59915302531E+03  0.19200000000E+03 0.  0.
<mgrwt>
<rscale>  0 0.10062205E+04</rscale>
<asrwt>0</asrwt>
<pdfrwt beam="1">  1        2 0.22262622E+00 0.10062205E+04</pdfrwt>
<pdfrwt beam="2">  1       -2 0.23203522E-01 0.10062205E+04</pdfrwt>
<totfact> 0.22250996E+02</totfact>
</mgrwt>
</event>
<event>
 4    1  0.2013882E-005  0.4144619E+03  0.7818608E-02  0.1038884E+00
         -2   -1    0    0    0  501 -0.00000000000E+00  0.00000000000E+00  0.24652917295E+02  0.24652917427E+02  0.25500000000E-02 0. -1.
          2   -1    0    0  501    0  0.00000000000E+00 -0.00000000000E+00 -0.17419708271E+04  0.17419708271E+04  0.25500000000E-02 0.  1.
    5000001    1    1    2    0    0  0.75804625097E+02 -0.11608751813E+02 -0.79844534945E+03  0.82477880694E+03  0.19200000000E+03 0.  0.
   -5000001    1    1    2    0    0 -0.75804625097E+02  0.11608751813E+02 -0.91887256033E+03  0.94184493757E+03  0.19200000000E+03 0.  0.
<mgrwt>
<rscale>  0 0.41446188E+03</rscale>
<asrwt>0</asrwt>
<pdfrwt beam="1">  1        2 0.24885290E+00 0.41446188E+03</pdfrwt>
<pdfrwt beam="2">  1       -2 0.35218464E-02 0.41446188E+03</pdfrwt>
<totfact> 0.39356232E+03</totfact>
</mgrwt>
</event>
<event>
 4    1  0.2013882E-005  0.6619780E+03  0.7818608E-02  0.9784559E-01
          2   -1    0    0  501    0  0.00000000000E+00  0.00000000000E+00  0.22334025328E+03  0.22334025329E+03  0.25500000000E-02 0.  1.
         -2   -1    0    0    0  501 -0.00000000000E+00 -0.00000000000E+00 -0.49052384456E+03  0.49052384456E+03  0.25500000000E-02 0. -1.
    5000001    1    1    2    0    0  0.15195873601E+03 -0.22175971758E+03 -0.15571541779E+03  0.36521243288E+03  0.19200000000E+03 0.  0.
   -5000001    1    1    2    0    0 -0.15195873601E+03  0.22175971758E+03 -0.11146817349E+03  0.34865166498E+03  0.19200000000E+03 0.  0.
<mgrwt>
<rscale>  0 0.66197800E+03</rscale>
<asrwt>0</asrwt>
<pdfrwt beam="1">  1        2 0.31905751E-01 0.66197800E+03</pdfrwt>
<pdfrwt beam="2">  1       -2 0.70074834E-01 0.66197800E+03</pdfrwt>
<totfact> 0.31079731E+02</totfact>
</mgrwt>
</event>
<event>
 4    1  0.2013882E-005  0.5255427E+03  0.7818608E-02  0.1007319E+00
         -2   -1    0    0    0  501 -0.00000000000E+00  0.00000000000E+00  0.51852776153E+03  0.51852776153E+03  0.25500000000E-02 0. -1.
          2   -1    0    0  501    0  0.00000000000E+00 -0.00000000000E+00 -0.13316311300E+03  0.13316311302E+03  0.25500000000E-02 0.  1.
    5000001    1    1    2    0    0 -0.11074079372E+03  0.10747922010E+03  0.79238068449E+02  0.25876239611E+03  0.19200000000E+03 0.  0.
   -5000001    1    1    2    0    0  0.11074079372E+03 -0.10747922010E+03  0.30612658008E+03  0.39292847845E+03  0.19200000000E+03 0.  0.
<mgrwt>
<rscale>  0 0.52554266E+03</rscale>
<asrwt>0</asrwt>
<pdfrwt beam="1">  1        2 0.19023302E-01 0.52554266E+03</pdfrwt>
<pdfrwt beam="2">  1       -2 0.74075395E-01 0.52554266E+03</pdfrwt>
<totfact> 0.49905983E+02</totfact>
</mgrwt>
</event>
<event>
 4    1  0.2013882E-005  0.4940119E+03  0.7818608E-02  0.1015354E+00
         -2   -1    0    0    0  501 -0.00000000000E+00  0.00000000000E+00  0.17019783144E+03  0.17019783146E+03  0.25500000000E-02 0. -1.
          2   -1    0    0  501    0  0.00000000000E+00 -0.00000000000E+00 -0.35847658277E+03  0.35847658278E+03  0.25500000000E-02 0.  1.
    5000001    1    1    2    0    0 -0.15501741122E+03  0.49337663832E+01 -0.10447061184E+03  0.26801650802E+03  0.19200000000E+03 0.  0.
   -5000001    1    1    2    0    0  0.15501741122E+03 -0.49337663832E+01 -0.83808139490E+02  0.26065790622E+03  0.19200000000E+03 0.  0.
<mgrwt>
<rscale>  0 0.49401189E+03</rscale>
<asrwt>0</asrwt>
<pdfrwt beam="1">  1        2 0.51210941E-01 0.49401189E+03</pdfrwt>
<pdfrwt beam="2">  1       -2 0.24313976E-01 0.49401189E+03</pdfrwt>
<totfact> 0.14692276E+03</totfact>
</mgrwt>
</event>
<event>
 4    1  0.2013882E-005  0.7456189E+03  0.7818608E-02  0.9642249E-01
         -2   -1    0    0    0  501 -0.00000000000E+00  0.00000000000E+00  0.78776472123E+02  0.78776472165E+02  0.25500000000E-02 0. -1.
          2   -1    0    0  501    0  0.00000000000E+00 -0.00000000000E+00 -0.17643196172E+04  0.17643196172E+04  0.25500000000E-02 0.  1.
    5000001    1    1    2    0    0  0.27216751180E+03 -0.51448942001E+02 -0.44880972947E+03  0.56126314807E+03  0.19200000000E+03 0.  0.
   -5000001    1    1    2    0    0 -0.27216751180E+03  0.51448942001E+02 -0.12367334156E+04  0.12818329413E+04  0.19200000000E+03 0.  0.
<mgrwt>
<rscale>  0 0.74561887E+03</rscale>
<asrwt>0</asrwt>
<pdfrwt beam="1">  1        2 0.25204564E+00 0.74561887E+03</pdfrwt>
<pdfrwt beam="2">  1       -2 0.11253783E-01 0.74561887E+03</pdfrwt>
<totfact> 0.60982578E+02</totfact>
</mgrwt>
</event>
<event>
 4    1  0.2013882E-005  0.5604482E+03  0.7818608E-02  0.9991041E-01
          2   -1    0    0  501    0  0.00000000000E+00  0.00000000000E+00  0.14078537077E+04  0.14078537077E+04  0.25500000000E-02 0.  1.
         -2   -1    0    0    0  501 -0.00000000000E+00 -0.00000000000E+00 -0.55776776367E+02  0.55776776425E+02  0.25500000000E-02 0. -1.
    5000001    1    1    2    0    0  0.70747106161E+02  0.17134705070E+03  0.45296107540E+03  0.52574014554E+03  0.19200000000E+03 0.  0.
   -5000001    1    1    2    0    0 -0.70747106161E+02 -0.17134705070E+03  0.89911585595E+03  0.93789033859E+03  0.19200000000E+03 0.  0.
<mgrwt>
<rscale>  0 0.56044818E+03</rscale>
<asrwt>0</asrwt>
<pdfrwt beam="1">  1        2 0.20112196E+00 0.56044818E+03</pdfrwt>
<pdfrwt beam="2">  1       -2 0.79681108E-02 0.56044818E+03</pdfrwt>
<totfact> 0.16426006E+03</totfact>
</mgrwt>
</event>
<event>
 4    1  0.2013882E-005  0.5400008E+03  0.7818608E-02  0.1003835E+00
          2   -1    0    0  501    0  0.00000000000E+00  0.00000000000E+00  0.17086572251E+04  0.17086572251E+04  0.25500000000E-02 0.  1.
         -2   -1    0    0    0  501 -0.00000000000E+00 -0.00000000000E+00 -0.42665211052E+02  0.42665211128E+02  0.25500000000E-02 0. -1.
    5000001    1    1    2    0    0  0.12454178780E+03 -0.13907603504E+03  0.72142758658E+03  0.76952879290E+03  0.19200000000E+03 0.  0.
   -5000001    1    1    2    0    0 -0.12454178780E+03  0.13907603504E+03  0.94456442743E+03  0.98179364328E+03  0.19200000000E+03 0.  0.
<mgrwt>
<rscale>  0 0.54000082E+03</rscale>
<asrwt>0</asrwt>
<pdfrwt beam="1">  1        2 0.24409390E+00 0.54000082E+03</pdfrwt>
<pdfrwt beam="2">  1       -2 0.60950300E-02 0.54000082E+03</pdfrwt>
<totfact> 0.17545207E+03</totfact>
</mgrwt>
</event>
<event>
 4    1  0.2013882E-005  0.7001051E+03  0.7818608E-02  0.9717053E-01
          2   -1    0    0  501    0  0.00000000000E+00  0.00000000000E+00  0.46737629489E+03  0.46737629490E+03  0.25500000000E-02 0.  1.
         -2   -1    0    0    0  501 -0.00000000000E+00 -0.00000000000E+00 -0.26218013897E+03  0.26218013898E+03  0.25500000000E-02 0. -1.
    5000001    1    1    2    0    0 -0.12934321652E+03 -0.26134432559E+03  0.76189175842E+02  0.35735040883E+03  0.19200000000E+03 0.  0.
   -5000001    1    1    2    0    0  0.12934321652E+03  0.26134432559E+03  0.12900698008E+03  0.37220602505E+03  0.19200000000E+03 0.  0.
<mgrwt>
<rscale>  0 0.70010508E+03</rscale>
<asrwt>0</asrwt>
<pdfrwt beam="1">  1        2 0.66768042E-01 0.70010508E+03</pdfrwt>
<pdfrwt beam="2">  1       -2 0.37454306E-01 0.70010508E+03</pdfrwt>
<totfact> 0.49058237E+02</totfact>
</mgrwt>
</event>
<event>
 4    1  0.2013882E-005  0.8852208E+03  0.7818608E-02  0.9444247E-01
          2   -1    0    0  501    0  0.00000000000E+00  0.00000000000E+00  0.89124909535E+03  0.89124909536E+03  0.25500000000E-02 0.  1.
         -2   -1    0    0    0  501 -0.00000000000E+00 -0.00000000000E+00 -0.21980831949E+03  0.21980831951E+03  0.25500000000E-02 0. -1.
    5000001    1    1    2    0    0 -0.20025709758E+03 -0.25378589617E+03  0.62881090286E+03  0.73265089762E+03  0.19200000000E+03 0.  0.
   -5000001    1    1    2    0    0  0.20025709758E+03  0.25378589617E+03  0.42629873000E+02  0.37840651725E+03  0.19200000000E+03 0.  0.
<mgrwt>
<rscale>  0 0.88522080E+03</rscale>
<asrwt>0</asrwt>
<pdfrwt beam="1">  1        2 0.12732130E+00 0.88522080E+03</pdfrwt>
<pdfrwt beam="2">  1       -2 0.31401189E-01 0.88522080E+03</pdfrwt>
<totfact> 0.31026966E+02</totfact>
</mgrwt>
</event>
<event>
 4    1  0.2013882E-005  0.4776316E+03  0.7818608E-02  0.1019788E+00
          2   -1    0    0  501    0  0.00000000000E+00  0.00000000000E+00  0.84181662389E+02  0.84181662428E+02  0.25500000000E-02 0.  1.
         -2   -1    0    0    0  501 -0.00000000000E+00 -0.00000000000E+00 -0.67749896678E+03  0.67749896678E+03  0.25500000000E-02 0. -1.
    5000001    1    1    2    0    0  0.64890194159E+02 -0.11899815752E+03 -0.36427275838E+03  0.43350887106E+03  0.19200000000E+03 0.  0.
   -5000001    1    1    2    0    0 -0.64890194159E+02  0.11899815752E+03 -0.22904454601E+03  0.32817175815E+03  0.19200000000E+03 0.  0.
<mgrwt>
<rscale>  0 0.47763161E+03</rscale>
<asrwt>0</asrwt>
<pdfrwt beam="1">  1        2 0.12025952E-01 0.47763161E+03</pdfrwt>
<pdfrwt beam="2">  1       -2 0.96785564E-01 0.47763161E+03</pdfrwt>
<totfact> 0.47420481E+02</totfact>
</mgrwt>
</event>
<event>
 4    1  0.2013882E-005  0.4362492E+03  0.7818608E-02  0.1031904E+00
         -2   -1    0    0    0  501 -0.00000000000E+00  0.00000000000E+00  0.61519064878E+03  0.61519064879E+03  0.25500000000E-02 0. -1.
          2   -1    0    0  501    0  0.00000000000E+00 -0.00000000000E+00 -0.77339185762E+02  0.77339185804E+02  0.25500000000E-02 0.  1.
    5000001    1    1    2    0    0  0.81719707159E+02  0.28605096979E+02  0.35897819986E+03  0.41620392849E+03  0.19200000000E+03 0.  0.
   -5000001    1    1    2    0    0 -0.81719707159E+02 -0.28605096979E+02  0.17887326315E+03  0.27632590610E+03  0.19200000000E+03 0.  0.
<mgrwt>
<rscale>  0 0.43624921E+03</rscale>
<asrwt>0</asrwt>
<pdfrwt beam="1">  1        2 0.11048455E-01 0.43624921E+03</pdfrwt>
<pdfrwt beam="2">  1       -2 0.87884381E-01 0.43624921E+03</pdfrwt>
<totfact> 0.65765501E+02</totfact>
</mgrwt>
</event>
<event>
 4    1  0.2013882E-005  0.9085758E+03  0.7818608E-02  0.9414924E-01
          2   -1    0    0  501    0  0.00000000000E+00  0.00000000000E+00  0.18989631965E+03  0.18989631967E+03  0.25500000000E-02 0.  1.
         -2   -1    0    0    0  501 -0.00000000000E+00 -0.00000000000E+00 -0.10867903936E+04  0.10867903936E+04  0.25500000000E-02 0. -1.
    5000001    1    1    2    0    0  0.10787283931E+03  0.34601916914E+03 -0.72289325187E+03  0.83114647835E+03  0.19200000000E+03 0.  0.
   -5000001    1    1    2    0    0 -0.10787283931E+03 -0.34601916914E+03 -0.17400082211E+03  0.44554023496E+03  0.19200000000E+03 0.  0.
<mgrwt>
<rscale>  0 0.90857580E+03</rscale>
<asrwt>0</asrwt>
<pdfrwt beam="1">  1        2 0.27128046E-01 0.90857580E+03</pdfrwt>
<pdfrwt beam="2">  1       -2 0.15525577E+00 0.90857580E+03</pdfrwt>
<totfact> 0.54728715E+01</totfact>
</mgrwt>
</event>
<event>
 4    1  0.2013882E-005  0.5194297E+03  0.7818608E-02  0.1008828E+00
          2   -1    0    0  501    0  0.00000000000E+00  0.00000000000E+00  0.65440029678E+03  0.65440029678E+03  0.25500000000E-02 0.  1.
         -2   -1    0    0    0  501 -0.00000000000E+00 -0.00000000000E+00 -0.10307420948E+03  0.10307420951E+03  0.25500000000E-02 0. -1.
    5000001    1    1    2    0    0 -0.12016811257E+02  0.14551333219E+03  0.13526411309E+03  0.27654821259E+03  0.19200000000E+03 0.  0.
   -5000001    1    1    2    0    0  0.12016811257E+02 -0.14551333219E+03  0.41606197421E+03  0.48092629371E+03  0.19200000000E+03 0.  0.
<mgrwt>
<rscale>  0 0.51942966E+03</rscale>
<asrwt>0</asrwt>
<pdfrwt beam="1">  1        2 0.93485761E-01 0.51942966E+03</pdfrwt>
<pdfrwt beam="2">  1       -2 0.14724886E-01 0.51942966E+03</pdfrwt>
<totfact> 0.17638353E+03</totfact>
</mgrwt>
</event>
<event>
 4    1  0.2013882E-005  0.4315669E+03  0.7818608E-02  0.1033366E+00
         -2   -1    0    0    0  501 -0.00000000000E+00  0.00000000000E+00  0.34963902901E+02  0.34963902994E+02  0.25500000000E-02 0. -1.
          2   -1    0    0  501    0  0.00000000000E+00 -0.00000000000E+00 -0.13317304765E+04  0.13317304765E+04  0.25500000000E-02 0.  1.
    5000001    1    1    2    0    0 -0.41135972261E+02  0.83527176964E+02 -0.54677142642E+03  0.58693436622E+03  0.19200000000E+03 0.  0.
   -5000001    1    1    2    0    0  0.41135972261E+02 -0.83527176964E+02 -0.74999514717E+03  0.77976001327E+03  0.19200000000E+03 0.  0.
<mgrwt>
<rscale>  0 0.43156689E+03</rscale>
<asrwt>0</asrwt>
<pdfrwt beam="1">  1        2 0.19024718E+00 0.43156689E+03</pdfrwt>
<pdfrwt beam="2">  1       -2 0.49948441E-02 0.43156689E+03</pdfrwt>
<totfact> 0.37484080E+03</totfact>
</mgrwt>
</event>
<event>
 4    1  0.2013882E-005  0.5698311E+03  0.7818608E-02  0.9970052E-01
          2   -1    0    0  501    0  0.00000000000E+00  0.00000000000E+00  0.14645551340E+04  0.14645551340E+04  0.25500000000E-02 0.  1.
         -2   -1    0    0    0  501 -0.00000000000E+00 -0.00000000000E+00 -0.55427667546E+02  0.55427667604E+02  0.25500000000E-02 0. -1.
    5000001    1    1    2    0    0  0.48779777005E+02 -0.20212742274E+03  0.61698786350E+03  0.67880261150E+03  0.19200000000E+03 0.  0.
   -5000001    1    1    2    0    0 -0.48779777005E+02  0.20212742274E+03  0.79213960295E+03  0.84118019011E+03  0.19200000000E+03 0.  0.
<mgrwt>
<rscale>  0 0.56983112E+03</rscale>
<asrwt>0</asrwt>
<pdfrwt beam="1">  1        2 0.20922218E+00 0.56983112E+03</pdfrwt>
<pdfrwt beam="2">  1       -2 0.79182377E-02 0.56983112E+03</pdfrwt>
<totfact> 0.15485379E+03</totfact>
</mgrwt>
</event>
<event>
 4    1  0.2013882E-005  0.5425118E+03  0.7818608E-02  0.1003242E+00
          2   -1    0    0  501    0  0.00000000000E+00  0.00000000000E+00  0.41239381670E+03  0.41239381671E+03  0.25500000000E-02 0.  1.
         -2   -1    0    0    0  501 -0.00000000000E+00 -0.00000000000E+00 -0.17842113980E+03  0.17842113981E+03  0.25500000000E-02 0. -1.
    5000001    1    1    2    0    0  0.14409151629E+03  0.25091599915E+02 -0.17824806917E+02  0.24201999338E+03  0.19200000000E+03 0.  0.
   -5000001    1    1    2    0    0 -0.14409151629E+03 -0.25091599915E+02  0.25179748382E+03  0.34879496314E+03  0.19200000000E+03 0.  0.
<mgrwt>
<rscale>  0 0.54251184E+03</rscale>
<asrwt>0</asrwt>
<pdfrwt beam="1">  1        2 0.58913401E-01 0.54251184E+03</pdfrwt>
<pdfrwt beam="2">  1       -2 0.25488735E-01 0.54251184E+03</pdfrwt>
<totfact> 0.11567464E+03</totfact>
</mgrwt>
</event>
<event>
 4    1  0.2013882E-005  0.4540626E+03  0.7818608E-02  0.1026517E+00
         -2   -1    0    0    0  501 -0.00000000000E+00  0.00000000000E+00  0.12906885852E+03  0.12906885855E+03  0.25500000000E-02 0. -1.
          2   -1    0    0  501    0  0.00000000000E+00 -0.00000000000E+00 -0.39934668491E+03  0.39934668492E+03  0.25500000000E-02 0.  1.
    5000001    1    1    2    0    0 -0.11014552854E+03 -0.14273107172E+02 -0.78802558046E+02  0.23539244295E+03  0.19200000000E+03 0.  0.
   -5000001    1    1    2    0    0  0.11014552854E+03  0.14273107172E+02 -0.19147526834E+03  0.29302310051E+03  0.19200000000E+03 0.  0.
<mgrwt>
<rscale>  0 0.45406264E+03</rscale>
<asrwt>0</asrwt>
<pdfrwt beam="1">  1        2 0.57049526E-01 0.45406264E+03</pdfrwt>
<pdfrwt beam="2">  1       -2 0.18438409E-01 0.45406264E+03</pdfrwt>
<totfact> 0.21133449E+03</totfact>
</mgrwt>
</event>
<event>
 4    1  0.2013882E-005  0.4478853E+03  0.7818608E-02  0.1028355E+00
         -2   -1    0    0    0  501 -0.00000000000E+00  0.00000000000E+00  0.38827677231E+03  0.38827677232E+03  0.25500000000E-02 0. -1.
          2   -1    0    0  501    0  0.00000000000E+00 -0.00000000000E+00 -0.12916126569E+03  0.12916126571E+03  0.25500000000E-02 0.  1.
    5000001    1    1    2    0    0  0.11189829660E+03  0.85858294128E+01  0.15993497565E+03  0.27393090677E+03  0.19200000000E+03 0.  0.
   -5000001    1    1    2    0    0 -0.11189829660E+03 -0.85858294128E+01  0.99180530976E+02  0.24350713126E+03  0.19200000000E+03 0.  0.
<mgrwt>
<rscale>  0 0.44788534E+03</rscale>
<asrwt>0</asrwt>
<pdfrwt beam="1">  1        2 0.18451609E-01 0.44788534E+03</pdfrwt>
<pdfrwt beam="2">  1       -2 0.55468111E-01 0.44788534E+03</pdfrwt>
<totfact> 0.95654278E+02</totfact>
</mgrwt>
</event>
<event>
 4    1  0.2013882E-005  0.5171682E+03  0.7818608E-02  0.1009392E+00
         -2   -1    0    0    0  501 -0.00000000000E+00  0.00000000000E+00  0.27925994108E+02  0.27925994224E+02  0.25500000000E-02 0. -1.
          2   -1    0    0  501    0  0.00000000000E+00 -0.00000000000E+00 -0.23943909347E+04  0.23943909347E+04  0.25500000000E-02 0.  1.
    5000001    1    1    2    0    0  0.15955646155E+03  0.35839475033E+02 -0.91584423849E+03  0.94993547232E+03  0.19200000000E+03 0.  0.
   -5000001    1    1    2    0    0 -0.15955646155E+03 -0.35839475033E+02 -0.14506207021E+04  0.14723814566E+04  0.19200000000E+03 0.  0.
<mgrwt>
<rscale>  0 0.51716824E+03</rscale>
<asrwt>0</asrwt>
<pdfrwt beam="1">  1        2 0.34205572E+00 0.51716824E+03</pdfrwt>
<pdfrwt beam="2">  1       -2 0.39894293E-02 0.51716824E+03</pdfrwt>
<totfact> 0.15310264E+03</totfact>
</mgrwt>
</event>
<event>
 4    1  0.2013882E-005  0.5136762E+03  0.7818608E-02  0.1010270E+00
          2   -1    0    0  501    0  0.00000000000E+00  0.00000000000E+00  0.63628514327E+03  0.63628514328E+03  0.25500000000E-02 0.  1.
         -2   -1    0    0    0  501 -0.00000000000E+00 -0.00000000000E+00 -0.10367335321E+03  0.10367335325E+03  0.25500000000E-02 0. -1.
    5000001    1    1    2    0    0  0.27425936366E+01  0.72813320932E+02  0.48850282697E+03  0.52991349622E+03  0.19200000000E+03 0.  0.
   -5000001    1    1    2    0    0 -0.27425936366E+01 -0.72813320932E+02  0.44108963090E+02  0.21004500030E+03  0.19200000000E+03 0.  0.
<mgrwt>
<rscale>  0 0.51367622E+03</rscale>
<asrwt>0</asrwt>
<pdfrwt beam="1">  1        2 0.90897880E-01 0.51367622E+03</pdfrwt>
<pdfrwt beam="2">  1       -2 0.14810479E-01 0.51367622E+03</pdfrwt>
<totfact> 0.18061552E+03</totfact>
</mgrwt>
</event>
<event>
 4    1  0.2013882E-005  0.8600416E+03  0.7818608E-02  0.9476958E-01
         -2   -1    0    0    0  501 -0.00000000000E+00  0.00000000000E+00  0.21408984162E+03  0.21408984164E+03  0.25500000000E-02 0. -1.
          2   -1    0    0  501    0  0.00000000000E+00 -0.00000000000E+00 -0.86373958911E+03  0.86373958911E+03  0.25500000000E-02 0.  1.
    5000001    1    1    2    0    0 -0.68593391143E+02  0.37744436082E+03 -0.36209813939E+03  0.56138076327E+03  0.19200000000E+03 0.  0.
   -5000001    1    1    2    0    0  0.68593391143E+02 -0.37744436082E+03 -0.28755160809E+03  0.51644866748E+03  0.19200000000E+03 0.  0.
<mgrwt>
<rscale>  0 0.86004156E+03</rscale>
<asrwt>0</asrwt>
<pdfrwt beam="1">  1        2 0.12339137E+00 0.86004156E+03</pdfrwt>
<pdfrwt beam="2">  1       -2 0.30584264E-01 0.86004156E+03</pdfrwt>
<totfact> 0.34027195E+02</totfact>
</mgrwt>
</event>
<event>
 4    1  0.2013882E-005  0.4556573E+03  0.7818608E-02  0.1026048E+00
         -2   -1    0    0    0  501 -0.00000000000E+00  0.00000000000E+00  0.16568161195E+03  0.16568161197E+03  0.25500000000E-02 0. -1.
          2   -1    0    0  501    0  0.00000000000E+00 -0.00000000000E+00 -0.31328696981E+03  0.31328696982E+03  0.25500000000E-02 0.  1.
    5000001    1    1    2    0    0 -0.94668626417E+02 -0.65066059997E+02 -0.28637669565E+02  0.22556563814E+03  0.19200000000E+03 0.  0.
   -5000001    1    1    2    0    0  0.94668626417E+02  0.65066059997E+02 -0.11896768829E+03  0.25340294365E+03  0.19200000000E+03 0.  0.
<mgrwt>
<rscale>  0 0.45565728E+03</rscale>
<asrwt>0</asrwt>
<pdfrwt beam="1">  1        2 0.44755281E-01 0.45565728E+03</pdfrwt>
<pdfrwt beam="2">  1       -2 0.23668802E-01 0.45565728E+03</pdfrwt>
<totfact> 0.17854932E+03</totfact>
</mgrwt>
</event>
<event>
 4    1  0.2013882E-005  0.5315613E+03  0.7818608E-02  0.1005854E+00
         -2   -1    0    0    0  501 -0.00000000000E+00  0.00000000000E+00  0.11016078738E+03  0.11016078741E+03  0.25500000000E-02 0. -1.
          2   -1    0    0  501    0  0.00000000000E+00 -0.00000000000E+00 -0.64123862113E+03  0.64123862114E+03  0.25500000000E-02 0.  1.
    5000001    1    1    2    0    0  0.14608857291E+03 -0.86769004986E+02 -0.36453549574E+03  0.44566900164E+03  0.19200000000E+03 0.  0.
   -5000001    1    1    2    0    0 -0.14608857291E+03  0.86769004986E+02 -0.16654233800E+03  0.30573040691E+03  0.19200000000E+03 0.  0.
<mgrwt>
<rscale>  0 0.53156129E+03</rscale>
<asrwt>0</asrwt>
<pdfrwt beam="1">  1        2 0.91605516E-01 0.53156129E+03</pdfrwt>
<pdfrwt beam="2">  1       -2 0.15737256E-01 0.53156129E+03</pdfrwt>
<totfact> 0.16159673E+03</totfact>
</mgrwt>
</event>
<event>
 4    1  0.2013882E-005  0.4649957E+03  0.7818608E-02  0.1023342E+00
          2   -1    0    0  501    0  0.00000000000E+00  0.00000000000E+00  0.44122645870E+03  0.44122645871E+03  0.25500000000E-02 0.  1.
         -2   -1    0    0    0  501 -0.00000000000E+00 -0.00000000000E+00 -0.12251134385E+03  0.12251134388E+03  0.25500000000E-02 0. -1.
    5000001    1    1    2    0    0  0.70635419403E+02  0.10925489801E+03  0.17910254716E+03  0.29303193957E+03  0.19200000000E+03 0.  0.
   -5000001    1    1    2    0    0 -0.70635419403E+02 -0.10925489801E+03  0.13961256769E+03  0.27070586302E+03  0.19200000000E+03 0.  0.
<mgrwt>
<rscale>  0 0.46499568E+03</rscale>
<asrwt>0</asrwt>
<pdfrwt beam="1">  1        2 0.63032352E-01 0.46499568E+03</pdfrwt>
<pdfrwt beam="2">  1       -2 0.17501620E-01 0.46499568E+03</pdfrwt>
<totfact> 0.20694192E+03</totfact>
</mgrwt>
</event>
<event>
 4    1  0.2013882E-005  0.6580804E+03  0.7818608E-02  0.9791734E-01
          2   -1    0    0  501    0  0.00000000000E+00  0.00000000000E+00  0.33304199004E+04  0.33304199004E+04  0.25500000000E-02 0.  1.
         -2   -1    0    0    0  501 -0.00000000000E+00 -0.00000000000E+00 -0.32508652272E+02  0.32508652372E+02  0.25500000000E-02 0. -1.
    5000001    1    1    2    0    0  0.27313552157E+01  0.25927384524E+03  0.19790717858E+04  0.20051981250E+04  0.19200000000E+03 0.  0.
   -5000001    1    1    2    0    0 -0.27313552157E+01 -0.25927384524E+03  0.13188394623E+04  0.13577304278E+04  0.19200000000E+03 0.  0.
<mgrwt>
<rscale>  0 0.65808043E+03</rscale>
<asrwt>0</asrwt>
<pdfrwt beam="1">  1        2 0.47577417E+00 0.65808043E+03</pdfrwt>
<pdfrwt beam="2">  1       -2 0.46440942E-02 0.65808043E+03</pdfrwt>
<totfact> 0.37692950E+02</totfact>
</mgrwt>
</event>
<event>
 4    1  0.2013882E-005  0.5220316E+03  0.7818608E-02  0.1008183E+00
         -2   -1    0    0    0  501 -0.00000000000E+00  0.00000000000E+00  0.13952843122E+03  0.13952843125E+03  0.25500000000E-02 0. -1.
          2   -1    0    0  501    0  0.00000000000E+00 -0.00000000000E+00 -0.48828211009E+03  0.48828211009E+03  0.25500000000E-02 0.  1.
    5000001    1    1    2    0    0 -0.10089816176E+03  0.13475636619E+03 -0.10932892931E+03  0.27777064650E+03  0.19200000000E+03 0.  0.
   -5000001    1    1    2    0    0  0.10089816176E+03 -0.13475636619E+03 -0.23942474956E+03  0.35003989483E+03  0.19200000000E+03 0.  0.
<mgrwt>
<rscale>  0 0.52203156E+03</rscale>
<asrwt>0</asrwt>
<pdfrwt beam="1">  1        2 0.69754586E-01 0.52203156E+03</pdfrwt>
<pdfrwt beam="2">  1       -2 0.19932633E-01 0.52203156E+03</pdfrwt>
<totfact> 0.14781221E+03</totfact>
</mgrwt>
</event>
<event>
 4    1  0.2013882E-005  0.9273928E+03  0.7818608E-02  0.9391972E-01
         -2   -1    0    0    0  501 -0.00000000000E+00  0.00000000000E+00  0.24554212338E+03  0.24554212340E+03  0.25500000000E-02 0.  1.
          2   -1    0    0  501    0  0.00000000000E+00 -0.00000000000E+00 -0.87567200187E+03  0.87567200188E+03  0.25500000000E-02 0. -1.
    5000001    1    1    2    0    0 -0.36206033777E+03 -0.17870806159E+03 -0.16637268018E+03  0.47704101309E+03  0.19200000000E+03 0.  0.
   -5000001    1    1    2    0    0  0.36206033777E+03  0.17870806159E+03 -0.46375719831E+03  0.64417311218E+03  0.19200000000E+03 0.  0.
<mgrwt>
<rscale>  0 0.92739282E+03</rscale>
<asrwt>0</asrwt>
<pdfrwt beam="1">  1        2 0.12509600E+00 0.92739282E+03</pdfrwt>
<pdfrwt beam="2">  1       -2 0.35077447E-01 0.92739282E+03</pdfrwt>
<totfact> 0.25723750E+02</totfact>
</mgrwt>
</event>
<event>
 4    1  0.2013882E-005  0.9820729E+03  0.7818608E-02  0.9328428E-01
         -2   -1    0    0    0  501 -0.00000000000E+00  0.00000000000E+00  0.11014794095E+03  0.11014794098E+03  0.25500000000E-02 0. -1.
          2   -1    0    0  501    0  0.00000000000E+00 -0.00000000000E+00 -0.21890267126E+04  0.21890267126E+04  0.25500000000E-02 0.  1.
    5000001    1    1    2    0    0 -0.10871566665E+03  0.23776559563E+03 -0.19024972371E+04  0.19299511165E+04  0.19200000000E+03 0.  0.
   -5000001    1    1    2    0    0  0.10871566665E+03 -0.23776559563E+03 -0.17638153450E+03  0.36922353711E+03  0.19200000000E+03 0.  0.
<mgrwt>
<rscale>  0 0.98207288E+03</rscale>
<asrwt>0</asrwt>
<pdfrwt beam="1">  1        2 0.31271808E+00 0.98207288E+03</pdfrwt>
<pdfrwt beam="2">  1       -2 0.15735421E-01 0.98207288E+03</pdfrwt>
<totfact> 0.20828528E+02</totfact>
</mgrwt>
</event>
<event>
 4    1  0.2013882E-005  0.4881291E+03  0.7818608E-02  0.1016925E+00
         -2   -1    0    0    0  501 -0.00000000000E+00  0.00000000000E+00  0.17582006746E+03  0.17582006748E+03  0.25500000000E-02 0. -1.
          2   -1    0    0  501    0  0.00000000000E+00 -0.00000000000E+00 -0.33879811450E+03  0.33879811451E+03  0.25500000000E-02 0.  1.
    5000001    1    1    2    0    0  0.66007222423E+02 -0.13488562130E+03 -0.94504972031E+02  0.26143120316E+03  0.19200000000E+03 0.  0.
   -5000001    1    1    2    0    0 -0.66007222423E+02  0.13488562130E+03 -0.68473075008E+02  0.25318697882E+03  0.19200000000E+03 0.  0.
<mgrwt>
<rscale>  0 0.48812911E+03</rscale>
<asrwt>0</asrwt>
<pdfrwt beam="1">  1        2 0.48399730E-01 0.48812911E+03</pdfrwt>
<pdfrwt beam="2">  1       -2 0.25117153E-01 0.48812911E+03</pdfrwt>
<totfact> 0.14750420E+03</totfact>
</mgrwt>
</event>
<event>
 4    1  0.2013882E-005  0.5930420E+03  0.7818608E-02  0.9919948E-01
          2   -1    0    0  501    0  0.00000000000E+00  0.00000000000E+00  0.66802856085E+03  0.66802856086E+03  0.25500000000E-02 0.  1.
         -2   -1    0    0    0  501 -0.00000000000E+00 -0.00000000000E+00 -0.13161817043E+03  0.13161817046E+03  0.25500000000E-02 0. -1.
    5000001    1    1    2    0    0 -0.20298680367E+03 -0.25277223123E+02  0.13874572449E+03  0.31298076065E+03  0.19200000000E+03 0.  0.
   -5000001    1    1    2    0    0  0.20298680367E+03  0.25277223123E+02  0.39766466593E+03  0.48666597067E+03  0.19200000000E+03 0.  0.
<mgrwt>
<rscale>  0 0.59304198E+03</rscale>
<asrwt>0</asrwt>
<pdfrwt beam="1">  1        2 0.95432652E-01 0.59304198E+03</pdfrwt>
<pdfrwt beam="2">  1       -2 0.18802596E-01 0.59304198E+03</pdfrwt>
<totfact> 0.11350643E+03</totfact>
</mgrwt>
</event>
<event>
 4    1  0.2013882E-005  0.6266225E+03  0.7818608E-02  0.9851662E-01
         -2   -1    0    0    0  501 -0.00000000000E+00  0.00000000000E+00  0.17868045776E+03  0.17868045778E+03  0.25500000000E-02 0. -1.
          2   -1    0    0  501    0  0.00000000000E+00 -0.00000000000E+00 -0.54938261617E+03  0.54938261617E+03  0.25500000000E-02 0.  1.
    5000001    1    1    2    0    0  0.19018347880E+03 -0.97229657240E+02 -0.33082616555E+03  0.43810194438E+03  0.19200000000E+03 0.  0.
   -5000001    1    1    2    0    0 -0.19018347880E+03  0.97229657240E+02 -0.39875992863E+02  0.28996112957E+03  0.19200000000E+03 0.  0.
<mgrwt>
<rscale>  0 0.62662249E+03</rscale>
<asrwt>0</asrwt>
<pdfrwt beam="1">  1        2 0.78483230E-01 0.62662249E+03</pdfrwt>
<pdfrwt beam="2">  1       -2 0.25525780E-01 0.62662249E+03</pdfrwt>
<totfact> 0.83347275E+02</totfact>
</mgrwt>
</event>
<event>
 4    1  0.2013882E-005  0.4739501E+03  0.7818608E-02  0.1020811E+00
         -2   -1    0    0    0  501 -0.00000000000E+00  0.00000000000E+00  0.45898750475E+02  0.45898750545E+02  0.25500000000E-02 0. -1.
          2   -1    0    0  501    0  0.00000000000E+00 -0.00000000000E+00 -0.12235013973E+04  0.12235013973E+04  0.25500000000E-02 0.  1.
    5000001    1    1    2    0    0  0.10266760377E+03  0.88836614691E-01 -0.83937356046E+03  0.86715201594E+03  0.19200000000E+03 0.  0.
   -5000001    1    1    2    0    0 -0.10266760377E+03 -0.88836614691E-01 -0.33822908637E+03  0.40224813191E+03  0.19200000000E+03 0.  0.
<mgrwt>
<rscale>  0 0.47395015E+03</rscale>
<asrwt>0</asrwt>
<pdfrwt beam="1">  1        2 0.17478589E+00 0.47395015E+03</pdfrwt>
<pdfrwt beam="2">  1       -2 0.65569651E-02 0.47395015E+03</pdfrwt>
<totfact> 0.28125683E+03</totfact>
</mgrwt>
</event>
<event>
 4    1  0.2013882E-005  0.6685997E+03  0.7818608E-02  0.9772491E-01
          2   -1    0    0  501    0  0.00000000000E+00  0.00000000000E+00  0.27740216451E+04  0.27740216451E+04  0.25500000000E-02 0.  1.
         -2   -1    0    0    0  501 -0.00000000000E+00 -0.00000000000E+00 -0.40286773688E+02  0.40286773768E+02  0.25500000000E-02 0. -1.
    5000001    1    1    2    0    0  0.12657898079E+03 -0.22734958885E+03  0.17235957253E+04  0.17536693811E+04  0.19200000000E+03 0.  0.
   -5000001    1    1    2    0    0 -0.12657898079E+03  0.22734958885E+03  0.10101391460E+04  0.10606390377E+04  0.19200000000E+03 0.  0.
<mgrwt>
<rscale>  0 0.66859968E+03</rscale>
<asrwt>0</asrwt>
<pdfrwt beam="1">  1        2 0.39628892E+00 0.66859968E+03</pdfrwt>
<pdfrwt beam="2">  1       -2 0.57552517E-02 0.66859968E+03</pdfrwt>
<totfact> 0.54607387E+02</totfact>
</mgrwt>
</event>
<event>
 4    1  0.2013882E-005  0.7307943E+03  0.7818608E-02  0.9665972E-01
          2   -1    0    0  501    0  0.00000000000E+00  0.00000000000E+00  0.66792915570E+03  0.66792915571E+03  0.25500000000E-02 0.  1.
         -2   -1    0    0    0  501 -0.00000000000E+00 -0.00000000000E+00 -0.19989404391E+03  0.19989404392E+03  0.25500000000E-02 0. -1.
    5000001    1    1    2    0    0 -0.24988122012E+03 -0.10161088987E+03  0.41754659126E+03  0.53289262800E+03  0.19200000000E+03 0.  0.
   -5000001    1    1    2    0    0  0.24988122012E+03  0.10161088987E+03  0.50488520539E+02  0.33493057163E+03  0.19200000000E+03 0.  0.
<mgrwt>
<rscale>  0 0.73079425E+03</rscale>
<asrwt>0</asrwt>
<pdfrwt beam="1">  1        2 0.95418452E-01 0.73079425E+03</pdfrwt>
<pdfrwt beam="2">  1       -2 0.28556292E-01 0.73079425E+03</pdfrwt>
<totfact> 0.53779134E+02</totfact>
</mgrwt>
</event>
<event>
 4    1  0.2013882E-005  0.5930933E+03  0.7818608E-02  0.9919840E-01
          2   -1    0    0  501    0  0.00000000000E+00  0.00000000000E+00  0.21190989971E+04  0.21190989971E+04  0.25500000000E-02 0.  1.
         -2   -1    0    0    0  501 -0.00000000000E+00 -0.00000000000E+00 -0.41498724271E+02  0.41498724349E+02  0.25500000000E-02 0. -1.
    5000001    1    1    2    0    0  0.16297427018E+03  0.15275380102E+03  0.91357820651E+03  0.95988722040E+03  0.19200000000E+03 0.  0.
   -5000001    1    1    2    0    0 -0.16297427018E+03 -0.15275380102E+03  0.11640220663E+04  0.12007105011E+04  0.19200000000E+03 0.  0.
<mgrwt>
<rscale>  0 0.59309326E+03</rscale>
<asrwt>0</asrwt>
<pdfrwt beam="1">  1        2 0.30272852E+00 0.59309326E+03</pdfrwt>
<pdfrwt beam="2">  1       -2 0.59283873E-02 0.59309326E+03</pdfrwt>
<totfact> 0.11365480E+03</totfact>
</mgrwt>
</event>
<event>
 4    1  0.2013882E-005  0.9129906E+03  0.7818608E-02  0.9409487E-01
         -2   -1    0    0    0  501 -0.00000000000E+00  0.00000000000E+00  0.13900581354E+03  0.13900581357E+03  0.25500000000E-02 0. -1.
          2   -1    0    0  501    0  0.00000000000E+00 -0.00000000000E+00 -0.14991313224E+04  0.14991313224E+04  0.25500000000E-02 0.  1.
    5000001    1    1    2    0    0  0.36017578183E+03 -0.18565996959E+03 -0.52647050880E+03  0.69154277869E+03  0.19200000000E+03 0.  0.
   -5000001    1    1    2    0    0 -0.36017578183E+03  0.18565996959E+03 -0.83365500009E+03  0.94659435732E+03  0.19200000000E+03 0.  0.
<mgrwt>
<rscale>  0 0.91299062E+03</rscale>
<asrwt>0</asrwt>
<pdfrwt beam="1">  1        2 0.21416161E+00 0.91299062E+03</pdfrwt>
<pdfrwt beam="2">  1       -2 0.19857974E-01 0.91299062E+03</pdfrwt>
<totfact> 0.31672195E+02</totfact>
</mgrwt>
</event>
<event>
 4    1  0.2013882E-005  0.6735967E+03  0.7818608E-02  0.9763482E-01
         -2   -1    0    0    0  501 -0.00000000000E+00  0.00000000000E+00  0.78275489993E+02  0.78275490035E+02  0.25500000000E-02 0. -1.
          2   -1    0    0  501    0  0.00000000000E+00 -0.00000000000E+00 -0.14491526870E+04  0.14491526870E+04  0.25500000000E-02 0.  1.
    5000001    1    1    2    0    0 -0.20598020339E+02  0.25572955314E+03 -0.92051529872E+03  0.97469702881E+03  0.19200000000E+03 0.  0.
   -5000001    1    1    2    0    0  0.20598020339E+02 -0.25572955314E+03 -0.45036189829E+03  0.55273114823E+03  0.19200000000E+03 0.  0.
<mgrwt>
<rscale>  0 0.67359672E+03</rscale>
<asrwt>0</asrwt>
<pdfrwt beam="1">  1        2 0.20702180E+00 0.67359672E+03</pdfrwt>
<pdfrwt beam="2">  1       -2 0.11182214E-01 0.67359672E+03</pdfrwt>
<totfact> 0.90020097E+02</totfact>
</mgrwt>
</event>
<event>
 4    1  0.2013882E-005  0.5980287E+03  0.7818608E-02  0.9909504E-01
         -2   -1    0    0    0  501 -0.00000000000E+00  0.00000000000E+00  0.79478793783E+02  0.79478793824E+02  0.25500000000E-02 0. -1.
          2   -1    0    0  501    0  0.00000000000E+00 -0.00000000000E+00 -0.11249489160E+04  0.11249489160E+04  0.25500000000E-02 0.  1.
    5000001    1    1    2    0    0  0.20394181448E+03  0.34203145061E+02 -0.72194226361E+03  0.77513015089E+03  0.19200000000E+03 0.  0.
   -5000001    1    1    2    0    0 -0.20394181448E+03 -0.34203145061E+02 -0.32352785863E+03  0.42929755897E+03  0.19200000000E+03 0.  0.
<mgrwt>
<rscale>  0 0.59802870E+03</rscale>
<asrwt>0</asrwt>
<pdfrwt beam="1">  1        2 0.16070698E+00 0.59802870E+03</pdfrwt>
<pdfrwt beam="2">  1       -2 0.11354114E-01 0.59802870E+03</pdfrwt>
<totfact> 0.13256725E+03</totfact>
</mgrwt>
</event>
<event>
 4    1  0.2013882E-005  0.5542628E+03  0.7818608E-02  0.1000512E+00
          2   -1    0    0  501    0  0.00000000000E+00  0.00000000000E+00  0.29802568400E+04  0.29802568400E+04  0.25500000000E-02 0.  1.
         -2   -1    0    0    0  501 -0.00000000000E+00 -0.00000000000E+00 -0.25770203793E+02  0.25770203919E+02  0.25500000000E-02 0. -1.
    5000001    1    1    2    0    0 -0.16704967412E+03 -0.93310805893E+02  0.17899911017E+04  0.18103990291E+04  0.19200000000E+03 0.  0.
   -5000001    1    1    2    0    0  0.16704967412E+03  0.93310805893E+02  0.11644955345E+04  0.11956280149E+04  0.19200000000E+03 0.  0.
<mgrwt>
<rscale>  0 0.55426285E+03</rscale>
<asrwt>0</asrwt>
<pdfrwt beam="1">  1        2 0.42575061E+00 0.55426285E+03</pdfrwt>
<pdfrwt beam="2">  1       -2 0.36814608E-02 0.55426285E+03</pdfrwt>
<totfact> 0.85395685E+02</totfact>
</mgrwt>
</event>
<event>
 4    1  0.2013882E-005  0.5824278E+03  0.7818608E-02  0.9942549E-01
          2   -1    0    0  501    0  0.00000000000E+00  0.00000000000E+00  0.17443864230E+03  0.17443864232E+03  0.25500000000E-02 0.  1.
         -2   -1    0    0    0  501 -0.00000000000E+00 -0.00000000000E+00 -0.48616247276E+03  0.48616247277E+03  0.25500000000E-02 0. -1.
    5000001    1    1    2    0    0  0.10313129073E+02  0.21528563854E+03 -0.11212079049E+03  0.30966003690E+03  0.19200000000E+03 0.  0.
   -5000001    1    1    2    0    0 -0.10313129073E+02 -0.21528563854E+03 -0.19960303998E+03  0.35094107819E+03  0.19200000000E+03 0.  0.
<mgrwt>
<rscale>  0 0.58242775E+03</rscale>
<asrwt>0</asrwt>
<pdfrwt beam="1">  1        2 0.24919806E-01 0.58242775E+03</pdfrwt>
<pdfrwt beam="2">  1       -2 0.69451781E-01 0.58242775E+03</pdfrwt>
<totfact> 0.41985599E+02</totfact>
</mgrwt>
</event>
<event>
 4    1  0.2013882E-005  0.6640616E+03  0.7818608E-02  0.9780746E-01
          2   -1    0    0  501    0  0.00000000000E+00  0.00000000000E+00  0.29639616072E+03  0.29639616073E+03  0.25500000000E-02 0.  1.
         -2   -1    0    0    0  501 -0.00000000000E+00 -0.00000000000E+00 -0.37194961068E+03  0.37194961069E+03  0.25500000000E-02 0. -1.
    5000001    1    1    2    0    0 -0.16406409546E+03 -0.21340653428E+03 -0.72319521306E+01  0.33071993805E+03  0.19200000000E+03 0.  0.
   -5000001    1    1    2    0    0  0.16406409546E+03  0.21340653428E+03 -0.68321497832E+02  0.33762583337E+03  0.19200000000E+03 0.  0.
<mgrwt>
<rscale>  0 0.66406155E+03</rscale>
<asrwt>0</asrwt>
<pdfrwt beam="1">  1        2 0.42342309E-01 0.66406155E+03</pdfrwt>
<pdfrwt beam="2">  1       -2 0.53135658E-01 0.66406155E+03</pdfrwt>
<totfact> 0.40711435E+02</totfact>
</mgrwt>
</event>
<event>
 4    1  0.2013882E-005  0.5807967E+03  0.7818608E-02  0.9946068E-01
          2   -1    0    0  501    0  0.00000000000E+00  0.00000000000E+00  0.16113706774E+04  0.16113706774E+04  0.25500000000E-02 0.  1.
         -2   -1    0    0    0  501 -0.00000000000E+00 -0.00000000000E+00 -0.52335079602E+02  0.52335079664E+02  0.25500000000E-02 0. -1.
    5000001    1    1    2    0    0  0.18606678232E+03  0.10819597952E+03  0.68280056369E+03  0.74122049840E+03  0.19200000000E+03 0.  0.
   -5000001    1    1    2    0    0 -0.18606678232E+03 -0.10819597952E+03  0.87623503414E+03  0.92248525870E+03  0.19200000000E+03 0.  0.
<mgrwt>
<rscale>  0 0.58079674E+03</rscale>
<asrwt>0</asrwt>
<pdfrwt beam="1">  1        2 0.23019579E+00 0.58079674E+03</pdfrwt>
<pdfrwt beam="2">  1       -2 0.74764407E-02 0.58079674E+03</pdfrwt>
<totfact> 0.14235269E+03</totfact>
</mgrwt>
</event>
<event>
 4    1  0.2013882E-005  0.7350596E+03  0.7818608E-02  0.9659085E-01
          2   -1    0    0  501    0  0.00000000000E+00  0.00000000000E+00  0.32314081120E+03  0.32314081121E+03  0.25500000000E-02 0.  1.
         -2   -1    0    0    0  501 -0.00000000000E+00 -0.00000000000E+00 -0.41801640022E+03  0.41801640023E+03  0.25500000000E-02 0. -1.
    5000001    1    1    2    0    0  0.18446013554E+03 -0.58494930679E+02  0.20111664966E+03  0.33876113308E+03  0.19200000000E+03 0.  0.
   -5000001    1    1    2    0    0 -0.18446013554E+03  0.58494930679E+02 -0.29599223868E+03  0.40239607836E+03  0.19200000000E+03 0.  0.
<mgrwt>
<rscale>  0 0.73505961E+03</rscale>
<asrwt>0</asrwt>
<pdfrwt beam="1">  1        2 0.46162973E-01 0.73505961E+03</pdfrwt>
<pdfrwt beam="2">  1       -2 0.59716628E-01 0.73505961E+03</pdfrwt>
<totfact> 0.28960949E+02</totfact>
</mgrwt>
</event>
<event>
 4    1  0.2013882E-005  0.3907807E+03  0.7818608E-02  0.1047020E+00
          2   -1    0    0  501    0  0.00000000000E+00  0.00000000000E+00  0.47769640488E+03  0.47769640489E+03  0.25500000000E-02 0.  1.
         -2   -1    0    0    0  501 -0.00000000000E+00 -0.00000000000E+00 -0.79919772077E+02  0.79919772118E+02  0.25500000000E-02 0. -1.
    5000001    1    1    2    0    0  0.33804528510E+02  0.99503115595E+01  0.18681132577E+03  0.27019294270E+03  0.19200000000E+03 0.  0.
   -5000001    1    1    2    0    0 -0.33804528510E+02 -0.99503115595E+01  0.21096530703E+03  0.28742323431E+03  0.19200000000E+03 0.  0.
<mgrwt>
<rscale>  0 0.39078069E+03</rscale>
<asrwt>0</asrwt>
<pdfrwt beam="1">  1        2 0.68242344E-01 0.39078069E+03</pdfrwt>
<pdfrwt beam="2">  1       -2 0.11417110E-01 0.39078069E+03</pdfrwt>
<totfact> 0.38418045E+03</totfact>
</mgrwt>
</event>
<event>
 4    1  0.2013882E-005  0.6259642E+03  0.7818608E-02  0.9852956E-01
          2   -1    0    0  501    0  0.00000000000E+00  0.00000000000E+00  0.37410511948E+04  0.37410511949E+04  0.25500000000E-02 0.  1.
         -2   -1    0    0    0  501 -0.00000000000E+00 -0.00000000000E+00 -0.26184559953E+02  0.26184560077E+02  0.25500000000E-02 0. -1.
    5000001    1    1    2    0    0 -0.24055590500E+03 -0.17667251318E+02  0.21823377903E+04  0.22040057863E+04  0.19200000000E+03 0.  0.
   -5000001    1    1    2    0    0  0.24055590500E+03  0.17667251318E+02  0.15325288446E+04  0.15632299686E+04  0.19200000000E+03 0.  0.
<mgrwt>
<rscale>  0 0.62596415E+03</rscale>
<asrwt>0</asrwt>
<pdfrwt beam="1">  1        2 0.53443600E+00 0.62596415E+03</pdfrwt>
<pdfrwt beam="2">  1       -2 0.37406506E-02 0.62596415E+03</pdfrwt>
<totfact> 0.29946540E+02</totfact>
</mgrwt>
</event>
<event>
 4    1  0.2013882E-005  0.7616898E+03  0.7818608E-02  0.9617187E-01
         -2   -1    0    0    0  501 -0.00000000000E+00  0.00000000000E+00  0.11035111996E+03  0.11035111999E+03  0.25500000000E-02 0. -1.
          2   -1    0    0  501    0  0.00000000000E+00 -0.00000000000E+00 -0.13143756426E+04  0.13143756426E+04  0.25500000000E-02 0.  1.
    5000001    1    1    2    0    0 -0.26606171502E+03  0.12676110120E+03 -0.87513853100E+03  0.94318007900E+03  0.19200000000E+03 0.  0.
   -5000001    1    1    2    0    0  0.26606171502E+03 -0.12676110120E+03 -0.32888599159E+03  0.48154668355E+03  0.19200000000E+03 0.  0.
<mgrwt>
<rscale>  0 0.76168976E+03</rscale>
<asrwt>0</asrwt>
<pdfrwt beam="1">  1        2 0.18776794E+00 0.76168976E+03</pdfrwt>
<pdfrwt beam="2">  1       -2 0.15764447E-01 0.76168976E+03</pdfrwt>
<totfact> 0.59720728E+02</totfact>
</mgrwt>
</event>
<event>
 4    1  0.2013882E-005  0.5997133E+03  0.7818608E-02  0.9906001E-01
          2   -1    0    0  501    0  0.00000000000E+00  0.00000000000E+00  0.46491829282E+03  0.46491829283E+03  0.25500000000E-02 0.  1.
         -2   -1    0    0    0  501 -0.00000000000E+00 -0.00000000000E+00 -0.19339742578E+03  0.19339742580E+03  0.25500000000E-02 0. -1.
    5000001    1    1    2    0    0  0.10485259113E+03 -0.20449032373E+03  0.11876733226E+03  0.32214909216E+03  0.19200000000E+03 0.  0.
   -5000001    1    1    2    0    0 -0.10485259113E+03  0.20449032373E+03  0.15275353478E+03  0.33616662647E+03  0.19200000000E+03 0.  0.
<mgrwt>
<rscale>  0 0.59971327E+03</rscale>
<asrwt>0</asrwt>
<pdfrwt beam="1">  1        2 0.66416899E-01 0.59971327E+03</pdfrwt>
<pdfrwt beam="2">  1       -2 0.27628204E-01 0.59971327E+03</pdfrwt>
<totfact> 0.87398668E+02</totfact>
</mgrwt>
</event>
<event>
 4    1  0.2013882E-005  0.7430694E+03  0.7818608E-02  0.9646287E-01
          2   -1    0    0  501    0  0.00000000000E+00  0.00000000000E+00  0.34301365093E+03  0.34301365094E+03  0.25500000000E-02 0.  1.
         -2   -1    0    0    0  501 -0.00000000000E+00 -0.00000000000E+00 -0.40242722465E+03  0.40242722465E+03  0.25500000000E-02 0. -1.
    5000001    1    1    2    0    0  0.32656771723E+02  0.93080409317E+02 -0.33306831016E+03  0.39689913904E+03  0.19200000000E+03 0.  0.
   -5000001    1    1    2    0    0 -0.32656771723E+02 -0.93080409317E+02  0.27365473645E+03  0.34854173655E+03  0.19200000000E+03 0.  0.
<mgrwt>
<rscale>  0 0.74306940E+03</rscale>
<asrwt>0</asrwt>
<pdfrwt beam="1">  1        2 0.49001950E-01 0.74306940E+03</pdfrwt>
<pdfrwt beam="2">  1       -2 0.57489603E-01 0.74306940E+03</pdfrwt>
<totfact> 0.29347769E+02</totfact>
</mgrwt>
</event>
<event>
 4    1  0.2013882E-005  0.4906241E+03  0.7818608E-02  0.1016256E+00
          2   -1    0    0  501    0  0.00000000000E+00  0.00000000000E+00  0.41527954497E+03  0.41527954497E+03  0.25500000000E-02 0.  1.
         -2   -1    0    0    0  501 -0.00000000000E+00 -0.00000000000E+00 -0.14490961894E+03  0.14490961896E+03  0.25500000000E-02 0. -1.
    5000001    1    1    2    0    0 -0.11588623087E+03 -0.54978063929E+02  0.40603791745E+02  0.23444588698E+03  0.19200000000E+03 0.  0.
   -5000001    1    1    2    0    0  0.11588623087E+03  0.54978063929E+02  0.22976613428E+03  0.32574327695E+03  0.19200000000E+03 0.  0.
<mgrwt>
<rscale>  0 0.49062409E+03</rscale>
<asrwt>0</asrwt>
<pdfrwt beam="1">  1        2 0.59325649E-01 0.49062409E+03</pdfrwt>
<pdfrwt beam="2">  1       -2 0.20701374E-01 0.49062409E+03</pdfrwt>
<totfact> 0.16581588E+03</totfact>
</mgrwt>
</event>
<event>
 4    1  0.2013882E-005  0.6132740E+03  0.7818608E-02  0.9878243E-01
          2   -1    0    0  501    0  0.00000000000E+00  0.00000000000E+00  0.49084388547E+03  0.49084388548E+03  0.25500000000E-02 0.  1.
         -2   -1    0    0    0  501 -0.00000000000E+00 -0.00000000000E+00 -0.19156040238E+03  0.19156040240E+03  0.25500000000E-02 0. -1.
    5000001    1    1    2    0    0  0.58456705141E+02  0.21797356326E+03  0.23748764668E+03  0.37972890722E+03  0.19200000000E+03 0.  0.
   -5000001    1    1    2    0    0 -0.58456705141E+02 -0.21797356326E+03  0.61795836410E+02  0.30267538065E+03  0.19200000000E+03 0.  0.
<mgrwt>
<rscale>  0 0.61327401E+03</rscale>
<asrwt>0</asrwt>
<pdfrwt beam="1">  1        2 0.70120555E-01 0.61327401E+03</pdfrwt>
<pdfrwt beam="2">  1       -2 0.27365772E-01 0.61327401E+03</pdfrwt>
<totfact> 0.83620610E+02</totfact>
</mgrwt>
</event>
<event>
 4    1  0.2013882E-005  0.5186674E+03  0.7818608E-02  0.1009018E+00
         -2   -1    0    0    0  501 -0.00000000000E+00  0.00000000000E+00  0.37842918584E+03  0.37842918585E+03  0.25500000000E-02 0.  1.
          2   -1    0    0  501    0  0.00000000000E+00 -0.00000000000E+00 -0.17771876907E+03  0.17771876909E+03  0.25500000000E-02 0. -1.
    5000001    1    1    2    0    0  0.54487721681E+02 -0.84530839325E+02  0.25303733040E+03  0.33317602733E+03  0.19200000000E+03 0.  0.
   -5000001    1    1    2    0    0 -0.54487721681E+02  0.84530839325E+02 -0.52326913631E+02  0.22297192761E+03  0.19200000000E+03 0.  0.
<mgrwt>
<rscale>  0 0.51866740E+03</rscale>
<asrwt>0</asrwt>
<pdfrwt beam="1">  1        2 0.25388396E-01 0.51866740E+03</pdfrwt>
<pdfrwt beam="2">  1       -2 0.54061311E-01 0.51866740E+03</pdfrwt>
<totfact> 0.69772238E+02</totfact>
</mgrwt>
</event>
<event>
 4    1  0.2013882E-005  0.1068543E+04  0.7818608E-02  0.9236406E-01
          2   -1    0    0  501    0  0.00000000000E+00  0.00000000000E+00  0.22868712459E+04  0.22868712459E+04  0.25500000000E-02 0.  1.
         -2   -1    0    0    0  501 -0.00000000000E+00 -0.00000000000E+00 -0.12481944820E+03  0.12481944823E+03  0.25500000000E-02 0. -1.
    5000001    1    1    2    0    0 -0.19180530240E+03 -0.45353717876E+03  0.12572556360E+04  0.13638331939E+04  0.19200000000E+03 0.  0.
   -5000001    1    1    2    0    0  0.19180530240E+03  0.45353717876E+03  0.90479616169E+03  0.10478575002E+04  0.19200000000E+03 0.  0.
<mgrwt>
<rscale>  0 0.10685429E+04</rscale>
<asrwt>0</asrwt>
<pdfrwt beam="1">  1        2 0.32669589E+00 0.10685429E+04</pdfrwt>
<pdfrwt beam="2">  1       -2 0.17831350E-01 0.10685429E+04</pdfrwt>
<totfact> 0.14871685E+02</totfact>
</mgrwt>
</event>
<event>
 4    1  0.2013882E-005  0.1141945E+04  0.7818608E-02  0.9165247E-01
          2   -1    0    0  501    0  0.00000000000E+00  0.00000000000E+00  0.11692531714E+04  0.11692531714E+04  0.25500000000E-02 0.  1.
         -2   -1    0    0    0  501 -0.00000000000E+00 -0.00000000000E+00 -0.27881864496E+03  0.27881864497E+03  0.25500000000E-02 0. -1.
    5000001    1    1    2    0    0  0.95883381618E+02  0.45383600318E+03  0.79013561555E+03  0.93612981558E+03  0.19200000000E+03 0.  0.
   -5000001    1    1    2    0    0 -0.95883381618E+02 -0.45383600318E+03  0.10029891089E+03  0.51194200080E+03  0.19200000000E+03 0.  0.
<mgrwt>
<rscale>  0 0.11419450E+04</rscale>
<asrwt>0</asrwt>
<pdfrwt beam="1">  1        2 0.16703617E+00 0.11419450E+04</pdfrwt>
<pdfrwt beam="2">  1       -2 0.39831235E-01 0.11419450E+04</pdfrwt>
<totfact> 0.13131633E+02</totfact>
</mgrwt>
</event>
<event>
 4    1  0.2013882E-005  0.5305782E+03  0.7818608E-02  0.1006092E+00
         -2   -1    0    0    0  501 -0.00000000000E+00  0.00000000000E+00  0.17493469685E+02  0.17493469871E+02  0.25500000000E-02 0. -1.
          2   -1    0    0  501    0  0.00000000000E+00 -0.00000000000E+00 -0.40231193280E+04  0.40231193280E+04  0.25500000000E-02 0.  1.
    5000001    1    1    2    0    0  0.46788237229E+02 -0.14536450376E+03 -0.27717261410E+04  0.27825617296E+04  0.19200000000E+03 0.  0.
   -5000001    1    1    2    0    0 -0.46788237229E+02  0.14536450376E+03 -0.12338997173E+04  0.12580510683E+04  0.19200000000E+03 0.  0.
<mgrwt>
<rscale>  0 0.53057824E+03</rscale>
<asrwt>0</asrwt>
<pdfrwt beam="1">  1        2 0.57473074E+00 0.53057824E+03</pdfrwt>
<pdfrwt beam="2">  1       -2 0.24990697E-02 0.53057824E+03</pdfrwt>
<totfact> 0.36809916E+02</totfact>
</mgrwt>
</event>
<event>
 4    1  0.2013882E-005  0.9599658E+03  0.7818608E-02  0.9353577E-01
         -2   -1    0    0    0  501 -0.00000000000E+00  0.00000000000E+00  0.13939509905E+03  0.13939509907E+03  0.25500000000E-02 0. -1.
          2   -1    0    0  501    0  0.00000000000E+00 -0.00000000000E+00 -0.16527380360E+04  0.16527380360E+04  0.25500000000E-02 0.  1.
    5000001    1    1    2    0    0  0.22080725465E+03  0.25174214642E+03 -0.22407406071E+03  0.44632178602E+03  0.19200000000E+03 0.  0.
   -5000001    1    1    2    0    0 -0.22080725465E+03 -0.25174214642E+03 -0.12892688762E+04  0.13458113490E+04  0.19200000000E+03 0.  0.
<mgrwt>
<rscale>  0 0.95996580E+03</rscale>
<asrwt>0</asrwt>
<pdfrwt beam="1">  1        2 0.23610542E+00 0.95996580E+03</pdfrwt>
<pdfrwt beam="2">  1       -2 0.19913587E-01 0.95996580E+03</pdfrwt>
<totfact> 0.26121519E+02</totfact>
</mgrwt>
</event>
<event>
 4    1  0.2013882E-005  0.7882691E+03  0.7818608E-02  0.9577154E-01
          2   -1    0    0  501    0  0.00000000000E+00  0.00000000000E+00  0.43007238070E+03  0.43007238070E+03  0.25500000000E-02 0.  1.
         -2   -1    0    0    0  501 -0.00000000000E+00 -0.00000000000E+00 -0.36119975610E+03  0.36119975611E+03  0.25500000000E-02 0. -1.
    5000001    1    1    2    0    0 -0.23376047256E+03  0.18559756277E+03 -0.13764496570E+03  0.38065804920E+03  0.19200000000E+03 0.  0.
   -5000001    1    1    2    0    0  0.23376047256E+03 -0.18559756277E+03  0.20651759030E+03  0.41061408761E+03  0.19200000000E+03 0.  0.
<mgrwt>
<rscale>  0 0.78826909E+03</rscale>
<asrwt>0</asrwt>
<pdfrwt beam="1">  1        2 0.61438911E-01 0.78826909E+03</pdfrwt>
<pdfrwt beam="2">  1       -2 0.51599965E-01 0.78826909E+03</pdfrwt>
<totfact> 0.28467516E+02</totfact>
</mgrwt>
</event>
<event>
 4    1  0.2013882E-005  0.4837819E+03  0.7818608E-02  0.1018101E+00
         -2   -1    0    0    0  501 -0.00000000000E+00  0.00000000000E+00  0.36161107563E+02  0.36161107652E+02  0.25500000000E-02 0. -1.
          2   -1    0    0  501    0  0.00000000000E+00 -0.00000000000E+00 -0.16180706045E+04  0.16180706045E+04  0.25500000000E-02 0.  1.
    5000001    1    1    2    0    0  0.69398587419E+01 -0.13940325372E+03 -0.63182346337E+03  0.67494171426E+03  0.19200000000E+03 0.  0.
   -5000001    1    1    2    0    0 -0.69398587419E+01  0.13940325372E+03 -0.95008603352E+03  0.97928999785E+03  0.19200000000E+03 0.  0.
<mgrwt>
<rscale>  0 0.48378187E+03</rscale>
<asrwt>0</asrwt>
<pdfrwt beam="1">  1        2 0.23115290E+00 0.48378187E+03</pdfrwt>
<pdfrwt beam="2">  1       -2 0.51658735E-02 0.48378187E+03</pdfrwt>
<totfact> 0.25263937E+03</totfact>
</mgrwt>
</event>
<event>
 4    1  0.2013882E-005  0.9573684E+03  0.7818608E-02  0.9356579E-01
         -2   -1    0    0    0  501 -0.00000000000E+00  0.00000000000E+00  0.17657711941E+03  0.17657711943E+03  0.25500000000E-02 0.  1.
          2   -1    0    0  501    0  0.00000000000E+00 -0.00000000000E+00 -0.12976684571E+04  0.12976684571E+04  0.25500000000E-02 0. -1.
    5000001    1    1    2    0    0 -0.43523732559E+03  0.31119973416E+02 -0.62721747957E+03  0.78782342502E+03  0.19200000000E+03 0.  0.
   -5000001    1    1    2    0    0  0.43523732559E+03 -0.31119973416E+02 -0.49387385810E+03  0.68642215148E+03  0.19200000000E+03 0.  0.
<mgrwt>
<rscale>  0 0.95736839E+03</rscale>
<asrwt>0</asrwt>
<pdfrwt beam="1">  1        2 0.18538120E+00 0.95736839E+03</pdfrwt>
<pdfrwt beam="2">  1       -2 0.25225304E-01 0.95736839E+03</pdfrwt>
<totfact> 0.26501375E+02</totfact>
</mgrwt>
</event>
<event>
 4    1  0.2013882E-005  0.4553658E+03  0.7818608E-02  0.1026134E+00
          2   -1    0    0  501    0  0.00000000000E+00  0.00000000000E+00  0.68069879612E+03  0.68069879613E+03  0.25500000000E-02 0.  1.
         -2   -1    0    0    0  501 -0.00000000000E+00 -0.00000000000E+00 -0.76156303622E+02  0.76156303664E+02  0.25500000000E-02 0. -1.
    5000001    1    1    2    0    0  0.12029077522E+03 -0.67961014042E+01  0.26664501742E+03  0.34997088866E+03  0.19200000000E+03 0.  0.
   -5000001    1    1    2    0    0 -0.12029077522E+03  0.67961014042E+01  0.33789747509E+03  0.40688421113E+03  0.19200000000E+03 0.  0.
<mgrwt>
<rscale>  0 0.45536581E+03</rscale>
<asrwt>0</asrwt>
<pdfrwt beam="1">  1        2 0.97242691E-01 0.45536581E+03</pdfrwt>
<pdfrwt beam="2">  1       -2 0.10879471E-01 0.45536581E+03</pdfrwt>
<totfact> 0.27681609E+03</totfact>
</mgrwt>
</event>
<event>
 4    1  0.2013882E-005  0.5647872E+03  0.7818608E-02  0.9981281E-01
         -2   -1    0    0    0  501 -0.00000000000E+00  0.00000000000E+00  0.39796939637E+02  0.39796939719E+02  0.25500000000E-02 0. -1.
          2   -1    0    0  501    0  0.00000000000E+00 -0.00000000000E+00 -0.20038258101E+04  0.20038258101E+04  0.25500000000E-02 0.  1.
    5000001    1    1    2    0    0 -0.19128798661E+03  0.79314190374E+02 -0.98003163632E+03  0.10199058009E+04  0.19200000000E+03 0.  0.
   -5000001    1    1    2    0    0  0.19128798661E+03 -0.79314190374E+02 -0.98399723418E+03  0.10237169489E+04  0.19200000000E+03 0.  0.
<mgrwt>
<rscale>  0 0.56478716E+03</rscale>
<asrwt>0</asrwt>
<pdfrwt beam="1">  1        2 0.28626077E+00 0.56478716E+03</pdfrwt>
<pdfrwt beam="2">  1       -2 0.56852784E-02 0.56478716E+03</pdfrwt>
<totfact> 0.13883360E+03</totfact>
</mgrwt>
</event>
<event>
 4    1  0.2013882E-005  0.5439164E+03  0.7818608E-02  0.1002912E+00
          2   -1    0    0  501    0  0.00000000000E+00  0.00000000000E+00  0.21699331495E+03  0.21699331497E+03  0.25500000000E-02 0.  1.
         -2   -1    0    0    0  501 -0.00000000000E+00 -0.00000000000E+00 -0.34084582240E+03  0.34084582241E+03  0.25500000000E-02 0. -1.
    5000001    1    1    2    0    0  0.16408657245E+03  0.15641259207E+02  0.40264677167E+02  0.25623094363E+03  0.19200000000E+03 0.  0.
   -5000001    1    1    2    0    0 -0.16408657245E+03 -0.15641259207E+02 -0.16411718461E+03  0.30160819374E+03  0.19200000000E+03 0.  0.
<mgrwt>
<rscale>  0 0.54391641E+03</rscale>
<asrwt>0</asrwt>
<pdfrwt beam="1">  1        2 0.30999045E-01 0.54391641E+03</pdfrwt>
<pdfrwt beam="2">  1       -2 0.48692260E-01 0.54391641E+03</pdfrwt>
<totfact> 0.68894710E+02</totfact>
</mgrwt>
</event>
<event>
 4    1  0.2013882E-005  0.6648041E+03  0.7818608E-02  0.9779390E-01
         -2   -1    0    0    0  501 -0.00000000000E+00  0.00000000000E+00  0.38502166528E+02  0.38502166612E+02  0.25500000000E-02 0. -1.
          2   -1    0    0  501    0  0.00000000000E+00 -0.00000000000E+00 -0.28697377846E+04  0.28697377846E+04  0.25500000000E-02 0.  1.
    5000001    1    1    2    0    0 -0.25850668764E+03  0.55443336930E+02 -0.16826985190E+04  0.17141289266E+04  0.19200000000E+03 0.  0.
   -5000001    1    1    2    0    0  0.25850668764E+03 -0.55443336930E+02 -0.11485370991E+04  0.11941110247E+04  0.19200000000E+03 0.  0.
<mgrwt>
<rscale>  0 0.66480410E+03</rscale>
<asrwt>0</asrwt>
<pdfrwt beam="1">  1        2 0.40996240E+00 0.66480410E+03</pdfrwt>
<pdfrwt beam="2">  1       -2 0.55003113E-02 0.66480410E+03</pdfrwt>
<totfact> 0.52141974E+02</totfact>
</mgrwt>
</event>
<event>
 4    1  0.2013882E-005  0.6499333E+03  0.7818608E-02  0.9806904E-01
         -2   -1    0    0    0  501 -0.00000000000E+00  0.00000000000E+00  0.92675779904E+02  0.92675779939E+02  0.25500000000E-02 0. -1.
          2   -1    0    0  501    0  0.00000000000E+00 -0.00000000000E+00 -0.11394922305E+04  0.11394922305E+04  0.25500000000E-02 0.  1.
    5000001    1    1    2    0    0  0.18767695294E+02 -0.22267477946E+03 -0.26344300756E+03  0.39522462224E+03  0.19200000000E+03 0.  0.
   -5000001    1    1    2    0    0 -0.18767695294E+02  0.22267477946E+03 -0.78337344304E+03  0.83694338820E+03  0.19200000000E+03 0.  0.
<mgrwt>
<rscale>  0 0.64993332E+03</rscale>
<asrwt>0</asrwt>
<pdfrwt beam="1">  1        2 0.16278460E+00 0.64993332E+03</pdfrwt>
<pdfrwt beam="2">  1       -2 0.13239398E-01 0.64993332E+03</pdfrwt>
<totfact> 0.10076379E+03</totfact>
</mgrwt>
</event>
<event>
 4    1  0.2013882E-005  0.4685198E+03  0.7818608E-02  0.1022339E+00
          2   -1    0    0  501    0  0.00000000000E+00  0.00000000000E+00  0.25562276457E+04  0.25562276457E+04  0.25500000000E-02 0.  1.
         -2   -1    0    0    0  501 -0.00000000000E+00 -0.00000000000E+00 -0.21468238247E+02  0.21468238398E+02  0.25500000000E-02 0. -1.
    5000001    1    1    2    0    0 -0.11861358961E+03 -0.31633226893E+02  0.15658920261E+04  0.15823879683E+04  0.19200000000E+03 0.  0.
   -5000001    1    1    2    0    0  0.11861358961E+03  0.31633226893E+02  0.96886738131E+03  0.99530791579E+03  0.19200000000E+03 0.  0.
<mgrwt>
<rscale>  0 0.46851982E+03</rscale>
<asrwt>0</asrwt>
<pdfrwt beam="1">  1        2 0.36517533E+00 0.46851982E+03</pdfrwt>
<pdfrwt beam="2">  1       -2 0.30668916E-02 0.46851982E+03</pdfrwt>
<totfact> 0.18955687E+03</totfact>
</mgrwt>
</event>
<event>
 4    1  0.2013882E-005  0.4069094E+03  0.7818608E-02  0.1041413E+00
          2   -1    0    0  501    0  0.00000000000E+00  0.00000000000E+00  0.16931433467E+04  0.16931433467E+04  0.25500000000E-02 0.  1.
         -2   -1    0    0    0  501 -0.00000000000E+00 -0.00000000000E+00 -0.24447907934E+02  0.24447908067E+02  0.25500000000E-02 0. -1.
    5000001    1    1    2    0    0 -0.18952627898E+02  0.62090604790E+02  0.75938755083E+03  0.78596939996E+03  0.19200000000E+03 0.  0.
   -5000001    1    1    2    0    0  0.18952627898E+02 -0.62090604790E+02  0.90930788797E+03  0.93162185485E+03  0.19200000000E+03 0.  0.
<mgrwt>
<rscale>  0 0.40690939E+03</rscale>
<asrwt>0</asrwt>
<pdfrwt beam="1">  1        2 0.24187759E+00 0.40690939E+03</pdfrwt>
<pdfrwt beam="2">  1       -2 0.34925587E-02 0.40690939E+03</pdfrwt>
<totfact> 0.42166711E+03</totfact>
</mgrwt>
</event>
<event>
 4    1  0.2013882E-005  0.6625836E+03  0.7818608E-02  0.9783449E-01
         -2   -1    0    0    0  501 -0.00000000000E+00  0.00000000000E+00  0.22681022891E+02  0.22681023035E+02  0.25500000000E-02 0. -1.
          2   -1    0    0  501    0  0.00000000000E+00 -0.00000000000E+00 -0.48390352209E+04  0.48390352209E+04  0.25500000000E-02 0.  1.
    5000001    1    1    2    0    0  0.57122891353E+02  0.23796668394E+03 -0.15716007741E+04  0.16020874385E+04  0.19200000000E+03 0.  0.
   -5000001    1    1    2    0    0 -0.57122891353E+02 -0.23796668394E+03 -0.32447534239E+04  0.32596288054E+04  0.19200000000E+03 0.  0.
<mgrwt>
<rscale>  0 0.66258364E+03</rscale>
<asrwt>0</asrwt>
<pdfrwt beam="1">  1        2 0.69129009E+00 0.66258364E+03</pdfrwt>
<pdfrwt beam="2">  1       -2 0.32401492E-02 0.66258364E+03</pdfrwt>
<totfact> 0.57928945E+01</totfact>
</mgrwt>
</event>
<event>
 4    1  0.2013882E-005  0.4298013E+03  0.7818608E-02  0.1033923E+00
          2   -1    0    0  501    0  0.00000000000E+00  0.00000000000E+00  0.12293794324E+03  0.12293794327E+03  0.25500000000E-02 0.  1.
         -2   -1    0    0    0  501 -0.00000000000E+00 -0.00000000000E+00 -0.37565524016E+03  0.37565524016E+03  0.25500000000E-02 0. -1.
    5000001    1    1    2    0    0  0.46986408929E+02  0.58208603387E+02 -0.19713454956E+03  0.28517011548E+03  0.19200000000E+03 0.  0.
   -5000001    1    1    2    0    0 -0.46986408929E+02 -0.58208603387E+02 -0.55582747352E+02  0.21342306796E+03  0.19200000000E+03 0.  0.
<mgrwt>
<rscale>  0 0.42980127E+03</rscale>
<asrwt>0</asrwt>
<pdfrwt beam="1">  1        2 0.17562564E-01 0.42980127E+03</pdfrwt>
<pdfrwt beam="2">  1       -2 0.53665034E-01 0.42980127E+03</pdfrwt>
<totfact> 0.10845884E+03</totfact>
</mgrwt>
</event>
<event>
 4    1  0.2013882E-005  0.8226609E+03  0.7818608E-02  0.9527783E-01
          2   -1    0    0  501    0  0.00000000000E+00  0.00000000000E+00  0.20654763999E+04  0.20654763999E+04  0.25500000000E-02 0.  1.
         -2   -1    0    0    0  501 -0.00000000000E+00 -0.00000000000E+00 -0.81914628627E+02  0.81914628667E+02  0.25500000000E-02 0. -1.
    5000001    1    1    2    0    0 -0.16111024771E+03 -0.50194940802E+02  0.15058109049E+03  0.29667273014E+03  0.19200000000E+03 0.  0.
   -5000001    1    1    2    0    0  0.16111024771E+03  0.50194940802E+02  0.18329806808E+04  0.18507182984E+04  0.19200000000E+03 0.  0.
<mgrwt>
<rscale>  0 0.82266088E+03</rscale>
<asrwt>0</asrwt>
<pdfrwt beam="1">  1        2 0.29506802E+00 0.82266088E+03</pdfrwt>
<pdfrwt beam="2">  1       -2 0.11702091E-01 0.82266088E+03</pdfrwt>
<totfact> 0.40020662E+02</totfact>
</mgrwt>
</event>
<event>
 4    1  0.2013882E-005  0.5913824E+03  0.7818608E-02  0.9923448E-01
          2   -1    0    0  501    0  0.00000000000E+00  0.00000000000E+00  0.13919571001E+04  0.13919571001E+04  0.25500000000E-02 0.  1.
         -2   -1    0    0    0  501 -0.00000000000E+00 -0.00000000000E+00 -0.62813200212E+02  0.62813200264E+02  0.25500000000E-02 0. -1.
    5000001    1    1    2    0    0 -0.92143702971E+02  0.20363540146E+03  0.60374396355E+03  0.67180995248E+03  0.19200000000E+03 0.  0.
   -5000001    1    1    2    0    0  0.92143702971E+02 -0.20363540146E+03  0.72539993637E+03  0.78296034791E+03  0.19200000000E+03 0.  0.
<mgrwt>
<rscale>  0 0.59138238E+03</rscale>
<asrwt>0</asrwt>
<pdfrwt beam="1">  1        2 0.19885101E+00 0.59138238E+03</pdfrwt>
<pdfrwt beam="2">  1       -2 0.89733143E-02 0.59138238E+03</pdfrwt>
<totfact> 0.13838291E+03</totfact>
</mgrwt>
</event>
<event>
 4    1  0.2013882E-005  0.4418189E+03  0.7818608E-02  0.1030190E+00
         -2   -1    0    0    0  501 -0.00000000000E+00  0.00000000000E+00  0.53561493012E+03  0.53561493012E+03  0.25500000000E-02 0. -1.
          2   -1    0    0  501    0  0.00000000000E+00 -0.00000000000E+00 -0.91112079595E+02  0.91112079630E+02  0.25500000000E-02 0.  1.
    5000001    1    1    2    0    0  0.98778830720E+02  0.42419635810E+02  0.19458828965E+03  0.29374357077E+03  0.19200000000E+03 0.  0.
   -5000001    1    1    2    0    0 -0.98778830720E+02 -0.42419635810E+02  0.24991456087E+03  0.33298343898E+03  0.19200000000E+03 0.  0.
<mgrwt>
<rscale>  0 0.44181892E+03</rscale>
<asrwt>0</asrwt>
<pdfrwt beam="1">  1        2 0.13016011E-01 0.44181892E+03</pdfrwt>
<pdfrwt beam="2">  1       -2 0.76516422E-01 0.44181892E+03</pdfrwt>
<totfact> 0.73244333E+02</totfact>
</mgrwt>
</event>
<event>
 4    1  0.2013882E-005  0.7170742E+03  0.7818608E-02  0.9688470E-01
          2   -1    0    0  501    0  0.00000000000E+00  0.00000000000E+00  0.54840467070E+03  0.54840467071E+03  0.25500000000E-02 0.  1.
         -2   -1    0    0    0  501 -0.00000000000E+00 -0.00000000000E+00 -0.23440512601E+03  0.23440512603E+03  0.25500000000E-02 0. -1.
    5000001    1    1    2    0    0 -0.28191700764E+03 -0.55194868662E+02  0.52511354457E+02  0.34949265381E+03  0.19200000000E+03 0.  0.
   -5000001    1    1    2    0    0  0.28191700764E+03  0.55194868662E+02  0.26148819023E+03  0.43331714292E+03  0.19200000000E+03 0.  0.
<mgrwt>
<rscale>  0 0.71707424E+03</rscale>
<asrwt>0</asrwt>
<pdfrwt beam="1">  1        2 0.78343522E-01 0.71707424E+03</pdfrwt>
<pdfrwt beam="2">  1       -2 0.33486447E-01 0.71707424E+03</pdfrwt>
<totfact> 0.50531661E+02</totfact>
</mgrwt>
</event>
<event>
 4    1  0.2013882E-005  0.4634682E+03  0.7818608E-02  0.1023780E+00
          2   -1    0    0  501    0  0.00000000000E+00  0.00000000000E+00  0.46639139648E+03  0.46639139649E+03  0.25500000000E-02 0.  1.
         -2   -1    0    0    0  501 -0.00000000000E+00 -0.00000000000E+00 -0.11514084550E+03  0.11514084552E+03  0.25500000000E-02 0. -1.
    5000001    1    1    2    0    0  0.58253986805E+02  0.10919765861E+03  0.22452867193E+03  0.32030419938E+03  0.19200000000E+03 0.  0.
   -5000001    1    1    2    0    0 -0.58253986805E+02 -0.10919765861E+03  0.12672187905E+03  0.26122804263E+03  0.19200000000E+03 0.  0.
<mgrwt>
<rscale>  0 0.46346823E+03</rscale>
<asrwt>0</asrwt>
<pdfrwt beam="1">  1        2 0.66627343E-01 0.46346823E+03</pdfrwt>
<pdfrwt beam="2">  1       -2 0.16448692E-01 0.46346823E+03</pdfrwt>
<totfact> 0.21613009E+03</totfact>
</mgrwt>
</event>
<event>
 4    1  0.2013882E-005  0.7388077E+03  0.7818608E-02  0.9653075E-01
          2   -1    0    0  501    0  0.00000000000E+00  0.00000000000E+00  0.13254200383E+04  0.13254200383E+04  0.25500000000E-02 0.  1.
         -2   -1    0    0    0  501 -0.00000000000E+00 -0.00000000000E+00 -0.10295544256E+03  0.10295544259E+03  0.25500000000E-02 0. -1.
    5000001    1    1    2    0    0 -0.29499315565E+03 -0.12730275170E+02  0.39583756092E+03  0.52984374718E+03  0.19200000000E+03 0.  0.
   -5000001    1    1    2    0    0  0.29499315565E+03  0.12730275170E+02  0.82662703483E+03  0.89853173372E+03  0.19200000000E+03 0.  0.
<mgrwt>
<rscale>  0 0.73880771E+03</rscale>
<asrwt>0</asrwt>
<pdfrwt beam="1">  1        2 0.18934572E+00 0.73880771E+03</pdfrwt>
<pdfrwt beam="2">  1       -2 0.14707920E-01 0.73880771E+03</pdfrwt>
<totfact> 0.66306325E+02</totfact>
</mgrwt>
</event>
<event>
 4    1  0.2013882E-005  0.7943235E+03  0.7818608E-02  0.9568270E-01
         -2   -1    0    0    0  501 -0.00000000000E+00  0.00000000000E+00  0.16630814681E+04  0.16630814681E+04  0.25500000000E-02 0. -1.
          2   -1    0    0  501    0  0.00000000000E+00 -0.00000000000E+00 -0.94846506054E+02  0.94846506089E+02  0.25500000000E-02 0.  1.
    5000001    1    1    2    0    0 -0.32571623845E+03 -0.23515305441E+02  0.52012145633E+03  0.64345502322E+03  0.19200000000E+03 0.  0.
   -5000001    1    1    2    0    0  0.32571623845E+03  0.23515305441E+02  0.10481135058E+04  0.11144729510E+04  0.19200000000E+03 0.  0.
<mgrwt>
<rscale>  0 0.79432353E+03</rscale>
<asrwt>0</asrwt>
<pdfrwt beam="1">  1        2 0.13549502E-01 0.79432353E+03</pdfrwt>
<pdfrwt beam="2">  1       -2 0.23758305E+00 0.79432353E+03</pdfrwt>
<totfact> 0.35591815E+01</totfact>
</mgrwt>
</event>
<event>
 4    1  0.2013882E-005  0.6645092E+03  0.7818608E-02  0.9779928E-01
          2   -1    0    0  501    0  0.00000000000E+00  0.00000000000E+00  0.16683886960E+04  0.16683886960E+04  0.25500000000E-02 0.  1.
         -2   -1    0    0    0  501 -0.00000000000E+00 -0.00000000000E+00 -0.66167498710E+02  0.66167498759E+02  0.25500000000E-02 0. -1.
    5000001    1    1    2    0    0  0.15003473550E+03 -0.79029766497E+02  0.24878470198E+03  0.35709096011E+03  0.19200000000E+03 0.  0.
   -5000001    1    1    2    0    0 -0.15003473550E+03  0.79029766497E+02  0.13534364953E+04  0.13774652346E+04  0.19200000000E+03 0.  0.
<mgrwt>
<rscale>  0 0.66450916E+03</rscale>
<asrwt>0</asrwt>
<pdfrwt beam="1">  1        2 0.23834125E+00 0.66450916E+03</pdfrwt>
<pdfrwt beam="2">  1       -2 0.94524996E-02 0.66450916E+03</pdfrwt>
<totfact> 0.91104487E+02</totfact>
</mgrwt>
</event>
<event>
 4    1  0.2013882E-005  0.5367119E+03  0.7818608E-02  0.1004617E+00
         -2   -1    0    0    0  501 -0.00000000000E+00  0.00000000000E+00  0.67600095765E+03  0.67600095765E+03  0.25500000000E-02 0. -1.
          2   -1    0    0  501    0  0.00000000000E+00 -0.00000000000E+00 -0.10653078577E+03  0.10653078580E+03  0.25500000000E-02 0.  1.
    5000001    1    1    2    0    0 -0.17405177186E+03  0.35543917008E+02  0.19733315740E+03  0.32766105099E+03  0.19200000000E+03 0.  0.
   -5000001    1    1    2    0    0  0.17405177186E+03 -0.35543917008E+02  0.37213701448E+03  0.45487069247E+03  0.19200000000E+03 0.  0.
<mgrwt>
<rscale>  0 0.53671189E+03</rscale>
<asrwt>0</asrwt>
<pdfrwt beam="1">  1        2 0.15218684E-01 0.53671189E+03</pdfrwt>
<pdfrwt beam="2">  1       -2 0.96571565E-01 0.53671189E+03</pdfrwt>
<totfact> 0.35724786E+02</totfact>
</mgrwt>
</event>
<event>
 4    1  0.2013882E-005  0.5738986E+03  0.7818608E-02  0.9961088E-01
          2   -1    0    0  501    0  0.00000000000E+00  0.00000000000E+00  0.10490633424E+04  0.10490633424E+04  0.25500000000E-02 0. -1.
         -2   -1    0    0    0  501 -0.00000000000E+00 -0.00000000000E+00 -0.78488973577E+02  0.78488973618E+02  0.25500000000E-02 0.  1.
    5000001    1    1    2    0    0 -0.15248078687E+03 -0.56711254423E+02  0.21440207132E+03  0.33060369770E+03  0.19200000000E+03 0.  0.
   -5000001    1    1    2    0    0  0.15248078687E+03  0.56711254423E+02  0.75617229754E+03  0.79694861837E+03  0.19200000000E+03 0.  0.
<mgrwt>
<rscale>  0 0.57389861E+03</rscale>
<asrwt>0</asrwt>
<pdfrwt beam="1">  1        2 0.14986619E+00 0.57389861E+03</pdfrwt>
<pdfrwt beam="2">  1       -2 0.11212710E-01 0.57389861E+03</pdfrwt>
<totfact> 0.14994175E+03</totfact>
</mgrwt>
</event>
<event>
 4    1  0.2013882E-005  0.6111878E+03  0.7818608E-02  0.9882463E-01
         -2   -1    0    0    0  501 -0.00000000000E+00  0.00000000000E+00  0.73165608089E+02  0.73165608133E+02  0.25500000000E-02 0. -1.
          2   -1    0    0  501    0  0.00000000000E+00 -0.00000000000E+00 -0.12763872025E+04  0.12763872025E+04  0.25500000000E-02 0.  1.
    5000001    1    1    2    0    0  0.23496715048E+03  0.34986167929E+02 -0.62256456427E+03  0.69345816776E+03  0.19200000000E+03 0.  0.
   -5000001    1    1    2    0    0 -0.23496715048E+03 -0.34986167929E+02 -0.58065703014E+03  0.65609464287E+03  0.19200000000E+03 0.  0.
<mgrwt>
<rscale>  0 0.61118785E+03</rscale>
<asrwt>0</asrwt>
<pdfrwt beam="1">  1        2 0.18234102E+00 0.61118785E+03</pdfrwt>
<pdfrwt beam="2">  1       -2 0.10452230E-01 0.61118785E+03</pdfrwt>
<totfact> 0.12474308E+03</totfact>
</mgrwt>
</event>
<event>
 4    1  0.2013882E-005  0.9734205E+03  0.7818608E-02  0.9338187E-01
         -2   -1    0    0    0  501 -0.00000000000E+00  0.00000000000E+00  0.11497779553E+03  0.11497779555E+03  0.25500000000E-02 0. -1.
          2   -1    0    0  501    0  0.00000000000E+00 -0.00000000000E+00 -0.20602836747E+04  0.20602836747E+04  0.25500000000E-02 0.  1.
    5000001    1    1    2    0    0  0.68635628827E+02  0.42315144547E+03 -0.12575597645E+04  0.13424189199E+04  0.19200000000E+03 0.  0.
   -5000001    1    1    2    0    0 -0.68635628827E+02 -0.42315144547E+03 -0.68774611468E+03  0.83284255031E+03  0.19200000000E+03 0.  0.
<mgrwt>
<rscale>  0 0.97342052E+03</rscale>
<asrwt>0</asrwt>
<pdfrwt beam="1">  1        2 0.29432622E+00 0.97342052E+03</pdfrwt>
<pdfrwt beam="2">  1       -2 0.16425401E-01 0.97342052E+03</pdfrwt>
<totfact> 0.22530637E+02</totfact>
</mgrwt>
</event>
<event>
 4    1  0.2013882E-005  0.5952410E+03  0.7818608E-02  0.9915329E-01
         -2   -1    0    0    0  501 -0.00000000000E+00  0.00000000000E+00  0.34850772213E+02  0.34850772307E+02  0.25500000000E-02 0. -1.
          2   -1    0    0  501    0  0.00000000000E+00 -0.00000000000E+00 -0.25416357902E+04  0.25416357902E+04  0.25500000000E-02 0.  1.
    5000001    1    1    2    0    0  0.21735698586E+03 -0.21533299318E+02 -0.97942261281E+03  0.10216850771E+04  0.19200000000E+03 0.  0.
   -5000001    1    1    2    0    0 -0.21735698586E+03  0.21533299318E+02 -0.15273624051E+04  0.15548014854E+04  0.19200000000E+03 0.  0.
<mgrwt>
<rscale>  0 0.59524103E+03</rscale>
<asrwt>0</asrwt>
<pdfrwt beam="1">  1        2 0.36309071E+00 0.59524103E+03</pdfrwt>
<pdfrwt beam="2">  1       -2 0.49786834E-02 0.59524103E+03</pdfrwt>
<totfact> 0.91036510E+02</totfact>
</mgrwt>
</event>
<event>
 4    1  0.2013882E-005  0.5214508E+03  0.7818608E-02  0.1008327E+00
         -2   -1    0    0    0  501 -0.00000000000E+00  0.00000000000E+00  0.10012018622E+03  0.10012018625E+03  0.25500000000E-02 0. -1.
          2   -1    0    0  501    0  0.00000000000E+00 -0.00000000000E+00 -0.67896136961E+03  0.67896136962E+03  0.25500000000E-02 0.  1.
    5000001    1    1    2    0    0 -0.12148734821E+03  0.70316959341E+02 -0.12982750609E+03  0.27096647742E+03  0.19200000000E+03 0.  0.
   -5000001    1    1    2    0    0  0.12148734821E+03 -0.70316959341E+02 -0.44901367731E+03  0.50811507846E+03  0.19200000000E+03 0.  0.
<mgrwt>
<rscale>  0 0.52145082E+03</rscale>
<asrwt>0</asrwt>
<pdfrwt beam="1">  1        2 0.96994479E-01 0.52145082E+03</pdfrwt>
<pdfrwt beam="2">  1       -2 0.14302884E-01 0.52145082E+03</pdfrwt>
<totfact> 0.17715641E+03</totfact>
</mgrwt>
</event>
<event>
 4    1  0.2013882E-005  0.5788845E+03  0.7818608E-02  0.9950209E-01
          2   -1    0    0  501    0  0.00000000000E+00  0.00000000000E+00  0.82854572904E+03  0.82854572905E+03  0.25500000000E-02 0.  1.
         -2   -1    0    0    0  501 -0.00000000000E+00 -0.00000000000E+00 -0.10111309809E+03  0.10111309813E+03  0.25500000000E-02 0. -1.
    5000001    1    1    2    0    0  0.13266881433E+03 -0.17115559389E+03  0.35698396526E+03  0.45956153350E+03  0.19200000000E+03 0.  0.
   -5000001    1    1    2    0    0 -0.13266881433E+03  0.17115559389E+03  0.37044866568E+03  0.47009729368E+03  0.19200000000E+03 0.  0.
<mgrwt>
<rscale>  0 0.57888453E+03</rscale>
<asrwt>0</asrwt>
<pdfrwt beam="1">  1        2 0.11836367E+00 0.57888453E+03</pdfrwt>
<pdfrwt beam="2">  1       -2 0.14444729E-01 0.57888453E+03</pdfrwt>
<totfact> 0.13588482E+03</totfact>
</mgrwt>
</event>
<event>
 4    1  0.2013882E-005  0.7563404E+03  0.7818608E-02  0.9625455E-01
          2   -1    0    0  501    0  0.00000000000E+00  0.00000000000E+00  0.10533276277E+04  0.10533276277E+04  0.25500000000E-02 0.  1.
         -2   -1    0    0    0  501 -0.00000000000E+00 -0.00000000000E+00 -0.13577227635E+03  0.13577227637E+03  0.25500000000E-02 0. -1.
    5000001    1    1    2    0    0  0.23575981216E+03 -0.20662089430E+03  0.59828385271E+03  0.70219829921E+03  0.19200000000E+03 0.  0.
   -5000001    1    1    2    0    0 -0.23575981216E+03  0.20662089430E+03  0.31927149867E+03  0.48690160490E+03  0.19200000000E+03 0.  0.
<mgrwt>
<rscale>  0 0.75634037E+03</rscale>
<asrwt>0</asrwt>
<pdfrwt beam="1">  1        2 0.15047537E+00 0.75634037E+03</pdfrwt>
<pdfrwt beam="2">  1       -2 0.19396041E-01 0.75634037E+03</pdfrwt>
<totfact> 0.58884804E+02</totfact>
</mgrwt>
</event>
<event>
 4    1  0.2013882E-005  0.9338165E+03  0.7818608E-02  0.9384269E-01
         -2   -1    0    0    0  501 -0.00000000000E+00  0.00000000000E+00  0.14076392176E+03  0.14076392179E+03  0.25500000000E-02 0. -1.
          2   -1    0    0  501    0  0.00000000000E+00 -0.00000000000E+00 -0.15487159256E+04  0.15487159256E+04  0.25500000000E-02 0.  1.
    5000001    1    1    2    0    0 -0.31165790189E+03 -0.26163758590E+03 -0.47833457693E+03  0.65669844042E+03  0.19200000000E+03 0.  0.
   -5000001    1    1    2    0    0  0.31165790189E+03  0.26163758590E+03 -0.92961742688E+03  0.10327814069E+04  0.19200000000E+03 0.  0.
<mgrwt>
<rscale>  0 0.93381653E+03</rscale>
<asrwt>0</asrwt>
<pdfrwt beam="1">  1        2 0.22124512E+00 0.93381653E+03</pdfrwt>
<pdfrwt beam="2">  1       -2 0.20109133E-01 0.93381653E+03</pdfrwt>
<totfact> 0.29139223E+02</totfact>
</mgrwt>
</event>
<event>
 4    1  0.2013882E-005  0.4747111E+03  0.7818608E-02  0.1020599E+00
         -2   -1    0    0    0  501 -0.00000000000E+00  0.00000000000E+00  0.19417284918E+03  0.19417284920E+03  0.25500000000E-02 0. -1.
          2   -1    0    0  501    0  0.00000000000E+00 -0.00000000000E+00 -0.29014182556E+03  0.29014182557E+03  0.25500000000E-02 0.  1.
    5000001    1    1    2    0    0 -0.44506027563E+02 -0.12808422377E+03 -0.14343021807E+02  0.23549114026E+03  0.19200000000E+03 0.  0.
   -5000001    1    1    2    0    0  0.44506027563E+02  0.12808422377E+03 -0.81625954568E+02  0.24882353451E+03  0.19200000000E+03 0.  0.
<mgrwt>
<rscale>  0 0.47471113E+03</rscale>
<asrwt>0</asrwt>
<pdfrwt beam="1">  1        2 0.41448832E-01 0.47471113E+03</pdfrwt>
<pdfrwt beam="2">  1       -2 0.27738979E-01 0.47471113E+03</pdfrwt>
<totfact> 0.14617135E+03</totfact>
</mgrwt>
</event>
<event>
 4    1  0.2013882E-005  0.1960863E+04  0.7818608E-02  0.8625140E-01
         -2   -1    0    0    0  501 -0.00000000000E+00  0.00000000000E+00  0.88859158917E+03  0.88859158917E+03  0.25500000000E-02 0. -1.
          2   -1    0    0  501    0  0.00000000000E+00 -0.00000000000E+00 -0.10817629814E+04  0.10817629814E+04  0.25500000000E-02 0.  1.
    5000001    1    1    2    0    0  0.70116452581E+03  0.51263728875E+03 -0.51083463172E+03  0.10257897948E+04  0.19200000000E+03 0.  0.
   -5000001    1    1    2    0    0 -0.70116452581E+03 -0.51263728875E+03  0.31766323946E+03  0.94456477585E+03  0.19200000000E+03 0.  0.
<mgrwt>
<rscale>  0 0.19608626E+04</rscale>
<asrwt>0</asrwt>
<pdfrwt beam="1">  1        2 0.15453757E+00 0.19608626E+04</pdfrwt>
<pdfrwt beam="2">  1       -2 0.12694166E+00 0.19608626E+04</pdfrwt>
<totfact> 0.10809653E+01</totfact>
</mgrwt>
</event>
<event>
 4    1  0.2013882E-005  0.7570941E+03  0.7818608E-02  0.9624286E-01
         -2   -1    0    0    0  501 -0.00000000000E+00  0.00000000000E+00  0.43668757530E+02  0.43668757605E+02  0.25500000000E-02 0. -1.
          2   -1    0    0  501    0  0.00000000000E+00 -0.00000000000E+00 -0.32814731851E+04  0.32814731851E+04  0.25500000000E-02 0.  1.
    5000001    1    1    2    0    0 -0.16411006571E+03  0.26890867545E+03 -0.19913117487E+04  0.20251988717E+04  0.19200000000E+03 0.  0.
   -5000001    1    1    2    0    0  0.16411006571E+03 -0.26890867545E+03 -0.12464926789E+04  0.12999430710E+04  0.19200000000E+03 0.  0.
<mgrwt>
<rscale>  0 0.75709407E+03</rscale>
<asrwt>0</asrwt>
<pdfrwt beam="1">  1        2 0.46878173E+00 0.75709407E+03</pdfrwt>
<pdfrwt beam="2">  1       -2 0.62383960E-02 0.75709407E+03</pdfrwt>
<totfact> 0.25089497E+02</totfact>
</mgrwt>
</event>
<event>
 4    1  0.2013882E-005  0.6211930E+03  0.7818608E-02  0.9862387E-01
         -2   -1    0    0    0  501 -0.00000000000E+00  0.00000000000E+00  0.22892735703E+03  0.22892735704E+03  0.25500000000E-02 0. -1.
          2   -1    0    0  501    0  0.00000000000E+00 -0.00000000000E+00 -0.42140084295E+03  0.42140084296E+03  0.25500000000E-02 0.  1.
    5000001    1    1    2    0    0 -0.14534054696E+03 -0.11440458111E+03  0.70591944564E+02  0.27578887832E+03  0.19200000000E+03 0.  0.
   -5000001    1    1    2    0    0  0.14534054696E+03  0.11440458111E+03 -0.26306543049E+03  0.37453932168E+03  0.19200000000E+03 0.  0.
<mgrwt>
<rscale>  0 0.62119299E+03</rscale>
<asrwt>0</asrwt>
<pdfrwt beam="1">  1        2 0.60200120E-01 0.62119299E+03</pdfrwt>
<pdfrwt beam="2">  1       -2 0.32703908E-01 0.62119299E+03</pdfrwt>
<totfact> 0.71420168E+02</totfact>
</mgrwt>
</event>
<event>
 4    1  0.2013882E-005  0.3889100E+03  0.7818608E-02  0.1047689E+00
          2   -1    0    0  501    0  0.00000000000E+00  0.00000000000E+00  0.60986501611E+03  0.60986501612E+03  0.25500000000E-02 0. -1.
         -2   -1    0    0    0  501 -0.00000000000E+00 -0.00000000000E+00 -0.62001836592E+02  0.62001836645E+02  0.25500000000E-02 0.  1.
    5000001    1    1    2    0    0 -0.17066535738E+02  0.23461789220E+02  0.29180406093E+03  0.35050724982E+03  0.19200000000E+03 0.  0.
   -5000001    1    1    2    0    0  0.17066535738E+02 -0.23461789220E+02  0.25605911859E+03  0.32135960295E+03  0.19200000000E+03 0.  0.
<mgrwt>
<rscale>  0 0.38891002E+03</rscale>
<asrwt>0</asrwt>
<pdfrwt beam="1">  1        2 0.87123572E-01 0.38891002E+03</pdfrwt>
<pdfrwt beam="2">  1       -2 0.88574055E-02 0.38891002E+03</pdfrwt>
<totfact> 0.43746622E+03</totfact>
</mgrwt>
</event>
<event>
 4    1  0.2013882E-005  0.5259757E+03  0.7818608E-02  0.1007213E+00
         -2   -1    0    0    0  501 -0.00000000000E+00  0.00000000000E+00  0.56629309743E+02  0.56629309800E+02  0.25500000000E-02 0. -1.
          2   -1    0    0  501    0  0.00000000000E+00 -0.00000000000E+00 -0.12213219265E+04  0.12213219265E+04  0.25500000000E-02 0.  1.
    5000001    1    1    2    0    0 -0.56856215882E+02 -0.87492224191E+02 -0.93786959882E+03  0.96299060378E+03  0.19200000000E+03 0.  0.
   -5000001    1    1    2    0    0  0.56856215882E+02  0.87492224191E+02 -0.22682301797E+03  0.31496063255E+03  0.19200000000E+03 0.  0.
<mgrwt>
<rscale>  0 0.52597573E+03</rscale>
<asrwt>0</asrwt>
<pdfrwt beam="1">  1        2 0.17447455E+00 0.52597573E+03</pdfrwt>
<pdfrwt beam="2">  1       -2 0.80899021E-02 0.52597573E+03</pdfrwt>
<totfact> 0.20237432E+03</totfact>
</mgrwt>
</event>
<event>
 4    1  0.2013882E-005  0.1125958E+04  0.7818608E-02  0.9180254E-01
          2   -1    0    0  501    0  0.00000000000E+00  0.00000000000E+00  0.68436188204E+03  0.68436188204E+03  0.25500000000E-02 0.  1.
         -2   -1    0    0    0  501 -0.00000000000E+00 -0.00000000000E+00 -0.46312577192E+03  0.46312577193E+03  0.25500000000E-02 0. -1.
    5000001    1    1    2    0    0  0.74429643946E+02  0.33773241865E+03  0.51887567430E+03  0.65245607046E+03  0.19200000000E+03 0.  0.
   -5000001    1    1    2    0    0 -0.74429643946E+02 -0.33773241865E+03 -0.29763956418E+03  0.49503158351E+03  0.19200000000E+03 0.  0.
<mgrwt>
<rscale>  0 0.11259585E+04</rscale>
<asrwt>0</asrwt>
<pdfrwt beam="1">  1        2 0.97765982E-01 0.11259585E+04</pdfrwt>
<pdfrwt beam="2">  1       -2 0.66160825E-01 0.11259585E+04</pdfrwt>
<totfact> 0.96503462E+01</totfact>
</mgrwt>
</event>
<event>
 4    1  0.2013882E-005  0.5189418E+03  0.7818608E-02  0.1008950E+00
          2   -1    0    0  501    0  0.00000000000E+00  0.00000000000E+00  0.11103503964E+04  0.11103503964E+04  0.25500000000E-02 0.  1.
         -2   -1    0    0    0  501 -0.00000000000E+00 -0.00000000000E+00 -0.60634144231E+02  0.60634144285E+02  0.25500000000E-02 0. -1.
    5000001    1    1    2    0    0 -0.57277844741E+02  0.16305581293E+03  0.57981623726E+03  0.63475886651E+03  0.19200000000E+03 0.  0.
   -5000001    1    1    2    0    0  0.57277844741E+02 -0.16305581293E+03  0.46990001489E+03  0.53622567416E+03  0.19200000000E+03 0.  0.
<mgrwt>
<rscale>  0 0.51894179E+03</rscale>
<asrwt>0</asrwt>
<pdfrwt beam="1">  1        2 0.15862147E+00 0.51894179E+03</pdfrwt>
<pdfrwt beam="2">  1       -2 0.86620214E-02 0.51894179E+03</pdfrwt>
<totfact> 0.20966847E+03</totfact>
</mgrwt>
</event>
<event>
 4    1  0.2013882E-005  0.4194234E+03  0.7818608E-02  0.1037254E+00
         -2   -1    0    0    0  501 -0.00000000000E+00  0.00000000000E+00  0.81904904343E+02  0.81904904383E+02  0.25500000000E-02 0. -1.
          2   -1    0    0  501    0  0.00000000000E+00 -0.00000000000E+00 -0.53695203249E+03  0.53695203250E+03  0.25500000000E-02 0.  1.
    5000001    1    1    2    0    0 -0.57433095426E+02 -0.42660504437E+02 -0.29345234269E+03  0.35790607220E+03  0.19200000000E+03 0.  0.
   -5000001    1    1    2    0    0  0.57433095426E+02  0.42660504437E+02 -0.16159478546E+03  0.26095086468E+03  0.19200000000E+03 0.  0.
<mgrwt>
<rscale>  0 0.41942344E+03</rscale>
<asrwt>0</asrwt>
<pdfrwt beam="1">  1        2 0.76707432E-01 0.41942344E+03</pdfrwt>
<pdfrwt beam="2">  1       -2 0.11700701E-01 0.41942344E+03</pdfrwt>
<totfact> 0.32404962E+03</totfact>
</mgrwt>
</event>
<event>
 4    1  0.2013882E-005  0.4690411E+03  0.7818608E-02  0.1022191E+00
          2   -1    0    0  501    0  0.00000000000E+00  0.00000000000E+00  0.14993626376E+04  0.14993626376E+04  0.25500000000E-02 0.  1.
         -2   -1    0    0    0  501 -0.00000000000E+00 -0.00000000000E+00 -0.36682182922E+02  0.36682183010E+02  0.25500000000E-02 0. -1.
    5000001    1    1    2    0    0 -0.72298771477E+02 -0.82573664796E+02  0.98691317319E+03  0.10113887155E+04  0.19200000000E+03 0.  0.
   -5000001    1    1    2    0    0  0.72298771477E+02  0.82573664796E+02  0.47576728153E+03  0.52465610513E+03  0.19200000000E+03 0.  0.
<mgrwt>
<rscale>  0 0.46904113E+03</rscale>
<asrwt>0</asrwt>
<pdfrwt beam="1">  1        2 0.21419468E+00 0.46904113E+03</pdfrwt>
<pdfrwt beam="2">  1       -2 0.52403114E-02 0.46904113E+03</pdfrwt>
<totfact> 0.28433245E+03</totfact>
</mgrwt>
</event>
<event>
 4    1  0.2013882E-005  0.4366243E+03  0.7818608E-02  0.1031788E+00
         -2   -1    0    0    0  501 -0.00000000000E+00  0.00000000000E+00  0.15978235281E+03  0.15978235283E+03  0.25500000000E-02 0. -1.
          2   -1    0    0  501    0  0.00000000000E+00 -0.00000000000E+00 -0.29828191046E+03  0.29828191047E+03  0.25500000000E-02 0.  1.
    5000001    1    1    2    0    0 -0.81500517665E+02 -0.38813809803E+02 -0.15270963308E+02  0.21271118572E+03  0.19200000000E+03 0.  0.
   -5000001    1    1    2    0    0  0.81500517665E+02  0.38813809803E+02 -0.12322859434E+03  0.24535307757E+03  0.19200000000E+03 0.  0.
<mgrwt>
<rscale>  0 0.43662426E+03</rscale>
<asrwt>0</asrwt>
<pdfrwt beam="1">  1        2 0.42611701E-01 0.43662426E+03</pdfrwt>
<pdfrwt beam="2">  1       -2 0.22826050E-01 0.43662426E+03</pdfrwt>
<totfact> 0.20076639E+03</totfact>
</mgrwt>
</event>
<event>
 4    1  0.2013882E-005  0.5849652E+03  0.7818608E-02  0.9937099E-01
          2   -1    0    0  501    0  0.00000000000E+00  0.00000000000E+00  0.21445922421E+03  0.21445922422E+03  0.25500000000E-02 0.  1.
         -2   -1    0    0    0  501 -0.00000000000E+00 -0.00000000000E+00 -0.39889196678E+03  0.39889196679E+03  0.25500000000E-02 0. -1.
    5000001    1    1    2    0    0  0.63956774899E+02 -0.20350575273E+03 -0.33116313861E+02  0.28890439715E+03  0.19200000000E+03 0.  0.
   -5000001    1    1    2    0    0 -0.63956774899E+02  0.20350575273E+03 -0.15131642872E+03  0.32444679386E+03  0.19200000000E+03 0.  0.
<mgrwt>
<rscale>  0 0.58496517E+03</rscale>
<asrwt>0</asrwt>
<pdfrwt beam="1">  1        2 0.30637032E-01 0.58496517E+03</pdfrwt>
<pdfrwt beam="2">  1       -2 0.56984567E-01 0.58496517E+03</pdfrwt>
<totfact> 0.50581084E+02</totfact>
</mgrwt>
</event>
<event>
 4    1  0.2013882E-005  0.1271413E+04  0.7818608E-02  0.9052547E-01
         -2   -1    0    0    0  501 -0.00000000000E+00  0.00000000000E+00  0.16742119262E+03  0.16742119263E+03  0.25500000000E-02 0. -1.
          2   -1    0    0  501    0  0.00000000000E+00 -0.00000000000E+00 -0.24138081547E+04  0.24138081547E+04  0.25500000000E-02 0.  1.
    5000001    1    1    2    0    0 -0.46722799291E+03 -0.35409139496E+03 -0.14349204624E+04  0.15619037892E+04  0.19200000000E+03 0.  0.
   -5000001    1    1    2    0    0  0.46722799291E+03  0.35409139496E+03 -0.81146649973E+03  0.10193255582E+04  0.19200000000E+03 0.  0.
<mgrwt>
<rscale>  0 0.12714128E+04</rscale>
<asrwt>0</asrwt>
<pdfrwt beam="1">  1        2 0.34482971E+00 0.12714128E+04</pdfrwt>
<pdfrwt beam="2">  1       -2 0.23917315E-01 0.12714128E+04</pdfrwt>
<totfact> 0.74936599E+01</totfact>
</mgrwt>
</event>
<event>
 4    1  0.2013882E-005  0.9277541E+03  0.7818608E-02  0.9391537E-01
          2   -1    0    0  501    0  0.00000000000E+00  0.00000000000E+00  0.22574283665E+04  0.22574283665E+04  0.25500000000E-02 0.  1.
         -2   -1    0    0    0  501 -0.00000000000E+00 -0.00000000000E+00 -0.95321693839E+02  0.95321693873E+02  0.25500000000E-02 0. -1.
    5000001    1    1    2    0    0 -0.34954621724E+03  0.13440623443E+03  0.15758606303E+04  0.16310880785E+04  0.19200000000E+03 0.  0.
   -5000001    1    1    2    0    0  0.34954621724E+03 -0.13440623443E+03  0.58624604238E+03  0.72166198185E+03  0.19200000000E+03 0.  0.
<mgrwt>
<rscale>  0 0.92775405E+03</rscale>
<asrwt>0</asrwt>
<pdfrwt beam="1">  1        2 0.32248975E+00 0.92775405E+03</pdfrwt>
<pdfrwt beam="2">  1       -2 0.13617386E-01 0.92775405E+03</pdfrwt>
<totfact> 0.24640838E+02</totfact>
</mgrwt>
</event>
<event>
 4    1  0.2013882E-005  0.4580926E+03  0.7818608E-02  0.1025336E+00
         -2   -1    0    0    0  501 -0.00000000000E+00  0.00000000000E+00  0.15944046906E+03  0.15944046908E+03  0.25500000000E-02 0. -1.
          2   -1    0    0  501    0  0.00000000000E+00 -0.00000000000E+00 -0.32903952860E+03  0.32903952861E+03  0.25500000000E-02 0.  1.
    5000001    1    1    2    0    0  0.73120059102E+02  0.73482222435E+02 -0.10522332098E+02  0.21845113763E+03  0.19200000000E+03 0.  0.
   -5000001    1    1    2    0    0 -0.73120059102E+02 -0.73482222435E+02 -0.15907672744E+03  0.27002886007E+03  0.19200000000E+03 0.  0.
<mgrwt>
<rscale>  0 0.45809264E+03</rscale>
<asrwt>0</asrwt>
<pdfrwt beam="1">  1        2 0.47005647E-01 0.45809264E+03</pdfrwt>
<pdfrwt beam="2">  1       -2 0.22777210E-01 0.45809264E+03</pdfrwt>
<totfact> 0.18109888E+03</totfact>
</mgrwt>
</event>
<event>
 4    1  0.2013882E-005  0.5738654E+03  0.7818608E-02  0.9961161E-01
          2   -1    0    0  501    0  0.00000000000E+00  0.00000000000E+00  0.17987695310E+04  0.17987695310E+04  0.25500000000E-02 0.  1.
         -2   -1    0    0    0  501 -0.00000000000E+00 -0.00000000000E+00 -0.45770379764E+02  0.45770379835E+02  0.25500000000E-02 0. -1.
    5000001    1    1    2    0    0 -0.17104560635E+03 -0.78305888614E+02  0.55382540299E+03  0.61560944489E+03  0.19200000000E+03 0.  0.
   -5000001    1    1    2    0    0  0.17104560635E+03  0.78305888614E+02  0.11991737482E+04  0.12289304659E+04  0.19200000000E+03 0.  0.
<mgrwt>
<rscale>  0 0.57386537E+03</rscale>
<asrwt>0</asrwt>
<pdfrwt beam="1">  1        2 0.25696706E+00 0.57386537E+03</pdfrwt>
<pdfrwt beam="2">  1       -2 0.65386260E-02 0.57386537E+03</pdfrwt>
<totfact> 0.14132000E+03</totfact>
</mgrwt>
</event>
<event>
 4    1  0.2013882E-005  0.1051953E+04  0.7818608E-02  0.9253330E-01
          2   -1    0    0  501    0  0.00000000000E+00  0.00000000000E+00  0.35232790363E+03  0.35232790364E+03  0.25500000000E-02 0.  1.
         -2   -1    0    0    0  501 -0.00000000000E+00 -0.00000000000E+00 -0.78520969533E+03  0.78520969534E+03  0.25500000000E-02 0. -1.
    5000001    1    1    2    0    0 -0.31903650454E+03 -0.13805883262E+03  0.15649862789E+03  0.42684933293E+03  0.19200000000E+03 0.  0.
   -5000001    1    1    2    0    0  0.31903650454E+03  0.13805883262E+03 -0.58938041959E+03  0.71068826604E+03  0.19200000000E+03 0.  0.
<mgrwt>
<rscale>  0 0.10519530E+04</rscale>
<asrwt>0</asrwt>
<pdfrwt beam="1">  1        2 0.50332558E-01 0.10519530E+04</pdfrwt>
<pdfrwt beam="2">  1       -2 0.11217281E+00 0.10519530E+04</pdfrwt>
<totfact> 0.62212263E+01</totfact>
</mgrwt>
</event>
<event>
 4    1  0.2013882E-005  0.5605223E+03  0.7818608E-02  0.9990873E-01
          2   -1    0    0  501    0  0.00000000000E+00  0.00000000000E+00  0.66644968156E+03  0.66644968157E+03  0.25500000000E-02 0.  1.
         -2   -1    0    0    0  501 -0.00000000000E+00 -0.00000000000E+00 -0.11785783793E+03  0.11785783796E+03  0.25500000000E-02 0. -1.
    5000001    1    1    2    0    0 -0.11033790551E+02  0.19094328165E+03  0.17435779014E+03  0.32225102067E+03  0.19200000000E+03 0.  0.
   -5000001    1    1    2    0    0  0.11033790551E+02 -0.19094328165E+03  0.37423405349E+03  0.46205649886E+03  0.19200000000E+03 0.  0.
<mgrwt>
<rscale>  0 0.56052232E+03</rscale>
<asrwt>0</asrwt>
<pdfrwt beam="1">  1        2 0.95207100E-01 0.56052232E+03</pdfrwt>
<pdfrwt beam="2">  1       -2 0.16836834E-01 0.56052232E+03</pdfrwt>
<totfact> 0.13759911E+03</totfact>
</mgrwt>
</event>
<event>
 4    1  0.2013882E-005  0.5015476E+03  0.7818608E-02  0.1013376E+00
          2   -1    0    0  501    0  0.00000000000E+00  0.00000000000E+00  0.17493719022E+03  0.17493719024E+03  0.25500000000E-02 0.  1.
         -2   -1    0    0    0  501 -0.00000000000E+00 -0.00000000000E+00 -0.35948620505E+03  0.35948620505E+03  0.25500000000E-02 0. -1.
    5000001    1    1    2    0    0 -0.14463452687E+03  0.71401254374E+02 -0.94932223938E+02  0.26812946990E+03  0.19200000000E+03 0.  0.
   -5000001    1    1    2    0    0  0.14463452687E+03 -0.71401254374E+02 -0.89616790890E+02  0.26629392539E+03  0.19200000000E+03 0.  0.
<mgrwt>
<rscale>  0 0.50154763E+03</rscale>
<asrwt>0</asrwt>
<pdfrwt beam="1">  1        2 0.24991027E-01 0.50154763E+03</pdfrwt>
<pdfrwt beam="2">  1       -2 0.51355172E-01 0.50154763E+03</pdfrwt>
<totfact> 0.78894577E+02</totfact>
</mgrwt>
</event>
<event>
 4    1  0.2013882E-005  0.5102705E+03  0.7818608E-02  0.1011132E+00
          2   -1    0    0  501    0  0.00000000000E+00  0.00000000000E+00  0.19782881166E+03  0.19782881168E+03  0.25500000000E-02 0.  1.
         -2   -1    0    0    0  501 -0.00000000000E+00 -0.00000000000E+00 -0.32904206816E+03  0.32904206817E+03  0.25500000000E-02 0. -1.
    5000001    1    1    2    0    0 -0.73011979335E+02 -0.10161662821E+03  0.50172048272E+02  0.23460162549E+03  0.19200000000E+03 0.  0.
   -5000001    1    1    2    0    0  0.73011979335E+02  0.10161662821E+03 -0.18138530477E+03  0.29226925436E+03  0.19200000000E+03 0.  0.
<mgrwt>
<rscale>  0 0.51027052E+03</rscale>
<asrwt>0</asrwt>
<pdfrwt beam="1">  1        2 0.28261259E-01 0.51027052E+03</pdfrwt>
<pdfrwt beam="2">  1       -2 0.47006010E-01 0.51027052E+03</pdfrwt>
<totfact> 0.82028721E+02</totfact>
</mgrwt>
</event>
<event>
 4    1  0.2013882E-005  0.5790606E+03  0.7818608E-02  0.9949827E-01
         -2   -1    0    0    0  501 -0.00000000000E+00  0.00000000000E+00  0.27699872794E+02  0.27699872912E+02  0.25500000000E-02 0. -1.
          2   -1    0    0  501    0  0.00000000000E+00 -0.00000000000E+00 -0.30262876250E+04  0.30262876250E+04  0.25500000000E-02 0.  1.
    5000001    1    1    2    0    0 -0.17288566766E+03 -0.10835300031E+03 -0.18844776390E+04  0.19051902264E+04  0.19200000000E+03 0.  0.
   -5000001    1    1    2    0    0  0.17288566766E+03  0.10835300031E+03 -0.11141101131E+04  0.11487972715E+04  0.19200000000E+03 0.  0.
<mgrwt>
<rscale>  0 0.57906056E+03</rscale>
<asrwt>0</asrwt>
<pdfrwt beam="1">  1        2 0.43232659E+00 0.57906056E+03</pdfrwt>
<pdfrwt beam="2">  1       -2 0.39571266E-02 0.57906056E+03</pdfrwt>
<totfact> 0.72005971E+02</totfact>
</mgrwt>
</event>
<event>
 4    1  0.2013882E-005  0.6369677E+03  0.7818608E-02  0.9831545E-01
         -2   -1    0    0    0  501 -0.00000000000E+00  0.00000000000E+00  0.81521825656E+03  0.81521825657E+03  0.25500000000E-02 0. -1.
          2   -1    0    0  501    0  0.00000000000E+00 -0.00000000000E+00 -0.12442306149E+03  0.12442306152E+03  0.25500000000E-02 0.  1.
    5000001    1    1    2    0    0 -0.13456346948E+03 -0.20095821052E+03  0.23040532189E+03  0.38528189945E+03  0.19200000000E+03 0.  0.
   -5000001    1    1    2    0    0  0.13456346948E+03  0.20095821052E+03  0.46038987318E+03  0.55435941863E+03  0.19200000000E+03 0.  0.
<mgrwt>
<rscale>  0 0.63696766E+03</rscale>
<asrwt>0</asrwt>
<pdfrwt beam="1">  1        2 0.17774722E-01 0.63696766E+03</pdfrwt>
<pdfrwt beam="2">  1       -2 0.11645976E+00 0.63696766E+03</pdfrwt>
<totfact> 0.18913285E+02</totfact>
</mgrwt>
</event>
<event>
 4    1  0.2013882E-005  0.4678727E+03  0.7818608E-02  0.1022522E+00
          2   -1    0    0  501    0  0.00000000000E+00  0.00000000000E+00  0.17935475222E+04  0.17935475222E+04  0.25500000000E-02 0.  1.
         -2   -1    0    0    0  501 -0.00000000000E+00 -0.00000000000E+00 -0.30512838323E+02  0.30512838429E+02  0.25500000000E-02 0. -1.
    5000001    1    1    2    0    0 -0.72261902493E+02  0.82380549881E+02  0.58323079246E+03  0.62372309147E+03  0.19200000000E+03 0.  0.
   -5000001    1    1    2    0    0  0.72261902493E+02 -0.82380549881E+02  0.11798038914E+04  0.12003372691E+04  0.19200000000E+03 0.  0.
<mgrwt>
<rscale>  0 0.46787274E+03</rscale>
<asrwt>0</asrwt>
<pdfrwt beam="1">  1        2 0.25622116E+00 0.46787274E+03</pdfrwt>
<pdfrwt beam="2">  1       -2 0.43589754E-02 0.46787274E+03</pdfrwt>
<totfact> 0.26774153E+03</totfact>
</mgrwt>
</event>
<event>
 4    1  0.2013882E-005  0.6932051E+03  0.7818608E-02  0.9728923E-01
          2   -1    0    0  501    0  0.00000000000E+00  0.00000000000E+00  0.43973791647E+03  0.43973791648E+03  0.25500000000E-02 0.  1.
         -2   -1    0    0    0  501 -0.00000000000E+00 -0.00000000000E+00 -0.27319303965E+03  0.27319303966E+03  0.25500000000E-02 0. -1.
    5000001    1    1    2    0    0  0.19996087444E+03  0.19381835685E+03  0.54934790395E+01  0.33829585435E+03  0.19200000000E+03 0.  0.
   -5000001    1    1    2    0    0 -0.19996087444E+03 -0.19381835685E+03  0.16105139778E+03  0.37463510178E+03  0.19200000000E+03 0.  0.
<mgrwt>
<rscale>  0 0.69320513E+03</rscale>
<asrwt>0</asrwt>
<pdfrwt beam="1">  1        2 0.62819702E-01 0.69320513E+03</pdfrwt>
<pdfrwt beam="2">  1       -2 0.39027577E-01 0.69320513E+03</pdfrwt>
<totfact> 0.48547994E+02</totfact>
</mgrwt>
</event>
<event>
 4    1  0.2013882E-005  0.4259294E+03  0.7818608E-02  0.1035154E+00
          2   -1    0    0  501    0  0.00000000000E+00  0.00000000000E+00  0.10433487238E+04  0.10433487238E+04  0.25500000000E-02 0.  1.
         -2   -1    0    0    0  501 -0.00000000000E+00 -0.00000000000E+00 -0.43469608919E+02  0.43469608994E+02  0.25500000000E-02 0. -1.
    5000001    1    1    2    0    0  0.40103051048E+02 -0.80405632369E+02  0.55202305603E+03  0.59132628456E+03  0.19200000000E+03 0.  0.
   -5000001    1    1    2    0    0 -0.40103051048E+02  0.80405632369E+02  0.44785605886E+03  0.49549204825E+03  0.19200000000E+03 0.  0.
<mgrwt>
<rscale>  0 0.42592939E+03</rscale>
<asrwt>0</asrwt>
<pdfrwt beam="1">  1        2 0.14904983E+00 0.42592939E+03</pdfrwt>
<pdfrwt beam="2">  1       -2 0.62099435E-02 0.42592939E+03</pdfrwt>
<totfact> 0.38744020E+03</totfact>
</mgrwt>
</event>
<event>
 4    1  0.2013882E-005  0.5089573E+03  0.7818608E-02  0.1011467E+00
          2   -1    0    0  501    0  0.00000000000E+00  0.00000000000E+00  0.16525297319E+04  0.16525297319E+04  0.25500000000E-02 0. -1.
         -2   -1    0    0    0  501 -0.00000000000E+00 -0.00000000000E+00 -0.39188030451E+02  0.39188030534E+02  0.25500000000E-02 0.  1.
    5000001    1    1    2    0    0 -0.41817453520E+02 -0.16028769228E+03  0.87753612506E+03  0.91344101862E+03  0.19200000000E+03 0.  0.
   -5000001    1    1    2    0    0  0.41817453520E+02  0.16028769228E+03  0.73580557641E+03  0.77827674384E+03  0.19200000000E+03 0.  0.
<mgrwt>
<rscale>  0 0.50895731E+03</rscale>
<asrwt>0</asrwt>
<pdfrwt beam="1">  1        2 0.23607560E+00 0.50895731E+03</pdfrwt>
<pdfrwt beam="2">  1       -2 0.55982918E-02 0.50895731E+03</pdfrwt>
<totfact> 0.21409146E+03</totfact>
</mgrwt>
</event>
<event>
 4    1  0.2013882E-005  0.6758281E+03  0.7818608E-02  0.9759486E-01
         -2   -1    0    0    0  501 -0.00000000000E+00  0.00000000000E+00  0.34015783538E+02  0.34015783634E+02  0.25500000000E-02 0. -1.
          2   -1    0    0  501    0  0.00000000000E+00 -0.00000000000E+00 -0.33568503574E+04  0.33568503574E+04  0.25500000000E-02 0.  1.
    5000001    1    1    2    0    0 -0.19705338945E+02  0.25090386981E+03 -0.10681627077E+04  0.11140810663E+04  0.19200000000E+03 0.  0.
   -5000001    1    1    2    0    0  0.19705338945E+02 -0.25090386981E+03 -0.22546718662E+04  0.22767850747E+04  0.19200000000E+03 0.  0.
<mgrwt>
<rscale>  0 0.67582807E+03</rscale>
<asrwt>0</asrwt>
<pdfrwt beam="1">  1        2 0.47954984E+00 0.67582807E+03</pdfrwt>
<pdfrwt beam="2">  1       -2 0.48593998E-02 0.67582807E+03</pdfrwt>
<totfact> 0.33853675E+02</totfact>
</mgrwt>
</event>
<event>
 4    1  0.2013882E-005  0.5513964E+03  0.7818608E-02  0.1001171E+00
         -2   -1    0    0    0  501 -0.00000000000E+00  0.00000000000E+00  0.30342987541E+02  0.30342987648E+02  0.25500000000E-02 0. -1.
          2   -1    0    0  501    0  0.00000000000E+00 -0.00000000000E+00 -0.25050107152E+04  0.25050107152E+04  0.25500000000E-02 0.  1.
    5000001    1    1    2    0    0  0.18452843536E+03  0.70391963839E+02 -0.11829800093E+04  0.12146240054E+04  0.19200000000E+03 0.  0.
   -5000001    1    1    2    0    0 -0.18452843536E+03 -0.70391963839E+02 -0.12916877184E+04  0.13207296975E+04  0.19200000000E+03 0.  0.
<mgrwt>
<rscale>  0 0.55139644E+03</rscale>
<asrwt>0</asrwt>
<pdfrwt beam="1">  1        2 0.35785854E+00 0.55139644E+03</pdfrwt>
<pdfrwt beam="2">  1       -2 0.43347141E-02 0.55139644E+03</pdfrwt>
<totfact> 0.11812788E+03</totfact>
</mgrwt>
</event>
<event>
 4    1  0.2013882E-005  0.6866745E+03  0.7818608E-02  0.9740296E-01
         -2   -1    0    0    0  501 -0.00000000000E+00  0.00000000000E+00  0.17385851763E+03  0.17385851765E+03  0.25500000000E-02 0. -1.
          2   -1    0    0  501    0  0.00000000000E+00 -0.00000000000E+00 -0.67802517544E+03  0.67802517545E+03  0.25500000000E-02 0.  1.
    5000001    1    1    2    0    0 -0.13010315229E+03  0.22589618217E+03 -0.11030497716E+03  0.34203377515E+03  0.19200000000E+03 0.  0.
   -5000001    1    1    2    0    0  0.13010315229E+03 -0.22589618217E+03 -0.39386168065E+03  0.50984991795E+03  0.19200000000E+03 0.  0.
<mgrwt>
<rscale>  0 0.68667446E+03</rscale>
<asrwt>0</asrwt>
<pdfrwt beam="1">  1        2 0.96860738E-01 0.68667446E+03</pdfrwt>
<pdfrwt beam="2">  1       -2 0.24836931E-01 0.68667446E+03</pdfrwt>
<totfact> 0.68140054E+02</totfact>
</mgrwt>
</event>
<event>
 4    1  0.2013882E-005  0.8451707E+03  0.7818608E-02  0.9496842E-01
          2   -1    0    0  501    0  0.00000000000E+00  0.00000000000E+00  0.13933953146E+04  0.13933953146E+04  0.25500000000E-02 0.  1.
         -2   -1    0    0    0  501 -0.00000000000E+00 -0.00000000000E+00 -0.12816059338E+03  0.12816059340E+03  0.25500000000E-02 0. -1.
    5000001    1    1    2    0    0 -0.18649242962E+03  0.32433924739E+03  0.70769193228E+03  0.82320546932E+03  0.19200000000E+03 0.  0.
   -5000001    1    1    2    0    0  0.18649242962E+03 -0.32433924739E+03  0.55754278890E+03  0.69835043864E+03  0.19200000000E+03 0.  0.
<mgrwt>
<rscale>  0 0.84517068E+03</rscale>
<asrwt>0</asrwt>
<pdfrwt beam="1">  1        2 0.19905647E+00 0.84517068E+03</pdfrwt>
<pdfrwt beam="2">  1       -2 0.18308656E-01 0.84517068E+03</pdfrwt>
<totfact> 0.41694223E+02</totfact>
</mgrwt>
</event>
<event>
 4    1  0.2013882E-005  0.6797777E+03  0.7818608E-02  0.9752454E-01
          2   -1    0    0  501    0  0.00000000000E+00  0.00000000000E+00  0.61361241478E+02  0.61361241531E+02  0.25500000000E-02 0.  1.
         -2   -1    0    0    0  501 -0.00000000000E+00 -0.00000000000E+00 -0.18826940348E+04  0.18826940348E+04  0.25500000000E-02 0. -1.
    5000001    1    1    2    0    0 -0.16794875801E+03 -0.22035659655E+03 -0.10352132601E+04  0.10887122250E+04  0.19200000000E+03 0.  0.
   -5000001    1    1    2    0    0  0.16794875801E+03  0.22035659655E+03 -0.78611953320E+03  0.85534305132E+03  0.19200000000E+03 0.  0.
<mgrwt>
<rscale>  0 0.67977774E+03</rscale>
<asrwt>0</asrwt>
<pdfrwt beam="1">  1        2 0.87658929E-02 0.67977774E+03</pdfrwt>
<pdfrwt beam="2">  1       -2 0.26895625E+00 0.67977774E+03</pdfrwt>
<totfact> 0.40223057E+01</totfact>
</mgrwt>
</event>
<event>
 4    1  0.2013882E-005  0.7104343E+03  0.7818608E-02  0.9699553E-01
         -2   -1    0    0    0  501 -0.00000000000E+00  0.00000000000E+00  0.85219943195E+02  0.85219943233E+02  0.25500000000E-02 0. -1.
          2   -1    0    0  501    0  0.00000000000E+00 -0.00000000000E+00 -0.14806301919E+04  0.14806301919E+04  0.25500000000E-02 0.  1.
    5000001    1    1    2    0    0  0.89013136510E+02  0.28443545480E+03 -0.64899784656E+03  0.73951948674E+03  0.19200000000E+03 0.  0.
   -5000001    1    1    2    0    0 -0.89013136510E+02 -0.28443545480E+03 -0.74641240218E+03  0.82633064844E+03  0.19200000000E+03 0.  0.
<mgrwt>
<rscale>  0 0.71043429E+03</rscale>
<asrwt>0</asrwt>
<pdfrwt beam="1">  1        2 0.21151858E+00 0.71043429E+03</pdfrwt>
<pdfrwt beam="2">  1       -2 0.12174279E-01 0.71043429E+03</pdfrwt>
<totfact> 0.75207187E+02</totfact>
</mgrwt>
</event>
<event>
 4    1  0.2013882E-005  0.1244652E+04  0.7818608E-02  0.9074646E-01
         -2   -1    0    0    0  501 -0.00000000000E+00  0.00000000000E+00  0.23440620228E+03  0.23440620229E+03  0.25500000000E-02 0. -1.
          2   -1    0    0  501    0  0.00000000000E+00 -0.00000000000E+00 -0.16522163681E+04  0.16522163681E+04  0.25500000000E-02 0.  1.
    5000001    1    1    2    0    0  0.66868637313E+02  0.57478683482E+03 -0.51973898851E+03  0.80115163128E+03  0.19200000000E+03 0.  0.
   -5000001    1    1    2    0    0 -0.66868637313E+02 -0.57478683482E+03 -0.89807117732E+03  0.10854709391E+04  0.19200000000E+03 0.  0.
<mgrwt>
<rscale>  0 0.12446522E+04</rscale>
<asrwt>0</asrwt>
<pdfrwt beam="1">  1        2 0.23603090E+00 0.12446522E+04</pdfrwt>
<pdfrwt beam="2">  1       -2 0.33486601E-01 0.12446522E+04</pdfrwt>
<totfact> 0.99582337E+01</totfact>
</mgrwt>
</event>
<event>
 4    1  0.2013882E-005  0.7014494E+03  0.7818608E-02  0.9714757E-01
          2   -1    0    0  501    0  0.00000000000E+00  0.00000000000E+00  0.24636887275E+04  0.24636887275E+04  0.25500000000E-02 0.  1.
         -2   -1    0    0    0  501 -0.00000000000E+00 -0.00000000000E+00 -0.49928308105E+02  0.49928308170E+02  0.25500000000E-02 0. -1.
    5000001    1    1    2    0    0  0.27005409257E+03 -0.73797341823E+02  0.15227242869E+04  0.15601052896E+04  0.19200000000E+03 0.  0.
   -5000001    1    1    2    0    0 -0.27005409257E+03  0.73797341823E+02  0.89103613250E+03  0.95351174612E+03  0.19200000000E+03 0.  0.
<mgrwt>
<rscale>  0 0.70144939E+03</rscale>
<asrwt>0</asrwt>
<pdfrwt beam="1">  1        2 0.35195566E+00 0.70144939E+03</pdfrwt>
<pdfrwt beam="2">  1       -2 0.71326128E-02 0.70144939E+03</pdfrwt>
<totfact> 0.56357688E+02</totfact>
</mgrwt>
</event>
<event>
 4    1  0.2013882E-005  0.7737611E+03  0.7818608E-02  0.9598793E-01
         -2   -1    0    0    0  501 -0.00000000000E+00  0.00000000000E+00  0.42470397438E+02  0.42470397514E+02  0.25500000000E-02 0. -1.
          2   -1    0    0  501    0  0.00000000000E+00 -0.00000000000E+00 -0.35242565395E+04  0.35242565395E+04  0.25500000000E-02 0.  1.
    5000001    1    1    2    0    0  0.10926581772E+03 -0.29487493088E+03 -0.11969932158E+04  0.12524164653E+04  0.19200000000E+03 0.  0.
   -5000001    1    1    2    0    0 -0.10926581772E+03  0.29487493088E+03 -0.22847929263E+04  0.23143104718E+04  0.19200000000E+03 0.  0.
<mgrwt>
<rscale>  0 0.77376114E+03</rscale>
<asrwt>0</asrwt>
<pdfrwt beam="1">  1        2 0.50346503E+00 0.77376114E+03</pdfrwt>
<pdfrwt beam="2">  1       -2 0.60672019E-02 0.77376114E+03</pdfrwt>
<totfact> 0.18849699E+02</totfact>
</mgrwt>
</event>
<event>
 4    1  0.2013882E-005  0.4927268E+03  0.7818608E-02  0.1015695E+00
         -2   -1    0    0    0  501 -0.00000000000E+00  0.00000000000E+00  0.42383132073E+03  0.42383132074E+03  0.25500000000E-02 0. -1.
          2   -1    0    0  501    0  0.00000000000E+00 -0.00000000000E+00 -0.14320538010E+03  0.14320538012E+03  0.25500000000E-02 0.  1.
    5000001    1    1    2    0    0  0.37023634145E+02  0.10156002311E+03  0.13484448792E+02  0.22075103202E+03  0.19200000000E+03 0.  0.
   -5000001    1    1    2    0    0 -0.37023634145E+02 -0.10156002311E+03  0.26714149184E+03  0.34628566884E+03  0.19200000000E+03 0.  0.
<mgrwt>
<rscale>  0 0.49272680E+03</rscale>
<asrwt>0</asrwt>
<pdfrwt beam="1">  1        2 0.20457911E-01 0.49272680E+03</pdfrwt>
<pdfrwt beam="2">  1       -2 0.60547333E-01 0.49272680E+03</pdfrwt>
<totfact> 0.70692365E+02</totfact>
</mgrwt>
</event>
<event>
 4    1  0.2013882E-005  0.5008097E+03  0.7818608E-02  0.1013568E+00
          2   -1    0    0  501    0  0.00000000000E+00  0.00000000000E+00  0.43081988153E+04  0.43081988153E+04  0.25500000000E-02 0.  1.
         -2   -1    0    0    0  501 -0.00000000000E+00 -0.00000000000E+00 -0.14554248457E+02  0.14554248681E+02  0.25500000000E-02 0. -1.
    5000001    1    1    2    0    0  0.11062878082E+03  0.70341376499E+02  0.13439528536E+04  0.13639134536E+04  0.19200000000E+03 0.  0.
   -5000001    1    1    2    0    0 -0.11062878082E+03 -0.70341376499E+02  0.29496917133E+04  0.29588396103E+04  0.19200000000E+03 0.  0.
<mgrwt>
<rscale>  0 0.50080973E+03</rscale>
<asrwt>0</asrwt>
<pdfrwt beam="1">  1        2 0.61545627E+00 0.50080973E+03</pdfrwt>
<pdfrwt beam="2">  1       -2 0.20791807E-02 0.50080973E+03</pdfrwt>
<totfact> 0.30885084E+02</totfact>
</mgrwt>
</event>
<event>
 4    1  0.2013882E-005  0.6957924E+03  0.7818608E-02  0.9724455E-01
         -2   -1    0    0    0  501 -0.00000000000E+00  0.00000000000E+00  0.30268569686E+03  0.30268569687E+03  0.25500000000E-02 0. -1.
          2   -1    0    0  501    0  0.00000000000E+00 -0.00000000000E+00 -0.39985951160E+03  0.39985951161E+03  0.25500000000E-02 0.  1.
    5000001    1    1    2    0    0  0.22477795217E+03  0.17007303546E+03 -0.11793969249E+03  0.36086526050E+03  0.19200000000E+03 0.  0.
   -5000001    1    1    2    0    0 -0.22477795217E+03 -0.17007303546E+03  0.20765877743E+02  0.34167994798E+03  0.19200000000E+03 0.  0.
<mgrwt>
<rscale>  0 0.69579237E+03</rscale>
<asrwt>0</asrwt>
<pdfrwt beam="1">  1        2 0.57122787E-01 0.69579237E+03</pdfrwt>
<pdfrwt beam="2">  1       -2 0.43240814E-01 0.69579237E+03</pdfrwt>
<totfact> 0.44188114E+02</totfact>
</mgrwt>
</event>
<event>
 4    1  0.2013882E-005  0.6040487E+03  0.7818608E-02  0.9897042E-01
          2   -1    0    0  501    0  0.00000000000E+00  0.00000000000E+00  0.18512057042E+04  0.18512057042E+04  0.25500000000E-02 0.  1.
         -2   -1    0    0    0  501 -0.00000000000E+00 -0.00000000000E+00 -0.49275299055E+02  0.49275299121E+02  0.25500000000E-02 0. -1.
    5000001    1    1    2    0    0  0.99035037441E+02  0.12463483329E+03  0.36506071826E+03  0.44212567028E+03  0.19200000000E+03 0.  0.
   -5000001    1    1    2    0    0 -0.99035037441E+02 -0.12463483329E+03  0.14368696869E+04  0.14583553331E+04  0.19200000000E+03 0.  0.
<mgrwt>
<rscale>  0 0.60404872E+03</rscale>
<asrwt>0</asrwt>
<pdfrwt beam="1">  1        2 0.26445800E+00 0.60404872E+03</pdfrwt>
<pdfrwt beam="2">  1       -2 0.70393274E-02 0.60404872E+03</pdfrwt>
<totfact> 0.11820465E+03</totfact>
</mgrwt>
</event>
<event>
 4    1  0.2013882E-005  0.4866316E+03  0.7818608E-02  0.1017328E+00
          2   -1    0    0  501    0  0.00000000000E+00  0.00000000000E+00  0.10083319815E+04  0.10083319815E+04  0.25500000000E-02 0.  1.
         -2   -1    0    0    0  501 -0.00000000000E+00 -0.00000000000E+00 -0.58713371906E+02  0.58713371961E+02  0.25500000000E-02 0. -1.
    5000001    1    1    2    0    0  0.70872703518E+02 -0.12633471259E+03  0.55552902425E+03  0.60535931189E+03  0.19200000000E+03 0.  0.
   -5000001    1    1    2    0    0 -0.70872703518E+02  0.12633471259E+03  0.39408958536E+03  0.46168604158E+03  0.19200000000E+03 0.  0.
<mgrwt>
<rscale>  0 0.48663157E+03</rscale>
<asrwt>0</asrwt>
<pdfrwt beam="1">  1        2 0.14404743E+00 0.48663157E+03</pdfrwt>
<pdfrwt beam="2">  1       -2 0.83876243E-02 0.48663157E+03</pdfrwt>
<totfact> 0.25347169E+03</totfact>
</mgrwt>
</event>
<event>
 4    1  0.2013882E-005  0.7066747E+03  0.7818608E-02  0.9705885E-01
         -2   -1    0    0    0  501 -0.00000000000E+00  0.00000000000E+00  0.35251360880E+02  0.35251360972E+02  0.25500000000E-02 0. -1.
          2   -1    0    0  501    0  0.00000000000E+00 -0.00000000000E+00 -0.35416302060E+04  0.35416302060E+04  0.25500000000E-02 0.  1.
    5000001    1    1    2    0    0 -0.49625152971E+02  0.27979310483E+03 -0.21837633392E+04  0.22105278010E+04  0.19200000000E+03 0.  0.
   -5000001    1    1    2    0    0  0.49625152971E+02 -0.27979310483E+03 -0.13226155060E+04  0.13663537660E+04  0.19200000000E+03 0.  0.
<mgrwt>
<rscale>  0 0.70667470E+03</rscale>
<asrwt>0</asrwt>
<pdfrwt beam="1">  1        2 0.50594695E+00 0.70667470E+03</pdfrwt>
<pdfrwt beam="2">  1       -2 0.50359110E-02 0.70667470E+03</pdfrwt>
<totfact> 0.24824830E+02</totfact>
</mgrwt>
</event>
<event>
 4    1  0.2013882E-005  0.5655619E+03  0.7818608E-02  0.9979548E-01
          2   -1    0    0  501    0  0.00000000000E+00  0.00000000000E+00  0.15381872685E+04  0.15381872685E+04  0.25500000000E-02 0.  1.
         -2   -1    0    0    0  501 -0.00000000000E+00 -0.00000000000E+00 -0.51986558586E+02  0.51986558649E+02  0.25500000000E-02 0. -1.
    5000001    1    1    2    0    0 -0.39196453276E+02  0.10900923309E+03  0.12275055149E+04  0.12478193635E+04  0.19200000000E+03 0.  0.
   -5000001    1    1    2    0    0  0.39196453276E+02 -0.10900923309E+03  0.25869519501E+03  0.34235446364E+03  0.19200000000E+03 0.  0.
<mgrwt>
<rscale>  0 0.56556189E+03</rscale>
<asrwt>0</asrwt>
<pdfrwt beam="1">  1        2 0.21974102E+00 0.56556189E+03</pdfrwt>
<pdfrwt beam="2">  1       -2 0.74266517E-02 0.56556189E+03</pdfrwt>
<totfact> 0.15698962E+03</totfact>
</mgrwt>
</event>
<event>
 4    1  0.2013882E-005  0.7111046E+03  0.7818608E-02  0.9698428E-01
         -2   -1    0    0    0  501 -0.00000000000E+00  0.00000000000E+00  0.15774387797E+03  0.15774387799E+03  0.25500000000E-02 0. -1.
          2   -1    0    0  501    0  0.00000000000E+00 -0.00000000000E+00 -0.80140950115E+03  0.80140950115E+03  0.25500000000E-02 0.  1.
    5000001    1    1    2    0    0 -0.23943285599E+03 -0.13275893830E+03 -0.15885174496E+03  0.37020386965E+03  0.19200000000E+03 0.  0.
   -5000001    1    1    2    0    0  0.23943285599E+03  0.13275893830E+03 -0.48481387821E+03  0.58894950950E+03  0.19200000000E+03 0.  0.
<mgrwt>
<rscale>  0 0.71110461E+03</rscale>
<asrwt>0</asrwt>
<pdfrwt beam="1">  1        2 0.11448707E+00 0.71110461E+03</pdfrwt>
<pdfrwt beam="2">  1       -2 0.22534840E-01 0.71110461E+03</pdfrwt>
<totfact> 0.65737642E+02</totfact>
</mgrwt>
</event>
<event>
 4    1  0.2013882E-005  0.7478437E+03  0.7818608E-02  0.9638739E-01
          2   -1    0    0  501    0  0.00000000000E+00  0.00000000000E+00  0.16230795348E+04  0.16230795348E+04  0.25500000000E-02 0. -1.
         -2   -1    0    0    0  501 -0.00000000000E+00 -0.00000000000E+00 -0.86143372027E+02  0.86143372065E+02  0.25500000000E-02 0.  1.
    5000001    1    1    2    0    0 -0.88356224211E+02  0.27339825752E+03  0.44202747330E+03  0.56107550002E+03  0.19200000000E+03 0.  0.
   -5000001    1    1    2    0    0  0.88356224211E+02 -0.27339825752E+03  0.10949086895E+04  0.11481474069E+04  0.19200000000E+03 0.  0.
<mgrwt>
<rscale>  0 0.74784368E+03</rscale>
<asrwt>0</asrwt>
<pdfrwt beam="1">  1        2 0.23186850E+00 0.74784368E+03</pdfrwt>
<pdfrwt beam="2">  1       -2 0.12306196E-01 0.74784368E+03</pdfrwt>
<totfact> 0.62161309E+02</totfact>
</mgrwt>
</event>
<event>
 4    1  0.2013882E-005  0.5354948E+03  0.7818608E-02  0.1004908E+00
         -2   -1    0    0    0  501 -0.00000000000E+00  0.00000000000E+00  0.21373422021E+02  0.21373422173E+02  0.25500000000E-02 0. -1.
          2   -1    0    0  501    0  0.00000000000E+00 -0.00000000000E+00 -0.33541034606E+04  0.33541034606E+04  0.25500000000E-02 0.  1.
    5000001    1    1    2    0    0  0.75193208635E+02 -0.16780286033E+03 -0.14657550325E+04  0.14896689678E+04  0.19200000000E+03 0.  0.
   -5000001    1    1    2    0    0 -0.75193208635E+02  0.16780286033E+03 -0.18669750061E+04  0.18858079149E+04  0.19200000000E+03 0.  0.
<mgrwt>
<rscale>  0 0.53549480E+03</rscale>
<asrwt>0</asrwt>
<pdfrwt beam="1">  1        2 0.47915730E+00 0.53549480E+03</pdfrwt>
<pdfrwt beam="2">  1       -2 0.30533482E-02 0.53549480E+03</pdfrwt>
<totfact> 0.70412253E+02</totfact>
</mgrwt>
</event>
<event>
 4    1  0.2013882E-005  0.4497173E+03  0.7818608E-02  0.1027806E+00
         -2   -1    0    0    0  501 -0.00000000000E+00  0.00000000000E+00  0.69279503771E+02  0.69279503818E+02  0.25500000000E-02 0. -1.
          2   -1    0    0  501    0  0.00000000000E+00 -0.00000000000E+00 -0.72981788493E+03  0.72981788493E+03  0.25500000000E-02 0.  1.
    5000001    1    1    2    0    0 -0.30578116484E+02  0.38329258872E+02 -0.14143966983E+03  0.24346115397E+03  0.19200000000E+03 0.  0.
   -5000001    1    1    2    0    0  0.30578116484E+02 -0.38329258872E+02 -0.51909871133E+03  0.55563623478E+03  0.19200000000E+03 0.  0.
<mgrwt>
<rscale>  0 0.44971734E+03</rscale>
<asrwt>0</asrwt>
<pdfrwt beam="1">  1        2 0.10425969E+00 0.44971734E+03</pdfrwt>
<pdfrwt beam="2">  1       -2 0.98970724E-02 0.44971734E+03</pdfrwt>
<totfact> 0.29634222E+03</totfact>
</mgrwt>
</event>
<event>
 4    1  0.2013882E-005  0.4974800E+03  0.7818608E-02  0.1014439E+00
          2   -1    0    0  501    0  0.00000000000E+00  0.00000000000E+00  0.13452934225E+03  0.13452934228E+03  0.25500000000E-02 0.  1.
         -2   -1    0    0    0  501 -0.00000000000E+00 -0.00000000000E+00 -0.45991155116E+03  0.45991155117E+03  0.25500000000E-02 0. -1.
    5000001    1    1    2    0    0 -0.59023187743E+02 -0.14668340768E+03 -0.15934543684E+03  0.29538911121E+03  0.19200000000E+03 0.  0.
   -5000001    1    1    2    0    0  0.59023187743E+02  0.14668340768E+03 -0.16603677206E+03  0.29905178223E+03  0.19200000000E+03 0.  0.
<mgrwt>
<rscale>  0 0.49748004E+03</rscale>
<asrwt>0</asrwt>
<pdfrwt beam="1">  1        2 0.19218478E-01 0.49748004E+03</pdfrwt>
<pdfrwt beam="2">  1       -2 0.65701649E-01 0.49748004E+03</pdfrwt>
<totfact> 0.63957282E+02</totfact>
</mgrwt>
</event>
<event>
 4    1  0.2013882E-005  0.6494550E+03  0.7818608E-02  0.9807802E-01
          2   -1    0    0  501    0  0.00000000000E+00  0.00000000000E+00  0.11719482371E+04  0.11719482371E+04  0.25500000000E-02 0.  1.
         -2   -1    0    0    0  501 -0.00000000000E+00 -0.00000000000E+00 -0.89976627681E+02  0.89976627718E+02  0.25500000000E-02 0. -1.
    5000001    1    1    2    0    0  0.96054686964E+02 -0.24362363814E+03  0.53665394719E+03  0.62724830727E+03  0.19200000000E+03 0.  0.
   -5000001    1    1    2    0    0 -0.96054686964E+02  0.24362363814E+03  0.54531766219E+03  0.63467655750E+03  0.19200000000E+03 0.  0.
<mgrwt>
<rscale>  0 0.64945500E+03</rscale>
<asrwt>0</asrwt>
<pdfrwt beam="1">  1        2 0.16742115E+00 0.64945500E+03</pdfrwt>
<pdfrwt beam="2">  1       -2 0.12853806E-01 0.64945500E+03</pdfrwt>
<totfact> 0.10141977E+03</totfact>
</mgrwt>
</event>
<event>
 4    1  0.2013882E-005  0.6013084E+03  0.7818608E-02  0.9902695E-01
          2   -1    0    0  501    0  0.00000000000E+00  0.00000000000E+00  0.83212564563E+02  0.83212564602E+02  0.25500000000E-02 0. -1.
         -2   -1    0    0    0  501 -0.00000000000E+00 -0.00000000000E+00 -0.10862895128E+04  0.10862895128E+04  0.25500000000E-02 0.  1.
    5000001    1    1    2    0    0 -0.18297226107E+03  0.12825797378E+03 -0.38484305614E+03  0.48466187597E+03  0.19200000000E+03 0.  0.
   -5000001    1    1    2    0    0  0.18297226107E+03 -0.12825797378E+03 -0.61823389209E+03  0.68484020143E+03  0.19200000000E+03 0.  0.
<mgrwt>
<rscale>  0 0.60130836E+03</rscale>
<asrwt>0</asrwt>
<pdfrwt beam="1">  1        2 0.11887510E-01 0.60130836E+03</pdfrwt>
<pdfrwt beam="2">  1       -2 0.15518421E+00 0.60130836E+03</pdfrwt>
<totfact> 0.14870127E+02</totfact>
</mgrwt>
</event>
<event>
 4    1  0.2013882E-005  0.5292420E+03  0.7818608E-02  0.1006416E+00
          2   -1    0    0  501    0  0.00000000000E+00  0.00000000000E+00  0.21972733881E+04  0.21972733881E+04  0.25500000000E-02 0.  1.
         -2   -1    0    0    0  501 -0.00000000000E+00 -0.00000000000E+00 -0.31868708462E+02  0.31868708564E+02  0.25500000000E-02 0. -1.
    5000001    1    1    2    0    0 -0.18190849666E+03 -0.99501732330E+00  0.10478234255E+04  0.10806894198E+04  0.19200000000E+03 0.  0.
   -5000001    1    1    2    0    0  0.18190849666E+03  0.99501732330E+00  0.11175812542E+04  0.11484526768E+04  0.19200000000E+03 0.  0.
<mgrwt>
<rscale>  0 0.52924197E+03</rscale>
<asrwt>0</asrwt>
<pdfrwt beam="1">  1        2 0.31389623E+00 0.52924197E+03</pdfrwt>
<pdfrwt beam="2">  1       -2 0.45526722E-02 0.52924197E+03</pdfrwt>
<totfact> 0.15700234E+03</totfact>
</mgrwt>
</event>
<event>
 4    1  0.2013882E-005  0.9102158E+03  0.7818608E-02  0.9412901E-01
         -2   -1    0    0    0  501 -0.00000000000E+00  0.00000000000E+00  0.87635666149E+02  0.87635666186E+02  0.25500000000E-02 0. -1.
          2   -1    0    0  501    0  0.00000000000E+00 -0.00000000000E+00 -0.23634575628E+04  0.23634575628E+04  0.25500000000E-02 0.  1.
    5000001    1    1    2    0    0 -0.20848054066E+03 -0.27253075445E+03 -0.17550545573E+04  0.17985598815E+04  0.19200000000E+03 0.  0.
   -5000001    1    1    2    0    0  0.20848054066E+03  0.27253075445E+03 -0.52076733935E+03  0.65253334757E+03  0.19200000000E+03 0.  0.
<mgrwt>
<rscale>  0 0.91021575E+03</rscale>
<asrwt>0</asrwt>
<pdfrwt beam="1">  1        2 0.33763675E+00 0.91021575E+03</pdfrwt>
<pdfrwt beam="2">  1       -2 0.12519382E-01 0.91021575E+03</pdfrwt>
<totfact> 0.25053633E+02</totfact>
</mgrwt>
</event>
<event>
 4    1  0.2013882E-005  0.6526006E+03  0.7818608E-02  0.9801912E-01
         -2   -1    0    0    0  501 -0.00000000000E+00  0.00000000000E+00  0.24922970353E+03  0.24922970354E+03  0.25500000000E-02 0. -1.
          2   -1    0    0  501    0  0.00000000000E+00 -0.00000000000E+00 -0.42720378088E+03  0.42720378089E+03  0.25500000000E-02 0.  1.
    5000001    1    1    2    0    0 -0.25501331591E+03 -0.60490179947E+02 -0.57598817309E+02  0.32995829572E+03  0.19200000000E+03 0.  0.
   -5000001    1    1    2    0    0  0.25501331591E+03  0.60490179947E+02 -0.12037526005E+03  0.34647518871E+03  0.19200000000E+03 0.  0.
<mgrwt>
<rscale>  0 0.65260056E+03</rscale>
<asrwt>0</asrwt>
<pdfrwt beam="1">  1        2 0.61029111E-01 0.65260056E+03</pdfrwt>
<pdfrwt beam="2">  1       -2 0.35604243E-01 0.65260056E+03</pdfrwt>
<totfact> 0.59870799E+02</totfact>
</mgrwt>
</event>
<event>
 4    1  0.2013882E-005  0.1078946E+04  0.7818608E-02  0.9225959E-01
         -2   -1    0    0    0  501 -0.00000000000E+00  0.00000000000E+00  0.14878887865E+03  0.14878887867E+03  0.25500000000E-02 0. -1.
          2   -1    0    0  501    0  0.00000000000E+00 -0.00000000000E+00 -0.19559991455E+04  0.19559991455E+04  0.25500000000E-02 0.  1.
    5000001    1    1    2    0    0  0.33651015893E+03 -0.37436886142E+03 -0.84927004910E+03  0.10057408949E+04  0.19200000000E+03 0.  0.
   -5000001    1    1    2    0    0 -0.33651015893E+03  0.37436886142E+03 -0.95794021773E+03  0.10990471292E+04  0.19200000000E+03 0.  0.
<mgrwt>
<rscale>  0 0.10789456E+04</rscale>
<asrwt>0</asrwt>
<pdfrwt beam="1">  1        2 0.27942843E+00 0.10789456E+04</pdfrwt>
<pdfrwt beam="2">  1       -2 0.21255555E-01 0.10789456E+04</pdfrwt>
<totfact> 0.16138687E+02</totfact>
</mgrwt>
</event>
<event>
 4    1  0.2013882E-005  0.6262134E+03  0.7818608E-02  0.9852466E-01
         -2   -1    0    0    0  501 -0.00000000000E+00  0.00000000000E+00  0.20822399600E+03  0.20822399602E+03  0.25500000000E-02 0. -1.
          2   -1    0    0  501    0  0.00000000000E+00 -0.00000000000E+00 -0.47081903159E+03  0.47081903160E+03  0.25500000000E-02 0.  1.
    5000001    1    1    2    0    0  0.19330234270E+03 -0.13000173432E+03 -0.41187145762E+02  0.30467462578E+03  0.19200000000E+03 0.  0.
   -5000001    1    1    2    0    0 -0.19330234270E+03  0.13000173432E+03 -0.22140788983E+03  0.37436840184E+03  0.19200000000E+03 0.  0.
<mgrwt>
<rscale>  0 0.62621345E+03</rscale>
<asrwt>0</asrwt>
<pdfrwt beam="1">  1        2 0.67259861E-01 0.62621345E+03</pdfrwt>
<pdfrwt beam="2">  1       -2 0.29746285E-01 0.62621345E+03</pdfrwt>
<totfact> 0.75212241E+02</totfact>
</mgrwt>
</event>
<event>
 4    1  0.2013882E-005  0.9673263E+03  0.7818608E-02  0.9345125E-01
         -2   -1    0    0    0  501 -0.00000000000E+00  0.00000000000E+00  0.18957696452E+03  0.18957696453E+03  0.25500000000E-02 0. -1.
          2   -1    0    0  501    0  0.00000000000E+00 -0.00000000000E+00 -0.12339581398E+04  0.12339581398E+04  0.25500000000E-02 0.  1.
    5000001    1    1    2    0    0  0.14924610310E+03 -0.18657998299E+03 -0.10727795295E+04  0.11157089263E+04  0.19200000000E+03 0.  0.
   -5000001    1    1    2    0    0 -0.14924610310E+03  0.18657998299E+03  0.28398354228E+02  0.30782617801E+03  0.19200000000E+03 0.  0.
<mgrwt>
<rscale>  0 0.96732629E+03</rscale>
<asrwt>0</asrwt>
<pdfrwt beam="1">  1        2 0.17627973E+00 0.96732629E+03</pdfrwt>
<pdfrwt beam="2">  1       -2 0.27082424E-01 0.96732629E+03</pdfrwt>
<totfact> 0.25257344E+02</totfact>
</mgrwt>
</event>
<event>
 4    1  0.2013882E-005  0.7782135E+03  0.7818608E-02  0.9592099E-01
         -2   -1    0    0    0  501 -0.00000000000E+00  0.00000000000E+00  0.14973338171E+03  0.14973338173E+03  0.25500000000E-02 0. -1.
          2   -1    0    0  501    0  0.00000000000E+00 -0.00000000000E+00 -0.10111576872E+04  0.10111576872E+04  0.25500000000E-02 0.  1.
    5000001    1    1    2    0    0 -0.17997739988E+03  0.22198684417E+03 -0.16025852762E+03  0.37975889605E+03  0.19200000000E+03 0.  0.
   -5000001    1    1    2    0    0  0.17997739988E+03 -0.22198684417E+03 -0.70116577784E+03  0.78113217285E+03  0.19200000000E+03 0.  0.
<mgrwt>
<rscale>  0 0.77821349E+03</rscale>
<asrwt>0</asrwt>
<pdfrwt beam="1">  1        2 0.14445109E+00 0.77821349E+03</pdfrwt>
<pdfrwt beam="2">  1       -2 0.21390484E-01 0.77821349E+03</pdfrwt>
<totfact> 0.52552459E+02</totfact>
</mgrwt>
</event>
<event>
 4    1  0.2013882E-005  0.9368682E+03  0.7818608E-02  0.9380633E-01
         -2   -1    0    0    0  501 -0.00000000000E+00  0.00000000000E+00  0.10857578759E+03  0.10857578762E+03  0.25500000000E-02 0. -1.
          2   -1    0    0  501    0  0.00000000000E+00 -0.00000000000E+00 -0.20209893022E+04  0.20209893022E+04  0.25500000000E-02 0.  1.
    5000001    1    1    2    0    0  0.39211965729E+03  0.16846485046E+03 -0.90916612460E+03  0.10225386416E+04  0.19200000000E+03 0.  0.
   -5000001    1    1    2    0    0 -0.39211965729E+03 -0.16846485046E+03 -0.10032473900E+04  0.11070264482E+04  0.19200000000E+03 0.  0.
<mgrwt>
<rscale>  0 0.93686820E+03</rscale>
<asrwt>0</asrwt>
<pdfrwt beam="1">  1        2 0.28871273E+00 0.93686820E+03</pdfrwt>
<pdfrwt beam="2">  1       -2 0.15510828E-01 0.93686820E+03</pdfrwt>
<totfact> 0.26084632E+02</totfact>
</mgrwt>
</event>
<event>
 4    1  0.2013882E-005  0.5350730E+03  0.7818608E-02  0.1005009E+00
          2   -1    0    0  501    0  0.00000000000E+00  0.00000000000E+00  0.11099463294E+04  0.11099463294E+04  0.25500000000E-02 0.  1.
         -2   -1    0    0    0  501 -0.00000000000E+00 -0.00000000000E+00 -0.64485801851E+02  0.64485801902E+02  0.25500000000E-02 0. -1.
    5000001    1    1    2    0    0 -0.10014380298E+03  0.14846626662E+03  0.40993787224E+03  0.48681009921E+03  0.19200000000E+03 0.  0.
   -5000001    1    1    2    0    0  0.10014380298E+03 -0.14846626662E+03  0.63552265526E+03  0.68762203204E+03  0.19200000000E+03 0.  0.
<mgrwt>
<rscale>  0 0.53507300E+03</rscale>
<asrwt>0</asrwt>
<pdfrwt beam="1">  1        2 0.15856375E+00 0.53507300E+03</pdfrwt>
<pdfrwt beam="2">  1       -2 0.92122578E-02 0.53507300E+03</pdfrwt>
<totfact> 0.19003628E+03</totfact>
</mgrwt>
</event>
<event>
 4    1  0.2013882E-005  0.5633637E+03  0.7818608E-02  0.9984472E-01
          2   -1    0    0  501    0  0.00000000000E+00  0.00000000000E+00  0.11475661246E+04  0.11475661246E+04  0.25500000000E-02 0.  1.
         -2   -1    0    0    0  501 -0.00000000000E+00 -0.00000000000E+00 -0.69141698607E+02  0.69141698654E+02  0.25500000000E-02 0. -1.
    5000001    1    1    2    0    0 -0.17485593980E+03 -0.73160549462E+02  0.71405091320E+03  0.76332153928E+03  0.19200000000E+03 0.  0.
   -5000001    1    1    2    0    0  0.17485593980E+03  0.73160549462E+02  0.36437351282E+03  0.45338628401E+03  0.19200000000E+03 0.  0.
<mgrwt>
<rscale>  0 0.56336372E+03</rscale>
<asrwt>0</asrwt>
<pdfrwt beam="1">  1        2 0.16393800E+00 0.56336372E+03</pdfrwt>
<pdfrwt beam="2">  1       -2 0.98773865E-02 0.56336372E+03</pdfrwt>
<totfact> 0.16153881E+03</totfact>
</mgrwt>
</event>
<event>
 4    1  0.2013882E-005  0.1027873E+04  0.7818608E-02  0.9278492E-01
          2   -1    0    0  501    0  0.00000000000E+00  0.00000000000E+00  0.57226209051E+04  0.57226209051E+04  0.25500000000E-02 0.  1.
         -2   -1    0    0    0  501 -0.00000000000E+00 -0.00000000000E+00 -0.46155562852E+02  0.46155562923E+02  0.25500000000E-02 0. -1.
    5000001    1    1    2    0    0 -0.16699641671E+03  0.38438627207E+03  0.41134352883E+04  0.41391852435E+04  0.19200000000E+03 0.  0.
   -5000001    1    1    2    0    0  0.16699641671E+03 -0.38438627207E+03  0.15630300540E+04  0.16295912245E+04  0.19200000000E+03 0.  0.
<mgrwt>
<rscale>  0 0.10278731E+04</rscale>
<asrwt>0</asrwt>
<pdfrwt beam="1">  1        2 0.81751709E+00 0.10278731E+04</pdfrwt>
<pdfrwt beam="2">  1       -2 0.65936533E-02 0.10278731E+04</pdfrwt>
<totfact> 0.18799175E+00</totfact>
</mgrwt>
</event>
<event>
 4    1  0.2013882E-005  0.5676935E+03  0.7818608E-02  0.9974795E-01
         -2   -1    0    0    0  501 -0.00000000000E+00  0.00000000000E+00  0.71445025842E+02  0.71445025888E+02  0.25500000000E-02 0. -1.
          2   -1    0    0  501    0  0.00000000000E+00 -0.00000000000E+00 -0.11277060900E+04  0.11277060900E+04  0.25500000000E-02 0.  1.
    5000001    1    1    2    0    0  0.12409448545E+03 -0.96312587595E+02 -0.23674169878E+03  0.34290842479E+03  0.19200000000E+03 0.  0.
   -5000001    1    1    2    0    0 -0.12409448545E+03  0.96312587595E+02 -0.81951936542E+03  0.85624269115E+03  0.19200000000E+03 0.  0.
<mgrwt>
<rscale>  0 0.56769355E+03</rscale>
<asrwt>0</asrwt>
<pdfrwt beam="1">  1        2 0.16110086E+00 0.56769355E+03</pdfrwt>
<pdfrwt beam="2">  1       -2 0.10206433E-01 0.56769355E+03</pdfrwt>
<totfact> 0.15723605E+03</totfact>
</mgrwt>
</event>
<event>
 4    1  0.2013882E-005  0.4274487E+03  0.7818608E-02  0.1034669E+00
         -2   -1    0    0    0  501 -0.00000000000E+00  0.00000000000E+00  0.49127080069E+02  0.49127080136E+02  0.25500000000E-02 0. -1.
          2   -1    0    0  501    0  0.00000000000E+00 -0.00000000000E+00 -0.92979448218E+03  0.92979448219E+03  0.25500000000E-02 0.  1.
    5000001    1    1    2    0    0 -0.60794812353E+02  0.71473330330E+02 -0.44744492167E+03  0.49585824999E+03  0.19200000000E+03 0.  0.
   -5000001    1    1    2    0    0  0.60794812353E+02 -0.71473330330E+02 -0.43322248045E+03  0.48306331233E+03  0.19200000000E+03 0.  0.
<mgrwt>
<rscale>  0 0.42744865E+03</rscale>
<asrwt>0</asrwt>
<pdfrwt beam="1">  1        2 0.13282777E+00 0.42744865E+03</pdfrwt>
<pdfrwt beam="2">  1       -2 0.70181549E-02 0.42744865E+03</pdfrwt>
<totfact> 0.37502634E+03</totfact>
</mgrwt>
</event>
<event>
 4    1  0.2013882E-005  0.6190127E+03  0.7818608E-02  0.9866727E-01
          2   -1    0    0  501    0  0.00000000000E+00  0.00000000000E+00  0.12307534409E+04  0.12307534409E+04  0.25500000000E-02 0.  1.
         -2   -1    0    0    0  501 -0.00000000000E+00 -0.00000000000E+00 -0.77833759252E+02  0.77833759294E+02  0.25500000000E-02 0. -1.
    5000001    1    1    2    0    0  0.72379538809E+02 -0.16849858567E+03  0.91270801351E+03  0.95054220787E+03  0.19200000000E+03 0.  0.
   -5000001    1    1    2    0    0 -0.72379538809E+02  0.16849858567E+03  0.24021166809E+03  0.35804499228E+03  0.19200000000E+03 0.  0.
<mgrwt>
<rscale>  0 0.61901266E+03</rscale>
<asrwt>0</asrwt>
<pdfrwt beam="1">  1        2 0.17582190E+00 0.61901266E+03</pdfrwt>
<pdfrwt beam="2">  1       -2 0.11119110E-01 0.61901266E+03</pdfrwt>
<totfact> 0.11946856E+03</totfact>
</mgrwt>
</event>
<event>
 4    1  0.2013882E-005  0.4528056E+03  0.7818608E-02  0.1026889E+00
         -2   -1    0    0    0  501 -0.00000000000E+00  0.00000000000E+00  0.22821651762E+02  0.22821651905E+02  0.25500000000E-02 0. -1.
          2   -1    0    0  501    0  0.00000000000E+00 -0.00000000000E+00 -0.22460350492E+04  0.22460350492E+04  0.25500000000E-02 0.  1.
    5000001    1    1    2    0    0  0.11968534876E+03  0.27741494276E+01 -0.10721681943E+04  0.10957832429E+04  0.19200000000E+03 0.  0.
   -5000001    1    1    2    0    0 -0.11968534876E+03 -0.27741494276E+01 -0.11510452031E+04  0.11730734581E+04  0.19200000000E+03 0.  0.
<mgrwt>
<rscale>  0 0.45280561E+03</rscale>
<asrwt>0</asrwt>
<pdfrwt beam="1">  1        2 0.32086201E+00 0.45280561E+03</pdfrwt>
<pdfrwt beam="2">  1       -2 0.32602374E-02 0.45280561E+03</pdfrwt>
<totfact> 0.24807368E+03</totfact>
</mgrwt>
</event>
<event>
 4    1  0.2013882E-005  0.4386066E+03  0.7818608E-02  0.1031175E+00
         -2   -1    0    0    0  501 -0.00000000000E+00  0.00000000000E+00  0.26843703490E+02  0.26843703611E+02  0.25500000000E-02 0. -1.
          2   -1    0    0  501    0  0.00000000000E+00 -0.00000000000E+00 -0.17916286399E+04  0.17916286399E+04  0.25500000000E-02 0.  1.
    5000001    1    1    2    0    0 -0.74347657892E+02 -0.66652657489E+02 -0.10295497617E+04  0.10520488881E+04  0.19200000000E+03 0.  0.
   -5000001    1    1    2    0    0  0.74347657892E+02  0.66652657489E+02 -0.73523517465E+03  0.76642345542E+03  0.19200000000E+03 0.  0.
<mgrwt>
<rscale>  0 0.43860665E+03</rscale>
<asrwt>0</asrwt>
<pdfrwt beam="1">  1        2 0.25594687E+00 0.43860665E+03</pdfrwt>
<pdfrwt beam="2">  1       -2 0.38348159E-02 0.43860665E+03</pdfrwt>
<totfact> 0.32653366E+03</totfact>
</mgrwt>
</event>
<event>
 4    1  0.2013882E-005  0.9855514E+03  0.7818608E-02  0.9324535E-01
         -2   -1    0    0    0  501 -0.00000000000E+00  0.00000000000E+00  0.36488573708E+03  0.36488573709E+03  0.25500000000E-02 0. -1.
          2   -1    0    0  501    0  0.00000000000E+00 -0.00000000000E+00 -0.66549016757E+03  0.66549016757E+03  0.25500000000E-02 0.  1.
    5000001    1    1    2    0    0 -0.13534425276E+03  0.42313683665E+03 -0.24726195425E+03  0.54347522787E+03  0.19200000000E+03 0.  0.
   -5000001    1    1    2    0    0  0.13534425276E+03 -0.42313683665E+03 -0.53342476236E+02  0.48690067679E+03  0.19200000000E+03 0.  0.
<mgrwt>
<rscale>  0 0.98555136E+03</rscale>
<asrwt>0</asrwt>
<pdfrwt beam="1">  1        2 0.95070024E-01 0.98555136E+03</pdfrwt>
<pdfrwt beam="2">  1       -2 0.52126534E-01 0.98555136E+03</pdfrwt>
<totfact> 0.16624929E+02</totfact>
</mgrwt>
</event>
<event>
 4    1  0.2013882E-005  0.7080459E+03  0.7818608E-02  0.9703571E-01
          2   -1    0    0  501    0  0.00000000000E+00  0.00000000000E+00  0.11840508880E+04  0.11840508880E+04  0.25500000000E-02 0.  1.
         -2   -1    0    0    0  501 -0.00000000000E+00 -0.00000000000E+00 -0.10585037673E+03  0.10585037676E+03  0.25500000000E-02 0. -1.
    5000001    1    1    2    0    0 -0.18474080138E+03 -0.17425690883E+03  0.82117337404E+03  0.88072943870E+03  0.19200000000E+03 0.  0.
   -5000001    1    1    2    0    0  0.18474080138E+03  0.17425690883E+03  0.25702713723E+03  0.40917182606E+03  0.19200000000E+03 0.  0.
<mgrwt>
<rscale>  0 0.70804585E+03</rscale>
<asrwt>0</asrwt>
<pdfrwt beam="1">  1        2 0.16915012E+00 0.70804585E+03</pdfrwt>
<pdfrwt beam="2">  1       -2 0.15121483E-01 0.70804585E+03</pdfrwt>
<totfact> 0.75891414E+02</totfact>
</mgrwt>
</event>
<event>
 4    1  0.2013882E-005  0.6300653E+03  0.7818608E-02  0.9844921E-01
          2   -1    0    0  501    0  0.00000000000E+00  0.00000000000E+00  0.26238536733E+04  0.26238536733E+04  0.25500000000E-02 0.  1.
         -2   -1    0    0    0  501 -0.00000000000E+00 -0.00000000000E+00 -0.37824357000E+02  0.37824357086E+02  0.25500000000E-02 0. -1.
    5000001    1    1    2    0    0  0.12276499845E+03 -0.11542218127E+03  0.20718274698E+04  0.20875168477E+04  0.19200000000E+03 0.  0.
   -5000001    1    1    2    0    0 -0.12276499845E+03  0.11542218127E+03  0.51420184651E+03  0.57416118271E+03  0.19200000000E+03 0.  0.
<mgrwt>
<rscale>  0 0.63006532E+03</rscale>
<asrwt>0</asrwt>
<pdfrwt beam="1">  1        2 0.37483633E+00 0.63006532E+03</pdfrwt>
<pdfrwt beam="2">  1       -2 0.54034783E-02 0.63006532E+03</pdfrwt>
<totfact> 0.72481196E+02</totfact>
</mgrwt>
</event>
<event>
 4    1  0.2013882E-005  0.6980897E+03  0.7818608E-02  0.9720505E-01
         -2   -1    0    0    0  501 -0.00000000000E+00  0.00000000000E+00  0.19070387954E+03  0.19070387956E+03  0.25500000000E-02 0. -1.
          2   -1    0    0  501    0  0.00000000000E+00 -0.00000000000E+00 -0.63885588667E+03  0.63885588668E+03  0.25500000000E-02 0.  1.
    5000001    1    1    2    0    0  0.25558106607E+03  0.30813214844E+02 -0.38656512806E+03  0.50256117416E+03  0.19200000000E+03 0.  0.
   -5000001    1    1    2    0    0 -0.25558106607E+03 -0.30813214844E+02 -0.61586879078E+02  0.32699859207E+03  0.19200000000E+03 0.  0.
<mgrwt>
<rscale>  0 0.69808967E+03</rscale>
<asrwt>0</asrwt>
<pdfrwt beam="1">  1        2 0.91265126E-01 0.69808967E+03</pdfrwt>
<pdfrwt beam="2">  1       -2 0.27243412E-01 0.69808967E+03</pdfrwt>
<totfact> 0.61913704E+02</totfact>
</mgrwt>
</event>
<event>
 4    1  0.2013882E-005  0.5418520E+03  0.7818608E-02  0.1003398E+00
         -2   -1    0    0    0  501 -0.00000000000E+00  0.00000000000E+00  0.64651815679E+02  0.64651815729E+02  0.25500000000E-02 0. -1.
          2   -1    0    0  501    0  0.00000000000E+00 -0.00000000000E+00 -0.11353260141E+04  0.11353260141E+04  0.25500000000E-02 0.  1.
    5000001    1    1    2    0    0  0.66507609996E+02 -0.17919575050E+03 -0.53884499797E+03  0.60311881998E+03  0.19200000000E+03 0.  0.
   -5000001    1    1    2    0    0 -0.66507609996E+02  0.17919575050E+03 -0.53182920048E+03  0.59685900987E+03  0.19200000000E+03 0.  0.
<mgrwt>
<rscale>  0 0.54185197E+03</rscale>
<asrwt>0</asrwt>
<pdfrwt beam="1">  1        2 0.16218942E+00 0.54185197E+03</pdfrwt>
<pdfrwt beam="2">  1       -2 0.92359744E-02 0.54185197E+03</pdfrwt>
<totfact> 0.18299065E+03</totfact>
</mgrwt>
</event>
<event>
 4    1  0.2013882E-005  0.4075383E+03  0.7818608E-02  0.1041200E+00
          2   -1    0    0  501    0  0.00000000000E+00  0.00000000000E+00  0.20348608471E+03  0.20348608472E+03  0.25500000000E-02 0.  1.
         -2   -1    0    0    0  501 -0.00000000000E+00 -0.00000000000E+00 -0.20405255935E+03  0.20405255937E+03  0.25500000000E-02 0. -1.
    5000001    1    1    2    0    0 -0.47686813001E+02 -0.26190049613E+02 -0.41488926628E+02  0.20382659754E+03  0.19200000000E+03 0.  0.
   -5000001    1    1    2    0    0  0.47686813001E+02  0.26190049613E+02  0.40922451985E+02  0.20371204655E+03  0.19200000000E+03 0.  0.
<mgrwt>
<rscale>  0 0.40753825E+03</rscale>
<asrwt>0</asrwt>
<pdfrwt beam="1">  1        2 0.29069441E-01 0.40753825E+03</pdfrwt>
<pdfrwt beam="2">  1       -2 0.29150366E-01 0.40753825E+03</pdfrwt>
<totfact> 0.19730006E+03</totfact>
</mgrwt>
</event>
<event>
 4    1  0.2013882E-005  0.8300769E+03  0.7818608E-02  0.9517474E-01
         -2   -1    0    0    0  501 -0.00000000000E+00  0.00000000000E+00  0.17174169813E+03  0.17174169815E+03  0.25500000000E-02 0.  1.
          2   -1    0    0  501    0  0.00000000000E+00 -0.00000000000E+00 -0.10029998335E+04  0.10029998335E+04  0.25500000000E-02 0. -1.
    5000001    1    1    2    0    0 -0.36828612326E+02 -0.23538663718E+03 -0.18787394722E+02  0.30656187279E+03  0.19200000000E+03 0.  0.
   -5000001    1    1    2    0    0  0.36828612326E+02  0.23538663718E+03 -0.81247074063E+03  0.86817965885E+03  0.19200000000E+03 0.  0.
<mgrwt>
<rscale>  0 0.83007685E+03</rscale>
<asrwt>0</asrwt>
<pdfrwt beam="1">  1        2 0.14328569E+00 0.83007685E+03</pdfrwt>
<pdfrwt beam="2">  1       -2 0.24534529E-01 0.83007685E+03</pdfrwt>
<totfact> 0.41544763E+02</totfact>
</mgrwt>
</event>
<event>
 4    1  0.2013882E-005  0.4573187E+03  0.7818608E-02  0.1025562E+00
          2   -1    0    0  501    0  0.00000000000E+00  0.00000000000E+00  0.35252243771E+03  0.35252243772E+03  0.25500000000E-02 0.  1.
         -2   -1    0    0    0  501 -0.00000000000E+00 -0.00000000000E+00 -0.14831710301E+03  0.14831710303E+03  0.25500000000E-02 0. -1.
    5000001    1    1    2    0    0 -0.55277430510E+01 -0.10318980490E+03  0.26683907228E+02  0.21966957615E+03  0.19200000000E+03 0.  0.
   -5000001    1    1    2    0    0  0.55277430510E+01  0.10318980490E+03  0.17752142747E+03  0.28116996460E+03  0.19200000000E+03 0.  0.
<mgrwt>
<rscale>  0 0.45731874E+03</rscale>
<asrwt>0</asrwt>
<pdfrwt beam="1">  1        2 0.50360347E-01 0.45731874E+03</pdfrwt>
<pdfrwt beam="2">  1       -2 0.21188158E-01 0.45731874E+03</pdfrwt>
<totfact> 0.19062176E+03</totfact>
</mgrwt>
</event>
<event>
 4    1  0.2013882E-005  0.4440918E+03  0.7818608E-02  0.1029499E+00
          2   -1    0    0  501    0  0.00000000000E+00  0.00000000000E+00  0.58825955924E+03  0.58825955925E+03  0.25500000000E-02 0.  1.
         -2   -1    0    0    0  501 -0.00000000000E+00 -0.00000000000E+00 -0.83813977443E+02  0.83813977482E+02  0.25500000000E-02 0. -1.
    5000001    1    1    2    0    0 -0.31414069569E+02  0.85816408591E+02  0.15544926913E+03  0.26340040817E+03  0.19200000000E+03 0.  0.
   -5000001    1    1    2    0    0  0.31414069569E+02 -0.85816408591E+02  0.34899631267E+03  0.40867312856E+03  0.19200000000E+03 0.  0.
<mgrwt>
<rscale>  0 0.44409176E+03</rscale>
<asrwt>0</asrwt>
<pdfrwt beam="1">  1        2 0.84037083E-01 0.44409176E+03</pdfrwt>
<pdfrwt beam="2">  1       -2 0.11973425E-01 0.44409176E+03</pdfrwt>
<totfact> 0.28125738E+03</totfact>
</mgrwt>
</event>
<event>
 4    1  0.2013882E-005  0.5665940E+03  0.7818608E-02  0.9977244E-01
         -2   -1    0    0    0  501 -0.00000000000E+00  0.00000000000E+00  0.13152303862E+03  0.13152303865E+03  0.25500000000E-02 0. -1.
          2   -1    0    0  501    0  0.00000000000E+00 -0.00000000000E+00 -0.61021402826E+03  0.61021402827E+03  0.25500000000E-02 0.  1.
    5000001    1    1    2    0    0  0.12641012047E+03 -0.12913091124E+03 -0.37500734075E+03  0.45841991275E+03  0.19200000000E+03 0.  0.
   -5000001    1    1    2    0    0 -0.12641012047E+03  0.12913091124E+03 -0.10368364889E+03  0.28331715416E+03  0.19200000000E+03 0.  0.
<mgrwt>
<rscale>  0 0.56659405E+03</rscale>
<asrwt>0</asrwt>
<pdfrwt beam="1">  1        2 0.87173431E-01 0.56659405E+03</pdfrwt>
<pdfrwt beam="2">  1       -2 0.18789006E-01 0.56659405E+03</pdfrwt>
<totfact> 0.12663607E+03</totfact>
</mgrwt>
</event>
<event>
 4    1  0.2013882E-005  0.6514526E+03  0.7818608E-02  0.9804057E-01
         -2   -1    0    0    0  501 -0.00000000000E+00  0.00000000000E+00  0.78147739017E+03  0.78147739017E+03  0.25500000000E-02 0. -1.
          2   -1    0    0  501    0  0.00000000000E+00 -0.00000000000E+00 -0.13576545638E+03  0.13576545640E+03  0.25500000000E-02 0.  1.
    5000001    1    1    2    0    0  0.54906738331E+02  0.25465160638E+03  0.27071362593E+03  0.42191475183E+03  0.19200000000E+03 0.  0.
   -5000001    1    1    2    0    0 -0.54906738331E+02 -0.25465160638E+03  0.37499830786E+03  0.49532809474E+03  0.19200000000E+03 0.  0.
<mgrwt>
<rscale>  0 0.65145264E+03</rscale>
<asrwt>0</asrwt>
<pdfrwt beam="1">  1        2 0.19395065E-01 0.65145264E+03</pdfrwt>
<pdfrwt beam="2">  1       -2 0.11163963E+00 0.65145264E+03</pdfrwt>
<totfact> 0.18893625E+02</totfact>
</mgrwt>
</event>
<event>
 4    1  0.2013882E-005  0.6210425E+03  0.7818608E-02  0.9862686E-01
         -2   -1    0    0    0  501 -0.00000000000E+00  0.00000000000E+00  0.30855272918E+03  0.30855272919E+03  0.25500000000E-02 0. -1.
          2   -1    0    0  501    0  0.00000000000E+00 -0.00000000000E+00 -0.31250235660E+03  0.31250235661E+03  0.25500000000E-02 0.  1.
    5000001    1    1    2    0    0 -0.10787593182E+03  0.18984793216E+03  0.10702280777E+03  0.30983436768E+03  0.19200000000E+03 0.  0.
   -5000001    1    1    2    0    0  0.10787593182E+03 -0.18984793216E+03 -0.11097243519E+03  0.31122071811E+03  0.19200000000E+03 0.  0.
<mgrwt>
<rscale>  0 0.62104253E+03</rscale>
<asrwt>0</asrwt>
<pdfrwt beam="1">  1        2 0.44643194E-01 0.62104253E+03</pdfrwt>
<pdfrwt beam="2">  1       -2 0.44078961E-01 0.62104253E+03</pdfrwt>
<totfact> 0.56011892E+02</totfact>
</mgrwt>
</event>
<event>
 4    1  0.2013882E-005  0.4327051E+03  0.7818608E-02  0.1033009E+00
          2   -1    0    0  501    0  0.00000000000E+00  0.00000000000E+00  0.27619269924E+04  0.27619269924E+04  0.25500000000E-02 0.  1.
         -2   -1    0    0    0  501 -0.00000000000E+00 -0.00000000000E+00 -0.16947744834E+02  0.16947745026E+02  0.25500000000E-02 0. -1.
    5000001    1    1    2    0    0  0.14039005675E+02  0.81855137450E+02  0.10179876715E+04  0.10392594751E+04  0.19200000000E+03 0.  0.
   -5000001    1    1    2    0    0 -0.14039005675E+02 -0.81855137450E+02  0.17269915761E+04  0.17396152624E+04  0.19200000000E+03 0.  0.
<mgrwt>
<rscale>  0 0.43270514E+03</rscale>
<asrwt>0</asrwt>
<pdfrwt beam="1">  1        2 0.39456063E+00 0.43270514E+03</pdfrwt>
<pdfrwt beam="2">  1       -2 0.24211087E-02 0.43270514E+03</pdfrwt>
<totfact> 0.21240495E+03</totfact>
</mgrwt>
</event>
<event>
 4    1  0.2013882E-005  0.5505906E+03  0.7818608E-02  0.1001357E+00
          2   -1    0    0  501    0  0.00000000000E+00  0.00000000000E+00  0.10165946021E+04  0.10165946021E+04  0.25500000000E-02 0.  1.
         -2   -1    0    0    0  501 -0.00000000000E+00 -0.00000000000E+00 -0.74550357828E+02  0.74550357871E+02  0.25500000000E-02 0. -1.
    5000001    1    1    2    0    0 -0.17444027861E+03  0.72203149168E+02  0.35750989902E+03  0.44757126075E+03  0.19200000000E+03 0.  0.
   -5000001    1    1    2    0    0  0.17444027861E+03 -0.72203149168E+02  0.58453434520E+03  0.64357369918E+03  0.19200000000E+03 0.  0.
<mgrwt>
<rscale>  0 0.55059056E+03</rscale>
<asrwt>0</asrwt>
<pdfrwt beam="1">  1        2 0.14522779E+00 0.55059056E+03</pdfrwt>
<pdfrwt beam="2">  1       -2 0.10650052E-01 0.55059056E+03</pdfrwt>
<totfact> 0.17058975E+03</totfact>
</mgrwt>
</event>
<event>
 4    1  0.2013882E-005  0.4970869E+03  0.7818608E-02  0.1014542E+00
         -2   -1    0    0    0  501 -0.00000000000E+00  0.00000000000E+00  0.60985537063E+02  0.60985537116E+02  0.25500000000E-02 0. -1.
          2   -1    0    0  501    0  0.00000000000E+00 -0.00000000000E+00 -0.10129260833E+04  0.10129260833E+04  0.25500000000E-02 0.  1.
    5000001    1    1    2    0    0 -0.98670302210E+02 -0.98530188330E+02 -0.63569188831E+03  0.67853681065E+03  0.19200000000E+03 0.  0.
   -5000001    1    1    2    0    0  0.98670302210E+02  0.98530188330E+02 -0.31624865789E+03  0.39537480973E+03  0.19200000000E+03 0.  0.
<mgrwt>
<rscale>  0 0.49708688E+03</rscale>
<asrwt>0</asrwt>
<pdfrwt beam="1">  1        2 0.14470372E+00 0.49708688E+03</pdfrwt>
<pdfrwt beam="2">  1       -2 0.87122202E-02 0.49708688E+03</pdfrwt>
<totfact> 0.23707397E+03</totfact>
</mgrwt>
</event>
<event>
 4    1  0.2013882E-005  0.5051224E+03  0.7818608E-02  0.1012450E+00
         -2   -1    0    0    0  501 -0.00000000000E+00  0.00000000000E+00  0.20049407400E+03  0.20049407402E+03  0.25500000000E-02 0. -1.
          2   -1    0    0  501    0  0.00000000000E+00 -0.00000000000E+00 -0.31814985221E+03  0.31814985222E+03  0.25500000000E-02 0.  1.
    5000001    1    1    2    0    0  0.27998066927E+02 -0.14083532618E+03 -0.14035539620E+03  0.27781669873E+03  0.19200000000E+03 0.  0.
   -5000001    1    1    2    0    0 -0.27998066927E+02  0.14083532618E+03  0.22699617992E+02  0.24082722751E+03  0.19200000000E+03 0.  0.
<mgrwt>
<rscale>  0 0.50512240E+03</rscale>
<asrwt>0</asrwt>
<pdfrwt beam="1">  1        2 0.45449979E-01 0.50512240E+03</pdfrwt>
<pdfrwt beam="2">  1       -2 0.28642011E-01 0.50512240E+03</pdfrwt>
<totfact> 0.12465993E+03</totfact>
</mgrwt>
</event>
<event>
 4    1  0.2013882E-005  0.4446357E+03  0.7818608E-02  0.1029334E+00
         -2   -1    0    0    0  501 -0.00000000000E+00  0.00000000000E+00  0.18102031070E+03  0.18102031072E+03  0.25500000000E-02 0. -1.
          2   -1    0    0  501    0  0.00000000000E+00 -0.00000000000E+00 -0.27303690530E+03  0.27303690531E+03  0.25500000000E-02 0.  1.
    5000001    1    1    2    0    0 -0.94299657910E+02 -0.57527938956E+02 -0.26650464264E+02  0.22310566216E+03  0.19200000000E+03 0.  0.
   -5000001    1    1    2    0    0  0.94299657910E+02  0.57527938956E+02 -0.65366130335E+02  0.23095155388E+03  0.19200000000E+03 0.  0.
<mgrwt>
<rscale>  0 0.44463570E+03</rscale>
<asrwt>0</asrwt>
<pdfrwt beam="1">  1        2 0.39005272E-01 0.44463570E+03</pdfrwt>
<pdfrwt beam="2">  1       -2 0.25860044E-01 0.44463570E+03</pdfrwt>
<totfact> 0.17722825E+03</totfact>
</mgrwt>
</event>
<event>
 4    1  0.2013882E-005  0.5159341E+03  0.7818608E-02  0.1009702E+00
          2   -1    0    0  501    0  0.00000000000E+00  0.00000000000E+00  0.66568479748E+03  0.66568479748E+03  0.25500000000E-02 0.  1.
         -2   -1    0    0    0  501 -0.00000000000E+00 -0.00000000000E+00 -0.99967738980E+02  0.99967739013E+02  0.25500000000E-02 0. -1.
    5000001    1    1    2    0    0  0.13885734548E+03  0.80566244929E+02  0.37566236807E+03  0.45139616413E+03  0.19200000000E+03 0.  0.
   -5000001    1    1    2    0    0 -0.13885734548E+03 -0.80566244929E+02  0.19005469043E+03  0.31425637236E+03  0.19200000000E+03 0.  0.
<mgrwt>
<rscale>  0 0.51593412E+03</rscale>
<asrwt>0</asrwt>
<pdfrwt beam="1">  1        2 0.95097826E-01 0.51593412E+03</pdfrwt>
<pdfrwt beam="2">  1       -2 0.14281106E-01 0.51593412E+03</pdfrwt>
<totfact> 0.18187968E+03</totfact>
</mgrwt>
</event>
<event>
 4    1  0.2013882E-005  0.5873349E+03  0.7818608E-02  0.9932036E-01
          2   -1    0    0  501    0  0.00000000000E+00  0.00000000000E+00  0.49459025695E+03  0.49459025696E+03  0.25500000000E-02 0.  1.
         -2   -1    0    0    0  501 -0.00000000000E+00 -0.00000000000E+00 -0.17436771656E+03  0.17436771658E+03  0.25500000000E-02 0. -1.
    5000001    1    1    2    0    0  0.50380810620E+02  0.20341208853E+03  0.24428638088E+03  0.37477265072E+03  0.19200000000E+03 0.  0.
   -5000001    1    1    2    0    0 -0.50380810620E+02 -0.20341208853E+03  0.75936159506E+02  0.29418532282E+03  0.19200000000E+03 0.  0.
<mgrwt>
<rscale>  0 0.58733491E+03</rscale>
<asrwt>0</asrwt>
<pdfrwt beam="1">  1        2 0.70655752E-01 0.58733491E+03</pdfrwt>
<pdfrwt beam="2">  1       -2 0.24909674E-01 0.58733491E+03</pdfrwt>
<totfact> 0.98289808E+02</totfact>
</mgrwt>
</event>
<event>
 4    1  0.2013882E-005  0.8680426E+03  0.7818608E-02  0.9466436E-01
         -2   -1    0    0    0  501 -0.00000000000E+00  0.00000000000E+00  0.88975513396E+02  0.88975513433E+02  0.25500000000E-02 0. -1.
          2   -1    0    0  501    0  0.00000000000E+00 -0.00000000000E+00 -0.21171497664E+04  0.21171497664E+04  0.25500000000E-02 0.  1.
    5000001    1    1    2    0    0  0.25501333220E+03 -0.21811073651E+03 -0.51278490803E+03  0.64219658586E+03  0.19200000000E+03 0.  0.
   -5000001    1    1    2    0    0 -0.25501333220E+03  0.21811073651E+03 -0.15153893449E+04  0.15639286939E+04  0.19200000000E+03 0.  0.
<mgrwt>
<rscale>  0 0.86804260E+03</rscale>
<asrwt>0</asrwt>
<pdfrwt beam="1">  1        2 0.30244994E+00 0.86804260E+03</pdfrwt>
<pdfrwt beam="2">  1       -2 0.12710789E-01 0.86804260E+03</pdfrwt>
<totfact> 0.32742119E+02</totfact>
</mgrwt>
</event>
<event>
 4    1  0.2013882E-005  0.6159224E+03  0.7818608E-02  0.9872912E-01
         -2   -1    0    0    0  501 -0.00000000000E+00  0.00000000000E+00  0.37704669155E+02  0.37704669241E+02  0.25500000000E-02 0. -1.
          2   -1    0    0  501    0  0.00000000000E+00 -0.00000000000E+00 -0.25153413134E+04  0.25153413134E+04  0.25500000000E-02 0.  1.
    5000001    1    1    2    0    0  0.55934463569E+02 -0.20273777658E+03 -0.17247805181E+04  0.17481313182E+04  0.19200000000E+03 0.  0.
   -5000001    1    1    2    0    0 -0.55934463569E+02  0.20273777658E+03 -0.75285612617E+03  0.80491466441E+03  0.19200000000E+03 0.  0.
<mgrwt>
<rscale>  0 0.61592244E+03</rscale>
<asrwt>0</asrwt>
<pdfrwt beam="1">  1        2 0.35933437E+00 0.61592244E+03</pdfrwt>
<pdfrwt beam="2">  1       -2 0.53863829E-02 0.61592244E+03</pdfrwt>
<totfact> 0.82974683E+02</totfact>
</mgrwt>
</event>
<event>
 4    1  0.2013882E-005  0.4715654E+03  0.7818608E-02  0.1021479E+00
          2   -1    0    0  501    0  0.00000000000E+00  0.00000000000E+00  0.29547728960E+04  0.29547728960E+04  0.25500000000E-02 0.  1.
         -2   -1    0    0    0  501 -0.00000000000E+00 -0.00000000000E+00 -0.18814807511E+02  0.18814807684E+02  0.25500000000E-02 0. -1.
    5000001    1    1    2    0    0  0.26765257173E+02 -0.13392752448E+03  0.14128178020E+04  0.14323306540E+04  0.19200000000E+03 0.  0.
   -5000001    1    1    2    0    0 -0.26765257173E+02  0.13392752448E+03  0.15231402865E+04  0.15412570497E+04  0.19200000000E+03 0.  0.
<mgrwt>
<rscale>  0 0.47156541E+03</rscale>
<asrwt>0</asrwt>
<pdfrwt beam="1">  1        2 0.42210986E+00 0.47156541E+03</pdfrwt>
<pdfrwt beam="2">  1       -2 0.26878332E-02 0.47156541E+03</pdfrwt>
<totfact> 0.14311377E+03</totfact>
</mgrwt>
</event>
<event>
 4    1  0.2013882E-005  0.6057010E+03  0.7818608E-02  0.9893648E-01
         -2   -1    0    0    0  501 -0.00000000000E+00  0.00000000000E+00  0.35763368615E+02  0.35763368706E+02  0.25500000000E-02 0. -1.
          2   -1    0    0  501    0  0.00000000000E+00 -0.00000000000E+00 -0.25645917171E+04  0.25645917171E+04  0.25500000000E-02 0.  1.
    5000001    1    1    2    0    0  0.92558561551E+01 -0.22107767438E+03 -0.93483603292E+03  0.97966495162E+03  0.19200000000E+03 0.  0.
   -5000001    1    1    2    0    0 -0.92558561551E+01  0.22107767438E+03 -0.15939923156E+04  0.16206901342E+04  0.19200000000E+03 0.  0.
<mgrwt>
<rscale>  0 0.60570105E+03</rscale>
<asrwt>0</asrwt>
<pdfrwt beam="1">  1        2 0.36637013E+00 0.60570105E+03</pdfrwt>
<pdfrwt beam="2">  1       -2 0.51090543E-02 0.60570105E+03</pdfrwt>
<totfact> 0.85038383E+02</totfact>
</mgrwt>
</event>
<event>
 4    1  0.2013882E-005  0.5779595E+03  0.7818608E-02  0.9952219E-01
         -2   -1    0    0    0  501 -0.00000000000E+00  0.00000000000E+00  0.37690530100E+02  0.37690530186E+02  0.25500000000E-02 0. -1.
          2   -1    0    0  501    0  0.00000000000E+00 -0.00000000000E+00 -0.22156569494E+04  0.22156569494E+04  0.25500000000E-02 0.  1.
    5000001    1    1    2    0    0  0.13013338156E+03 -0.19960489694E+02 -0.42147785849E+03  0.48149839392E+03  0.19200000000E+03 0.  0.
   -5000001    1    1    2    0    0 -0.13013338156E+03  0.19960489694E+02 -0.17564885608E+04  0.17718490857E+04  0.19200000000E+03 0.  0.
<mgrwt>
<rscale>  0 0.57795946E+03</rscale>
<asrwt>0</asrwt>
<pdfrwt beam="1">  1        2 0.31652234E+00 0.57795946E+03</pdfrwt>
<pdfrwt beam="2">  1       -2 0.53843629E-02 0.57795946E+03</pdfrwt>
<totfact> 0.11820620E+03</totfact>
</mgrwt>
</event>
<event>
 4    1  0.2013882E-005  0.4300602E+03  0.7818608E-02  0.1033841E+00
         -2   -1    0    0    0  501 -0.00000000000E+00  0.00000000000E+00  0.11305735587E+03  0.11305735590E+03  0.25500000000E-02 0. -1.
          2   -1    0    0  501    0  0.00000000000E+00 -0.00000000000E+00 -0.40897766752E+03  0.40897766753E+03  0.25500000000E-02 0.  1.
    5000001    1    1    2    0    0 -0.51615091729E+02 -0.81614811411E+02 -0.13947710787E+03  0.25620881865E+03  0.19200000000E+03 0.  0.
   -5000001    1    1    2    0    0  0.51615091729E+02  0.81614811411E+02 -0.15644320378E+03  0.26582620478E+03  0.19200000000E+03 0.  0.
<mgrwt>
<rscale>  0 0.43006015E+03</rscale>
<asrwt>0</asrwt>
<pdfrwt beam="1">  1        2 0.58425381E-01 0.43006015E+03</pdfrwt>
<pdfrwt beam="2">  1       -2 0.16151051E-01 0.43006015E+03</pdfrwt>
<totfact> 0.25762824E+03</totfact>
</mgrwt>
</event>
<event>
 4    1  0.2013882E-005  0.7472695E+03  0.7818608E-02  0.9639644E-01
          2   -1    0    0  501    0  0.00000000000E+00  0.00000000000E+00  0.14758920346E+04  0.14758920346E+04  0.25500000000E-02 0.  1.
         -2   -1    0    0    0  501 -0.00000000000E+00 -0.00000000000E+00 -0.94588851697E+02  0.94588851732E+02  0.25500000000E-02 0. -1.
    5000001    1    1    2    0    0 -0.31607772534E+03 -0.13805791343E+02  0.79870059580E+03  0.88027403124E+03  0.19200000000E+03 0.  0.
   -5000001    1    1    2    0    0  0.31607772534E+03  0.13805791343E+02  0.58260258712E+03  0.69020685512E+03  0.19200000000E+03 0.  0.
<mgrwt>
<rscale>  0 0.74726952E+03</rscale>
<asrwt>0</asrwt>
<pdfrwt beam="1">  1        2 0.21084170E+00 0.74726952E+03</pdfrwt>
<pdfrwt beam="2">  1       -2 0.13512694E-01 0.74726952E+03</pdfrwt>
<totfact> 0.63485436E+02</totfact>
</mgrwt>
</event>
<event>
 4    1  0.2013882E-005  0.6801479E+03  0.7818608E-02  0.9751797E-01
          2   -1    0    0  501    0  0.00000000000E+00  0.00000000000E+00  0.84664054044E+03  0.84664054044E+03  0.25500000000E-02 0.  1.
         -2   -1    0    0    0  501 -0.00000000000E+00 -0.00000000000E+00 -0.13659906698E+03  0.13659906701E+03  0.25500000000E-02 0. -1.
    5000001    1    1    2    0    0  0.22278653333E+02  0.27707765644E+03  0.29869802780E+03  0.45094664640E+03  0.19200000000E+03 0.  0.
   -5000001    1    1    2    0    0 -0.22278653333E+02 -0.27707765644E+03  0.41134344566E+03  0.53229296105E+03  0.19200000000E+03 0.  0.
<mgrwt>
<rscale>  0 0.68014795E+03</rscale>
<asrwt>0</asrwt>
<pdfrwt beam="1">  1        2 0.12094865E+00 0.68014795E+03</pdfrwt>
<pdfrwt beam="2">  1       -2 0.19514152E-01 0.68014795E+03</pdfrwt>
<totfact> 0.78903073E+02</totfact>
</mgrwt>
</event>
<event>
 4    1  0.2013882E-005  0.7254548E+03  0.7818608E-02  0.9674665E-01
         -2   -1    0    0    0  501 -0.00000000000E+00  0.00000000000E+00  0.51470331702E+02  0.51470331765E+02  0.25500000000E-02 0. -1.
          2   -1    0    0  501    0  0.00000000000E+00 -0.00000000000E+00 -0.25562526743E+04  0.25562526743E+04  0.25500000000E-02 0.  1.
    5000001    1    1    2    0    0  0.21000427665E+03  0.18300548935E+03 -0.17226441118E+04  0.17555510648E+04  0.19200000000E+03 0.  0.
   -5000001    1    1    2    0    0 -0.21000427665E+03 -0.18300548935E+03 -0.78213823085E+03  0.85217194128E+03  0.19200000000E+03 0.  0.
<mgrwt>
<rscale>  0 0.72545482E+03</rscale>
<asrwt>0</asrwt>
<pdfrwt beam="1">  1        2 0.36517888E+00 0.72545482E+03</pdfrwt>
<pdfrwt beam="2">  1       -2 0.73529061E-02 0.72545482E+03</pdfrwt>
<totfact> 0.48010175E+02</totfact>
</mgrwt>
</event>
<event>
 4    1  0.2013882E-005  0.6992060E+03  0.7818608E-02  0.9718591E-01
         -2   -1    0    0    0  501 -0.00000000000E+00  0.00000000000E+00  0.21797531958E+03  0.21797531959E+03  0.25500000000E-02 0. -1.
          2   -1    0    0  501    0  0.00000000000E+00 -0.00000000000E+00 -0.56071609745E+03  0.56071609746E+03  0.25500000000E-02 0.  1.
    5000001    1    1    2    0    0  0.79020636963E+02 -0.18097208473E+03  0.68428141620E+02  0.28379846209E+03  0.19200000000E+03 0.  0.
   -5000001    1    1    2    0    0 -0.79020636963E+02  0.18097208473E+03 -0.41116891949E+03  0.49489295496E+03  0.19200000000E+03 0.  0.
<mgrwt>
<rscale>  0 0.69920604E+03</rscale>
<asrwt>0</asrwt>
<pdfrwt beam="1">  1        2 0.80102299E-01 0.69920604E+03</pdfrwt>
<pdfrwt beam="2">  1       -2 0.31139332E-01 0.69920604E+03</pdfrwt>
<totfact> 0.56457189E+02</totfact>
</mgrwt>
</event>
<event>
 4    1  0.2013882E-005  0.5634225E+03  0.7818608E-02  0.9984340E-01
          2   -1    0    0  501    0  0.00000000000E+00  0.00000000000E+00  0.26018038727E+04  0.26018038727E+04  0.25500000000E-02 0.  1.
         -2   -1    0    0    0  501 -0.00000000000E+00 -0.00000000000E+00 -0.30502386156E+02  0.30502386263E+02  0.25500000000E-02 0. -1.
    5000001    1    1    2    0    0  0.35504689967E+02 -0.19391450677E+03  0.15672835225E+04  0.15912589541E+04  0.19200000000E+03 0.  0.
   -5000001    1    1    2    0    0 -0.35504689967E+02  0.19391450677E+03  0.10040179640E+04  0.10410473049E+04  0.19200000000E+03 0.  0.
<mgrwt>
<rscale>  0 0.56342249E+03</rscale>
<asrwt>0</asrwt>
<pdfrwt beam="1">  1        2 0.37168636E+00 0.56342249E+03</pdfrwt>
<pdfrwt beam="2">  1       -2 0.43574827E-02 0.56342249E+03</pdfrwt>
<totfact> 0.10439418E+03</totfact>
</mgrwt>
</event>
<event>
 4    1  0.2013882E-005  0.5909230E+03  0.7818608E-02  0.9924419E-01
          2   -1    0    0  501    0  0.00000000000E+00  0.00000000000E+00  0.56809648708E+03  0.56809648709E+03  0.25500000000E-02 0.  1.
         -2   -1    0    0    0  501 -0.00000000000E+00 -0.00000000000E+00 -0.15366667440E+03  0.15366667442E+03  0.25500000000E-02 0. -1.
    5000001    1    1    2    0    0 -0.14943379413E+03  0.16763957273E+03  0.20735279572E+03  0.36096075558E+03  0.19200000000E+03 0.  0.
   -5000001    1    1    2    0    0  0.14943379413E+03 -0.16763957273E+03  0.20707701697E+03  0.36080240594E+03  0.19200000000E+03 0.  0.
<mgrwt>
<rscale>  0 0.59092300E+03</rscale>
<asrwt>0</asrwt>
<pdfrwt beam="1">  1        2 0.81156641E-01 0.59092300E+03</pdfrwt>
<pdfrwt beam="2">  1       -2 0.21952382E-01 0.59092300E+03</pdfrwt>
<totfact> 0.10494612E+03</totfact>
</mgrwt>
</event>
<event>
 4    1  0.2013882E-005  0.6963119E+03  0.7818608E-02  0.9723560E-01
         -2   -1    0    0    0  501 -0.00000000000E+00  0.00000000000E+00  0.57194793795E+03  0.57194793795E+03  0.25500000000E-02 0. -1.
          2   -1    0    0  501    0  0.00000000000E+00 -0.00000000000E+00 -0.21192936651E+03  0.21192936652E+03  0.25500000000E-02 0.  1.
    5000001    1    1    2    0    0  0.48555242323E+02  0.26614841559E+03  0.29891370946E+03  0.44654898542E+03  0.19200000000E+03 0.  0.
   -5000001    1    1    2    0    0 -0.48555242323E+02 -0.26614841559E+03  0.61104861978E+02  0.33732831905E+03  0.19200000000E+03 0.  0.
<mgrwt>
<rscale>  0 0.69631190E+03</rscale>
<asrwt>0</asrwt>
<pdfrwt beam="1">  1        2 0.30275624E-01 0.69631190E+03</pdfrwt>
<pdfrwt beam="2">  1       -2 0.81706849E-01 0.69631190E+03</pdfrwt>
<totfact> 0.23437322E+02</totfact>
</mgrwt>
</event>
<event>
 4    1  0.2013882E-005  0.7637256E+03  0.7818608E-02  0.9614060E-01
          2   -1    0    0  501    0  0.00000000000E+00  0.00000000000E+00  0.34808068390E+03  0.34808068391E+03  0.25500000000E-02 0.  1.
         -2   -1    0    0    0  501 -0.00000000000E+00 -0.00000000000E+00 -0.41892354697E+03  0.41892354698E+03  0.25500000000E-02 0. -1.
    5000001    1    1    2    0    0 -0.22647252819E+03  0.23528852981E+03 -0.83634778714E+02  0.38795524806E+03  0.19200000000E+03 0.  0.
   -5000001    1    1    2    0    0  0.22647252819E+03 -0.23528852981E+03  0.12791915641E+02  0.37904898284E+03  0.19200000000E+03 0.  0.
<mgrwt>
<rscale>  0 0.76372559E+03</rscale>
<asrwt>0</asrwt>
<pdfrwt beam="1">  1        2 0.49725812E-01 0.76372559E+03</pdfrwt>
<pdfrwt beam="2">  1       -2 0.59846221E-01 0.76372559E+03</pdfrwt>
<totfact> 0.26520269E+02</totfact>
</mgrwt>
</event>
<event>
 4    1  0.2013882E-005  0.4201410E+03  0.7818608E-02  0.1037020E+00
         -2   -1    0    0    0  501 -0.00000000000E+00  0.00000000000E+00  0.17483792112E+03  0.17483792114E+03  0.25500000000E-02 0. -1.
          2   -1    0    0  501    0  0.00000000000E+00 -0.00000000000E+00 -0.25240295471E+03  0.25240295472E+03  0.25500000000E-02 0.  1.
    5000001    1    1    2    0    0  0.70188033996E+02 -0.15176473829E+02 -0.85481569224E+02  0.22209859106E+03  0.19200000000E+03 0.  0.
   -5000001    1    1    2    0    0 -0.70188033996E+02  0.15176473829E+02  0.79165356348E+01  0.20514228479E+03  0.19200000000E+03 0.  0.
<mgrwt>
<rscale>  0 0.42014097E+03</rscale>
<asrwt>0</asrwt>
<pdfrwt beam="1">  1        2 0.36057565E-01 0.42014097E+03</pdfrwt>
<pdfrwt beam="2">  1       -2 0.24976846E-01 0.42014097E+03</pdfrwt>
<totfact> 0.20546373E+03</totfact>
</mgrwt>
</event>
<event>
 4    1  0.2013882E-005  0.1184255E+04  0.7818608E-02  0.9126751E-01
          2   -1    0    0  501    0  0.00000000000E+00  0.00000000000E+00  0.65963662504E+03  0.65963662505E+03  0.25500000000E-02 0.  1.
         -2   -1    0    0    0  501 -0.00000000000E+00 -0.00000000000E+00 -0.53152710928E+03  0.53152710929E+03  0.25500000000E-02 0. -1.
    5000001    1    1    2    0    0  0.48767469852E+03  0.15688434019E+03  0.29189659885E+03  0.62008622965E+03  0.19200000000E+03 0.  0.
   -5000001    1    1    2    0    0 -0.48767469852E+03 -0.15688434019E+03 -0.16378708309E+03  0.57107750469E+03  0.19200000000E+03 0.  0.
<mgrwt>
<rscale>  0 0.11842546E+04</rscale>
<asrwt>0</asrwt>
<pdfrwt beam="1">  1        2 0.94233804E-01 0.11842546E+04</pdfrwt>
<pdfrwt beam="2">  1       -2 0.75932444E-01 0.11842546E+04</pdfrwt>
<totfact> 0.74387495E+01</totfact>
</mgrwt>
</event>
<event>
 4    1  0.2013882E-005  0.4002477E+03  0.7818608E-02  0.1043694E+00
          2   -1    0    0  501    0  0.00000000000E+00  0.00000000000E+00  0.16671512143E+04  0.16671512143E+04  0.25500000000E-02 0.  1.
         -2   -1    0    0    0  501 -0.00000000000E+00 -0.00000000000E+00 -0.24022754301E+02  0.24022754436E+02  0.25500000000E-02 0. -1.
    5000001    1    1    2    0    0  0.42720935271E+02 -0.30074359225E+02  0.91179418293E+03  0.93325354401E+03  0.19200000000E+03 0.  0.
   -5000001    1    1    2    0    0 -0.42720935271E+02  0.30074359225E+02  0.73133427705E+03  0.75792042470E+03  0.19200000000E+03 0.  0.
<mgrwt>
<rscale>  0 0.40024774E+03</rscale>
<asrwt>0</asrwt>
<pdfrwt beam="1">  1        2 0.23816447E+00 0.40024774E+03</pdfrwt>
<pdfrwt beam="2">  1       -2 0.34318219E-02 0.40024774E+03</pdfrwt>
<totfact> 0.44621358E+03</totfact>
</mgrwt>
</event>
<event>
 4    1  0.2013882E-005  0.4626609E+03  0.7818608E-02  0.1024012E+00
         -2   -1    0    0    0  501 -0.00000000000E+00  0.00000000000E+00  0.39066517597E+02  0.39066517681E+02  0.25500000000E-02 0. -1.
          2   -1    0    0  501    0  0.00000000000E+00 -0.00000000000E+00 -0.13698120234E+04  0.13698120234E+04  0.25500000000E-02 0.  1.
    5000001    1    1    2    0    0  0.48664298524E+02 -0.85721765307E+02 -0.41181184283E+03  0.46494024228E+03  0.19200000000E+03 0.  0.
   -5000001    1    1    2    0    0 -0.48664298524E+02  0.85721765307E+02 -0.91893366297E+03  0.94393829880E+03  0.19200000000E+03 0.  0.
<mgrwt>
<rscale>  0 0.46266094E+03</rscale>
<asrwt>0</asrwt>
<pdfrwt beam="1">  1        2 0.19568740E+00 0.46266094E+03</pdfrwt>
<pdfrwt beam="2">  1       -2 0.55809320E-02 0.46266094E+03</pdfrwt>
<totfact> 0.30144316E+03</totfact>
</mgrwt>
</event>
<event>
 4    1  0.2013882E-005  0.6469079E+03  0.7818608E-02  0.9812599E-01
          2   -1    0    0  501    0  0.00000000000E+00  0.00000000000E+00  0.16208760460E+04  0.16208760460E+04  0.25500000000E-02 0.  1.
         -2   -1    0    0    0  501 -0.00000000000E+00 -0.00000000000E+00 -0.64546849321E+02  0.64546849372E+02  0.25500000000E-02 0. -1.
    5000001    1    1    2    0    0 -0.14066036103E+03  0.21652767777E+03  0.69219312013E+03  0.76332489017E+03  0.19200000000E+03 0.  0.
   -5000001    1    1    2    0    0  0.14066036103E+03 -0.21652767777E+03  0.86413607656E+03  0.92209800521E+03  0.19200000000E+03 0.  0.
<mgrwt>
<rscale>  0 0.64690785E+03</rscale>
<asrwt>0</asrwt>
<pdfrwt beam="1">  1        2 0.23155369E+00 0.64690785E+03</pdfrwt>
<pdfrwt beam="2">  1       -2 0.92209795E-02 0.64690785E+03</pdfrwt>
<totfact> 0.10038319E+03</totfact>
</mgrwt>
</event>
<event>
 4    1  0.2013882E-005  0.1310694E+04  0.7818608E-02  0.9021127E-01
         -2   -1    0    0    0  501 -0.00000000000E+00  0.00000000000E+00  0.58288664402E+03  0.58288664403E+03  0.25500000000E-02 0. -1.
          2   -1    0    0  501    0  0.00000000000E+00 -0.00000000000E+00 -0.73681539257E+03  0.73681539257E+03  0.25500000000E-02 0.  1.
    5000001    1    1    2    0    0  0.37594408272E+03 -0.45811885267E+03  0.12792618307E+03  0.63595278506E+03  0.19200000000E+03 0.  0.
   -5000001    1    1    2    0    0 -0.37594408272E+03  0.45811885267E+03 -0.28185493162E+03  0.68374925154E+03  0.19200000000E+03 0.  0.
<mgrwt>
<rscale>  0 0.13106942E+04</rscale>
<asrwt>0</asrwt>
<pdfrwt beam="1">  1        2 0.10525934E+00 0.13106942E+04</pdfrwt>
<pdfrwt beam="2">  1       -2 0.83269521E-01 0.13106942E+04</pdfrwt>
<totfact> 0.52295850E+01</totfact>
</mgrwt>
</event>
<event>
 4    1  0.2013882E-005  0.5495093E+03  0.7818608E-02  0.1001608E+00
         -2   -1    0    0    0  501 -0.00000000000E+00  0.00000000000E+00  0.13562988940E+03  0.13562988942E+03  0.25500000000E-02 0. -1.
          2   -1    0    0  501    0  0.00000000000E+00 -0.00000000000E+00 -0.55658900732E+03  0.55658900732E+03  0.25500000000E-02 0.  1.
    5000001    1    1    2    0    0  0.93348919611E+02  0.96343652526E+02 -0.39141260665E+03  0.45614027318E+03  0.19200000000E+03 0.  0.
   -5000001    1    1    2    0    0 -0.93348919611E+02 -0.96343652526E+02 -0.29546511274E+02  0.23607862356E+03  0.19200000000E+03 0.  0.
<mgrwt>
<rscale>  0 0.54950926E+03</rscale>
<asrwt>0</asrwt>
<pdfrwt beam="1">  1        2 0.79512714E-01 0.54950926E+03</pdfrwt>
<pdfrwt beam="2">  1       -2 0.19375699E-01 0.54950926E+03</pdfrwt>
<totfact> 0.13369601E+03</totfact>
</mgrwt>
</event>
<event>
 4    1  0.2013882E-005  0.4749993E+03  0.7818608E-02  0.1020519E+00
         -2   -1    0    0    0  501 -0.00000000000E+00  0.00000000000E+00  0.33340212216E+02  0.33340212314E+02  0.25500000000E-02 0. -1.
          2   -1    0    0  501    0  0.00000000000E+00 -0.00000000000E+00 -0.16918331533E+04  0.16918331533E+04  0.25500000000E-02 0.  1.
    5000001    1    1    2    0    0 -0.21754257376E+02 -0.11998101105E+03 -0.10775344057E+04  0.11012779332E+04  0.19200000000E+03 0.  0.
   -5000001    1    1    2    0    0  0.21754257376E+02  0.11998101105E+03 -0.58095853534E+03  0.62389543235E+03  0.19200000000E+03 0.  0.
<mgrwt>
<rscale>  0 0.47499927E+03</rscale>
<asrwt>0</asrwt>
<pdfrwt beam="1">  1        2 0.24169040E+00 0.47499927E+03</pdfrwt>
<pdfrwt beam="2">  1       -2 0.47628885E-02 0.47499927E+03</pdfrwt>
<totfact> 0.26280500E+03</totfact>
</mgrwt>
</event>
<event>
 4    1  0.2013882E-005  0.6798679E+03  0.7818608E-02  0.9752294E-01
         -2   -1    0    0    0  501 -0.00000000000E+00  0.00000000000E+00  0.31310762795E+03  0.31310762796E+03  0.25500000000E-02 0. -1.
          2   -1    0    0  501    0  0.00000000000E+00 -0.00000000000E+00 -0.36905864237E+03  0.36905864238E+03  0.25500000000E-02 0.  1.
    5000001    1    1    2    0    0 -0.16145384597E+03 -0.98697192181E+02 -0.23575671502E+03  0.35812526971E+03  0.19200000000E+03 0.  0.
   -5000001    1    1    2    0    0  0.16145384597E+03  0.98697192181E+02  0.17980570061E+03  0.32404100064E+03  0.19200000000E+03 0.  0.
<mgrwt>
<rscale>  0 0.67986786E+03</rscale>
<asrwt>0</asrwt>
<pdfrwt beam="1">  1        2 0.52722663E-01 0.67986786E+03</pdfrwt>
<pdfrwt beam="2">  1       -2 0.44729661E-01 0.67986786E+03</pdfrwt>
<totfact> 0.45200222E+02</totfact>
</mgrwt>
</event>
<event>
 4    1  0.2013882E-005  0.4962186E+03  0.7818608E-02  0.1014771E+00
          2   -1    0    0  501    0  0.00000000000E+00  0.00000000000E+00  0.94827851688E+03  0.94827851688E+03  0.25500000000E-02 0.  1.
         -2   -1    0    0    0  501 -0.00000000000E+00 -0.00000000000E+00 -0.64915772457E+02  0.64915772507E+02  0.25500000000E-02 0. -1.
    5000001    1    1    2    0    0  0.46277872567E+02  0.13782953281E+03  0.56343356129E+03  0.61274790868E+03  0.19200000000E+03 0.  0.
   -5000001    1    1    2    0    0 -0.46277872567E+02 -0.13782953281E+03  0.31992918313E+03  0.40044638071E+03  0.19200000000E+03 0.  0.
<mgrwt>
<rscale>  0 0.49621863E+03</rscale>
<asrwt>0</asrwt>
<pdfrwt beam="1">  1        2 0.13546836E+00 0.49621863E+03</pdfrwt>
<pdfrwt beam="2">  1       -2 0.92736818E-02 0.49621863E+03</pdfrwt>
<totfact> 0.23496579E+03</totfact>
</mgrwt>
</event>
<event>
 4    1  0.2013882E-005  0.5426987E+03  0.7818608E-02  0.1003198E+00
         -2   -1    0    0    0  501 -0.00000000000E+00  0.00000000000E+00  0.75306658587E+02  0.75306658630E+02  0.25500000000E-02 0. -1.
          2   -1    0    0  501    0  0.00000000000E+00 -0.00000000000E+00 -0.97774200381E+03  0.97774200381E+03  0.25500000000E-02 0.  1.
    5000001    1    1    2    0    0  0.95908432663E+02  0.65634801165E+02 -0.74715222598E+03  0.78013255500E+03  0.19200000000E+03 0.  0.
   -5000001    1    1    2    0    0 -0.95908432663E+02 -0.65634801165E+02 -0.15528311923E+03  0.27291610744E+03  0.19200000000E+03 0.  0.
<mgrwt>
<rscale>  0 0.54269875E+03</rscale>
<asrwt>0</asrwt>
<pdfrwt beam="1">  1        2 0.13967742E+00 0.54269875E+03</pdfrwt>
<pdfrwt beam="2">  1       -2 0.10758095E-01 0.54269875E+03</pdfrwt>
<totfact> 0.17721316E+03</totfact>
</mgrwt>
</event>
<event>
 4    1  0.2013882E-005  0.5704974E+03  0.7818608E-02  0.9968579E-01
          2   -1    0    0  501    0  0.00000000000E+00  0.00000000000E+00  0.21924606121E+04  0.21924606121E+04  0.25500000000E-02 0.  1.
         -2   -1    0    0    0  501 -0.00000000000E+00 -0.00000000000E+00 -0.37112102082E+02  0.37112102170E+02  0.25500000000E-02 0. -1.
    5000001    1    1    2    0    0  0.17460918496E+03  0.11753673029E+03  0.11328842179E+04  0.11681583375E+04  0.19200000000E+03 0.  0.
   -5000001    1    1    2    0    0 -0.17460918496E+03 -0.11753673029E+03  0.10224642921E+04  0.10614143767E+04  0.19200000000E+03 0.  0.
<mgrwt>
<rscale>  0 0.57049740E+03</rscale>
<asrwt>0</asrwt>
<pdfrwt beam="1">  1        2 0.31320867E+00 0.57049740E+03</pdfrwt>
<pdfrwt beam="2">  1       -2 0.53017286E-02 0.57049740E+03</pdfrwt>
<totfact> 0.12443751E+03</totfact>
</mgrwt>
</event>
<event>
 4    1  0.2013882E-005  0.4991151E+03  0.7818608E-02  0.1014010E+00
         -2   -1    0    0    0  501 -0.00000000000E+00  0.00000000000E+00  0.13827740532E+03  0.13827740534E+03  0.25500000000E-02 0. -1.
          2   -1    0    0  501    0  0.00000000000E+00 -0.00000000000E+00 -0.45039159278E+03  0.45039159279E+03  0.25500000000E-02 0.  1.
    5000001    1    1    2    0    0  0.10284349180E+03 -0.11243346523E+03 -0.21133821492E+03  0.32364472651E+03  0.19200000000E+03 0.  0.
   -5000001    1    1    2    0    0 -0.10284349180E+03  0.11243346523E+03 -0.10077597254E+03  0.26502427162E+03  0.19200000000E+03 0.  0.
<mgrwt>
<rscale>  0 0.49911514E+03</rscale>
<asrwt>0</asrwt>
<pdfrwt beam="1">  1        2 0.64341655E-01 0.49911514E+03</pdfrwt>
<pdfrwt beam="2">  1       -2 0.19753915E-01 0.49911514E+03</pdfrwt>
<totfact> 0.16437118E+03</totfact>
</mgrwt>
</event>
<event>
 4    1  0.2013882E-005  0.9319289E+03  0.7818608E-02  0.9386526E-01
          2   -1    0    0  501    0  0.00000000000E+00  0.00000000000E+00  0.21645739868E+03  0.21645739869E+03  0.25500000000E-02 0.  1.
         -2   -1    0    0    0  501 -0.00000000000E+00 -0.00000000000E+00 -0.10030743957E+04  0.10030743957E+04  0.25500000000E-02 0. -1.
    5000001    1    1    2    0    0 -0.21671011633E+03  0.34562252390E+03 -0.23935523060E+03  0.51046364215E+03  0.19200000000E+03 0.  0.
   -5000001    1    1    2    0    0  0.21671011633E+03 -0.34562252390E+03 -0.54726176647E+03  0.70906815228E+03  0.19200000000E+03 0.  0.
<mgrwt>
<rscale>  0 0.93192891E+03</rscale>
<asrwt>0</asrwt>
<pdfrwt beam="1">  1        2 0.30922486E-01 0.93192891E+03</pdfrwt>
<pdfrwt beam="2">  1       -2 0.14329634E+00 0.93192891E+03</pdfrwt>
<totfact> 0.58233016E+01</totfact>
</mgrwt>
</event>
<event>
 4    1  0.2013882E-005  0.4673440E+03  0.7818608E-02  0.1022673E+00
         -2   -1    0    0    0  501 -0.00000000000E+00  0.00000000000E+00  0.36218846862E+02  0.36218846952E+02  0.25500000000E-02 0. -1.
          2   -1    0    0  501    0  0.00000000000E+00 -0.00000000000E+00 -0.15075743512E+04  0.15075743512E+04  0.25500000000E-02 0.  1.
    5000001    1    1    2    0    0 -0.81070998665E+01  0.12590511659E+03 -0.59472247975E+03  0.63755521437E+03  0.19200000000E+03 0.  0.
   -5000001    1    1    2    0    0  0.81070998665E+01 -0.12590511659E+03 -0.87663302457E+03  0.90623798376E+03  0.19200000000E+03 0.  0.
<mgrwt>
<rscale>  0 0.46734400E+03</rscale>
<asrwt>0</asrwt>
<pdfrwt beam="1">  1        2 0.21536772E+00 0.46734400E+03</pdfrwt>
<pdfrwt beam="2">  1       -2 0.51741219E-02 0.46734400E+03</pdfrwt>
<totfact> 0.28716314E+03</totfact>
</mgrwt>
</event>
<event>
 4    1  0.2013882E-005  0.7683537E+03  0.7818608E-02  0.9606988E-01
          2   -1    0    0  501    0  0.00000000000E+00  0.00000000000E+00  0.10538121140E+04  0.10538121140E+04  0.25500000000E-02 0.  1.
         -2   -1    0    0    0  501 -0.00000000000E+00 -0.00000000000E+00 -0.14005517978E+03  0.14005517980E+03  0.25500000000E-02 0. -1.
    5000001    1    1    2    0    0  0.25410637212E+03 -0.68573187827E+02  0.14051521327E+03  0.35479692163E+03  0.19200000000E+03 0.  0.
   -5000001    1    1    2    0    0 -0.25410637212E+03  0.68573187827E+02  0.77324172095E+03  0.83907037217E+03  0.19200000000E+03 0.  0.
<mgrwt>
<rscale>  0 0.76835368E+03</rscale>
<asrwt>0</asrwt>
<pdfrwt beam="1">  1        2 0.15054459E+00 0.76835368E+03</pdfrwt>
<pdfrwt beam="2">  1       -2 0.20007882E-01 0.76835368E+03</pdfrwt>
<totfact> 0.55713573E+02</totfact>
</mgrwt>
</event>
<event>
 4    1  0.2013882E-005  0.4185124E+03  0.7818608E-02  0.1037552E+00
         -2   -1    0    0    0  501 -0.00000000000E+00  0.00000000000E+00  0.14850368018E+02  0.14850368237E+02  0.25500000000E-02 0. -1.
          2   -1    0    0  501    0  0.00000000000E+00 -0.00000000000E+00 -0.29486247564E+04  0.29486247564E+04  0.25500000000E-02 0.  1.
    5000001    1    1    2    0    0  0.29902237791E+02  0.68075116600E+02 -0.12023393793E+04  0.12198411160E+04  0.19200000000E+03 0.  0.
   -5000001    1    1    2    0    0 -0.29902237791E+02 -0.68075116600E+02 -0.17314350091E+04  0.17436340086E+04  0.19200000000E+03 0.  0.
<mgrwt>
<rscale>  0 0.41851243E+03</rscale>
<asrwt>0</asrwt>
<pdfrwt beam="1">  1        2 0.42123174E+00 0.41851243E+03</pdfrwt>
<pdfrwt beam="2">  1       -2 0.21214830E-02 0.41851243E+03</pdfrwt>
<totfact> 0.20650367E+03</totfact>
</mgrwt>
</event>
<event>
 4    1  0.2013882E-005  0.6550197E+03  0.7818608E-02  0.9797405E-01
          2   -1    0    0  501    0  0.00000000000E+00  0.00000000000E+00  0.99139340653E+03  0.99139340653E+03  0.25500000000E-02 0.  1.
         -2   -1    0    0    0  501 -0.00000000000E+00 -0.00000000000E+00 -0.10819387083E+03  0.10819387086E+03  0.25500000000E-02 0. -1.
    5000001    1    1    2    0    0 -0.22216600451E+03 -0.14483783010E+03  0.42827970344E+03  0.53909482929E+03  0.19200000000E+03 0.  0.
   -5000001    1    1    2    0    0  0.22216600451E+03  0.14483783010E+03  0.45491983226E+03  0.56049244810E+03  0.19200000000E+03 0.  0.
<mgrwt>
<rscale>  0 0.65501966E+03</rscale>
<asrwt>0</asrwt>
<pdfrwt beam="1">  1        2 0.14162762E+00 0.65501966E+03</pdfrwt>
<pdfrwt beam="2">  1       -2 0.15456268E-01 0.65501966E+03</pdfrwt>
<totfact> 0.95108383E+02</totfact>
</mgrwt>
</event>
<event>
 4    1  0.2013882E-005  0.5176360E+03  0.7818608E-02  0.1009275E+00
          2   -1    0    0  501    0  0.00000000000E+00  0.00000000000E+00  0.16372572915E+03  0.16372572917E+03  0.25500000000E-02 0.  1.
         -2   -1    0    0    0  501 -0.00000000000E+00 -0.00000000000E+00 -0.40914015374E+03  0.40914015375E+03  0.25500000000E-02 0. -1.
    5000001    1    1    2    0    0  0.89146937432E+02 -0.14796313215E+03 -0.14130843842E+03  0.29440166388E+03  0.19200000000E+03 0.  0.
   -5000001    1    1    2    0    0 -0.89146937432E+02  0.14796313215E+03 -0.10410598617E+03  0.27846421904E+03  0.19200000000E+03 0.  0.
<mgrwt>
<rscale>  0 0.51763605E+03</rscale>
<asrwt>0</asrwt>
<pdfrwt beam="1">  1        2 0.23389390E-01 0.51763605E+03</pdfrwt>
<pdfrwt beam="2">  1       -2 0.58448593E-01 0.51763605E+03</pdfrwt>
<totfact> 0.65198238E+02</totfact>
</mgrwt>
</event>
<event>
 4    1  0.2013882E-005  0.4585242E+03  0.7818608E-02  0.1025210E+00
          2   -1    0    0  501    0  0.00000000000E+00  0.00000000000E+00  0.12155716077E+04  0.12155716077E+04  0.25500000000E-02 0. -1.
         -2   -1    0    0    0  501 -0.00000000000E+00 -0.00000000000E+00 -0.43239835685E+02  0.43239835761E+02  0.25500000000E-02 0.  1.
    5000001    1    1    2    0    0  0.10884514404E+03 -0.60870922842E+02  0.55315512714E+03  0.59866278430E+03  0.19200000000E+03 0.  0.
   -5000001    1    1    2    0    0 -0.10884514404E+03  0.60870922842E+02  0.61917664485E+03  0.66014865913E+03  0.19200000000E+03 0.  0.
<mgrwt>
<rscale>  0 0.45852423E+03</rscale>
<asrwt>0</asrwt>
<pdfrwt beam="1">  1        2 0.17365303E+00 0.45852423E+03</pdfrwt>
<pdfrwt beam="2">  1       -2 0.61771213E-02 0.45852423E+03</pdfrwt>
<totfact> 0.31186131E+03</totfact>
</mgrwt>
</event>
<event>
 4    1  0.2013882E-005  0.4378835E+03  0.7818608E-02  0.1031398E+00
         -2   -1    0    0    0  501 -0.00000000000E+00  0.00000000000E+00  0.13762612893E+03  0.13762612895E+03  0.25500000000E-02 0. -1.
          2   -1    0    0  501    0  0.00000000000E+00 -0.00000000000E+00 -0.34830232064E+03  0.34830232065E+03  0.25500000000E-02 0.  1.
    5000001    1    1    2    0    0 -0.10331245521E+03  0.13933817870E+02 -0.89492565644E+02  0.23609433282E+03  0.19200000000E+03 0.  0.
   -5000001    1    1    2    0    0  0.10331245521E+03 -0.13933817870E+02 -0.12118362606E+03  0.24983411678E+03  0.19200000000E+03 0.  0.
<mgrwt>
<rscale>  0 0.43788355E+03</rscale>
<asrwt>0</asrwt>
<pdfrwt beam="1">  1        2 0.49757474E-01 0.43788355E+03</pdfrwt>
<pdfrwt beam="2">  1       -2 0.19660876E-01 0.43788355E+03</pdfrwt>
<totfact> 0.21982924E+03</totfact>
</mgrwt>
</event>
<event>
 4    1  0.2013882E-005  0.4921404E+03  0.7818608E-02  0.1015851E+00
         -2   -1    0    0    0  501 -0.00000000000E+00  0.00000000000E+00  0.23478971199E+03  0.23478971200E+03  0.25500000000E-02 0. -1.
          2   -1    0    0  501    0  0.00000000000E+00 -0.00000000000E+00 -0.25789265007E+03  0.25789265009E+03  0.25500000000E-02 0.  1.
    5000001    1    1    2    0    0 -0.14062185957E+03 -0.35960755814E+02 -0.62782601411E+02  0.24874351929E+03  0.19200000000E+03 0.  0.
   -5000001    1    1    2    0    0  0.14062185957E+03  0.35960755814E+02  0.39679663324E+02  0.24393884280E+03  0.19200000000E+03 0.  0.
<mgrwt>
<rscale>  0 0.49214039E+03</rscale>
<asrwt>0</asrwt>
<pdfrwt beam="1">  1        2 0.36841807E-01 0.49214039E+03</pdfrwt>
<pdfrwt beam="2">  1       -2 0.33541387E-01 0.49214039E+03</pdfrwt>
<totfact> 0.11724283E+03</totfact>
</mgrwt>
</event>
<event>
 4    1  0.2013882E-005  0.5012828E+03  0.7818608E-02  0.1013445E+00
         -2   -1    0    0    0  501 -0.00000000000E+00  0.00000000000E+00  0.35770997343E+02  0.35770997434E+02  0.25500000000E-02 0. -1.
          2   -1    0    0  501    0  0.00000000000E+00 -0.00000000000E+00 -0.17562025117E+04  0.17562025117E+04  0.25500000000E-02 0.  1.
    5000001    1    1    2    0    0  0.70360151471E+01  0.13712195514E+03 -0.11615415382E+04  0.11852825322E+04  0.19200000000E+03 0.  0.
   -5000001    1    1    2    0    0 -0.70360151471E+01 -0.13712195514E+03 -0.55888997619E+03  0.60669097700E+03  0.19200000000E+03 0.  0.
<mgrwt>
<rscale>  0 0.50128282E+03</rscale>
<asrwt>0</asrwt>
<pdfrwt beam="1">  1        2 0.25088602E+00 0.50128282E+03</pdfrwt>
<pdfrwt beam="2">  1       -2 0.51101436E-02 0.50128282E+03</pdfrwt>
<totfact> 0.21864352E+03</totfact>
</mgrwt>
</event>
<event>
 4    1  0.2013882E-005  0.4865102E+03  0.7818608E-02  0.1017361E+00
          2   -1    0    0  501    0  0.00000000000E+00  0.00000000000E+00  0.71241149409E+03  0.71241149410E+03  0.25500000000E-02 0.  1.
         -2   -1    0    0    0  501 -0.00000000000E+00 -0.00000000000E+00 -0.83060194990E+02  0.83060195029E+02  0.25500000000E-02 0. -1.
    5000001    1    1    2    0    0  0.13418032208E+03 -0.59657818562E+02  0.27002861812E+03  0.36241256704E+03  0.19200000000E+03 0.  0.
   -5000001    1    1    2    0    0 -0.13418032208E+03  0.59657818562E+02  0.35932268099E+03  0.43305912208E+03  0.19200000000E+03 0.  0.
<mgrwt>
<rscale>  0 0.48651018E+03</rscale>
<asrwt>0</asrwt>
<pdfrwt beam="1">  1        2 0.10177307E+00 0.48651018E+03</pdfrwt>
<pdfrwt beam="2">  1       -2 0.11865742E-01 0.48651018E+03</pdfrwt>
<totfact> 0.22753095E+03</totfact>
</mgrwt>
</event>
<event>
 4    1  0.2013882E-005  0.6838962E+03  0.7818608E-02  0.9745175E-01
         -2   -1    0    0    0  501 -0.00000000000E+00  0.00000000000E+00  0.85206123972E+03  0.85206123972E+03  0.25500000000E-02 0. -1.
          2   -1    0    0  501    0  0.00000000000E+00 -0.00000000000E+00 -0.13723015227E+03  0.13723015229E+03  0.25500000000E-02 0.  1.
    5000001    1    1    2    0    0  0.62692314021E+02  0.26059815842E+03  0.22624296503E+03  0.39986448409E+03  0.19200000000E+03 0.  0.
   -5000001    1    1    2    0    0 -0.62692314021E+02 -0.26059815842E+03  0.48858812243E+03  0.58942690793E+03  0.19200000000E+03 0.  0.
<mgrwt>
<rscale>  0 0.68389617E+03</rscale>
<asrwt>0</asrwt>
<pdfrwt beam="1">  1        2 0.19604307E-01 0.68389617E+03</pdfrwt>
<pdfrwt beam="2">  1       -2 0.12172304E+00 0.68389617E+03</pdfrwt>
<totfact> 0.15080354E+02</totfact>
</mgrwt>
</event>
<event>
 4    1  0.2013882E-005  0.5966274E+03  0.7818608E-02  0.9912428E-01
          2   -1    0    0  501    0  0.00000000000E+00  0.00000000000E+00  0.24262358971E+04  0.24262358971E+04  0.25500000000E-02 0.  1.
         -2   -1    0    0    0  501 -0.00000000000E+00 -0.00000000000E+00 -0.36678649839E+02  0.36678649928E+02  0.25500000000E-02 0. -1.
    5000001    1    1    2    0    0  0.37303877690E+02  0.20661623639E+03  0.82451178375E+03  0.87221873975E+03  0.19200000000E+03 0.  0.
   -5000001    1    1    2    0    0 -0.37303877690E+02 -0.20661623639E+03  0.15650454635E+04  0.15906958073E+04  0.19200000000E+03 0.  0.
<mgrwt>
<rscale>  0 0.59662738E+03</rscale>
<asrwt>0</asrwt>
<pdfrwt beam="1">  1        2 0.34660523E+00 0.59662738E+03</pdfrwt>
<pdfrwt beam="2">  1       -2 0.52398056E-02 0.59662738E+03</pdfrwt>
<totfact> 0.96344982E+02</totfact>
</mgrwt>
</event>
<event>
 4    1  0.2013882E-005  0.6759100E+03  0.7818608E-02  0.9759340E-01
          2   -1    0    0  501    0  0.00000000000E+00  0.00000000000E+00  0.31823384871E+04  0.31823384871E+04  0.25500000000E-02 0.  1.
         -2   -1    0    0    0  501 -0.00000000000E+00 -0.00000000000E+00 -0.35889827962E+02  0.35889828052E+02  0.25500000000E-02 0. -1.
    5000001    1    1    2    0    0  0.51427480973E+02 -0.20534341318E+03  0.24320979569E+04  0.24488313897E+04  0.19200000000E+03 0.  0.
   -5000001    1    1    2    0    0 -0.51427480973E+02  0.20534341318E+03  0.71435070225E+03  0.76939692548E+03  0.19200000000E+03 0.  0.
<mgrwt>
<rscale>  0 0.67591000E+03</rscale>
<asrwt>0</asrwt>
<pdfrwt beam="1">  1        2 0.45461973E+00 0.67591000E+03</pdfrwt>
<pdfrwt beam="2">  1       -2 0.51271189E-02 0.67591000E+03</pdfrwt>
<totfact> 0.39167261E+02</totfact>
</mgrwt>
</event>
<event>
 4    1  0.2013882E-005  0.5215495E+03  0.7818608E-02  0.1008302E+00
         -2   -1    0    0    0  501 -0.00000000000E+00  0.00000000000E+00  0.40601943931E+02  0.40601944011E+02  0.25500000000E-02 0. -1.
          2   -1    0    0  501    0  0.00000000000E+00 -0.00000000000E+00 -0.16748820045E+04  0.16748820045E+04  0.25500000000E-02 0.  1.
    5000001    1    1    2    0    0 -0.12169026061E+03 -0.12211001770E+03 -0.94109072852E+03  0.97582536104E+03  0.19200000000E+03 0.  0.
   -5000001    1    1    2    0    0  0.12169026061E+03  0.12211001770E+03 -0.69318933210E+03  0.73965858751E+03  0.19200000000E+03 0.  0.
<mgrwt>
<rscale>  0 0.52154948E+03</rscale>
<asrwt>0</asrwt>
<pdfrwt beam="1">  1        2 0.23926882E+00 0.52154948E+03</pdfrwt>
<pdfrwt beam="2">  1       -2 0.58002787E-02 0.52154948E+03</pdfrwt>
<totfact> 0.19730579E+03</totfact>
</mgrwt>
</event>
<event>
 4    1  0.2013882E-005  0.4980464E+03  0.7818608E-02  0.1014290E+00
         -2   -1    0    0    0  501 -0.00000000000E+00  0.00000000000E+00  0.23434620169E+03  0.23434620170E+03  0.25500000000E-02 0. -1.
          2   -1    0    0  501    0  0.00000000000E+00 -0.00000000000E+00 -0.26461938576E+03  0.26461938577E+03  0.25500000000E-02 0.  1.
    5000001    1    1    2    0    0  0.70729054316E+02  0.13554629088E+03 -0.57323119288E+02  0.25204232998E+03  0.19200000000E+03 0.  0.
   -5000001    1    1    2    0    0 -0.70729054316E+02 -0.13554629088E+03  0.27049935212E+02  0.24692325749E+03  0.19200000000E+03 0.  0.
<mgrwt>
<rscale>  0 0.49804638E+03</rscale>
<asrwt>0</asrwt>
<pdfrwt beam="1">  1        2 0.37802769E-01 0.49804638E+03</pdfrwt>
<pdfrwt beam="2">  1       -2 0.33478029E-01 0.49804638E+03</pdfrwt>
<totfact> 0.11436640E+03</totfact>
</mgrwt>
</event>
<event>
 4    1  0.2013882E-005  0.4718519E+03  0.7818608E-02  0.1021399E+00
         -2   -1    0    0    0  501 -0.00000000000E+00  0.00000000000E+00  0.55039457422E+02  0.55039457481E+02  0.25500000000E-02 0. -1.
          2   -1    0    0  501    0  0.00000000000E+00 -0.00000000000E+00 -0.10112936993E+04  0.10112936993E+04  0.25500000000E-02 0.  1.
    5000001    1    1    2    0    0  0.57308086935E+02  0.83540992549E+02 -0.68689176828E+03  0.72038018823E+03  0.19200000000E+03 0.  0.
   -5000001    1    1    2    0    0 -0.57308086935E+02 -0.83540992549E+02 -0.26936247357E+03  0.34595296852E+03  0.19200000000E+03 0.  0.
<mgrwt>
<rscale>  0 0.47185191E+03</rscale>
<asrwt>0</asrwt>
<pdfrwt beam="1">  1        2 0.14447052E+00 0.47185191E+03</pdfrwt>
<pdfrwt beam="2">  1       -2 0.78627802E-02 0.47185191E+03</pdfrwt>
<totfact> 0.27968151E+03</totfact>
</mgrwt>
</event>
<event>
 4    1  0.2013882E-005  0.5805885E+03  0.7818608E-02  0.9946518E-01
          2   -1    0    0  501    0  0.00000000000E+00  0.00000000000E+00  0.12205948248E+04  0.12205948248E+04  0.25500000000E-02 0.  1.
         -2   -1    0    0    0  501 -0.00000000000E+00 -0.00000000000E+00 -0.69040713638E+02  0.69040713685E+02  0.25500000000E-02 0. -1.
    5000001    1    1    2    0    0 -0.20532280755E+03 -0.53700275246E+02  0.68381239787E+03  0.74128575485E+03  0.19200000000E+03 0.  0.
   -5000001    1    1    2    0    0  0.20532280755E+03  0.53700275246E+02  0.46774171329E+03  0.54834978364E+03  0.19200000000E+03 0.  0.
<mgrwt>
<rscale>  0 0.58058845E+03</rscale>
<asrwt>0</asrwt>
<pdfrwt beam="1">  1        2 0.17437068E+00 0.58058845E+03</pdfrwt>
<pdfrwt beam="2">  1       -2 0.98629597E-02 0.58058845E+03</pdfrwt>
<totfact> 0.14725048E+03</totfact>
</mgrwt>
</event>
<event>
 4    1  0.2013882E-005  0.7747743E+03  0.7818608E-02  0.9597266E-01
          2   -1    0    0  501    0  0.00000000000E+00  0.00000000000E+00  0.33216187072E+03  0.33216187073E+03  0.25500000000E-02 0.  1.
         -2   -1    0    0    0  501 -0.00000000000E+00 -0.00000000000E+00 -0.45179420670E+03  0.45179420671E+03  0.25500000000E-02 0. -1.
    5000001    1    1    2    0    0 -0.21640657198E+03  0.25259439555E+03 -0.85294416124E+01  0.38415164250E+03  0.19200000000E+03 0.  0.
   -5000001    1    1    2    0    0  0.21640657198E+03 -0.25259439555E+03 -0.11110289438E+03  0.39980443494E+03  0.19200000000E+03 0.  0.
<mgrwt>
<rscale>  0 0.77477431E+03</rscale>
<asrwt>0</asrwt>
<pdfrwt beam="1">  1        2 0.47451696E-01 0.77477431E+03</pdfrwt>
<pdfrwt beam="2">  1       -2 0.64542029E-01 0.77477431E+03</pdfrwt>
<totfact> 0.23783097E+02</totfact>
</mgrwt>
</event>
<event>
 4    1  0.2013882E-005  0.8673950E+03  0.7818608E-02  0.9467283E-01
          2   -1    0    0  501    0  0.00000000000E+00  0.00000000000E+00  0.90717583810E+03  0.90717583811E+03  0.25500000000E-02 0.  1.
         -2   -1    0    0    0  501 -0.00000000000E+00 -0.00000000000E+00 -0.20733966691E+03  0.20733966692E+03  0.25500000000E-02 0. -1.
    5000001    1    1    2    0    0  0.24604799068E+02  0.38143211748E+03  0.25785541501E+03  0.49944896780E+03  0.19200000000E+03 0.  0.
   -5000001    1    1    2    0    0 -0.24604799068E+02 -0.38143211748E+03  0.44198075618E+03  0.61506653723E+03  0.19200000000E+03 0.  0.
<mgrwt>
<rscale>  0 0.86739503E+03</rscale>
<asrwt>0</asrwt>
<pdfrwt beam="1">  1        2 0.12959655E+00 0.86739503E+03</pdfrwt>
<pdfrwt beam="2">  1       -2 0.29619952E-01 0.86739503E+03</pdfrwt>
<totfact> 0.33800480E+02</totfact>
</mgrwt>
</event>
<event>
 4    1  0.2013882E-005  0.9401011E+03  0.7818608E-02  0.9376796E-01
          2   -1    0    0  501    0  0.00000000000E+00  0.00000000000E+00  0.26370686257E+03  0.26370686258E+03  0.25500000000E-02 0.  1.
         -2   -1    0    0    0  501 -0.00000000000E+00 -0.00000000000E+00 -0.83785272320E+03  0.83785272321E+03  0.25500000000E-02 0. -1.
    5000001    1    1    2    0    0 -0.18894974359E+02 -0.41467663954E+03 -0.41419400810E+03  0.61703679937E+03  0.19200000000E+03 0.  0.
   -5000001    1    1    2    0    0  0.18894974359E+02  0.41467663954E+03 -0.15995185253E+03  0.48452278642E+03  0.19200000000E+03 0.  0.
<mgrwt>
<rscale>  0 0.94010109E+03</rscale>
<asrwt>0</asrwt>
<pdfrwt beam="1">  1        2 0.37672409E-01 0.94010109E+03</pdfrwt>
<pdfrwt beam="2">  1       -2 0.11969325E+00 0.94010109E+03</pdfrwt>
<totfact> 0.73704392E+01</totfact>
</mgrwt>
</event>
<event>
 4    1  0.2013882E-005  0.1151588E+04  0.7818608E-02  0.9156320E-01
         -2   -1    0    0    0  501 -0.00000000000E+00  0.00000000000E+00  0.27770099011E+03  0.27770099012E+03  0.25500000000E-02 0. -1.
          2   -1    0    0  501    0  0.00000000000E+00 -0.00000000000E+00 -0.11938694409E+04  0.11938694409E+04  0.25500000000E-02 0.  1.
    5000001    1    1    2    0    0 -0.45471498266E+03 -0.29225453032E+03 -0.52193002070E+03  0.77553424970E+03  0.19200000000E+03 0.  0.
   -5000001    1    1    2    0    0  0.45471498266E+03  0.29225453032E+03 -0.39423843005E+03  0.69603618130E+03  0.19200000000E+03 0.  0.
<mgrwt>
<rscale>  0 0.11515880E+04</rscale>
<asrwt>0</asrwt>
<pdfrwt beam="1">  1        2 0.17055277E+00 0.11515880E+04</pdfrwt>
<pdfrwt beam="2">  1       -2 0.39671571E-01 0.11515880E+04</pdfrwt>
<totfact> 0.12803920E+02</totfact>
</mgrwt>
</event>
<event>
 4    1  0.2013882E-005  0.1041655E+04  0.7818608E-02  0.9264002E-01
         -2   -1    0    0    0  501 -0.00000000000E+00  0.00000000000E+00  0.30578088705E+03  0.30578088706E+03  0.25500000000E-02 0. -1.
          2   -1    0    0  501    0  0.00000000000E+00 -0.00000000000E+00 -0.88711062962E+03  0.88711062963E+03  0.25500000000E-02 0.  1.
    5000001    1    1    2    0    0 -0.22806964086E+03 -0.41122522645E+03 -0.15871687951E+03  0.53214377361E+03  0.19200000000E+03 0.  0.
   -5000001    1    1    2    0    0  0.22806964086E+03  0.41122522645E+03 -0.42261286306E+03  0.66074774308E+03  0.19200000000E+03 0.  0.
<mgrwt>
<rscale>  0 0.10416554E+04</rscale>
<asrwt>0</asrwt>
<pdfrwt beam="1">  1        2 0.12673009E+00 0.10416554E+04</pdfrwt>
<pdfrwt beam="2">  1       -2 0.43682984E-01 0.10416554E+04</pdfrwt>
<totfact> 0.16399490E+02</totfact>
</mgrwt>
</event>
<event>
 4    1  0.2013882E-005  0.7082874E+03  0.7818608E-02  0.9703164E-01
         -2   -1    0    0    0  501 -0.00000000000E+00  0.00000000000E+00  0.12041518477E+03  0.12041518479E+03  0.25500000000E-02 0. -1.
          2   -1    0    0  501    0  0.00000000000E+00 -0.00000000000E+00 -0.10415442847E+04  0.10415442847E+04  0.25500000000E-02 0.  1.
    5000001    1    1    2    0    0  0.25032387965E+03  0.10619814457E+03 -0.26224709584E+03  0.42376600844E+03  0.19200000000E+03 0.  0.
   -5000001    1    1    2    0    0 -0.25032387965E+03 -0.10619814457E+03 -0.65888200413E+03  0.73819346110E+03  0.19200000000E+03 0.  0.
<mgrwt>
<rscale>  0 0.70828736E+03</rscale>
<asrwt>0</asrwt>
<pdfrwt beam="1">  1        2 0.14879204E+00 0.70828736E+03</pdfrwt>
<pdfrwt beam="2">  1       -2 0.17202170E-01 0.70828736E+03</pdfrwt>
<totfact> 0.73774625E+02</totfact>
</mgrwt>
</event>
<event>
 4    1  0.2013882E-005  0.6777180E+03  0.7818608E-02  0.9756115E-01
          2   -1    0    0  501    0  0.00000000000E+00  0.00000000000E+00  0.13311530893E+04  0.13311530893E+04  0.25500000000E-02 0.  1.
         -2   -1    0    0    0  501 -0.00000000000E+00 -0.00000000000E+00 -0.86260107732E+02  0.86260107769E+02  0.25500000000E-02 0. -1.
    5000001    1    1    2    0    0 -0.27108018037E+03 -0.54798784071E+02  0.54214902947E+03  0.63818252960E+03  0.19200000000E+03 0.  0.
   -5000001    1    1    2    0    0  0.27108018037E+03  0.54798784071E+02  0.70274395212E+03  0.77923066750E+03  0.19200000000E+03 0.  0.
<mgrwt>
<rscale>  0 0.67771796E+03</rscale>
<asrwt>0</asrwt>
<pdfrwt beam="1">  1        2 0.19016472E+00 0.67771796E+03</pdfrwt>
<pdfrwt beam="2">  1       -2 0.12322873E-01 0.67771796E+03</pdfrwt>
<totfact> 0.88690431E+02</totfact>
</mgrwt>
</event>
<event>
 4    1  0.2013882E-005  0.4891080E+03  0.7818608E-02  0.1016662E+00
         -2   -1    0    0    0  501 -0.00000000000E+00  0.00000000000E+00  0.32657867124E+02  0.32657867223E+02  0.25500000000E-02 0. -1.
          2   -1    0    0  501    0  0.00000000000E+00 -0.00000000000E+00 -0.18313093527E+04  0.18313093527E+04  0.25500000000E-02 0.  1.
    5000001    1    1    2    0    0 -0.10111816173E+03 -0.10699158917E+03 -0.76348387949E+03  0.80090181484E+03  0.19200000000E+03 0.  0.
   -5000001    1    1    2    0    0  0.10111816173E+03  0.10699158917E+03 -0.10351676061E+04  0.10630654051E+04  0.19200000000E+03 0.  0.
<mgrwt>
<rscale>  0 0.48910799E+03</rscale>
<asrwt>0</asrwt>
<pdfrwt beam="1">  1        2 0.26161556E+00 0.48910799E+03</pdfrwt>
<pdfrwt beam="2">  1       -2 0.46654107E-02 0.48910799E+03</pdfrwt>
<totfact> 0.23079453E+03</totfact>
</mgrwt>
</event>
<event>
 4    1  0.2013882E-005  0.4887419E+03  0.7818608E-02  0.1016760E+00
         -2   -1    0    0    0  501 -0.00000000000E+00  0.00000000000E+00  0.62849288466E+02  0.62849288517E+02  0.25500000000E-02 0. -1.
          2   -1    0    0  501    0  0.00000000000E+00 -0.00000000000E+00 -0.95016460589E+03  0.95016460589E+03  0.25500000000E-02 0.  1.
    5000001    1    1    2    0    0  0.23839285816E+02 -0.67647278346E+02 -0.16783548034E+03  0.26490982291E+03  0.19200000000E+03 0.  0.
   -5000001    1    1    2    0    0 -0.23839285816E+02  0.67647278346E+02 -0.71947983709E+03  0.74810407150E+03  0.19200000000E+03 0.  0.
<mgrwt>
<rscale>  0 0.48874193E+03</rscale>
<asrwt>0</asrwt>
<pdfrwt beam="1">  1        2 0.13573779E+00 0.48874193E+03</pdfrwt>
<pdfrwt beam="2">  1       -2 0.89784704E-02 0.48874193E+03</pdfrwt>
<totfact> 0.24679431E+03</totfact>
</mgrwt>
</event>
<event>
 4    1  0.2013882E-005  0.4157887E+03  0.7818608E-02  0.1038446E+00
         -2   -1    0    0    0  501 -0.00000000000E+00  0.00000000000E+00  0.84327735684E+02  0.84327735722E+02  0.25500000000E-02 0. -1.
          2   -1    0    0  501    0  0.00000000000E+00 -0.00000000000E+00 -0.51252479503E+03  0.51252479504E+03  0.25500000000E-02 0.  1.
    5000001    1    1    2    0    0  0.73607119868E+02  0.30540337456E+02 -0.21078288611E+03  0.29604753906E+03  0.19200000000E+03 0.  0.
   -5000001    1    1    2    0    0 -0.73607119868E+02 -0.30540337456E+02 -0.21741417324E+03  0.30080499170E+03  0.19200000000E+03 0.  0.
<mgrwt>
<rscale>  0 0.41578867E+03</rscale>
<asrwt>0</asrwt>
<pdfrwt beam="1">  1        2 0.73217826E-01 0.41578867E+03</pdfrwt>
<pdfrwt beam="2">  1       -2 0.12046820E-01 0.41578867E+03</pdfrwt>
<totfact> 0.32569511E+03</totfact>
</mgrwt>
</event>
<event>
 4    1  0.2013882E-005  0.4967320E+03  0.7818608E-02  0.1014635E+00
         -2   -1    0    0    0  501 -0.00000000000E+00  0.00000000000E+00  0.48596661319E+02  0.48596661386E+02  0.25500000000E-02 0. -1.
          2   -1    0    0  501    0  0.00000000000E+00 -0.00000000000E+00 -0.12693394621E+04  0.12693394621E+04  0.25500000000E-02 0.  1.
    5000001    1    1    2    0    0 -0.11582695532E+03  0.10654651670E+03 -0.59094375294E+03  0.64097313745E+03  0.19200000000E+03 0.  0.
   -5000001    1    1    2    0    0  0.11582695532E+03 -0.10654651670E+03 -0.62979904783E+03  0.67696298603E+03  0.19200000000E+03 0.  0.
<mgrwt>
<rscale>  0 0.49673196E+03</rscale>
<asrwt>0</asrwt>
<pdfrwt beam="1">  1        2 0.18133419E+00 0.49673196E+03</pdfrwt>
<pdfrwt beam="2">  1       -2 0.69423810E-02 0.49673196E+03</pdfrwt>
<totfact> 0.24266699E+03</totfact>
</mgrwt>
</event>
<event>
 4    1  0.2013882E-005  0.5645751E+03  0.7818608E-02  0.9981755E-01
         -2   -1    0    0    0  501 -0.00000000000E+00  0.00000000000E+00  0.74398831391E+02  0.74398831434E+02  0.25500000000E-02 0. -1.
          2   -1    0    0  501    0  0.00000000000E+00 -0.00000000000E+00 -0.10710688318E+04  0.10710688318E+04  0.25500000000E-02 0.  1.
    5000001    1    1    2    0    0 -0.12284379408E+03 -0.15462262372E+03 -0.37287868068E+03  0.46357444279E+03  0.19200000000E+03 0.  0.
   -5000001    1    1    2    0    0  0.12284379408E+03  0.15462262372E+03 -0.62379131973E+03  0.68189322044E+03  0.19200000000E+03 0.  0.
<mgrwt>
<rscale>  0 0.56457513E+03</rscale>
<asrwt>0</asrwt>
<pdfrwt beam="1">  1        2 0.15300982E+00 0.56457513E+03</pdfrwt>
<pdfrwt beam="2">  1       -2 0.10628405E-01 0.56457513E+03</pdfrwt>
<totfact> 0.15881569E+03</totfact>
</mgrwt>
</event>
<event>
 4    1  0.2013882E-005  0.5864155E+03  0.7818608E-02  0.9933997E-01
         -2   -1    0    0    0  501 -0.00000000000E+00  0.00000000000E+00  0.70748004236E+02  0.70748004282E+02  0.25500000000E-02 0. -1.
          2   -1    0    0  501    0  0.00000000000E+00 -0.00000000000E+00 -0.12151690551E+04  0.12151690551E+04  0.25500000000E-02 0.  1.
    5000001    1    1    2    0    0  0.12432455492E+03 -0.12686068423E+03 -0.28165630089E+03  0.38437546747E+03  0.19200000000E+03 0.  0.
   -5000001    1    1    2    0    0 -0.12432455492E+03  0.12686068423E+03 -0.86276474995E+03  0.90154159190E+03  0.19200000000E+03 0.  0.
<mgrwt>
<rscale>  0 0.58641550E+03</rscale>
<asrwt>0</asrwt>
<pdfrwt beam="1">  1        2 0.17359557E+00 0.58641550E+03</pdfrwt>
<pdfrwt beam="2">  1       -2 0.10106858E-01 0.58641550E+03</pdfrwt>
<totfact> 0.14250558E+03</totfact>
</mgrwt>
</event>
<event>
 4    1  0.2013882E-005  0.4688496E+03  0.7818608E-02  0.1022245E+00
         -2   -1    0    0    0  501 -0.00000000000E+00  0.00000000000E+00  0.34673406877E+03  0.34673406878E+03  0.25500000000E-02 0. -1.
          2   -1    0    0  501    0  0.00000000000E+00 -0.00000000000E+00 -0.15849316778E+03  0.15849316780E+03  0.25500000000E-02 0.  1.
    5000001    1    1    2    0    0 -0.10042551301E+03 -0.13216797210E+02 -0.12386655092E+01  0.21708408897E+03  0.19200000000E+03 0.  0.
   -5000001    1    1    2    0    0  0.10042551301E+03  0.13216797210E+02  0.18947956650E+03  0.28814314760E+03  0.19200000000E+03 0.  0.
<mgrwt>
<rscale>  0 0.46884957E+03</rscale>
<asrwt>0</asrwt>
<pdfrwt beam="1">  1        2 0.22641881E-01 0.46884957E+03</pdfrwt>
<pdfrwt beam="2">  1       -2 0.49533438E-01 0.46884957E+03</pdfrwt>
<totfact> 0.94997671E+02</totfact>
</mgrwt>
</event>
<event>
 4    1  0.2013882E-005  0.4701294E+03  0.7818608E-02  0.1021884E+00
          2   -1    0    0  501    0  0.00000000000E+00  0.00000000000E+00  0.84416267288E+03  0.84416267288E+03  0.25500000000E-02 0.  1.
         -2   -1    0    0    0  501 -0.00000000000E+00 -0.00000000000E+00 -0.65455882974E+02  0.65455883024E+02  0.25500000000E-02 0. -1.
    5000001    1    1    2    0    0  0.83583335133E+01  0.11363034803E+03  0.24704572522E+03  0.33298244410E+03  0.19200000000E+03 0.  0.
   -5000001    1    1    2    0    0 -0.83583335133E+01 -0.11363034803E+03  0.53166106468E+03  0.57663611180E+03  0.19200000000E+03 0.  0.
<mgrwt>
<rscale>  0 0.47012940E+03</rscale>
<asrwt>0</asrwt>
<pdfrwt beam="1">  1        2 0.12059466E+00 0.47012940E+03</pdfrwt>
<pdfrwt beam="2">  1       -2 0.93508408E-02 0.47012940E+03</pdfrwt>
<totfact> 0.27042711E+03</totfact>
</mgrwt>
</event>
<event>
 4    1  0.2013882E-005  0.5186628E+03  0.7818608E-02  0.1009019E+00
          2   -1    0    0  501    0  0.00000000000E+00  0.00000000000E+00  0.88254975845E+03  0.88254975845E+03  0.25500000000E-02 0.  1.
         -2   -1    0    0    0  501 -0.00000000000E+00 -0.00000000000E+00 -0.76202824762E+02  0.76202824804E+02  0.25500000000E-02 0. -1.
    5000001    1    1    2    0    0  0.13206124723E+03 -0.79652522821E+02  0.55339348681E+03  0.60571697075E+03  0.19200000000E+03 0.  0.
   -5000001    1    1    2    0    0 -0.13206124723E+03  0.79652522821E+02  0.25295344687E+03  0.35303561250E+03  0.19200000000E+03 0.  0.
<mgrwt>
<rscale>  0 0.51866284E+03</rscale>
<asrwt>0</asrwt>
<pdfrwt beam="1">  1        2 0.12607855E+00 0.51866284E+03</pdfrwt>
<pdfrwt beam="2">  1       -2 0.10886117E-01 0.51866284E+03</pdfrwt>
<totfact> 0.19965921E+03</totfact>
</mgrwt>
</event>
<event>
 4    1  0.2013882E-005  0.1091761E+04  0.7818608E-02  0.9213260E-01
          2   -1    0    0  501    0  0.00000000000E+00  0.00000000000E+00  0.48826660428E+03  0.48826660429E+03  0.25500000000E-02 0. -1.
         -2   -1    0    0    0  501 -0.00000000000E+00 -0.00000000000E+00 -0.61029231456E+03  0.61029231456E+03  0.25500000000E-02 0.  1.
    5000001    1    1    2    0    0 -0.10982245675E+02 -0.44590370171E+03  0.18988014789E+03  0.52141077039E+03  0.19200000000E+03 0.  0.
   -5000001    1    1    2    0    0  0.10982245675E+02  0.44590370171E+03 -0.31190585816E+03  0.57714814846E+03  0.19200000000E+03 0.  0.
<mgrwt>
<rscale>  0 0.10917607E+04</rscale>
<asrwt>0</asrwt>
<pdfrwt beam="1">  1        2 0.69752372E-01 0.10917607E+04</pdfrwt>
<pdfrwt beam="2">  1       -2 0.87184616E-01 0.10917607E+04</pdfrwt>
<totfact> 0.78016100E+01</totfact>
</mgrwt>
</event>
<event>
 4    1  0.2013882E-005  0.6532783E+03  0.7818608E-02  0.9800647E-01
          2   -1    0    0  501    0  0.00000000000E+00  0.00000000000E+00  0.14722324051E+03  0.14722324053E+03  0.25500000000E-02 0.  1.
         -2   -1    0    0    0  501 -0.00000000000E+00 -0.00000000000E+00 -0.72470299627E+03  0.72470299628E+03  0.25500000000E-02 0. -1.
    5000001    1    1    2    0    0  0.60510575355E+02 -0.25086133213E+03 -0.36466723135E+03  0.48625006664E+03  0.19200000000E+03 0.  0.
   -5000001    1    1    2    0    0 -0.60510575355E+02  0.25086133213E+03 -0.21281252442E+03  0.38567617017E+03  0.19200000000E+03 0.  0.
<mgrwt>
<rscale>  0 0.65327827E+03</rscale>
<asrwt>0</asrwt>
<pdfrwt beam="1">  1        2 0.21031892E-01 0.65327827E+03</pdfrwt>
<pdfrwt beam="2">  1       -2 0.10352900E+00 0.65327827E+03</pdfrwt>
<totfact> 0.20595153E+02</totfact>
</mgrwt>
</event>
<event>
 4    1  0.2013882E-005  0.7536165E+03  0.7818608E-02  0.9629694E-01
         -2   -1    0    0    0  501 -0.00000000000E+00  0.00000000000E+00  0.25587847102E+03  0.25587847104E+03  0.25500000000E-02 0. -1.
          2   -1    0    0  501    0  0.00000000000E+00 -0.00000000000E+00 -0.55489019264E+03  0.55489019265E+03  0.25500000000E-02 0.  1.
    5000001    1    1    2    0    0  0.15887453888E+03  0.10109488787E+03 -0.43345180743E+03  0.51010368046E+03  0.19200000000E+03 0.  0.
   -5000001    1    1    2    0    0 -0.15887453888E+03 -0.10109488787E+03  0.13444008581E+03  0.30066498322E+03  0.19200000000E+03 0.  0.
<mgrwt>
<rscale>  0 0.75361649E+03</rscale>
<asrwt>0</asrwt>
<pdfrwt beam="1">  1        2 0.79270027E-01 0.75361649E+03</pdfrwt>
<pdfrwt beam="2">  1       -2 0.36554068E-01 0.75361649E+03</pdfrwt>
<totfact> 0.42146221E+02</totfact>
</mgrwt>
</event>
<event>
 4    1  0.2013882E-005  0.7873645E+03  0.7818608E-02  0.9578489E-01
         -2   -1    0    0    0  501 -0.00000000000E+00  0.00000000000E+00  0.12900574325E+03  0.12900574327E+03  0.25500000000E-02 0. -1.
          2   -1    0    0  501    0  0.00000000000E+00 -0.00000000000E+00 -0.12013863074E+04  0.12013863074E+04  0.25500000000E-02 0.  1.
    5000001    1    1    2    0    0  0.33838317872E+03  0.58336917893E+02 -0.51139390558E+03  0.64520856960E+03  0.19200000000E+03 0.  0.
   -5000001    1    1    2    0    0 -0.33838317872E+03 -0.58336917893E+02 -0.56098665856E+03  0.68518348106E+03  0.19200000000E+03 0.  0.
<mgrwt>
<rscale>  0 0.78736455E+03</rscale>
<asrwt>0</asrwt>
<pdfrwt beam="1">  1        2 0.17162661E+00 0.78736455E+03</pdfrwt>
<pdfrwt beam="2">  1       -2 0.18429393E-01 0.78736455E+03</pdfrwt>
<totfact> 0.52725324E+02</totfact>
</mgrwt>
</event>
<event>
 4    1  0.2013882E-005  0.4899397E+03  0.7818608E-02  0.1016439E+00
         -2   -1    0    0    0  501 -0.00000000000E+00  0.00000000000E+00  0.32568567605E+02  0.32568567705E+02  0.25500000000E-02 0. -1.
          2   -1    0    0  501    0  0.00000000000E+00 -0.00000000000E+00 -0.18425809290E+04  0.18425809290E+04  0.25500000000E-02 0.  1.
    5000001    1    1    2    0    0  0.13956937734E+03 -0.60456668331E+02 -0.89196982575E+03  0.92499123774E+03  0.19200000000E+03 0.  0.
   -5000001    1    1    2    0    0 -0.13956937734E+03  0.60456668331E+02 -0.91804253560E+03  0.95015825893E+03  0.19200000000E+03 0.  0.
<mgrwt>
<rscale>  0 0.48993968E+03</rscale>
<asrwt>0</asrwt>
<pdfrwt beam="1">  1        2 0.26322578E+00 0.48993968E+03</pdfrwt>
<pdfrwt beam="2">  1       -2 0.46526537E-02 0.48993968E+03</pdfrwt>
<totfact> 0.22877214E+03</totfact>
</mgrwt>
</event>
<event>
 4    1  0.2013882E-005  0.6879192E+03  0.7818608E-02  0.9738118E-01
          2   -1    0    0  501    0  0.00000000000E+00  0.00000000000E+00  0.14730353359E+04  0.14730353359E+04  0.25500000000E-02 0.  1.
         -2   -1    0    0    0  501 -0.00000000000E+00 -0.00000000000E+00 -0.80315943271E+02  0.80315943312E+02  0.25500000000E-02 0. -1.
    5000001    1    1    2    0    0  0.23292945905E+03 -0.11986886551E+03  0.44069632029E+03  0.54745038545E+03  0.19200000000E+03 0.  0.
   -5000001    1    1    2    0    0 -0.23292945905E+03  0.11986886551E+03  0.95202307229E+03  0.10059008937E+04  0.19200000000E+03 0.  0.
<mgrwt>
<rscale>  0 0.68791925E+03</rscale>
<asrwt>0</asrwt>
<pdfrwt beam="1">  1        2 0.21043362E+00 0.68791925E+03</pdfrwt>
<pdfrwt beam="2">  1       -2 0.11473706E-01 0.68791925E+03</pdfrwt>
<totfact> 0.83778810E+02</totfact>
</mgrwt>
</event>
<event>
 4    1  0.2013882E-005  0.6357484E+03  0.7818608E-02  0.9833895E-01
          2   -1    0    0  501    0  0.00000000000E+00  0.00000000000E+00  0.74624568007E+03  0.74624568007E+03  0.25500000000E-02 0.  1.
         -2   -1    0    0    0  501 -0.00000000000E+00 -0.00000000000E+00 -0.13540311908E+03  0.13540311910E+03  0.25500000000E-02 0. -1.
    5000001    1    1    2    0    0  0.21170229028E+03 -0.10679250777E+03  0.42912948829E+03  0.52653453557E+03  0.19200000000E+03 0.  0.
   -5000001    1    1    2    0    0 -0.21170229028E+03  0.10679250777E+03  0.18171307270E+03  0.35511426361E+03  0.19200000000E+03 0.  0.
<mgrwt>
<rscale>  0 0.63574835E+03</rscale>
<asrwt>0</asrwt>
<pdfrwt beam="1">  1        2 0.10660652E+00 0.63574835E+03</pdfrwt>
<pdfrwt beam="2">  1       -2 0.19343303E-01 0.63574835E+03</pdfrwt>
<totfact> 0.94257211E+02</totfact>
</mgrwt>
</event>
<event>
 4    1  0.2013882E-005  0.6415062E+03  0.7818608E-02  0.9822849E-01
         -2   -1    0    0    0  501 -0.00000000000E+00  0.00000000000E+00  0.10739232828E+03  0.10739232831E+03  0.25500000000E-02 0. -1.
          2   -1    0    0  501    0  0.00000000000E+00 -0.00000000000E+00 -0.95800648587E+03  0.95800648588E+03  0.25500000000E-02 0.  1.
    5000001    1    1    2    0    0  0.57918474936E+02 -0.12362661373E+03 -0.63804844806E+02  0.24407611022E+03  0.19200000000E+03 0.  0.
   -5000001    1    1    2    0    0 -0.57918474936E+02  0.12362661373E+03 -0.78680931279E+03  0.82132270396E+03  0.19200000000E+03 0.  0.
<mgrwt>
<rscale>  0 0.64150619E+03</rscale>
<asrwt>0</asrwt>
<pdfrwt beam="1">  1        2 0.13685806E+00 0.64150619E+03</pdfrwt>
<pdfrwt beam="2">  1       -2 0.15341762E-01 0.64150619E+03</pdfrwt>
<totfact> 0.10104457E+03</totfact>
</mgrwt>
</event>
<event>
 4    1  0.2013882E-005  0.4952375E+03  0.7818608E-02  0.1015030E+00
          2   -1    0    0  501    0  0.00000000000E+00  0.00000000000E+00  0.65832446007E+03  0.65832446008E+03  0.25500000000E-02 0.  1.
         -2   -1    0    0    0  501 -0.00000000000E+00 -0.00000000000E+00 -0.93138019954E+02  0.93138019989E+02  0.25500000000E-02 0. -1.
    5000001    1    1    2    0    0 -0.10375624029E+03 -0.99441382191E+02  0.37609487591E+03  0.44605526740E+03  0.19200000000E+03 0.  0.
   -5000001    1    1    2    0    0  0.10375624029E+03  0.99441382191E+02  0.18909156421E+03  0.30540721266E+03  0.19200000000E+03 0.  0.
<mgrwt>
<rscale>  0 0.49523747E+03</rscale>
<asrwt>0</asrwt>
<pdfrwt beam="1">  1        2 0.94046350E-01 0.49523747E+03</pdfrwt>
<pdfrwt beam="2">  1       -2 0.13305432E-01 0.49523747E+03</pdfrwt>
<totfact> 0.20731403E+03</totfact>
</mgrwt>
</event>
<event>
 4    1  0.2013882E-005  0.8529156E+03  0.7818608E-02  0.9486432E-01
          2   -1    0    0  501    0  0.00000000000E+00  0.00000000000E+00  0.11419057499E+04  0.11419057500E+04  0.25500000000E-02 0.  1.
         -2   -1    0    0    0  501 -0.00000000000E+00 -0.00000000000E+00 -0.15926554786E+03  0.15926554788E+03  0.25500000000E-02 0. -1.
    5000001    1    1    2    0    0 -0.57225398386E+01 -0.36971574249E+03  0.63013545076E+03  0.75541853565E+03  0.19200000000E+03 0.  0.
   -5000001    1    1    2    0    0  0.57225398386E+01  0.36971574249E+03  0.35250475133E+03  0.54575276217E+03  0.19200000000E+03 0.  0.
<mgrwt>
<rscale>  0 0.85291558E+03</rscale>
<asrwt>0</asrwt>
<pdfrwt beam="1">  1        2 0.16312939E+00 0.85291558E+03</pdfrwt>
<pdfrwt beam="2">  1       -2 0.22752222E-01 0.85291558E+03</pdfrwt>
<totfact> 0.39264173E+02</totfact>
</mgrwt>
</event>
<event>
 4    1  0.2013882E-005  0.1423497E+04  0.7818608E-02  0.8936983E-01
         -2   -1    0    0    0  501 -0.00000000000E+00  0.00000000000E+00  0.18165809393E+03  0.18165809395E+03  0.25500000000E-02 0. -1.
          2   -1    0    0  501    0  0.00000000000E+00 -0.00000000000E+00 -0.27886793254E+04  0.27886793254E+04  0.25500000000E-02 0.  1.
    5000001    1    1    2    0    0 -0.22634905171E+03 -0.31879216778E+03 -0.24780909334E+04  0.25160804863E+04  0.19200000000E+03 0.  0.
   -5000001    1    1    2    0    0  0.22634905171E+03  0.31879216778E+03 -0.12893029808E+03  0.45425693304E+03  0.19200000000E+03 0.  0.
<mgrwt>
<rscale>  0 0.14234973E+04</rscale>
<asrwt>0</asrwt>
<pdfrwt beam="1">  1        2 0.39838274E+00 0.14234973E+04</pdfrwt>
<pdfrwt beam="2">  1       -2 0.25951158E-01 0.14234973E+04</pdfrwt>
<totfact> 0.40409057E+01</totfact>
</mgrwt>
</event>
<event>
 4    1  0.2013882E-005  0.4506282E+03  0.7818608E-02  0.1027535E+00
          2   -1    0    0  501    0  0.00000000000E+00  0.00000000000E+00  0.72596703114E+03  0.72596703115E+03  0.25500000000E-02 0.  1.
         -2   -1    0    0    0  501 -0.00000000000E+00 -0.00000000000E+00 -0.69929392579E+02  0.69929392626E+02  0.25500000000E-02 0. -1.
    5000001    1    1    2    0    0  0.34573554681E+02  0.93895100514E+02  0.43818756556E+03  0.48875757099E+03  0.19200000000E+03 0.  0.
   -5000001    1    1    2    0    0 -0.34573554681E+02 -0.93895100514E+02  0.21785007300E+03  0.30713885278E+03  0.19200000000E+03 0.  0.
<mgrwt>
<rscale>  0 0.45062816E+03</rscale>
<asrwt>0</asrwt>
<pdfrwt beam="1">  1        2 0.10370958E+00 0.45062816E+03</pdfrwt>
<pdfrwt beam="2">  1       -2 0.99899126E-02 0.45062816E+03</pdfrwt>
<totfact> 0.29382654E+03</totfact>
</mgrwt>
</event>
<event>
 4    1  0.2013882E-005  0.8664567E+03  0.7818608E-02  0.9468512E-01
          2   -1    0    0  501    0  0.00000000000E+00  0.00000000000E+00  0.19768976319E+04  0.19768976319E+04  0.25500000000E-02 0.  1.
         -2   -1    0    0    0  501 -0.00000000000E+00 -0.00000000000E+00 -0.94940068748E+02  0.94940068782E+02  0.25500000000E-02 0. -1.
    5000001    1    1    2    0    0 -0.97821631456E+02  0.31961003983E+03  0.46813820849E+03  0.60641325133E+03  0.19200000000E+03 0.  0.
   -5000001    1    1    2    0    0  0.97821631456E+02 -0.31961003983E+03  0.14138193547E+04  0.14654244494E+04  0.19200000000E+03 0.  0.
<mgrwt>
<rscale>  0 0.86645669E+03</rscale>
<asrwt>0</asrwt>
<pdfrwt beam="1">  1        2 0.28241394E+00 0.86645669E+03</pdfrwt>
<pdfrwt beam="2">  1       -2 0.13562867E-01 0.86645669E+03</pdfrwt>
<totfact> 0.34619991E+02</totfact>
</mgrwt>
</event>
<event>
 4    1  0.2013882E-005  0.5900825E+03  0.7818608E-02  0.9926198E-01
          2   -1    0    0  501    0  0.00000000000E+00  0.00000000000E+00  0.28014916140E+03  0.28014916141E+03  0.25500000000E-02 0.  1.
         -2   -1    0    0    0  501 -0.00000000000E+00 -0.00000000000E+00 -0.31072494618E+03  0.31072494619E+03  0.25500000000E-02 0. -1.
    5000001    1    1    2    0    0 -0.21700299761E+03  0.69945303862E+01 -0.70553498404E+02  0.29829686650E+03  0.19200000000E+03 0.  0.
   -5000001    1    1    2    0    0  0.21700299761E+03 -0.69945303862E+01  0.39977713630E+02  0.29257724110E+03  0.19200000000E+03 0.  0.
<mgrwt>
<rscale>  0 0.59008248E+03</rscale>
<asrwt>0</asrwt>
<pdfrwt beam="1">  1        2 0.40021309E-01 0.59008248E+03</pdfrwt>
<pdfrwt beam="2">  1       -2 0.44389278E-01 0.59008248E+03</pdfrwt>
<totfact> 0.62356713E+02</totfact>
</mgrwt>
</event>
<event>
 4    1  0.2013882E-005  0.1145071E+04  0.7818608E-02  0.9162342E-01
          2   -1    0    0  501    0  0.00000000000E+00  0.00000000000E+00  0.11790332218E+04  0.11790332218E+04  0.25500000000E-02 0.  1.
         -2   -1    0    0    0  501 -0.00000000000E+00 -0.00000000000E+00 -0.27802196004E+03  0.27802196005E+03  0.25500000000E-02 0. -1.
    5000001    1    1    2    0    0  0.44364914490E+03 -0.28356904644E+03  0.59942757170E+03  0.82061768296E+03  0.19200000000E+03 0.  0.
   -5000001    1    1    2    0    0 -0.44364914490E+03  0.28356904644E+03  0.30158369004E+03  0.63643749887E+03  0.19200000000E+03 0.  0.
<mgrwt>
<rscale>  0 0.11450714E+04</rscale>
<asrwt>0</asrwt>
<pdfrwt beam="1">  1        2 0.16843332E+00 0.11450714E+04</pdfrwt>
<pdfrwt beam="2">  1       -2 0.39717423E-01 0.11450714E+04</pdfrwt>
<totfact> 0.13032760E+02</totfact>
</mgrwt>
</event>
<event>
 4    1  0.2013882E-005  0.5321697E+03  0.7818608E-02  0.1005707E+00
          2   -1    0    0  501    0  0.00000000000E+00  0.00000000000E+00  0.70040095914E+03  0.70040095914E+03  0.25500000000E-02 0.  1.
         -2   -1    0    0    0  501 -0.00000000000E+00 -0.00000000000E+00 -0.10108660598E+03  0.10108660602E+03  0.25500000000E-02 0. -1.
    5000001    1    1    2    0    0  0.61750753250E+02 -0.17173517898E+03  0.33749020727E+03  0.42903352693E+03  0.19200000000E+03 0.  0.
   -5000001    1    1    2    0    0 -0.61750753250E+02  0.17173517898E+03  0.26182414588E+03  0.37245403823E+03  0.19200000000E+03 0.  0.
<mgrwt>
<rscale>  0 0.53216973E+03</rscale>
<asrwt>0</asrwt>
<pdfrwt beam="1">  1        2 0.10005728E+00 0.53216973E+03</pdfrwt>
<pdfrwt beam="2">  1       -2 0.14440944E-01 0.53216973E+03</pdfrwt>
<totfact> 0.16788129E+03</totfact>
</mgrwt>
</event>
<event>
 4    1  0.2013882E-005  0.5228168E+03  0.7818608E-02  0.1007989E+00
          2   -1    0    0  501    0  0.00000000000E+00  0.00000000000E+00  0.89984252977E+03  0.89984252978E+03  0.25500000000E-02 0.  1.
         -2   -1    0    0    0  501 -0.00000000000E+00 -0.00000000000E+00 -0.75940340182E+02  0.75940340224E+02  0.25500000000E-02 0. -1.
    5000001    1    1    2    0    0  0.14808970694E+03 -0.81576507780E+02  0.51220033411E+03  0.57253687234E+03  0.19200000000E+03 0.  0.
   -5000001    1    1    2    0    0 -0.14808970694E+03  0.81576507780E+02  0.31170185548E+03  0.40324599766E+03  0.19200000000E+03 0.  0.
<mgrwt>
<rscale>  0 0.52281679E+03</rscale>
<asrwt>0</asrwt>
<pdfrwt beam="1">  1        2 0.12854893E+00 0.52281679E+03</pdfrwt>
<pdfrwt beam="2">  1       -2 0.10848620E-01 0.52281679E+03</pdfrwt>
<totfact> 0.19568169E+03</totfact>
</mgrwt>
</event>
<event>
 4    1  0.2013882E-005  0.4787855E+03  0.7818608E-02  0.1019469E+00
         -2   -1    0    0    0  501 -0.00000000000E+00  0.00000000000E+00  0.24249623170E+02  0.24249623304E+02  0.25500000000E-02 0. -1.
          2   -1    0    0  501    0  0.00000000000E+00 -0.00000000000E+00 -0.23632894075E+04  0.23632894075E+04  0.25500000000E-02 0.  1.
    5000001    1    1    2    0    0 -0.13996561676E+03  0.10632066624E+02 -0.10337341157E+04  0.10607420218E+04  0.19200000000E+03 0.  0.
   -5000001    1    1    2    0    0  0.13996561676E+03 -0.10632066624E+02 -0.13053056686E+04  0.13267970090E+04  0.19200000000E+03 0.  0.
<mgrwt>
<rscale>  0 0.47878545E+03</rscale>
<asrwt>0</asrwt>
<pdfrwt beam="1">  1        2 0.33761263E+00 0.47878545E+03</pdfrwt>
<pdfrwt beam="2">  1       -2 0.34642334E-02 0.47878545E+03</pdfrwt>
<totfact> 0.19732291E+03</totfact>
</mgrwt>
</event>
<event>
 4    1  0.2013882E-005  0.5059934E+03  0.7818608E-02  0.1012226E+00
          2   -1    0    0  501    0  0.00000000000E+00  0.00000000000E+00  0.57252286573E+03  0.57252286573E+03  0.25500000000E-02 0.  1.
         -2   -1    0    0    0  501 -0.00000000000E+00 -0.00000000000E+00 -0.11179871459E+03  0.11179871462E+03  0.25500000000E-02 0. -1.
    5000001    1    1    2    0    0 -0.12113321094E+03  0.10970662154E+03  0.25855380621E+03  0.36114106428E+03  0.19200000000E+03 0.  0.
   -5000001    1    1    2    0    0  0.12113321094E+03 -0.10970662154E+03  0.20217034493E+03  0.32318051608E+03  0.19200000000E+03 0.  0.
<mgrwt>
<rscale>  0 0.50599336E+03</rscale>
<asrwt>0</asrwt>
<pdfrwt beam="1">  1        2 0.81788981E-01 0.50599336E+03</pdfrwt>
<pdfrwt beam="2">  1       -2 0.15971245E-01 0.50599336E+03</pdfrwt>
<totfact> 0.18003756E+03</totfact>
</mgrwt>
</event>
<event>
 4    1  0.2013882E-005  0.7059508E+03  0.7818608E-02  0.9707109E-01
          2   -1    0    0  501    0  0.00000000000E+00  0.00000000000E+00  0.34316238587E+04  0.34316238587E+04  0.25500000000E-02 0.  1.
         -2   -1    0    0    0  501 -0.00000000000E+00 -0.00000000000E+00 -0.36306907509E+02  0.36306907599E+02  0.25500000000E-02 0. -1.
    5000001    1    1    2    0    0 -0.16768078417E+01 -0.16716085586E+03  0.28987648983E+04  0.29099222496E+04  0.19200000000E+03 0.  0.
   -5000001    1    1    2    0    0  0.16768078417E+01  0.16716085586E+03  0.49655205289E+03  0.55800851664E+03  0.19200000000E+03 0.  0.
<mgrwt>
<rscale>  0 0.70595085E+03</rscale>
<asrwt>0</asrwt>
<pdfrwt beam="1">  1        2 0.49023177E+00 0.70595085E+03</pdfrwt>
<pdfrwt beam="2">  1       -2 0.51867033E-02 0.70595085E+03</pdfrwt>
<totfact> 0.27568040E+02</totfact>
</mgrwt>
</event>
<event>
 4    1  0.2013882E-005  0.5040552E+03  0.7818608E-02  0.1012726E+00
         -2   -1    0    0    0  501 -0.00000000000E+00  0.00000000000E+00  0.53301218641E+02  0.53301218702E+02  0.25500000000E-02 0. -1.
          2   -1    0    0  501    0  0.00000000000E+00 -0.00000000000E+00 -0.11916783208E+04  0.11916783208E+04  0.25500000000E-02 0.  1.
    5000001    1    1    2    0    0  0.37949047209E+02 -0.15099304497E+03 -0.44781288311E+03  0.51150699711E+03  0.19200000000E+03 0.  0.
   -5000001    1    1    2    0    0 -0.37949047209E+02  0.15099304497E+03 -0.69056421905E+03  0.73347254239E+03  0.19200000000E+03 0.  0.
<mgrwt>
<rscale>  0 0.50405518E+03</rscale>
<asrwt>0</asrwt>
<pdfrwt beam="1">  1        2 0.17023974E+00 0.50405518E+03</pdfrwt>
<pdfrwt beam="2">  1       -2 0.76144605E-02 0.50405518E+03</pdfrwt>
<totfact> 0.23146476E+03</totfact>
</mgrwt>
</event>
<event>
 4    1  0.2013882E-005  0.8743719E+03  0.7818608E-02  0.9458197E-01
         -2   -1    0    0    0  501 -0.00000000000E+00  0.00000000000E+00  0.11230164845E+04  0.11230164845E+04  0.25500000000E-02 0. -1.
          2   -1    0    0  501    0  0.00000000000E+00 -0.00000000000E+00 -0.17019477966E+03  0.17019477968E+03  0.25500000000E-02 0.  1.
    5000001    1    1    2    0    0  0.24163346700E+03 -0.25357191635E+03  0.73925224597E+03  0.84026384684E+03  0.19200000000E+03 0.  0.
   -5000001    1    1    2    0    0 -0.24163346700E+03  0.25357191635E+03  0.21356945891E+03  0.45294741738E+03  0.19200000000E+03 0.  0.
<mgrwt>
<rscale>  0 0.87437187E+03</rscale>
<asrwt>0</asrwt>
<pdfrwt beam="1">  1        2 0.24313539E-01 0.87437187E+03</pdfrwt>
<pdfrwt beam="2">  1       -2 0.16043093E+00 0.87437187E+03</pdfrwt>
<totfact> 0.56907012E+01</totfact>
</mgrwt>
</event>
<event>
 4    1  0.2013882E-005  0.1140211E+04  0.7818608E-02  0.9166862E-01
         -2   -1    0    0    0  501 -0.00000000000E+00  0.00000000000E+00  0.77132256699E+03  0.77132256699E+03  0.25500000000E-02 0. -1.
          2   -1    0    0  501    0  0.00000000000E+00 -0.00000000000E+00 -0.42138044259E+03  0.42138044259E+03  0.25500000000E-02 0.  1.
    5000001    1    1    2    0    0  0.51241636286E+03 -0.27837144114E+02  0.10205070379E+02  0.54800873988E+03  0.19200000000E+03 0.  0.
   -5000001    1    1    2    0    0 -0.51241636286E+03  0.27837144114E+02  0.33973705402E+03  0.64469426971E+03  0.19200000000E+03 0.  0.
<mgrwt>
<rscale>  0 0.11402109E+04</rscale>
<asrwt>0</asrwt>
<pdfrwt beam="1">  1        2 0.60197206E-01 0.11402109E+04</pdfrwt>
<pdfrwt beam="2">  1       -2 0.11018894E+00 0.11402109E+04</pdfrwt>
<totfact> 0.52899019E+01</totfact>
</mgrwt>
</event>
<event>
 4    1  0.2013882E-005  0.5577185E+03  0.7818608E-02  0.9997230E-01
          2   -1    0    0  501    0  0.00000000000E+00  0.00000000000E+00  0.56523284902E+03  0.56523284902E+03  0.25500000000E-02 0.  1.
         -2   -1    0    0    0  501 -0.00000000000E+00 -0.00000000000E+00 -0.13757599206E+03  0.13757599208E+03  0.25500000000E-02 0. -1.
    5000001    1    1    2    0    0  0.14058752259E+03  0.80488504805E+02  0.36638058601E+03  0.44423190421E+03  0.19200000000E+03 0.  0.
   -5000001    1    1    2    0    0 -0.14058752259E+03 -0.80488504805E+02  0.61276270950E+02  0.25857693690E+03  0.19200000000E+03 0.  0.
<mgrwt>
<rscale>  0 0.55771846E+03</rscale>
<asrwt>0</asrwt>
<pdfrwt beam="1">  1        2 0.80747550E-01 0.55771846E+03</pdfrwt>
<pdfrwt beam="2">  1       -2 0.19653713E-01 0.55771846E+03</pdfrwt>
<totfact> 0.12812419E+03</totfact>
</mgrwt>
</event>
<event>
 4    1  0.2013882E-005  0.6724291E+03  0.7818608E-02  0.9765580E-01
          2   -1    0    0  501    0  0.00000000000E+00  0.00000000000E+00  0.41901223285E+03  0.41901223285E+03  0.25500000000E-02 0.  1.
         -2   -1    0    0    0  501 -0.00000000000E+00 -0.00000000000E+00 -0.26977787736E+03  0.26977787737E+03  0.25500000000E-02 0. -1.
    5000001    1    1    2    0    0  0.93394679901E+02 -0.16752446798E+03  0.27791328567E+03  0.38844151163E+03  0.19200000000E+03 0.  0.
   -5000001    1    1    2    0    0 -0.93394679901E+02  0.16752446798E+03 -0.12867893018E+03  0.30034859860E+03  0.19200000000E+03 0.  0.
<mgrwt>
<rscale>  0 0.67242912E+03</rscale>
<asrwt>0</asrwt>
<pdfrwt beam="1">  1        2 0.59858890E-01 0.67242912E+03</pdfrwt>
<pdfrwt beam="2">  1       -2 0.38539697E-01 0.67242912E+03</pdfrwt>
<totfact> 0.52536804E+02</totfact>
</mgrwt>
</event>
<event>
 4    1  0.2013882E-005  0.1461246E+04  0.7818608E-02  0.8910641E-01
         -2   -1    0    0    0  501 -0.00000000000E+00  0.00000000000E+00  0.32970774852E+03  0.32970774853E+03  0.25500000000E-02 0. -1.
          2   -1    0    0  501    0  0.00000000000E+00 -0.00000000000E+00 -0.16190394556E+04  0.16190394556E+04  0.25500000000E-02 0.  1.
    5000001    1    1    2    0    0  0.47084425740E+03 -0.50599155833E+03 -0.82957356336E+03  0.10967123911E+04  0.19200000000E+03 0.  0.
   -5000001    1    1    2    0    0 -0.47084425740E+03  0.50599155833E+03 -0.45975814368E+03  0.85203481297E+03  0.19200000000E+03 0.  0.
<mgrwt>
<rscale>  0 0.14612458E+04</rscale>
<asrwt>0</asrwt>
<pdfrwt beam="1">  1        2 0.23129135E+00 0.14612458E+04</pdfrwt>
<pdfrwt beam="2">  1       -2 0.47101108E-01 0.14612458E+04</pdfrwt>
<totfact> 0.52403870E+01</totfact>
</mgrwt>
</event>
<event>
 4    1  0.2013882E-005  0.5582619E+03  0.7818608E-02  0.9995995E-01
         -2   -1    0    0    0  501 -0.00000000000E+00  0.00000000000E+00  0.57723998298E+02  0.57723998354E+02  0.25500000000E-02 0. -1.
          2   -1    0    0  501    0  0.00000000000E+00 -0.00000000000E+00 -0.13497695948E+04  0.13497695948E+04  0.25500000000E-02 0.  1.
    5000001    1    1    2    0    0  0.29145634695E+02  0.17402693034E+03 -0.39497269590E+03  0.47328878183E+03  0.19200000000E+03 0.  0.
   -5000001    1    1    2    0    0 -0.29145634695E+02 -0.17402693034E+03 -0.89707290065E+03  0.93420481137E+03  0.19200000000E+03 0.  0.
<mgrwt>
<rscale>  0 0.55826194E+03</rscale>
<asrwt>0</asrwt>
<pdfrwt beam="1">  1        2 0.19282421E+00 0.55826194E+03</pdfrwt>
<pdfrwt beam="2">  1       -2 0.82462863E-02 0.55826194E+03</pdfrwt>
<totfact> 0.16700457E+03</totfact>
</mgrwt>
</event>
<event>
 4    1  0.2013882E-005  0.5017008E+03  0.7818608E-02  0.1013336E+00
         -2   -1    0    0    0  501 -0.00000000000E+00  0.00000000000E+00  0.10128635884E+03  0.10128635888E+03  0.25500000000E-02 0. -1.
          2   -1    0    0  501    0  0.00000000000E+00 -0.00000000000E+00 -0.62126744576E+03  0.62126744576E+03  0.25500000000E-02 0.  1.
    5000001    1    1    2    0    0  0.62021549395E+01  0.16043433034E+03 -0.23570790855E+03  0.34380206403E+03  0.19200000000E+03 0.  0.
   -5000001    1    1    2    0    0 -0.62021549395E+01 -0.16043433034E+03 -0.28427317836E+03  0.37875174061E+03  0.19200000000E+03 0.  0.
<mgrwt>
<rscale>  0 0.50170078E+03</rscale>
<asrwt>0</asrwt>
<pdfrwt beam="1">  1        2 0.88752490E-01 0.50170078E+03</pdfrwt>
<pdfrwt beam="2">  1       -2 0.14469480E-01 0.50170078E+03</pdfrwt>
<totfact> 0.19316355E+03</totfact>
</mgrwt>
</event>
<event>
 4    1  0.2013882E-005  0.5366066E+03  0.7818608E-02  0.1004642E+00
          2   -1    0    0  501    0  0.00000000000E+00  0.00000000000E+00  0.32379869489E+03  0.32379869490E+03  0.25500000000E-02 0.  1.
         -2   -1    0    0    0  501 -0.00000000000E+00 -0.00000000000E+00 -0.22231915842E+03  0.22231915844E+03  0.25500000000E-02 0. -1.
    5000001    1    1    2    0    0  0.14283642911E+03  0.31728018691E+02  0.16992113284E+03  0.29520518972E+03  0.19200000000E+03 0.  0.
   -5000001    1    1    2    0    0 -0.14283642911E+03 -0.31728018691E+02 -0.68441596371E+02  0.25091266362E+03  0.19200000000E+03 0.  0.
<mgrwt>
<rscale>  0 0.53660657E+03</rscale>
<asrwt>0</asrwt>
<pdfrwt beam="1">  1        2 0.46256956E-01 0.53660657E+03</pdfrwt>
<pdfrwt beam="2">  1       -2 0.31759880E-01 0.53660657E+03</pdfrwt>
<totfact> 0.10106277E+03</totfact>
</mgrwt>
</event>
<event>
 4    1  0.2013882E-005  0.4150700E+03  0.7818608E-02  0.1038683E+00
          2   -1    0    0  501    0  0.00000000000E+00  0.00000000000E+00  0.63193689647E+03  0.63193689648E+03  0.25500000000E-02 0.  1.
         -2   -1    0    0    0  501 -0.00000000000E+00 -0.00000000000E+00 -0.68156774095E+02  0.68156774143E+02  0.25500000000E-02 0. -1.
    5000001    1    1    2    0    0 -0.63561596055E+02 -0.32495998527E+02  0.22567717436E+03  0.30477902395E+03  0.19200000000E+03 0.  0.
   -5000001    1    1    2    0    0  0.63561596055E+02  0.32495998527E+02  0.33810294802E+03  0.39531464667E+03  0.19200000000E+03 0.  0.
<mgrwt>
<rscale>  0 0.41507002E+03</rscale>
<asrwt>0</asrwt>
<pdfrwt beam="1">  1        2 0.90276706E-01 0.41507002E+03</pdfrwt>
<pdfrwt beam="2">  1       -2 0.97366813E-02 0.41507002E+03</pdfrwt>
<totfact> 0.36123782E+03</totfact>
</mgrwt>
</event>
<event>
 4    1  0.2013882E-005  0.1958993E+04  0.7818608E-02  0.8626037E-01
         -2   -1    0    0    0  501 -0.00000000000E+00  0.00000000000E+00  0.38939081747E+03  0.38939081748E+03  0.25500000000E-02 0. -1.
          2   -1    0    0  501    0  0.00000000000E+00 -0.00000000000E+00 -0.24638818295E+04  0.24638818295E+04  0.25500000000E-02 0.  1.
    5000001    1    1    2    0    0 -0.82814878494E+03 -0.48620589262E+03 -0.10110941417E+04  0.14076227987E+04  0.19200000000E+03 0.  0.
   -5000001    1    1    2    0    0  0.82814878494E+03  0.48620589262E+03 -0.10633968703E+04  0.14456498483E+04  0.19200000000E+03 0.  0.
<mgrwt>
<rscale>  0 0.19589926E+04</rscale>
<asrwt>0</asrwt>
<pdfrwt beam="1">  1        2 0.35198311E+00 0.19589926E+04</pdfrwt>
<pdfrwt beam="2">  1       -2 0.55627261E-01 0.19589926E+04</pdfrwt>
<totfact> 0.13082565E+01</totfact>
</mgrwt>
</event>
<event>
 4    1  0.2013882E-005  0.4888799E+03  0.7818608E-02  0.1016723E+00
         -2   -1    0    0    0  501 -0.00000000000E+00  0.00000000000E+00  0.61599390338E+02  0.61599390391E+02  0.25500000000E-02 0. -1.
          2   -1    0    0  501    0  0.00000000000E+00 -0.00000000000E+00 -0.96999152164E+03  0.96999152164E+03  0.25500000000E-02 0.  1.
    5000001    1    1    2    0    0 -0.11064083549E+03  0.10200761350E+03 -0.48688159263E+03  0.54457748111E+03  0.19200000000E+03 0.  0.
   -5000001    1    1    2    0    0  0.11064083549E+03 -0.10200761350E+03 -0.42151053868E+03  0.48701343093E+03  0.19200000000E+03 0.  0.
<mgrwt>
<rscale>  0 0.48887989E+03</rscale>
<asrwt>0</asrwt>
<pdfrwt beam="1">  1        2 0.13857021E+00 0.48887989E+03</pdfrwt>
<pdfrwt beam="2">  1       -2 0.87999135E-02 0.48887989E+03</pdfrwt>
<totfact> 0.24775849E+03</totfact>
</mgrwt>
</event>
<event>
 4    1  0.2013882E-005  0.6666331E+03  0.7818608E-02  0.9776059E-01
         -2   -1    0    0    0  501 -0.00000000000E+00  0.00000000000E+00  0.12521704562E+04  0.12521704562E+04  0.25500000000E-02 0. -1.
          2   -1    0    0  501    0  0.00000000000E+00 -0.00000000000E+00 -0.88725873738E+02  0.88725873775E+02  0.25500000000E-02 0.  1.
    5000001    1    1    2    0    0  0.12603147894E+03  0.84047093248E+01  0.96128505334E+02  0.24911696522E+03  0.19200000000E+03 0.  0.
   -5000001    1    1    2    0    0 -0.12603147894E+03 -0.84047093248E+01  0.10673160772E+04  0.10917793648E+04  0.19200000000E+03 0.  0.
<mgrwt>
<rscale>  0 0.66663309E+03</rscale>
<asrwt>0</asrwt>
<pdfrwt beam="1">  1        2 0.12675125E-01 0.66663309E+03</pdfrwt>
<pdfrwt beam="2">  1       -2 0.17888150E+00 0.66663309E+03</pdfrwt>
<totfact> 0.92733849E+01</totfact>
</mgrwt>
</event>
<event>
 4    1  0.2013882E-005  0.7642493E+03  0.7818608E-02  0.9613257E-01
         -2   -1    0    0    0  501 -0.00000000000E+00  0.00000000000E+00  0.11794895195E+03  0.11794895197E+03  0.25500000000E-02 0. -1.
          2   -1    0    0  501    0  0.00000000000E+00 -0.00000000000E+00 -0.12379866814E+04  0.12379866814E+04  0.25500000000E-02 0.  1.
    5000001    1    1    2    0    0  0.18579932241E+03 -0.21979139267E+03 -0.84788666013E+03  0.91575402424E+03  0.19200000000E+03 0.  0.
   -5000001    1    1    2    0    0 -0.18579932241E+03  0.21979139267E+03 -0.27215106936E+03  0.44018160917E+03  0.19200000000E+03 0.  0.
<mgrwt>
<rscale>  0 0.76424926E+03</rscale>
<asrwt>0</asrwt>
<pdfrwt beam="1">  1        2 0.17685523E+00 0.76424926E+03</pdfrwt>
<pdfrwt beam="2">  1       -2 0.16849851E-01 0.76424926E+03</pdfrwt>
<totfact> 0.58736309E+02</totfact>
</mgrwt>
</event>
<event>
 4    1  0.2013882E-005  0.4669226E+03  0.7818608E-02  0.1022792E+00
          2   -1    0    0  501    0  0.00000000000E+00  0.00000000000E+00  0.34501554322E+03  0.34501554323E+03  0.25500000000E-02 0.  1.
         -2   -1    0    0    0  501 -0.00000000000E+00 -0.00000000000E+00 -0.15797602778E+03  0.15797602780E+03  0.25500000000E-02 0. -1.
    5000001    1    1    2    0    0  0.10373691445E+03 -0.43129923866E+02  0.16983461985E+03  0.27987378557E+03  0.19200000000E+03 0.  0.
   -5000001    1    1    2    0    0 -0.10373691445E+03  0.43129923866E+02  0.17204895592E+02  0.22311778545E+03  0.19200000000E+03 0.  0.
<mgrwt>
<rscale>  0 0.46692263E+03</rscale>
<asrwt>0</asrwt>
<pdfrwt beam="1">  1        2 0.49287934E-01 0.46692263E+03</pdfrwt>
<pdfrwt beam="2">  1       -2 0.22568004E-01 0.46692263E+03</pdfrwt>
<totfact> 0.17477672E+03</totfact>
</mgrwt>
</event>
<event>
 4    1  0.2013882E-005  0.7589825E+03  0.7818608E-02  0.9621363E-01
          2   -1    0    0  501    0  0.00000000000E+00  0.00000000000E+00  0.43645132136E+03  0.43645132137E+03  0.25500000000E-02 0.  1.
         -2   -1    0    0    0  501 -0.00000000000E+00 -0.00000000000E+00 -0.32996485916E+03  0.32996485917E+03  0.25500000000E-02 0. -1.
    5000001    1    1    2    0    0  0.14360316239E+03  0.26248575477E+03 -0.80831289438E+02  0.36457967176E+03  0.19200000000E+03 0.  0.
   -5000001    1    1    2    0    0 -0.14360316239E+03 -0.26248575477E+03  0.18731775164E+03  0.40183650878E+03  0.19200000000E+03 0.  0.
<mgrwt>
<rscale>  0 0.75898247E+03</rscale>
<asrwt>0</asrwt>
<pdfrwt beam="1">  1        2 0.62350189E-01 0.75898247E+03</pdfrwt>
<pdfrwt beam="2">  1       -2 0.47137837E-01 0.75898247E+03</pdfrwt>
<totfact> 0.33670508E+02</totfact>
</mgrwt>
</event>
<event>
 4    1  0.2013882E-005  0.6962002E+03  0.7818608E-02  0.9723752E-01
         -2   -1    0    0    0  501 -0.00000000000E+00  0.00000000000E+00  0.88346197120E+02  0.88346197157E+02  0.25500000000E-02 0. -1.
          2   -1    0    0  501    0  0.00000000000E+00 -0.00000000000E+00 -0.13715777781E+04  0.13715777781E+04  0.25500000000E-02 0.  1.
    5000001    1    1    2    0    0  0.17118738533E+03  0.23171637243E+03 -0.71757434437E+03  0.79672739243E+03  0.19200000000E+03 0.  0.
   -5000001    1    1    2    0    0 -0.17118738533E+03 -0.23171637243E+03 -0.56565723661E+03  0.66319658283E+03  0.19200000000E+03 0.  0.
<mgrwt>
<rscale>  0 0.69620020E+03</rscale>
<asrwt>0</asrwt>
<pdfrwt beam="1">  1        2 0.19593967E+00 0.69620020E+03</pdfrwt>
<pdfrwt beam="2">  1       -2 0.12620886E-01 0.69620020E+03</pdfrwt>
<totfact> 0.81013502E+02</totfact>
</mgrwt>
</event>
<event>
 4    1  0.2013882E-005  0.5587109E+03  0.7818608E-02  0.9994976E-01
         -2   -1    0    0    0  501 -0.00000000000E+00  0.00000000000E+00  0.51673451535E+02  0.51673451598E+02  0.25500000000E-02 0. -1.
          2   -1    0    0  501    0  0.00000000000E+00 -0.00000000000E+00 -0.15102428646E+04  0.15102428646E+04  0.25500000000E-02 0.  1.
    5000001    1    1    2    0    0  0.16548915881E+03  0.70841440828E+02 -0.46747990128E+03  0.53647612204E+03  0.19200000000E+03 0.  0.
   -5000001    1    1    2    0    0 -0.16548915881E+03 -0.70841440828E+02 -0.99108951178E+03  0.10254401941E+04  0.19200000000E+03 0.  0.
<mgrwt>
<rscale>  0 0.55871088E+03</rscale>
<asrwt>0</asrwt>
<pdfrwt beam="1">  1        2 0.21574895E+00 0.55871088E+03</pdfrwt>
<pdfrwt beam="2">  1       -2 0.73819226E-02 0.55871088E+03</pdfrwt>
<totfact> 0.16390673E+03</totfact>
</mgrwt>
</event>
<event>
 4    1  0.2013882E-005  0.6687764E+03  0.7818608E-02  0.9772171E-01
          2   -1    0    0  501    0  0.00000000000E+00  0.00000000000E+00  0.52806974245E+03  0.52806974245E+03  0.25500000000E-02 0.  1.
         -2   -1    0    0    0  501 -0.00000000000E+00 -0.00000000000E+00 -0.21174374501E+03  0.21174374502E+03  0.25500000000E-02 0. -1.
    5000001    1    1    2    0    0 -0.17551433868E+03 -0.20828106377E+03  0.12756287378E+03  0.35682288516E+03  0.19200000000E+03 0.  0.
   -5000001    1    1    2    0    0  0.17551433868E+03  0.20828106377E+03  0.18876312366E+03  0.38299060232E+03  0.19200000000E+03 0.  0.
<mgrwt>
<rscale>  0 0.66877639E+03</rscale>
<asrwt>0</asrwt>
<pdfrwt beam="1">  1        2 0.75438533E-01 0.66877639E+03</pdfrwt>
<pdfrwt beam="2">  1       -2 0.30249107E-01 0.66877639E+03</pdfrwt>
<totfact> 0.63918291E+02</totfact>
</mgrwt>
</event>
<event>
 4    1  0.2013882E-005  0.6443668E+03  0.7818608E-02  0.9817407E-01
          2   -1    0    0  501    0  0.00000000000E+00  0.00000000000E+00  0.37264556720E+03  0.37264556721E+03  0.25500000000E-02 0.  1.
         -2   -1    0    0    0  501 -0.00000000000E+00 -0.00000000000E+00 -0.27855457966E+03  0.27855457967E+03  0.25500000000E-02 0. -1.
    5000001    1    1    2    0    0 -0.23120381080E+03 -0.11576548879E+03  0.56156577780E+02  0.32691652107E+03  0.19200000000E+03 0.  0.
   -5000001    1    1    2    0    0  0.23120381080E+03  0.11576548879E+03  0.37934409756E+02  0.32428362581E+03  0.19200000000E+03 0.  0.
<mgrwt>
<rscale>  0 0.64436676E+03</rscale>
<asrwt>0</asrwt>
<pdfrwt beam="1">  1        2 0.53235081E-01 0.64436676E+03</pdfrwt>
<pdfrwt beam="2">  1       -2 0.39793512E-01 0.64436676E+03</pdfrwt>
<totfact> 0.56304405E+02</totfact>
</mgrwt>
</event>
<event>
 4    1  0.2013882E-005  0.6759065E+03  0.7818608E-02  0.9759346E-01
          2   -1    0    0  501    0  0.00000000000E+00  0.00000000000E+00  0.45525749918E+03  0.45525749919E+03  0.25500000000E-02 0.  1.
         -2   -1    0    0    0  501 -0.00000000000E+00 -0.00000000000E+00 -0.25087425219E+03  0.25087425220E+03  0.25500000000E-02 0. -1.
    5000001    1    1    2    0    0 -0.73977196414E+02 -0.26744282911E+03  0.82644161163E+02  0.34740804511E+03  0.19200000000E+03 0.  0.
   -5000001    1    1    2    0    0  0.73977196414E+02  0.26744282911E+03  0.12173908583E+03  0.35872370628E+03  0.19200000000E+03 0.  0.
<mgrwt>
<rscale>  0 0.67590646E+03</rscale>
<asrwt>0</asrwt>
<pdfrwt beam="1">  1        2 0.65036785E-01 0.67590646E+03</pdfrwt>
<pdfrwt beam="2">  1       -2 0.35839179E-01 0.67590646E+03</pdfrwt>
<totfact> 0.55019773E+02</totfact>
</mgrwt>
</event>
<event>
 4    1  0.2013882E-005  0.5930705E+03  0.7818608E-02  0.9919888E-01
          2   -1    0    0  501    0  0.00000000000E+00  0.00000000000E+00  0.84259955339E+03  0.84259955339E+03  0.25500000000E-02 0.  1.
         -2   -1    0    0    0  501 -0.00000000000E+00 -0.00000000000E+00 -0.10435937314E+03  0.10435937317E+03  0.25500000000E-02 0. -1.
    5000001    1    1    2    0    0  0.59728534812E+02 -0.18060533119E+03  0.56391408076E+03  0.62533900726E+03  0.19200000000E+03 0.  0.
   -5000001    1    1    2    0    0 -0.59728534812E+02  0.18060533119E+03  0.17432609949E+03  0.32161991930E+03  0.19200000000E+03 0.  0.
<mgrwt>
<rscale>  0 0.59307052E+03</rscale>
<asrwt>0</asrwt>
<pdfrwt beam="1">  1        2 0.12037137E+00 0.59307052E+03</pdfrwt>
<pdfrwt beam="2">  1       -2 0.14908482E-01 0.59307052E+03</pdfrwt>
<totfact> 0.12605753E+03</totfact>
</mgrwt>
</event>
<event>
 4    1  0.2013882E-005  0.1189737E+04  0.7818608E-02  0.9121887E-01
          2   -1    0    0  501    0  0.00000000000E+00  0.00000000000E+00  0.28855939625E+03  0.28855939626E+03  0.25500000000E-02 0.  1.
         -2   -1    0    0    0  501 -0.00000000000E+00 -0.00000000000E+00 -0.12263292042E+04  0.12263292042E+04  0.25500000000E-02 0. -1.
    5000001    1    1    2    0    0  0.47436226889E+03 -0.10849258616E+03 -0.10825951576E+03  0.53420438612E+03  0.19200000000E+03 0.  0.
   -5000001    1    1    2    0    0 -0.47436226889E+03  0.10849258616E+03 -0.82951029220E+03  0.98068421434E+03  0.19200000000E+03 0.  0.
<mgrwt>
<rscale>  0 0.11897375E+04</rscale>
<asrwt>0</asrwt>
<pdfrwt beam="1">  1        2 0.41222772E-01 0.11897375E+04</pdfrwt>
<pdfrwt beam="2">  1       -2 0.17518988E+00 0.11897375E+04</pdfrwt>
<totfact> 0.24089787E+01</totfact>
</mgrwt>
</event>
<event>
 4    1  0.2013882E-005  0.4956020E+03  0.7818608E-02  0.1014933E+00
          2   -1    0    0  501    0  0.00000000000E+00  0.00000000000E+00  0.12123195433E+04  0.12123195433E+04  0.25500000000E-02 0.  1.
         -2   -1    0    0    0  501 -0.00000000000E+00 -0.00000000000E+00 -0.50651105461E+02  0.50651105526E+02  0.25500000000E-02 0. -1.
    5000001    1    1    2    0    0  0.82513997105E+01  0.14186873267E+03  0.74884230919E+03  0.78601757420E+03  0.19200000000E+03 0.  0.
   -5000001    1    1    2    0    0 -0.82513997105E+01 -0.14186873267E+03  0.41282612863E+03  0.47695307462E+03  0.19200000000E+03 0.  0.
<mgrwt>
<rscale>  0 0.49560196E+03</rscale>
<asrwt>0</asrwt>
<pdfrwt beam="1">  1        2 0.17318849E+00 0.49560196E+03</pdfrwt>
<pdfrwt beam="2">  1       -2 0.72358729E-02 0.49560196E+03</pdfrwt>
<totfact> 0.24435383E+03</totfact>
</mgrwt>
</event>
<event>
 4    1  0.2013882E-005  0.4485195E+03  0.7818608E-02  0.1028164E+00
          2   -1    0    0  501    0  0.00000000000E+00  0.00000000000E+00  0.10815130267E+04  0.10815130267E+04  0.25500000000E-02 0.  1.
         -2   -1    0    0    0  501 -0.00000000000E+00 -0.00000000000E+00 -0.46501920253E+02  0.46501920323E+02  0.25500000000E-02 0. -1.
    5000001    1    1    2    0    0  0.17483987782E+02 -0.11420909756E+03  0.53986263695E+03  0.58452123534E+03  0.19200000000E+03 0.  0.
   -5000001    1    1    2    0    0 -0.17483987782E+02  0.11420909756E+03  0.49514846955E+03  0.54349371173E+03  0.19200000000E+03 0.  0.
<mgrwt>
<rscale>  0 0.44851949E+03</rscale>
<asrwt>0</asrwt>
<pdfrwt beam="1">  1        2 0.15450185E+00 0.44851949E+03</pdfrwt>
<pdfrwt beam="2">  1       -2 0.66431321E-02 0.44851949E+03</pdfrwt>
<totfact> 0.33140401E+03</totfact>
</mgrwt>
</event>
<event>
 4    1  0.2013882E-005  0.7173517E+03  0.7818608E-02  0.9688010E-01
         -2   -1    0    0    0  501 -0.00000000000E+00  0.00000000000E+00  0.11306618539E+03  0.11306618542E+03  0.25500000000E-02 0. -1.
          2   -1    0    0  501    0  0.00000000000E+00 -0.00000000000E+00 -0.11378145973E+04  0.11378145973E+04  0.25500000000E-02 0.  1.
    5000001    1    1    2    0    0 -0.27049711051E+03 -0.13136595498E+03 -0.57664866753E+03  0.67809541120E+03  0.19200000000E+03 0.  0.
   -5000001    1    1    2    0    0  0.27049711051E+03  0.13136595498E+03 -0.44809974436E+03  0.57278537152E+03  0.19200000000E+03 0.  0.
<mgrwt>
<rscale>  0 0.71735167E+03</rscale>
<asrwt>0</asrwt>
<pdfrwt beam="1">  1        2 0.16254494E+00 0.71735167E+03</pdfrwt>
<pdfrwt beam="2">  1       -2 0.16152313E-01 0.71735167E+03</pdfrwt>
<totfact> 0.72091489E+02</totfact>
</mgrwt>
</event>
<event>
 4    1  0.2013882E-005  0.5035403E+03  0.7818608E-02  0.1012859E+00
         -2   -1    0    0    0  501 -0.00000000000E+00  0.00000000000E+00  0.27872081397E+02  0.27872081513E+02  0.25500000000E-02 0. -1.
          2   -1    0    0  501    0  0.00000000000E+00 -0.00000000000E+00 -0.22742548768E+04  0.22742548768E+04  0.25500000000E-02 0.  1.
    5000001    1    1    2    0    0  0.94508875220E+02  0.26933463595E+02 -0.52942945090E+03  0.57167900297E+03  0.19200000000E+03 0.  0.
   -5000001    1    1    2    0    0 -0.94508875220E+02 -0.26933463595E+02 -0.17169533445E+04  0.17304479553E+04  0.19200000000E+03 0.  0.
<mgrwt>
<rscale>  0 0.50354033E+03</rscale>
<asrwt>0</asrwt>
<pdfrwt beam="1">  1        2 0.32489344E+00 0.50354033E+03</pdfrwt>
<pdfrwt beam="2">  1       -2 0.39817274E-02 0.50354033E+03</pdfrwt>
<totfact> 0.17668433E+03</totfact>
</mgrwt>
</event>
<event>
 4    1  0.2013882E-005  0.6230450E+03  0.7818608E-02  0.9858716E-01
         -2   -1    0    0    0  501 -0.00000000000E+00  0.00000000000E+00  0.24095056947E+03  0.24095056949E+03  0.25500000000E-02 0. -1.
          2   -1    0    0  501    0  0.00000000000E+00 -0.00000000000E+00 -0.40276417285E+03  0.40276417286E+03  0.25500000000E-02 0.  1.
    5000001    1    1    2    0    0  0.36075099132E+02  0.21560056356E+03  0.34129944158E+02  0.29294004314E+03  0.19200000000E+03 0.  0.
   -5000001    1    1    2    0    0 -0.36075099132E+02 -0.21560056356E+03 -0.19594354753E+03  0.35077469921E+03  0.19200000000E+03 0.  0.
<mgrwt>
<rscale>  0 0.62304496E+03</rscale>
<asrwt>0</asrwt>
<pdfrwt beam="1">  1        2 0.57537739E-01 0.62304496E+03</pdfrwt>
<pdfrwt beam="2">  1       -2 0.34421510E-01 0.62304496E+03</pdfrwt>
<totfact> 0.68209640E+02</totfact>
</mgrwt>
</event>
<event>
 4    1  0.2013882E-005  0.5088368E+03  0.7818608E-02  0.1011498E+00
         -2   -1    0    0    0  501 -0.00000000000E+00  0.00000000000E+00  0.29108126900E+02  0.29108127012E+02  0.25500000000E-02 0. -1.
          2   -1    0    0  501    0  0.00000000000E+00 -0.00000000000E+00 -0.22237332772E+04  0.22237332772E+04  0.25500000000E-02 0.  1.
    5000001    1    1    2    0    0  0.14461225018E+03  0.81679089378E+02 -0.10231568129E+04  0.10541812180E+04  0.19200000000E+03 0.  0.
   -5000001    1    1    2    0    0 -0.14461225018E+03 -0.81679089378E+02 -0.11714683374E+04  0.11986601862E+04  0.19200000000E+03 0.  0.
<mgrwt>
<rscale>  0 0.50883675E+03</rscale>
<asrwt>0</asrwt>
<pdfrwt beam="1">  1        2 0.31767607E+00 0.50883675E+03</pdfrwt>
<pdfrwt beam="2">  1       -2 0.41583053E-02 0.50883675E+03</pdfrwt>
<totfact> 0.17521762E+03</totfact>
</mgrwt>
</event>
<event>
 4    1  0.2013882E-005  0.5084173E+03  0.7818608E-02  0.1011605E+00
          2   -1    0    0  501    0  0.00000000000E+00  0.00000000000E+00  0.31749034908E+04  0.31749034908E+04  0.25500000000E-02 0.  1.
         -2   -1    0    0    0  501 -0.00000000000E+00 -0.00000000000E+00 -0.20354019432E+02  0.20354019592E+02  0.25500000000E-02 0. -1.
    5000001    1    1    2    0    0 -0.15297354901E+03 -0.57808614090E+02  0.13770195445E+04  0.13999248439E+04  0.19200000000E+03 0.  0.
   -5000001    1    1    2    0    0  0.15297354901E+03  0.57808614090E+02  0.17775299268E+04  0.17953326665E+04  0.19200000000E+03 0.  0.
<mgrwt>
<rscale>  0 0.50841734E+03</rscale>
<asrwt>0</asrwt>
<pdfrwt beam="1">  1        2 0.45355737E+00 0.50841734E+03</pdfrwt>
<pdfrwt beam="2">  1       -2 0.29077188E-02 0.50841734E+03</pdfrwt>
<totfact> 0.96027899E+02</totfact>
</mgrwt>
</event>
<event>
 4    1  0.2013882E-005  0.5985579E+03  0.7818608E-02  0.9908402E-01
          2   -1    0    0  501    0  0.00000000000E+00  0.00000000000E+00  0.52941845252E+03  0.52941845252E+03  0.25500000000E-02 0.  1.
         -2   -1    0    0    0  501 -0.00000000000E+00 -0.00000000000E+00 -0.16918165712E+03  0.16918165714E+03  0.25500000000E-02 0. -1.
    5000001    1    1    2    0    0 -0.60616705393E+02  0.19562901020E+03  0.30117941696E+03  0.41172580173E+03  0.19200000000E+03 0.  0.
   -5000001    1    1    2    0    0  0.60616705393E+02 -0.19562901020E+03  0.59057378436E+02  0.28687430793E+03  0.19200000000E+03 0.  0.
<mgrwt>
<rscale>  0 0.59855790E+03</rscale>
<asrwt>0</asrwt>
<pdfrwt beam="1">  1        2 0.75631208E-01 0.59855790E+03</pdfrwt>
<pdfrwt beam="2">  1       -2 0.24168808E-01 0.59855790E+03</pdfrwt>
<totfact> 0.95981234E+02</totfact>
</mgrwt>
</event>
<event>
 4    1  0.2013882E-005  0.4189996E+03  0.7818608E-02  0.1037392E+00
         -2   -1    0    0    0  501 -0.00000000000E+00  0.00000000000E+00  0.15505525835E+04  0.15505525835E+04  0.25500000000E-02 0. -1.
          2   -1    0    0  501    0  0.00000000000E+00 -0.00000000000E+00 -0.28306144419E+02  0.28306144534E+02  0.25500000000E-02 0.  1.
    5000001    1    1    2    0    0  0.79103553078E+02  0.27177259205E+02  0.78182752532E+03  0.80939128663E+03  0.19200000000E+03 0.  0.
   -5000001    1    1    2    0    0 -0.79103553078E+02 -0.27177259205E+02  0.74041891380E+03  0.76946744144E+03  0.19200000000E+03 0.  0.
<mgrwt>
<rscale>  0 0.41899960E+03</rscale>
<asrwt>0</asrwt>
<pdfrwt beam="1">  1        2 0.40437346E-02 0.41899960E+03</pdfrwt>
<pdfrwt beam="2">  1       -2 0.22150753E+00 0.41899960E+03</pdfrwt>
<totfact> 0.22102294E+02</totfact>
</mgrwt>
</event>
<event>
 4    1  0.2013882E-005  0.4208862E+03  0.7818608E-02  0.1036778E+00
         -2   -1    0    0    0  501 -0.00000000000E+00  0.00000000000E+00  0.54342583176E+02  0.54342583235E+02  0.25500000000E-02 0. -1.
          2   -1    0    0  501    0  0.00000000000E+00 -0.00000000000E+00 -0.81494657748E+03  0.81494657748E+03  0.25500000000E-02 0.  1.
    5000001    1    1    2    0    0  0.29804448790E+02  0.80724030625E+02 -0.38897361182E+03  0.44223200357E+03  0.19200000000E+03 0.  0.
   -5000001    1    1    2    0    0 -0.29804448790E+02 -0.80724030625E+02 -0.37163038249E+03  0.42705715715E+03  0.19200000000E+03 0.  0.
<mgrwt>
<rscale>  0 0.42088622E+03</rscale>
<asrwt>0</asrwt>
<pdfrwt beam="1">  1        2 0.11642093E+00 0.42088622E+03</pdfrwt>
<pdfrwt beam="2">  1       -2 0.77632267E-02 0.42088622E+03</pdfrwt>
<totfact> 0.37991849E+03</totfact>
</mgrwt>
</event>
<event>
 4    1  0.2013882E-005  0.5363096E+03  0.7818608E-02  0.1004713E+00
         -2   -1    0    0    0  501 -0.00000000000E+00  0.00000000000E+00  0.79838072991E+02  0.79838073032E+02  0.25500000000E-02 0. -1.
          2   -1    0    0  501    0  0.00000000000E+00 -0.00000000000E+00 -0.90066038297E+03  0.90066038298E+03  0.25500000000E-02 0.  1.
    5000001    1    1    2    0    0 -0.79839024714E+02  0.15037105149E+03 -0.55269962299E+03  0.60936573275E+03  0.19200000000E+03 0.  0.
   -5000001    1    1    2    0    0  0.79839024714E+02 -0.15037105149E+03 -0.26812268699E+03  0.37113272326E+03  0.19200000000E+03 0.  0.
<mgrwt>
<rscale>  0 0.53630957E+03</rscale>
<asrwt>0</asrwt>
<pdfrwt beam="1">  1        2 0.12866576E+00 0.53630957E+03</pdfrwt>
<pdfrwt beam="2">  1       -2 0.11405440E-01 0.53630957E+03</pdfrwt>
<totfact> 0.18011186E+03</totfact>
</mgrwt>
</event>
<event>
 4    1  0.2013882E-005  0.5753164E+03  0.7818608E-02  0.9957983E-01
          2   -1    0    0  501    0  0.00000000000E+00  0.00000000000E+00  0.21135513918E+04  0.21135513918E+04  0.25500000000E-02 0.  1.
         -2   -1    0    0    0  501 -0.00000000000E+00 -0.00000000000E+00 -0.39150803946E+02  0.39150804029E+02  0.25500000000E-02 0. -1.
    5000001    1    1    2    0    0 -0.17656566953E+03 -0.98326925331E+02  0.13028295757E+04  0.13323184766E+04  0.19200000000E+03 0.  0.
   -5000001    1    1    2    0    0  0.17656566953E+03  0.98326925331E+02  0.77157101211E+03  0.82038371914E+03  0.19200000000E+03 0.  0.
<mgrwt>
<rscale>  0 0.57531639E+03</rscale>
<asrwt>0</asrwt>
<pdfrwt beam="1">  1        2 0.30193587E+00 0.57531639E+03</pdfrwt>
<pdfrwt beam="2">  1       -2 0.55929728E-02 0.57531639E+03</pdfrwt>
<totfact> 0.12540573E+03</totfact>
</mgrwt>
</event>
<event>
 4    1  0.2013882E-005  0.1735315E+04  0.7818608E-02  0.8741475E-01
          2   -1    0    0  501    0  0.00000000000E+00  0.00000000000E+00  0.11728465572E+04  0.11728465572E+04  0.25500000000E-02 0.  1.
         -2   -1    0    0    0  501 -0.00000000000E+00 -0.00000000000E+00 -0.64188255670E+03  0.64188255671E+03  0.25500000000E-02 0. -1.
    5000001    1    1    2    0    0  0.67818298697E+03  0.25460525224E+03 -0.19180456320E+03  0.77356899417E+03  0.19200000000E+03 0.  0.
   -5000001    1    1    2    0    0 -0.67818298697E+03 -0.25460525224E+03  0.72276856373E+03  0.10411601198E+04  0.19200000000E+03 0.  0.
<mgrwt>
<rscale>  0 0.17353152E+04</rscale>
<asrwt>0</asrwt>
<pdfrwt beam="1">  1        2 0.16754951E+00 0.17353152E+04</pdfrwt>
<pdfrwt beam="2">  1       -2 0.91697508E-01 0.17353152E+04</pdfrwt>
<totfact> 0.21338303E+01</totfact>
</mgrwt>
</event>
<event>
 4    1  0.2013882E-005  0.5233594E+03  0.7818608E-02  0.1007855E+00
          2   -1    0    0  501    0  0.00000000000E+00  0.00000000000E+00  0.18450768899E+04  0.18450768899E+04  0.25500000000E-02 0.  1.
         -2   -1    0    0    0  501 -0.00000000000E+00 -0.00000000000E+00 -0.37112966471E+02  0.37112966559E+02  0.25500000000E-02 0. -1.
    5000001    1    1    2    0    0  0.11002354244E+03  0.62627277808E+02  0.45501367400E+03  0.50983212859E+03  0.19200000000E+03 0.  0.
   -5000001    1    1    2    0    0 -0.11002354244E+03 -0.62627277808E+02  0.13529502494E+04  0.13723577279E+04  0.19200000000E+03 0.  0.
<mgrwt>
<rscale>  0 0.52335944E+03</rscale>
<asrwt>0</asrwt>
<pdfrwt beam="1">  1        2 0.26358247E+00 0.52335944E+03</pdfrwt>
<pdfrwt beam="2">  1       -2 0.53018512E-02 0.52335944E+03</pdfrwt>
<totfact> 0.18620757E+03</totfact>
</mgrwt>
</event>
<event>
 4    1  0.2013882E-005  0.5458771E+03  0.7818608E-02  0.1002453E+00
         -2   -1    0    0    0  501 -0.00000000000E+00  0.00000000000E+00  0.10410004624E+04  0.10410004624E+04  0.25500000000E-02 0. -1.
          2   -1    0    0  501    0  0.00000000000E+00 -0.00000000000E+00 -0.71561402020E+02  0.71561402065E+02  0.25500000000E-02 0.  1.
    5000001    1    1    2    0    0  0.40722276011E+02 -0.18556853874E+03  0.40480383298E+03  0.48664579473E+03  0.19200000000E+03 0.  0.
   -5000001    1    1    2    0    0 -0.40722276011E+02  0.18556853874E+03  0.56463522740E+03  0.62591606974E+03  0.19200000000E+03 0.  0.
<mgrwt>
<rscale>  0 0.54587710E+03</rscale>
<asrwt>0</asrwt>
<pdfrwt beam="1">  1        2 0.10223059E-01 0.54587710E+03</pdfrwt>
<pdfrwt beam="2">  1       -2 0.14871433E+00 0.54587710E+03</pdfrwt>
<totfact> 0.20142828E+02</totfact>
</mgrwt>
</event>
<event>
 4    1  0.2013882E-005  0.5295322E+03  0.7818608E-02  0.1006346E+00
         -2   -1    0    0    0  501 -0.00000000000E+00  0.00000000000E+00  0.93576301379E+02  0.93576301414E+02  0.25500000000E-02 0. -1.
          2   -1    0    0  501    0  0.00000000000E+00 -0.00000000000E+00 -0.74913295640E+03  0.74913295641E+03  0.25500000000E-02 0.  1.
    5000001    1    1    2    0    0 -0.13518205075E+03 -0.11773888415E+02 -0.13401473193E+03  0.27062291046E+03  0.19200000000E+03 0.  0.
   -5000001    1    1    2    0    0  0.13518205075E+03  0.11773888415E+02 -0.52154192309E+03  0.57208634736E+03  0.19200000000E+03 0.  0.
<mgrwt>
<rscale>  0 0.52953221E+03</rscale>
<asrwt>0</asrwt>
<pdfrwt beam="1">  1        2 0.10701899E+00 0.52953221E+03</pdfrwt>
<pdfrwt beam="2">  1       -2 0.13368044E-01 0.52953221E+03</pdfrwt>
<totfact> 0.17574744E+03</totfact>
</mgrwt>
</event>
<event>
 4    1  0.2013882E-005  0.7474298E+03  0.7818608E-02  0.9639391E-01
         -2   -1    0    0    0  501 -0.00000000000E+00  0.00000000000E+00  0.49828610249E+02  0.49828610314E+02  0.25500000000E-02 0. -1.
          2   -1    0    0  501    0  0.00000000000E+00 -0.00000000000E+00 -0.28028639299E+04  0.28028639299E+04  0.25500000000E-02 0.  1.
    5000001    1    1    2    0    0  0.25513418913E+03 -0.18465355916E+03 -0.11472497344E+04  0.12050876916E+04  0.19200000000E+03 0.  0.
   -5000001    1    1    2    0    0 -0.25513418913E+03  0.18465355916E+03 -0.16057855852E+04  0.16476048486E+04  0.19200000000E+03 0.  0.
<mgrwt>
<rscale>  0 0.74742977E+03</rscale>
<asrwt>0</asrwt>
<pdfrwt beam="1">  1        2 0.40040903E+00 0.74742977E+03</pdfrwt>
<pdfrwt beam="2">  1       -2 0.71183747E-02 0.74742977E+03</pdfrwt>
<totfact> 0.37436645E+02</totfact>
</mgrwt>
</event>
<event>
 4    1  0.2013882E-005  0.6939795E+03  0.7818608E-02  0.9727584E-01
          2   -1    0    0  501    0  0.00000000000E+00  0.00000000000E+00  0.14519266038E+04  0.14519266038E+04  0.25500000000E-02 0. -1.
         -2   -1    0    0    0  501 -0.00000000000E+00 -0.00000000000E+00 -0.82925595106E+02  0.82925595146E+02  0.25500000000E-02 0.  1.
    5000001    1    1    2    0    0  0.23777458897E+03 -0.85805052053E+02  0.99443889224E+03  0.10438735424E+04  0.19200000000E+03 0.  0.
   -5000001    1    1    2    0    0 -0.23777458897E+03  0.85805052053E+02  0.37456211649E+03  0.49097865659E+03  0.19200000000E+03 0.  0.
<mgrwt>
<rscale>  0 0.69397947E+03</rscale>
<asrwt>0</asrwt>
<pdfrwt beam="1">  1        2 0.20741806E+00 0.69397947E+03</pdfrwt>
<pdfrwt beam="2">  1       -2 0.11846515E-01 0.69397947E+03</pdfrwt>
<totfact> 0.81523690E+02</totfact>
</mgrwt>
</event>
<event>
 4    1  0.2013882E-005  0.6028190E+03  0.7818608E-02  0.9899575E-01
         -2   -1    0    0    0  501 -0.00000000000E+00  0.00000000000E+00  0.44433004563E+02  0.44433004636E+02  0.25500000000E-02 0. -1.
          2   -1    0    0  501    0  0.00000000000E+00 -0.00000000000E+00 -0.20445991376E+04  0.20445991376E+04  0.25500000000E-02 0.  1.
    5000001    1    1    2    0    0 -0.16787978914E+03 -0.70552478729E+02 -0.50002128366E+03  0.56572657704E+03  0.19200000000E+03 0.  0.
   -5000001    1    1    2    0    0  0.16787978914E+03  0.70552478729E+02 -0.15001448494E+04  0.15233055652E+04  0.19200000000E+03 0.  0.
<mgrwt>
<rscale>  0 0.60281899E+03</rscale>
<asrwt>0</asrwt>
<pdfrwt beam="1">  1        2 0.29208553E+00 0.60281899E+03</pdfrwt>
<pdfrwt beam="2">  1       -2 0.63475734E-02 0.60281899E+03</pdfrwt>
<totfact> 0.11123702E+03</totfact>
</mgrwt>
</event>
<event>
 4    1  0.2013882E-005  0.1126045E+04  0.7818608E-02  0.9180172E-01
         -2   -1    0    0    0  501 -0.00000000000E+00  0.00000000000E+00  0.22737923478E+03  0.22737923479E+03  0.25500000000E-02 0. -1.
          2   -1    0    0  501    0  0.00000000000E+00 -0.00000000000E+00 -0.13941218306E+04  0.13941218306E+04  0.25500000000E-02 0.  1.
    5000001    1    1    2    0    0 -0.94407173090E+02  0.25990297020E+03  0.66493436761E+02  0.34314376780E+03  0.19200000000E+03 0.  0.
   -5000001    1    1    2    0    0  0.94407173090E+02 -0.25990297020E+03 -0.12332360326E+04  0.12783572976E+04  0.19200000000E+03 0.  0.
<mgrwt>
<rscale>  0 0.11260450E+04</rscale>
<asrwt>0</asrwt>
<pdfrwt beam="1">  1        2 0.19916026E+00 0.11260450E+04</pdfrwt>
<pdfrwt beam="2">  1       -2 0.32482749E-01 0.11260450E+04</pdfrwt>
<totfact> 0.14567436E+02</totfact>
</mgrwt>
</event>
<event>
 4    1  0.2013882E-005  0.5164176E+03  0.7818608E-02  0.1009580E+00
         -2   -1    0    0    0  501 -0.00000000000E+00  0.00000000000E+00  0.32595509002E+02  0.32595509102E+02  0.25500000000E-02 0. -1.
          2   -1    0    0  501    0  0.00000000000E+00 -0.00000000000E+00 -0.20454287028E+04  0.20454287028E+04  0.25500000000E-02 0.  1.
    5000001    1    1    2    0    0  0.20854616201E+02  0.14760760995E+03 -0.65596860806E+03  0.69955824367E+03  0.19200000000E+03 0.  0.
   -5000001    1    1    2    0    0 -0.20854616201E+02 -0.14760760995E+03 -0.13568645857E+04  0.13784659682E+04  0.19200000000E+03 0.  0.
<mgrwt>
<rscale>  0 0.51641762E+03</rscale>
<asrwt>0</asrwt>
<pdfrwt beam="1">  1        2 0.29220402E+00 0.51641762E+03</pdfrwt>
<pdfrwt beam="2">  1       -2 0.46565026E-02 0.51641762E+03</pdfrwt>
<totfact> 0.18074809E+03</totfact>
</mgrwt>
</event>
<event>
 4    1  0.2013882E-005  0.9013961E+03  0.7818608E-02  0.9423838E-01
         -2   -1    0    0    0  501 -0.00000000000E+00  0.00000000000E+00  0.28569238881E+03  0.28569238882E+03  0.25500000000E-02 0. -1.
          2   -1    0    0  501    0  0.00000000000E+00 -0.00000000000E+00 -0.71100497752E+03  0.71100497752E+03  0.25500000000E-02 0.  1.
    5000001    1    1    2    0    0  0.44712878319E+02 -0.32895200720E+03 -0.47444981255E+03  0.61006170931E+03  0.19200000000E+03 0.  0.
   -5000001    1    1    2    0    0 -0.44712878319E+02  0.32895200720E+03  0.49137223843E+02  0.38663565704E+03  0.19200000000E+03 0.  0.
<mgrwt>
<rscale>  0 0.90139605E+03</rscale>
<asrwt>0</asrwt>
<pdfrwt beam="1">  1        2 0.10157214E+00 0.90139605E+03</pdfrwt>
<pdfrwt beam="2">  1       -2 0.40813199E-01 0.90139605E+03</pdfrwt>
<totfact> 0.25132730E+02</totfact>
</mgrwt>
</event>
<event>
 4    1  0.2013882E-005  0.5906476E+03  0.7818608E-02  0.9925002E-01
         -2   -1    0    0    0  501 -0.00000000000E+00  0.00000000000E+00  0.28481335772E+02  0.28481335886E+02  0.25500000000E-02 0. -1.
          2   -1    0    0  501    0  0.00000000000E+00 -0.00000000000E+00 -0.30622206583E+04  0.30622206583E+04  0.25500000000E-02 0.  1.
    5000001    1    1    2    0    0  0.89530061559E+02  0.17301950970E+03 -0.93415930776E+03  0.97338019034E+03  0.19200000000E+03 0.  0.
   -5000001    1    1    2    0    0 -0.89530061559E+02 -0.17301950970E+03 -0.20995800148E+04  0.21173218039E+04  0.19200000000E+03 0.  0.
<mgrwt>
<rscale>  0 0.59064756E+03</rscale>
<asrwt>0</asrwt>
<pdfrwt beam="1">  1        2 0.43745988E+00 0.59064756E+03</pdfrwt>
<pdfrwt beam="2">  1       -2 0.40687642E-02 0.59064756E+03</pdfrwt>
<totfact> 0.65864837E+02</totfact>
</mgrwt>
</event>
<event>
 4    1  0.2013882E-005  0.5123288E+03  0.7818608E-02  0.1010610E+00
          2   -1    0    0  501    0  0.00000000000E+00  0.00000000000E+00  0.14725900306E+04  0.14725900306E+04  0.25500000000E-02 0.  1.
         -2   -1    0    0    0  501 -0.00000000000E+00 -0.00000000000E+00 -0.44561086070E+02  0.44561086143E+02  0.25500000000E-02 0. -1.
    5000001    1    1    2    0    0 -0.53260629915E+02  0.16051931310E+03  0.75065149881E+03  0.79306041211E+03  0.19200000000E+03 0.  0.
   -5000001    1    1    2    0    0  0.53260629915E+02 -0.16051931310E+03  0.67737744568E+03  0.72409070461E+03  0.19200000000E+03 0.  0.
<mgrwt>
<rscale>  0 0.51232884E+03</rscale>
<asrwt>0</asrwt>
<pdfrwt beam="1">  1        2 0.21037001E+00 0.51232884E+03</pdfrwt>
<pdfrwt beam="2">  1       -2 0.63658692E-02 0.51232884E+03</pdfrwt>
<totfact> 0.21674347E+03</totfact>
</mgrwt>
</event>
<event>
 4    1  0.2013882E-005  0.7660758E+03  0.7818608E-02  0.9610462E-01
         -2   -1    0    0    0  501 -0.00000000000E+00  0.00000000000E+00  0.25143827925E+03  0.25143827926E+03  0.25500000000E-02 0. -1.
          2   -1    0    0  501    0  0.00000000000E+00 -0.00000000000E+00 -0.58351505192E+03  0.58351505192E+03  0.25500000000E-02 0.  1.
    5000001    1    1    2    0    0 -0.30127303866E+03  0.13801054462E+03 -0.15900307855E+03  0.41467859028E+03  0.19200000000E+03 0.  0.
   -5000001    1    1    2    0    0  0.30127303866E+03 -0.13801054462E+03 -0.17307369412E+03  0.42027474090E+03  0.19200000000E+03 0.  0.
<mgrwt>
<rscale>  0 0.76607577E+03</rscale>
<asrwt>0</asrwt>
<pdfrwt beam="1">  1        2 0.83359292E-01 0.76607577E+03</pdfrwt>
<pdfrwt beam="2">  1       -2 0.35919755E-01 0.76607577E+03</pdfrwt>
<totfact> 0.41071374E+02</totfact>
</mgrwt>
</event>
<event>
 4    1  0.2013882E-005  0.4828009E+03  0.7818608E-02  0.1018368E+00
         -2   -1    0    0    0  501 -0.00000000000E+00  0.00000000000E+00  0.42489514994E+02  0.42489515071E+02  0.25500000000E-02 0. -1.
          2   -1    0    0  501    0  0.00000000000E+00 -0.00000000000E+00 -0.13714952080E+04  0.13714952080E+04  0.25500000000E-02 0.  1.
    5000001    1    1    2    0    0 -0.90469640682E+02  0.71515950910E+02 -0.92826389006E+03  0.95490163719E+03  0.19200000000E+03 0.  0.
   -5000001    1    1    2    0    0  0.90469640682E+02 -0.71515950910E+02 -0.40074180298E+03  0.45908308592E+03  0.19200000000E+03 0.  0.
<mgrwt>
<rscale>  0 0.48280085E+03</rscale>
<asrwt>0</asrwt>
<pdfrwt beam="1">  1        2 0.19592786E+00 0.48280085E+03</pdfrwt>
<pdfrwt beam="2">  1       -2 0.60699316E-02 0.48280085E+03</pdfrwt>
<totfact> 0.26396176E+03</totfact>
</mgrwt>
</event>
<event>
 4    1  0.2013882E-005  0.1140721E+04  0.7818608E-02  0.9166387E-01
          2   -1    0    0  501    0  0.00000000000E+00  0.00000000000E+00  0.48196374818E+03  0.48196374819E+03  0.25500000000E-02 0.  1.
         -2   -1    0    0    0  501 -0.00000000000E+00 -0.00000000000E+00 -0.67497012629E+03  0.67497012630E+03  0.25500000000E-02 0. -1.
    5000001    1    1    2    0    0 -0.26717279650E+03  0.41132137452E+03 -0.31842943663E+03  0.61548995316E+03  0.19200000000E+03 0.  0.
   -5000001    1    1    2    0    0  0.26717279650E+03 -0.41132137452E+03  0.12542305852E+03  0.54144392132E+03  0.19200000000E+03 0.  0.
<mgrwt>
<rscale>  0 0.11407211E+04</rscale>
<asrwt>0</asrwt>
<pdfrwt beam="1">  1        2 0.68851964E-01 0.11407211E+04</pdfrwt>
<pdfrwt beam="2">  1       -2 0.96424303E-01 0.11407211E+04</pdfrwt>
<totfact> 0.62500401E+01</totfact>
</mgrwt>
</event>
<event>
 4    1  0.2013882E-005  0.6918325E+03  0.7818608E-02  0.9731303E-01
          2   -1    0    0  501    0  0.00000000000E+00  0.00000000000E+00  0.46288959594E+03  0.46288959595E+03  0.25500000000E-02 0.  1.
         -2   -1    0    0    0  501 -0.00000000000E+00 -0.00000000000E+00 -0.25850234712E+03  0.25850234713E+03  0.25500000000E-02 0. -1.
    5000001    1    1    2    0    0  0.12190969728E+03  0.25764436434E+03  0.61122194500E+02  0.34905947262E+03  0.19200000000E+03 0.  0.
   -5000001    1    1    2    0    0 -0.12190969728E+03 -0.25764436434E+03  0.14326505432E+03  0.37233247046E+03  0.19200000000E+03 0.  0.
<mgrwt>
<rscale>  0 0.69183249E+03</rscale>
<asrwt>0</asrwt>
<pdfrwt beam="1">  1        2 0.66127085E-01 0.69183249E+03</pdfrwt>
<pdfrwt beam="2">  1       -2 0.36928907E-01 0.69183249E+03</pdfrwt>
<totfact> 0.50971103E+02</totfact>
</mgrwt>
</event>
<event>
 4    1  0.2013882E-005  0.6906796E+03  0.7818608E-02  0.9733305E-01
         -2   -1    0    0    0  501 -0.00000000000E+00  0.00000000000E+00  0.36675927032E+02  0.36675927121E+02  0.25500000000E-02 0.  1.
          2   -1    0    0  501    0  0.00000000000E+00 -0.00000000000E+00 -0.32517124136E+04  0.32517124136E+04  0.25500000000E-02 0. -1.
    5000001    1    1    2    0    0  0.25003594018E+02 -0.28075774932E+03 -0.13491232619E+04  0.13915630310E+04  0.19200000000E+03 0.  0.
   -5000001    1    1    2    0    0 -0.25003594018E+02  0.28075774932E+03 -0.18659132247E+04  0.18968253097E+04  0.19200000000E+03 0.  0.
<mgrwt>
<rscale>  0 0.69067957E+03</rscale>
<asrwt>0</asrwt>
<pdfrwt beam="1">  1        2 0.46453016E+00 0.69067957E+03</pdfrwt>
<pdfrwt beam="2">  1       -2 0.52394202E-02 0.69067957E+03</pdfrwt>
<totfact> 0.34543280E+02</totfact>
</mgrwt>
</event>
<event>
 4    1  0.2013882E-005  0.9673672E+03  0.7818608E-02  0.9345078E-01
          2   -1    0    0  501    0  0.00000000000E+00  0.00000000000E+00  0.27872748964E+03  0.27872748965E+03  0.25500000000E-02 0.  1.
         -2   -1    0    0    0  501 -0.00000000000E+00 -0.00000000000E+00 -0.83934959765E+03  0.83934959765E+03  0.25500000000E-02 0. -1.
    5000001    1    1    2    0    0 -0.11649674437E+03 -0.40319968237E+03 -0.11304275016E+03  0.47516748487E+03  0.19200000000E+03 0.  0.
   -5000001    1    1    2    0    0  0.11649674437E+03  0.40319968237E+03 -0.44757935785E+03  0.64290960243E+03  0.19200000000E+03 0.  0.
<mgrwt>
<rscale>  0 0.96736716E+03</rscale>
<asrwt>0</asrwt>
<pdfrwt beam="1">  1        2 0.39818213E-01 0.96736716E+03</pdfrwt>
<pdfrwt beam="2">  1       -2 0.11990708E+00 0.96736716E+03</pdfrwt>
<totfact> 0.68881144E+01</totfact>
</mgrwt>
</event>
<event>
 4    1  0.2013882E-005  0.4344496E+03  0.7818608E-02  0.1032464E+00
         -2   -1    0    0    0  501 -0.00000000000E+00  0.00000000000E+00  0.13468299035E+03  0.13468299037E+03  0.25500000000E-02 0. -1.
          2   -1    0    0  501    0  0.00000000000E+00 -0.00000000000E+00 -0.35035310617E+03  0.35035310618E+03  0.25500000000E-02 0.  1.
    5000001    1    1    2    0    0 -0.98545464173E+02 -0.76915199284E+01 -0.13407102485E+03  0.25418380690E+03  0.19200000000E+03 0.  0.
   -5000001    1    1    2    0    0  0.98545464173E+02  0.76915199284E+01 -0.81599090974E+02  0.23085228965E+03  0.19200000000E+03 0.  0.
<mgrwt>
<rscale>  0 0.43444956E+03</rscale>
<asrwt>0</asrwt>
<pdfrwt beam="1">  1        2 0.50050443E-01 0.43444956E+03</pdfrwt>
<pdfrwt beam="2">  1       -2 0.19240427E-01 0.43444956E+03</pdfrwt>
<totfact> 0.22669156E+03</totfact>
</mgrwt>
</event>
<event>
 4    1  0.2013882E-005  0.9879592E+03  0.7818608E-02  0.9321850E-01
         -2   -1    0    0    0  501 -0.00000000000E+00  0.00000000000E+00  0.59590105929E+03  0.59590105929E+03  0.25500000000E-02 0. -1.
          2   -1    0    0  501    0  0.00000000000E+00 -0.00000000000E+00 -0.40949052799E+03  0.40949052800E+03  0.25500000000E-02 0.  1.
    5000001    1    1    2    0    0  0.16275611483E+03  0.40280343009E+03  0.23128914798E+03  0.52829804673E+03  0.19200000000E+03 0.  0.
   -5000001    1    1    2    0    0 -0.16275611483E+03 -0.40280343009E+03 -0.44878616686E+02  0.47709354056E+03  0.19200000000E+03 0.  0.
<mgrwt>
<rscale>  0 0.98795919E+03</rscale>
<asrwt>0</asrwt>
<pdfrwt beam="1">  1        2 0.58498648E-01 0.98795919E+03</pdfrwt>
<pdfrwt beam="2">  1       -2 0.85128722E-01 0.98795919E+03</pdfrwt>
<totfact> 0.10113333E+02</totfact>
</mgrwt>
</event>
<event>
 4    1  0.2013882E-005  0.8174921E+03  0.7818608E-02  0.9535037E-01
          2   -1    0    0  501    0  0.00000000000E+00  0.00000000000E+00  0.11494569287E+04  0.11494569287E+04  0.25500000000E-02 0.  1.
         -2   -1    0    0    0  501 -0.00000000000E+00 -0.00000000000E+00 -0.14534981599E+03  0.14534981601E+03  0.25500000000E-02 0. -1.
    5000001    1    1    2    0    0 -0.72821250734E+02 -0.30645779274E+03  0.22322809468E+03  0.43117756846E+03  0.19200000000E+03 0.  0.
   -5000001    1    1    2    0    0  0.72821250734E+02  0.30645779274E+03  0.78087901807E+03  0.86362917630E+03  0.19200000000E+03 0.  0.
<mgrwt>
<rscale>  0 0.81749215E+03</rscale>
<asrwt>0</asrwt>
<pdfrwt beam="1">  1        2 0.16420813E+00 0.81749215E+03</pdfrwt>
<pdfrwt beam="2">  1       -2 0.20764259E-01 0.81749215E+03</pdfrwt>
<totfact> 0.45776728E+02</totfact>
</mgrwt>
</event>
<event>
 4    1  0.2013882E-005  0.4071833E+03  0.7818608E-02  0.1041320E+00
          2   -1    0    0  501    0  0.00000000000E+00  0.00000000000E+00  0.86275337756E+03  0.86275337756E+03  0.25500000000E-02 0. -1.
         -2   -1    0    0    0  501 -0.00000000000E+00 -0.00000000000E+00 -0.48043349808E+02  0.48043349876E+02  0.25500000000E-02 0.  1.
    5000001    1    1    2    0    0  0.47556010084E+02  0.19873529136E+02  0.30911212941E+03  0.36751984954E+03  0.19200000000E+03 0.  0.
   -5000001    1    1    2    0    0 -0.47556010084E+02 -0.19873529136E+02  0.50559789834E+03  0.54327687790E+03  0.19200000000E+03 0.  0.
<mgrwt>
<rscale>  0 0.40718331E+03</rscale>
<asrwt>0</asrwt>
<pdfrwt beam="1">  1        2 0.12325048E+00 0.40718331E+03</pdfrwt>
<pdfrwt beam="2">  1       -2 0.68633361E-02 0.40718331E+03</pdfrwt>
<totfact> 0.42833631E+03</totfact>
</mgrwt>
</event>
<event>
 4    1  0.2013882E-005  0.5224064E+03  0.7818608E-02  0.1008091E+00
          2   -1    0    0  501    0  0.00000000000E+00  0.00000000000E+00  0.54367875383E+03  0.54367875383E+03  0.25500000000E-02 0.  1.
         -2   -1    0    0    0  501 -0.00000000000E+00 -0.00000000000E+00 -0.12549158573E+03  0.12549158575E+03  0.25500000000E-02 0. -1.
    5000001    1    1    2    0    0 -0.15112231919E+03  0.90758296356E+02  0.23083504416E+03  0.34817214324E+03  0.19200000000E+03 0.  0.
   -5000001    1    1    2    0    0  0.15112231919E+03 -0.90758296356E+02  0.18735212394E+03  0.32099819635E+03  0.19200000000E+03 0.  0.
<mgrwt>
<rscale>  0 0.52240639E+03</rscale>
<asrwt>0</asrwt>
<pdfrwt beam="1">  1        2 0.77668391E-01 0.52240639E+03</pdfrwt>
<pdfrwt beam="2">  1       -2 0.17927370E-01 0.52240639E+03</pdfrwt>
<totfact> 0.15702422E+03</totfact>
</mgrwt>
</event>
<event>
 4    1  0.2013882E-005  0.5788848E+03  0.7818608E-02  0.9950208E-01
         -2   -1    0    0    0  501 -0.00000000000E+00  0.00000000000E+00  0.30364203317E+03  0.30364203318E+03  0.25500000000E-02 0. -1.
          2   -1    0    0  501    0  0.00000000000E+00 -0.00000000000E+00 -0.27590681710E+03  0.27590681712E+03  0.25500000000E-02 0.  1.
    5000001    1    1    2    0    0 -0.15605791947E+03  0.99549396749E+02  0.12646328114E+03  0.29516286707E+03  0.19200000000E+03 0.  0.
   -5000001    1    1    2    0    0  0.15605791947E+03 -0.99549396749E+02 -0.98728065068E+02  0.28438598323E+03  0.19200000000E+03 0.  0.
<mgrwt>
<rscale>  0 0.57888481E+03</rscale>
<asrwt>0</asrwt>
<pdfrwt beam="1">  1        2 0.39415259E-01 0.57888481E+03</pdfrwt>
<pdfrwt beam="2">  1       -2 0.43377434E-01 0.57888481E+03</pdfrwt>
<totfact> 0.66379063E+02</totfact>
</mgrwt>
</event>
<event>
 4    1  0.2013882E-005  0.7741346E+03  0.7818608E-02  0.9598230E-01
         -2   -1    0    0    0  501 -0.00000000000E+00  0.00000000000E+00  0.35112307567E+03  0.35112307568E+03  0.25500000000E-02 0.  1.
          2   -1    0    0  501    0  0.00000000000E+00 -0.00000000000E+00 -0.42669113802E+03  0.42669113802E+03  0.25500000000E-02 0. -1.
    5000001    1    1    2    0    0  0.12864708172E+03  0.30899882594E+03 -0.71966205661E+01  0.38593540576E+03  0.19200000000E+03 0.  0.
   -5000001    1    1    2    0    0 -0.12864708172E+03 -0.30899882594E+03 -0.68371441778E+02  0.39187880795E+03  0.19200000000E+03 0.  0.
<mgrwt>
<rscale>  0 0.77413463E+03</rscale>
<asrwt>0</asrwt>
<pdfrwt beam="1">  1        2 0.60955877E-01 0.77413463E+03</pdfrwt>
<pdfrwt beam="2">  1       -2 0.50160440E-01 0.77413463E+03</pdfrwt>
<totfact> 0.30443532E+02</totfact>
</mgrwt>
</event>
<event>
 4    1  0.2013882E-005  0.5391760E+03  0.7818608E-02  0.1004031E+00
         -2   -1    0    0    0  501 -0.00000000000E+00  0.00000000000E+00  0.66525938513E+02  0.66525938561E+02  0.25500000000E-02 0. -1.
          2   -1    0    0  501    0  0.00000000000E+00 -0.00000000000E+00 -0.10924714320E+04  0.10924714320E+04  0.25500000000E-02 0.  1.
    5000001    1    1    2    0    0  0.24480825270E+02 -0.16973829310E+03 -0.34096284952E+03  0.42723537272E+03  0.19200000000E+03 0.  0.
   -5000001    1    1    2    0    0 -0.24480825270E+02  0.16973829310E+03 -0.68498264394E+03  0.73176199781E+03  0.19200000000E+03 0.  0.
<mgrwt>
<rscale>  0 0.53917599E+03</rscale>
<asrwt>0</asrwt>
<pdfrwt beam="1">  1        2 0.15606734E+00 0.53917599E+03</pdfrwt>
<pdfrwt beam="2">  1       -2 0.95037062E-02 0.53917599E+03</pdfrwt>
<totfact> 0.18500094E+03</totfact>
</mgrwt>
</event>
<event>
 4    1  0.2013882E-005  0.5966977E+03  0.7818608E-02  0.9912281E-01
          2   -1    0    0  501    0  0.00000000000E+00  0.00000000000E+00  0.49914963221E+03  0.49914963222E+03  0.25500000000E-02 0.  1.
         -2   -1    0    0    0  501 -0.00000000000E+00 -0.00000000000E+00 -0.17832735479E+03  0.17832735481E+03  0.25500000000E-02 0. -1.
    5000001    1    1    2    0    0  0.22450290439E+03 -0.13286924076E+02  0.11542473033E+03  0.31743497728E+03  0.19200000000E+03 0.  0.
   -5000001    1    1    2    0    0 -0.22450290439E+03  0.13286924076E+02  0.20539754709E+03  0.36004200974E+03  0.19200000000E+03 0.  0.
<mgrwt>
<rscale>  0 0.59669769E+03</rscale>
<asrwt>0</asrwt>
<pdfrwt beam="1">  1        2 0.71307091E-01 0.59669769E+03</pdfrwt>
<pdfrwt beam="2">  1       -2 0.25475336E-01 0.59669769E+03</pdfrwt>
<totfact> 0.93414365E+02</totfact>
</mgrwt>
</event>
<event>
 4    1  0.2013882E-005  0.6342319E+03  0.7818608E-02  0.9836825E-01
         -2   -1    0    0    0  501 -0.00000000000E+00  0.00000000000E+00  0.20132380329E+03  0.20132380330E+03  0.25500000000E-02 0. -1.
          2   -1    0    0  501    0  0.00000000000E+00 -0.00000000000E+00 -0.49950644002E+03  0.49950644002E+03  0.25500000000E-02 0.  1.
    5000001    1    1    2    0    0  0.17412025369E+03  0.17115918530E+03 -0.78464156537E+02  0.32036534351E+03  0.19200000000E+03 0.  0.
   -5000001    1    1    2    0    0 -0.17412025369E+03 -0.17115918530E+03 -0.21971848019E+03  0.38046489982E+03  0.19200000000E+03 0.  0.
<mgrwt>
<rscale>  0 0.63423193E+03</rscale>
<asrwt>0</asrwt>
<pdfrwt beam="1">  1        2 0.71358062E-01 0.63423193E+03</pdfrwt>
<pdfrwt beam="2">  1       -2 0.28760544E-01 0.63423193E+03</pdfrwt>
<totfact> 0.74821678E+02</totfact>
</mgrwt>
</event>
<event>
 4    1  0.2013882E-005  0.8290191E+03  0.7818608E-02  0.9518938E-01
         -2   -1    0    0    0  501 -0.00000000000E+00  0.00000000000E+00  0.73725928141E+02  0.73725928185E+02  0.25500000000E-02 0. -1.
          2   -1    0    0  501    0  0.00000000000E+00 -0.00000000000E+00 -0.23304987434E+04  0.23304987435E+04  0.25500000000E-02 0.  1.
    5000001    1    1    2    0    0  0.12770190231E+03 -0.79109409124E+01 -0.21270592009E+04  0.21395362121E+04  0.19200000000E+03 0.  0.
   -5000001    1    1    2    0    0 -0.12770190231E+03  0.79109409124E+01 -0.12971361441E+03  0.26468845952E+03  0.19200000000E+03 0.  0.
<mgrwt>
<rscale>  0 0.82901914E+03</rscale>
<asrwt>0</asrwt>
<pdfrwt beam="1">  1        2 0.33292834E+00 0.82901914E+03</pdfrwt>
<pdfrwt beam="2">  1       -2 0.10532277E-01 0.82901914E+03</pdfrwt>
<totfact> 0.34863388E+02</totfact>
</mgrwt>
</event>
<event>
 4    1  0.2013882E-005  0.5308533E+03  0.7818608E-02  0.1006025E+00
         -2   -1    0    0    0  501 -0.00000000000E+00  0.00000000000E+00  0.49940844128E+02  0.49940844193E+02  0.25500000000E-02 0. -1.
          2   -1    0    0  501    0  0.00000000000E+00 -0.00000000000E+00 -0.14106949524E+04  0.14106949524E+04  0.25500000000E-02 0.  1.
    5000001    1    1    2    0    0 -0.17626681623E+03  0.45499106542E+02 -0.73855897228E+03  0.78452120094E+03  0.19200000000E+03 0.  0.
   -5000001    1    1    2    0    0  0.17626681623E+03 -0.45499106542E+02 -0.62219513601E+03  0.67611459567E+03  0.19200000000E+03 0.  0.
<mgrwt>
<rscale>  0 0.53085326E+03</rscale>
<asrwt>0</asrwt>
<pdfrwt beam="1">  1        2 0.20152783E+00 0.53085326E+03</pdfrwt>
<pdfrwt beam="2">  1       -2 0.71344072E-02 0.53085326E+03</pdfrwt>
<totfact> 0.19516350E+03</totfact>
</mgrwt>
</event>
<event>
 4    1  0.2013882E-005  0.7901080E+03  0.7818608E-02  0.9574447E-01
         -2   -1    0    0    0  501 -0.00000000000E+00  0.00000000000E+00  0.65004854117E+02  0.65004854167E+02  0.25500000000E-02 0. -1.
          2   -1    0    0  501    0  0.00000000000E+00 -0.00000000000E+00 -0.24008616060E+04  0.24008616060E+04  0.25500000000E-02 0.  1.
    5000001    1    1    2    0    0  0.16662280828E+03 -0.25396116935E+03 -0.16802184374E+04  0.17182134423E+04  0.19200000000E+03 0.  0.
   -5000001    1    1    2    0    0 -0.16662280828E+03  0.25396116935E+03 -0.65563831451E+03  0.74765301794E+03  0.19200000000E+03 0.  0.
<mgrwt>
<rscale>  0 0.79010799E+03</rscale>
<asrwt>0</asrwt>
<pdfrwt beam="1">  1        2 0.34298017E+00 0.79010799E+03</pdfrwt>
<pdfrwt beam="2">  1       -2 0.92864092E-02 0.79010799E+03</pdfrwt>
<totfact> 0.39501397E+02</totfact>
</mgrwt>
</event>
<event>
 4    1  0.2013882E-005  0.4848770E+03  0.7818608E-02  0.1017803E+00
         -2   -1    0    0    0  501 -0.00000000000E+00  0.00000000000E+00  0.10736229777E+03  0.10736229780E+03  0.25500000000E-02 0. -1.
          2   -1    0    0  501    0  0.00000000000E+00 -0.00000000000E+00 -0.54745866284E+03  0.54745866284E+03  0.25500000000E-02 0.  1.
    5000001    1    1    2    0    0 -0.92232939236E+02 -0.51165717964E+02 -0.79782021740E+02  0.23313947921E+03  0.19200000000E+03 0.  0.
   -5000001    1    1    2    0    0  0.92232939236E+02  0.51165717964E+02 -0.36031434333E+03  0.42168148143E+03  0.19200000000E+03 0.  0.
<mgrwt>
<rscale>  0 0.48487697E+03</rscale>
<asrwt>0</asrwt>
<pdfrwt beam="1">  1        2 0.78208378E-01 0.48487697E+03</pdfrwt>
<pdfrwt beam="2">  1       -2 0.15337472E-01 0.48487697E+03</pdfrwt>
<totfact> 0.20291131E+03</totfact>
</mgrwt>
</event>
<event>
 4    1  0.2013882E-005  0.8213946E+03  0.7818608E-02  0.9529555E-01
          2   -1    0    0  501    0  0.00000000000E+00  0.00000000000E+00  0.29490468622E+04  0.29490468622E+04  0.25500000000E-02 0. -1.
         -2   -1    0    0    0  501 -0.00000000000E+00 -0.00000000000E+00 -0.57195527647E+02  0.57195527704E+02  0.25500000000E-02 0.  1.
    5000001    1    1    2    0    0 -0.23564567821E+03  0.21430761980E+03  0.80830368961E+03  0.88976148276E+03  0.19200000000E+03 0.  0.
   -5000001    1    1    2    0    0  0.23564567821E+03 -0.21430761980E+03  0.20835476450E+04  0.21164809072E+04  0.19200000000E+03 0.  0.
<mgrwt>
<rscale>  0 0.82139465E+03</rscale>
<asrwt>0</asrwt>
<pdfrwt beam="1">  1        2 0.42129250E+00 0.82139465E+03</pdfrwt>
<pdfrwt beam="2">  1       -2 0.81707879E-02 0.82139465E+03</pdfrwt>
<totfact> 0.24885013E+02</totfact>
</mgrwt>
</event>
<event>
 4    1  0.2013882E-005  0.5306014E+03  0.7818608E-02  0.1006086E+00
         -2   -1    0    0    0  501 -0.00000000000E+00  0.00000000000E+00  0.75875047685E+02  0.75875047727E+02  0.25500000000E-02 0. -1.
          2   -1    0    0  501    0  0.00000000000E+00 -0.00000000000E+00 -0.92763643610E+03  0.92763643610E+03  0.25500000000E-02 0.  1.
    5000001    1    1    2    0    0 -0.16936445959E+03 -0.63029017085E+01 -0.55686287238E+03  0.61293091403E+03  0.19200000000E+03 0.  0.
   -5000001    1    1    2    0    0  0.16936445959E+03  0.63029017085E+01 -0.29489851603E+03  0.39058056979E+03  0.19200000000E+03 0.  0.
<mgrwt>
<rscale>  0 0.53060139E+03</rscale>
<asrwt>0</asrwt>
<pdfrwt beam="1">  1        2 0.13251948E+00 0.53060139E+03</pdfrwt>
<pdfrwt beam="2">  1       -2 0.10839293E-01 0.53060139E+03</pdfrwt>
<totfact> 0.18811992E+03</totfact>
</mgrwt>
</event>
<event>
 4    1  0.2013882E-005  0.5934945E+03  0.7818608E-02  0.9918995E-01
          2   -1    0    0  501    0  0.00000000000E+00  0.00000000000E+00  0.73887416140E+03  0.73887416141E+03  0.25500000000E-02 0.  1.
         -2   -1    0    0    0  501 -0.00000000000E+00 -0.00000000000E+00 -0.11917989263E+03  0.11917989266E+03  0.25500000000E-02 0. -1.
    5000001    1    1    2    0    0 -0.16982868504E+03  0.13742960446E+03  0.22472768900E+03  0.36755300658E+03  0.19200000000E+03 0.  0.
   -5000001    1    1    2    0    0  0.16982868504E+03 -0.13742960446E+03  0.39496657977E+03  0.49050104748E+03  0.19200000000E+03 0.  0.
<mgrwt>
<rscale>  0 0.59349454E+03</rscale>
<asrwt>0</asrwt>
<pdfrwt beam="1">  1        2 0.10555345E+00 0.59349454E+03</pdfrwt>
<pdfrwt beam="2">  1       -2 0.17025699E-01 0.59349454E+03</pdfrwt>
<totfact> 0.11896144E+03</totfact>
</mgrwt>
</event>
<event>
 4    1  0.2013882E-005  0.3973596E+03  0.7818608E-02  0.1044698E+00
          2   -1    0    0  501    0  0.00000000000E+00  0.00000000000E+00  0.10958685450E+04  0.10958685450E+04  0.25500000000E-02 0.  1.
         -2   -1    0    0    0  501 -0.00000000000E+00 -0.00000000000E+00 -0.36020429500E+02  0.36020429591E+02  0.25500000000E-02 0. -1.
    5000001    1    1    2    0    0  0.33560319883E+02 -0.37841961315E+02  0.50951250449E+03  0.54683205954E+03  0.19200000000E+03 0.  0.
   -5000001    1    1    2    0    0 -0.33560319883E+02  0.37841961315E+02  0.55033561098E+03  0.58505691502E+03  0.19200000000E+03 0.  0.
<mgrwt>
<rscale>  0 0.39735956E+03</rscale>
<asrwt>0</asrwt>
<pdfrwt beam="1">  1        2 0.15655261E+00 0.39735956E+03</pdfrwt>
<pdfrwt beam="2">  1       -2 0.51457769E-02 0.39735956E+03</pdfrwt>
<totfact> 0.48266578E+03</totfact>
</mgrwt>
</event>
<event>
 4    1  0.2013882E-005  0.5479137E+03  0.7818608E-02  0.1001978E+00
         -2   -1    0    0    0  501 -0.00000000000E+00  0.00000000000E+00  0.36702968523E+02  0.36702968612E+02  0.25500000000E-02 0. -1.
          2   -1    0    0  501    0  0.00000000000E+00 -0.00000000000E+00 -0.20448582533E+04  0.20448582533E+04  0.25500000000E-02 0.  1.
    5000001    1    1    2    0    0 -0.71121742743E+02 -0.17491529824E+03 -0.81281037732E+03  0.85625835665E+03  0.19200000000E+03 0.  0.
   -5000001    1    1    2    0    0  0.71121742743E+02  0.17491529824E+03 -0.11953449075E+04  0.12253028653E+04  0.19200000000E+03 0.  0.
<mgrwt>
<rscale>  0 0.54791375E+03</rscale>
<asrwt>0</asrwt>
<pdfrwt beam="1">  1        2 0.29212254E+00 0.54791375E+03</pdfrwt>
<pdfrwt beam="2">  1       -2 0.52432825E-02 0.54791375E+03</pdfrwt>
<totfact> 0.15031148E+03</totfact>
</mgrwt>
</event>
<event>
 4    1  0.2013882E-005  0.6521848E+03  0.7818608E-02  0.9802688E-01
         -2   -1    0    0    0  501 -0.00000000000E+00  0.00000000000E+00  0.16451031631E+03  0.16451031633E+03  0.25500000000E-02 0. -1.
          2   -1    0    0  501    0  0.00000000000E+00 -0.00000000000E+00 -0.64638051286E+03  0.64638051286E+03  0.25500000000E-02 0.  1.
    5000001    1    1    2    0    0  0.14813825935E+03  0.14711440211E+03 -0.40896858028E+02  0.28657310444E+03  0.19200000000E+03 0.  0.
   -5000001    1    1    2    0    0 -0.14813825935E+03 -0.14711440211E+03 -0.44097333853E+03  0.52431772475E+03  0.19200000000E+03 0.  0.
<mgrwt>
<rscale>  0 0.65218483E+03</rscale>
<asrwt>0</asrwt>
<pdfrwt beam="1">  1        2 0.92340072E-01 0.65218483E+03</pdfrwt>
<pdfrwt beam="2">  1       -2 0.23501474E-01 0.65218483E+03</pdfrwt>
<totfact> 0.79766797E+02</totfact>
</mgrwt>
</event>
<event>
 4    1  0.2013882E-005  0.5170227E+03  0.7818608E-02  0.1009429E+00
          2   -1    0    0  501    0  0.00000000000E+00  0.00000000000E+00  0.11048912599E+04  0.11048912599E+04  0.25500000000E-02 0.  1.
         -2   -1    0    0    0  501 -0.00000000000E+00 -0.00000000000E+00 -0.60483884829E+02  0.60483884882E+02  0.25500000000E-02 0. -1.
    5000001    1    1    2    0    0  0.81836098184E+02  0.53890737790E+02  0.20056043996E+03  0.29443139891E+03  0.19200000000E+03 0.  0.
   -5000001    1    1    2    0    0 -0.81836098184E+02 -0.53890737790E+02  0.84384693511E+03  0.87094374588E+03  0.19200000000E+03 0.  0.
<mgrwt>
<rscale>  0 0.51702269E+03</rscale>
<asrwt>0</asrwt>
<pdfrwt beam="1">  1        2 0.15784160E+00 0.51702269E+03</pdfrwt>
<pdfrwt beam="2">  1       -2 0.86405554E-02 0.51702269E+03</pdfrwt>
<totfact> 0.21203675E+03</totfact>
</mgrwt>
</event>
<event>
 4    1  0.2013882E-005  0.7535082E+03  0.7818608E-02  0.9629863E-01
         -2   -1    0    0    0  501 -0.00000000000E+00  0.00000000000E+00  0.90727119175E+02  0.90727119211E+02  0.25500000000E-02 0. -1.
          2   -1    0    0  501    0  0.00000000000E+00 -0.00000000000E+00 -0.15645117229E+04  0.15645117229E+04  0.25500000000E-02 0.  1.
    5000001    1    1    2    0    0  0.16965070833E+03 -0.26168385090E+03 -0.54263754586E+03  0.65465968780E+03  0.19200000000E+03 0.  0.
   -5000001    1    1    2    0    0 -0.16965070833E+03  0.26168385090E+03 -0.93114705783E+03  0.10005791543E+04  0.19200000000E+03 0.  0.
<mgrwt>
<rscale>  0 0.75350817E+03</rscale>
<asrwt>0</asrwt>
<pdfrwt beam="1">  1        2 0.22350166E+00 0.75350817E+03</pdfrwt>
<pdfrwt beam="2">  1       -2 0.12961018E-01 0.75350817E+03</pdfrwt>
<totfact> 0.61143530E+02</totfact>
</mgrwt>
</event>
<event>
 4    1  0.2013882E-005  0.4511203E+03  0.7818608E-02  0.1027388E+00
          2   -1    0    0  501    0  0.00000000000E+00  0.00000000000E+00  0.39312060173E+03  0.39312060174E+03  0.25500000000E-02 0.  1.
         -2   -1    0    0    0  501 -0.00000000000E+00 -0.00000000000E+00 -0.12941926837E+03  0.12941926839E+03  0.25500000000E-02 0. -1.
    5000001    1    1    2    0    0 -0.85527325563E+02  0.78785422992E+02  0.10617588268E+03  0.24831307730E+03  0.19200000000E+03 0.  0.
   -5000001    1    1    2    0    0  0.85527325563E+02 -0.78785422992E+02  0.15752545068E+03  0.27422679283E+03  0.19200000000E+03 0.  0.
<mgrwt>
<rscale>  0 0.45112030E+03</rscale>
<asrwt>0</asrwt>
<pdfrwt beam="1">  1        2 0.56160086E-01 0.45112030E+03</pdfrwt>
<pdfrwt beam="2">  1       -2 0.18488467E-01 0.45112030E+03</pdfrwt>
<totfact> 0.21401592E+03</totfact>
</mgrwt>
</event>
<event>
 4    1  0.2013882E-005  0.9294244E+03  0.7818608E-02  0.9389529E-01
          2   -1    0    0  501    0  0.00000000000E+00  0.00000000000E+00  0.19069149697E+04  0.19069149697E+04  0.25500000000E-02 0.  1.
         -2   -1    0    0    0  501 -0.00000000000E+00 -0.00000000000E+00 -0.11324964950E+03  0.11324964953E+03  0.25500000000E-02 0. -1.
    5000001    1    1    2    0    0 -0.34592285404E+03 -0.21683838511E+03  0.11389871926E+04  0.12250866627E+04  0.19200000000E+03 0.  0.
   -5000001    1    1    2    0    0  0.34592285404E+03  0.21683838511E+03  0.65467812758E+03  0.79507795652E+03  0.19200000000E+03 0.  0.
<mgrwt>
<rscale>  0 0.92942445E+03</rscale>
<asrwt>0</asrwt>
<pdfrwt beam="1">  1        2 0.27241639E+00 0.92942445E+03</pdfrwt>
<pdfrwt beam="2">  1       -2 0.16178524E-01 0.92942445E+03</pdfrwt>
<totfact> 0.27764419E+02</totfact>
</mgrwt>
</event>
<event>
 4    1  0.2013882E-005  0.4435254E+03  0.7818608E-02  0.1029671E+00
         -2   -1    0    0    0  501 -0.00000000000E+00  0.00000000000E+00  0.18626089321E+03  0.18626089323E+03  0.25500000000E-02 0. -1.
          2   -1    0    0  501    0  0.00000000000E+00 -0.00000000000E+00 -0.26403124368E+03  0.26403124370E+03  0.25500000000E-02 0.  1.
    5000001    1    1    2    0    0  0.35688719755E+02  0.10270387670E+03 -0.16344549190E+02  0.22125305714E+03  0.19200000000E+03 0.  0.
   -5000001    1    1    2    0    0 -0.35688719755E+02 -0.10270387670E+03 -0.61425801280E+02  0.22903907979E+03  0.19200000000E+03 0.  0.
<mgrwt>
<rscale>  0 0.44352540E+03</rscale>
<asrwt>0</asrwt>
<pdfrwt beam="1">  1        2 0.37718749E-01 0.44352540E+03</pdfrwt>
<pdfrwt beam="2">  1       -2 0.26608699E-01 0.44352540E+03</pdfrwt>
<totfact> 0.17468408E+03</totfact>
</mgrwt>
</event>
<event>
 4    1  0.2013882E-005  0.8261416E+03  0.7818608E-02  0.9522930E-01
          2   -1    0    0  501    0  0.00000000000E+00  0.00000000000E+00  0.29703689583E+04  0.29703689583E+04  0.25500000000E-02 0.  1.
         -2   -1    0    0    0  501 -0.00000000000E+00 -0.00000000000E+00 -0.57443199256E+02  0.57443199313E+02  0.25500000000E-02 0. -1.
    5000001    1    1    2    0    0 -0.36250611577E+03  0.43664527219E+02  0.15338822224E+04  0.15883878453E+04  0.19200000000E+03 0.  0.
   -5000001    1    1    2    0    0  0.36250611577E+03 -0.43664527219E+02  0.13790435366E+04  0.14394243123E+04  0.19200000000E+03 0.  0.
<mgrwt>
<rscale>  0 0.82614162E+03</rscale>
<asrwt>0</asrwt>
<pdfrwt beam="1">  1        2 0.42433839E+00 0.82614162E+03</pdfrwt>
<pdfrwt beam="2">  1       -2 0.82061719E-02 0.82614162E+03</pdfrwt>
<totfact> 0.24048626E+02</totfact>
</mgrwt>
</event>
<event>
 4    1  0.2013882E-005  0.4595618E+03  0.7818608E-02  0.1024908E+00
          2   -1    0    0  501    0  0.00000000000E+00  0.00000000000E+00  0.73566112608E+03  0.73566112608E+03  0.25500000000E-02 0.  1.
         -2   -1    0    0    0  501 -0.00000000000E+00 -0.00000000000E+00 -0.71771173049E+02  0.71771173094E+02  0.25500000000E-02 0. -1.
    5000001    1    1    2    0    0 -0.10999741430E+03  0.61162979894E+02  0.34906257204E+03  0.41779064190E+03  0.19200000000E+03 0.  0.
   -5000001    1    1    2    0    0  0.10999741430E+03 -0.61162979894E+02  0.31482738099E+03  0.38964165728E+03  0.19200000000E+03 0.  0.
<mgrwt>
<rscale>  0 0.45956180E+03</rscale>
<asrwt>0</asrwt>
<pdfrwt beam="1">  1        2 0.10509446E+00 0.45956180E+03</pdfrwt>
<pdfrwt beam="2">  1       -2 0.10253024E-01 0.45956180E+03</pdfrwt>
<totfact> 0.27726414E+03</totfact>
</mgrwt>
</event>
<event>
 4    1  0.2013882E-005  0.6387021E+03  0.7818608E-02  0.9828213E-01
         -2   -1    0    0    0  501 -0.00000000000E+00  0.00000000000E+00  0.10705813161E+03  0.10705813164E+03  0.25500000000E-02 0. -1.
          2   -1    0    0  501    0  0.00000000000E+00 -0.00000000000E+00 -0.95261430618E+03  0.95261430619E+03  0.25500000000E-02 0.  1.
    5000001    1    1    2    0    0  0.10709119815E+02 -0.14561921911E+03 -0.77000836216E+03  0.80690552112E+03  0.19200000000E+03 0.  0.
   -5000001    1    1    2    0    0 -0.10709119815E+02  0.14561921911E+03 -0.75547812418E+02  0.25276691671E+03  0.19200000000E+03 0.  0.
<mgrwt>
<rscale>  0 0.63870215E+03</rscale>
<asrwt>0</asrwt>
<pdfrwt beam="1">  1        2 0.13608775E+00 0.63870215E+03</pdfrwt>
<pdfrwt beam="2">  1       -2 0.15294019E-01 0.63870215E+03</pdfrwt>
<totfact> 0.10237749E+03</totfact>
</mgrwt>
</event>
<event>
 4    1  0.2013882E-005  0.8594195E+03  0.7818608E-02  0.9477781E-01
          2   -1    0    0  501    0  0.00000000000E+00  0.00000000000E+00  0.17712618978E+04  0.17712618978E+04  0.25500000000E-02 0.  1.
         -2   -1    0    0    0  501 -0.00000000000E+00 -0.00000000000E+00 -0.10424797053E+03  0.10424797057E+03  0.25500000000E-02 0. -1.
    5000001    1    1    2    0    0 -0.58713034825E+02  0.36752000549E+03  0.10436010424E+04  0.11244933573E+04  0.19200000000E+03 0.  0.
   -5000001    1    1    2    0    0  0.58713034825E+02 -0.36752000549E+03  0.62341288487E+03  0.75101651108E+03  0.19200000000E+03 0.  0.
<mgrwt>
<rscale>  0 0.85941947E+03</rscale>
<asrwt>0</asrwt>
<pdfrwt beam="1">  1        2 0.25303743E+00 0.85941947E+03</pdfrwt>
<pdfrwt beam="2">  1       -2 0.14892566E-01 0.85941947E+03</pdfrwt>
<totfact> 0.37659816E+02</totfact>
</mgrwt>
</event>
<event>
 4    1  0.2013882E-005  0.8668395E+03  0.7818608E-02  0.9468010E-01
         -2   -1    0    0    0  501 -0.00000000000E+00  0.00000000000E+00  0.20262229939E+03  0.20262229940E+03  0.25500000000E-02 0. -1.
          2   -1    0    0  501    0  0.00000000000E+00 -0.00000000000E+00 -0.92710766622E+03  0.92710766622E+03  0.25500000000E-02 0.  1.
    5000001    1    1    2    0    0 -0.22505738313E+03 -0.24410693302E+03 -0.99156538500E+02  0.39615027398E+03  0.19200000000E+03 0.  0.
   -5000001    1    1    2    0    0  0.22505738313E+03  0.24410693302E+03 -0.62532882833E+03  0.73357969164E+03  0.19200000000E+03 0.  0.
<mgrwt>
<rscale>  0 0.86683952E+03</rscale>
<asrwt>0</asrwt>
<pdfrwt beam="1">  1        2 0.13244395E+00 0.86683952E+03</pdfrwt>
<pdfrwt beam="2">  1       -2 0.28946043E-01 0.86683952E+03</pdfrwt>
<totfact> 0.34241871E+02</totfact>
</mgrwt>
</event>
<event>
 4    1  0.2013882E-005  0.8497870E+03  0.7818608E-02  0.9490623E-01
          2   -1    0    0  501    0  0.00000000000E+00  0.00000000000E+00  0.77016791217E+03  0.77016791217E+03  0.25500000000E-02 0.  1.
         -2   -1    0    0    0  501 -0.00000000000E+00 -0.00000000000E+00 -0.23440925206E+03  0.23440925207E+03  0.25500000000E-02 0. -1.
    5000001    1    1    2    0    0  0.27814460776E+03 -0.28487747880E+02  0.57041436047E+03  0.66363583179E+03  0.19200000000E+03 0.  0.
   -5000001    1    1    2    0    0 -0.27814460776E+03  0.28487747880E+02 -0.34655700362E+02  0.34094133245E+03  0.19200000000E+03 0.  0.
<mgrwt>
<rscale>  0 0.84978700E+03</rscale>
<asrwt>0</asrwt>
<pdfrwt beam="1">  1        2 0.11002399E+00 0.84978700E+03</pdfrwt>
<pdfrwt beam="2">  1       -2 0.33487036E-01 0.84978700E+03</pdfrwt>
<totfact> 0.33332575E+02</totfact>
</mgrwt>
</event>
<event>
 4    1  0.2013882E-005  0.1047392E+04  0.7818608E-02  0.9258040E-01
         -2   -1    0    0    0  501 -0.00000000000E+00  0.00000000000E+00  0.31474389975E+03  0.31474389976E+03  0.25500000000E-02 0. -1.
          2   -1    0    0  501    0  0.00000000000E+00 -0.00000000000E+00 -0.87136782892E+03  0.87136782892E+03  0.25500000000E-02 0.  1.
    5000001    1    1    2    0    0  0.43894878426E+03  0.17601009212E+03 -0.14557867754E+03  0.53076618118E+03  0.19200000000E+03 0.  0.
   -5000001    1    1    2    0    0 -0.43894878426E+03 -0.17601009212E+03 -0.41104525163E+03  0.65534554749E+03  0.19200000000E+03 0.  0.
<mgrwt>
<rscale>  0 0.10473924E+04</rscale>
<asrwt>0</asrwt>
<pdfrwt beam="1">  1        2 0.12448112E+00 0.10473924E+04</pdfrwt>
<pdfrwt beam="2">  1       -2 0.44963414E-01 0.10473924E+04</pdfrwt>
<totfact> 0.15854773E+02</totfact>
</mgrwt>
</event>
<event>
 4    1  0.2013882E-005  0.1124637E+04  0.7818608E-02  0.9181507E-01
         -2   -1    0    0    0  501 -0.00000000000E+00  0.00000000000E+00  0.61687630593E+03  0.61687630593E+03  0.25500000000E-02 0. -1.
          2   -1    0    0  501    0  0.00000000000E+00 -0.00000000000E+00 -0.51258550201E+03  0.51258550201E+03  0.25500000000E-02 0.  1.
    5000001    1    1    2    0    0  0.38311990647E+03  0.14827424802E+03 -0.28180457190E+03  0.53389505720E+03  0.19200000000E+03 0.  0.
   -5000001    1    1    2    0    0 -0.38311990647E+03 -0.14827424802E+03  0.38609537582E+03  0.59556675075E+03  0.19200000000E+03 0.  0.
<mgrwt>
<rscale>  0 0.11246366E+04</rscale>
<asrwt>0</asrwt>
<pdfrwt beam="1">  1        2 0.73226499E-01 0.11246366E+04</pdfrwt>
<pdfrwt beam="2">  1       -2 0.88125188E-01 0.11246366E+04</pdfrwt>
<totfact> 0.71844449E+01</totfact>
</mgrwt>
</event>
<event>
 4    1  0.2013882E-005  0.5906304E+03  0.7818608E-02  0.9925038E-01
          2   -1    0    0  501    0  0.00000000000E+00  0.00000000000E+00  0.22822387769E+03  0.22822387771E+03  0.25500000000E-02 0.  1.
         -2   -1    0    0    0  501 -0.00000000000E+00 -0.00000000000E+00 -0.38212951957E+03  0.38212951958E+03  0.25500000000E-02 0. -1.
    5000001    1    1    2    0    0 -0.10732481213E+03 -0.19597620601E+03 -0.55729430289E+02  0.29982504569E+03  0.19200000000E+03 0.  0.
   -5000001    1    1    2    0    0  0.10732481213E+03  0.19597620601E+03 -0.98176211594E+02  0.31052835160E+03  0.19200000000E+03 0.  0.
<mgrwt>
<rscale>  0 0.59063045E+03</rscale>
<asrwt>0</asrwt>
<pdfrwt beam="1">  1        2 0.32603411E-01 0.59063045E+03</pdfrwt>
<pdfrwt beam="2">  1       -2 0.54589931E-01 0.59063045E+03</pdfrwt>
<totfact> 0.51562224E+02</totfact>
</mgrwt>
</event>
<event>
 4    1  0.2013882E-005  0.1332473E+04  0.7818608E-02  0.9004203E-01
          2   -1    0    0  501    0  0.00000000000E+00  0.00000000000E+00  0.29992466736E+04  0.29992466736E+04  0.25500000000E-02 0.  1.
         -2   -1    0    0    0  501 -0.00000000000E+00 -0.00000000000E+00 -0.14799411692E+03  0.14799411694E+03  0.25500000000E-02 0. -1.
    5000001    1    1    2    0    0  0.20135640733E+03  0.59797719454E+03  0.16482740406E+04  0.17753288261E+04  0.19200000000E+03 0.  0.
   -5000001    1    1    2    0    0 -0.20135640733E+03 -0.59797719454E+03  0.12029785161E+04  0.13719119644E+04  0.19200000000E+03 0.  0.
<mgrwt>
<rscale>  0 0.13324727E+04</rscale>
<asrwt>0</asrwt>
<pdfrwt beam="1">  1        2 0.42846379E+00 0.13324727E+04</pdfrwt>
<pdfrwt beam="2">  1       -2 0.21142018E-01 0.13324727E+04</pdfrwt>
<totfact> 0.45130517E+01</totfact>
</mgrwt>
</event>
<event>
 4    1  0.2013882E-005  0.5072055E+03  0.7818608E-02  0.1011915E+00
          2   -1    0    0  501    0  0.00000000000E+00  0.00000000000E+00  0.26721638438E+04  0.26721638438E+04  0.25500000000E-02 0.  1.
         -2   -1    0    0    0  501 -0.00000000000E+00 -0.00000000000E+00 -0.24068272357E+02  0.24068272492E+02  0.25500000000E-02 0. -1.
    5000001    1    1    2    0    0 -0.16167727132E+02  0.16418834585E+03  0.14048696244E+04  0.14274949632E+04  0.19200000000E+03 0.  0.
   -5000001    1    1    2    0    0  0.16167727132E+02 -0.16418834585E+03  0.12432259470E+04  0.12687371531E+04  0.19200000000E+03 0.  0.
<mgrwt>
<rscale>  0 0.50720555E+03</rscale>
<asrwt>0</asrwt>
<pdfrwt beam="1">  1        2 0.38173764E+00 0.50720555E+03</pdfrwt>
<pdfrwt beam="2">  1       -2 0.34383251E-02 0.50720555E+03</pdfrwt>
<totfact> 0.13852304E+03</totfact>
</mgrwt>
</event>
<event>
 4    1  0.2013882E-005  0.1022784E+04  0.7818608E-02  0.9283903E-01
          2   -1    0    0  501    0  0.00000000000E+00  0.00000000000E+00  0.15593775672E+04  0.15593775672E+04  0.25500000000E-02 0.  1.
         -2   -1    0    0    0  501 -0.00000000000E+00 -0.00000000000E+00 -0.16770900213E+03  0.16770900214E+03  0.25500000000E-02 0. -1.
    5000001    1    1    2    0    0  0.23307600931E+03  0.28125215404E+03  0.12058695463E+04  0.12745244458E+04  0.19200000000E+03 0.  0.
   -5000001    1    1    2    0    0 -0.23307600931E+03 -0.28125215404E+03  0.18579901875E+03  0.45256212351E+03  0.19200000000E+03 0.  0.
<mgrwt>
<rscale>  0 0.10227838E+04</rscale>
<asrwt>0</asrwt>
<pdfrwt beam="1">  1        2 0.22276823E+00 0.10227838E+04</pdfrwt>
<pdfrwt beam="2">  1       -2 0.23958428E-01 0.10227838E+04</pdfrwt>
<totfact> 0.20962282E+02</totfact>
</mgrwt>
</event>
<event>
 4    1  0.2013882E-005  0.6877743E+03  0.7818608E-02  0.9738371E-01
         -2   -1    0    0    0  501 -0.00000000000E+00  0.00000000000E+00  0.26074659041E+02  0.26074659166E+02  0.25500000000E-02 0. -1.
          2   -1    0    0  501    0  0.00000000000E+00 -0.00000000000E+00 -0.45353760098E+04  0.45353760098E+04  0.25500000000E-02 0.  1.
    5000001    1    1    2    0    0 -0.89614684567E+02  0.26344000955E+03 -0.18371410608E+04  0.18679889474E+04  0.19200000000E+03 0.  0.
   -5000001    1    1    2    0    0  0.89614684567E+02 -0.26344000955E+03 -0.26721602899E+04  0.26934617215E+04  0.19200000000E+03 0.  0.
<mgrwt>
<rscale>  0 0.68777433E+03</rscale>
<asrwt>0</asrwt>
<pdfrwt beam="1">  1        2 0.64791036E+00 0.68777433E+03</pdfrwt>
<pdfrwt beam="2">  1       -2 0.37249542E-02 0.68777433E+03</pdfrwt>
<totfact> 0.83275199E+01</totfact>
</mgrwt>
</event>
<event>
 4    1  0.2013882E-005  0.4703374E+03  0.7818608E-02  0.1021825E+00
          2   -1    0    0  501    0  0.00000000000E+00  0.00000000000E+00  0.50307031885E+03  0.50307031885E+03  0.25500000000E-02 0.  1.
         -2   -1    0    0    0  501 -0.00000000000E+00 -0.00000000000E+00 -0.10993357119E+03  0.10993357122E+03  0.25500000000E-02 0. -1.
    5000001    1    1    2    0    0  0.12471424178E+03  0.34520625249E+02  0.14290985190E+03  0.27208921596E+03  0.19200000000E+03 0.  0.
   -5000001    1    1    2    0    0 -0.12471424178E+03 -0.34520625249E+02  0.25022689575E+03  0.34091467412E+03  0.19200000000E+03 0.  0.
<mgrwt>
<rscale>  0 0.47033740E+03</rscale>
<asrwt>0</asrwt>
<pdfrwt beam="1">  1        2 0.71867188E-01 0.47033740E+03</pdfrwt>
<pdfrwt beam="2">  1       -2 0.15704796E-01 0.47033740E+03</pdfrwt>
<totfact> 0.21464803E+03</totfact>
</mgrwt>
</event>
<event>
 4    1  0.2013882E-005  0.5420503E+03  0.7818608E-02  0.1003351E+00
          2   -1    0    0  501    0  0.00000000000E+00  0.00000000000E+00  0.25871184983E+03  0.25871184984E+03  0.25500000000E-02 0.  1.
         -2   -1    0    0    0  501 -0.00000000000E+00 -0.00000000000E+00 -0.28392449697E+03  0.28392449698E+03  0.25500000000E-02 0. -1.
    5000001    1    1    2    0    0 -0.16976630368E+03  0.80770665453E+02 -0.47945106528E+02  0.27296012805E+03  0.19200000000E+03 0.  0.
   -5000001    1    1    2    0    0  0.16976630368E+03 -0.80770665453E+02  0.22732459386E+02  0.26967621878E+03  0.19200000000E+03 0.  0.
<mgrwt>
<rscale>  0 0.54205030E+03</rscale>
<asrwt>0</asrwt>
<pdfrwt beam="1">  1        2 0.36958836E-01 0.54205030E+03</pdfrwt>
<pdfrwt beam="2">  1       -2 0.40560642E-01 0.54205030E+03</pdfrwt>
<totfact> 0.81305267E+02</totfact>
</mgrwt>
</event>
<event>
 4    1  0.2013882E-005  0.7086276E+03  0.7818608E-02  0.9702591E-01
          2   -1    0    0  501    0  0.00000000000E+00  0.00000000000E+00  0.14404159236E+04  0.14404159236E+04  0.25500000000E-02 0.  1.
         -2   -1    0    0    0  501 -0.00000000000E+00 -0.00000000000E+00 -0.87154168680E+02  0.87154168717E+02  0.25500000000E-02 0. -1.
    5000001    1    1    2    0    0  0.16012066467E+03  0.13477165634E+03  0.21999301538E+03  0.35925332764E+03  0.19200000000E+03 0.  0.
   -5000001    1    1    2    0    0 -0.16012066467E+03 -0.13477165634E+03  0.11332687395E+04  0.11683167646E+04  0.19200000000E+03 0.  0.
<mgrwt>
<rscale>  0 0.70862755E+03</rscale>
<asrwt>0</asrwt>
<pdfrwt beam="1">  1        2 0.20577368E+00 0.70862755E+03</pdfrwt>
<pdfrwt beam="2">  1       -2 0.12450597E-01 0.70862755E+03</pdfrwt>
<totfact> 0.76100802E+02</totfact>
</mgrwt>
</event>
<event>
 4    1  0.2013882E-005  0.6206644E+03  0.7818608E-02  0.9863438E-01
          2   -1    0    0  501    0  0.00000000000E+00  0.00000000000E+00  0.25071601481E+04  0.25071601481E+04  0.25500000000E-02 0.  1.
         -2   -1    0    0    0  501 -0.00000000000E+00 -0.00000000000E+00 -0.38412408991E+02  0.38412409075E+02  0.25500000000E-02 0. -1.
    5000001    1    1    2    0    0 -0.76417483435E+02  0.22196390951E+03  0.96435396186E+03  0.10109155121E+04  0.19200000000E+03 0.  0.
   -5000001    1    1    2    0    0  0.76417483435E+02 -0.22196390951E+03  0.15043937772E+04  0.15346570450E+04  0.19200000000E+03 0.  0.
<mgrwt>
<rscale>  0 0.62066436E+03</rscale>
<asrwt>0</asrwt>
<pdfrwt beam="1">  1        2 0.35816581E+00 0.62066436E+03</pdfrwt>
<pdfrwt beam="2">  1       -2 0.54874859E-02 0.62066436E+03</pdfrwt>
<totfact> 0.81359581E+02</totfact>
</mgrwt>
</event>
<event>
 4    1  0.2013882E-005  0.9566707E+03  0.7818608E-02  0.9357387E-01
          2   -1    0    0  501    0  0.00000000000E+00  0.00000000000E+00  0.26736670252E+03  0.26736670253E+03  0.25500000000E-02 0.  1.
         -2   -1    0    0    0  501 -0.00000000000E+00 -0.00000000000E+00 -0.85577105954E+03  0.85577105955E+03  0.25500000000E-02 0. -1.
    5000001    1    1    2    0    0 -0.69444410892E+02  0.17358539315E+03  0.17095680552E+03  0.31787520236E+03  0.19200000000E+03 0.  0.
   -5000001    1    1    2    0    0  0.69444410892E+02 -0.17358539315E+03 -0.75936116254E+03  0.80526255972E+03  0.19200000000E+03 0.  0.
<mgrwt>
<rscale>  0 0.95667066E+03</rscale>
<asrwt>0</asrwt>
<pdfrwt beam="1">  1        2 0.38195244E-01 0.95667066E+03</pdfrwt>
<pdfrwt beam="2">  1       -2 0.12225301E+00 0.95667066E+03</pdfrwt>
<totfact> 0.68791085E+01</totfact>
</mgrwt>
</event>
<event>
 4    1  0.2013882E-005  0.8781978E+03  0.7818608E-02  0.9453253E-01
          2   -1    0    0  501    0  0.00000000000E+00  0.00000000000E+00  0.35287988800E+03  0.35287988801E+03  0.25500000000E-02 0.  1.
         -2   -1    0    0    0  501 -0.00000000000E+00 -0.00000000000E+00 -0.54638377049E+03  0.54638377050E+03  0.25500000000E-02 0. -1.
    5000001    1    1    2    0    0 -0.33812574393E+03 -0.20127588797E+03 -0.13075761143E+03  0.45694918178E+03  0.19200000000E+03 0.  0.
   -5000001    1    1    2    0    0  0.33812574393E+03  0.20127588797E+03 -0.62746271060E+02  0.44231447672E+03  0.19200000000E+03 0.  0.
<mgrwt>
<rscale>  0 0.87819780E+03</rscale>
<asrwt>0</asrwt>
<pdfrwt beam="1">  1        2 0.50411412E-01 0.87819780E+03</pdfrwt>
<pdfrwt beam="2">  1       -2 0.78054825E-01 0.87819780E+03</pdfrwt>
<totfact> 0.14606133E+02</totfact>
</mgrwt>
</event>
<event>
 4    1  0.2013882E-005  0.4589999E+03  0.7818608E-02  0.1025072E+00
          2   -1    0    0  501    0  0.00000000000E+00  0.00000000000E+00  0.10698740423E+04  0.10698740423E+04  0.25500000000E-02 0.  1.
         -2   -1    0    0    0  501 -0.00000000000E+00 -0.00000000000E+00 -0.49230303229E+02  0.49230303295E+02  0.25500000000E-02 0. -1.
    5000001    1    1    2    0    0 -0.10908252322E+03  0.41034661351E+02  0.62528674441E+03  0.66440225243E+03  0.19200000000E+03 0.  0.
   -5000001    1    1    2    0    0  0.10908252322E+03 -0.41034661351E+02  0.39535699470E+03  0.45470209321E+03  0.19200000000E+03 0.  0.
<mgrwt>
<rscale>  0 0.45899988E+03</rscale>
<asrwt>0</asrwt>
<pdfrwt beam="1">  1        2 0.15283915E+00 0.45899988E+03</pdfrwt>
<pdfrwt beam="2">  1       -2 0.70329003E-02 0.45899988E+03</pdfrwt>
<totfact> 0.30785863E+03</totfact>
</mgrwt>
</event>
<event>
 4    1  0.2013882E-005  0.4826972E+03  0.7818608E-02  0.1018397E+00
          2   -1    0    0  501    0  0.00000000000E+00  0.00000000000E+00  0.46393295619E+03  0.46393295620E+03  0.25500000000E-02 0.  1.
         -2   -1    0    0    0  501 -0.00000000000E+00 -0.00000000000E+00 -0.12555510926E+03  0.12555510929E+03  0.25500000000E-02 0. -1.
    5000001    1    1    2    0    0  0.21152199170E+02  0.14183192598E+03  0.20419059096E+03  0.31483568443E+03  0.19200000000E+03 0.  0.
   -5000001    1    1    2    0    0 -0.21152199170E+02 -0.14183192598E+03  0.13418725597E+03  0.27465238106E+03  0.19200000000E+03 0.  0.
<mgrwt>
<rscale>  0 0.48269723E+03</rscale>
<asrwt>0</asrwt>
<pdfrwt beam="1">  1        2 0.66276137E-01 0.48269723E+03</pdfrwt>
<pdfrwt beam="2">  1       -2 0.17936444E-01 0.48269723E+03</pdfrwt>
<totfact> 0.18771395E+03</totfact>
</mgrwt>
</event>
<event>
 4    1  0.2013882E-005  0.4912168E+03  0.7818608E-02  0.1016097E+00
          2   -1    0    0  501    0  0.00000000000E+00  0.00000000000E+00  0.35854378200E+03  0.35854378201E+03  0.25500000000E-02 0.  1.
         -2   -1    0    0    0  501 -0.00000000000E+00 -0.00000000000E+00 -0.16824577355E+03  0.16824577357E+03  0.25500000000E-02 0. -1.
    5000001    1    1    2    0    0  0.13592356936E+03  0.59808371080E+02  0.13537850771E+03  0.27792732559E+03  0.19200000000E+03 0.  0.
   -5000001    1    1    2    0    0 -0.13592356936E+03 -0.59808371080E+02  0.54919500739E+02  0.24886223000E+03  0.19200000000E+03 0.  0.
<mgrwt>
<rscale>  0 0.49121676E+03</rscale>
<asrwt>0</asrwt>
<pdfrwt beam="1">  1        2 0.51220541E-01 0.49121676E+03</pdfrwt>
<pdfrwt beam="2">  1       -2 0.24035110E-01 0.49121676E+03</pdfrwt>
<totfact> 0.14993450E+03</totfact>
</mgrwt>
</event>
<event>
 4    1  0.2013882E-005  0.4727994E+03  0.7818608E-02  0.1021133E+00
         -2   -1    0    0    0  501 -0.00000000000E+00  0.00000000000E+00  0.11461128545E+03  0.11461128548E+03  0.25500000000E-02 0. -1.
          2   -1    0    0  501    0  0.00000000000E+00 -0.00000000000E+00 -0.48760308307E+03  0.48760308307E+03  0.25500000000E-02 0.  1.
    5000001    1    1    2    0    0  0.62358977233E+02 -0.22408858126E+02 -0.32433511749E+02  0.20568600256E+03  0.19200000000E+03 0.  0.
   -5000001    1    1    2    0    0 -0.62358977233E+02  0.22408858126E+02 -0.34055828587E+03  0.39652836599E+03  0.19200000000E+03 0.  0.
<mgrwt>
<rscale>  0 0.47279939E+03</rscale>
<asrwt>0</asrwt>
<pdfrwt beam="1">  1        2 0.69657582E-01 0.47279939E+03</pdfrwt>
<pdfrwt beam="2">  1       -2 0.16373041E-01 0.47279939E+03</pdfrwt>
<totfact> 0.20725918E+03</totfact>
</mgrwt>
</event>
<event>
 4    1  0.2013882E-005  0.5609258E+03  0.7818608E-02  0.9989962E-01
         -2   -1    0    0    0  501 -0.00000000000E+00  0.00000000000E+00  0.14449866384E+03  0.14449866386E+03  0.25500000000E-02 0. -1.
          2   -1    0    0  501    0  0.00000000000E+00 -0.00000000000E+00 -0.54436107053E+03  0.54436107053E+03  0.25500000000E-02 0.  1.
    5000001    1    1    2    0    0  0.76612241209E+01  0.20420335989E+03 -0.20747571128E+03  0.34880922768E+03  0.19200000000E+03 0.  0.
   -5000001    1    1    2    0    0 -0.76612241209E+01 -0.20420335989E+03 -0.19238669541E+03  0.34005050672E+03  0.19200000000E+03 0.  0.
<mgrwt>
<rscale>  0 0.56092583E+03</rscale>
<asrwt>0</asrwt>
<pdfrwt beam="1">  1        2 0.77765866E-01 0.56092583E+03</pdfrwt>
<pdfrwt beam="2">  1       -2 0.20642667E-01 0.56092583E+03</pdfrwt>
<totfact> 0.12285420E+03</totfact>
</mgrwt>
</event>
<event>
 4    1  0.2013882E-005  0.4383641E+03  0.7818608E-02  0.1031250E+00
         -2   -1    0    0    0  501 -0.00000000000E+00  0.00000000000E+00  0.24573245589E+02  0.24573245721E+02  0.25500000000E-02 0. -1.
          2   -1    0    0  501    0  0.00000000000E+00 -0.00000000000E+00 -0.19550027250E+04  0.19550027250E+04  0.25500000000E-02 0.  1.
    5000001    1    1    2    0    0 -0.90632867020E+02 -0.45960740578E+02 -0.10968769046E+04  0.11181814031E+04  0.19200000000E+03 0.  0.
   -5000001    1    1    2    0    0  0.90632867020E+02  0.45960740578E+02 -0.83355257480E+03  0.86139456767E+03  0.19200000000E+03 0.  0.
<mgrwt>
<rscale>  0 0.43836406E+03</rscale>
<asrwt>0</asrwt>
<pdfrwt beam="1">  1        2 0.27928601E+00 0.43836406E+03</pdfrwt>
<pdfrwt beam="2">  1       -2 0.35104649E-02 0.43836406E+03</pdfrwt>
<totfact> 0.30968686E+03</totfact>
</mgrwt>
</event>
<event>
 4    1  0.2013882E-005  0.5554369E+03  0.7818608E-02  0.1000243E+00
         -2   -1    0    0    0  501 -0.00000000000E+00  0.00000000000E+00  0.63874355479E+02  0.63874355529E+02  0.25500000000E-02 0. -1.
          2   -1    0    0  501    0  0.00000000000E+00 -0.00000000000E+00 -0.12074882718E+04  0.12074882718E+04  0.25500000000E-02 0.  1.
    5000001    1    1    2    0    0  0.85094486834E+01 -0.20034157741E+03 -0.58868575492E+03  0.65086409979E+03  0.19200000000E+03 0.  0.
   -5000001    1    1    2    0    0 -0.85094486834E+01  0.20034157741E+03 -0.55492816135E+03  0.62049852749E+03  0.19200000000E+03 0.  0.
<mgrwt>
<rscale>  0 0.55543689E+03</rscale>
<asrwt>0</asrwt>
<pdfrwt beam="1">  1        2 0.17249831E+00 0.55543689E+03</pdfrwt>
<pdfrwt beam="2">  1       -2 0.91249087E-02 0.55543689E+03</pdfrwt>
<totfact> 0.16984525E+03</totfact>
</mgrwt>
</event>
<event>
 4    1  0.2013882E-005  0.5149938E+03  0.7818608E-02  0.1009938E+00
         -2   -1    0    0    0  501 -0.00000000000E+00  0.00000000000E+00  0.18986060600E+03  0.18986060601E+03  0.25500000000E-02 0. -1.
          2   -1    0    0  501    0  0.00000000000E+00 -0.00000000000E+00 -0.34922812872E+03  0.34922812873E+03  0.25500000000E-02 0.  1.
    5000001    1    1    2    0    0 -0.90194837637E+02  0.14550443767E+03 -0.91801828971E+02  0.27312675797E+03  0.19200000000E+03 0.  0.
   -5000001    1    1    2    0    0  0.90194837637E+02 -0.14550443767E+03 -0.67565693757E+02  0.26596197677E+03  0.19200000000E+03 0.  0.
<mgrwt>
<rscale>  0 0.51499384E+03</rscale>
<asrwt>0</asrwt>
<pdfrwt beam="1">  1        2 0.49889733E-01 0.51499384E+03</pdfrwt>
<pdfrwt beam="2">  1       -2 0.27122944E-01 0.51499384E+03</pdfrwt>
<totfact> 0.12425938E+03</totfact>
</mgrwt>
</event>
<event>
 4    1  0.2013882E-005  0.6491977E+03  0.7818608E-02  0.9808286E-01
          2   -1    0    0  501    0  0.00000000000E+00  0.00000000000E+00  0.13030904905E+04  0.13030904905E+04  0.25500000000E-02 0.  1.
         -2   -1    0    0    0  501 -0.00000000000E+00 -0.00000000000E+00 -0.80857333438E+02  0.80857333479E+02  0.25500000000E-02 0. -1.
    5000001    1    1    2    0    0 -0.19420076176E+03  0.13599016378E+03  0.84747687459E+03  0.90071544534E+03  0.19200000000E+03 0.  0.
   -5000001    1    1    2    0    0  0.19420076176E+03 -0.13599016378E+03  0.37475628249E+03  0.48323237865E+03  0.19200000000E+03 0.  0.
<mgrwt>
<rscale>  0 0.64919773E+03</rscale>
<asrwt>0</asrwt>
<pdfrwt beam="1">  1        2 0.18615579E+00 0.64919773E+03</pdfrwt>
<pdfrwt beam="2">  1       -2 0.11551047E-01 0.64919773E+03</pdfrwt>
<totfact> 0.10230486E+03</totfact>
</mgrwt>
</event>
<event>
 4    1  0.2013882E-005  0.4245253E+03  0.7818608E-02  0.1035603E+00
          2   -1    0    0  501    0  0.00000000000E+00  0.00000000000E+00  0.51428905154E+04  0.51428905154E+04  0.25500000000E-02 0.  1.
         -2   -1    0    0    0  501 -0.00000000000E+00 -0.00000000000E+00 -0.87607198192E+01  0.87607201903E+01  0.25500000000E-02 0. -1.
    5000001    1    1    2    0    0  0.69540689147E+02  0.51440447426E+02  0.22438528697E+04  0.22537128762E+04  0.19200000000E+03 0.  0.
   -5000001    1    1    2    0    0 -0.69540689147E+02 -0.51440447426E+02  0.28902769259E+04  0.28979383595E+04  0.19200000000E+03 0.  0.
<mgrwt>
<rscale>  0 0.42452526E+03</rscale>
<asrwt>0</asrwt>
<pdfrwt beam="1">  1        2 0.73469767E+00 0.42452526E+03</pdfrwt>
<pdfrwt beam="2">  1       -2 0.12515331E-02 0.42452526E+03</pdfrwt>
<totfact> 0.13226273E+02</totfact>
</mgrwt>
</event>
<event>
 4    1  0.2013882E-005  0.4597506E+03  0.7818608E-02  0.1024854E+00
         -2   -1    0    0    0  501 -0.00000000000E+00  0.00000000000E+00  0.14200755912E+02  0.14200756141E+02  0.25500000000E-02 0. -1.
          2   -1    0    0  501    0  0.00000000000E+00 -0.00000000000E+00 -0.37211160273E+04  0.37211160273E+04  0.25500000000E-02 0.  1.
    5000001    1    1    2    0    0  0.10494397560E+03 -0.68124504470E+02 -0.19998085852E+04  0.20128965606E+04  0.19200000000E+03 0.  0.
   -5000001    1    1    2    0    0 -0.10494397560E+03  0.68124504470E+02 -0.17071066861E+04  0.17224202228E+04  0.19200000000E+03 0.  0.
<mgrwt>
<rscale>  0 0.45975063E+03</rscale>
<asrwt>0</asrwt>
<pdfrwt beam="1">  1        2 0.53158738E+00 0.45975063E+03</pdfrwt>
<pdfrwt beam="2">  1       -2 0.20286818E-02 0.45975063E+03</pdfrwt>
<totfact> 0.79493401E+02</totfact>
</mgrwt>
</event>
<event>
 4    1  0.2013882E-005  0.4633300E+03  0.7818608E-02  0.1023820E+00
          2   -1    0    0  501    0  0.00000000000E+00  0.00000000000E+00  0.10384727456E+04  0.10384727456E+04  0.25500000000E-02 0.  1.
         -2   -1    0    0    0  501 -0.00000000000E+00 -0.00000000000E+00 -0.51680379556E+02  0.51680379619E+02  0.25500000000E-02 0. -1.
    5000001    1    1    2    0    0  0.79983492110E+00 -0.60322388592E+02  0.76336364505E+03  0.78944758210E+03  0.19200000000E+03 0.  0.
   -5000001    1    1    2    0    0 -0.79983492110E+00  0.60322388592E+02  0.22342872102E+03  0.30070554314E+03  0.19200000000E+03 0.  0.
<mgrwt>
<rscale>  0 0.46332997E+03</rscale>
<asrwt>0</asrwt>
<pdfrwt beam="1">  1        2 0.14835323E+00 0.46332997E+03</pdfrwt>
<pdfrwt beam="2">  1       -2 0.73829124E-02 0.46332997E+03</pdfrwt>
<totfact> 0.29759919E+03</totfact>
</mgrwt>
</event>
<event>
 4    1  0.2013882E-005  0.6820434E+03  0.7818608E-02  0.9748443E-01
          2   -1    0    0  501    0  0.00000000000E+00  0.00000000000E+00  0.21547907393E+04  0.21547907393E+04  0.25500000000E-02 0.  1.
         -2   -1    0    0    0  501 -0.00000000000E+00 -0.00000000000E+00 -0.53970806618E+02  0.53970806678E+02  0.25500000000E-02 0. -1.
    5000001    1    1    2    0    0  0.25846294453E+03 -0.99272485391E+02  0.87985492372E+03  0.94216071179E+03  0.19200000000E+03 0.  0.
   -5000001    1    1    2    0    0 -0.25846294453E+03  0.99272485391E+02  0.12209650089E+04  0.12666008341E+04  0.19200000000E+03 0.  0.
<mgrwt>
<rscale>  0 0.68204338E+03</rscale>
<asrwt>0</asrwt>
<pdfrwt beam="1">  1        2 0.30782732E+00 0.68204338E+03</pdfrwt>
<pdfrwt beam="2">  1       -2 0.77101134E-02 0.68204338E+03</pdfrwt>
<totfact> 0.71615456E+02</totfact>
</mgrwt>
</event>
<event>
 4    1  0.2013882E-005  0.8011901E+03  0.7818608E-02  0.9558296E-01
          2   -1    0    0  501    0  0.00000000000E+00  0.00000000000E+00  0.12149324612E+04  0.12149324612E+04  0.25500000000E-02 0.  1.
         -2   -1    0    0    0  501 -0.00000000000E+00 -0.00000000000E+00 -0.13208669159E+03  0.13208669162E+03  0.25500000000E-02 0. -1.
    5000001    1    1    2    0    0  0.13379831122E+03 -0.27523721475E+03  0.83240888184E+03  0.90742826661E+03  0.19200000000E+03 0.  0.
   -5000001    1    1    2    0    0 -0.13379831122E+03  0.27523721475E+03  0.25043688772E+03  0.43959088617E+03  0.19200000000E+03 0.  0.
<mgrwt>
<rscale>  0 0.80119014E+03</rscale>
<asrwt>0</asrwt>
<pdfrwt beam="1">  1        2 0.17356177E+00 0.80119014E+03</pdfrwt>
<pdfrwt beam="2">  1       -2 0.18869528E-01 0.80119014E+03</pdfrwt>
<totfact> 0.49697153E+02</totfact>
</mgrwt>
</event>
<event>
 4    1  0.2013882E-005  0.6501613E+03  0.7818608E-02  0.9806477E-01
         -2   -1    0    0    0  501 -0.00000000000E+00  0.00000000000E+00  0.11947995261E+03  0.11947995264E+03  0.25500000000E-02 0. -1.
          2   -1    0    0  501    0  0.00000000000E+00 -0.00000000000E+00 -0.88447824722E+03  0.88447824722E+03  0.25500000000E-02 0.  1.
    5000001    1    1    2    0    0 -0.10338402854E+03  0.48617271638E+02 -0.17861212197E+02  0.22413147784E+03  0.19200000000E+03 0.  0.
   -5000001    1    1    2    0    0  0.10338402854E+03 -0.48617271638E+02 -0.74713708241E+03  0.77982672202E+03  0.19200000000E+03 0.  0.
<mgrwt>
<rscale>  0 0.65016127E+03</rscale>
<asrwt>0</asrwt>
<pdfrwt beam="1">  1        2 0.12635403E+00 0.65016127E+03</pdfrwt>
<pdfrwt beam="2">  1       -2 0.17068565E-01 0.65016127E+03</pdfrwt>
<totfact> 0.93897531E+02</totfact>
</mgrwt>
</event>
<event>
 4    1  0.2013882E-005  0.5339621E+03  0.7818608E-02  0.1005276E+00
          2   -1    0    0  501    0  0.00000000000E+00  0.00000000000E+00  0.42827718440E+03  0.42827718441E+03  0.25500000000E-02 0.  1.
         -2   -1    0    0    0  501 -0.00000000000E+00 -0.00000000000E+00 -0.16643165860E+03  0.16643165862E+03  0.25500000000E-02 0. -1.
    5000001    1    1    2    0    0  0.73081151764E+02 -0.12497231273E+03  0.26011937280E+03  0.35423865091E+03  0.19200000000E+03 0.  0.
   -5000001    1    1    2    0    0 -0.73081151764E+02  0.12497231273E+03  0.17261530107E+01  0.24047019212E+03  0.19200000000E+03 0.  0.
<mgrwt>
<rscale>  0 0.53396210E+03</rscale>
<asrwt>0</asrwt>
<pdfrwt beam="1">  1        2 0.61182454E-01 0.53396210E+03</pdfrwt>
<pdfrwt beam="2">  1       -2 0.23775951E-01 0.53396210E+03</pdfrwt>
<totfact> 0.12560406E+03</totfact>
</mgrwt>
</event>
<event>
 4    1  0.2013882E-005  0.6551370E+03  0.7818608E-02  0.9797187E-01
          2   -1    0    0  501    0  0.00000000000E+00  0.00000000000E+00  0.11169858403E+04  0.11169858403E+04  0.25500000000E-02 0.  1.
         -2   -1    0    0    0  501 -0.00000000000E+00 -0.00000000000E+00 -0.96063093150E+02  0.96063093183E+02  0.25500000000E-02 0. -1.
    5000001    1    1    2    0    0  0.68571282615E+02  0.25595617162E+03  0.53802045209E+03  0.62971865897E+03  0.19200000000E+03 0.  0.
   -5000001    1    1    2    0    0 -0.68571282615E+02 -0.25595617162E+03  0.48290229504E+03  0.58333027449E+03  0.19200000000E+03 0.  0.
<mgrwt>
<rscale>  0 0.65513698E+03</rscale>
<asrwt>0</asrwt>
<pdfrwt beam="1">  1        2 0.15956940E+00 0.65513698E+03</pdfrwt>
<pdfrwt beam="2">  1       -2 0.13723299E-01 0.65513698E+03</pdfrwt>
<totfact> 0.97772063E+02</totfact>
</mgrwt>
</event>
<event>
 4    1  0.2013882E-005  0.9455603E+03  0.7818608E-02  0.9370355E-01
         -2   -1    0    0    0  501 -0.00000000000E+00  0.00000000000E+00  0.67310647609E+03  0.67310647610E+03  0.25500000000E-02 0. -1.
          2   -1    0    0  501    0  0.00000000000E+00 -0.00000000000E+00 -0.33207387437E+03  0.33207387438E+03  0.25500000000E-02 0.  1.
    5000001    1    1    2    0    0  0.22596617996E+03 -0.36679723968E+03  0.20506380732E+03  0.51431128181E+03  0.19200000000E+03 0.  0.
   -5000001    1    1    2    0    0 -0.22596617996E+03  0.36679723968E+03  0.13596879440E+03  0.49086906867E+03  0.19200000000E+03 0.  0.
<mgrwt>
<rscale>  0 0.94556031E+03</rscale>
<asrwt>0</asrwt>
<pdfrwt beam="1">  1        2 0.47439125E-01 0.94556031E+03</pdfrwt>
<pdfrwt beam="2">  1       -2 0.96158067E-01 0.94556031E+03</pdfrwt>
<totfact> 0.96636996E+01</totfact>
</mgrwt>
</event>
<event>
 4    1  0.2013882E-005  0.5544701E+03  0.7818608E-02  0.1000465E+00
          2   -1    0    0  501    0  0.00000000000E+00  0.00000000000E+00  0.41269883304E+03  0.41269883305E+03  0.25500000000E-02 0.  1.
         -2   -1    0    0    0  501 -0.00000000000E+00 -0.00000000000E+00 -0.18623574004E+03  0.18623574006E+03  0.25500000000E-02 0. -1.
    5000001    1    1    2    0    0  0.91256875911E+02 -0.17634385733E+03  0.87435531337E+02  0.28971355778E+03  0.19200000000E+03 0.  0.
   -5000001    1    1    2    0    0 -0.91256875911E+02  0.17634385733E+03  0.13902756166E+03  0.30922101533E+03  0.19200000000E+03 0.  0.
<mgrwt>
<rscale>  0 0.55447010E+03</rscale>
<asrwt>0</asrwt>
<pdfrwt beam="1">  1        2 0.58956976E-01 0.55447010E+03</pdfrwt>
<pdfrwt beam="2">  1       -2 0.26605106E-01 0.55447010E+03</pdfrwt>
<totfact> 0.10697880E+03</totfact>
</mgrwt>
</event>
<event>
 4    1  0.2013882E-005  0.6179316E+03  0.7818608E-02  0.9868887E-01
         -2   -1    0    0    0  501 -0.00000000000E+00  0.00000000000E+00  0.64559341402E+02  0.64559341452E+02  0.25500000000E-02 0.  1.
          2   -1    0    0  501    0  0.00000000000E+00 -0.00000000000E+00 -0.14786375354E+04  0.14786375354E+04  0.25500000000E-02 0. -1.
    5000001    1    1    2    0    0 -0.75487114831E+02  0.21275197169E+03 -0.92524251374E+03  0.97154486010E+03  0.19200000000E+03 0.  0.
   -5000001    1    1    2    0    0  0.75487114831E+02 -0.21275197169E+03 -0.48883568026E+03  0.57165201675E+03  0.19200000000E+03 0.  0.
<mgrwt>
<rscale>  0 0.61793160E+03</rscale>
<asrwt>0</asrwt>
<pdfrwt beam="1">  1        2 0.21123391E+00 0.61793160E+03</pdfrwt>
<pdfrwt beam="2">  1       -2 0.92227640E-02 0.61793160E+03</pdfrwt>
<totfact> 0.11906745E+03</totfact>
</mgrwt>
</event>
<event>
 4    1  0.2013882E-005  0.5457451E+03  0.7818608E-02  0.1002484E+00
         -2   -1    0    0    0  501 -0.00000000000E+00  0.00000000000E+00  0.92889825300E+02  0.92889825335E+02  0.25500000000E-02 0. -1.
          2   -1    0    0  501    0  0.00000000000E+00 -0.00000000000E+00 -0.80158850258E+03  0.80158850258E+03  0.25500000000E-02 0.  1.
    5000001    1    1    2    0    0 -0.10060922848E+03  0.16096555711E+03 -0.41915300658E+03  0.49858336350E+03  0.19200000000E+03 0.  0.
   -5000001    1    1    2    0    0  0.10060922848E+03 -0.16096555711E+03 -0.28954567070E+03  0.39589496442E+03  0.19200000000E+03 0.  0.
<mgrwt>
<rscale>  0 0.54574505E+03</rscale>
<asrwt>0</asrwt>
<pdfrwt beam="1">  1        2 0.11451264E+00 0.54574505E+03</pdfrwt>
<pdfrwt beam="2">  1       -2 0.13269976E-01 0.54574505E+03</pdfrwt>
<totfact> 0.16336745E+03</totfact>
</mgrwt>
</event>
<event>
 4    1  0.2013882E-005  0.6453730E+03  0.7818608E-02  0.9815500E-01
          2   -1    0    0  501    0  0.00000000000E+00  0.00000000000E+00  0.20968260952E+04  0.20968260952E+04  0.25500000000E-02 0.  1.
         -2   -1    0    0    0  501 -0.00000000000E+00 -0.00000000000E+00 -0.49659132784E+02  0.49659132849E+02  0.25500000000E-02 0. -1.
    5000001    1    1    2    0    0 -0.23821771843E+03  0.96964815461E+02  0.11345285202E+04  0.11790542057E+04  0.19200000000E+03 0.  0.
   -5000001    1    1    2    0    0  0.23821771843E+03 -0.96964815461E+02  0.91263844221E+03  0.96743102235E+03  0.19200000000E+03 0.  0.
<mgrwt>
<rscale>  0 0.64537296E+03</rscale>
<asrwt>0</asrwt>
<pdfrwt beam="1">  1        2 0.29954670E+00 0.64537296E+03</pdfrwt>
<pdfrwt beam="2">  1       -2 0.70941592E-02 0.64537296E+03</pdfrwt>
<totfact> 0.87642325E+02</totfact>
</mgrwt>
</event>
<event>
 4    1  0.2013882E-005  0.5819257E+03  0.7818608E-02  0.9943631E-01
          2   -1    0    0  501    0  0.00000000000E+00  0.00000000000E+00  0.13291693853E+04  0.13291693853E+04  0.25500000000E-02 0.  1.
         -2   -1    0    0    0  501 -0.00000000000E+00 -0.00000000000E+00 -0.63693441592E+02  0.63693441643E+02  0.25500000000E-02 0. -1.
    5000001    1    1    2    0    0  0.55883926626E+02  0.19425699916E+03  0.83208669396E+03  0.87754832416E+03  0.19200000000E+03 0.  0.
   -5000001    1    1    2    0    0 -0.55883926626E+02 -0.19425699916E+03  0.43338924973E+03  0.51531450277E+03  0.19200000000E+03 0.  0.
<mgrwt>
<rscale>  0 0.58192567E+03</rscale>
<asrwt>0</asrwt>
<pdfrwt beam="1">  1        2 0.18988135E+00 0.58192567E+03</pdfrwt>
<pdfrwt beam="2">  1       -2 0.90990626E-02 0.58192567E+03</pdfrwt>
<totfact> 0.14625137E+03</totfact>
</mgrwt>
</event>
<event>
 4    1  0.2013882E-005  0.7321849E+03  0.7818608E-02  0.9663722E-01
         -2   -1    0    0    0  501 -0.00000000000E+00  0.00000000000E+00  0.98759016503E+02  0.98759016536E+02  0.25500000000E-02 0. -1.
          2   -1    0    0  501    0  0.00000000000E+00 -0.00000000000E+00 -0.13570779231E+04  0.13570779231E+04  0.25500000000E-02 0.  1.
    5000001    1    1    2    0    0 -0.20800103125E+03  0.22010210727E+03 -0.48236733227E+03  0.60104210324E+03  0.19200000000E+03 0.  0.
   -5000001    1    1    2    0    0  0.20800103125E+03 -0.22010210727E+03 -0.77595157428E+03  0.85479483635E+03  0.19200000000E+03 0.  0.
<mgrwt>
<rscale>  0 0.73218490E+03</rscale>
<asrwt>0</asrwt>
<pdfrwt beam="1">  1        2 0.19386826E+00 0.73218490E+03</pdfrwt>
<pdfrwt beam="2">  1       -2 0.14108432E-01 0.73218490E+03</pdfrwt>
<totfact> 0.68381058E+02</totfact>
</mgrwt>
</event>
<event>
 4    1  0.2013882E-005  0.7568917E+03  0.7818608E-02  0.9624600E-01
          2   -1    0    0  501    0  0.00000000000E+00  0.00000000000E+00  0.13158022863E+04  0.13158022863E+04  0.25500000000E-02 0.  1.
         -2   -1    0    0    0  501 -0.00000000000E+00 -0.00000000000E+00 -0.10884709546E+03  0.10884709549E+03  0.25500000000E-02 0. -1.
    5000001    1    1    2    0    0  0.21791791100E+03 -0.11329184366E+03  0.10073215733E+04  0.10544591077E+04  0.19200000000E+03 0.  0.
   -5000001    1    1    2    0    0 -0.21791791100E+03  0.11329184366E+03  0.19963361751E+03  0.37019027407E+03  0.19200000000E+03 0.  0.
<mgrwt>
<rscale>  0 0.75689169E+03</rscale>
<asrwt>0</asrwt>
<pdfrwt beam="1">  1        2 0.18797175E+00 0.75689169E+03</pdfrwt>
<pdfrwt beam="2">  1       -2 0.15549586E-01 0.75689169E+03</pdfrwt>
<totfact> 0.61032687E+02</totfact>
</mgrwt>
</event>
<event>
 4    1  0.2013882E-005  0.4294676E+03  0.7818608E-02  0.1034028E+00
         -2   -1    0    0    0  501 -0.00000000000E+00  0.00000000000E+00  0.10676862614E+03  0.10676862618E+03  0.25500000000E-02 0. -1.
          2   -1    0    0  501    0  0.00000000000E+00 -0.00000000000E+00 -0.43187413013E+03  0.43187413014E+03  0.25500000000E-02 0.  1.
    5000001    1    1    2    0    0 -0.94326747756E+02 -0.65095524381E+01 -0.14058802381E+03  0.25606425376E+03  0.19200000000E+03 0.  0.
   -5000001    1    1    2    0    0  0.94326747756E+02  0.65095524381E+01 -0.18451748018E+03  0.28257850256E+03  0.19200000000E+03 0.  0.
<mgrwt>
<rscale>  0 0.42946761E+03</rscale>
<asrwt>0</asrwt>
<pdfrwt beam="1">  1        2 0.61696304E-01 0.42946761E+03</pdfrwt>
<pdfrwt beam="2">  1       -2 0.15252661E-01 0.42946761E+03</pdfrwt>
<totfact> 0.26706568E+03</totfact>
</mgrwt>
</event>
<event>
 4    1  0.2013882E-005  0.1007179E+04  0.7818608E-02  0.9300705E-01
         -2   -1    0    0    0  501 -0.00000000000E+00  0.00000000000E+00  0.22844074821E+04  0.22844074821E+04  0.25500000000E-02 0. -1.
          2   -1    0    0  501    0  0.00000000000E+00 -0.00000000000E+00 -0.11101461570E+03  0.11101461573E+03  0.25500000000E-02 0.  1.
    5000001    1    1    2    0    0  0.88428632597E+01  0.16767140062E+03  0.21194214189E+04  0.21347138088E+04  0.19200000000E+03 0.  0.
   -5000001    1    1    2    0    0 -0.88428632597E+01 -0.16767140062E+03  0.53971447562E+02  0.26070828903E+03  0.19200000000E+03 0.  0.
<mgrwt>
<rscale>  0 0.10071795E+04</rscale>
<asrwt>0</asrwt>
<pdfrwt beam="1">  1        2 0.15859230E-01 0.10071795E+04</pdfrwt>
<pdfrwt beam="2">  1       -2 0.32634395E+00 0.10071795E+04</pdfrwt>
<totfact> 0.83667977E+00</totfact>
</mgrwt>
</event>
<event>
 4    1  0.2013882E-005  0.4042490E+03  0.7818608E-02  0.1042318E+00
         -2   -1    0    0    0  501 -0.00000000000E+00  0.00000000000E+00  0.86507455413E+02  0.86507455450E+02  0.25500000000E-02 0. -1.
          2   -1    0    0  501    0  0.00000000000E+00 -0.00000000000E+00 -0.47226356720E+03  0.47226356721E+03  0.25500000000E-02 0.  1.
    5000001    1    1    2    0    0  0.41718214133E+02 -0.30117321567E+02 -0.24353042711E+03  0.31435414961E+03  0.19200000000E+03 0.  0.
   -5000001    1    1    2    0    0 -0.41718214133E+02  0.30117321567E+02 -0.14222568468E+03  0.24441687305E+03  0.19200000000E+03 0.  0.
<mgrwt>
<rscale>  0 0.40424903E+03</rscale>
<asrwt>0</asrwt>
<pdfrwt beam="1">  1        2 0.67466223E-01 0.40424903E+03</pdfrwt>
<pdfrwt beam="2">  1       -2 0.12358208E-01 0.40424903E+03</pdfrwt>
<totfact> 0.34223467E+03</totfact>
</mgrwt>
</event>
<event>
 4    1  0.2013882E-005  0.7586835E+03  0.7818608E-02  0.9621825E-01
         -2   -1    0    0    0  501 -0.00000000000E+00  0.00000000000E+00  0.32762776447E+03  0.32762776448E+03  0.25500000000E-02 0. -1.
          2   -1    0    0  501    0  0.00000000000E+00 -0.00000000000E+00 -0.43921847057E+03  0.43921847058E+03  0.25500000000E-02 0.  1.
    5000001    1    1    2    0    0  0.31607454519E+03  0.33957950548E+02  0.22366490345E+02  0.37204908334E+03  0.19200000000E+03 0.  0.
   -5000001    1    1    2    0    0 -0.31607454519E+03 -0.33957950548E+02 -0.13395719645E+03  0.39479715171E+03  0.19200000000E+03 0.  0.
<mgrwt>
<rscale>  0 0.75868351E+03</rscale>
<asrwt>0</asrwt>
<pdfrwt beam="1">  1        2 0.62745495E-01 0.75868351E+03</pdfrwt>
<pdfrwt beam="2">  1       -2 0.46803967E-01 0.75868351E+03</pdfrwt>
<totfact> 0.33912694E+02</totfact>
</mgrwt>
</event>
<event>
 4    1  0.2013882E-005  0.7888637E+03  0.7818608E-02  0.9576278E-01
          2   -1    0    0  501    0  0.00000000000E+00  0.00000000000E+00  0.96456901341E+02  0.96456901374E+02  0.25500000000E-02 0.  1.
         -2   -1    0    0    0  501 -0.00000000000E+00 -0.00000000000E+00 -0.16129118509E+04  0.16129118509E+04  0.25500000000E-02 0. -1.
    5000001    1    1    2    0    0  0.99869721878E+02  0.31573305858E+03 -0.55207632339E+03  0.67179877380E+03  0.19200000000E+03 0.  0.
   -5000001    1    1    2    0    0 -0.99869721878E+02 -0.31573305858E+03 -0.96437862612E+03  0.10375699784E+04  0.19200000000E+03 0.  0.
<mgrwt>
<rscale>  0 0.78886369E+03</rscale>
<asrwt>0</asrwt>
<pdfrwt beam="1">  1        2 0.13779558E-01 0.78886369E+03</pdfrwt>
<pdfrwt beam="2">  1       -2 0.23041596E+00 0.78886369E+03</pdfrwt>
<totfact> 0.38598503E+01</totfact>
</mgrwt>
</event>
