<event>
 8    1  0.7623533E-028  0.2680481E+04  0.7818608E-02  0.8341366E-01
          2   -1    0    0  501    0  0.00000000000E+00  0.00000000000E+00  0.31930774274E+04  0.31930774274E+04  0.25500000000E-02 0.  1.
         -2   -1    0    0    0  501 -0.00000000000E+00 -0.00000000000E+00 -0.56254339639E+03  0.56254339639E+03  0.25500000000E-02 0. -1.
     200001    2    1    2    0    0 -0.33028087398E+03 -0.96417163762E+03  0.20390345092E+04  0.23850063314E+04  0.70134233325E+03 0.  0.
    5000001    2    3    3    0    0 -0.31822399452E+01 -0.29434257619E+03  0.52239302886E+03  0.62265963794E+03  0.16781796479E+03 0.  0.
        -13    1    4    4    0    0 -0.62448182222E+01 -0.25265852544E+03  0.29016127328E+03  0.38479722440E+03  0.10566000000E+00 0. -1.
     200003    1    4    4    0    0  0.30625782771E+01 -0.41684050748E+02  0.23223175559E+03  0.23786241354E+03  0.30000000000E+02 0. -1.
     200000    1    3    3    0    0 -0.32709863403E+03 -0.66982906143E+03  0.15166414804E+04  0.17623466934E+04  0.50000000000E+03 0.  1.
    -200001    1    1    2    0    0  0.33028087398E+03  0.96417163762E+03  0.59149952176E+03  0.13706144924E+04  0.70000000000E+03 0. -1.
<mgrwt>
<rscale>  0 0.26804810E+04</rscale>
<asrwt>0</asrwt>
<pdfrwt beam="1">  1        2 0.45615393E+00 0.26804810E+04</pdfrwt>
<pdfrwt beam="2">  1       -2 0.80363340E-01 0.26804810E+04</pdfrwt>
<totfact> 0.22133047E+00</totfact>
</mgrwt>
</event>
<event>
 8    1  0.7623533E-028  0.1734988E+04  0.7818608E-02  0.8741657E-01
         -2   -1    0    0    0  501 -0.00000000000E+00  0.00000000000E+00  0.88037482618E+03  0.88037482618E+03  0.25500000000E-02 0. -1.
          2   -1    0    0  501    0  0.00000000000E+00 -0.00000000000E+00 -0.85480150722E+03  0.85480150722E+03  0.25500000000E-02 0.  1.
     200001    2    1    2    0    0  0.39588348299E+03 -0.32510365279E+03 -0.54267363977E+01  0.86720333809E+03  0.69971141406E+03 0.  0.
    5000001    2    3    3    0    0  0.56871842524E+00  0.17782090513E+01 -0.11853494071E+02  0.15084671050E+03  0.15036867785E+03 0.  0.
        -13    1    4    4    0    0  0.47253787946E+02 -0.51967840712E+02  0.90365691304E+01  0.70818413490E+02  0.10566000000E+00 0. -1.
     200003    1    4    4    0    0 -0.46685069521E+02  0.53746049763E+02 -0.20890063202E+02  0.80028297007E+02  0.30000000000E+02 0. -1.
     200000    1    3    3    0    0  0.39531476456E+03 -0.32688186184E+03  0.64267576736E+01  0.71635662759E+03  0.50000000000E+03 0. -1.
    -200001    1    1    2    0    0 -0.39588348299E+03  0.32510365279E+03  0.31000055361E+02  0.86797299531E+03  0.70000000000E+03 0. -1.
<mgrwt>
<rscale>  0 0.17349879E+04</rscale>
<asrwt>0</asrwt>
<pdfrwt beam="1">  1        2 0.12211450E+00 0.17349879E+04</pdfrwt>
<pdfrwt beam="2">  1       -2 0.12576783E+00 0.17349879E+04</pdfrwt>
<totfact> 0.15657318E+01</totfact>
</mgrwt>
</event>
<event>
 8    1  0.7623533E-028  0.2317111E+04  0.7818608E-02  0.8471205E-01
          2   -1    0    0  501    0  0.00000000000E+00  0.00000000000E+00  0.89326302356E+03  0.89326302357E+03  0.25500000000E-02 0. -1.
         -2   -1    0    0    0  501 -0.00000000000E+00 -0.00000000000E+00 -0.15026384023E+04  0.15026384023E+04  0.25500000000E-02 0.  1.
     200001    2    1    2    0    0 -0.10639935630E+03  0.16389668564E+03 -0.12391597077E+04  0.14342303554E+04  0.69521002923E+03 0.  0.
    5000001    2    3    3    0    0 -0.33469052912E+02  0.14014358890E+03 -0.31172148324E+03  0.37780965378E+03  0.15751015320E+03 0.  0.
        -13    1    4    4    0    0  0.14729186614E+02 -0.29722007749E+02 -0.35326900832E+02  0.48459754120E+02  0.10566000000E+00 0. -1.
     200003    1    4    4    0    0 -0.48198239527E+02  0.16986559665E+03 -0.27639458241E+03  0.32934989966E+03  0.30000000000E+02 0. -1.
     200000    1    3    3    0    0 -0.72930303391E+02  0.23753096743E+02 -0.92743822443E+03  0.10564207017E+04  0.50000000000E+03 0.  1.
    -200001    1    1    2    0    0  0.10639935630E+03 -0.16389668564E+03  0.62978432898E+03  0.96167107039E+03  0.70000000000E+03 0. -1.
<mgrwt>
<rscale>  0 0.23171114E+04</rscale>
<asrwt>0</asrwt>
<pdfrwt beam="1">  1        2 0.12760900E+00 0.23171114E+04</pdfrwt>
<pdfrwt beam="2">  1       -2 0.21466263E+00 0.23171114E+04</pdfrwt>
<totfact> 0.31926853E+00</totfact>
</mgrwt>
</event>
<event>
 8    1  0.7623533E-028  0.1560616E+04  0.7818608E-02  0.8845115E-01
          2   -1    0    0  501    0  0.00000000000E+00  0.00000000000E+00  0.14343403966E+04  0.14343403966E+04  0.25500000000E-02 0.  1.
         -2   -1    0    0    0  501 -0.00000000000E+00 -0.00000000000E+00 -0.42450210115E+03  0.42450210116E+03  0.25500000000E-02 0. -1.
     200001    2    1    2    0    0  0.11147335562E+03 -0.13416132022E+03  0.85818213001E+03  0.11216687317E+04  0.70088416059E+03 0.  0.
    5000001    2    3    3    0    0  0.76503807271E+02 -0.62768907770E+02  0.17426306474E+03  0.27074862164E+03  0.18205612344E+03 0.  0.
        -13    1    4    4    0    0  0.12057427020E+03 -0.31248224586E+02  0.54581675711E+02  0.13599182571E+03  0.10566000000E+00 0. -1.
     200003    1    4    4    0    0 -0.44070462925E+02 -0.31520683184E+02  0.11968138902E+03  0.13475679593E+03  0.30000000000E+02 0. -1.
     200000    1    3    3    0    0  0.34969548345E+02 -0.71392412451E+02  0.68391906527E+03  0.85092011006E+03  0.50000000000E+03 0.  1.
    -200001    1    1    2    0    0 -0.11147335562E+03  0.13416132022E+03  0.15165616545E+03  0.73717376607E+03  0.70000000000E+03 0. -1.
<mgrwt>
<rscale>  0 0.15606159E+04</rscale>
<asrwt>0</asrwt>
<pdfrwt beam="1">  1        2 0.20490577E+00 0.15606159E+04</pdfrwt>
<pdfrwt beam="2">  1       -2 0.60643157E-01 0.15606159E+04</pdfrwt>
<totfact> 0.38676411E+01</totfact>
</mgrwt>
</event>
<event>
 8    1  0.7623533E-028  0.1580535E+04  0.7818608E-02  0.8832596E-01
         -2   -1    0    0    0  501 -0.00000000000E+00  0.00000000000E+00  0.47590525324E+03  0.47590525325E+03  0.25500000000E-02 0. -1.
          2   -1    0    0  501    0  0.00000000000E+00 -0.00000000000E+00 -0.13122833833E+04  0.13122833833E+04  0.25500000000E-02 0.  1.
     200001    2    1    2    0    0 -0.15090900474E+03  0.16613626734E+03 -0.74534544120E+03  0.10474715938E+04  0.70091520600E+03 0.  0.
    5000001    2    3    3    0    0  0.55789037680E+02  0.15199132760E+03 -0.25239381257E+03  0.31540228815E+03  0.97786432380E+02 0.  0.
        -13    1    4    4    0    0  0.38910152936E+02  0.13662420047E+03 -0.23329773150E+03  0.27314467750E+03  0.10566000000E+00 0. -1.
     200003    1    4    4    0    0  0.16878884743E+02  0.15367127122E+02 -0.19096081071E+02  0.42257610657E+02  0.30000000000E+02 0.  1.
     200000    1    3    3    0    0 -0.20669804242E+03  0.14144939743E+02 -0.49295162862E+03  0.73206930561E+03  0.50000000000E+03 0.  1.
    -200001    1    1    2    0    0  0.15090900474E+03 -0.16613626734E+03 -0.91032688864E+02  0.74071704279E+03  0.70000000000E+03 0. -1.
<mgrwt>
<rscale>  0 0.15805348E+04</rscale>
<asrwt>0</asrwt>
<pdfrwt beam="1">  1        2 0.18746905E+00 0.15805348E+04</pdfrwt>
<pdfrwt beam="2">  1       -2 0.67986465E-01 0.15805348E+04</pdfrwt>
<totfact> 0.35233345E+01</totfact>
</mgrwt>
</event>
<event>
 8    1  0.7623533E-028  0.1810353E+04  0.7818608E-02  0.8700813E-01
         -2   -1    0    0    0  501 -0.00000000000E+00  0.00000000000E+00  0.58247971079E+03  0.58247971079E+03  0.25500000000E-02 0. -1.
          2   -1    0    0  501    0  0.00000000000E+00 -0.00000000000E+00 -0.14066489645E+04  0.14066489645E+04  0.25500000000E-02 0.  1.
     200001    2    1    2    0    0  0.42781441425E+02  0.56145302262E+03 -0.52460909346E+03  0.10421355191E+04  0.70268911395E+03 0.  0.
    5000001    2    3    3    0    0  0.10145467834E+03  0.29844725412E+03 -0.27348277333E+03  0.42110491464E+03  0.56326783857E+02 0.  0.
        -13    1    4    4    0    0  0.26348650401E+02  0.12755000537E+03 -0.96168665728E+02  0.16190021211E+03  0.10566000000E+00 0. -1.
     200003    1    4    4    0    0  0.75106027937E+02  0.17089724875E+03 -0.17731410760E+03  0.25920470254E+03  0.30000000000E+02 0.  1.
     200000    1    3    3    0    0 -0.58673236913E+02  0.26300576850E+03 -0.25112632012E+03  0.62103060444E+03  0.50000000000E+03 0.  1.
    -200001    1    1    2    0    0 -0.42781441425E+02 -0.56145302262E+03 -0.29956016028E+03  0.94699315624E+03  0.70000000000E+03 0.  1.
<mgrwt>
<rscale>  0 0.18103530E+04</rscale>
<asrwt>0</asrwt>
<pdfrwt beam="1">  1        2 0.20094985E+00 0.18103530E+04</pdfrwt>
<pdfrwt beam="2">  1       -2 0.83211388E-01 0.18103530E+04</pdfrwt>
<totfact> 0.19636912E+01</totfact>
</mgrwt>
</event>
<event>
 8    1  0.7623533E-028  0.1633684E+04  0.7818608E-02  0.8800118E-01
          2   -1    0    0  501    0  0.00000000000E+00  0.00000000000E+00  0.45546001325E+03  0.45546001325E+03  0.25500000000E-02 0.  1.
         -2   -1    0    0    0  501 -0.00000000000E+00 -0.00000000000E+00 -0.14649600135E+04  0.14649600135E+04  0.25500000000E-02 0. -1.
     200001    2    1    2    0    0 -0.20070406023E+03 -0.23498869114E+01 -0.94083839233E+03  0.11889816779E+04  0.69872233980E+03 0.  0.
    5000001    2    3    3    0    0 -0.52964000859E+02  0.15779835136E+02 -0.22903678912E+03  0.30647539786E+03  0.19599778096E+03 0.  0.
        -13    1    4    4    0    0 -0.67564417660E+02  0.51970809078E+02 -0.24115967269E+03  0.25578098918E+03  0.10566000000E+00 0. -1.
     200003    1    4    4    0    0  0.14600416801E+02 -0.36190973943E+02  0.12122883571E+02  0.50694408684E+02  0.30000000000E+02 0. -1.
     200000    1    3    3    0    0 -0.14774005937E+03 -0.18129722047E+02 -0.71180160321E+03  0.88250628004E+03  0.50000000000E+03 0. -1.
    -200001    1    1    2    0    0  0.20070406023E+03  0.23498869114E+01 -0.68661607909E+02  0.73143834885E+03  0.70000000000E+03 0.  1.
<mgrwt>
<rscale>  0 0.16336838E+04</rscale>
<asrwt>0</asrwt>
<pdfrwt beam="1">  1        2 0.65065717E-01 0.16336838E+04</pdfrwt>
<pdfrwt beam="2">  1       -2 0.20928000E+00 0.16336838E+04</pdfrwt>
<totfact> 0.82811328E+00</totfact>
</mgrwt>
</event>
<event>
 8    1  0.7623533E-028  0.1444518E+04  0.7818608E-02  0.8922210E-01
          2   -1    0    0  501    0  0.00000000000E+00  0.00000000000E+00  0.87108169675E+03  0.87108169676E+03  0.25500000000E-02 0.  1.
         -2   -1    0    0    0  501 -0.00000000000E+00 -0.00000000000E+00 -0.59886238065E+03  0.59886238066E+03  0.25500000000E-02 0. -1.
     200001    2    1    2    0    0  0.16867763686E+03  0.60856649408E+02  0.11302922998E+03  0.73001356685E+03  0.69856175389E+03 0.  0.
    5000001    2    3    3    0    0  0.50534761177E+02  0.11167643074E+02 -0.76310248276E+02  0.18021708227E+03  0.15484335443E+03 0.  0.
        -13    1    4    4    0    0 -0.34048184214E+02 -0.44990588079E+02 -0.36032269115E+02  0.66946003955E+02  0.10566000000E+00 0. -1.
     200003    1    4    4    0    0  0.84582945391E+02  0.56158231153E+02 -0.40277979161E+02  0.11327107831E+03  0.30000000000E+02 0. -1.
     200000    1    3    3    0    0  0.11814287568E+03  0.49689006334E+02  0.18933947826E+03  0.54979648458E+03  0.50000000000E+03 0. -1.
    -200001    1    1    2    0    0 -0.16867763686E+03 -0.60856649408E+02  0.15919008611E+03  0.73993051057E+03  0.70000000000E+03 0. -1.
<mgrwt>
<rscale>  0 0.14445180E+04</rscale>
<asrwt>0</asrwt>
<pdfrwt beam="1">  1        2 0.12444024E+00 0.14445180E+04</pdfrwt>
<pdfrwt beam="2">  1       -2 0.85551770E-01 0.14445180E+04</pdfrwt>
<totfact> 0.39219320E+01</totfact>
</mgrwt>
</event>
<event>
 8    1  0.7623533E-028  0.1613833E+04  0.7818608E-02  0.8812095E-01
         -2   -1    0    0    0  501 -0.00000000000E+00  0.00000000000E+00  0.42550870224E+03  0.42550870224E+03  0.25500000000E-02 0. -1.
          2   -1    0    0  501    0  0.00000000000E+00 -0.00000000000E+00 -0.15302012583E+04  0.15302012583E+04  0.25500000000E-02 0.  1.
     200001    2    1    2    0    0  0.34197491870E+03 -0.14320372759E+03 -0.36801427384E+03  0.87397568443E+03  0.70067455970E+03 0.  0.
    5000001    2    3    3    0    0  0.22892308608E+03 -0.48774583796E+02 -0.91612936583E+02  0.28397968504E+03  0.13216199152E+03 0.  0.
        -13    1    4    4    0    0  0.18458608997E+03 -0.85433627385E+02 -0.61829063247E+02  0.21258827231E+03  0.10566000000E+00 0. -1.
     200003    1    4    4    0    0  0.44336996114E+02  0.36659043590E+02 -0.29783873337E+02  0.71391412735E+02  0.30000000000E+02 0. -1.
     200000    1    3    3    0    0  0.11305183262E+03 -0.94429143793E+02 -0.27640133726E+03  0.58999599939E+03  0.50000000000E+03 0. -1.
    -200001    1    1    2    0    0 -0.34197491870E+03  0.14320372759E+03 -0.73667828220E+03  0.10817342761E+04  0.70000000000E+03 0.  1.
<mgrwt>
<rscale>  0 0.16138326E+04</rscale>
<asrwt>0</asrwt>
<pdfrwt beam="1">  1        2 0.21860018E+00 0.16138326E+04</pdfrwt>
<pdfrwt beam="2">  1       -2 0.60786958E-01 0.16138326E+04</pdfrwt>
<totfact> 0.34066529E+01</totfact>
</mgrwt>
</event>
<event>
 8    1  0.7623533E-028  0.2058669E+04  0.7818608E-02  0.8579672E-01
          2   -1    0    0  501    0  0.00000000000E+00  0.00000000000E+00  0.16354972758E+04  0.16354972758E+04  0.25500000000E-02 0.  1.
         -2   -1    0    0    0  501 -0.00000000000E+00 -0.00000000000E+00 -0.64783350683E+03  0.64783350683E+03  0.25500000000E-02 0. -1.
     200001    2    1    2    0    0 -0.15756163486E+02  0.17925026524E+03 -0.31896645063E+03  0.79012569121E+03  0.70012862890E+03 0.  0.
    5000001    2    3    3    0    0  0.10978654588E+03  0.95027168557E+02  0.96243579076E+00  0.17758263619E+03  0.10223217680E+03 0.  0.
        -13    1    4    4    0    0  0.41945988664E+02 -0.11792696435E+02 -0.16030979449E+02  0.46427762388E+02  0.10566000000E+00 0. -1.
     200003    1    4    4    0    0  0.67840557212E+02  0.10681986499E+03  0.16993415240E+02  0.13115487380E+03  0.30000000000E+02 0. -1.
     200000    1    3    3    0    0 -0.12554270936E+03  0.84223096681E+02 -0.31992888643E+03  0.61254305502E+03  0.50000000000E+03 0. -1.
    -200001    1    1    2    0    0  0.15756163486E+02 -0.17925026524E+03  0.13066302196E+04  0.14932050915E+04  0.70000000000E+03 0.  1.
<mgrwt>
<rscale>  0 0.20586694E+04</rscale>
<asrwt>0</asrwt>
<pdfrwt beam="1">  1        2 0.23364247E+00 0.20586694E+04</pdfrwt>
<pdfrwt beam="2">  1       -2 0.92547644E-01 0.20586694E+04</pdfrwt>
<totfact> 0.11403905E+01</totfact>
</mgrwt>
</event>
<event>
 8    1  0.7623533E-028  0.1594196E+04  0.7818608E-02  0.8824122E-01
         -2   -1    0    0    0  501 -0.00000000000E+00  0.00000000000E+00  0.48084096431E+03  0.48084096432E+03  0.25500000000E-02 0. -1.
          2   -1    0    0  501    0  0.00000000000E+00 -0.00000000000E+00 -0.13213626448E+04  0.13213626448E+04  0.25500000000E-02 0.  1.
     200001    2    1    2    0    0 -0.22341470666E+02 -0.37573823698E+03 -0.33405477004E+03  0.85976682320E+03  0.69708538706E+03 0.  0.
    5000001    2    3    3    0    0  0.10721780296E+02 -0.22888581607E+03 -0.16194751159E+03  0.30996711376E+03  0.13171538153E+03 0.  0.
        -13    1    4    4    0    0  0.53239150468E+02 -0.19241158486E+03 -0.11033601113E+03  0.22810232714E+03  0.10566000000E+00 0. -1.
     200003    1    4    4    0    0 -0.42517370172E+02 -0.36474231216E+02 -0.51611500465E+02  0.81864786626E+02  0.30000000000E+02 0. -1.
     200000    1    3    3    0    0 -0.33063250962E+02 -0.14685242091E+03 -0.17210725845E+03  0.54979970944E+03  0.50000000000E+03 0. -1.
    -200001    1    1    2    0    0  0.22341470666E+02  0.37573823698E+03 -0.50646691042E+03  0.94243678589E+03  0.70000000000E+03 0.  1.
<mgrwt>
<rscale>  0 0.15941961E+04</rscale>
<asrwt>0</asrwt>
<pdfrwt beam="1">  1        2 0.18876609E+00 0.15941961E+04</pdfrwt>
<pdfrwt beam="2">  1       -2 0.68691567E-01 0.15941961E+04</pdfrwt>
<totfact> 0.34022324E+01</totfact>
</mgrwt>
</event>
<event>
 8    1  0.7623533E-028  0.1623342E+04  0.7818608E-02  0.8806335E-01
         -2   -1    0    0    0  501 -0.00000000000E+00  0.00000000000E+00  0.10395270827E+04  0.10395270827E+04  0.25500000000E-02 0. -1.
          2   -1    0    0  501    0  0.00000000000E+00 -0.00000000000E+00 -0.63375951857E+03  0.63375951858E+03  0.25500000000E-02 0.  1.
     200001    2    1    2    0    0  0.10605926423E+03 -0.31293187667E+03  0.45468161737E+03  0.89767876767E+03  0.69994061876E+03 0.  0.
    5000001    2    3    3    0    0 -0.12890309298E+02 -0.94148164513E+01  0.52912692385E+02  0.17817207836E+03  0.16938340429E+03 0.  0.
        -13    1    4    4    0    0  0.14381123219E+02  0.13539796618E+02 -0.56177850853E+02  0.59549180414E+02  0.10566000000E+00 0. -1.
     200003    1    4    4    0    0 -0.27271432517E+02 -0.22954613069E+02  0.10909054324E+03  0.11862289794E+03  0.30000000000E+02 0. -1.
     200000    1    3    3    0    0  0.11894957353E+03 -0.30351706022E+03  0.40176892498E+03  0.71950668931E+03  0.50000000000E+03 0. -1.
    -200001    1    1    2    0    0 -0.10605926423E+03  0.31293187667E+03 -0.48914053228E+02  0.77560783362E+03  0.70000000000E+03 0.  1.
<mgrwt>
<rscale>  0 0.16233425E+04</rscale>
<asrwt>0</asrwt>
<pdfrwt beam="1">  1        2 0.90537076E-01 0.16233425E+04</pdfrwt>
<pdfrwt beam="2">  1       -2 0.14850387E+00 0.16233425E+04</pdfrwt>
<totfact> 0.14995167E+01</totfact>
</mgrwt>
</event>
<event>
 8    1  0.7623533E-028  0.1714130E+04  0.7818608E-02  0.8753346E-01
         -2   -1    0    0    0  501 -0.00000000000E+00  0.00000000000E+00  0.27172867482E+03  0.27172867483E+03  0.25500000000E-02 0. -1.
          2   -1    0    0  501    0  0.00000000000E+00 -0.00000000000E+00 -0.27032853256E+04  0.27032853256E+04  0.25500000000E-02 0.  1.
     200001    2    1    2    0    0  0.25176876507E+03  0.42343198115E+03 -0.12854408742E+04  0.15445373221E+04  0.70039641972E+03 0.  0.
    5000001    2    3    3    0    0  0.23263275709E+02  0.18617833399E+03 -0.60494480279E+03  0.63812739560E+03  0.77748354001E+02 0.  0.
        -13    1    4    4    0    0  0.10831147661E+02  0.15009311094E+02 -0.14700870644E+03  0.14816937644E+03  0.10566000000E+00 0. -1.
     200003    1    4    4    0    0  0.12432128049E+02  0.17116902290E+03 -0.45793609634E+03  0.48995801916E+03  0.30000000000E+02 0. -1.
     200000    1    3    3    0    0  0.22850548936E+03  0.23725364716E+03 -0.68049607139E+03  0.90640992654E+03  0.50000000000E+03 0. -1.
    -200001    1    1    2    0    0 -0.25176876507E+03 -0.42343198115E+03 -0.11461157766E+04  0.14304766783E+04  0.70000000000E+03 0. -1.
<mgrwt>
<rscale>  0 0.17141297E+04</rscale>
<asrwt>0</asrwt>
<pdfrwt beam="1">  1        2 0.38618360E+00 0.17141297E+04</pdfrwt>
<pdfrwt beam="2">  1       -2 0.38818384E-01 0.17141297E+04</pdfrwt>
<totfact> 0.20545609E+01</totfact>
</mgrwt>
</event>
<event>
 8    1  0.7623533E-028  0.2291820E+04  0.7818608E-02  0.8481153E-01
         -2   -1    0    0    0  501 -0.00000000000E+00  0.00000000000E+00  0.10159404329E+04  0.10159404329E+04  0.25500000000E-02 0. -1.
          2   -1    0    0  501    0  0.00000000000E+00 -0.00000000000E+00 -0.12925071334E+04  0.12925071334E+04  0.25500000000E-02 0.  1.
     200001    2    1    2    0    0  0.33234677948E+02 -0.70009794019E+03  0.44224433402E+03  0.10845476632E+04  0.69958695891E+03 0.  0.
    5000001    2    3    3    0    0 -0.78237658760E+02 -0.14403417658E+03  0.74000114141E+02  0.24357394391E+03  0.16427195130E+03 0.  0.
        -13    1    4    4    0    0 -0.23555417453E+02 -0.43710563974E+02  0.10949330342E+03  0.12022589468E+03  0.10566000000E+00 0. -1.
     200003    1    4    4    0    0 -0.54682241307E+02 -0.10032361261E+03 -0.35493189281E+02  0.12334804922E+03  0.30000000000E+02 0. -1.
     200000    1    3    3    0    0  0.11147233671E+03 -0.55606376361E+03  0.36824421988E+03  0.84097371928E+03  0.50000000000E+03 0. -1.
    -200001    1    1    2    0    0 -0.33234677948E+02  0.70009794019E+03 -0.71881103451E+03  0.12238999032E+04  0.70000000000E+03 0.  1.
<mgrwt>
<rscale>  0 0.22918205E+04</rscale>
<asrwt>0</asrwt>
<pdfrwt beam="1">  1        2 0.18464388E+00 0.22918205E+04</pdfrwt>
<pdfrwt beam="2">  1       -2 0.14513435E+00 0.22918205E+04</pdfrwt>
<totfact> 0.56504080E+00</totfact>
</mgrwt>
</event>
<event>
 8    1  0.7623533E-028  0.1630091E+04  0.7818608E-02  0.8802272E-01
         -2   -1    0    0    0  501 -0.00000000000E+00  0.00000000000E+00  0.38397900305E+03  0.38397900306E+03  0.25500000000E-02 0. -1.
          2   -1    0    0  501    0  0.00000000000E+00 -0.00000000000E+00 -0.17300406913E+04  0.17300406913E+04  0.25500000000E-02 0.  1.
     200001    2    1    2    0    0  0.24018532413E+03 -0.29917875562E+03 -0.45930363411E+03  0.92089909513E+03  0.69992742292E+03 0.  0.
    5000001    2    3    3    0    0 -0.52669540241E+02  0.43175315166E+02 -0.59723774683E+02  0.13818947756E+03  0.10436097996E+03 0.  0.
        -13    1    4    4    0    0 -0.81870758788E+01 -0.26674218590E+02  0.56914757821E+01  0.28477117295E+02  0.10566000000E+00 0. -1.
     200003    1    4    4    0    0 -0.44482464363E+02  0.69849533756E+02 -0.65415250466E+02  0.10971236027E+03  0.30000000000E+02 0. -1.
     200000    1    3    3    0    0  0.29285486437E+03 -0.34235407079E+03 -0.39957985942E+03  0.78270961756E+03  0.50000000000E+03 0.  1.
    -200001    1    1    2    0    0 -0.24018532413E+03  0.29917875562E+03 -0.88675805419E+03  0.11931205993E+04  0.70000000000E+03 0.  1.
<mgrwt>
<rscale>  0 0.16300912E+04</rscale>
<asrwt>0</asrwt>
<pdfrwt beam="1">  1        2 0.24714867E+00 0.16300912E+04</pdfrwt>
<pdfrwt beam="2">  1       -2 0.54854144E-01 0.16300912E+04</pdfrwt>
<totfact> 0.33158591E+01</totfact>
</mgrwt>
</event>
<event>
 8    1  0.7623533E-028  0.1468049E+04  0.7818608E-02  0.8905983E-01
         -2   -1    0    0    0  501 -0.00000000000E+00  0.00000000000E+00  0.78832929756E+03  0.78832929756E+03  0.25500000000E-02 0. -1.
          2   -1    0    0  501    0  0.00000000000E+00 -0.00000000000E+00 -0.68346018315E+03  0.68346018315E+03  0.25500000000E-02 0.  1.
     200001    2    1    2    0    0  0.98016467215E+02  0.16668462391E+03 -0.53431134463E+02  0.72851970433E+03  0.70035354056E+03 0.  0.
    5000001    2    3    3    0    0  0.35389402893E+02  0.36780799448E+02 -0.79347173177E+02  0.20749303145E+03  0.18480299555E+03 0.  0.
        -13    1    4    4    0    0 -0.21235248486E+02  0.63434817002E+02  0.33651906183E+02  0.74882399402E+02  0.10566000000E+00 0. -1.
     200003    1    4    4    0    0  0.56624651379E+02 -0.26654017555E+02 -0.11299907936E+03  0.13261063205E+03  0.30000000000E+02 0. -1.
     200000    1    3    3    0    0  0.62627064322E+02  0.12990382446E+03  0.25916038714E+02  0.52102667289E+03  0.50000000000E+03 0. -1.
    -200001    1    1    2    0    0 -0.98016467215E+02 -0.16668462391E+03  0.15830024887E+03  0.74326977638E+03  0.70000000000E+03 0. -1.
<mgrwt>
<rscale>  0 0.14680486E+04</rscale>
<asrwt>0</asrwt>
<pdfrwt beam="1">  1        2 0.97637169E-01 0.14680486E+04</pdfrwt>
<pdfrwt beam="2">  1       -2 0.11261847E+00 0.14680486E+04</pdfrwt>
<totfact> 0.27912822E+01</totfact>
</mgrwt>
</event>
<event>
 8    1  0.7623533E-028  0.1476819E+04  0.7818608E-02  0.8900016E-01
         -2   -1    0    0    0  501 -0.00000000000E+00  0.00000000000E+00  0.49620767436E+03  0.49620767436E+03  0.25500000000E-02 0.  1.
          2   -1    0    0  501    0  0.00000000000E+00 -0.00000000000E+00 -0.10988311300E+04  0.10988311300E+04  0.25500000000E-02 0. -1.
     200001    2    1    2    0    0  0.17422974751E+03  0.10003220266E+03 -0.16994188968E+03  0.74794035438E+03  0.70012290446E+03 0.  0.
    5000001    2    3    3    0    0  0.35228570240E+02 -0.60676567947E+01 -0.24511742045E+02  0.19864222467E+03  0.19385571775E+03 0.  0.
        -13    1    4    4    0    0 -0.21994794507E+02 -0.73679066611E+02 -0.61108645756E+02  0.98217379278E+02  0.10566000000E+00 0. -1.
     200003    1    4    4    0    0  0.57223364747E+02  0.67611409817E+02  0.36596903711E+02  0.10042484539E+03  0.30000000000E+02 0. -1.
     200000    1    3    3    0    0  0.13900117727E+03  0.10609985945E+03 -0.14543014764E+03  0.54929812971E+03  0.50000000000E+03 0.  1.
    -200001    1    1    2    0    0 -0.17422974751E+03 -0.10003220266E+03 -0.43268156600E+03  0.84709845003E+03  0.70000000000E+03 0. -1.
<mgrwt>
<rscale>  0 0.14768188E+04</rscale>
<asrwt>0</asrwt>
<pdfrwt beam="1">  1        2 0.15697588E+00 0.14768188E+04</pdfrwt>
<pdfrwt beam="2">  1       -2 0.70886811E-01 0.14768188E+04</pdfrwt>
<totfact> 0.42907938E+01</totfact>
</mgrwt>
</event>
<event>
 8    1  0.7623533E-028  0.1658531E+04  0.7818608E-02  0.8785375E-01
          2   -1    0    0  501    0  0.00000000000E+00  0.00000000000E+00  0.60209065004E+03  0.60209065005E+03  0.25500000000E-02 0.  1.
         -2   -1    0    0    0  501 -0.00000000000E+00 -0.00000000000E+00 -0.11421560552E+04  0.11421560552E+04  0.25500000000E-02 0. -1.
     200001    2    1    2    0    0 -0.92023723090E+02 -0.35214472037E+03 -0.61746457927E+01  0.79161161635E+03  0.70294847265E+03 0.  0.
    5000001    2    3    3    0    0  0.28563798199E+02 -0.10949429865E+03  0.12554713644E+03  0.20785549830E+03  0.12098319180E+03 0.  0.
        -13    1    4    4    0    0  0.62566912014E+01 -0.10905301708E+03  0.43285216583E+02  0.11749607593E+03  0.10566000000E+00 0. -1.
     200003    1    4    4    0    0  0.22307106998E+02 -0.44128156763E+00  0.82261919858E+02  0.90359422368E+02  0.30000000000E+02 0. -1.
     200000    1    3    3    0    0 -0.12058752129E+03 -0.24265042172E+03 -0.13172178223E+03  0.58375611805E+03  0.50000000000E+03 0.  1.
    -200001    1    1    2    0    0  0.92023723090E+02  0.35214472037E+03 -0.53389075940E+03  0.95263508893E+03  0.70000000000E+03 0. -1.
<mgrwt>
<rscale>  0 0.16585313E+04</rscale>
<asrwt>0</asrwt>
<pdfrwt beam="1">  1        2 0.86012950E-01 0.16585313E+04</pdfrwt>
<pdfrwt beam="2">  1       -2 0.16316515E+00 0.16585313E+04</pdfrwt>
<totfact> 0.12337843E+01</totfact>
</mgrwt>
</event>
<event>
 8    1  0.7623533E-028  0.1648523E+04  0.7818608E-02  0.8791281E-01
         -2   -1    0    0    0  501 -0.00000000000E+00  0.00000000000E+00  0.22117265518E+03  0.22117265520E+03  0.25500000000E-02 0. -1.
          2   -1    0    0  501    0  0.00000000000E+00 -0.00000000000E+00 -0.30718402733E+04  0.30718402733E+04  0.25500000000E-02 0.  1.
     200001    2    1    2    0    0  0.29647442417E+03 -0.16497253401E+03 -0.88201812440E+03  0.11762479793E+04  0.70035013801E+03 0.  0.
    5000001    2    3    3    0    0  0.42610857811E+02  0.13609262074E+02 -0.10619920443E+03  0.20247533394E+03  0.16648451163E+03 0.  0.
        -13    1    4    4    0    0  0.14474587216E+02  0.76097008600E+02 -0.63648675386E+01  0.77722526308E+02  0.10566000000E+00 0. -1.
     200003    1    4    4    0    0  0.28136270596E+02 -0.62487746526E+02 -0.99834336889E+02  0.12475280763E+03  0.30000000000E+02 0. -1.
     200000    1    3    3    0    0  0.25386356635E+03 -0.17858179609E+03 -0.77581891997E+03  0.97377264534E+03  0.50000000000E+03 0. -1.
    -200001    1    1    2    0    0 -0.29647442417E+03  0.16497253401E+03 -0.19686494937E+04  0.21167649492E+04  0.70000000000E+03 0.  1.
<mgrwt>
<rscale>  0 0.16485231E+04</rscale>
<asrwt>0</asrwt>
<pdfrwt beam="1">  1        2 0.43883430E+00 0.16485231E+04</pdfrwt>
<pdfrwt beam="2">  1       -2 0.31596095E-01 0.16485231E+04</pdfrwt>
<totfact> 0.19211412E+01</totfact>
</mgrwt>
</event>
<event>
 8    1  0.7623533E-028  0.1764172E+04  0.7818608E-02  0.8725588E-01
          2   -1    0    0  501    0  0.00000000000E+00  0.00000000000E+00  0.42913728329E+04  0.42913728329E+04  0.25500000000E-02 0.  1.
         -2   -1    0    0    0  501 -0.00000000000E+00 -0.00000000000E+00 -0.18131169611E+03  0.18131169613E+03  0.25500000000E-02 0. -1.
     200001    2    1    2    0    0  0.14494062010E+02  0.40294464990E+03  0.29541526567E+04  0.30624721751E+04  0.69938790073E+03 0.  0.
    5000001    2    3    3    0    0  0.23698104485E+02  0.99202231757E+02  0.90771236403E+03  0.93403095151E+03  0.19511381197E+03 0.  0.
        -13    1    4    4    0    0  0.72474675192E+02  0.51506842711E+02  0.78811205082E+03  0.79311168773E+03  0.10566000000E+00 0. -1.
     200003    1    4    4    0    0 -0.48776570707E+02  0.47695389046E+02  0.11960031321E+03  0.14091926379E+03  0.30000000000E+02 0. -1.
     200000    1    3    3    0    0 -0.92040424745E+01  0.30374241815E+03  0.20464402926E+04  0.21284412236E+04  0.50000000000E+03 0.  1.
    -200001    1    1    2    0    0 -0.14494062010E+02 -0.40294464990E+03  0.11559084801E+04  0.14102123539E+04  0.70000000000E+03 0.  1.
<mgrwt>
<rscale>  0 0.17641724E+04</rscale>
<asrwt>0</asrwt>
<pdfrwt beam="1">  1        2 0.61305333E+00 0.17641724E+04</pdfrwt>
<pdfrwt beam="2">  1       -2 0.25901668E-01 0.17641724E+04</pdfrwt>
<totfact> 0.45586961E+00</totfact>
</mgrwt>
</event>
<event>
 8    1  0.7623533E-028  0.2390537E+04  0.7818608E-02  0.8443055E-01
         -2   -1    0    0    0  501 -0.00000000000E+00  0.00000000000E+00  0.16956556825E+04  0.16956556825E+04  0.25500000000E-02 0. -1.
          2   -1    0    0  501    0  0.00000000000E+00 -0.00000000000E+00 -0.84254526807E+03  0.84254526808E+03  0.25500000000E-02 0.  1.
     200001    2    1    2    0    0 -0.56742949174E+03 -0.51282741972E+03  0.10578342582E+04  0.14813754954E+04  0.70035123335E+03 0.  0.
    5000001    2    3    3    0    0 -0.75903490811E+02 -0.21473156629E+03  0.27498307374E+03  0.38898594747E+03  0.15434827828E+03 0.  0.
        -13    1    4    4    0    0  0.32202830672E+02 -0.13048868533E+03  0.12376641475E+03  0.18270866396E+03  0.10566000000E+00 0. -1.
     200003    1    4    4    0    0 -0.10810632148E+03 -0.84242880964E+02  0.15121665900E+03  0.20627728352E+03  0.30000000000E+02 0. -1.
     200000    1    3    3    0    0 -0.49152600093E+03 -0.29809585343E+03  0.78285118443E+03  0.10923895479E+04  0.50000000000E+03 0. -1.
    -200001    1    1    2    0    0  0.56742949174E+03  0.51282741972E+03 -0.20472384376E+03  0.10568254552E+04  0.70000000000E+03 0.  1.
<mgrwt>
<rscale>  0 0.23905369E+04</rscale>
<asrwt>0</asrwt>
<pdfrwt beam="1">  1        2 0.12036361E+00 0.23905369E+04</pdfrwt>
<pdfrwt beam="2">  1       -2 0.24223652E+00 0.23905369E+04</pdfrwt>
<totfact> 0.23040622E+00</totfact>
</mgrwt>
</event>
<event>
 8    1  0.7623533E-028  0.1425211E+04  0.7818608E-02  0.8935769E-01
          2   -1    0    0  501    0  0.00000000000E+00  0.00000000000E+00  0.34401463381E+04  0.34401463381E+04  0.25500000000E-02 0.  1.
         -2   -1    0    0    0  501 -0.00000000000E+00 -0.00000000000E+00 -0.14761188388E+03  0.14761188390E+03  0.25500000000E-02 0. -1.
     200001    2    1    2    0    0 -0.59348241860E+02  0.10206127951E+03  0.18116790007E+04  0.19455427694E+04  0.69929760999E+03 0.  0.
    5000001    2    3    3    0    0  0.85863619912E+02  0.86488059115E+02  0.21946001452E+03  0.27028448782E+03  0.10019112131E+03 0.  0.
        -13    1    4    4    0    0  0.59174048840E+02  0.63957830384E+02  0.63897656256E+02  0.10805134781E+03  0.10566000000E+00 0. -1.
     200003    1    4    4    0    0  0.26689571073E+02  0.22530228730E+02  0.15556235826E+03  0.16223314002E+03  0.30000000000E+02 0. -1.
     200000    1    3    3    0    0 -0.14521186177E+03  0.15573220398E+02  0.15922189862E+04  0.16752582816E+04  0.50000000000E+03 0.  1.
    -200001    1    1    2    0    0  0.59348241860E+02 -0.10206127951E+03  0.14808554535E+04  0.16422154526E+04  0.70000000000E+03 0. -1.
<mgrwt>
<rscale>  0 0.14252108E+04</rscale>
<asrwt>0</asrwt>
<pdfrwt beam="1">  1        2 0.49144941E+00 0.14252108E+04</pdfrwt>
<pdfrwt beam="2">  1       -2 0.21087415E-01 0.14252108E+04</pdfrwt>
<totfact> 0.25044463E+01</totfact>
</mgrwt>
</event>
<event>
 8    1  0.7623533E-028  0.1577663E+04  0.7818608E-02  0.8834389E-01
          2   -1    0    0  501    0  0.00000000000E+00  0.00000000000E+00  0.78636745438E+03  0.78636745438E+03  0.25500000000E-02 0.  1.
         -2   -1    0    0    0  501 -0.00000000000E+00 -0.00000000000E+00 -0.79130327143E+03  0.79130327143E+03  0.25500000000E-02 0. -1.
     200001    2    1    2    0    0  0.34708245155E+03  0.50526360867E+02  0.93853579456E+02  0.78850757020E+03  0.69994039216E+03 0.  0.
    5000001    2    3    3    0    0  0.22308718800E+02  0.90708204645E+02 -0.90078264882E+02  0.16326883067E+03  0.99080572964E+02 0.  0.
        -13    1    4    4    0    0 -0.30843948223E+02  0.60853490991E+02 -0.45618427298E+02  0.82070387967E+02  0.10566000000E+00 0. -1.
     200003    1    4    4    0    0  0.53152667023E+02  0.29854713654E+02 -0.44459837584E+02  0.81198442700E+02  0.30000000000E+02 0. -1.
     200000    1    3    3    0    0  0.32477373275E+03 -0.40181843778E+02  0.18393184434E+03  0.62523873953E+03  0.50000000000E+03 0.  1.
    -200001    1    1    2    0    0 -0.34708245155E+03 -0.50526360867E+02 -0.98789396502E+02  0.78916315561E+03  0.70000000000E+03 0. -1.
<mgrwt>
<rscale>  0 0.15776630E+04</rscale>
<asrwt>0</asrwt>
<pdfrwt beam="1">  1        2 0.11233821E+00 0.15776630E+04</pdfrwt>
<pdfrwt beam="2">  1       -2 0.11304332E+00 0.15776630E+04</pdfrwt>
<totfact> 0.23006832E+01</totfact>
</mgrwt>
</event>
<event>
 8    1  0.7623533E-028  0.1517994E+04  0.7818608E-02  0.8872574E-01
         -2   -1    0    0    0  501 -0.00000000000E+00  0.00000000000E+00  0.20354657818E+04  0.20354657818E+04  0.25500000000E-02 0. -1.
          2   -1    0    0  501    0  0.00000000000E+00 -0.00000000000E+00 -0.28301958360E+03  0.28301958361E+03  0.25500000000E-02 0.  1.
     200001    2    1    2    0    0  0.50396164296E+02  0.61195100327E+02  0.44456615768E+03  0.83294343934E+03  0.69990791602E+03 0.  0.
    5000001    2    3    3    0    0  0.13020212929E+02  0.38022664956E+02  0.72632672627E+02  0.20822875182E+03  0.19096716722E+03 0.  0.
        -13    1    4    4    0    0 -0.58309142646E+02 -0.41350548365E+02  0.65816617293E+02  0.97168216213E+02  0.10566000000E+00 0. -1.
     200003    1    4    4    0    0  0.71329355575E+02  0.79373213321E+02  0.68160553341E+01  0.11106053561E+03  0.30000000000E+02 0. -1.
     200000    1    3    3    0    0  0.37375951367E+02  0.23172435370E+02  0.37193348505E+03  0.62471468752E+03  0.50000000000E+03 0.  1.
    -200001    1    1    2    0    0 -0.50396164296E+02 -0.61195100327E+02  0.13078800405E+04  0.14855419260E+04  0.70000000000E+03 0. -1.
<mgrwt>
<rscale>  0 0.15179943E+04</rscale>
<asrwt>0</asrwt>
<pdfrwt beam="1">  1        2 0.40431369E-01 0.15179943E+04</pdfrwt>
<pdfrwt beam="2">  1       -2 0.29078083E+00 0.15179943E+04</pdfrwt>
<totfact> 0.44667118E+00</totfact>
</mgrwt>
</event>
<event>
 8    1  0.7623533E-028  0.1543796E+04  0.7818608E-02  0.8855840E-01
         -2   -1    0    0    0  501 -0.00000000000E+00  0.00000000000E+00  0.26839790491E+03  0.26839790492E+03  0.25500000000E-02 0. -1.
          2   -1    0    0  501    0  0.00000000000E+00 -0.00000000000E+00 -0.22199384690E+04  0.22199384690E+04  0.25500000000E-02 0.  1.
     200001    2    1    2    0    0 -0.25983206498E+03  0.10515888558E+03 -0.71218349535E+03  0.10376203310E+04  0.70062795201E+03 0.  0.
    5000001    2    3    3    0    0 -0.98972272408E+02 -0.33396138536E+01 -0.22117363714E+03  0.31047627509E+03  0.19409038076E+03 0.  0.
        -13    1    4    4    0    0 -0.11677820115E+01  0.57924192083E+02 -0.17199344731E+03  0.18148920857E+03  0.10566000000E+00 0. -1.
     200003    1    4    4    0    0 -0.97804490396E+02 -0.61263805936E+02 -0.49180189824E+02  0.12898706652E+03  0.30000000000E+02 0. -1.
     200000    1    3    3    0    0 -0.16085979257E+03  0.10849849943E+03 -0.49100985822E+03  0.72714405595E+03  0.50000000000E+03 0. -1.
    -200001    1    1    2    0    0  0.25983206498E+03 -0.10515888558E+03 -0.12393570687E+04  0.14507160429E+04  0.70000000000E+03 0.  1.
<mgrwt>
<rscale>  0 0.15437964E+04</rscale>
<asrwt>0</asrwt>
<pdfrwt beam="1">  1        2 0.31713406E+00 0.15437964E+04</pdfrwt>
<pdfrwt beam="2">  1       -2 0.38342559E-01 0.15437964E+04</pdfrwt>
<totfact> 0.38281939E+01</totfact>
</mgrwt>
</event>
<event>
 8    1  0.7623533E-028  0.1978228E+04  0.7818608E-02  0.8616868E-01
          2   -1    0    0  501    0  0.00000000000E+00  0.00000000000E+00  0.10194479204E+04  0.10194479204E+04  0.25500000000E-02 0.  1.
         -2   -1    0    0    0  501 -0.00000000000E+00 -0.00000000000E+00 -0.95968307595E+03  0.95968307595E+03  0.25500000000E-02 0. -1.
     200001    2    1    2    0    0 -0.43339081944E+03 -0.48104680528E+03 -0.24260686034E+03  0.97879991164E+03  0.69278968460E+03 0.  0.
    5000001    2    3    3    0    0 -0.94396217628E+02 -0.16104277950E+03  0.70899172866E+02  0.22673212916E+03  0.10740271388E+03 0.  0.
        -13    1    4    4    0    0  0.66797897370E+00 -0.67740413815E+02  0.58722806364E+02  0.89652601808E+02  0.10566000000E+00 0. -1.
     200003    1    4    4    0    0 -0.95064196601E+02 -0.93302365689E+02  0.12176366502E+02  0.13707952736E+03  0.30000000000E+02 0. -1.
     200000    1    3    3    0    0 -0.33899460182E+03 -0.32000402578E+03 -0.31350603321E+03  0.75206778247E+03  0.50000000000E+03 0. -1.
    -200001    1    1    2    0    0  0.43339081944E+03  0.48104680528E+03  0.30237170484E+03  0.10003310848E+04  0.70000000000E+03 0. -1.
<mgrwt>
<rscale>  0 0.19782284E+04</rscale>
<asrwt>0</asrwt>
<pdfrwt beam="1">  1        2 0.14563542E+00 0.19782284E+04</pdfrwt>
<pdfrwt beam="2">  1       -2 0.13709758E+00 0.19782284E+04</pdfrwt>
<totfact> 0.96788668E+00</totfact>
</mgrwt>
</event>
<event>
 8    1  0.7623533E-028  0.2234886E+04  0.7818608E-02  0.8504046E-01
         -2   -1    0    0    0  501 -0.00000000000E+00  0.00000000000E+00  0.75031555161E+03  0.75031555161E+03  0.25500000000E-02 0. -1.
          2   -1    0    0  501    0  0.00000000000E+00 -0.00000000000E+00 -0.16642053414E+04  0.16642053414E+04  0.25500000000E-02 0.  1.
     200001    2    1    2    0    0 -0.58541821703E+03  0.44771667929E+03  0.44765915691E+02  0.10173145821E+04  0.69982873470E+03 0.  0.
    5000001    2    3    3    0    0 -0.18878495282E+03  0.90254902711E+02  0.88765010045E+01  0.28493154151E+03  0.19318769423E+03 0.  0.
        -13    1    4    4    0    0 -0.18181046802E+03  0.94898495733E+02 -0.56317123355E+02  0.21267910175E+03  0.10566000000E+00 0. -1.
     200003    1    4    4    0    0 -0.69744848016E+01 -0.46435930214E+01  0.65193624360E+02  0.72252439762E+02  0.30000000000E+02 0. -1.
     200000    1    3    3    0    0 -0.39663326422E+03  0.35746177658E+03  0.35889414687E+02  0.73238304055E+03  0.50000000000E+03 0. -1.
    -200001    1    1    2    0    0  0.58541821703E+03 -0.44771667929E+03 -0.95865570552E+03  0.13972063110E+04  0.70000000000E+03 0.  1.
<mgrwt>
<rscale>  0 0.22348863E+04</rscale>
<asrwt>0</asrwt>
<pdfrwt beam="1">  1        2 0.23774362E+00 0.22348863E+04</pdfrwt>
<pdfrwt beam="2">  1       -2 0.10718794E+00 0.22348863E+04</pdfrwt>
<totfact> 0.76734919E+00</totfact>
</mgrwt>
</event>
<event>
 8    1  0.7623533E-028  0.1727534E+04  0.7818608E-02  0.8745815E-01
         -2   -1    0    0    0  501 -0.00000000000E+00  0.00000000000E+00  0.49701770804E+03  0.49701770805E+03  0.25500000000E-02 0. -1.
          2   -1    0    0  501    0  0.00000000000E+00 -0.00000000000E+00 -0.15011401003E+04  0.15011401003E+04  0.25500000000E-02 0.  1.
     200001    2    1    2    0    0  0.15176159064E+03  0.48179226196E+03 -0.49624461687E+03  0.99661140463E+03  0.70129894338E+03 0.  0.
    5000001    2    3    3    0    0 -0.98567695164E+01  0.11648012047E+03 -0.84032295693E+02  0.23536738804E+03  0.18620313173E+03 0.  0.
        -13    1    4    4    0    0  0.62898725372E+01  0.93968139461E+02  0.41827299604E+02  0.10304905573E+03  0.10566000000E+00 0. -1.
     200003    1    4    4    0    0 -0.16146642054E+02  0.22511981012E+02 -0.12585959530E+03  0.13231833232E+03  0.30000000000E+02 0. -1.
     200000    1    3    3    0    0  0.16161836016E+03  0.36531214148E+03 -0.41221232117E+03  0.76124401658E+03  0.50000000000E+03 0.  1.
    -200001    1    1    2    0    0 -0.15176159064E+03 -0.48179226196E+03 -0.50787777540E+03  0.10015464037E+04  0.70000000000E+03 0.  1.
<mgrwt>
<rscale>  0 0.17275337E+04</rscale>
<asrwt>0</asrwt>
<pdfrwt beam="1">  1        2 0.21444858E+00 0.17275337E+04</pdfrwt>
<pdfrwt beam="2">  1       -2 0.71002530E-01 0.17275337E+04</pdfrwt>
<totfact> 0.25043148E+01</totfact>
</mgrwt>
</event>
<event>
 8    1  0.7623533E-028  0.1505117E+04  0.7818608E-02  0.8881058E-01
          2   -1    0    0  501    0  0.00000000000E+00  0.00000000000E+00  0.24380363308E+04  0.24380363308E+04  0.25500000000E-02 0.  1.
         -2   -1    0    0    0  501 -0.00000000000E+00 -0.00000000000E+00 -0.23229511679E+03  0.23229511680E+03  0.25500000000E-02 0. -1.
     200001    2    1    2    0    0  0.26615905877E+03  0.37418743872E+02  0.12175911834E+04  0.14298955202E+04  0.69988006250E+03 0.  0.
    5000001    2    3    3    0    0  0.71073428525E+02 -0.14914031171E+02  0.27872385454E+03  0.34718180751E+03  0.19384106844E+03 0.  0.
        -13    1    4    4    0    0  0.96615841530E+02 -0.59399542437E+02  0.26192851335E+03  0.28542859658E+03  0.10566000000E+00 0. -1.
     200003    1    4    4    0    0 -0.25542413006E+02  0.44485511266E+02  0.16795341186E+02  0.61753210931E+02  0.30000000000E+02 0. -1.
     200000    1    3    3    0    0  0.19508563024E+03  0.52332775044E+02  0.93886732889E+03  0.10827137127E+04  0.50000000000E+03 0.  1.
    -200001    1    1    2    0    0 -0.26615905877E+03 -0.37418743872E+02  0.98815003061E+03  0.12404359274E+04  0.70000000000E+03 0.  1.
<mgrwt>
<rscale>  0 0.15051165E+04</rscale>
<asrwt>0</asrwt>
<pdfrwt beam="1">  1        2 0.34829089E+00 0.15051165E+04</pdfrwt>
<pdfrwt beam="2">  1       -2 0.33185018E-01 0.15051165E+04</pdfrwt>
<totfact> 0.39026416E+01</totfact>
</mgrwt>
</event>
<event>
 8    1  0.7623533E-028  0.1775221E+04  0.7818608E-02  0.8719589E-01
          2   -1    0    0  501    0  0.00000000000E+00  0.00000000000E+00  0.17369387483E+04  0.17369387483E+04  0.25500000000E-02 0.  1.
         -2   -1    0    0    0  501 -0.00000000000E+00 -0.00000000000E+00 -0.45358685794E+03  0.45358685795E+03  0.25500000000E-02 0. -1.
     200001    2    1    2    0    0  0.12057905624E+03  0.45698171141E+03  0.30465118593E+03  0.89776628517E+03  0.69985738857E+03 0.  0.
    5000001    2    3    3    0    0  0.47696655685E+02  0.46307542948E+02  0.11113155095E+03  0.21849096097E+03  0.17597931387E+03 0.  0.
        -13    1    4    4    0    0 -0.14287070450E+02 -0.39356819120E+02 -0.20819292648E+02  0.46760386051E+02  0.10566000000E+00 0. -1.
     200003    1    4    4    0    0  0.61983726135E+02  0.85664362068E+02  0.13195084360E+03  0.17173057491E+03  0.30000000000E+02 0. -1.
     200000    1    3    3    0    0  0.72882400560E+02  0.41067416847E+03  0.19351963498E+03  0.67927532421E+03  0.50000000000E+03 0. -1.
    -200001    1    1    2    0    0 -0.12057905624E+03 -0.45698171141E+03  0.97870070438E+03  0.12927593210E+04  0.70000000000E+03 0.  1.
<mgrwt>
<rscale>  0 0.17752212E+04</rscale>
<asrwt>0</asrwt>
<pdfrwt beam="1">  1        2 0.24813410E+00 0.17752212E+04</pdfrwt>
<pdfrwt beam="2">  1       -2 0.64798125E-01 0.17752212E+04</pdfrwt>
<totfact> 0.22876577E+01</totfact>
</mgrwt>
</event>
<event>
 8    1  0.7623533E-028  0.1473375E+04  0.7818608E-02  0.8902354E-01
         -2   -1    0    0    0  501 -0.00000000000E+00  0.00000000000E+00  0.16870262255E+04  0.16870262255E+04  0.25500000000E-02 0.  1.
          2   -1    0    0  501    0  0.00000000000E+00 -0.00000000000E+00 -0.32169532105E+03  0.32169532106E+03  0.25500000000E-02 0. -1.
     200001    2    1    2    0    0 -0.71905282618E+02 -0.70802109059E+02  0.96264771665E+03  0.11948806174E+04  0.70061812358E+03 0.  0.
    5000001    2    3    3    0    0  0.10693062595E+03 -0.50732623093E+02  0.34293334758E+03  0.37852838598E+03  0.10803934607E+03 0.  0.
        -13    1    4    4    0    0  0.76145572886E+02  0.27701322207E+01  0.25970713261E+03  0.27065407404E+03  0.10566000000E+00 0. -1.
     200003    1    4    4    0    0  0.30785053069E+02 -0.53502755314E+02  0.83226214974E+02  0.10787431194E+03  0.30000000000E+02 0. -1.
     200000    1    3    3    0    0 -0.17883590857E+03 -0.20069485965E+02  0.61971436906E+03  0.81635223138E+03  0.50000000000E+03 0.  1.
    -200001    1    1    2    0    0  0.71905282618E+02  0.70802109059E+02  0.40268318784E+03  0.81384092923E+03  0.70000000000E+03 0. -1.
<mgrwt>
<rscale>  0 0.14733750E+04</rscale>
<asrwt>0</asrwt>
<pdfrwt beam="1">  1        2 0.45956474E-01 0.14733750E+04</pdfrwt>
<pdfrwt beam="2">  1       -2 0.24100375E+00 0.14733750E+04</pdfrwt>
<totfact> 0.78173326E+00</totfact>
</mgrwt>
</event>
<event>
 8    1  0.7623533E-028  0.1671248E+04  0.7818608E-02  0.8777935E-01
          2   -1    0    0  501    0  0.00000000000E+00  0.00000000000E+00  0.11221330435E+04  0.11221330435E+04  0.25500000000E-02 0.  1.
         -2   -1    0    0    0  501 -0.00000000000E+00 -0.00000000000E+00 -0.62226769689E+03  0.62226769690E+03  0.25500000000E-02 0. -1.
     200001    2    1    2    0    0  0.34285172588E+03  0.44120910041E+02 -0.60735529263E+02  0.78327259980E+03  0.70023795987E+03 0.  0.
    5000001    2    3    3    0    0  0.58184366487E+02  0.51867197012E+02 -0.20788124657E+02  0.20647861093E+03  0.19006747227E+03 0.  0.
        -13    1    4    4    0    0  0.65420685683E+02  0.11184085234E+03  0.14463411938E+02  0.13037424522E+03  0.10566000000E+00 0. -1.
     200003    1    4    4    0    0 -0.72363191953E+01 -0.59973655326E+02 -0.35251536596E+02  0.76104365716E+02  0.30000000000E+02 0. -1.
     200000    1    3    3    0    0  0.28466735939E+03 -0.77462869701E+01 -0.39947404605E+02  0.57679398887E+03  0.50000000000E+03 0. -1.
    -200001    1    1    2    0    0 -0.34285172588E+03 -0.44120910041E+02  0.56060087591E+03  0.96112814063E+03  0.70000000000E+03 0.  1.
<mgrwt>
<rscale>  0 0.16712476E+04</rscale>
<asrwt>0</asrwt>
<pdfrwt beam="1">  1        2 0.16030472E+00 0.16712476E+04</pdfrwt>
<pdfrwt beam="2">  1       -2 0.88895385E-01 0.16712476E+04</pdfrwt>
<totfact> 0.24653063E+01</totfact>
</mgrwt>
</event>
<event>
 8    1  0.7623533E-028  0.1856137E+04  0.7818608E-02  0.8677003E-01
          2   -1    0    0  501    0  0.00000000000E+00  0.00000000000E+00  0.82460244011E+03  0.82460244011E+03  0.25500000000E-02 0. -1.
         -2   -1    0    0    0  501 -0.00000000000E+00 -0.00000000000E+00 -0.10445165315E+04  0.10445165315E+04  0.25500000000E-02 0.  1.
     200001    2    1    2    0    0 -0.12172241944E+03  0.50754540380E+03  0.20720936859E+03  0.89708340932E+03  0.69957432523E+03 0.  0.
    5000001    2    3    3    0    0  0.90550612150E+02  0.13524495261E+03  0.14820245072E+02  0.21102142906E+03  0.13349079853E+03 0.  0.
        -13    1    4    4    0    0  0.11837856666E+03  0.86137137818E+02  0.14305358773E+02  0.14709774305E+03  0.10566000000E+00 0. -1.
     200003    1    4    4    0    0 -0.27827954511E+02  0.49107814788E+02  0.51488629950E+00  0.63923686013E+02  0.30000000000E+02 0. -1.
     200000    1    3    3    0    0 -0.21227303159E+03  0.37230045119E+03  0.19238912352E+03  0.68606198025E+03  0.50000000000E+03 0. -1.
    -200001    1    1    2    0    0  0.12172241944E+03 -0.50754540380E+03 -0.42712346000E+03  0.97203556231E+03  0.70000000000E+03 0.  1.
<mgrwt>
<rscale>  0 0.18561367E+04</rscale>
<asrwt>0</asrwt>
<pdfrwt beam="1">  1        2 0.11780035E+00 0.18561367E+04</pdfrwt>
<pdfrwt beam="2">  1       -2 0.14921665E+00 0.18561367E+04</pdfrwt>
<totfact> 0.10464811E+01</totfact>
</mgrwt>
</event>
<event>
 8    1  0.7623533E-028  0.1443988E+04  0.7818608E-02  0.8922579E-01
         -2   -1    0    0    0  501 -0.00000000000E+00  0.00000000000E+00  0.33785906085E+03  0.33785906086E+03  0.25500000000E-02 0. -1.
          2   -1    0    0  501    0  0.00000000000E+00 -0.00000000000E+00 -0.15428776516E+04  0.15428776516E+04  0.25500000000E-02 0.  1.
     200001    2    1    2    0    0  0.12433121424E+03 -0.84272842045E+02 -0.48306131594E+03  0.86398577473E+03  0.70040204257E+03 0.  0.
    5000001    2    3    3    0    0 -0.22941412439E+01  0.26393849677E+02 -0.18962350216E+03  0.26034113766E+03  0.17640446990E+03 0.  0.
        -13    1    4    4    0    0  0.37999160553E+02  0.89783734880E+02 -0.10246544864E+03  0.14143632695E+03  0.10566000000E+00 0. -1.
     200003    1    4    4    0    0 -0.40293301797E+02 -0.63389885203E+02 -0.87158053524E+02  0.11890481071E+03  0.30000000000E+02 0. -1.
     200000    1    3    3    0    0  0.12662535549E+03 -0.11066669172E+03 -0.29343781378E+03  0.60364463707E+03  0.50000000000E+03 0. -1.
    -200001    1    1    2    0    0 -0.12433121424E+03  0.84272842045E+02 -0.72195727479E+03  0.10167509377E+04  0.70000000000E+03 0.  1.
<mgrwt>
<rscale>  0 0.14439878E+04</rscale>
<asrwt>0</asrwt>
<pdfrwt beam="1">  1        2 0.22041109E+00 0.14439878E+04</pdfrwt>
<pdfrwt beam="2">  1       -2 0.48265581E-01 0.14439878E+04</pdfrwt>
<totfact> 0.54775165E+01</totfact>
</mgrwt>
</event>
<event>
 8    1  0.7623533E-028  0.1434204E+04  0.7818608E-02  0.8929425E-01
          2   -1    0    0  501    0  0.00000000000E+00  0.00000000000E+00  0.23716091718E+04  0.23716091718E+04  0.25500000000E-02 0.  1.
         -2   -1    0    0    0  501 -0.00000000000E+00 -0.00000000000E+00 -0.21682976956E+03  0.21682976958E+03  0.25500000000E-02 0. -1.
     200001    2    1    2    0    0  0.14532019233E+02  0.13484805652E+03  0.12297632370E+04  0.14205133942E+04  0.69795809755E+03 0.  0.
    5000001    2    3    3    0    0  0.31557848458E+01  0.18134733815E+02  0.25960770934E+03  0.32280980653E+03  0.19097429381E+03 0.  0.
        -13    1    4    4    0    0  0.35291510410E+02 -0.75114494334E+02  0.15569855180E+03  0.17643618723E+03  0.10566000000E+00 0. -1.
     200003    1    4    4    0    0 -0.32135725564E+02  0.93249228149E+02  0.10390915754E+03  0.14637361931E+03  0.30000000000E+02 0. -1.
     200000    1    3    3    0    0  0.11376234387E+02  0.11671332271E+03  0.97015552768E+03  0.10977035876E+04  0.50000000000E+03 0.  1.
    -200001    1    1    2    0    0 -0.14532019233E+02 -0.13484805652E+03  0.92501616520E+03  0.11679255472E+04  0.70000000000E+03 0.  1.
<mgrwt>
<rscale>  0 0.14342043E+04</rscale>
<asrwt>0</asrwt>
<pdfrwt beam="1">  1        2 0.33880128E+00 0.14342043E+04</pdfrwt>
<pdfrwt beam="2">  1       -2 0.30975684E-01 0.14342043E+04</pdfrwt>
<totfact> 0.48399997E+01</totfact>
</mgrwt>
</event>
<event>
 8    1  0.7623533E-028  0.1483395E+04  0.7818608E-02  0.8895571E-01
         -2   -1    0    0    0  501 -0.00000000000E+00  0.00000000000E+00  0.35760964792E+04  0.35760964792E+04  0.25500000000E-02 0. -1.
          2   -1    0    0  501    0  0.00000000000E+00 -0.00000000000E+00 -0.15383112429E+03  0.15383112431E+03  0.25500000000E-02 0.  1.
     200001    2    1    2    0    0 -0.17325028782E+03 -0.30731002917E+01  0.12846645803E+04  0.14739661282E+04  0.70156108586E+03 0.  0.
    5000001    2    3    3    0    0  0.39409279629E+01  0.56105553355E+02  0.14914653202E+03  0.21925497506E+03  0.15054797256E+03 0.  0.
        -13    1    4    4    0    0 -0.58807977030E+01  0.40306165090E+02  0.17229334271E+03  0.17704287004E+03  0.10566000000E+00 0. -1.
     200003    1    4    4    0    0  0.98217256659E+01  0.15799388265E+02 -0.23146810691E+02  0.42212105015E+02  0.30000000000E+02 0. -1.
     200000    1    3    3    0    0 -0.17719121578E+03 -0.59178653647E+02  0.11355180482E+04  0.12547111532E+04  0.50000000000E+03 0. -1.
    -200001    1    1    2    0    0  0.17325028782E+03  0.30731002917E+01  0.21376007746E+04  0.22559614753E+04  0.70000000000E+03 0. -1.
<mgrwt>
<rscale>  0 0.14833947E+04</rscale>
<asrwt>0</asrwt>
<pdfrwt beam="1">  1        2 0.21975875E-01 0.14833947E+04</pdfrwt>
<pdfrwt beam="2">  1       -2 0.51087092E+00 0.14833947E+04</pdfrwt>
<totfact> 0.34994510E-01</totfact>
</mgrwt>
</event>
<event>
 8    1  0.7623533E-028  0.1930479E+04  0.7818608E-02  0.8639832E-01
          2   -1    0    0  501    0  0.00000000000E+00  0.00000000000E+00  0.13005990477E+04  0.13005990477E+04  0.25500000000E-02 0.  1.
         -2   -1    0    0    0  501 -0.00000000000E+00 -0.00000000000E+00 -0.71635254354E+03  0.71635254355E+03  0.25500000000E-02 0. -1.
     200001    2    1    2    0    0  0.62475071336E+03 -0.16026680071E+03  0.45993226630E+03  0.10570281928E+04  0.69983713069E+03 0.  0.
    5000001    2    3    3    0    0  0.11526343258E+03 -0.61971294391E+02  0.17095007716E+03  0.28065843456E+03  0.18005312491E+03 0.  0.
        -13    1    4    4    0    0  0.15781575893E+03 -0.36673594818E+02  0.10578829408E+03  0.19349920065E+03  0.10566000000E+00 0. -1.
     200003    1    4    4    0    0 -0.42552326348E+02 -0.25297699573E+02  0.65161783079E+02  0.87159233908E+02  0.30000000000E+02 0. -1.
     200000    1    3    3    0    0  0.50948728078E+03 -0.98295506319E+02  0.28898218914E+03  0.77636975822E+03  0.50000000000E+03 0.  1.
    -200001    1    1    2    0    0 -0.62475071336E+03  0.16026680071E+03  0.12431423788E+03  0.95992339850E+03  0.70000000000E+03 0. -1.
<mgrwt>
<rscale>  0 0.19304791E+04</rscale>
<asrwt>0</asrwt>
<pdfrwt beam="1">  1        2 0.18579986E+00 0.19304791E+04</pdfrwt>
<pdfrwt beam="2">  1       -2 0.10233608E+00 0.19304791E+04</pdfrwt>
<totfact> 0.13754601E+01</totfact>
</mgrwt>
</event>
<event>
 8    1  0.7623533E-028  0.1799572E+04  0.7818608E-02  0.8706527E-01
          2   -1    0    0  501    0  0.00000000000E+00  0.00000000000E+00  0.18564024609E+04  0.18564024609E+04  0.25500000000E-02 0.  1.
         -2   -1    0    0    0  501 -0.00000000000E+00 -0.00000000000E+00 -0.43612008696E+03  0.43612008697E+03  0.25500000000E-02 0. -1.
     200001    2    1    2    0    0 -0.81644430635E+02 -0.38655718443E+03  0.19488061695E+03  0.82701862910E+03  0.69992077276E+03 0.  0.
    5000001    2    3    3    0    0 -0.62345381798E+02 -0.72908550808E+02 -0.18381870935E+02  0.19914220225E+03  0.17354284810E+03 0.  0.
        -13    1    4    4    0    0  0.48821198239E+02  0.14034165492E+02  0.10814134919E+02  0.51936729552E+02  0.10566000000E+00 0. -1.
     200003    1    4    4    0    0 -0.11116658004E+03 -0.86942716300E+02 -0.29196005854E+02  0.14720547270E+03  0.30000000000E+02 0. -1.
     200000    1    3    3    0    0 -0.19299048836E+02 -0.31364863362E+03  0.21326248788E+03  0.62787642685E+03  0.50000000000E+03 0. -1.
    -200001    1    1    2    0    0  0.81644430635E+02  0.38655718443E+03  0.12254017570E+04  0.14655039188E+04  0.70000000000E+03 0.  1.
<mgrwt>
<rscale>  0 0.17995715E+04</rscale>
<asrwt>0</asrwt>
<pdfrwt beam="1">  1        2 0.26520035E+00 0.17995715E+04</pdfrwt>
<pdfrwt beam="2">  1       -2 0.62302869E-01 0.17995715E+04</pdfrwt>
<totfact> 0.21537887E+01</totfact>
</mgrwt>
</event>
<event>
 8    1  0.7623533E-028  0.1681899E+04  0.7818608E-02  0.8771756E-01
         -2   -1    0    0    0  501 -0.00000000000E+00  0.00000000000E+00  0.42661055297E+03  0.42661055298E+03  0.25500000000E-02 0. -1.
          2   -1    0    0  501    0  0.00000000000E+00 -0.00000000000E+00 -0.16577081887E+04  0.16577081887E+04  0.25500000000E-02 0.  1.
     200001    2    1    2    0    0 -0.30705628984E+03 -0.28688703844E+03 -0.36577548907E+03  0.89462543858E+03  0.69998230619E+03 0.  0.
    5000001    2    3    3    0    0 -0.11196434187E+03 -0.18060445076E+03 -0.45219248334E+02  0.26050150740E+03  0.14374377711E+03 0.  0.
        -13    1    4    4    0    0 -0.12828018223E+02 -0.34364896948E+02  0.46470435524E+02  0.59203181803E+02  0.10566000000E+00 0. -1.
     200003    1    4    4    0    0 -0.99136323646E+02 -0.14623955381E+03 -0.91689683858E+02  0.20129832560E+03  0.30000000000E+02 0. -1.
     200000    1    3    3    0    0 -0.19509194797E+03 -0.10628258769E+03 -0.32055624074E+03  0.63412393117E+03  0.50000000000E+03 0. -1.
    -200001    1    1    2    0    0  0.30705628984E+03  0.28688703844E+03 -0.86532214664E+03  0.11896933031E+04  0.70000000000E+03 0. -1.
<mgrwt>
<rscale>  0 0.16818987E+04</rscale>
<asrwt>0</asrwt>
<pdfrwt beam="1">  1        2 0.23681545E+00 0.16818987E+04</pdfrwt>
<pdfrwt beam="2">  1       -2 0.60944366E-01 0.16818987E+04</pdfrwt>
<totfact> 0.28881236E+01</totfact>
</mgrwt>
</event>
<event>
 8    1  0.7623533E-028  0.1612458E+04  0.7818608E-02  0.8812931E-01
         -2   -1    0    0    0  501 -0.00000000000E+00  0.00000000000E+00  0.14801942903E+04  0.14801942903E+04  0.25500000000E-02 0. -1.
          2   -1    0    0  501    0  0.00000000000E+00 -0.00000000000E+00 -0.43913516528E+03  0.43913516528E+03  0.25500000000E-02 0.  1.
     200001    2    1    2    0    0 -0.28456637300E+03 -0.27431880495E+03  0.60227394278E+03  0.10034903520E+04  0.69859155240E+03 0.  0.
    5000001    2    3    3    0    0 -0.66208466931E+02 -0.15377238692E+03  0.57877003588E+02  0.22337520577E+03  0.13607801782E+03 0.  0.
        -13    1    4    4    0    0 -0.56787022424E+02 -0.19882993510E+02 -0.22313930601E+02  0.64171816319E+02  0.10566000000E+00 0. -1.
     200003    1    4    4    0    0 -0.94214445073E+01 -0.13388939341E+03  0.80190934189E+02  0.15920338945E+03  0.30000000000E+02 0. -1.
     200000    1    3    3    0    0 -0.21835790606E+03 -0.12054641802E+03  0.54439693919E+03  0.78011514627E+03  0.50000000000E+03 0. -1.
    -200001    1    1    2    0    0  0.28456637300E+03  0.27431880495E+03  0.43878518220E+03  0.91583910350E+03  0.70000000000E+03 0.  1.
<mgrwt>
<rscale>  0 0.16124582E+04</rscale>
<asrwt>0</asrwt>
<pdfrwt beam="1">  1        2 0.62733596E-01 0.16124582E+04</pdfrwt>
<pdfrwt beam="2">  1       -2 0.21145632E+00 0.16124582E+04</pdfrwt>
<totfact> 0.83701749E+00</totfact>
</mgrwt>
</event>
<event>
 8    1  0.7623533E-028  0.2184122E+04  0.7818608E-02  0.8525066E-01
         -2   -1    0    0    0  501 -0.00000000000E+00  0.00000000000E+00  0.95378516179E+03  0.95378516179E+03  0.25500000000E-02 0. -1.
          2   -1    0    0  501    0  0.00000000000E+00 -0.00000000000E+00 -0.12503834892E+04  0.12503834892E+04  0.25500000000E-02 0.  1.
     200001    2    1    2    0    0  0.14577258807E+03 -0.19201105771E+03 -0.95835112941E+03  0.12111758693E+04  0.70028009062E+03 0.  0.
    5000001    2    3    3    0    0 -0.53043274500E+02 -0.20591492394E+02 -0.32446572398E+03  0.36222173516E+03  0.15062861898E+03 0.  0.
        -13    1    4    4    0    0  0.35414406419E+02  0.34080507928E+02 -0.68441598622E+02  0.84261051434E+02  0.10566000000E+00 0. -1.
     200003    1    4    4    0    0 -0.88457680920E+02 -0.54672000323E+02 -0.25602412536E+03  0.27796068373E+03  0.30000000000E+02 0. -1.
     200000    1    3    3    0    0  0.19881586257E+03 -0.17141956532E+03 -0.63388540543E+03  0.84895413409E+03  0.50000000000E+03 0.  1.
    -200001    1    1    2    0    0 -0.14577258807E+03  0.19201105771E+03  0.66175280197E+03  0.99299278176E+03  0.70000000000E+03 0. -1.
<mgrwt>
<rscale>  0 0.21841220E+04</rscale>
<asrwt>0</asrwt>
<pdfrwt beam="1">  1        2 0.17862621E+00 0.21841220E+04</pdfrwt>
<pdfrwt beam="2">  1       -2 0.13625502E+00 0.21841220E+04</pdfrwt>
<totfact> 0.70903175E+00</totfact>
</mgrwt>
</event>
<event>
 8    1  0.7623533E-028  0.2036868E+04  0.7818608E-02  0.8589575E-01
         -2   -1    0    0    0  501 -0.00000000000E+00  0.00000000000E+00  0.44338497320E+03  0.44338497321E+03  0.25500000000E-02 0. -1.
          2   -1    0    0  501    0  0.00000000000E+00 -0.00000000000E+00 -0.23392938901E+04  0.23392938901E+04  0.25500000000E-02 0.  1.
     200001    2    1    2    0    0 -0.15119819157E+03 -0.44372245030E+03 -0.16536225410E+03  0.85796011551E+03  0.69928562025E+03 0.  0.
    5000001    2    3    3    0    0 -0.65424146414E+02 -0.18611885382E+03 -0.67279968250E+02  0.28060672759E+03  0.18786429880E+03 0.  0.
        -13    1    4    4    0    0 -0.97790218097E+02 -0.15531408231E+03  0.12955950288E+02  0.18399255075E+03  0.10566000000E+00 0. -1.
     200003    1    4    4    0    0  0.32366071683E+02 -0.30804771513E+02 -0.80235918538E+02  0.96614176847E+02  0.30000000000E+02 0. -1.
     200000    1    3    3    0    0 -0.85774045157E+02 -0.25760359648E+03 -0.98082285847E+02  0.57735338792E+03  0.50000000000E+03 0. -1.
    -200001    1    1    2    0    0  0.15119819157E+03  0.44372245030E+03 -0.17305466628E+04  0.19247187478E+04  0.70000000000E+03 0.  1.
<mgrwt>
<rscale>  0 0.20368679E+04</rscale>
<asrwt>0</asrwt>
<pdfrwt beam="1">  1        2 0.33418483E+00 0.20368679E+04</pdfrwt>
<pdfrwt beam="2">  1       -2 0.63340712E-01 0.20368679E+04</pdfrwt>
<totfact> 0.11486529E+01</totfact>
</mgrwt>
</event>
<event>
 8    1  0.7623533E-028  0.1467078E+04  0.7818608E-02  0.8906646E-01
          2   -1    0    0  501    0  0.00000000000E+00  0.00000000000E+00  0.21675842989E+04  0.21675842989E+04  0.25500000000E-02 0.  1.
         -2   -1    0    0    0  501 -0.00000000000E+00 -0.00000000000E+00 -0.24823914536E+03  0.24823914537E+03  0.25500000000E-02 0. -1.
     200001    2    1    2    0    0  0.10193404831E+03 -0.49364492340E+01  0.63770124059E+03  0.95191564719E+03  0.69933225893E+03 0.  0.
    5000001    2    3    3    0    0  0.18182362905E+02  0.15265135161E+02  0.20501473974E+03  0.28510228737E+03  0.19669430109E+03 0.  0.
        -13    1    4    4    0    0  0.39382817946E+01 -0.27841719101E+02  0.22528536014E+03  0.22703342495E+03  0.10566000000E+00 0. -1.
     200003    1    4    4    0    0  0.14244081110E+02  0.43106854262E+02 -0.20270620403E+02  0.58068862419E+02  0.30000000000E+02 0. -1.
     200000    1    3    3    0    0  0.83751685403E+02 -0.20201584395E+02  0.43268650085E+03  0.66681335982E+03  0.50000000000E+03 0. -1.
    -200001    1    1    2    0    0 -0.10193404831E+03  0.49364492340E+01  0.12816439130E+04  0.14639077971E+04  0.70000000000E+03 0.  1.
<mgrwt>
<rscale>  0 0.14670777E+04</rscale>
<asrwt>0</asrwt>
<pdfrwt beam="1">  1        2 0.30965490E+00 0.14670777E+04</pdfrwt>
<pdfrwt beam="2">  1       -2 0.35462736E-01 0.14670777E+04</pdfrwt>
<totfact> 0.47642450E+01</totfact>
</mgrwt>
</event>
<event>
 8    1  0.7623533E-028  0.1920355E+04  0.7818608E-02  0.8644790E-01
         -2   -1    0    0    0  501 -0.00000000000E+00  0.00000000000E+00  0.36271716469E+03  0.36271716470E+03  0.25500000000E-02 0. -1.
          2   -1    0    0  501    0  0.00000000000E+00 -0.00000000000E+00 -0.25417635024E+04  0.25417635024E+04  0.25500000000E-02 0.  1.
     200001    2    1    2    0    0  0.47278687253E+03 -0.38282752981E+03 -0.14659063565E+04  0.17345862371E+04  0.69987400554E+03 0.  0.
    5000001    2    3    3    0    0  0.25233495631E+03 -0.12988545056E+03 -0.49386967215E+03  0.59115540909E+03  0.15815911033E+03 0.  0.
        -13    1    4    4    0    0  0.93991197960E+02 -0.41157930920E+02 -0.32720734174E+03  0.34291832296E+03  0.10566000000E+00 0. -1.
     200003    1    4    4    0    0  0.15834375835E+03 -0.88727519636E+02 -0.16666233041E+03  0.24823708612E+03  0.30000000000E+02 0. -1.
     200000    1    3    3    0    0  0.22045191622E+03 -0.25294207926E+03 -0.97203668434E+03  0.11434308280E+04  0.50000000000E+03 0.  1.
    -200001    1    1    2    0    0 -0.47278687253E+03  0.38282752981E+03 -0.71313998119E+03  0.11698944299E+04  0.70000000000E+03 0. -1.
<mgrwt>
<rscale>  0 0.19203554E+04</rscale>
<asrwt>0</asrwt>
<pdfrwt beam="1">  1        2 0.36310906E+00 0.19203554E+04</pdfrwt>
<pdfrwt beam="2">  1       -2 0.51816739E-01 0.19203554E+04</pdfrwt>
<totfact> 0.13826796E+01</totfact>
</mgrwt>
</event>
<event>
 8    1  0.7623533E-028  0.1725395E+04  0.7818608E-02  0.8747012E-01
          2   -1    0    0  501    0  0.00000000000E+00  0.00000000000E+00  0.17947761791E+04  0.17947761791E+04  0.25500000000E-02 0.  1.
         -2   -1    0    0    0  501 -0.00000000000E+00 -0.00000000000E+00 -0.41467406134E+03  0.41467406135E+03  0.25500000000E-02 0. -1.
     200001    2    1    2    0    0  0.58153651713E+01  0.49069785769E+03  0.83330444309E+03  0.11946567132E+04  0.70142010335E+03 0.  0.
    5000001    2    3    3    0    0  0.51261650652E+02  0.12382047988E+03  0.26323651249E+03  0.35106805704E+03  0.18972625306E+03 0.  0.
        -13    1    4    4    0    0  0.81514031111E+02 -0.18612913922E+02  0.95397507063E+02  0.12685295957E+03  0.10566000000E+00 0. -1.
     200003    1    4    4    0    0 -0.30252380458E+02  0.14243339380E+03  0.16783900543E+03  0.22421509748E+03  0.30000000000E+02 0. -1.
     200000    1    3    3    0    0 -0.45446285481E+02  0.36687737781E+03  0.57006793060E+03  0.84358865611E+03  0.50000000000E+03 0.  1.
    -200001    1    1    2    0    0 -0.58153651713E+01 -0.49069785769E+03  0.54679767464E+03  0.10147935273E+04  0.70000000000E+03 0. -1.
<mgrwt>
<rscale>  0 0.17253952E+04</rscale>
<asrwt>0</asrwt>
<pdfrwt beam="1">  1        2 0.25639660E+00 0.17253952E+04</pdfrwt>
<pdfrwt beam="2">  1       -2 0.59239151E-01 0.17253952E+04</pdfrwt>
<totfact> 0.25940277E+01</totfact>
</mgrwt>
</event>
<event>
 8    1  0.7623533E-028  0.1910773E+04  0.7818608E-02  0.8649512E-01
          2   -1    0    0  501    0  0.00000000000E+00  0.00000000000E+00  0.32724765205E+04  0.32724765205E+04  0.25500000000E-02 0.  1.
         -2   -1    0    0    0  501 -0.00000000000E+00 -0.00000000000E+00 -0.27892131663E+03  0.27892131664E+03  0.25500000000E-02 0. -1.
     200001    2    1    2    0    0 -0.24634839333E+03  0.59788876231E+03  0.13743652986E+04  0.16725858582E+04  0.70036060424E+03 0.  0.
    5000001    2    3    3    0    0 -0.81409716983E+02  0.13064615151E+03  0.41094278393E+03  0.47939544333E+03  0.19300274738E+03 0.  0.
        -13    1    4    4    0    0 -0.10237645802E+03  0.14115307759E+03  0.20129324427E+03  0.26631581220E+03  0.10566000000E+00 0. -1.
     200003    1    4    4    0    0  0.20966741041E+02 -0.10506926086E+02  0.20964953966E+03  0.21307963113E+03  0.30000000000E+02 0. -1.
     200000    1    3    3    0    0 -0.16493867635E+03  0.46724261080E+03  0.96342251472E+03  0.11931904149E+04  0.50000000000E+03 0.  1.
    -200001    1    1    2    0    0  0.24634839333E+03 -0.59788876231E+03  0.16191899052E+04  0.18788119789E+04  0.70000000000E+03 0. -1.
<mgrwt>
<rscale>  0 0.19107731E+04</rscale>
<asrwt>0</asrwt>
<pdfrwt beam="1">  1        2 0.46749663E+00 0.19107731E+04</pdfrwt>
<pdfrwt beam="2">  1       -2 0.39845904E-01 0.19107731E+04</pdfrwt>
<totfact> 0.92323113E+00</totfact>
</mgrwt>
</event>
<event>
 8    1  0.7623533E-028  0.1465833E+04  0.7818608E-02  0.8907497E-01
         -2   -1    0    0    0  501 -0.00000000000E+00  0.00000000000E+00  0.46749387924E+03  0.46749387925E+03  0.25500000000E-02 0. -1.
          2   -1    0    0  501    0  0.00000000000E+00 -0.00000000000E+00 -0.11490344892E+04  0.11490344892E+04  0.25500000000E-02 0.  1.
     200001    2    1    2    0    0  0.14719625908E+03 -0.89958475306E+02 -0.19295383237E+03  0.74562291709E+03  0.69925895568E+03 0.  0.
    5000001    2    3    3    0    0  0.64506532389E+02  0.55645317079E+02  0.75984078280E+02  0.15370598454E+03  0.10292937140E+03 0.  0.
        -13    1    4    4    0    0 -0.18431972755E+02  0.90233797706E+01 -0.92318386593E+01  0.22503266679E+02  0.10566000000E+00 0. -1.
     200003    1    4    4    0    0  0.82938505144E+02  0.46621937309E+02  0.85215916939E+02  0.13120271786E+03  0.30000000000E+02 0. -1.
     200000    1    3    3    0    0  0.82689726690E+02 -0.14560379239E+03 -0.26893791065E+03  0.59191693255E+03  0.50000000000E+03 0.  1.
    -200001    1    1    2    0    0 -0.14719625908E+03  0.89958475306E+02 -0.48858677756E+03  0.87090545134E+03  0.70000000000E+03 0.  1.
<mgrwt>
<rscale>  0 0.14658330E+04</rscale>
<asrwt>0</asrwt>
<pdfrwt beam="1">  1        2 0.16414778E+00 0.14658330E+04</pdfrwt>
<pdfrwt beam="2">  1       -2 0.66784840E-01 0.14658330E+04</pdfrwt>
<totfact> 0.45684204E+01</totfact>
</mgrwt>
</event>
<event>
 8    1  0.7623533E-028  0.1640016E+04  0.7818608E-02  0.8796335E-01
         -2   -1    0    0    0  501 -0.00000000000E+00  0.00000000000E+00  0.10109519663E+04  0.10109519663E+04  0.25500000000E-02 0. -1.
          2   -1    0    0  501    0  0.00000000000E+00 -0.00000000000E+00 -0.66512836260E+03  0.66512836261E+03  0.25500000000E-02 0.  1.
     200001    2    1    2    0    0  0.42266883660E+03 -0.37390541349E+02  0.11077367264E+03  0.82443752345E+03  0.69812565166E+03 0.  0.
    5000001    2    3    3    0    0  0.18061966359E+03 -0.39049216428E+02  0.29563027110E+02  0.26302348523E+03  0.18482174394E+03 0.  0.
        -13    1    4    4    0    0  0.16024270255E+03 -0.10085213808E+03  0.15257271017E+02  0.18995176483E+03  0.10566000000E+00 0. -1.
     200003    1    4    4    0    0  0.20376961039E+02  0.61802921652E+02  0.14305756092E+02  0.73071720407E+02  0.30000000000E+02 0. -1.
     200000    1    3    3    0    0  0.24204917300E+03  0.16586750796E+01  0.81210645530E+02  0.56141403821E+03  0.50000000000E+03 0. -1.
    -200001    1    1    2    0    0 -0.42266883660E+03  0.37390541349E+02  0.23504993106E+03  0.85164280547E+03  0.70000000000E+03 0. -1.
<mgrwt>
<rscale>  0 0.16400156E+04</rscale>
<asrwt>0</asrwt>
<pdfrwt beam="1">  1        2 0.95018339E-01 0.16400156E+04</pdfrwt>
<pdfrwt beam="2">  1       -2 0.14442171E+00 0.16400156E+04</pdfrwt>
<totfact> 0.15202483E+01</totfact>
</mgrwt>
</event>
<event>
 8    1  0.7623533E-028  0.1662502E+04  0.7818608E-02  0.8783045E-01
          2   -1    0    0  501    0  0.00000000000E+00  0.00000000000E+00  0.11792933110E+04  0.11792933111E+04  0.25500000000E-02 0.  1.
         -2   -1    0    0    0  501 -0.00000000000E+00 -0.00000000000E+00 -0.58592548251E+03  0.58592548252E+03  0.25500000000E-02 0. -1.
     200001    2    1    2    0    0 -0.91545861462E+02  0.43839149875E+03  0.32544078550E+03  0.89209070943E+03  0.69953297138E+03 0.  0.
    5000001    2    3    3    0    0  0.39175426932E+01  0.19571918717E+03  0.74101793943E+02  0.27469747897E+03  0.17789401822E+03 0.  0.
        -13    1    4    4    0    0  0.31725087308E+01  0.20350876998E+03  0.10661921484E+03  0.22976847566E+03  0.10566000000E+00 0. -1.
     200003    1    4    4    0    0  0.74503396235E+00 -0.77895828146E+01 -0.32517420896E+02  0.44929003302E+02  0.30000000000E+02 0. -1.
     200000    1    3    3    0    0 -0.95463404156E+02  0.24267231158E+03  0.25133899156E+03  0.61739323046E+03  0.50000000000E+03 0.  1.
    -200001    1    1    2    0    0  0.91545861462E+02 -0.43839149875E+03  0.26792704304E+03  0.87312808414E+03  0.70000000000E+03 0. -1.
<mgrwt>
<rscale>  0 0.16625017E+04</rscale>
<asrwt>0</asrwt>
<pdfrwt beam="1">  1        2 0.16847047E+00 0.16625017E+04</pdfrwt>
<pdfrwt beam="2">  1       -2 0.83703642E-01 0.16625017E+04</pdfrwt>
<totfact> 0.26223688E+01</totfact>
</mgrwt>
</event>
<event>
 8    1  0.7623533E-028  0.1561126E+04  0.7818608E-02  0.8844792E-01
         -2   -1    0    0    0  501 -0.00000000000E+00  0.00000000000E+00  0.81771711791E+03  0.81771711791E+03  0.25500000000E-02 0. -1.
          2   -1    0    0  501    0  0.00000000000E+00 -0.00000000000E+00 -0.74509685771E+03  0.74509685772E+03  0.25500000000E-02 0.  1.
     200001    2    1    2    0    0  0.70562968231E+02 -0.22648488247E+03  0.28896815087E+03  0.79269648831E+03  0.69899255783E+03 0.  0.
    5000001    2    3    3    0    0 -0.83644036559E+02  0.60034143400E+01  0.85624142822E+00  0.15172918740E+03  0.12644622305E+03 0.  0.
        -13    1    4    4    0    0 -0.10165587846E+03  0.19124594380E+02 -0.24835316131E+02  0.10637890687E+03  0.10566000000E+00 0. -1.
     200003    1    4    4    0    0  0.18011841902E+02 -0.13121180040E+02  0.25691557559E+02  0.45350280530E+02  0.30000000000E+02 0. -1.
     200000    1    3    3    0    0  0.15420700479E+03 -0.23248829681E+03  0.28811190944E+03  0.64096730091E+03  0.50000000000E+03 0. -1.
    -200001    1    1    2    0    0 -0.70562968231E+02  0.22648488247E+03 -0.21634789067E+03  0.77011748732E+03  0.70000000000E+03 0.  1.
<mgrwt>
<rscale>  0 0.15611258E+04</rscale>
<asrwt>0</asrwt>
<pdfrwt beam="1">  1        2 0.10644241E+00 0.15611258E+04</pdfrwt>
<pdfrwt beam="2">  1       -2 0.11681673E+00 0.15611258E+04</pdfrwt>
<totfact> 0.22768931E+01</totfact>
</mgrwt>
</event>
<event>
 8    1  0.7623533E-028  0.1692996E+04  0.7818608E-02  0.8765369E-01
          2   -1    0    0  501    0  0.00000000000E+00  0.00000000000E+00  0.79291963646E+03  0.79291963647E+03  0.25500000000E-02 0.  1.
         -2   -1    0    0    0  501 -0.00000000000E+00 -0.00000000000E+00 -0.90369638639E+03  0.90369638639E+03  0.25500000000E-02 0. -1.
     200001    2    1    2    0    0  0.44059688202E+03  0.24540178498E+01  0.12937532035E+03  0.83533520250E+03  0.69779315873E+03 0.  0.
    5000001    2    3    3    0    0  0.11086620374E+03 -0.32464339562E+02  0.14728944305E+02  0.22452802882E+03  0.19196521938E+03 0.  0.
        -13    1    4    4    0    0  0.99843491256E+02  0.25505106068E+01  0.90742469248E+02  0.13494233857E+03  0.10566000000E+00 0. -1.
     200003    1    4    4    0    0  0.11022712487E+02 -0.35014850169E+02 -0.76013524942E+02  0.89585690247E+02  0.30000000000E+02 0. -1.
     200000    1    3    3    0    0  0.32973067828E+03  0.34918357412E+02  0.11464637604E+03  0.61080717368E+03  0.50000000000E+03 0.  1.
    -200001    1    1    2    0    0 -0.44059688202E+03 -0.24540178498E+01 -0.24015207028E+03  0.86128082035E+03  0.70000000000E+03 0. -1.
<mgrwt>
<rscale>  0 0.16929957E+04</rscale>
<asrwt>0</asrwt>
<pdfrwt beam="1">  1        2 0.11327424E+00 0.16929957E+04</pdfrwt>
<pdfrwt beam="2">  1       -2 0.12909948E+00 0.16929957E+04</pdfrwt>
<totfact> 0.16222285E+01</totfact>
</mgrwt>
</event>
<event>
 8    1  0.7623533E-028  0.1527138E+04  0.7818608E-02  0.8866605E-01
          2   -1    0    0  501    0  0.00000000000E+00  0.00000000000E+00  0.26629702240E+04  0.26629702240E+04  0.25500000000E-02 0.  1.
         -2   -1    0    0    0  501 -0.00000000000E+00 -0.00000000000E+00 -0.21894251250E+03  0.21894251252E+03  0.25500000000E-02 0. -1.
     200001    2    1    2    0    0  0.14390776464E+03  0.26365794957E+03  0.11218954902E+04  0.13560495154E+04  0.69999702720E+03 0.  0.
    5000001    2    3    3    0    0  0.11237701784E+03  0.69058142586E+02  0.36164355012E+03  0.42500371344E+03  0.18012350735E+03 0.  0.
        -13    1    4    4    0    0  0.80000455517E+02  0.87048076487E+02  0.88366619345E+02  0.14760118930E+03  0.10566000000E+00 0. -1.
     200003    1    4    4    0    0  0.32376562319E+02 -0.17989933901E+02  0.27327693078E+03  0.27740252415E+03  0.30000000000E+02 0. -1.
     200000    1    3    3    0    0  0.31530746808E+02  0.19459980699E+03  0.76025194008E+03  0.93104580191E+03  0.50000000000E+03 0. -1.
    -200001    1    1    2    0    0 -0.14390776464E+03 -0.26365794957E+03  0.13221322213E+04  0.15258632212E+04  0.70000000000E+03 0. -1.
<mgrwt>
<rscale>  0 0.15271377E+04</rscale>
<asrwt>0</asrwt>
<pdfrwt beam="1">  1        2 0.38042433E+00 0.15271377E+04</pdfrwt>
<pdfrwt beam="2">  1       -2 0.31277501E-01 0.15271377E+04</pdfrwt>
<totfact> 0.33133344E+01</totfact>
</mgrwt>
</event>
<event>
 8    1  0.7623533E-028  0.2005590E+04  0.7818608E-02  0.8604012E-01
          2   -1    0    0  501    0  0.00000000000E+00  0.00000000000E+00  0.23968654569E+04  0.23968654569E+04  0.25500000000E-02 0.  1.
         -2   -1    0    0    0  501 -0.00000000000E+00 -0.00000000000E+00 -0.41954695983E+03  0.41954695984E+03  0.25500000000E-02 0. -1.
     200001    2    1    2    0    0  0.30789342704E+03  0.29732088866E+03  0.17916429678E+03  0.83991131598E+03  0.70010934876E+03 0.  0.
    5000001    2    3    3    0    0 -0.12062845703E+02  0.30024873854E+02  0.99345758325E+02  0.18402247244E+03  0.15148493447E+03 0.  0.
        -13    1    4    4    0    0 -0.28450608343E+02  0.78874398231E+02  0.91131478403E+02  0.12383684965E+03  0.10566000000E+00 0. -1.
     200003    1    4    4    0    0  0.16387762640E+02 -0.48849524377E+02  0.82142799214E+01  0.60185622792E+02  0.30000000000E+02 0. -1.
     200000    1    3    3    0    0  0.31995627274E+03  0.26729601480E+03  0.79818538451E+02  0.65588884354E+03  0.50000000000E+03 0. -1.
    -200001    1    1    2    0    0 -0.30789342704E+03 -0.29732088866E+03  0.17981542003E+04  0.19765011008E+04  0.70000000000E+03 0.  1.
<mgrwt>
<rscale>  0 0.20055898E+04</rscale>
<asrwt>0</asrwt>
<pdfrwt beam="1">  1        2 0.34240935E+00 0.20055898E+04</pdfrwt>
<pdfrwt beam="2">  1       -2 0.59935280E-01 0.20055898E+04</pdfrwt>
<totfact> 0.12084697E+01</totfact>
</mgrwt>
</event>
<event>
 8    1  0.7623533E-028  0.3165002E+04  0.7818608E-02  0.8198122E-01
         -2   -1    0    0    0  501 -0.00000000000E+00  0.00000000000E+00  0.67197288302E+03  0.67197288302E+03  0.25500000000E-02 0. -1.
          2   -1    0    0  501    0  0.00000000000E+00 -0.00000000000E+00 -0.37268014934E+04  0.37268014934E+04  0.25500000000E-02 0.  1.
     200001    2    1    2    0    0  0.94044551966E+03  0.97026257581E+03 -0.21310481675E+04  0.26185447429E+04  0.69968781389E+03 0.  0.
    5000001    2    3    3    0    0  0.33192118520E+03  0.35394168026E+03 -0.81426200792E+03  0.96503964706E+03  0.18119745209E+03 0.  0.
        -13    1    4    4    0    0  0.24605602118E+03  0.32253573743E+03 -0.54723453853E+03  0.68120372783E+03  0.10566000000E+00 0. -1.
     200003    1    4    4    0    0  0.85865164026E+02  0.31405942822E+02 -0.26702746939E+03  0.28383591923E+03  0.30000000000E+02 0. -1.
     200000    1    3    3    0    0  0.60852433446E+03  0.61632089555E+03 -0.13167861596E+04  0.16535050959E+04  0.50000000000E+03 0.  1.
    -200001    1    1    2    0    0 -0.94044551966E+03 -0.97026257581E+03 -0.92378044292E+03  0.17802296336E+04  0.70000000000E+03 0. -1.
<mgrwt>
<rscale>  0 0.31650021E+04</rscale>
<asrwt>0</asrwt>
<pdfrwt beam="1">  1        2 0.53240020E+00 0.31650021E+04</pdfrwt>
<pdfrwt beam="2">  1       -2 0.95996129E-01 0.31650021E+04</pdfrwt>
<totfact> 0.66902907E-01</totfact>
</mgrwt>
</event>
<event>
 8    1  0.7623533E-028  0.2311935E+04  0.7818608E-02  0.8473230E-01
         -2   -1    0    0    0  501 -0.00000000000E+00  0.00000000000E+00  0.64222611575E+03  0.64222611576E+03  0.25500000000E-02 0. -1.
          2   -1    0    0  501    0  0.00000000000E+00 -0.00000000000E+00 -0.20806700089E+04  0.20806700089E+04  0.25500000000E-02 0.  1.
     200001    2    1    2    0    0 -0.40279322731E+03 -0.55671220410E+03 -0.14398903312E+04  0.17419919732E+04  0.69934326808E+03 0.  0.
    5000001    2    3    3    0    0 -0.11899824584E+03 -0.21408992223E+03 -0.29326957376E+03  0.41433660340E+03  0.16022702864E+03 0.  0.
        -13    1    4    4    0    0 -0.68059676164E+02 -0.15804078766E+03 -0.87529046461E+02  0.19305531648E+03  0.10566000000E+00 0. -1.
     200003    1    4    4    0    0 -0.50938569675E+02 -0.56049134573E+02 -0.20574052729E+03  0.22128128691E+03  0.30000000000E+02 0. -1.
     200000    1    3    3    0    0 -0.28379498147E+03 -0.34262228187E+03 -0.11466207574E+04  0.13276553698E+04  0.50000000000E+03 0.  1.
    -200001    1    1    2    0    0  0.40279322731E+03  0.55671220410E+03  0.14464380582E+01  0.98090415146E+03  0.70000000000E+03 0. -1.
<mgrwt>
<rscale>  0 0.23119348E+04</rscale>
<asrwt>0</asrwt>
<pdfrwt beam="1">  1        2 0.29723857E+00 0.23119348E+04</pdfrwt>
<pdfrwt beam="2">  1       -2 0.91746589E-01 0.23119348E+04</pdfrwt>
<totfact> 0.67081012E+00</totfact>
</mgrwt>
</event>
<event>
 8    1  0.7623533E-028  0.1464222E+04  0.7818608E-02  0.8908600E-01
          2   -1    0    0  501    0  0.00000000000E+00  0.00000000000E+00  0.10209701730E+04  0.10209701730E+04  0.25500000000E-02 0.  1.
         -2   -1    0    0    0  501 -0.00000000000E+00 -0.00000000000E+00 -0.52497769150E+03  0.52497769151E+03  0.25500000000E-02 0. -1.
     200001    2    1    2    0    0  0.15867925925E+01 -0.20484265434E+03  0.31243251303E+03  0.79384594790E+03  0.70043863604E+03 0.  0.
    5000001    2    3    3    0    0  0.10898089070E+03 -0.52240863637E+02  0.16441338170E+03  0.24001342622E+03  0.12636748915E+03 0.  0.
        -13    1    4    4    0    0  0.96309744093E+02  0.16500157858E+02  0.79117781137E+02  0.12572770766E+03  0.10566000000E+00 0. -1.
     200003    1    4    4    0    0  0.12671146606E+02 -0.68741021495E+02  0.85295600562E+02  0.11428571856E+03  0.30000000000E+02 0.  1.
     200000    1    3    3    0    0 -0.10739409811E+03 -0.15260179070E+03  0.14801913133E+03  0.55383252168E+03  0.50000000000E+03 0.  1.
    -200001    1    1    2    0    0 -0.15867925925E+01  0.20484265434E+03  0.18355996847E+03  0.75210191661E+03  0.70000000000E+03 0. -1.
<mgrwt>
<rscale>  0 0.14642221E+04</rscale>
<asrwt>0</asrwt>
<pdfrwt beam="1">  1        2 0.14585288E+00 0.14642221E+04</pdfrwt>
<pdfrwt beam="2">  1       -2 0.74996814E-01 0.14642221E+04</pdfrwt>
<totfact> 0.42255266E+01</totfact>
</mgrwt>
</event>
<event>
 8    1  0.7623533E-028  0.1621718E+04  0.7818608E-02  0.8807316E-01
         -2   -1    0    0    0  501 -0.00000000000E+00  0.00000000000E+00  0.12106711103E+04  0.12106711103E+04  0.25500000000E-02 0. -1.
          2   -1    0    0  501    0  0.00000000000E+00 -0.00000000000E+00 -0.54308063134E+03  0.54308063134E+03  0.25500000000E-02 0.  1.
     200001    2    1    2    0    0  0.91797483675E+02  0.37829069046E+03  0.19989900780E+03  0.82624651970E+03  0.70085167724E+03 0.  0.
    5000001    2    3    3    0    0  0.83390357531E+02  0.96288607664E+02  0.18142543324E+03  0.25184498120E+03  0.11952095645E+03 0.  0.
        -13    1    4    4    0    0  0.12777009349E+02  0.51248078334E+02  0.14743004413E+03  0.15660538489E+03  0.10566000000E+00 0. -1.
     200003    1    4    4    0    0  0.70613348181E+02  0.45040529330E+02  0.33995389115E+02  0.95239596307E+02  0.30000000000E+02 0. -1.
     200000    1    3    3    0    0  0.84071261439E+01  0.28200208280E+03  0.18473574551E+02  0.57440153850E+03  0.50000000000E+03 0.  1.
    -200001    1    1    2    0    0 -0.91797483675E+02 -0.37829069046E+03  0.46769147112E+03  0.92750522190E+03  0.70000000000E+03 0. -1.
<mgrwt>
<rscale>  0 0.16217176E+04</rscale>
<asrwt>0</asrwt>
<pdfrwt beam="1">  1        2 0.77582947E-01 0.16217176E+04</pdfrwt>
<pdfrwt beam="2">  1       -2 0.17295302E+00 0.16217176E+04</pdfrwt>
<totfact> 0.11881984E+01</totfact>
</mgrwt>
</event>
<event>
 8    1  0.7623533E-028  0.1676370E+04  0.7818608E-02  0.8774957E-01
          2   -1    0    0  501    0  0.00000000000E+00  0.00000000000E+00  0.25978142694E+04  0.25978142695E+04  0.25500000000E-02 0.  1.
         -2   -1    0    0    0  501 -0.00000000000E+00 -0.00000000000E+00 -0.27044047107E+03  0.27044047108E+03  0.25500000000E-02 0. -1.
     200001    2    1    2    0    0  0.24603482579E+03  0.37867898921E+03  0.13235042462E+04  0.15637682553E+04  0.69984052054E+03 0.  0.
    5000001    2    3    3    0    0  0.74526782561E+01  0.16403074827E+03  0.34474694086E+03  0.41879612847E+03  0.17198289216E+03 0.  0.
        -13    1    4    4    0    0 -0.43017778320E+02  0.16813580938E+03  0.21486902178E+03  0.27620443033E+03  0.10566000000E+00 0. -1.
     200003    1    4    4    0    0  0.50470456576E+02 -0.41050611082E+01  0.12987791908E+03  0.14259169814E+03  0.30000000000E+02 0. -1.
     200000    1    3    3    0    0  0.23858214754E+03  0.21464824094E+03  0.97875730534E+03  0.11449721268E+04  0.50000000000E+03 0. -1.
    -200001    1    1    2    0    0 -0.24603482579E+03 -0.37867898921E+03  0.10038695522E+04  0.13044864852E+04  0.70000000000E+03 0. -1.
<mgrwt>
<rscale>  0 0.16763700E+04</rscale>
<asrwt>0</asrwt>
<pdfrwt beam="1">  1        2 0.37111633E+00 0.16763700E+04</pdfrwt>
<pdfrwt beam="2">  1       -2 0.38634352E-01 0.16763700E+04</pdfrwt>
<totfact> 0.23681952E+01</totfact>
</mgrwt>
</event>
<event>
 8    1  0.7623533E-028  0.2379649E+04  0.7818608E-02  0.8447162E-01
         -2   -1    0    0    0  501 -0.00000000000E+00  0.00000000000E+00  0.27090505624E+03  0.27090505625E+03  0.25500000000E-02 0. -1.
          2   -1    0    0  501    0  0.00000000000E+00 -0.00000000000E+00 -0.52257492110E+04  0.52257492110E+04  0.25500000000E-02 0.  1.
     200001    2    1    2    0    0 -0.46110291148E+03  0.74244935251E+03 -0.34071979244E+04  0.35864040767E+04  0.69960672498E+03 0.  0.
    5000001    2    3    3    0    0 -0.10857476146E+02  0.10437728045E+03 -0.29573786854E+03  0.33970720140E+03  0.13010608875E+03 0.  0.
        -13    1    4    4    0    0  0.88338396420E+01  0.11806415587E+03 -0.26591683753E+03  0.29108238914E+03  0.10566000000E+00 0. -1.
     200003    1    4    4    0    0 -0.19691315788E+02 -0.13686875418E+02 -0.29821031014E+02  0.48624812255E+02  0.30000000000E+02 0. -1.
     200000    1    3    3    0    0 -0.45024543534E+03  0.63807207205E+03 -0.31114600558E+04  0.32466968753E+04  0.50000000000E+03 0.  1.
    -200001    1    1    2    0    0  0.46110291148E+03 -0.74244935251E+03 -0.15476462304E+04  0.19102501905E+04  0.70000000000E+03 0. -1.
<mgrwt>
<rscale>  0 0.23796486E+04</rscale>
<asrwt>0</asrwt>
<pdfrwt beam="1">  1        2 0.74653554E+00 0.23796486E+04</pdfrwt>
<pdfrwt beam="2">  1       -2 0.38700725E-01 0.23796486E+04</pdfrwt>
<totfact> 0.29880023E-01</totfact>
</mgrwt>
</event>
<event>
 8    1  0.7623533E-028  0.2027803E+04  0.7818608E-02  0.8593731E-01
          2   -1    0    0  501    0  0.00000000000E+00  0.00000000000E+00  0.16420508517E+04  0.16420508517E+04  0.25500000000E-02 0.  1.
         -2   -1    0    0    0  501 -0.00000000000E+00 -0.00000000000E+00 -0.62604414686E+03  0.62604414686E+03  0.25500000000E-02 0. -1.
     200001    2    1    2    0    0 -0.65259898825E+03  0.32326436400E+03  0.60250610598E+03  0.11765969300E+04  0.70070067744E+03 0.  0.
    5000001    2    3    3    0    0 -0.16693117824E+03  0.88923738903E+02  0.27871473673E+03  0.37308613287E+03  0.16043038509E+03 0.  0.
        -13    1    4    4    0    0 -0.52669198842E+01  0.54795913400E+02  0.15506189169E+03  0.16454341066E+03  0.10566000000E+00 0. -1.
     200003    1    4    4    0    0 -0.16166425836E+03  0.34127825503E+02  0.12365284504E+03  0.20854272222E+03  0.30000000000E+02 0. -1.
     200000    1    3    3    0    0 -0.48566781001E+03  0.23434062510E+03  0.32379136925E+03  0.80351079710E+03  0.50000000000E+03 0. -1.
    -200001    1    1    2    0    0  0.65259898825E+03 -0.32326436400E+03  0.41350059886E+03  0.10914980686E+04  0.70000000000E+03 0. -1.
<mgrwt>
<rscale>  0 0.20278031E+04</rscale>
<asrwt>0</asrwt>
<pdfrwt beam="1">  1        2 0.23457869E+00 0.20278031E+04</pdfrwt>
<pdfrwt beam="2">  1       -2 0.89434879E-01 0.20278031E+04</pdfrwt>
<totfact> 0.12275551E+01</totfact>
</mgrwt>
</event>
<event>
 8    1  0.7623533E-028  0.1504491E+04  0.7818608E-02  0.8881472E-01
         -2   -1    0    0    0  501 -0.00000000000E+00  0.00000000000E+00  0.17530975492E+03  0.17530975494E+03  0.25500000000E-02 0. -1.
          2   -1    0    0  501    0  0.00000000000E+00 -0.00000000000E+00 -0.32278484312E+04  0.32278484312E+04  0.25500000000E-02 0.  1.
     200001    2    1    2    0    0  0.18782658171E+03  0.16128867401E+03 -0.17988464564E+04  0.19460936565E+04  0.70009933956E+03 0.  0.
    5000001    2    3    3    0    0  0.15145138518E+03  0.17859608151E+03 -0.58489938275E+03  0.63259063072E+03  0.56829004300E+02 0.  0.
        -13    1    4    4    0    0  0.25176829903E+02  0.29927675936E+02 -0.14988537274E+03  0.15490375940E+03  0.10566000000E+00 0. -1.
     200003    1    4    4    0    0  0.12627455528E+03  0.14866840557E+03 -0.43501401001E+03  0.47768687132E+03  0.30000000000E+02 0. -1.
     200000    1    3    3    0    0  0.36375196526E+02 -0.17307407496E+02 -0.12139470736E+04  0.13135030258E+04  0.50000000000E+03 0.  1.
    -200001    1    1    2    0    0 -0.18782658171E+03 -0.16128867401E+03 -0.12536922199E+04  0.14570645296E+04  0.70000000000E+03 0. -1.
<mgrwt>
<rscale>  0 0.15044910E+04</rscale>
<asrwt>0</asrwt>
<pdfrwt beam="1">  1        2 0.46112117E+00 0.15044910E+04</pdfrwt>
<pdfrwt beam="2">  1       -2 0.25044253E-01 0.15044910E+04</pdfrwt>
<totfact> 0.24347970E+01</totfact>
</mgrwt>
</event>
<event>
 8    1  0.7623533E-028  0.1884356E+04  0.7818608E-02  0.8662683E-01
         -2   -1    0    0    0  501 -0.00000000000E+00  0.00000000000E+00  0.42984048332E+03  0.42984048333E+03  0.25500000000E-02 0. -1.
          2   -1    0    0  501    0  0.00000000000E+00 -0.00000000000E+00 -0.20651830743E+04  0.20651830743E+04  0.25500000000E-02 0.  1.
     200001    2    1    2    0    0 -0.15260136083E+02 -0.63083535992E+03 -0.81604469619E+03  0.12462500940E+04  0.69930267234E+03 0.  0.
    5000001    2    3    3    0    0 -0.25369573197E+02 -0.11325476128E+03 -0.20821712792E+03  0.30420644875E+03  0.18898924548E+03 0.  0.
        -13    1    4    4    0    0  0.71292010060E+02 -0.89659290497E+02 -0.82873576890E+02  0.14138380382E+03  0.10566000000E+00 0. -1.
     200003    1    4    4    0    0 -0.96661583257E+02 -0.23595470782E+02 -0.12534355103E+03  0.16282264493E+03  0.30000000000E+02 0. -1.
     200000    1    3    3    0    0  0.10109437114E+02 -0.51758059864E+03 -0.60782756827E+03  0.94204364525E+03  0.50000000000E+03 0.  1.
    -200001    1    1    2    0    0  0.15260136083E+02  0.63083535992E+03 -0.81929789483E+03  0.12487734637E+04  0.70000000000E+03 0.  1.
<mgrwt>
<rscale>  0 0.18843559E+04</rscale>
<asrwt>0</asrwt>
<pdfrwt beam="1">  1        2 0.29502615E+00 0.18843559E+04</pdfrwt>
<pdfrwt beam="2">  1       -2 0.61405784E-01 0.18843559E+04</pdfrwt>
<totfact> 0.17222589E+01</totfact>
</mgrwt>
</event>
<event>
 8    1  0.7623533E-028  0.1514493E+04  0.7818608E-02  0.8874872E-01
         -2   -1    0    0    0  501 -0.00000000000E+00  0.00000000000E+00  0.26400755679E+03  0.26400755681E+03  0.25500000000E-02 0. -1.
          2   -1    0    0  501    0  0.00000000000E+00 -0.00000000000E+00 -0.21719929555E+04  0.21719929555E+04  0.25500000000E-02 0.  1.
     200001    2    1    2    0    0  0.10476812254E+03 -0.26409270705E+03 -0.86819379167E+03  0.11507425991E+04  0.69980479567E+03 0.  0.
    5000001    2    3    3    0    0  0.32668542021E+02 -0.52914815504E+02 -0.20756121081E+03  0.29270422099E+03  0.19679149732E+03 0.  0.
        -13    1    4    4    0    0 -0.72124706421E+02 -0.64471581248E+02 -0.99794067773E+02  0.13898714038E+03  0.10566000000E+00 0. -1.
     200003    1    4    4    0    0  0.10479324844E+03  0.11556765744E+02 -0.10776714304E+03  0.15371708061E+03  0.30000000000E+02 0. -1.
     200000    1    3    3    0    0  0.72099580521E+02 -0.21117789155E+03 -0.66063258086E+03  0.85803837810E+03  0.50000000000E+03 0. -1.
    -200001    1    1    2    0    0 -0.10476812254E+03  0.26409270705E+03 -0.10397916070E+04  0.12852579132E+04  0.70000000000E+03 0. -1.
<mgrwt>
<rscale>  0 0.15144934E+04</rscale>
<asrwt>0</asrwt>
<pdfrwt beam="1">  1        2 0.31028470E+00 0.15144934E+04</pdfrwt>
<pdfrwt beam="2">  1       -2 0.37715366E-01 0.15144934E+04</pdfrwt>
<totfact> 0.41938563E+01</totfact>
</mgrwt>
</event>
<event>
 8    1  0.7623533E-028  0.2640786E+04  0.7818608E-02  0.8354478E-01
         -2   -1    0    0    0  501 -0.00000000000E+00  0.00000000000E+00  0.11695196612E+04  0.11695196612E+04  0.25500000000E-02 0. -1.
          2   -1    0    0  501    0  0.00000000000E+00 -0.00000000000E+00 -0.14907294030E+04  0.14907294030E+04  0.25500000000E-02 0.  1.
     200001    2    1    2    0    0 -0.42388885143E+03 -0.29853827565E+03 -0.11603890577E+04  0.14506917962E+04  0.69942623770E+03 0.  0.
    5000001    2    3    3    0    0 -0.11814810378E+03 -0.15090860444E+03 -0.46433296545E+03  0.52886425911E+03  0.16540834454E+03 0.  0.
        -13    1    4    4    0    0  0.37925187707E+02 -0.26101365874E+02 -0.50551248720E+02  0.68374272021E+02  0.10566000000E+00 0. -1.
     200003    1    4    4    0    0 -0.15607329148E+03 -0.12480723857E+03 -0.41378171673E+03  0.46048998709E+03  0.30000000000E+02 0. -1.
     200000    1    3    3    0    0 -0.30574074765E+03 -0.14762967121E+03 -0.69605609222E+03  0.92182753708E+03  0.50000000000E+03 0.  1.
    -200001    1    1    2    0    0  0.42388885143E+03  0.29853827565E+03  0.83917931587E+03  0.12095572680E+04  0.70000000000E+03 0. -1.
<mgrwt>
<rscale>  0 0.26407858E+04</rscale>
<asrwt>0</asrwt>
<pdfrwt beam="1">  1        2 0.21296134E+00 0.26407858E+04</pdfrwt>
<pdfrwt beam="2">  1       -2 0.16707424E+00 0.26407858E+04</pdfrwt>
<totfact> 0.29348822E+00</totfact>
</mgrwt>
</event>
<event>
 8    1  0.7623533E-028  0.1598954E+04  0.7818608E-02  0.8821191E-01
         -2   -1    0    0    0  501 -0.00000000000E+00  0.00000000000E+00  0.12473351997E+04  0.12473351997E+04  0.25500000000E-02 0. -1.
          2   -1    0    0  501    0  0.00000000000E+00 -0.00000000000E+00 -0.51242294438E+03  0.51242294439E+03  0.25500000000E-02 0.  1.
     200001    2    1    2    0    0 -0.22423662807E+03 -0.29529592494E+03  0.24734848053E+03  0.82959676929E+03  0.69969120342E+03 0.  0.
    5000001    2    3    3    0    0 -0.14051321842E+03 -0.72047179794E+02  0.47970145639E+02  0.24086819689E+03  0.17544683735E+03 0.  0.
        -13    1    4    4    0    0 -0.78074158776E+02 -0.12112818554E+03  0.58074784109E+02  0.15537150097E+03  0.10566000000E+00 0. -1.
     200003    1    4    4    0    0 -0.62439059646E+02  0.49081005749E+02 -0.10104638470E+02  0.85496695921E+02  0.30000000000E+02 0. -1.
     200000    1    3    3    0    0 -0.83723409645E+02 -0.22324874515E+03  0.19937833489E+03  0.58872857240E+03  0.50000000000E+03 0. -1.
    -200001    1    1    2    0    0  0.22423662807E+03  0.29529592494E+03  0.48756377477E+03  0.93016137477E+03  0.70000000000E+03 0.  1.
<mgrwt>
<rscale>  0 0.15989536E+04</rscale>
<asrwt>0</asrwt>
<pdfrwt beam="1">  1        2 0.73203279E-01 0.15989536E+04</pdfrwt>
<pdfrwt beam="2">  1       -2 0.17819074E+00 0.15989536E+04</pdfrwt>
<totfact> 0.11698490E+01</totfact>
</mgrwt>
</event>
<event>
 8    1  0.7623533E-028  0.1795869E+04  0.7818608E-02  0.8708499E-01
         -2   -1    0    0    0  501 -0.00000000000E+00  0.00000000000E+00  0.12282941364E+04  0.12282941364E+04  0.25500000000E-02 0. -1.
          2   -1    0    0  501    0  0.00000000000E+00 -0.00000000000E+00 -0.65642810639E+03  0.65642810640E+03  0.25500000000E-02 0.  1.
     200001    2    1    2    0    0 -0.22698899279E+03 -0.51054248370E+03  0.22128250073E+03  0.92290810196E+03  0.70043971119E+03 0.  0.
    5000001    2    3    3    0    0 -0.53962292920E+02 -0.94063538913E+02  0.92817377808E+02  0.23741832221E+03  0.18971693569E+03 0.  0.
        -13    1    4    4    0    0 -0.35851214806E+02 -0.57855385233E+02 -0.50986204741E+02  0.85042103934E+02  0.10566000000E+00 0. -1.
     200003    1    4    4    0    0 -0.18111078114E+02 -0.36208153681E+02  0.14380358255E+03  0.15237621828E+03  0.30000000000E+02 0. -1.
     200000    1    3    3    0    0 -0.17302669987E+03 -0.41647894479E+03  0.12846512293E+03  0.68548977974E+03  0.50000000000E+03 0.  1.
    -200001    1    1    2    0    0  0.22698899279E+03  0.51054248370E+03  0.35058352926E+03  0.96181414083E+03  0.70000000000E+03 0. -1.
<mgrwt>
<rscale>  0 0.17958695E+04</rscale>
<asrwt>0</asrwt>
<pdfrwt beam="1">  1        2 0.93775446E-01 0.17958695E+04</pdfrwt>
<pdfrwt beam="2">  1       -2 0.17547059E+00 0.17958695E+04</pdfrwt>
<totfact> 0.89885233E+00</totfact>
</mgrwt>
</event>
<event>
 8    1  0.7623533E-028  0.1687601E+04  0.7818608E-02  0.8768467E-01
         -2   -1    0    0    0  501 -0.00000000000E+00  0.00000000000E+00  0.66629673093E+03  0.66629673093E+03  0.25500000000E-02 0. -1.
          2   -1    0    0  501    0  0.00000000000E+00 -0.00000000000E+00 -0.10685925141E+04  0.10685925141E+04  0.25500000000E-02 0.  1.
     200001    2    1    2    0    0 -0.32245988566E+03 -0.32072421030E+03 -0.32782847133E+03  0.89680227019E+03  0.69995600452E+03 0.  0.
    5000001    2    3    3    0    0 -0.48466803136E+02 -0.18085627510E+03 -0.17569956890E+03  0.29035486808E+03  0.13556396150E+03 0.  0.
        -13    1    4    4    0    0 -0.40706735159E+01  0.20967621710E+02 -0.90735554861E+01  0.23206725668E+02  0.10566000000E+00 0. -1.
     200003    1    4    4    0    0 -0.44396129620E+02 -0.20182389681E+03 -0.16662601342E+03  0.26714814241E+03  0.30000000000E+02 0. -1.
     200000    1    3    3    0    0 -0.27399308253E+03 -0.13986793520E+03 -0.15212890243E+03  0.60644740211E+03  0.50000000000E+03 0.  1.
    -200001    1    1    2    0    0  0.32245988566E+03  0.32072421030E+03 -0.74467311884E+02  0.83808697489E+03  0.70000000000E+03 0. -1.
<mgrwt>
<rscale>  0 0.16876015E+04</rscale>
<asrwt>0</asrwt>
<pdfrwt beam="1">  1        2 0.15265607E+00 0.16876015E+04</pdfrwt>
<pdfrwt beam="2">  1       -2 0.95185247E-01 0.16876015E+04</pdfrwt>
<totfact> 0.22605027E+01</totfact>
</mgrwt>
</event>
<event>
 8    1  0.7623533E-028  0.1839819E+04  0.7818608E-02  0.8685406E-01
          2   -1    0    0  501    0  0.00000000000E+00  0.00000000000E+00  0.25474372716E+04  0.25474372716E+04  0.25500000000E-02 0.  1.
         -2   -1    0    0    0  501 -0.00000000000E+00 -0.00000000000E+00 -0.33219001177E+03  0.33219001178E+03  0.25500000000E-02 0. -1.
     200001    2    1    2    0    0  0.56991295533E+03 -0.16177339231E+02  0.13839567042E+04  0.16523919877E+04  0.70000045653E+03 0.  0.
    5000001    2    3    3    0    0  0.16525356714E+02 -0.27654523934E+02  0.15849607946E+03  0.21777590571E+03  0.14583373339E+03 0.  0.
        -13    1    4    4    0    0  0.73001057055E+02 -0.30242512508E+02  0.55670788689E+02  0.96659256004E+02  0.10566000000E+00 0. -1.
     200003    1    4    4    0    0 -0.56475700341E+02  0.25879885741E+01  0.10282529077E+03  0.12111664971E+03  0.30000000000E+02 0. -1.
     200000    1    3    3    0    0  0.55338759862E+03  0.11477184703E+02  0.12254606247E+04  0.14346160820E+04  0.50000000000E+03 0.  1.
    -200001    1    1    2    0    0 -0.56991295533E+03  0.16177339231E+02  0.83129055563E+03  0.12272352956E+04  0.70000000000E+03 0.  1.
<mgrwt>
<rscale>  0 0.18398187E+04</rscale>
<asrwt>0</asrwt>
<pdfrwt beam="1">  1        2 0.36391963E+00 0.18398187E+04</pdfrwt>
<pdfrwt beam="2">  1       -2 0.47455713E-01 0.18398187E+04</pdfrwt>
<totfact> 0.16531717E+01</totfact>
</mgrwt>
</event>
<event>
 8    1  0.7623533E-028  0.1639595E+04  0.7818608E-02  0.8796586E-01
         -2   -1    0    0    0  501 -0.00000000000E+00  0.00000000000E+00  0.56941208922E+03  0.56941208923E+03  0.25500000000E-02 0. -1.
          2   -1    0    0  501    0  0.00000000000E+00 -0.00000000000E+00 -0.11802832996E+04  0.11802832996E+04  0.25500000000E-02 0.  1.
     200001    2    1    2    0    0  0.21508190456E+03 -0.36404449356E+03 -0.21662452666E+03  0.84183027410E+03  0.69495568627E+03 0.  0.
    5000001    2    3    3    0    0  0.95159304627E+02 -0.88788876759E+02 -0.13668197212E+03  0.25315557906E+03  0.16872174671E+03 0.  0.
        -13    1    4    4    0    0  0.30506850388E+02 -0.61652889568E+02  0.25957862504E+02  0.73522571381E+02  0.10566000000E+00 0. -1.
     200003    1    4    4    0    0  0.64652454239E+02 -0.27135987192E+02 -0.16263983462E+03  0.17963300767E+03  0.30000000000E+02 0. -1.
     200000    1    3    3    0    0  0.11992259993E+03 -0.27525561680E+03 -0.79942554541E+02  0.58867469504E+03  0.50000000000E+03 0. -1.
    -200001    1    1    2    0    0 -0.21508190456E+03  0.36404449356E+03 -0.39424668376E+03  0.90786511477E+03  0.70000000000E+03 0.  1.
<mgrwt>
<rscale>  0 0.16395946E+04</rscale>
<asrwt>0</asrwt>
<pdfrwt beam="1">  1        2 0.16861190E+00 0.16395946E+04</pdfrwt>
<pdfrwt beam="2">  1       -2 0.81344585E-01 0.16395946E+04</pdfrwt>
<totfact> 0.27988351E+01</totfact>
</mgrwt>
</event>
<event>
 8    1  0.7623533E-028  0.2287482E+04  0.7818608E-02  0.8482873E-01
         -2   -1    0    0    0  501 -0.00000000000E+00  0.00000000000E+00  0.44959449044E+03  0.44959449045E+03  0.25500000000E-02 0. -1.
          2   -1    0    0  501    0  0.00000000000E+00 -0.00000000000E+00 -0.29096080085E+04  0.29096080085E+04  0.25500000000E-02 0.  1.
     200001    2    1    2    0    0 -0.25994542189E+03 -0.76135199576E+03 -0.62273314534E+03  0.12348608005E+04  0.69989723709E+03 0.  0.
    5000001    2    3    3    0    0 -0.81293677739E+02 -0.10845743996E+03 -0.12412802046E+03  0.25670190888E+03  0.17921056397E+03 0.  0.
        -13    1    4    4    0    0 -0.82412375418E+02 -0.66739495981E+02  0.16181989507E+02  0.10727454448E+03  0.10566000000E+00 0. -1.
     200003    1    4    4    0    0  0.11186976796E+01 -0.41717943979E+02 -0.14031000997E+03  0.14942736440E+03  0.30000000000E+02 0. -1.
     200000    1    3    3    0    0 -0.17865174415E+03 -0.65289455580E+03 -0.49860512488E+03  0.97815889161E+03  0.50000000000E+03 0. -1.
    -200001    1    1    2    0    0  0.25994542189E+03  0.76135199576E+03 -0.18372803727E+04  0.21243416985E+04  0.70000000000E+03 0. -1.
<mgrwt>
<rscale>  0 0.22874822E+04</rscale>
<asrwt>0</asrwt>
<pdfrwt beam="1">  1        2 0.41565828E+00 0.22874822E+04</pdfrwt>
<pdfrwt beam="2">  1       -2 0.64227786E-01 0.22874822E+04</pdfrwt>
<totfact> 0.54097098E+00</totfact>
</mgrwt>
</event>
<event>
 8    1  0.7623533E-028  0.1450743E+04  0.7818608E-02  0.8917886E-01
          2   -1    0    0  501    0  0.00000000000E+00  0.00000000000E+00  0.21448302921E+03  0.21448302923E+03  0.25500000000E-02 0.  1.
         -2   -1    0    0    0  501 -0.00000000000E+00 -0.00000000000E+00 -0.24531721458E+04  0.24531721458E+04  0.25500000000E-02 0. -1.
     200001    2    1    2    0    0  0.26983583762E+02  0.15552672756E+03 -0.92465818523E+03  0.11704598086E+04  0.70004766065E+03 0.  0.
    5000001    2    3    3    0    0 -0.57851186749E+02  0.13916456568E+03 -0.33761016452E+03  0.39451519891E+03  0.13765203535E+03 0.  0.
        -13    1    4    4    0    0 -0.72640036583E+02  0.12537239186E+03 -0.32561627454E+03  0.35639974883E+03  0.10566000000E+00 0. -1.
     200003    1    4    4    0    0  0.14788849834E+02  0.13792173820E+02 -0.11993889976E+02  0.38115450080E+02  0.30000000000E+02 0. -1.
     200000    1    3    3    0    0  0.84834770511E+02  0.16362161881E+02 -0.58704802071E+03  0.77594460966E+03  0.50000000000E+03 0.  1.
    -200001    1    1    2    0    0 -0.26983583762E+02 -0.15552672756E+03 -0.13140309313E+04  0.14971953664E+04  0.70000000000E+03 0. -1.
<mgrwt>
<rscale>  0 0.14507430E+04</rscale>
<asrwt>0</asrwt>
<pdfrwt beam="1">  1        2 0.30640434E-01 0.14507430E+04</pdfrwt>
<pdfrwt beam="2">  1       -2 0.35045315E+00 0.14507430E+04</pdfrwt>
<totfact> 0.26319013E+00</totfact>
</mgrwt>
</event>
<event>
 8    1  0.7623533E-028  0.1526539E+04  0.7818608E-02  0.8866994E-01
          2   -1    0    0  501    0  0.00000000000E+00  0.00000000000E+00  0.46356946800E+03  0.46356946801E+03  0.25500000000E-02 0.  1.
         -2   -1    0    0    0  501 -0.00000000000E+00 -0.00000000000E+00 -0.12567264575E+04  0.12567264575E+04  0.25500000000E-02 0. -1.
     200001    2    1    2    0    0 -0.12363130710E+03 -0.27482122318E+03 -0.34803246036E+03  0.83771604172E+03  0.69987868111E+03 0.  0.
    5000001    2    3    3    0    0 -0.61446415028E+02 -0.76622838940E+02  0.41258659098E+02  0.17085988331E+03  0.13358181540E+03 0.  0.
        -13    1    4    4    0    0 -0.41590473374E+02 -0.51698574285E+02  0.85768036444E+02  0.10843743495E+03  0.10566000000E+00 0. -1.
     200003    1    4    4    0    0 -0.19855941654E+02 -0.24924264655E+02 -0.44509377346E+02  0.62422448360E+02  0.30000000000E+02 0. -1.
     200000    1    3    3    0    0 -0.62184892072E+02 -0.19819838424E+03 -0.38929111946E+03  0.66685615841E+03  0.50000000000E+03 0. -1.
    -200001    1    1    2    0    0  0.12363130710E+03  0.27482122318E+03 -0.44512452909E+03  0.88257988375E+03  0.70000000000E+03 0. -1.
<mgrwt>
<rscale>  0 0.15265386E+04</rscale>
<asrwt>0</asrwt>
<pdfrwt beam="1">  1        2 0.66224210E-01 0.15265386E+04</pdfrwt>
<pdfrwt beam="2">  1       -2 0.17953235E+00 0.15265386E+04</pdfrwt>
<totfact> 0.12909686E+01</totfact>
</mgrwt>
</event>
<event>
 8    1  0.7623533E-028  0.2153282E+04  0.7818608E-02  0.8538129E-01
         -2   -1    0    0    0  501 -0.00000000000E+00  0.00000000000E+00  0.61800553108E+03  0.61800553108E+03  0.25500000000E-02 0. -1.
          2   -1    0    0  501    0  0.00000000000E+00 -0.00000000000E+00 -0.18756398795E+04  0.18756398795E+04  0.25500000000E-02 0.  1.
     200001    2    1    2    0    0  0.17348701116E+03 -0.69299305199E+03 -0.16902305893E+03  0.10153316236E+04  0.70142169792E+03 0.  0.
    5000001    2    3    3    0    0 -0.52093842032E+02 -0.23388317242E+03 -0.37402976025E+02  0.28801295270E+03  0.15536206611E+03 0.  0.
        -13    1    4    4    0    0  0.32718054801E+01  0.68273873002E+01 -0.38461476206E+02  0.39199671484E+02  0.10566000000E+00 0. -1.
     200003    1    4    4    0    0 -0.55365647512E+02 -0.24071055972E+03  0.10585001817E+01  0.24881328121E+03  0.30000000000E+02 0. -1.
     200000    1    3    3    0    0  0.22558085319E+03 -0.45910987957E+03 -0.13162008291E+03  0.72731867092E+03  0.50000000000E+03 0. -1.
    -200001    1    1    2    0    0 -0.17348701116E+03  0.69299305199E+03 -0.10886112895E+04  0.14783137870E+04  0.70000000000E+03 0. -1.
<mgrwt>
<rscale>  0 0.21532820E+04</rscale>
<asrwt>0</asrwt>
<pdfrwt beam="1">  1        2 0.26794855E+00 0.21532820E+04</pdfrwt>
<pdfrwt beam="2">  1       -2 0.88286506E-01 0.21532820E+04</pdfrwt>
<totfact> 0.94698422E+00</totfact>
</mgrwt>
</event>
<event>
 8    1  0.7623533E-028  0.1588046E+04  0.7818608E-02  0.8827925E-01
          2   -1    0    0  501    0  0.00000000000E+00  0.00000000000E+00  0.16846667390E+04  0.16846667390E+04  0.25500000000E-02 0.  1.
         -2   -1    0    0    0  501 -0.00000000000E+00 -0.00000000000E+00 -0.37424180863E+03  0.37424180864E+03  0.25500000000E-02 0. -1.
     200001    2    1    2    0    0 -0.13962334440E+03 -0.13761435387E+03  0.24028739504E+03  0.76522128513E+03  0.69956643310E+03 0.  0.
    5000001    2    3    3    0    0 -0.12363613749E+03 -0.44827067764E+02  0.39287075679E+02  0.21816900278E+03  0.16958443018E+03 0.  0.
        -13    1    4    4    0    0 -0.93729743115E+02  0.39494764870E+02  0.64571216163E+02  0.12047636414E+03  0.10566000000E+00 0. -1.
     200003    1    4    4    0    0 -0.29906394374E+02 -0.84321832634E+02 -0.25284140484E+02  0.97692638634E+02  0.30000000000E+02 0. -1.
     200000    1    3    3    0    0 -0.15987206906E+02 -0.92787286104E+02  0.20100031936E+03  0.54705228235E+03  0.50000000000E+03 0. -1.
    -200001    1    1    2    0    0  0.13962334440E+03  0.13761435387E+03  0.10701375354E+04  0.12936872626E+04  0.70000000000E+03 0.  1.
<mgrwt>
<rscale>  0 0.15880463E+04</rscale>
<asrwt>0</asrwt>
<pdfrwt beam="1">  1        2 0.24066668E+00 0.15880463E+04</pdfrwt>
<pdfrwt beam="2">  1       -2 0.53463115E-01 0.15880463E+04</pdfrwt>
<totfact> 0.37041623E+01</totfact>
</mgrwt>
</event>
<event>
 8    1  0.7623533E-028  0.1446876E+04  0.7818608E-02  0.8920569E-01
          2   -1    0    0  501    0  0.00000000000E+00  0.00000000000E+00  0.28501740797E+04  0.28501740797E+04  0.25500000000E-02 0.  1.
         -2   -1    0    0    0  501 -0.00000000000E+00 -0.00000000000E+00 -0.18362468969E+03  0.18362468971E+03  0.25500000000E-02 0. -1.
     200001    2    1    2    0    0  0.64150494204E+02 -0.12924211989E+03  0.15640044726E+04  0.17198641796E+04  0.70071677189E+03 0.  0.
    5000001    2    3    3    0    0 -0.37078629310E+02  0.10911041770E+03  0.25754930903E+03  0.29723128172E+03  0.93460581268E+02 0.  0.
        -13    1    4    4    0    0 -0.54450424453E+02  0.97749784279E+02  0.19464936356E+03  0.22451782768E+03  0.10566000000E+00 0. -1.
     200003    1    4    4    0    0  0.17371795143E+02  0.11360633422E+02  0.62899945473E+02  0.72713454042E+02  0.30000000000E+02 0.  1.
     200000    1    3    3    0    0  0.10122912351E+03 -0.23835253759E+03  0.13064551636E+04  0.14226328979E+04  0.50000000000E+03 0. -1.
    -200001    1    1    2    0    0 -0.64150494204E+02  0.12924211989E+03  0.11025449174E+04  0.13139345898E+04  0.70000000000E+03 0. -1.
<mgrwt>
<rscale>  0 0.14468757E+04</rscale>
<asrwt>0</asrwt>
<pdfrwt beam="1">  1        2 0.40716772E+00 0.14468757E+04</pdfrwt>
<pdfrwt beam="2">  1       -2 0.26232099E-01 0.14468757E+04</pdfrwt>
<totfact> 0.36617545E+01</totfact>
</mgrwt>
</event>
<event>
 8    1  0.7623533E-028  0.1617722E+04  0.7818608E-02  0.8809734E-01
         -2   -1    0    0    0  501 -0.00000000000E+00  0.00000000000E+00  0.53774092820E+03  0.53774092821E+03  0.25500000000E-02 0. -1.
          2   -1    0    0  501    0  0.00000000000E+00 -0.00000000000E+00 -0.12166759021E+04  0.12166759021E+04  0.25500000000E-02 0.  1.
     200001    2    1    2    0    0 -0.90969396099E+02  0.34739106160E+03 -0.54382104003E+03  0.95616138509E+03  0.69967656103E+03 0.  0.
    5000001    2    3    3    0    0 -0.73165032527E+02  0.12447257052E+03 -0.16424951033E+03  0.28976496014E+03  0.19010336053E+03 0.  0.
        -13    1    4    4    0    0 -0.43446466553E+02  0.85945012431E+02  0.18692971562E+02  0.98099841832E+02  0.10566000000E+00 0. -1.
     200003    1    4    4    0    0 -0.29718565974E+02  0.38527558086E+02 -0.18294248189E+03  0.19166511831E+03  0.30000000000E+02 0. -1.
     200000    1    3    3    0    0 -0.17804363572E+02  0.22291849108E+03 -0.37957152970E+03  0.66639642495E+03  0.50000000000E+03 0.  1.
    -200001    1    1    2    0    0  0.90969396099E+02 -0.34739106160E+03 -0.13511393387E+03  0.79825544522E+03  0.70000000000E+03 0.  1.
<mgrwt>
<rscale>  0 0.16177224E+04</rscale>
<asrwt>0</asrwt>
<pdfrwt beam="1">  1        2 0.17381084E+00 0.16177224E+04</pdfrwt>
<pdfrwt beam="2">  1       -2 0.76820133E-01 0.16177224E+04</pdfrwt>
<totfact> 0.30383802E+01</totfact>
</mgrwt>
</event>
<event>
 8    1  0.7623533E-028  0.1699071E+04  0.7818608E-02  0.8761895E-01
          2   -1    0    0  501    0  0.00000000000E+00  0.00000000000E+00  0.11533768650E+04  0.11533768650E+04  0.25500000000E-02 0. -1.
         -2   -1    0    0    0  501 -0.00000000000E+00 -0.00000000000E+00 -0.62573670321E+03  0.62573670321E+03  0.25500000000E-02 0.  1.
     200001    2    1    2    0    0 -0.18966082036E+03 -0.22418129451E+03  0.66155795437E+03  0.10082942283E+04  0.70197567209E+03 0.  0.
    5000001    2    3    3    0    0 -0.40090380563E+02  0.19738782799E+02  0.17369358175E+03  0.25339028297E+03  0.17899809218E+03 0.  0.
        -13    1    4    4    0    0 -0.19774274521E+02 -0.18307639591E+02 -0.31571263955E+02  0.41508402426E+02  0.10566000000E+00 0. -1.
     200003    1    4    4    0    0 -0.20316106042E+02  0.38046422390E+02  0.20526484570E+03  0.21188188054E+03  0.30000000000E+02 0. -1.
     200000    1    3    3    0    0 -0.14957043980E+03 -0.24392007731E+03  0.48786437262E+03  0.75490394532E+03  0.50000000000E+03 0. -1.
    -200001    1    1    2    0    0  0.18966082036E+03  0.22418129451E+03 -0.13391779261E+03  0.77081933990E+03  0.70000000000E+03 0.  1.
<mgrwt>
<rscale>  0 0.16990706E+04</rscale>
<asrwt>0</asrwt>
<pdfrwt beam="1">  1        2 0.16476812E+00 0.16990706E+04</pdfrwt>
<pdfrwt beam="2">  1       -2 0.89390959E-01 0.16990706E+04</pdfrwt>
<totfact> 0.23290351E+01</totfact>
</mgrwt>
</event>
<event>
 8    1  0.7623533E-028  0.1474608E+04  0.7818608E-02  0.8901516E-01
         -2   -1    0    0    0  501 -0.00000000000E+00  0.00000000000E+00  0.87771734007E+03  0.87771734007E+03  0.25500000000E-02 0. -1.
          2   -1    0    0  501    0  0.00000000000E+00 -0.00000000000E+00 -0.61935353467E+03  0.61935353468E+03  0.25500000000E-02 0.  1.
     200001    2    1    2    0    0 -0.20847469424E+03 -0.78957494722E+02  0.18064166921E+03  0.75833092418E+03  0.70195327039E+03 0.  0.
    5000001    2    3    3    0    0 -0.25076345120E+02 -0.45212803496E+02  0.77020299294E+02  0.21472164635E+03  0.19364978240E+03 0.  0.
        -13    1    4    4    0    0  0.49582108162E+02 -0.79805571843E+02  0.85104216844E+02  0.12676771527E+03  0.10566000000E+00 0. -1.
     200003    1    4    4    0    0 -0.74658453282E+02  0.34592768347E+02 -0.80839175502E+01  0.87953931074E+02  0.30000000000E+02 0. -1.
     200000    1    3    3    0    0 -0.18339834912E+03 -0.33744691226E+02  0.10362136991E+03  0.54360927783E+03  0.50000000000E+03 0. -1.
    -200001    1    1    2    0    0  0.20847469424E+03  0.78957494722E+02  0.77722136187E+02  0.73873995057E+03  0.70000000000E+03 0. -1.
<mgrwt>
<rscale>  0 0.14746082E+04</rscale>
<asrwt>0</asrwt>
<pdfrwt beam="1">  1        2 0.88479077E-01 0.14746082E+04</pdfrwt>
<pdfrwt beam="2">  1       -2 0.12538819E+00 0.14746082E+04</pdfrwt>
<totfact> 0.24101067E+01</totfact>
</mgrwt>
</event>
<event>
 8    1  0.7623533E-028  0.2482750E+04  0.7818608E-02  0.8409157E-01
          2   -1    0    0  501    0  0.00000000000E+00  0.00000000000E+00  0.29749490645E+04  0.29749490645E+04  0.25500000000E-02 0.  1.
         -2   -1    0    0    0  501 -0.00000000000E+00 -0.00000000000E+00 -0.51799599684E+03  0.51799599685E+03  0.25500000000E-02 0. -1.
     200001    2    1    2    0    0 -0.11683654947E+03  0.98204592500E+03  0.16068892836E+04  0.20128526943E+04  0.70101199770E+03 0.  0.
    5000001    2    3    3    0    0  0.38918763655E+02  0.21102436209E+03  0.46709479709E+03  0.54048540328E+03  0.16703583489E+03 0.  0.
        -13    1    4    4    0    0 -0.49198746547E+02  0.11338056163E+03  0.14049921555E+03  0.18712484910E+03  0.10566000000E+00 0. -1.
     200003    1    4    4    0    0  0.88117510202E+02  0.97643800462E+02  0.32659558154E+03  0.35336055418E+03  0.30000000000E+02 0. -1.
     200000    1    3    3    0    0 -0.15575531312E+03  0.77102156291E+03  0.11397944865E+04  0.14723672910E+04  0.50000000000E+03 0. -1.
    -200001    1    1    2    0    0  0.11683654947E+03 -0.98204592500E+03  0.85006378402E+03  0.14800923671E+04  0.70000000000E+03 0.  1.
<mgrwt>
<rscale>  0 0.24827499E+04</rscale>
<asrwt>0</asrwt>
<pdfrwt beam="1">  1        2 0.42499274E+00 0.24827499E+04</pdfrwt>
<pdfrwt beam="2">  1       -2 0.73999426E-01 0.24827499E+04</pdfrwt>
<totfact> 0.35974918E+00</totfact>
</mgrwt>
</event>
<event>
 8    1  0.7623533E-028  0.1831624E+04  0.7818608E-02  0.8689660E-01
         -2   -1    0    0    0  501 -0.00000000000E+00  0.00000000000E+00  0.42414991646E+03  0.42414991647E+03  0.25500000000E-02 0. -1.
          2   -1    0    0  501    0  0.00000000000E+00 -0.00000000000E+00 -0.19773953166E+04  0.19773953166E+04  0.25500000000E-02 0.  1.
     200001    2    1    2    0    0  0.24770354316E+03 -0.53542797786E+03 -0.84333058447E+03  0.12430897051E+04  0.69715520183E+03 0.  0.
    5000001    2    3    3    0    0  0.20447835601E+03 -0.18021992110E+03 -0.22298464905E+03  0.36966526075E+03  0.11242612354E+03 0.  0.
        -13    1    4    4    0    0  0.15180317539E+03 -0.17237695440E+03 -0.19933331094E+03  0.30412464300E+03  0.10566000000E+00 0. -1.
     200003    1    4    4    0    0  0.52675180619E+02 -0.78429666958E+01 -0.23651338112E+02  0.65540617745E+02  0.30000000000E+02 0. -1.
     200000    1    3    3    0    0  0.43225187147E+02 -0.35520805676E+03 -0.62034593542E+03  0.87342444435E+03  0.50000000000E+03 0. -1.
    -200001    1    1    2    0    0 -0.24770354316E+03  0.53542797786E+03 -0.70991481566E+03  0.11584555280E+04  0.70000000000E+03 0.  1.
<mgrwt>
<rscale>  0 0.18316245E+04</rscale>
<asrwt>0</asrwt>
<pdfrwt beam="1">  1        2 0.28248504E+00 0.18316245E+04</pdfrwt>
<pdfrwt beam="2">  1       -2 0.60592846E-01 0.18316245E+04</pdfrwt>
<totfact> 0.19742541E+01</totfact>
</mgrwt>
</event>
<event>
 8    1  0.7623533E-028  0.1948211E+04  0.7818608E-02  0.8631224E-01
          2   -1    0    0  501    0  0.00000000000E+00  0.00000000000E+00  0.40914107670E+04  0.40914107670E+04  0.25500000000E-02 0.  1.
         -2   -1    0    0    0  501 -0.00000000000E+00 -0.00000000000E+00 -0.23192035103E+03  0.23192035104E+03  0.25500000000E-02 0. -1.
     200001    2    1    2    0    0 -0.41714401615E+03 -0.37746012112E+03  0.27681910004E+04  0.29100301283E+04  0.69922003656E+03 0.  0.
    5000001    2    3    3    0    0 -0.86911392937E+02 -0.23871911834E+03  0.82142352387E+03  0.86841158923E+03  0.12190847002E+03 0.  0.
        -13    1    4    4    0    0 -0.62332769882E+02 -0.38271999701E+02  0.15454256002E+03  0.17097816874E+03  0.10566000000E+00 0. -1.
     200003    1    4    4    0    0 -0.24578623056E+02 -0.20044711864E+03  0.66688096385E+03  0.69743342049E+03  0.30000000000E+02 0. -1.
     200000    1    3    3    0    0 -0.33023262321E+03 -0.13874100278E+03  0.19467674765E+04  0.20416185390E+04  0.50000000000E+03 0. -1.
    -200001    1    1    2    0    0  0.41714401615E+03  0.37746012112E+03  0.10912994156E+04  0.14133009898E+04  0.70000000000E+03 0. -1.
<mgrwt>
<rscale>  0 0.19482109E+04</rscale>
<asrwt>0</asrwt>
<pdfrwt beam="1">  1        2 0.58448728E+00 0.19482109E+04</pdfrwt>
<pdfrwt beam="2">  1       -2 0.33131477E-01 0.19482109E+04</pdfrwt>
<totfact> 0.39482967E+00</totfact>
</mgrwt>
</event>
<event>
 8    1  0.7623533E-028  0.1545638E+04  0.7818608E-02  0.8854659E-01
          2   -1    0    0  501    0  0.00000000000E+00  0.00000000000E+00  0.29921728945E+04  0.29921728945E+04  0.25500000000E-02 0.  1.
         -2   -1    0    0    0  501 -0.00000000000E+00 -0.00000000000E+00 -0.19960373500E+03  0.19960373502E+03  0.25500000000E-02 0. -1.
     200001    2    1    2    0    0 -0.25733416262E+03 -0.17387572617E+03  0.16126435089E+04  0.17851216682E+04  0.69970468337E+03 0.  0.
    5000001    2    3    3    0    0 -0.51131576907E+02 -0.11182312102E+03  0.52121830593E+03  0.56545818759E+03  0.18153674814E+03 0.  0.
        -13    1    4    4    0    0 -0.58116226267E+00 -0.31299938150E+01  0.37070136587E+03  0.37071505018E+03  0.10566000000E+00 0. -1.
     200003    1    4    4    0    0 -0.50550414644E+02 -0.10869312720E+03  0.15051694007E+03  0.19474313741E+03  0.30000000000E+02 0. -1.
     200000    1    3    3    0    0 -0.20620258571E+03 -0.62052605149E+02  0.10914252030E+04  0.12196634806E+04  0.50000000000E+03 0.  1.
    -200001    1    1    2    0    0  0.25733416262E+03  0.17387572617E+03  0.11799256506E+04  0.14066549614E+04  0.70000000000E+03 0. -1.
<mgrwt>
<rscale>  0 0.15456376E+04</rscale>
<asrwt>0</asrwt>
<pdfrwt beam="1">  1        2 0.42745328E+00 0.15456376E+04</pdfrwt>
<pdfrwt beam="2">  1       -2 0.28514819E-01 0.15456376E+04</pdfrwt>
<totfact> 0.26011445E+01</totfact>
</mgrwt>
</event>
<event>
 8    1  0.7623533E-028  0.1595090E+04  0.7818608E-02  0.8823570E-01
         -2   -1    0    0    0  501 -0.00000000000E+00  0.00000000000E+00  0.14358298032E+03  0.14358298034E+03  0.25500000000E-02 0. -1.
          2   -1    0    0  501    0  0.00000000000E+00 -0.00000000000E+00 -0.44300381007E+04  0.44300381007E+04  0.25500000000E-02 0.  1.
     200001    2    1    2    0    0 -0.79147818576E+02  0.34911083108E+03 -0.25261487054E+04  0.26457151123E+04  0.70017028232E+03 0.  0.
    5000001    2    3    3    0    0  0.45801864512E+02  0.10046982904E+03 -0.67142676831E+03  0.70472870457E+03  0.18340295661E+03 0.  0.
        -13    1    4    4    0    0  0.13134755470E+02  0.12729409386E+03 -0.61473307035E+03  0.62791167140E+03  0.10566000000E+00 0. -1.
     200003    1    4    4    0    0  0.32667109041E+02 -0.26824264816E+02 -0.56693697964E+02  0.76817033169E+02  0.30000000000E+02 0. -1.
     200000    1    3    3    0    0 -0.12494968309E+03  0.24864100204E+03 -0.18547219371E+04  0.19409864077E+04  0.50000000000E+03 0.  1.
    -200001    1    1    2    0    0  0.79147818576E+02 -0.34911083108E+03 -0.17603064149E+04  0.19279059687E+04  0.70000000000E+03 0.  1.
<mgrwt>
<rscale>  0 0.15950901E+04</rscale>
<asrwt>0</asrwt>
<pdfrwt beam="1">  1        2 0.63286250E+00 0.15950901E+04</pdfrwt>
<pdfrwt beam="2">  1       -2 0.20511857E-01 0.15950901E+04</pdfrwt>
<totfact> 0.55386717E+00</totfact>
</mgrwt>
</event>
<event>
 8    1  0.7623533E-028  0.1796497E+04  0.7818608E-02  0.8708165E-01
          2   -1    0    0  501    0  0.00000000000E+00  0.00000000000E+00  0.56787380094E+03  0.56787380095E+03  0.25500000000E-02 0.  1.
         -2   -1    0    0    0  501 -0.00000000000E+00 -0.00000000000E+00 -0.14208265337E+04  0.14208265337E+04  0.25500000000E-02 0. -1.
     200001    2    1    2    0    0  0.12017167412E+03 -0.52885554072E+03 -0.25776113189E+03  0.92175026274E+03  0.69932348133E+03 0.  0.
    5000001    2    3    3    0    0  0.16165449730E+02 -0.17194147059E+03 -0.36645486731E+02  0.26061708652E+03  0.19171119690E+03 0.  0.
        -13    1    4    4    0    0  0.92443803529E+02 -0.40146005645E+02 -0.30469041594E+02  0.10528975373E+03  0.10566000000E+00 0. -1.
     200003    1    4    4    0    0 -0.76278353799E+02 -0.13179546495E+03 -0.61764451367E+01  0.15532733279E+03  0.30000000000E+02 0. -1.
     200000    1    3    3    0    0  0.10400622439E+03 -0.35691407013E+03 -0.22111564516E+03  0.66113317622E+03  0.50000000000E+03 0. -1.
    -200001    1    1    2    0    0 -0.12017167412E+03  0.52885554072E+03 -0.59519160087E+03  0.10669500719E+04  0.70000000000E+03 0. -1.
<mgrwt>
<rscale>  0 0.17964968E+04</rscale>
<asrwt>0</asrwt>
<pdfrwt beam="1">  1        2 0.81124830E-01 0.17964968E+04</pdfrwt>
<pdfrwt beam="2">  1       -2 0.20297522E+00 0.17964968E+04</pdfrwt>
<totfact> 0.69687229E+00</totfact>
</mgrwt>
</event>
<event>
 8    1  0.7623533E-028  0.1790822E+04  0.7818608E-02  0.8711196E-01
         -2   -1    0    0    0  501 -0.00000000000E+00  0.00000000000E+00  0.40381186598E+03  0.40381186599E+03  0.25500000000E-02 0. -1.
          2   -1    0    0  501    0  0.00000000000E+00 -0.00000000000E+00 -0.19854808879E+04  0.19854808879E+04  0.25500000000E-02 0.  1.
     200001    2    1    2    0    0  0.32744753204E+03  0.19746873395E+03 -0.24699199464E+03  0.83443631220E+03  0.69933048452E+03 0.  0.
    5000001    2    3    3    0    0  0.15370194235E+03  0.85195082961E+02 -0.84076903454E+02  0.26933965712E+03  0.18599041901E+03 0.  0.
        -13    1    4    4    0    0  0.25104389731E+02  0.21595885880E+02 -0.11489036559E+03  0.11956763752E+03  0.10566000000E+00 0. -1.
     200003    1    4    4    0    0  0.12859755262E+03  0.63599197081E+02  0.30813462139E+02  0.14977201961E+03  0.30000000000E+02 0. -1.
     200000    1    3    3    0    0  0.17374558970E+03  0.11227365099E+03 -0.16291509118E+03  0.56509665508E+03  0.50000000000E+03 0. -1.
    -200001    1    1    2    0    0 -0.32744753204E+03 -0.19746873395E+03 -0.13346770273E+04  0.15548564417E+04  0.70000000000E+03 0.  1.
<mgrwt>
<rscale>  0 0.17908219E+04</rscale>
<asrwt>0</asrwt>
<pdfrwt beam="1">  1        2 0.28364012E+00 0.17908219E+04</pdfrwt>
<pdfrwt beam="2">  1       -2 0.57687411E-01 0.17908219E+04</pdfrwt>
<totfact> 0.21757669E+01</totfact>
</mgrwt>
</event>
<event>
 8    1  0.7623533E-028  0.1576027E+04  0.7818608E-02  0.8835412E-01
          2   -1    0    0  501    0  0.00000000000E+00  0.00000000000E+00  0.38663213490E+03  0.38663213491E+03  0.25500000000E-02 0. -1.
         -2   -1    0    0    0  501 -0.00000000000E+00 -0.00000000000E+00 -0.16060881570E+04  0.16060881570E+04  0.25500000000E-02 0.  1.
     200001    2    1    2    0    0 -0.32723078510E+03 -0.12343654816E+03 -0.48872816088E+03  0.92207573123E+03  0.69932243690E+03 0.  0.
    5000001    2    3    3    0    0 -0.16980156493E+03 -0.45805041688E+02 -0.18869734983E+03  0.31311834542E+03  0.17749854959E+03 0.  0.
        -13    1    4    4    0    0 -0.94630459339E+02 -0.98272633466E+02 -0.16442947964E+03  0.21365743437E+03  0.10566000000E+00 0. -1.
     200003    1    4    4    0    0 -0.75171105589E+02  0.52467591778E+02 -0.24267870190E+02  0.99460911045E+02  0.30000000000E+02 0. -1.
     200000    1    3    3    0    0 -0.15742922017E+03 -0.77631506476E+02 -0.30003081105E+03  0.60895738582E+03  0.50000000000E+03 0.  1.
    -200001    1    1    2    0    0  0.32723078510E+03  0.12343654816E+03 -0.73072786119E+03  0.10706445607E+04  0.70000000000E+03 0.  1.
<mgrwt>
<rscale>  0 0.15760270E+04</rscale>
<asrwt>0</asrwt>
<pdfrwt beam="1">  1        2 0.55233163E-01 0.15760270E+04</pdfrwt>
<pdfrwt beam="2">  1       -2 0.22944116E+00 0.15760270E+04</pdfrwt>
<totfact> 0.74527038E+00</totfact>
</mgrwt>
</event>
<event>
 8    1  0.7623533E-028  0.2253812E+04  0.7818608E-02  0.8496358E-01
          2   -1    0    0  501    0  0.00000000000E+00  0.00000000000E+00  0.24738591833E+04  0.24738591833E+04  0.25500000000E-02 0.  1.
         -2   -1    0    0    0  501 -0.00000000000E+00 -0.00000000000E+00 -0.51333423023E+03  0.51333423024E+03  0.25500000000E-02 0. -1.
     200001    2    1    2    0    0  0.95332224921E+02 -0.63739638175E+03  0.18194968078E+03  0.97009342103E+03  0.70186407418E+03 0.  0.
    5000001    2    3    3    0    0 -0.21518053120E+01 -0.27937371109E+03  0.48736870694E+02  0.33336033596E+03  0.17521281435E+03 0.  0.
        -13    1    4    4    0    0 -0.82440605545E+01 -0.27808657537E+00 -0.38481687734E+02  0.39355982029E+02  0.10566000000E+00 0. -1.
     200003    1    4    4    0    0  0.60922552425E+01 -0.27909562452E+03  0.87218558427E+02  0.29400435393E+03  0.30000000000E+02 0. -1.
     200000    1    3    3    0    0  0.97484030233E+02 -0.35802267066E+03  0.13321281009E+03  0.63673308507E+03  0.50000000000E+03 0. -1.
    -200001    1    1    2    0    0 -0.95332224921E+02  0.63739638175E+03  0.17785752723E+04  0.20170999925E+04  0.70000000000E+03 0.  1.
<mgrwt>
<rscale>  0 0.22538115E+04</rscale>
<asrwt>0</asrwt>
<pdfrwt beam="1">  1        2 0.35340846E+00 0.22538115E+04</pdfrwt>
<pdfrwt beam="2">  1       -2 0.73333461E-01 0.22538115E+04</pdfrwt>
<totfact> 0.69810552E+00</totfact>
</mgrwt>
</event>
<event>
 8    1  0.7623533E-028  0.1465464E+04  0.7818608E-02  0.8907749E-01
         -2   -1    0    0    0  501 -0.00000000000E+00  0.00000000000E+00  0.27547135363E+04  0.27547135363E+04  0.25500000000E-02 0. -1.
          2   -1    0    0  501    0  0.00000000000E+00 -0.00000000000E+00 -0.19490093282E+03  0.19490093284E+03  0.25500000000E-02 0.  1.
     200001    2    1    2    0    0 -0.20911949785E+03  0.46353620599E+02  0.13529066923E+04  0.15380545161E+04  0.69955382491E+03 0.  0.
    5000001    2    3    3    0    0 -0.83750580582E+01  0.83732676944E+01  0.48887509020E+03  0.51908864488E+03  0.17410891480E+03 0.  0.
        -13    1    4    4    0    0 -0.54513427305E+02  0.36511823884E+01  0.42263654127E+02  0.69074398395E+02  0.10566000000E+00 0. -1.
     200003    1    4    4    0    0  0.46138369247E+02  0.47220853060E+01  0.44661143607E+03  0.45001424648E+03  0.30000000000E+02 0. -1.
     200000    1    3    3    0    0 -0.20074443979E+03  0.37980352904E+02  0.86403160210E+03  0.10189658712E+04  0.50000000000E+03 0. -1.
    -200001    1    1    2    0    0  0.20911949785E+03 -0.46353620599E+02  0.12069059111E+04  0.14115599530E+04  0.70000000000E+03 0.  1.
<mgrwt>
<rscale>  0 0.14654641E+04</rscale>
<asrwt>0</asrwt>
<pdfrwt beam="1">  1        2 0.27842990E-01 0.14654641E+04</pdfrwt>
<pdfrwt beam="2">  1       -2 0.39353051E+00 0.14654641E+04</pdfrwt>
<totfact> 0.15548776E+00</totfact>
</mgrwt>
</event>
<event>
 8    1  0.7623533E-028  0.1478775E+04  0.7818608E-02  0.8898692E-01
          2   -1    0    0  501    0  0.00000000000E+00  0.00000000000E+00  0.24259120180E+04  0.24259120180E+04  0.25500000000E-02 0.  1.
         -2   -1    0    0    0  501 -0.00000000000E+00 -0.00000000000E+00 -0.22535587583E+03  0.22535587585E+03  0.25500000000E-02 0. -1.
     200001    2    1    2    0    0 -0.13780560469E+02 -0.20450601819E+03  0.13174762894E+04  0.15059109007E+04  0.70000803742E+03 0.  0.
    5000001    2    3    3    0    0  0.35388654132E+02 -0.15719867752E+03  0.58969117886E+03  0.62028865434E+03  0.10515962738E+03 0.  0.
        -13    1    4    4    0    0  0.59403267483E+02 -0.10033211817E+03  0.28432093607E+03  0.30730064754E+03  0.10566000000E+00 0. -1.
     200003    1    4    4    0    0 -0.24014613351E+02 -0.56866559358E+02  0.30537024278E+03  0.31298800681E+03  0.30000000000E+02 0. -1.
     200000    1    3    3    0    0 -0.49169214601E+02 -0.47307340664E+02  0.72778511052E+03  0.88562224635E+03  0.50000000000E+03 0.  1.
    -200001    1    1    2    0    0  0.13780560469E+02  0.20450601819E+03  0.88307985276E+03  0.11453569931E+04  0.70000000000E+03 0. -1.
<mgrwt>
<rscale>  0 0.14787745E+04</rscale>
<asrwt>0</asrwt>
<pdfrwt beam="1">  1        2 0.34655887E+00 0.14787745E+04</pdfrwt>
<pdfrwt beam="2">  1       -2 0.32193696E-01 0.14787745E+04</pdfrwt>
<totfact> 0.42025518E+01</totfact>
</mgrwt>
</event>
<event>
 8    1  0.7623533E-028  0.1658094E+04  0.7818608E-02  0.8785633E-01
          2   -1    0    0  501    0  0.00000000000E+00  0.00000000000E+00  0.37345640304E+04  0.37345640305E+04  0.25500000000E-02 0.  1.
         -2   -1    0    0    0  501 -0.00000000000E+00 -0.00000000000E+00 -0.18404252204E+03  0.18404252205E+03  0.25500000000E-02 0. -1.
     200001    2    1    2    0    0 -0.43760570961E+02  0.25277680559E+03  0.92029864801E+03  0.11847661408E+04  0.70064977411E+03 0.  0.
    5000001    2    3    3    0    0 -0.15312030852E+02  0.79138984093E+02  0.22846105423E+03  0.31321656185E+03  0.19852638168E+03 0.  0.
        -13    1    4    4    0    0  0.28501072901E+02  0.13366870687E+03  0.12866337004E+03  0.18770697458E+03  0.10566000000E+00 0. -1.
     200003    1    4    4    0    0 -0.43813103753E+02 -0.54529722775E+02  0.99797684195E+02  0.12550958727E+03  0.30000000000E+02 0. -1.
     200000    1    3    3    0    0 -0.28448540110E+02  0.17363782150E+03  0.69183759377E+03  0.87154957900E+03  0.50000000000E+03 0. -1.
    -200001    1    1    2    0    0  0.43760570961E+02 -0.25277680559E+03  0.26302228604E+04  0.27338404117E+04  0.70000000000E+03 0.  1.
<mgrwt>
<rscale>  0 0.16580936E+04</rscale>
<asrwt>0</asrwt>
<pdfrwt beam="1">  1        2 0.53350916E+00 0.16580936E+04</pdfrwt>
<pdfrwt beam="2">  1       -2 0.26291788E-01 0.16580936E+04</pdfrwt>
<totfact> 0.10824631E+01</totfact>
</mgrwt>
</event>
<event>
 8    1  0.7623533E-028  0.3062859E+04  0.7818608E-02  0.8226005E-01
          2   -1    0    0  501    0  0.00000000000E+00  0.00000000000E+00  0.18483058014E+04  0.18483058014E+04  0.25500000000E-02 0.  1.
         -2   -1    0    0    0  501 -0.00000000000E+00 -0.00000000000E+00 -0.12688790985E+04  0.12688790985E+04  0.25500000000E-02 0. -1.
     200001    2    1    2    0    0 -0.56843240901E+03  0.12372283810E+04  0.33248713093E+03  0.15664339133E+04  0.69951271765E+03 0.  0.
    5000001    2    3    3    0    0 -0.12751484778E+03  0.45492727019E+03  0.20790551523E+03  0.53109633417E+03  0.12497901964E+03 0.  0.
        -13    1    4    4    0    0 -0.78313133914E+02  0.40486076455E+03  0.17652931176E+03  0.44856191846E+03  0.10566000000E+00 0. -1.
     200003    1    4    4    0    0 -0.49201713864E+02  0.50066505635E+02  0.31376203469E+02  0.82534415717E+02  0.30000000000E+02 0. -1.
     200000    1    3    3    0    0 -0.44091756124E+03  0.78230111077E+03  0.12458161570E+03  0.10353375791E+04  0.50000000000E+03 0. -1.
    -200001    1    1    2    0    0  0.56843240901E+03 -0.12372283810E+04  0.24693957203E+03  0.15507509866E+04  0.70000000000E+03 0.  1.
<mgrwt>
<rscale>  0 0.30628592E+04</rscale>
<asrwt>0</asrwt>
<pdfrwt beam="1">  1        2 0.26404369E+00 0.30628592E+04</pdfrwt>
<pdfrwt beam="2">  1       -2 0.18126844E+00 0.30628592E+04</pdfrwt>
<totfact> 0.14661485E+00</totfact>
</mgrwt>
</event>
<event>
 8    1  0.7623533E-028  0.1902371E+04  0.7818608E-02  0.8653677E-01
          2   -1    0    0  501    0  0.00000000000E+00  0.00000000000E+00  0.20977706437E+04  0.20977706437E+04  0.25500000000E-02 0.  1.
         -2   -1    0    0    0  501 -0.00000000000E+00 -0.00000000000E+00 -0.43129318105E+03  0.43129318105E+03  0.25500000000E-02 0. -1.
     200001    2    1    2    0    0 -0.18676127415E+03 -0.58632218597E+03  0.10834180454E+04  0.14296950225E+04  0.70112746133E+03 0.  0.
    5000001    2    3    3    0    0 -0.15502792563E+03 -0.11816180845E+03  0.28147604203E+03  0.37456843236E+03  0.15191075532E+03 0.  0.
        -13    1    4    4    0    0 -0.61293510593E+02 -0.18648269676E+02  0.44844697030E+01  0.64224403737E+02  0.10566000000E+00 0. -1.
     200003    1    4    4    0    0 -0.93734415034E+02 -0.99513538774E+02  0.27699157233E+03  0.31034402862E+03  0.30000000000E+02 0. -1.
     200000    1    3    3    0    0 -0.31733348522E+02 -0.46816037752E+03  0.80194200336E+03  0.10551265901E+04  0.50000000000E+03 0. -1.
    -200001    1    1    2    0    0  0.18676127415E+03  0.58632218597E+03  0.58305941726E+03  0.10993688022E+04  0.70000000000E+03 0. -1.
<mgrwt>
<rscale>  0 0.19023713E+04</rscale>
<asrwt>0</asrwt>
<pdfrwt beam="1">  1        2 0.29968152E+00 0.19023713E+04</pdfrwt>
<pdfrwt beam="2">  1       -2 0.61613313E-01 0.19023713E+04</pdfrwt>
<totfact> 0.16427321E+01</totfact>
</mgrwt>
</event>
<event>
 8    1  0.7623533E-028  0.1631643E+04  0.7818608E-02  0.8801341E-01
         -2   -1    0    0    0  501 -0.00000000000E+00  0.00000000000E+00  0.14503638154E+04  0.14503638154E+04  0.25500000000E-02 0. -1.
          2   -1    0    0  501    0  0.00000000000E+00 -0.00000000000E+00 -0.45889478001E+03  0.45889478002E+03  0.25500000000E-02 0.  1.
     200001    2    1    2    0    0 -0.77585728653E+02  0.36583737224E+03  0.71434160896E+03  0.10686301765E+04  0.70130591873E+03 0.  0.
    5000001    2    3    3    0    0  0.14439030519E+02  0.14636265181E+03  0.21850231467E+03  0.32533056332E+03  0.19096125908E+03 0.  0.
        -13    1    4    4    0    0  0.45449156706E+02  0.13195495136E+03  0.23795045274E+03  0.27585895699E+03  0.10566000000E+00 0. -1.
     200003    1    4    4    0    0 -0.31010126186E+02  0.14407700454E+02 -0.19448138066E+02  0.49471606328E+02  0.30000000000E+02 0. -1.
     200000    1    3    3    0    0 -0.92024759173E+02  0.21947472042E+03  0.49583929429E+03  0.74329961319E+03  0.50000000000E+03 0. -1.
    -200001    1    1    2    0    0  0.77585728653E+02 -0.36583737224E+03  0.27712742644E+03  0.84062841892E+03  0.70000000000E+03 0.  1.
<mgrwt>
<rscale>  0 0.16316426E+04</rscale>
<asrwt>0</asrwt>
<pdfrwt beam="1">  1        2 0.65556397E-01 0.16316426E+04</pdfrwt>
<pdfrwt beam="2">  1       -2 0.20719483E+00 0.16316426E+04</pdfrwt>
<totfact> 0.84703559E+00</totfact>
</mgrwt>
</event>
<event>
 8    1  0.7623533E-028  0.3305936E+04  0.7818608E-02  0.8161387E-01
         -2   -1    0    0    0  501 -0.00000000000E+00  0.00000000000E+00  0.14666377088E+04  0.14666377088E+04  0.25500000000E-02 0. -1.
          2   -1    0    0  501    0  0.00000000000E+00 -0.00000000000E+00 -0.18629705741E+04  0.18629705741E+04  0.25500000000E-02 0.  1.
     200001    2    1    2    0    0  0.25716742234E+02  0.13281763400E+04 -0.89410188221E+03  0.17476829575E+04  0.70018840567E+03 0.  0.
    5000001    2    3    3    0    0 -0.69744835937E+01  0.45024178720E+03 -0.30030977445E+03  0.57532342974E+03  0.19505070576E+03 0.  0.
        -13    1    4    4    0    0 -0.65806901697E+02  0.13561978947E+03 -0.17324285855E+03  0.22964401758E+03  0.10566000000E+00 0. -1.
     200003    1    4    4    0    0  0.58832418103E+02  0.31462199773E+03 -0.12706691590E+03  0.34567941216E+03  0.30000000000E+02 0. -1.
     200000    1    3    3    0    0  0.32691225828E+02  0.87793455277E+03 -0.59379210776E+03  0.11723595278E+04  0.50000000000E+03 0. -1.
    -200001    1    1    2    0    0 -0.25716742234E+02 -0.13281763400E+04  0.49776901682E+03  0.15819253254E+04  0.70000000000E+03 0. -1.
<mgrwt>
<rscale>  0 0.33059358E+04</rscale>
<asrwt>0</asrwt>
<pdfrwt beam="1">  1        2 0.26613865E+00 0.33059358E+04</pdfrwt>
<pdfrwt beam="2">  1       -2 0.20951967E+00 0.33059358E+04</pdfrwt>
<totfact> 0.91726755E-01</totfact>
</mgrwt>
</event>
<event>
 8    1  0.7623533E-028  0.1890024E+04  0.7818608E-02  0.8659838E-01
          2   -1    0    0  501    0  0.00000000000E+00  0.00000000000E+00  0.73764510353E+03  0.73764510354E+03  0.25500000000E-02 0.  1.
         -2   -1    0    0    0  501 -0.00000000000E+00 -0.00000000000E+00 -0.12106733542E+04  0.12106733542E+04  0.25500000000E-02 0. -1.
     200001    2    1    2    0    0 -0.18906576583E+03  0.23272347853E+03 -0.81395909222E+03  0.11139684592E+04  0.69892077019E+03 0.  0.
    5000001    2    3    3    0    0 -0.16623878915E+02  0.32362357471E+02 -0.18039824371E+03  0.26468633177E+03  0.19024103753E+03 0.  0.
        -13    1    4    4    0    0 -0.75926401661E+02 -0.47583162952E+02 -0.88205301849E+02  0.12573449131E+03  0.10566000000E+00 0. -1.
     200003    1    4    4    0    0  0.59302522746E+02  0.79945520422E+02 -0.92192941856E+02  0.13895184046E+03  0.30000000000E+02 0. -1.
     200000    1    3    3    0    0 -0.17244188692E+03  0.20036112106E+03 -0.63356084852E+03  0.84928212743E+03  0.50000000000E+03 0. -1.
    -200001    1    1    2    0    0  0.18906576583E+03 -0.23272347853E+03  0.34093084159E+03  0.83434999851E+03  0.70000000000E+03 0.  1.
<mgrwt>
<rscale>  0 0.18900236E+04</rscale>
<asrwt>0</asrwt>
<pdfrwt beam="1">  1        2 0.10537787E+00 0.18900236E+04</pdfrwt>
<pdfrwt beam="2">  1       -2 0.17295334E+00 0.18900236E+04</pdfrwt>
<totfact> 0.80482174E+00</totfact>
</mgrwt>
</event>
<event>
 8    1  0.7623533E-028  0.1480560E+04  0.7818608E-02  0.8897484E-01
         -2   -1    0    0    0  501 -0.00000000000E+00  0.00000000000E+00  0.22842401622E+03  0.22842401624E+03  0.25500000000E-02 0. -1.
          2   -1    0    0  501    0  0.00000000000E+00 -0.00000000000E+00 -0.23991118304E+04  0.23991118304E+04  0.25500000000E-02 0.  1.
     200001    2    1    2    0    0 -0.11457458594E+03 -0.53343200924E+02 -0.14681060224E+04  0.16277388638E+04  0.69153863433E+03 0.  0.
    5000001    2    3    3    0    0  0.40170330057E+00 -0.73587506250E+02 -0.43376927532E+03  0.47297400227E+03  0.17358957391E+03 0.  0.
        -13    1    4    4    0    0  0.47188921916E+02 -0.11003072466E+03 -0.24161286067E+03  0.26964854964E+03  0.10566000000E+00 0. -1.
     200003    1    4    4    0    0 -0.46787218615E+02  0.36443218409E+02 -0.19215641465E+03  0.20332545263E+03  0.30000000000E+02 0. -1.
     200000    1    3    3    0    0 -0.11497628924E+03  0.20244305326E+02 -0.10343367471E+04  0.11547648615E+04  0.50000000000E+03 0.  1.
    -200001    1    1    2    0    0  0.11457458594E+03  0.53343200924E+02 -0.70258179176E+03  0.99979698286E+03  0.70000000000E+03 0. -1.
<mgrwt>
<rscale>  0 0.14805604E+04</rscale>
<asrwt>0</asrwt>
<pdfrwt beam="1">  1        2 0.34273025E+00 0.14805604E+04</pdfrwt>
<pdfrwt beam="2">  1       -2 0.32632004E-01 0.14805604E+04</pdfrwt>
<totfact> 0.42301120E+01</totfact>
</mgrwt>
</event>
<event>
 8    1  0.7623533E-028  0.1452263E+04  0.7818608E-02  0.8916833E-01
          2   -1    0    0  501    0  0.00000000000E+00  0.00000000000E+00  0.15147756306E+04  0.15147756306E+04  0.25500000000E-02 0.  1.
         -2   -1    0    0    0  501 -0.00000000000E+00 -0.00000000000E+00 -0.34808238069E+03  0.34808238070E+03  0.25500000000E-02 0. -1.
     200001    2    1    2    0    0  0.95844320951E+02  0.13291645920E+03  0.71095440714E+03  0.10116525063E+04  0.70080789482E+03 0.  0.
    5000001    2    3    3    0    0 -0.12704241571E+02  0.55444736827E+02  0.19914621762E+03  0.28382541070E+03  0.19406733670E+03 0.  0.
        -13    1    4    4    0    0  0.59157831426E+01  0.99962312945E+01 -0.38030968844E+02  0.39765398093E+02  0.10566000000E+00 0. -1.
     200003    1    4    4    0    0 -0.18620024713E+02  0.45448505533E+02  0.23717718647E+03  0.24406001261E+03  0.30000000000E+02 0. -1.
     200000    1    3    3    0    0  0.10854856252E+03  0.77471722376E+02  0.51180818952E+03  0.72782709558E+03  0.50000000000E+03 0.  1.
    -200001    1    1    2    0    0 -0.95844320951E+02 -0.13291645920E+03  0.45573884277E+03  0.85120550503E+03  0.70000000000E+03 0.  1.
<mgrwt>
<rscale>  0 0.14522627E+04</rscale>
<asrwt>0</asrwt>
<pdfrwt beam="1">  1        2 0.21639652E+00 0.14522627E+04</pdfrwt>
<pdfrwt beam="2">  1       -2 0.49726054E-01 0.14522627E+04</pdfrwt>
<totfact> 0.53324674E+01</totfact>
</mgrwt>
</event>
<event>
 8    1  0.7623533E-028  0.1617070E+04  0.7818608E-02  0.8810129E-01
         -2   -1    0    0    0  501 -0.00000000000E+00  0.00000000000E+00  0.40811932046E+03  0.40811932047E+03  0.25500000000E-02 0. -1.
          2   -1    0    0  501    0  0.00000000000E+00 -0.00000000000E+00 -0.16018077103E+04  0.16018077103E+04  0.25500000000E-02 0.  1.
     200001    2    1    2    0    0 -0.27895453933E+03  0.29228239856E+03 -0.55971171703E+03  0.98271183562E+03  0.69942884568E+03 0.  0.
    5000001    2    3    3    0    0  0.24760702214E+02  0.42712817739E+02 -0.89962003101E+02  0.19202054482E+03  0.16229987818E+03 0.  0.
        -13    1    4    4    0    0  0.14412299926E+02 -0.48050063254E+02  0.12304076656E+02  0.51651954796E+02  0.10566000000E+00 0. -1.
     200003    1    4    4    0    0  0.10348402289E+02  0.90762880993E+02 -0.10226607976E+03  0.14036859002E+03  0.30000000000E+02 0. -1.
     200000    1    3    3    0    0 -0.30371524154E+03  0.24956958082E+03 -0.46974971393E+03  0.79069129081E+03  0.50000000000E+03 0. -1.
    -200001    1    1    2    0    0  0.27895453933E+03 -0.29228239856E+03 -0.63397667285E+03  0.10272151952E+04  0.70000000000E+03 0.  1.
<mgrwt>
<rscale>  0 0.16170698E+04</rscale>
<asrwt>0</asrwt>
<pdfrwt beam="1">  1        2 0.22882967E+00 0.16170698E+04</pdfrwt>
<pdfrwt beam="2">  1       -2 0.58302761E-01 0.16170698E+04</pdfrwt>
<totfact> 0.34093061E+01</totfact>
</mgrwt>
</event>
<event>
 8    1  0.7623533E-028  0.1668345E+04  0.7818608E-02  0.8779627E-01
         -2   -1    0    0    0  501 -0.00000000000E+00  0.00000000000E+00  0.56469743235E+03  0.56469743235E+03  0.25500000000E-02 0. -1.
          2   -1    0    0  501    0  0.00000000000E+00 -0.00000000000E+00 -0.12322422831E+04  0.12322422831E+04  0.25500000000E-02 0.  1.
     200001    2    1    2    0    0 -0.46428905355E+02  0.45173465765E+03 -0.32431685173E+03  0.89470620718E+03  0.69935536938E+03 0.  0.
    5000001    2    3    3    0    0  0.59624878026E+02  0.17831672493E+03 -0.11255661686E+03  0.27757804547E+03  0.17037781211E+03 0.  0.
        -13    1    4    4    0    0  0.54522174631E+02 -0.12153283107E+02 -0.49529395801E+02  0.74656158683E+02  0.10566000000E+00 0. -1.
     200003    1    4    4    0    0  0.51027033946E+01  0.19047000803E+03 -0.63027221056E+02  0.20292188679E+03  0.30000000000E+02 0. -1.
     200000    1    3    3    0    0 -0.10605378338E+03  0.27341793273E+03 -0.21176023487E+03  0.61712816171E+03  0.50000000000E+03 0.  1.
    -200001    1    1    2    0    0  0.46428905355E+02 -0.45173465765E+03 -0.34322799906E+03  0.90223350831E+03  0.70000000000E+03 0. -1.
<mgrwt>
<rscale>  0 0.16683454E+04</rscale>
<asrwt>0</asrwt>
<pdfrwt beam="1">  1        2 0.17603461E+00 0.16683454E+04</pdfrwt>
<pdfrwt beam="2">  1       -2 0.80671062E-01 0.16683454E+04</pdfrwt>
<totfact> 0.26581275E+01</totfact>
</mgrwt>
</event>
<event>
 8    1  0.7623533E-028  0.1501710E+04  0.7818608E-02  0.8883317E-01
          2   -1    0    0  501    0  0.00000000000E+00  0.00000000000E+00  0.12542375717E+04  0.12542375717E+04  0.25500000000E-02 0.  1.
         -2   -1    0    0    0  501 -0.00000000000E+00 -0.00000000000E+00 -0.44950245611E+03  0.44950245612E+03  0.25500000000E-02 0. -1.
     200001    2    1    2    0    0 -0.26499540099E+03  0.30246150354E+02  0.34659972708E+03  0.82565949259E+03  0.70031766702E+03 0.  0.
    5000001    2    3    3    0    0 -0.11960042058E+03  0.11860113564E+01  0.15676149661E+03  0.27066152345E+03  0.18541258380E+03 0.  0.
        -13    1    4    4    0    0  0.11630822925E+02 -0.66688895568E+02  0.66776387065E+02  0.95088284596E+02  0.10566000000E+00 0. -1.
     200003    1    4    4    0    0 -0.13123124350E+03  0.67874906924E+02  0.89985109547E+02  0.17557323885E+03  0.30000000000E+02 0. -1.
     200000    1    3    3    0    0 -0.14539498041E+03  0.29060138998E+02  0.18983823046E+03  0.55499796914E+03  0.50000000000E+03 0. -1.
    -200001    1    1    2    0    0  0.26499540099E+03 -0.30246150354E+02  0.45813538854E+03  0.87808053525E+03  0.70000000000E+03 0.  1.
<mgrwt>
<rscale>  0 0.15017095E+04</rscale>
<asrwt>0</asrwt>
<pdfrwt beam="1">  1        2 0.17917680E+00 0.15017095E+04</pdfrwt>
<pdfrwt beam="2">  1       -2 0.64214636E-01 0.15017095E+04</pdfrwt>
<totfact> 0.43179313E+01</totfact>
</mgrwt>
</event>
<event>
 8    1  0.7623533E-028  0.1599880E+04  0.7818608E-02  0.8820622E-01
         -2   -1    0    0    0  501 -0.00000000000E+00  0.00000000000E+00  0.16277238457E+04  0.16277238457E+04  0.25500000000E-02 0. -1.
          2   -1    0    0  501    0  0.00000000000E+00 -0.00000000000E+00 -0.39312789155E+03  0.39312789155E+03  0.25500000000E-02 0.  1.
     200001    2    1    2    0    0  0.10649412835E+03  0.32258599167E+03  0.85111471862E+03  0.11534068805E+04  0.70039163790E+03 0.  0.
    5000001    2    3    3    0    0 -0.11014762314E+02  0.83987100975E+02  0.29068152452E+03  0.35664899067E+03  0.18848765405E+03 0.  0.
        -13    1    4    4    0    0 -0.87048239809E+02  0.33321126573E+02  0.21479442478E+03  0.23414600063E+03  0.10566000000E+00 0. -1.
     200003    1    4    4    0    0  0.76033477495E+02  0.50665974402E+02  0.75887099743E+02  0.12250299004E+03  0.30000000000E+02 0. -1.
     200000    1    3    3    0    0  0.11750889066E+03  0.23859889069E+03  0.56043319410E+03  0.79675788987E+03  0.50000000000E+03 0. -1.
    -200001    1    1    2    0    0 -0.10649412835E+03 -0.32258599167E+03  0.38348123549E+03  0.86744485667E+03  0.70000000000E+03 0. -1.
<mgrwt>
<rscale>  0 0.15998795E+04</rscale>
<asrwt>0</asrwt>
<pdfrwt beam="1">  1        2 0.56161127E-01 0.15998795E+04</pdfrwt>
<pdfrwt beam="2">  1       -2 0.23253198E+00 0.15998795E+04</pdfrwt>
<totfact> 0.69843428E+00</totfact>
</mgrwt>
</event>
<event>
 8    1  0.7623533E-028  0.2432914E+04  0.7818608E-02  0.8427283E-01
         -2   -1    0    0    0  501 -0.00000000000E+00  0.00000000000E+00  0.22179666780E+04  0.22179666780E+04  0.25500000000E-02 0. -1.
          2   -1    0    0  501    0  0.00000000000E+00 -0.00000000000E+00 -0.66717321920E+03  0.66717321921E+03  0.25500000000E-02 0.  1.
     200001    2    1    2    0    0  0.79999344789E+03  0.37850199087E+03  0.23646048756E+03  0.11528799765E+04  0.69997528829E+03 0.  0.
    5000001    2    3    3    0    0  0.91986193324E+02  0.48335058186E+02  0.57580476849E+02  0.20827289721E+03  0.17106826353E+03 0.  0.
        -13    1    4    4    0    0 -0.31429182009E+02  0.64399044377E+02  0.13823631907E+02  0.72980369700E+02  0.10566000000E+00 0. -1.
     200003    1    4    4    0    0  0.12341537533E+03 -0.16063986191E+02  0.43756844941E+02  0.13529252751E+03  0.30000000000E+02 0. -1.
     200000    1    3    3    0    0  0.70800725456E+03  0.33016693268E+03  0.17888001071E+03  0.94460707926E+03  0.50000000000E+03 0.  1.
    -200001    1    1    2    0    0 -0.79999344789E+03 -0.37850199087E+03  0.13143329713E+04  0.17322599208E+04  0.70000000000E+03 0. -1.
<mgrwt>
<rscale>  0 0.24329143E+04</rscale>
<asrwt>0</asrwt>
<pdfrwt beam="1">  1        2 0.95310458E-01 0.24329143E+04</pdfrwt>
<pdfrwt beam="2">  1       -2 0.31685239E+00 0.24329143E+04</pdfrwt>
<totfact> 0.10775148E+00</totfact>
</mgrwt>
</event>
<event>
 8    1  0.7623533E-028  0.1504342E+04  0.7818608E-02  0.8881570E-01
          2   -1    0    0  501    0  0.00000000000E+00  0.00000000000E+00  0.93696319071E+03  0.93696319071E+03  0.25500000000E-02 0.  1.
         -2   -1    0    0    0  501 -0.00000000000E+00 -0.00000000000E+00 -0.60382467761E+03  0.60382467762E+03  0.25500000000E-02 0. -1.
     200001    2    1    2    0    0 -0.17581293956E+03 -0.18760338392E+01  0.38361077002E+03  0.81728171222E+03  0.69991318393E+03 0.  0.
    5000001    2    3    3    0    0 -0.89606608830E+02  0.90868420334E+02  0.68381826183E+02  0.21279651615E+03  0.15594828942E+03 0.  0.
        -13    1    4    4    0    0 -0.10935226130E+03  0.25224658585E+02  0.78970702714E+02  0.13722457325E+03  0.10566000000E+00 0. -1.
     200003    1    4    4    0    0  0.19745652468E+02  0.65643761748E+02 -0.10588876531E+02  0.75571942902E+02  0.30000000000E+02 0. -1.
     200000    1    3    3    0    0 -0.86206330726E+02 -0.92744454173E+02  0.31522894383E+03  0.60448519607E+03  0.50000000000E+03 0.  1.
    -200001    1    1    2    0    0  0.17581293956E+03  0.18760338392E+01 -0.50472256919E+02  0.72350615612E+03  0.70000000000E+03 0. -1.
<mgrwt>
<rscale>  0 0.15043424E+04</rscale>
<asrwt>0</asrwt>
<pdfrwt beam="1">  1        2 0.13385188E+00 0.15043424E+04</pdfrwt>
<pdfrwt beam="2">  1       -2 0.86260668E-01 0.15043424E+04</pdfrwt>
<totfact> 0.34705403E+01</totfact>
</mgrwt>
</event>
<event>
 8    1  0.7623533E-028  0.1653698E+04  0.7818608E-02  0.8788222E-01
         -2   -1    0    0    0  501 -0.00000000000E+00  0.00000000000E+00  0.73354601967E+03  0.73354601967E+03  0.25500000000E-02 0. -1.
          2   -1    0    0  501    0  0.00000000000E+00 -0.00000000000E+00 -0.93202005554E+03  0.93202005554E+03  0.25500000000E-02 0.  1.
     200001    2    1    2    0    0 -0.14327668295E+03 -0.41429201296E+03 -0.14315146153E+03  0.83778188407E+03  0.69944268132E+03 0.  0.
    5000001    2    3    3    0    0  0.32330579838E+01 -0.42697139498E+02  0.32033128666E+02  0.17427793169E+03  0.16587096719E+03 0.  0.
        -13    1    4    4    0    0 -0.68994199480E+02 -0.16405912004E+02  0.53716970170E+02  0.88965597614E+02  0.10566000000E+00 0. -1.
     200003    1    4    4    0    0  0.72227257464E+02 -0.26291227494E+02 -0.21683841503E+02  0.85312334080E+02  0.30000000000E+02 0. -1.
     200000    1    3    3    0    0 -0.14650974094E+03 -0.37159487346E+03 -0.17518459020E+03  0.66350395238E+03  0.50000000000E+03 0.  1.
    -200001    1    1    2    0    0  0.14327668295E+03  0.41429201296E+03 -0.55322574337E+02  0.82778419115E+03  0.70000000000E+03 0. -1.
<mgrwt>
<rscale>  0 0.16536984E+04</rscale>
<asrwt>0</asrwt>
<pdfrwt beam="1">  1        2 0.13314572E+00 0.16536984E+04</pdfrwt>
<pdfrwt beam="2">  1       -2 0.10479229E+00 0.16536984E+04</pdfrwt>
<totfact> 0.21924087E+01</totfact>
</mgrwt>
</event>
<event>
 8    1  0.7623533E-028  0.1767070E+04  0.7818608E-02  0.8724010E-01
         -2   -1    0    0    0  501 -0.00000000000E+00  0.00000000000E+00  0.10846835499E+04  0.10846835499E+04  0.25500000000E-02 0. -1.
          2   -1    0    0  501    0  0.00000000000E+00 -0.00000000000E+00 -0.71968852000E+03  0.71968852001E+03  0.25500000000E-02 0.  1.
     200001    2    1    2    0    0 -0.15036893352E+03 -0.50069538108E+03  0.51630305853E+02  0.87619960153E+03  0.70125129051E+03 0.  0.
    5000001    2    3    3    0    0  0.33804330535E+00 -0.21655767150E+03  0.10498621579E+02  0.28026449910E+03  0.17759681595E+03 0.  0.
        -13    1    4    4    0    0 -0.10865299345E+02 -0.22037810670E+03 -0.36114784337E+02  0.22358187193E+03  0.10566000000E+00 0. -1.
     200003    1    4    4    0    0  0.11203342650E+02  0.38204351956E+01  0.46613405916E+02  0.56682627168E+02  0.30000000000E+02 0. -1.
     200000    1    3    3    0    0 -0.15070697683E+03 -0.28413770957E+03  0.41131684274E+02  0.59593510244E+03  0.50000000000E+03 0. -1.
    -200001    1    1    2    0    0  0.15036893352E+03  0.50069538108E+03  0.31336472406E+03  0.92817246839E+03  0.70000000000E+03 0. -1.
<mgrwt>
<rscale>  0 0.17670702E+04</rscale>
<asrwt>0</asrwt>
<pdfrwt beam="1">  1        2 0.10281265E+00 0.17670702E+04</pdfrwt>
<pdfrwt beam="2">  1       -2 0.15495479E+00 0.17670702E+04</pdfrwt>
<totfact> 0.11335086E+01</totfact>
</mgrwt>
</event>
<event>
 8    1  0.7623533E-028  0.1619350E+04  0.7818608E-02  0.8808748E-01
         -2   -1    0    0    0  501 -0.00000000000E+00  0.00000000000E+00  0.18406127093E+04  0.18406127093E+04  0.25500000000E-02 0. -1.
          2   -1    0    0  501    0  0.00000000000E+00 -0.00000000000E+00 -0.35617125166E+03  0.35617125167E+03  0.25500000000E-02 0.  1.
     200001    2    1    2    0    0  0.98429043581E+02 -0.53190049036E+02  0.12729108048E+04  0.14570119184E+04  0.70004596658E+03 0.  0.
    5000001    2    3    3    0    0 -0.44634883491E+02 -0.10823145367E+03  0.31534597874E+03  0.36594489954E+03  0.14410504086E+03 0.  0.
        -13    1    4    4    0    0  0.26497660688E+02 -0.99943443320E+02  0.21920280238E+03  0.24236480277E+03  0.10566000000E+00 0. -1.
     200003    1    4    4    0    0 -0.71132544179E+02 -0.82880103493E+01  0.96143176358E+02  0.12358009677E+03  0.30000000000E+02 0. -1.
     200000    1    3    3    0    0  0.14306392707E+03  0.55041404634E+02  0.95756482607E+03  0.10910670188E+04  0.50000000000E+03 0. -1.
    -200001    1    1    2    0    0 -0.98429043581E+02  0.53190049036E+02  0.21153065284E+03  0.73977204261E+03  0.70000000000E+03 0.  1.
<mgrwt>
<rscale>  0 0.16193497E+04</rscale>
<asrwt>0</asrwt>
<pdfrwt beam="1">  1        2 0.50881607E-01 0.16193497E+04</pdfrwt>
<pdfrwt beam="2">  1       -2 0.26294467E+00 0.16193497E+04</pdfrwt>
<totfact> 0.50633010E+00</totfact>
</mgrwt>
</event>
<event>
 8    1  0.7623533E-028  0.1523299E+04  0.7818608E-02  0.8869105E-01
          2   -1    0    0  501    0  0.00000000000E+00  0.00000000000E+00  0.18186220345E+04  0.18186220345E+04  0.25500000000E-02 0.  1.
         -2   -1    0    0    0  501 -0.00000000000E+00 -0.00000000000E+00 -0.31898332010E+03  0.31898332011E+03  0.25500000000E-02 0. -1.
     200001    2    1    2    0    0  0.25326828237E+03 -0.10333418790E+03  0.57542120252E+03  0.94638716028E+03  0.69979734180E+03 0.  0.
    5000001    2    3    3    0    0  0.22634760534E+02 -0.78784988964E+02  0.17585720402E+03  0.26561857004E+03  0.18140579283E+03 0.  0.
        -13    1    4    4    0    0  0.13125766841E+02 -0.12330301951E+03  0.17052078069E+03  0.21083943698E+03  0.10566000000E+00 0. -1.
     200003    1    4    4    0    0  0.95089936930E+01  0.44518030546E+02  0.53364233325E+01  0.54779133059E+02  0.30000000000E+02 0. -1.
     200000    1    3    3    0    0  0.23063352183E+03 -0.24549198940E+02  0.39956399850E+03  0.68076859024E+03  0.50000000000E+03 0. -1.
    -200001    1    1    2    0    0 -0.25326828237E+03  0.10333418790E+03  0.92421751192E+03  0.11912181944E+04  0.70000000000E+03 0.  1.
<mgrwt>
<rscale>  0 0.15232992E+04</rscale>
<asrwt>0</asrwt>
<pdfrwt beam="1">  1        2 0.25980315E+00 0.15232992E+04</pdfrwt>
<pdfrwt beam="2">  1       -2 0.45569045E-01 0.15232992E+04</pdfrwt>
<totfact> 0.43901415E+01</totfact>
</mgrwt>
</event>
<event>
 8    1  0.7623533E-028  0.2688130E+04  0.7818608E-02  0.8338867E-01
         -2   -1    0    0    0  501 -0.00000000000E+00  0.00000000000E+00  0.15408643583E+04  0.15408643583E+04  0.25500000000E-02 0. -1.
          2   -1    0    0  501    0  0.00000000000E+00 -0.00000000000E+00 -0.11724008222E+04  0.11724008222E+04  0.25500000000E-02 0.  1.
     200001    2    1    2    0    0 -0.18711739146E+03  0.11191813940E+04  0.12698812253E+02  0.13333563250E+04  0.70006993845E+03 0.  0.
    5000001    2    3    3    0    0 -0.12273283112E+03  0.47894006112E+03 -0.93744525203E+01  0.51816213650E+03  0.15478110145E+03 0.  0.
        -13    1    4    4    0    0 -0.55526593848E+02  0.37517057711E+02 -0.21810422899E+02  0.70472959032E+02  0.10566000000E+00 0. -1.
     200003    1    4    4    0    0 -0.67206237269E+02  0.44142300341E+03  0.12435970379E+02  0.44768917747E+03  0.30000000000E+02 0. -1.
     200000    1    3    3    0    0 -0.64384560345E+02  0.64024133284E+03  0.22073264773E+02  0.81519418847E+03  0.50000000000E+03 0. -1.
    -200001    1    1    2    0    0  0.18711739146E+03 -0.11191813940E+04  0.35576472382E+03  0.13799088555E+04  0.70000000000E+03 0. -1.
<mgrwt>
<rscale>  0 0.26881299E+04</rscale>
<asrwt>0</asrwt>
<pdfrwt beam="1">  1        2 0.16748583E+00 0.26881299E+04</pdfrwt>
<pdfrwt beam="2">  1       -2 0.22012348E+00 0.26881299E+04</pdfrwt>
<totfact> 0.19319832E+00</totfact>
</mgrwt>
</event>
<event>
 8    1  0.7623533E-028  0.1701643E+04  0.7818608E-02  0.8760428E-01
          2   -1    0    0  501    0  0.00000000000E+00  0.00000000000E+00  0.91991220319E+03  0.91991220319E+03  0.25500000000E-02 0.  1.
         -2   -1    0    0    0  501 -0.00000000000E+00 -0.00000000000E+00 -0.78691980888E+03  0.78691980888E+03  0.25500000000E-02 0. -1.
     200001    2    1    2    0    0  0.97938140370E+02  0.38407386650E+03  0.34658556797E+03  0.87452998870E+03  0.69826680499E+03 0.  0.
    5000001    2    3    3    0    0  0.12020342931E+03  0.81664982635E+02  0.10366813268E+03  0.24131931562E+03  0.16238810471E+03 0.  0.
        -13    1    4    4    0    0  0.34812918518E+02 -0.28190171082E+02 -0.23379343861E+02  0.50529495592E+02  0.10566000000E+00 0. -1.
     200003    1    4    4    0    0  0.85390510795E+02  0.10985515372E+03  0.12704747654E+03  0.19078982003E+03  0.30000000000E+02 0. -1.
     200000    1    3    3    0    0 -0.22265288944E+02  0.30240888387E+03  0.24291743529E+03  0.63321067308E+03  0.50000000000E+03 0.  1.
    -200001    1    1    2    0    0 -0.97938140370E+02 -0.38407386650E+03 -0.21359317366E+03  0.83230202337E+03  0.70000000000E+03 0. -1.
<mgrwt>
<rscale>  0 0.17016429E+04</rscale>
<asrwt>0</asrwt>
<pdfrwt beam="1">  1        2 0.13141603E+00 0.17016429E+04</pdfrwt>
<pdfrwt beam="2">  1       -2 0.11241712E+00 0.17016429E+04</pdfrwt>
<totfact> 0.18767926E+01</totfact>
</mgrwt>
</event>
<event>
 8    1  0.7623533E-028  0.1964349E+04  0.7818608E-02  0.8623473E-01
         -2   -1    0    0    0  501 -0.00000000000E+00  0.00000000000E+00  0.83576806397E+03  0.83576806397E+03  0.25500000000E-02 0.  1.
          2   -1    0    0  501    0  0.00000000000E+00 -0.00000000000E+00 -0.11542272429E+04  0.11542272429E+04  0.25500000000E-02 0. -1.
     200001    2    1    2    0    0 -0.30363778565E+03 -0.24054619874E+03 -0.73648872783E+03  0.10873286561E+04  0.69986397369E+03 0.  0.
    5000001    2    3    3    0    0 -0.13087303017E+03 -0.24945139670E+02 -0.21993493712E+03  0.31716030046E+03  0.18565901434E+03 0.  0.
        -13    1    4    4    0    0 -0.15061797403E+03 -0.19680409695E+02 -0.78189888178E+02  0.17084133693E+03  0.10566000000E+00 0. -1.
     200003    1    4    4    0    0  0.19744943859E+02 -0.52647299752E+01 -0.14174504895E+03  0.14631896354E+03  0.30000000000E+02 0. -1.
     200000    1    3    3    0    0 -0.17276475548E+03 -0.21560105907E+03 -0.51655379070E+03  0.77016835569E+03  0.50000000000E+03 0.  1.
    -200001    1    1    2    0    0  0.30363778565E+03  0.24054619874E+03  0.41802954888E+03  0.90266665073E+03  0.70000000000E+03 0.  1.
<mgrwt>
<rscale>  0 0.19643485E+04</rscale>
<asrwt>0</asrwt>
<pdfrwt beam="1">  1        2 0.16488961E+00 0.19643485E+04</pdfrwt>
<pdfrwt beam="2">  1       -2 0.11939544E+00 0.19643485E+04</pdfrwt>
<totfact> 0.11421837E+01</totfact>
</mgrwt>
</event>
<event>
 8    1  0.7623533E-028  0.1607542E+04  0.7818608E-02  0.8815928E-01
         -2   -1    0    0    0  501 -0.00000000000E+00  0.00000000000E+00  0.40078324628E+03  0.40078324629E+03  0.25500000000E-02 0. -1.
          2   -1    0    0  501    0  0.00000000000E+00 -0.00000000000E+00 -0.16119625582E+04  0.16119625582E+04  0.25500000000E-02 0.  1.
     200001    2    1    2    0    0 -0.65257572441E+01 -0.13562461072E+03 -0.10704075315E+04  0.12859354340E+04  0.69958633225E+03 0.  0.
    5000001    2    3    3    0    0 -0.47297580106E+02 -0.84792260340E+02 -0.37504384552E+03  0.42699601515E+03  0.17955757406E+03 0.  0.
        -13    1    4    4    0    0  0.21969152143E+02  0.12125080864E+02 -0.25158207836E+03  0.25283040669E+03  0.10566000000E+00 0. -1.
     200003    1    4    4    0    0 -0.69266732249E+02 -0.96917341203E+02 -0.12346176716E+03  0.17416560847E+03  0.30000000000E+02 0. -1.
     200000    1    3    3    0    0  0.40771822862E+02 -0.50832350383E+02 -0.69536368600E+03  0.85893941881E+03  0.50000000000E+03 0.  1.
    -200001    1    1    2    0    0  0.65257572441E+01  0.13562461072E+03 -0.14077178040E+03  0.72681037052E+03  0.70000000000E+03 0. -1.
<mgrwt>
<rscale>  0 0.16075417E+04</rscale>
<asrwt>0</asrwt>
<pdfrwt beam="1">  1        2 0.23028036E+00 0.16075417E+04</pdfrwt>
<pdfrwt beam="2">  1       -2 0.57254750E-01 0.16075417E+04</pdfrwt>
<totfact> 0.35007988E+01</totfact>
</mgrwt>
</event>
<event>
 8    1  0.7623533E-028  0.1905230E+04  0.7818608E-02  0.8652257E-01
         -2   -1    0    0    0  501 -0.00000000000E+00  0.00000000000E+00  0.34179637837E+03  0.34179637838E+03  0.25500000000E-02 0. -1.
          2   -1    0    0  501    0  0.00000000000E+00 -0.00000000000E+00 -0.26550173807E+04  0.26550173807E+04  0.25500000000E-02 0.  1.
     200001    2    1    2    0    0 -0.59248117334E+03  0.15471136910E+03 -0.14786267679E+04  0.17472069871E+04  0.70101753793E+03 0.  0.
    5000001    2    3    3    0    0 -0.62682625141E+02  0.12199248090E+03 -0.42483600664E+03  0.46571098794E+03  0.13262659936E+03 0.  0.
        -13    1    4    4    0    0  0.24945405197E+02  0.85589845051E+02 -0.23558337649E+03  0.25188773940E+03  0.10566000000E+00 0. -1.
     200003    1    4    4    0    0 -0.87628030338E+02  0.36402635853E+02 -0.18925263015E+03  0.21382324854E+03  0.30000000000E+02 0. -1.
     200000    1    3    3    0    0 -0.52979854819E+03  0.32718888196E+02 -0.10537907613E+04  0.12814959992E+04  0.50000000000E+03 0.  1.
    -200001    1    1    2    0    0  0.59248117334E+03 -0.15471136910E+03 -0.83459423446E+03  0.12496067720E+04  0.70000000000E+03 0. -1.
<mgrwt>
<rscale>  0 0.19052300E+04</rscale>
<asrwt>0</asrwt>
<pdfrwt beam="1">  1        2 0.37928819E+00 0.19052300E+04</pdfrwt>
<pdfrwt beam="2">  1       -2 0.48828056E-01 0.19052300E+04</pdfrwt>
<totfact> 0.13604731E+01</totfact>
</mgrwt>
</event>
<event>
 8    1  0.7623533E-028  0.2179052E+04  0.7818608E-02  0.8527198E-01
          2   -1    0    0  501    0  0.00000000000E+00  0.00000000000E+00  0.19366758176E+04  0.19366758176E+04  0.25500000000E-02 0.  1.
         -2   -1    0    0    0  501 -0.00000000000E+00 -0.00000000000E+00 -0.61294050621E+03  0.61294050621E+03  0.25500000000E-02 0. -1.
     200001    2    1    2    0    0 -0.19283581285E+03 -0.72513451054E+03  0.23375826478E+03  0.10526007356E+04  0.70022830080E+03 0.  0.
    5000001    2    3    3    0    0  0.48247134558E+01 -0.24077534572E+03  0.14922651596E+03  0.32402740320E+03  0.15725507938E+03 0.  0.
        -13    1    4    4    0    0 -0.10416778178E+02  0.21109541495E+02  0.13751731522E+02  0.27262488764E+02  0.10566000000E+00 0. -1.
     200003    1    4    4    0    0  0.15241491634E+02 -0.26188488722E+03  0.13547478444E+03  0.29676491444E+03  0.30000000000E+02 0. -1.
     200000    1    3    3    0    0 -0.19766052630E+03 -0.48435916481E+03  0.84531748817E+02  0.72857333245E+03  0.50000000000E+03 0. -1.
    -200001    1    1    2    0    0  0.19283581285E+03  0.72513451054E+03  0.10899770466E+04  0.14970155882E+04  0.70000000000E+03 0.  1.
<mgrwt>
<rscale>  0 0.21790521E+04</rscale>
<asrwt>0</asrwt>
<pdfrwt beam="1">  1        2 0.27666798E+00 0.21790521E+04</pdfrwt>
<pdfrwt beam="2">  1       -2 0.87562929E-01 0.21790521E+04</pdfrwt>
<totfact> 0.89568862E+00</totfact>
</mgrwt>
</event>
<event>
 8    1  0.7623533E-028  0.1662480E+04  0.7818608E-02  0.8783057E-01
          2   -1    0    0  501    0  0.00000000000E+00  0.00000000000E+00  0.15090548422E+04  0.15090548422E+04  0.25500000000E-02 0.  1.
         -2   -1    0    0    0  501 -0.00000000000E+00 -0.00000000000E+00 -0.45787599931E+03  0.45787599932E+03  0.25500000000E-02 0. -1.
     200001    2    1    2    0    0  0.61937458713E+02  0.39908192966E+02  0.10489265212E+04  0.12630601250E+04  0.69974646817E+03 0.  0.
    5000001    2    3    3    0    0  0.95974644823E+02  0.19232354468E+02  0.26158809270E+03  0.32952500439E+03  0.17486389670E+03 0.  0.
        -13    1    4    4    0    0  0.14760548815E+02  0.23831099707E+02 -0.20296382020E+02  0.34608516317E+02  0.10566000000E+00 0. -1.
     200003    1    4    4    0    0  0.81214096008E+02 -0.45987452386E+01  0.28188447472E+03  0.29491648807E+03  0.30000000000E+02 0. -1.
     200000    1    3    3    0    0 -0.34037186109E+02  0.20675838498E+02  0.78733842854E+03  0.93353512060E+03  0.50000000000E+03 0.  1.
    -200001    1    1    2    0    0 -0.61937458713E+02 -0.39908192966E+02  0.22523216625E+01  0.70387071655E+03  0.70000000000E+03 0. -1.
<mgrwt>
<rscale>  0 0.16624801E+04</rscale>
<asrwt>0</asrwt>
<pdfrwt beam="1">  1        2 0.21557927E+00 0.16624801E+04</pdfrwt>
<pdfrwt beam="2">  1       -2 0.65410856E-01 0.16624801E+04</pdfrwt>
<totfact> 0.29783089E+01</totfact>
</mgrwt>
</event>
<event>
 8    1  0.7623533E-028  0.1498009E+04  0.7818608E-02  0.8885778E-01
         -2   -1    0    0    0  501 -0.00000000000E+00  0.00000000000E+00  0.95629748444E+03  0.95629748445E+03  0.25500000000E-02 0. -1.
          2   -1    0    0  501    0  0.00000000000E+00 -0.00000000000E+00 -0.58664534725E+03  0.58664534725E+03  0.25500000000E-02 0.  1.
     200001    2    1    2    0    0 -0.16631726502E+03 -0.19569146620E+03  0.11054901107E+03  0.75358168966E+03  0.69979118068E+03 0.  0.
    5000001    2    3    3    0    0 -0.11059592581E+02 -0.11364655374E+03  0.68640044501E+02  0.22198722582E+03  0.17756412631E+03 0.  0.
        -13    1    4    4    0    0  0.71200339610E+02 -0.47362451660E+01  0.24102194214E+02  0.75318306598E+02  0.10566000000E+00 0. -1.
     200003    1    4    4    0    0 -0.82259932191E+02 -0.10891030857E+03  0.44537850288E+02  0.14666891922E+03  0.30000000000E+02 0. -1.
     200000    1    3    3    0    0 -0.15525767244E+03 -0.82044912464E+02  0.41908966573E+02  0.53159446385E+03  0.50000000000E+03 0.  1.
    -200001    1    1    2    0    0  0.16631726502E+03  0.19569146620E+03  0.25910312612E+03  0.78936114204E+03  0.70000000000E+03 0. -1.
<mgrwt>
<rscale>  0 0.14980086E+04</rscale>
<asrwt>0</asrwt>
<pdfrwt beam="1">  1        2 0.83806478E-01 0.14980086E+04</pdfrwt>
<pdfrwt beam="2">  1       -2 0.13661393E+00 0.14980086E+04</pdfrwt>
<totfact> 0.20640955E+01</totfact>
</mgrwt>
</event>
<event>
 8    1  0.7623533E-028  0.1427441E+04  0.7818608E-02  0.8934191E-01
          2   -1    0    0  501    0  0.00000000000E+00  0.00000000000E+00  0.92743086912E+03  0.92743086912E+03  0.25500000000E-02 0.  1.
         -2   -1    0    0    0  501 -0.00000000000E+00 -0.00000000000E+00 -0.54925618816E+03  0.54925618817E+03  0.25500000000E-02 0. -1.
     200001    2    1    2    0    0  0.41530536710E+02  0.13064920122E+03  0.21030558805E+03  0.74390193762E+03  0.70026256016E+03 0.  0.
    5000001    2    3    3    0    0  0.72720222774E+01  0.78570313769E+02  0.52518824383E+02  0.21590333997E+03  0.19398414570E+03 0.  0.
        -13    1    4    4    0    0  0.49685536893E+02 -0.97332781481E+01 -0.49864778981E+02  0.71062624682E+02  0.10566000000E+00 0. -1.
     200003    1    4    4    0    0 -0.42413514616E+02  0.88303591917E+02  0.10238360336E+03  0.14484071529E+03  0.30000000000E+02 0. -1.
     200000    1    3    3    0    0  0.34258514432E+02  0.52078887454E+02  0.15778676367E+03  0.52799859765E+03  0.50000000000E+03 0. -1.
    -200001    1    1    2    0    0 -0.41530536710E+02 -0.13064920122E+03  0.16786909290E+03  0.73278511967E+03  0.70000000000E+03 0.  1.
<mgrwt>
<rscale>  0 0.14274413E+04</rscale>
<asrwt>0</asrwt>
<pdfrwt beam="1">  1        2 0.13249012E+00 0.14274413E+04</pdfrwt>
<pdfrwt beam="2">  1       -2 0.78465169E-01 0.14274413E+04</pdfrwt>
<totfact> 0.43852231E+01</totfact>
</mgrwt>
</event>
<event>
 8    1  0.7623533E-028  0.2846281E+04  0.7818608E-02  0.8289042E-01
          2   -1    0    0  501    0  0.00000000000E+00  0.00000000000E+00  0.28948262482E+04  0.28948262482E+04  0.25500000000E-02 0.  1.
         -2   -1    0    0    0  501 -0.00000000000E+00 -0.00000000000E+00 -0.69963756219E+03  0.69963756219E+03  0.25500000000E-02 0. -1.
     200001    2    1    2    0    0 -0.29387758374E+03 -0.81814752521E+03 -0.15396106040E+02  0.11180925680E+04  0.70296838005E+03 0.  0.
    5000001    2    3    3    0    0 -0.43509581638E+02 -0.19639159862E+03 -0.39492356841E+02  0.28152505848E+03  0.19296105461E+03 0.  0.
        -13    1    4    4    0    0 -0.27997018649E+01 -0.30202642751E+02 -0.94549823980E+02  0.99296114417E+02  0.10566000000E+00 0. -1.
     200003    1    4    4    0    0 -0.40709879773E+02 -0.16618895587E+03  0.55057467139E+02  0.18222894406E+03  0.30000000000E+02 0. -1.
     200000    1    3    3    0    0 -0.25036800211E+03 -0.62175592658E+03  0.24096250801E+02  0.83656750954E+03  0.50000000000E+03 0. -1.
    -200001    1    1    2    0    0  0.29387758374E+03  0.81814752521E+03  0.22105847920E+04  0.24763712424E+04  0.70000000000E+03 0.  1.
<mgrwt>
<rscale>  0 0.28462812E+04</rscale>
<asrwt>0</asrwt>
<pdfrwt beam="1">  1        2 0.41354661E+00 0.28462812E+04</pdfrwt>
<pdfrwt beam="2">  1       -2 0.99948222E-01 0.28462812E+04</pdfrwt>
<totfact> 0.19472887E+00</totfact>
</mgrwt>
</event>
<event>
 8    1  0.7623533E-028  0.2015431E+04  0.7818608E-02  0.8599440E-01
         -2   -1    0    0    0  501 -0.00000000000E+00  0.00000000000E+00  0.11101165260E+04  0.11101165260E+04  0.25500000000E-02 0. -1.
          2   -1    0    0  501    0  0.00000000000E+00 -0.00000000000E+00 -0.91476025711E+03  0.91476025711E+03  0.25500000000E-02 0.  1.
     200001    2    1    2    0    0  0.73295890955E+02 -0.64762768055E+03 -0.22044721974E+03  0.98195471443E+03  0.70060272926E+03 0.  0.
    5000001    2    3    3    0    0 -0.75301348405E+01 -0.31971727023E+03 -0.83320017453E+02  0.36319631792E+03  0.15064363320E+03 0.  0.
        -13    1    4    4    0    0  0.17692591707E+02 -0.24318920198E+03 -0.11750532106E+03  0.27066866720E+03  0.10566000000E+00 0. -1.
     200003    1    4    4    0    0 -0.25222726548E+02 -0.76528068249E+02  0.34185303608E+02  0.92527650717E+02  0.30000000000E+02 0. -1.
     200000    1    3    3    0    0  0.80826025795E+02 -0.32791041032E+03 -0.13712720228E+03  0.61875839651E+03  0.50000000000E+03 0. -1.
    -200001    1    1    2    0    0 -0.73295890955E+02  0.64762768055E+03  0.41580348867E+03  0.10429220687E+04  0.70000000000E+03 0. -1.
<mgrwt>
<rscale>  0 0.20154310E+04</rscale>
<asrwt>0</asrwt>
<pdfrwt beam="1">  1        2 0.13068004E+00 0.20154310E+04</pdfrwt>
<pdfrwt beam="2">  1       -2 0.15858807E+00 0.20154310E+04</pdfrwt>
<totfact> 0.76429483E+00</totfact>
</mgrwt>
</event>
<event>
 8    1  0.7623533E-028  0.1433207E+04  0.7818608E-02  0.8930126E-01
         -2   -1    0    0    0  501 -0.00000000000E+00  0.00000000000E+00  0.14871424353E+04  0.14871424353E+04  0.25500000000E-02 0. -1.
          2   -1    0    0  501    0  0.00000000000E+00 -0.00000000000E+00 -0.34530688335E+03  0.34530688336E+03  0.25500000000E-02 0.  1.
     200001    2    1    2    0    0  0.21953924331E+02 -0.30466504335E+02  0.75979849895E+03  0.10340994627E+04  0.70046966888E+03 0.  0.
    5000001    2    3    3    0    0 -0.34378269630E+02 -0.21590172844E+01  0.20585664820E+03  0.28521615807E+03  0.19438305080E+03 0.  0.
        -13    1    4    4    0    0 -0.55269620252E+02 -0.52716082656E+02  0.20923031389E+03  0.22273538495E+03  0.10566000000E+00 0. -1.
     200003    1    4    4    0    0  0.20891350622E+02  0.50557065371E+02 -0.33736656932E+01  0.62480773122E+02  0.30000000000E+02 0. -1.
     200000    1    3    3    0    0  0.56332193961E+02 -0.28307487050E+02  0.55394185075E+03  0.74888330460E+03  0.50000000000E+03 0. -1.
    -200001    1    1    2    0    0 -0.21953924331E+02  0.30466504335E+02  0.38203705297E+03  0.79834985597E+03  0.70000000000E+03 0.  1.
<mgrwt>
<rscale>  0 0.14332069E+04</rscale>
<asrwt>0</asrwt>
<pdfrwt beam="1">  1        2 0.49329555E-01 0.14332069E+04</pdfrwt>
<pdfrwt beam="2">  1       -2 0.21244892E+00 0.14332069E+04</pdfrwt>
<totfact> 0.10943988E+01</totfact>
</mgrwt>
</event>
<event>
 8    1  0.7623533E-028  0.2093379E+04  0.7818608E-02  0.8564165E-01
         -2   -1    0    0    0  501 -0.00000000000E+00  0.00000000000E+00  0.71626593652E+03  0.71626593653E+03  0.25500000000E-02 0. -1.
          2   -1    0    0  501    0  0.00000000000E+00 -0.00000000000E+00 -0.15295425163E+04  0.15295425163E+04  0.25500000000E-02 0.  1.
     200001    2    1    2    0    0  0.19106063535E+03 -0.37102609551E+03 -0.11111609551E+04  0.13781105613E+04  0.70024675731E+03 0.  0.
    5000001    2    3    3    0    0  0.11111003499E+03 -0.95979254908E+02 -0.40236456628E+03  0.46463632312E+03  0.18008945367E+03 0.  0.
        -13    1    4    4    0    0  0.32251888637E+02 -0.13320736054E+03 -0.27648376911E+03  0.30858981021E+03  0.10566000000E+00 0. -1.
     200003    1    4    4    0    0  0.78858146349E+02  0.37228105636E+02 -0.12588079717E+03  0.15604651291E+03  0.30000000000E+02 0. -1.
     200000    1    3    3    0    0  0.79950600369E+02 -0.27504684060E+03 -0.70879638882E+03  0.91347423819E+03  0.50000000000E+03 0.  1.
    -200001    1    1    2    0    0 -0.19106063535E+03  0.37102609551E+03  0.29788437531E+03  0.86769789154E+03  0.70000000000E+03 0. -1.
<mgrwt>
<rscale>  0 0.20933793E+04</rscale>
<asrwt>0</asrwt>
<pdfrwt beam="1">  1        2 0.21850607E+00 0.20933793E+04</pdfrwt>
<pdfrwt beam="2">  1       -2 0.10232371E+00 0.20933793E+04</pdfrwt>
<totfact> 0.10212131E+01</totfact>
</mgrwt>
</event>
<event>
 8    1  0.7623533E-028  0.1728707E+04  0.7818608E-02  0.8745159E-01
          2   -1    0    0  501    0  0.00000000000E+00  0.00000000000E+00  0.25194157444E+04  0.25194157444E+04  0.25500000000E-02 0.  1.
         -2   -1    0    0    0  501 -0.00000000000E+00 -0.00000000000E+00 -0.29653989803E+03  0.29653989804E+03  0.25500000000E-02 0. -1.
     200001    2    1    2    0    0 -0.18949868702E+03 -0.46371023675E+03  0.12099655086E+04  0.14866985987E+04  0.70378921223E+03 0.  0.
    5000001    2    3    3    0    0 -0.23487007917E+02 -0.13130105344E+03  0.41726738211E+03  0.47851902019E+03  0.19255331295E+03 0.  0.
        -13    1    4    4    0    0 -0.53323895737E+02 -0.11588231586E+02  0.14860207222E+02  0.56555829855E+02  0.10566000000E+00 0. -1.
     200003    1    4    4    0    0  0.29836887820E+02 -0.11971282186E+03  0.40240717489E+03  0.42196319033E+03  0.30000000000E+02 0. -1.
     200000    1    3    3    0    0 -0.16601167911E+03 -0.33240918331E+03  0.79269812653E+03  0.10081795785E+04  0.50000000000E+03 0. -1.
    -200001    1    1    2    0    0  0.18949868702E+03  0.46371023675E+03  0.10129103377E+04  0.13292570437E+04  0.70000000000E+03 0. -1.
<mgrwt>
<rscale>  0 0.17287074E+04</rscale>
<asrwt>0</asrwt>
<pdfrwt beam="1">  1        2 0.35991651E+00 0.17287074E+04</pdfrwt>
<pdfrwt beam="2">  1       -2 0.42362845E-01 0.17287074E+04</pdfrwt>
<totfact> 0.21656868E+01</totfact>
</mgrwt>
</event>
<event>
 8    1  0.7623533E-028  0.1660706E+04  0.7818608E-02  0.8784098E-01
          2   -1    0    0  501    0  0.00000000000E+00  0.00000000000E+00  0.68379033773E+03  0.68379033773E+03  0.25500000000E-02 0.  1.
         -2   -1    0    0    0  501 -0.00000000000E+00 -0.00000000000E+00 -0.10083297736E+04  0.10083297736E+04  0.25500000000E-02 0. -1.
     200001    2    1    2    0    0  0.37464312853E+03  0.13865786362E+03 -0.36638980613E+03  0.88506687247E+03  0.69965591672E+03 0.  0.
    5000001    2    3    3    0    0  0.19064960266E+03  0.64803423278E+02 -0.73881836363E+02  0.27280140039E+03  0.16856845389E+03 0.  0.
        -13    1    4    4    0    0  0.14649913558E+03  0.88005229243E+02 -0.11098696672E+03  0.20377692471E+03  0.10566000000E+00 0. -1.
     200003    1    4    4    0    0  0.44150467085E+02 -0.23201805964E+02  0.37105130361E+02  0.69024475680E+02  0.30000000000E+02 0. -1.
     200000    1    3    3    0    0  0.18399352587E+03  0.73854440345E+02 -0.29250796977E+03  0.61226547208E+03  0.50000000000E+03 0. -1.
    -200001    1    1    2    0    0 -0.37464312853E+03 -0.13865786362E+03  0.41850370248E+02  0.80705323888E+03  0.70000000000E+03 0.  1.
<mgrwt>
<rscale>  0 0.16607061E+04</rscale>
<asrwt>0</asrwt>
<pdfrwt beam="1">  1        2 0.97684334E-01 0.16607061E+04</pdfrwt>
<pdfrwt beam="2">  1       -2 0.14404711E+00 0.16607061E+04</pdfrwt>
<totfact> 0.14774005E+01</totfact>
</mgrwt>
</event>
<event>
 8    1  0.7623533E-028  0.1581238E+04  0.7818608E-02  0.8832158E-01
         -2   -1    0    0    0  501 -0.00000000000E+00  0.00000000000E+00  0.28321690518E+03  0.28321690519E+03  0.25500000000E-02 0. -1.
          2   -1    0    0  501    0  0.00000000000E+00 -0.00000000000E+00 -0.22070653594E+04  0.22070653594E+04  0.25500000000E-02 0.  1.
     200001    2    1    2    0    0 -0.54223839161E+02  0.82859770038E+02 -0.40346249482E+03  0.81356540364E+03  0.69950033242E+03 0.  0.
    5000001    2    3    3    0    0 -0.44309961835E+02  0.31352043636E+02 -0.68148979830E+02  0.20925878927E+03  0.19025938630E+03 0.  0.
        -13    1    4    4    0    0 -0.85718548423E+01 -0.71310658482E+02 -0.64336264815E+02  0.96425374476E+02  0.10566000000E+00 0. -1.
     200003    1    4    4    0    0 -0.35738106992E+02  0.10266270212E+03 -0.38127150151E+01  0.11283341479E+03  0.30000000000E+02 0. -1.
     200000    1    3    3    0    0 -0.99138773263E+01  0.51507726402E+02 -0.33531351499E+03  0.60430661438E+03  0.50000000000E+03 0. -1.
    -200001    1    1    2    0    0  0.54223839161E+02 -0.82859770038E+02 -0.15203859594E+04  0.16767168609E+04  0.70000000000E+03 0.  1.
<mgrwt>
<rscale>  0 0.15812378E+04</rscale>
<asrwt>0</asrwt>
<pdfrwt beam="1">  1        2 0.31529504E+00 0.15812378E+04</pdfrwt>
<pdfrwt beam="2">  1       -2 0.40459559E-01 0.15812378E+04</pdfrwt>
<totfact> 0.34901336E+01</totfact>
</mgrwt>
</event>
<event>
 8    1  0.7623533E-028  0.1564810E+04  0.7818608E-02  0.8842463E-01
          2   -1    0    0  501    0  0.00000000000E+00  0.00000000000E+00  0.16956218505E+04  0.16956218505E+04  0.25500000000E-02 0.  1.
         -2   -1    0    0    0  501 -0.00000000000E+00 -0.00000000000E+00 -0.36102264018E+03  0.36102264019E+03  0.25500000000E-02 0. -1.
     200001    2    1    2    0    0 -0.21027274810E+02 -0.30864052962E+03  0.45631136254E+03  0.89170214603E+03  0.70086484777E+03 0.  0.
    5000001    2    3    3    0    0 -0.37830814743E+02 -0.77840179268E+02  0.18329929878E+03  0.27681455660E+03  0.18851366465E+03 0.  0.
        -13    1    4    4    0    0  0.50358847356E+02 -0.98224928887E+02  0.80637004100E+02  0.13669852873E+03  0.10566000000E+00 0. -1.
     200003    1    4    4    0    0 -0.88189662099E+02  0.20384749619E+02  0.10266229467E+03  0.14011602787E+03  0.30000000000E+02 0. -1.
     200000    1    3    3    0    0  0.16803539933E+02 -0.23080035035E+03  0.27301206376E+03  0.61488758943E+03  0.50000000000E+03 0.  1.
    -200001    1    1    2    0    0  0.21027274810E+02  0.30864052962E+03  0.87828784776E+03  0.11649423446E+04  0.70000000000E+03 0.  1.
<mgrwt>
<rscale>  0 0.15648104E+04</rscale>
<asrwt>0</asrwt>
<pdfrwt beam="1">  1        2 0.24223169E+00 0.15648104E+04</pdfrwt>
<pdfrwt beam="2">  1       -2 0.51574663E-01 0.15648104E+04</pdfrwt>
<totfact> 0.39436159E+01</totfact>
</mgrwt>
</event>
<event>
 8    1  0.7623533E-028  0.1448606E+04  0.7818608E-02  0.8919367E-01
         -2   -1    0    0    0  501 -0.00000000000E+00  0.00000000000E+00  0.41943998010E+03  0.41943998011E+03  0.25500000000E-02 0. -1.
          2   -1    0    0  501    0  0.00000000000E+00 -0.00000000000E+00 -0.12507510001E+04  0.12507510001E+04  0.25500000000E-02 0.  1.
     200001    2    1    2    0    0  0.14331292469E+03  0.96882155070E+02 -0.49688497932E+03  0.87535419003E+03  0.69958954322E+03 0.  0.
    5000001    2    3    3    0    0 -0.35646143208E+02  0.81720392409E+02 -0.15303671788E+03  0.24251309314E+03  0.16566077768E+03 0.  0.
        -13    1    4    4    0    0  0.96794515421E+01  0.32288057431E+02  0.30098352278E+02  0.45189959158E+02  0.10566000000E+00 0. -1.
     200003    1    4    4    0    0 -0.45325594750E+02  0.49432334978E+02 -0.18313507016E+03  0.19732313398E+03  0.30000000000E+02 0. -1.
     200000    1    3    3    0    0  0.17895906790E+03  0.15161762662E+02 -0.34384826144E+03  0.63284109690E+03  0.50000000000E+03 0. -1.
    -200001    1    1    2    0    0 -0.14331292469E+03 -0.96882155070E+02 -0.33442604069E+03  0.79483679019E+03  0.70000000000E+03 0. -1.
<mgrwt>
<rscale>  0 0.14486062E+04</rscale>
<asrwt>0</asrwt>
<pdfrwt beam="1">  1        2 0.17867871E+00 0.14486062E+04</pdfrwt>
<pdfrwt beam="2">  1       -2 0.59919998E-01 0.14486062E+04</pdfrwt>
<totfact> 0.50452973E+01</totfact>
</mgrwt>
</event>
<event>
 8    1  0.7623533E-028  0.1506562E+04  0.7818608E-02  0.8880101E-01
         -2   -1    0    0    0  501 -0.00000000000E+00  0.00000000000E+00  0.46889647251E+03  0.46889647251E+03  0.25500000000E-02 0. -1.
          2   -1    0    0  501    0  0.00000000000E+00 -0.00000000000E+00 -0.12101442911E+04  0.12101442911E+04  0.25500000000E-02 0.  1.
     200001    2    1    2    0    0 -0.16858489958E+03 -0.17781984854E+03 -0.51751897199E+03  0.90438253983E+03  0.70002937444E+03 0.  0.
    5000001    2    3    3    0    0  0.16748453136E+02 -0.11943033863E+03 -0.13712107397E+03  0.24676536600E+03  0.16597240874E+03 0.  0.
        -13    1    4    4    0    0  0.49815514451E+02  0.57218265453E+01 -0.94914220971E+02  0.10734544837E+03  0.10566000000E+00 0. -1.
     200003    1    4    4    0    0 -0.33067061315E+02 -0.12515216517E+03 -0.42206853002E+02  0.13941991763E+03  0.30000000000E+02 0. -1.
     200000    1    3    3    0    0 -0.18533335272E+03 -0.58389509909E+02 -0.38039789801E+03  0.65761717382E+03  0.50000000000E+03 0.  1.
    -200001    1    1    2    0    0  0.16858489958E+03  0.17781984854E+03 -0.22372884662E+03  0.77465822381E+03  0.70000000000E+03 0. -1.
<mgrwt>
<rscale>  0 0.15065622E+04</rscale>
<asrwt>0</asrwt>
<pdfrwt beam="1">  1        2 0.17287775E+00 0.15065622E+04</pdfrwt>
<pdfrwt beam="2">  1       -2 0.66985211E-01 0.15065622E+04</pdfrwt>
<totfact> 0.41738855E+01</totfact>
</mgrwt>
</event>
<event>
 8    1  0.7623533E-028  0.1455869E+04  0.7818608E-02  0.8914342E-01
          2   -1    0    0  501    0  0.00000000000E+00  0.00000000000E+00  0.96921653154E+03  0.96921653155E+03  0.25500000000E-02 0.  1.
         -2   -1    0    0    0  501 -0.00000000000E+00 -0.00000000000E+00 -0.54671828377E+03  0.54671828378E+03  0.25500000000E-02 0. -1.
     200001    2    1    2    0    0  0.58718744806E+02  0.72356528986E+02  0.28692292203E+02  0.70737653732E+03  0.70062469243E+03 0.  0.
    5000001    2    3    3    0    0 -0.68731178442E+02  0.72785448249E+01  0.25438658243E+02  0.18729076258E+03  0.17220264896E+03 0.  0.
        -13    1    4    4    0    0 -0.47345930763E+02 -0.78657757592E+02  0.17429019349E+02  0.93447642392E+02  0.10566000000E+00 0. -1.
     200003    1    4    4    0    0 -0.21385247680E+02  0.85936302416E+02  0.80096388939E+01  0.93843120188E+02  0.30000000000E+02 0. -1.
     200000    1    3    3    0    0  0.12744992325E+03  0.65077984161E+02  0.32536339601E+01  0.52008577475E+03  0.50000000000E+03 0. -1.
    -200001    1    1    2    0    0 -0.58718744806E+02 -0.72356528986E+02  0.39380595557E+03  0.80855827800E+03  0.70000000000E+03 0.  1.
<mgrwt>
<rscale>  0 0.14558687E+04</rscale>
<asrwt>0</asrwt>
<pdfrwt beam="1">  1        2 0.13845950E+00 0.14558687E+04</pdfrwt>
<pdfrwt beam="2">  1       -2 0.78102612E-01 0.14558687E+04</pdfrwt>
<totfact> 0.41592991E+01</totfact>
</mgrwt>
</event>
<event>
 8    1  0.7623533E-028  0.1461862E+04  0.7818608E-02  0.8910218E-01
          2   -1    0    0  501    0  0.00000000000E+00  0.00000000000E+00  0.26427767404E+04  0.26427767404E+04  0.25500000000E-02 0.  1.
         -2   -1    0    0    0  501 -0.00000000000E+00 -0.00000000000E+00 -0.20215866415E+03  0.20215866417E+03  0.25500000000E-02 0. -1.
     200001    2    1    2    0    0  0.18829262673E+03 -0.73145506291E+02  0.11182219785E+04  0.13351222315E+04  0.70094693189E+03 0.  0.
    5000001    2    3    3    0    0  0.11604620314E+03 -0.38419860607E+02  0.41749408474E+03  0.47057321764E+03  0.17942975063E+03 0.  0.
        -13    1    4    4    0    0  0.68950298155E+02  0.30527989719E+02  0.35279892464E+03  0.36076750708E+03  0.10566000000E+00 0. -1.
     200003    1    4    4    0    0  0.47095904984E+02 -0.68947850327E+02  0.64695160106E+02  0.10980571056E+03  0.30000000000E+02 0. -1.
     200000    1    3    3    0    0  0.72246423587E+02 -0.34725645684E+02  0.70072789380E+03  0.86454901384E+03  0.50000000000E+03 0. -1.
    -200001    1    1    2    0    0 -0.18829262673E+03  0.73145506291E+02  0.13223960977E+04  0.15098131730E+04  0.70000000000E+03 0. -1.
<mgrwt>
<rscale>  0 0.14618621E+04</rscale>
<asrwt>0</asrwt>
<pdfrwt beam="1">  1        2 0.37753953E+00 0.14618621E+04</pdfrwt>
<pdfrwt beam="2">  1       -2 0.28879809E-01 0.14618621E+04</pdfrwt>
<totfact> 0.39627462E+01</totfact>
</mgrwt>
</event>
<event>
 8    1  0.7623533E-028  0.1681402E+04  0.7818608E-02  0.8772043E-01
          2   -1    0    0  501    0  0.00000000000E+00  0.00000000000E+00  0.37701246886E+03  0.37701246887E+03  0.25500000000E-02 0.  1.
         -2   -1    0    0    0  501 -0.00000000000E+00 -0.00000000000E+00 -0.18746801289E+04  0.18746801289E+04  0.25500000000E-02 0. -1.
     200001    2    1    2    0    0 -0.43276668699E+03  0.17153095107E+03 -0.75107863588E+03  0.11273683369E+04  0.70009312044E+03 0.  0.
    5000001    2    3    3    0    0 -0.19320603342E+03  0.40119633941E+02 -0.32009556496E+03  0.41294223968E+03  0.17065159310E+03 0.  0.
        -13    1    4    4    0    0 -0.76664134122E+02  0.56324781414E+02 -0.32110169288E+02  0.10040390728E+03  0.10566000000E+00 0. -1.
     200003    1    4    4    0    0 -0.11654189930E+03 -0.16205147473E+02 -0.28798539568E+03  0.31253833240E+03  0.30000000000E+02 0. -1.
     200000    1    3    3    0    0 -0.23956065357E+03  0.13141131713E+03 -0.43098307091E+03  0.71442609724E+03  0.50000000000E+03 0.  1.
    -200001    1    1    2    0    0  0.43276668699E+03 -0.17153095107E+03 -0.74658902421E+03  0.11243242609E+04  0.70000000000E+03 0.  1.
<mgrwt>
<rscale>  0 0.16814015E+04</rscale>
<asrwt>0</asrwt>
<pdfrwt beam="1">  1        2 0.53858925E-01 0.16814015E+04</pdfrwt>
<pdfrwt beam="2">  1       -2 0.26781144E+00 0.16814015E+04</pdfrwt>
<totfact> 0.44162378E+00</totfact>
</mgrwt>
</event>
<event>
 8    1  0.7623533E-028  0.1860298E+04  0.7818608E-02  0.8674875E-01
         -2   -1    0    0    0  501 -0.00000000000E+00  0.00000000000E+00  0.48612848631E+03  0.48612848632E+03  0.25500000000E-02 0. -1.
          2   -1    0    0  501    0  0.00000000000E+00 -0.00000000000E+00 -0.17797294988E+04  0.17797294988E+04  0.25500000000E-02 0.  1.
     200001    2    1    2    0    0  0.54275722323E+03 -0.17933992346E+03 -0.91513126429E+03  0.12860684353E+04  0.69982753447E+03 0.  0.
    5000001    2    3    3    0    0  0.79102494168E+02 -0.11329666281E+03 -0.30865804237E+03  0.37111095602E+03  0.15284049259E+03 0.  0.
        -13    1    4    4    0    0 -0.32304638632E+02 -0.74622297928E+02 -0.93381966855E+02  0.12382358387E+03  0.10566000000E+00 0. -1.
     200003    1    4    4    0    0  0.11140713280E+03 -0.38674364880E+02 -0.21527607551E+03  0.24728737215E+03  0.30000000000E+02 0. -1.
     200000    1    3    3    0    0  0.46365472906E+03 -0.66043260657E+02 -0.60647322192E+03  0.91495747932E+03  0.50000000000E+03 0. -1.
    -200001    1    1    2    0    0 -0.54275722323E+03  0.17933992346E+03 -0.37846974818E+03  0.97978954975E+03  0.70000000000E+03 0. -1.
<mgrwt>
<rscale>  0 0.18602980E+04</rscale>
<asrwt>0</asrwt>
<pdfrwt beam="1">  1        2 0.25424707E+00 0.18602980E+04</pdfrwt>
<pdfrwt beam="2">  1       -2 0.69446927E-01 0.18602980E+04</pdfrwt>
<totfact> 0.18586795E+01</totfact>
</mgrwt>
</event>
<event>
 8    1  0.7623533E-028  0.1683206E+04  0.7818608E-02  0.8771001E-01
         -2   -1    0    0    0  501 -0.00000000000E+00  0.00000000000E+00  0.49239092922E+03  0.49239092923E+03  0.25500000000E-02 0. -1.
          2   -1    0    0  501    0  0.00000000000E+00 -0.00000000000E+00 -0.14384830663E+04  0.14384830663E+04  0.25500000000E-02 0.  1.
     200001    2    1    2    0    0  0.16755679136E+03 -0.16938853129E+03 -0.93413504826E+03  0.11913398686E+04  0.69993902684E+03 0.  0.
    5000001    2    3    3    0    0  0.75618456159E+02 -0.17819116982E+03 -0.28916141107E+03  0.37004751105E+03  0.12589914560E+03 0.  0.
        -13    1    4    4    0    0  0.70657698851E+02 -0.34259658488E+02 -0.65058599667E+02  0.10197483592E+03  0.10566000000E+00 0. -1.
     200003    1    4    4    0    0  0.49607573080E+01 -0.14393151134E+03 -0.22410281141E+03  0.26807267512E+03  0.30000000000E+02 0. -1.
     200000    1    3    3    0    0  0.91938335201E+02  0.88026385375E+01 -0.64497363719E+03  0.82129235757E+03  0.50000000000E+03 0.  1.
    -200001    1    1    2    0    0 -0.16755679136E+03  0.16938853129E+03 -0.11957088785E+02  0.73953412689E+03  0.70000000000E+03 0. -1.
<mgrwt>
<rscale>  0 0.16832065E+04</rscale>
<asrwt>0</asrwt>
<pdfrwt beam="1">  1        2 0.20549758E+00 0.16832065E+04</pdfrwt>
<pdfrwt beam="2">  1       -2 0.70341562E-01 0.16832065E+04</pdfrwt>
<totfact> 0.27707176E+01</totfact>
</mgrwt>
</event>
<event>
 8    1  0.7623533E-028  0.1904767E+04  0.7818608E-02  0.8652487E-01
          2   -1    0    0  501    0  0.00000000000E+00  0.00000000000E+00  0.65806037411E+03  0.65806037411E+03  0.25500000000E-02 0. -1.
         -2   -1    0    0    0  501 -0.00000000000E+00 -0.00000000000E+00 -0.13783454200E+04  0.13783454200E+04  0.25500000000E-02 0.  1.
     200001    2    1    2    0    0  0.62341645849E+03 -0.16173103248E+03 -0.31245930393E+03  0.10014532139E+04  0.70033757243E+03 0.  0.
    5000001    2    3    3    0    0  0.11826493506E+03 -0.97953988395E+02 -0.10191407980E+03  0.25742709579E+03  0.17972381944E+03 0.  0.
        -13    1    4    4    0    0  0.12939050307E+03  0.32364581389E+01 -0.66715920133E+02  0.14561388021E+03  0.10566000000E+00 0. -1.
     200003    1    4    4    0    0 -0.11125568009E+02 -0.10119044653E+03 -0.35198159668E+02  0.11181321558E+03  0.30000000000E+02 0. -1.
     200000    1    3    3    0    0  0.50515152343E+03 -0.63777044089E+02 -0.21054522413E+03  0.74402611808E+03  0.50000000000E+03 0.  1.
    -200001    1    1    2    0    0 -0.62341645849E+03  0.16173103248E+03 -0.40782574198E+03  0.10349525803E+04  0.70000000000E+03 0.  1.
<mgrwt>
<rscale>  0 0.19047672E+04</rscale>
<asrwt>0</asrwt>
<pdfrwt beam="1">  1        2 0.94008625E-01 0.19047672E+04</pdfrwt>
<pdfrwt beam="2">  1       -2 0.19690649E+00 0.19047672E+04</pdfrwt>
<totfact> 0.63531269E+00</totfact>
</mgrwt>
</event>
<event>
 8    1  0.7623533E-028  0.1752806E+04  0.7818608E-02  0.8731807E-01
          2   -1    0    0  501    0  0.00000000000E+00  0.00000000000E+00  0.25416647648E+04  0.25416647648E+04  0.25500000000E-02 0. -1.
         -2   -1    0    0    0  501 -0.00000000000E+00 -0.00000000000E+00 -0.30219648770E+03  0.30219648771E+03  0.25500000000E-02 0.  1.
     200001    2    1    2    0    0 -0.11310556681E+03 -0.18141935862E+03  0.33735526912E+03  0.80578869540E+03  0.69984354759E+03 0.  0.
    5000001    2    3    3    0    0  0.33080202578E+02  0.11661106796E+01  0.34018153538E+02  0.17593066500E+03  0.16940691987E+03 0.  0.
        -13    1    4    4    0    0 -0.43774499765E+02 -0.13640865251E+02  0.70836127814E+02  0.84380378064E+02  0.10566000000E+00 0. -1.
     200003    1    4    4    0    0  0.76854702343E+02  0.14806975931E+02 -0.36817974276E+02  0.91550286937E+02  0.30000000000E+02 0. -1.
     200000    1    3    3    0    0 -0.14618576938E+03 -0.18258546930E+03  0.30333711558E+03  0.62985803040E+03  0.50000000000E+03 0.  1.
    -200001    1    1    2    0    0  0.11310556681E+03  0.18141935862E+03  0.19021130080E+04  0.20380725571E+04  0.70000000000E+03 0. -1.
<mgrwt>
<rscale>  0 0.17528059E+04</rscale>
<asrwt>0</asrwt>
<pdfrwt beam="1">  1        2 0.36309495E+00 0.17528059E+04</pdfrwt>
<pdfrwt beam="2">  1       -2 0.43170929E-01 0.17528059E+04</pdfrwt>
<totfact> 0.20264586E+01</totfact>
</mgrwt>
</event>
<event>
 8    1  0.7623533E-028  0.1409540E+04  0.7818608E-02  0.8946942E-01
          2   -1    0    0  501    0  0.00000000000E+00  0.00000000000E+00  0.21317159449E+04  0.21317159449E+04  0.25500000000E-02 0.  1.
         -2   -1    0    0    0  501 -0.00000000000E+00 -0.00000000000E+00 -0.23300522848E+03  0.23300522850E+03  0.25500000000E-02 0. -1.
     200001    2    1    2    0    0 -0.30793338031E+02  0.74390114807E+02  0.92092728421E+03  0.11595064377E+04  0.69990427734E+03 0.  0.
    5000001    2    3    3    0    0 -0.11608037562E+01  0.66409007320E+02  0.42083781368E+03  0.45167081859E+03  0.14996852744E+03 0.  0.
        -13    1    4    4    0    0  0.16144863487E+01  0.10778499705E+03  0.33295042750E+03  0.34996601334E+03  0.10566000000E+00 0. -1.
     200003    1    4    4    0    0 -0.27752901050E+01 -0.41375989729E+02  0.87887386181E+02  0.10170480525E+03  0.30000000000E+02 0. -1.
     200000    1    3    3    0    0 -0.29632534274E+02  0.79811074865E+01  0.50008947053E+03  0.70783561913E+03  0.50000000000E+03 0. -1.
    -200001    1    1    2    0    0  0.30793338031E+02 -0.74390114807E+02  0.97778343225E+03  0.12052147357E+04  0.70000000000E+03 0.  1.
<mgrwt>
<rscale>  0 0.14095403E+04</rscale>
<asrwt>0</asrwt>
<pdfrwt beam="1">  1        2 0.30453083E+00 0.14095403E+04</pdfrwt>
<pdfrwt beam="2">  1       -2 0.33286463E-01 0.14095403E+04</pdfrwt>
<totfact> 0.56336320E+01</totfact>
</mgrwt>
</event>
<event>
 8    1  0.7623533E-028  0.1577831E+04  0.7818608E-02  0.8834284E-01
         -2   -1    0    0    0  501 -0.00000000000E+00  0.00000000000E+00  0.97638866883E+03  0.97638866883E+03  0.25500000000E-02 0. -1.
          2   -1    0    0  501    0  0.00000000000E+00 -0.00000000000E+00 -0.63743880508E+03  0.63743880509E+03  0.25500000000E-02 0.  1.
     200001    2    1    2    0    0  0.16934812601E+02 -0.36344910170E+03  0.16735123432E+03  0.80646873889E+03  0.70000239555E+03 0.  0.
    5000001    2    3    3    0    0  0.24417849296E+02 -0.14006400862E+03  0.18123161264E+02  0.23881927537E+03  0.19102889687E+03 0.  0.
        -13    1    4    4    0    0  0.80602936677E+02 -0.10695978391E+03 -0.46960936589E+02  0.14192452045E+03  0.10566000000E+00 0. -1.
     200003    1    4    4    0    0 -0.56185087381E+02 -0.33104224709E+02  0.65084097853E+02  0.96894754920E+02  0.30000000000E+02 0. -1.
     200000    1    3    3    0    0 -0.74830366951E+01 -0.22338509309E+03  0.14922807306E+03  0.56764946352E+03  0.50000000000E+03 0.  1.
    -200001    1    1    2    0    0 -0.16934812601E+02  0.36344910170E+03  0.17159862943E+03  0.80735873503E+03  0.70000000000E+03 0.  1.
<mgrwt>
<rscale>  0 0.15778315E+04</rscale>
<asrwt>0</asrwt>
<pdfrwt beam="1">  1        2 0.91062688E-01 0.15778315E+04</pdfrwt>
<pdfrwt beam="2">  1       -2 0.13948409E+00 0.15778315E+04</pdfrwt>
<totfact> 0.17610364E+01</totfact>
</mgrwt>
</event>
<event>
 8    1  0.7623533E-028  0.1463370E+04  0.7818608E-02  0.8909184E-01
         -2   -1    0    0    0  501 -0.00000000000E+00  0.00000000000E+00  0.11813584948E+04  0.11813584948E+04  0.25500000000E-02 0. -1.
          2   -1    0    0  501    0  0.00000000000E+00 -0.00000000000E+00 -0.45317541329E+03  0.45317541330E+03  0.25500000000E-02 0.  1.
     200001    2    1    2    0    0  0.11042231780E+03 -0.19059206444E+02  0.16249664815E+03  0.72758436017E+03  0.70029815000E+03 0.  0.
    5000001    2    3    3    0    0 -0.39380763687E+02  0.18735137604E+02 -0.44497069440E+02  0.16480929428E+03  0.15257871530E+03 0.  0.
        -13    1    4    4    0    0  0.24031473006E+02 -0.52522166541E+02 -0.77466694808E+01  0.58276167728E+02  0.10566000000E+00 0. -1.
     200003    1    4    4    0    0 -0.63412236693E+02  0.71257304145E+02 -0.36750399959E+02  0.10653312655E+03  0.30000000000E+02 0. -1.
     200000    1    3    3    0    0  0.14980308149E+03 -0.37794344048E+02  0.20699371758E+03  0.56277506589E+03  0.50000000000E+03 0. -1.
    -200001    1    1    2    0    0 -0.11042231780E+03  0.19059206444E+02  0.56568643337E+03  0.90694954795E+03  0.70000000000E+03 0. -1.
<mgrwt>
<rscale>  0 0.14633696E+04</rscale>
<asrwt>0</asrwt>
<pdfrwt beam="1">  1        2 0.64739345E-01 0.14633696E+04</pdfrwt>
<pdfrwt beam="2">  1       -2 0.16876550E+00 0.14633696E+04</pdfrwt>
<totfact> 0.15842951E+01</totfact>
</mgrwt>
</event>
<event>
 8    1  0.7623533E-028  0.1987627E+04  0.7818608E-02  0.8612427E-01
         -2   -1    0    0    0  501 -0.00000000000E+00  0.00000000000E+00  0.80484645259E+03  0.80484645260E+03  0.25500000000E-02 0. -1.
          2   -1    0    0  501    0  0.00000000000E+00 -0.00000000000E+00 -0.12271471987E+04  0.12271471987E+04  0.25500000000E-02 0.  1.
     200001    2    1    2    0    0 -0.12228440716E+03 -0.61157971494E+03  0.12897607699E+03  0.94438647971E+03  0.69731468553E+03 0.  0.
    5000001    2    3    3    0    0  0.42514565619E+02 -0.25015193302E+03  0.83343331940E+02  0.30417472537E+03  0.14557704040E+03 0.  0.
        -13    1    4    4    0    0  0.71822955945E+02 -0.75197154577E+02  0.66600157259E+02  0.12348579339E+03  0.10566000000E+00 0. -1.
     200003    1    4    4    0    0 -0.29308390327E+02 -0.17495477844E+03  0.16743174681E+02  0.18068893198E+03  0.30000000000E+02 0. -1.
     200000    1    3    3    0    0 -0.16479897278E+03 -0.36142778192E+03  0.45632745047E+02  0.64021175434E+03  0.50000000000E+03 0. -1.
    -200001    1    1    2    0    0  0.12228440716E+03  0.61157971494E+03 -0.55127682305E+03  0.10876071715E+04  0.70000000000E+03 0.  1.
<mgrwt>
<rscale>  0 0.19876268E+04</rscale>
<asrwt>0</asrwt>
<pdfrwt beam="1">  1        2 0.17530674E+00 0.19876268E+04</pdfrwt>
<pdfrwt beam="2">  1       -2 0.11497807E+00 0.19876268E+04</pdfrwt>
<totfact> 0.11361500E+01</totfact>
</mgrwt>
</event>
<event>
 8    1  0.7623533E-028  0.1896302E+04  0.7818608E-02  0.8656699E-01
          2   -1    0    0  501    0  0.00000000000E+00  0.00000000000E+00  0.11248595043E+04  0.11248595043E+04  0.25500000000E-02 0.  1.
         -2   -1    0    0    0  501 -0.00000000000E+00 -0.00000000000E+00 -0.79920219982E+03  0.79920219982E+03  0.25500000000E-02 0. -1.
     200001    2    1    2    0    0  0.46939364648E+03 -0.42387935560E+03  0.25827693593E+03  0.97825822689E+03  0.70019859996E+03 0.  0.
    5000001    2    3    3    0    0  0.10439117444E+03 -0.89639922031E+02  0.20727293377E+03  0.27289008770E+03  0.11213428543E+03 0.  0.
        -13    1    4    4    0    0 -0.10124609653E+02 -0.43645978395E+02  0.87574695472E+02  0.98370816820E+02  0.10566000000E+00 0. -1.
     200003    1    4    4    0    0  0.11451578409E+03 -0.45993943636E+02  0.11969823830E+03  0.17451927088E+03  0.30000000000E+02 0. -1.
     200000    1    3    3    0    0  0.36500247204E+03 -0.33423943356E+03  0.51004002157E+02  0.70536813919E+03  0.50000000000E+03 0.  1.
    -200001    1    1    2    0    0 -0.46939364648E+03  0.42387935560E+03  0.67380368538E+02  0.94580347722E+03  0.70000000000E+03 0. -1.
<mgrwt>
<rscale>  0 0.18963019E+04</rscale>
<asrwt>0</asrwt>
<pdfrwt beam="1">  1        2 0.16069422E+00 0.18963019E+04</pdfrwt>
<pdfrwt beam="2">  1       -2 0.11417174E+00 0.18963019E+04</pdfrwt>
<totfact> 0.13330069E+01</totfact>
</mgrwt>
</event>
<event>
 8    1  0.7623533E-028  0.1430558E+04  0.7818608E-02  0.8931992E-01
          2   -1    0    0  501    0  0.00000000000E+00  0.00000000000E+00  0.32929862201E+03  0.32929862202E+03  0.25500000000E-02 0.  1.
         -2   -1    0    0    0  501 -0.00000000000E+00 -0.00000000000E+00 -0.15536770792E+04  0.15536770792E+04  0.25500000000E-02 0. -1.
     200001    2    1    2    0    0  0.47754967133E+02  0.11241749487E+03 -0.49866055247E+03  0.86730611554E+03  0.69902741107E+03 0.  0.
    5000001    2    3    3    0    0  0.75134072974E+02 -0.19000746254E+01 -0.56720432717E+02  0.18971538983E+03  0.16469967348E+03 0.  0.
        -13    1    4    4    0    0  0.84264448745E+02 -0.66565709820E+02 -0.46898922976E+02  0.11717939745E+03  0.10566000000E+00 0. -1.
     200003    1    4    4    0    0 -0.91303757707E+01  0.64665635194E+02 -0.98215097409E+01  0.72535992379E+02  0.30000000000E+02 0. -1.
     200000    1    3    3    0    0 -0.27379105841E+02  0.11431756949E+03 -0.44194011975E+03  0.67759072572E+03  0.50000000000E+03 0. -1.
    -200001    1    1    2    0    0 -0.47754967133E+02 -0.11241749487E+03 -0.72571790474E+03  0.10156695857E+04  0.70000000000E+03 0.  1.
<mgrwt>
<rscale>  0 0.14305575E+04</rscale>
<asrwt>0</asrwt>
<pdfrwt beam="1">  1        2 0.47042661E-01 0.14305575E+04</pdfrwt>
<pdfrwt beam="2">  1       -2 0.22195386E+00 0.14305575E+04</pdfrwt>
<totfact> 0.10042758E+01</totfact>
</mgrwt>
</event>
<event>
 8    1  0.7623533E-028  0.1559398E+04  0.7818608E-02  0.8845887E-01
          2   -1    0    0  501    0  0.00000000000E+00  0.00000000000E+00  0.17182175679E+04  0.17182175679E+04  0.25500000000E-02 0.  1.
         -2   -1    0    0    0  501 -0.00000000000E+00 -0.00000000000E+00 -0.35381454371E+03  0.35381454372E+03  0.25500000000E-02 0. -1.
     200001    2    1    2    0    0 -0.22351441023E+03 -0.56207545108E+02  0.34104497479E+03  0.81092954760E+03  0.69869669860E+03 0.  0.
    5000001    2    3    3    0    0 -0.13753785181E+03 -0.31157767512E+02  0.74927962134E+02  0.23748580635E+03  0.17577781871E+03 0.  0.
        -13    1    4    4    0    0  0.15388406410E+02  0.38754639169E+02  0.49623766705E+02  0.64817084900E+02  0.10566000000E+00 0. -1.
     200003    1    4    4    0    0 -0.15292625822E+03 -0.69912406681E+02  0.25304195429E+02  0.17266872145E+03  0.30000000000E+02 0. -1.
     200000    1    3    3    0    0 -0.85976558418E+02 -0.25049777596E+02  0.26611701265E+03  0.57344374125E+03  0.50000000000E+03 0. -1.
    -200001    1    1    2    0    0  0.22351441023E+03  0.56207545108E+02  0.10233580494E+04  0.12611025640E+04  0.70000000000E+03 0.  1.
<mgrwt>
<rscale>  0 0.15593978E+04</rscale>
<asrwt>0</asrwt>
<pdfrwt beam="1">  1        2 0.24545965E+00 0.15593978E+04</pdfrwt>
<pdfrwt beam="2">  1       -2 0.50544935E-01 0.15593978E+04</pdfrwt>
<totfact> 0.40017519E+01</totfact>
</mgrwt>
</event>
<event>
 8    1  0.7623533E-028  0.1416648E+04  0.7818608E-02  0.8941855E-01
          2   -1    0    0  501    0  0.00000000000E+00  0.00000000000E+00  0.83784459711E+03  0.83784459712E+03  0.25500000000E-02 0.  1.
         -2   -1    0    0    0  501 -0.00000000000E+00 -0.00000000000E+00 -0.59882584335E+03  0.59882584336E+03  0.25500000000E-02 0. -1.
     200001    2    1    2    0    0  0.48264488574E+01 -0.30997377329E+02  0.14244662264E+02  0.70079849223E+03  0.69995105850E+03 0.  0.
    5000001    2    3    3    0    0 -0.31151854748E+01  0.10296595485E+02 -0.32608414343E+02  0.19685060550E+03  0.19383273186E+03 0.  0.
        -13    1    4    4    0    0 -0.22599388128E+02  0.22515828027E+02 -0.10794597568E+03  0.11256127080E+03  0.10566000000E+00 0. -1.
     200003    1    4    4    0    0  0.19484202654E+02 -0.12219232543E+02  0.75337561334E+02  0.84289334703E+02  0.30000000000E+02 0. -1.
     200000    1    3    3    0    0  0.79416343322E+01 -0.41293972813E+02  0.46853076607E+02  0.50394788672E+03  0.50000000000E+03 0. -1.
    -200001    1    1    2    0    0 -0.48264488574E+01  0.30997377329E+02  0.22477409150E+03  0.73587194825E+03  0.70000000000E+03 0.  1.
<mgrwt>
<rscale>  0 0.14166482E+04</rscale>
<asrwt>0</asrwt>
<pdfrwt beam="1">  1        2 0.11969208E+00 0.14166482E+04</pdfrwt>
<pdfrwt beam="2">  1       -2 0.85546550E-01 0.14166482E+04</pdfrwt>
<totfact> 0.41385968E+01</totfact>
</mgrwt>
</event>
<event>
 8    1  0.7623533E-028  0.2564799E+04  0.7818608E-02  0.8380258E-01
          2   -1    0    0  501    0  0.00000000000E+00  0.00000000000E+00  0.13338406008E+04  0.13338406008E+04  0.25500000000E-02 0.  1.
         -2   -1    0    0    0  501 -0.00000000000E+00 -0.00000000000E+00 -0.12329418319E+04  0.12329418319E+04  0.25500000000E-02 0. -1.
     200001    2    1    2    0    0  0.10371867604E+04 -0.22388091570E+03 -0.11824875573E+03  0.12768581412E+04  0.70036055289E+03 0.  0.
    5000001    2    3    3    0    0  0.22957828041E+03 -0.78197598904E+02  0.36971867529E+02  0.30343709781E+03  0.17856679991E+03 0.  0.
        -13    1    4    4    0    0  0.16944345965E+03 -0.94325877748E+02 -0.42072458804E+02  0.19844031895E+03  0.10566000000E+00 0. -1.
     200003    1    4    4    0    0  0.60134820762E+02  0.16128278844E+02  0.79044326333E+02  0.10499677886E+03  0.30000000000E+02 0. -1.
     200000    1    3    3    0    0  0.80760848000E+03 -0.14568331680E+03 -0.15522062326E+03  0.97342104335E+03  0.50000000000E+03 0. -1.
    -200001    1    1    2    0    0 -0.10371867604E+04  0.22388091570E+03  0.21914752461E+03  0.12899242915E+04  0.70000000000E+03 0.  1.
<mgrwt>
<rscale>  0 0.25647985E+04</rscale>
<asrwt>0</asrwt>
<pdfrwt beam="1">  1        2 0.19054866E+00 0.25647985E+04</pdfrwt>
<pdfrwt beam="2">  1       -2 0.17613455E+00 0.25647985E+04</pdfrwt>
<totfact> 0.30963109E+00</totfact>
</mgrwt>
</event>
<event>
 8    1  0.7623533E-028  0.1694205E+04  0.7818608E-02  0.8764677E-01
         -2   -1    0    0    0  501 -0.00000000000E+00  0.00000000000E+00  0.38662447995E+03  0.38662447995E+03  0.25500000000E-02 0. -1.
          2   -1    0    0  501    0  0.00000000000E+00 -0.00000000000E+00 -0.18560191565E+04  0.18560191565E+04  0.25500000000E-02 0.  1.
     200001    2    1    2    0    0 -0.42296741499E+03  0.20336890708E+03 -0.62137479243E+03  0.10470692681E+04  0.69999076634E+03 0.  0.
    5000001    2    3    3    0    0 -0.17652748754E+03  0.11166516315E+03 -0.10184783121E+03  0.27957302839E+03  0.15542533565E+03 0.  0.
        -13    1    4    4    0    0 -0.79627321520E+02  0.13202312703E+03 -0.40959679148E+02  0.15952530484E+03  0.10566000000E+00 0. -1.
     200003    1    4    4    0    0 -0.96900166023E+02 -0.20357963882E+02 -0.60888152063E+02  0.12004772355E+03  0.30000000000E+02 0. -1.
     200000    1    3    3    0    0 -0.24643992744E+03  0.91703743928E+02 -0.51952696122E+03  0.76749623968E+03  0.50000000000E+03 0. -1.
    -200001    1    1    2    0    0  0.42296741499E+03 -0.20336890708E+03 -0.84801988417E+03  0.11955743684E+04  0.70000000000E+03 0.  1.
<mgrwt>
<rscale>  0 0.16942048E+04</rscale>
<asrwt>0</asrwt>
<pdfrwt beam="1">  1        2 0.26514559E+00 0.16942048E+04</pdfrwt>
<pdfrwt beam="2">  1       -2 0.55232069E-01 0.16942048E+04</pdfrwt>
<totfact> 0.27994045E+01</totfact>
</mgrwt>
</event>
<event>
 8    1  0.7623533E-028  0.1601770E+04  0.7818608E-02  0.8819462E-01
         -2   -1    0    0    0  501 -0.00000000000E+00  0.00000000000E+00  0.32290556031E+03  0.32290556032E+03  0.25500000000E-02 0. -1.
          2   -1    0    0  501    0  0.00000000000E+00 -0.00000000000E+00 -0.19863906939E+04  0.19863906939E+04  0.25500000000E-02 0.  1.
     200001    2    1    2    0    0 -0.20028727456E+03  0.39549461440E+02 -0.35136740915E+03  0.80818597345E+03  0.69858883416E+03 0.  0.
    5000001    2    3    3    0    0 -0.50798200317E+02 -0.49224364098E+02  0.50766897677E+02  0.14340046206E+03  0.11394261469E+03 0.  0.
        -13    1    4    4    0    0 -0.29443521084E+02 -0.80110832823E+02  0.25372858701E+02  0.89041897959E+02  0.10566000000E+00 0. -1.
     200003    1    4    4    0    0 -0.21354679233E+02  0.30886468725E+02  0.25394038976E+02  0.54358564100E+02  0.30000000000E+02 0. -1.
     200000    1    3    3    0    0 -0.14948907425E+03  0.88773825537E+02 -0.40213430683E+03  0.66478551139E+03  0.50000000000E+03 0. -1.
    -200001    1    1    2    0    0  0.20028727456E+03 -0.39549461440E+02 -0.13121177244E+04  0.15011102808E+04  0.70000000000E+03 0.  1.
<mgrwt>
<rscale>  0 0.16017698E+04</rscale>
<asrwt>0</asrwt>
<pdfrwt beam="1">  1        2 0.28377009E+00 0.16017698E+04</pdfrwt>
<pdfrwt beam="2">  1       -2 0.46129367E-01 0.16017698E+04</pdfrwt>
<totfact> 0.34899340E+01</totfact>
</mgrwt>
</event>
<event>
 8    1  0.7623533E-028  0.1599806E+04  0.7818608E-02  0.8820667E-01
         -2   -1    0    0    0  501 -0.00000000000E+00  0.00000000000E+00  0.10690045953E+04  0.10690045953E+04  0.25500000000E-02 0. -1.
          2   -1    0    0  501    0  0.00000000000E+00 -0.00000000000E+00 -0.59854286001E+03  0.59854286001E+03  0.25500000000E-02 0.  1.
     200001    2    1    2    0    0 -0.25126453077E+02  0.85813539880E+02  0.62781934328E+03  0.94452828606E+03  0.69998660923E+03 0.  0.
    5000001    2    3    3    0    0  0.12025273416E+02  0.18984816783E+02  0.23301256629E+03  0.30287517092E+03  0.19218085919E+03 0.  0.
        -13    1    4    4    0    0  0.94428365732E+02 -0.21161207621E+02  0.10865725844E+03  0.14550231592E+03  0.10566000000E+00 0. -1.
     200003    1    4    4    0    0 -0.82403092316E+02  0.40146024404E+02  0.12435530785E+03  0.15737285500E+03  0.30000000000E+02 0. -1.
     200000    1    3    3    0    0 -0.37151726493E+02  0.66828723097E+02  0.39480677699E+03  0.64165311514E+03  0.50000000000E+03 0. -1.
    -200001    1    1    2    0    0  0.25126453077E+02 -0.85813539880E+02 -0.15735760802E+03  0.72301916923E+03  0.70000000000E+03 0.  1.
<mgrwt>
<rscale>  0 0.15998063E+04</rscale>
<asrwt>0</asrwt>
<pdfrwt beam="1">  1        2 0.85506123E-01 0.15998063E+04</pdfrwt>
<pdfrwt beam="2">  1       -2 0.15271494E+00 0.15998063E+04</pdfrwt>
<totfact> 0.14931530E+01</totfact>
</mgrwt>
</event>
<event>
 8    1  0.7623533E-028  0.1572900E+04  0.7818608E-02  0.8837372E-01
          2   -1    0    0  501    0  0.00000000000E+00  0.00000000000E+00  0.60792758111E+03  0.60792758112E+03  0.25500000000E-02 0.  1.
         -2   -1    0    0    0  501 -0.00000000000E+00 -0.00000000000E+00 -0.10173972227E+04  0.10173972227E+04  0.25500000000E-02 0. -1.
     200001    2    1    2    0    0  0.84364402911E+02 -0.22810376809E+03 -0.46035671004E+03  0.88253400199E+03  0.71259335016E+03 0.  0.
    5000001    2    3    3    0    0  0.62817370158E+02  0.92879729488E+02 -0.13227087864E+03  0.20346479115E+03  0.10644092145E+03 0.  0.
        -13    1    4    4    0    0  0.49127890026E+02  0.10277791633E+01 -0.76899944909E+02  0.91259074067E+02  0.10566000000E+00 0. -1.
     200003    1    4    4    0    0  0.13689480133E+02  0.91851950324E+02 -0.55370933734E+02  0.11220571709E+03  0.30000000000E+02 0. -1.
     200000    1    3    3    0    0  0.21547032753E+02 -0.32098349758E+03 -0.32808583139E+03  0.67906921083E+03  0.50000000000E+03 0. -1.
    -200001    1    1    2    0    0 -0.84364402911E+02  0.22810376809E+03  0.50887068488E+02  0.74279080180E+03  0.70000000000E+03 0.  1.
<mgrwt>
<rscale>  0 0.15729003E+04</rscale>
<asrwt>0</asrwt>
<pdfrwt beam="1">  1        2 0.86846798E-01 0.15729003E+04</pdfrwt>
<pdfrwt beam="2">  1       -2 0.14534246E+00 0.15729003E+04</pdfrwt>
<totfact> 0.16744481E+01</totfact>
</mgrwt>
</event>
<event>
 8    1  0.7623533E-028  0.1624131E+04  0.7818608E-02  0.8805859E-01
         -2   -1    0    0    0  501 -0.00000000000E+00  0.00000000000E+00  0.42377726005E+03  0.42377726006E+03  0.25500000000E-02 0. -1.
          2   -1    0    0  501    0  0.00000000000E+00 -0.00000000000E+00 -0.15561254918E+04  0.15561254918E+04  0.25500000000E-02 0.  1.
     200001    2    1    2    0    0  0.34675821556E+03  0.21381192308E+03 -0.63134876831E+03  0.10275597145E+04  0.70094286577E+03 0.  0.
    5000001    2    3    3    0    0  0.36061266248E+02  0.89327173684E+02 -0.19314604870E+03  0.28321391405E+03  0.18337111578E+03 0.  0.
        -13    1    4    4    0    0 -0.63695213438E+02  0.62135999424E+02 -0.43991567143E+02  0.99263446359E+02  0.10566000000E+00 0. -1.
     200003    1    4    4    0    0  0.99756479685E+02  0.27191174261E+02 -0.14915448156E+03  0.18395046769E+03  0.30000000000E+02 0. -1.
     200000    1    3    3    0    0  0.31069694931E+03  0.12448474939E+03 -0.43820271961E+03  0.74434580043E+03  0.50000000000E+03 0.  1.
    -200001    1    1    2    0    0 -0.34675821556E+03 -0.21381192308E+03 -0.50099946348E+03  0.95234303742E+03  0.70000000000E+03 0. -1.
<mgrwt>
<rscale>  0 0.16241313E+04</rscale>
<asrwt>0</asrwt>
<pdfrwt beam="1">  1        2 0.22230364E+00 0.16241313E+04</pdfrwt>
<pdfrwt beam="2">  1       -2 0.60539609E-01 0.16241313E+04</pdfrwt>
<totfact> 0.33267385E+01</totfact>
</mgrwt>
</event>
<event>
 8    1  0.7623533E-028  0.2167982E+04  0.7818608E-02  0.8531874E-01
         -2   -1    0    0    0  501 -0.00000000000E+00  0.00000000000E+00  0.20892446114E+03  0.20892446115E+03  0.25500000000E-02 0. -1.
          2   -1    0    0  501    0  0.00000000000E+00 -0.00000000000E+00 -0.56242159695E+04  0.56242159695E+04  0.25500000000E-02 0.  1.
     200001    2    1    2    0    0 -0.28715278107E+03 -0.60746072894E+03 -0.14040850557E+04  0.17062478390E+04  0.69882872558E+03 0.  0.
    5000001    2    3    3    0    0 -0.42834080955E+02 -0.27428435504E+03 -0.51425231342E+03  0.60511186533E+03  0.15696579818E+03 0.  0.
        -13    1    4    4    0    0 -0.75197329418E+02 -0.14261181401E+03 -0.37622725425E+03  0.40931616857E+03  0.10566000000E+00 0. -1.
     200003    1    4    4    0    0  0.32363248463E+02 -0.13167254103E+03 -0.13802505917E+03  0.19579569676E+03  0.30000000000E+02 0. -1.
     200000    1    3    3    0    0 -0.24431870011E+03 -0.33317637390E+03 -0.88983274226E+03  0.11011359737E+04  0.50000000000E+03 0. -1.
    -200001    1    1    2    0    0  0.28715278107E+03  0.60746072894E+03 -0.40112064527E+04  0.41268925917E+04  0.70000000000E+03 0.  1.
<mgrwt>
<rscale>  0 0.21679818E+04</rscale>
<asrwt>0</asrwt>
<pdfrwt beam="1">  1        2 0.80345933E+00 0.21679818E+04</pdfrwt>
<pdfrwt beam="2">  1       -2 0.29846355E-01 0.21679818E+04</pdfrwt>
<totfact> 0.16647455E-01</totfact>
</mgrwt>
</event>
<event>
 8    1  0.7623533E-028  0.1922688E+04  0.7818608E-02  0.8643645E-01
          2   -1    0    0  501    0  0.00000000000E+00  0.00000000000E+00  0.16773275045E+04  0.16773275045E+04  0.25500000000E-02 0.  1.
         -2   -1    0    0    0  501 -0.00000000000E+00 -0.00000000000E+00 -0.55098475566E+03  0.55098475567E+03  0.25500000000E-02 0. -1.
     200001    2    1    2    0    0  0.47500611583E+03  0.43117700899E+03  0.38496508623E+03  0.10236607497E+04  0.69866929920E+03 0.  0.
    5000001    2    3    3    0    0  0.86944808341E+02  0.56060864156E+02  0.69671125108E+02  0.22321463505E+03  0.18511749631E+03 0.  0.
        -13    1    4    4    0    0  0.30663811854E+02  0.71600338594E+02  0.11821730265E+03  0.14157054656E+03  0.10566000000E+00 0. -1.
     200003    1    4    4    0    0  0.56280996487E+02 -0.15539474437E+02 -0.48546177544E+02  0.81644088491E+02  0.30000000000E+02 0. -1.
     200000    1    3    3    0    0  0.38806130749E+03  0.37511614484E+03  0.31529396113E+03  0.80044611462E+03  0.50000000000E+03 0. -1.
    -200001    1    1    2    0    0 -0.47500611583E+03 -0.43117700899E+03  0.74137766263E+03  0.12046515105E+04  0.70000000000E+03 0.  1.
<mgrwt>
<rscale>  0 0.19226876E+04</rscale>
<asrwt>0</asrwt>
<pdfrwt beam="1">  1        2 0.23961822E+00 0.19226876E+04</pdfrwt>
<pdfrwt beam="2">  1       -2 0.78712107E-01 0.19226876E+04</pdfrwt>
<totfact> 0.15854403E+01</totfact>
</mgrwt>
</event>
<event>
 8    1  0.7623533E-028  0.1695976E+04  0.7818608E-02  0.8763663E-01
         -2   -1    0    0    0  501 -0.00000000000E+00  0.00000000000E+00  0.20876883402E+03  0.20876883404E+03  0.25500000000E-02 0. -1.
          2   -1    0    0  501    0  0.00000000000E+00 -0.00000000000E+00 -0.34444020248E+04  0.34444020248E+04  0.25500000000E-02 0.  1.
     200001    2    1    2    0    0  0.97351340820E+02 -0.43160474334E+03 -0.20095724445E+04  0.21736490132E+04  0.70043464012E+03 0.  0.
    5000001    2    3    3    0    0  0.27188562471E+02 -0.99191482159E+02 -0.26504626551E+03  0.32735732967E+03  0.16228102282E+03 0.  0.
        -13    1    4    4    0    0 -0.45655409416E+02  0.19330062240E+02 -0.75710543690E+02  0.90499532071E+02  0.10566000000E+00 0. -1.
     200003    1    4    4    0    0  0.72843971887E+02 -0.11852154440E+03 -0.18933572182E+03  0.23685779760E+03  0.30000000000E+02 0. -1.
     200000    1    3    3    0    0  0.70162778348E+02 -0.33241326118E+03 -0.17445261789E+04  0.18462916835E+04  0.50000000000E+03 0.  1.
    -200001    1    1    2    0    0 -0.97351340820E+02  0.43160474334E+03 -0.12260607463E+04  0.14795218456E+04  0.70000000000E+03 0. -1.
<mgrwt>
<rscale>  0 0.16959762E+04</rscale>
<asrwt>0</asrwt>
<pdfrwt beam="1">  1        2 0.49205740E+00 0.16959762E+04</pdfrwt>
<pdfrwt beam="2">  1       -2 0.29824121E-01 0.16959762E+04</pdfrwt>
<totfact> 0.12936670E+01</totfact>
</mgrwt>
</event>
<event>
 8    1  0.7623533E-028  0.1456522E+04  0.7818608E-02  0.8913892E-01
          2   -1    0    0  501    0  0.00000000000E+00  0.00000000000E+00  0.61470954621E+03  0.61470954621E+03  0.25500000000E-02 0.  1.
         -2   -1    0    0    0  501 -0.00000000000E+00 -0.00000000000E+00 -0.86278768383E+03  0.86278768383E+03  0.25500000000E-02 0. -1.
     200001    2    1    2    0    0 -0.16742395936E+03  0.81886430767E+02 -0.85838000171E+02  0.73516439909E+03  0.70594784631E+03 0.  0.
    5000001    2    3    3    0    0  0.45590409544E+02  0.16819169190E+01 -0.13462247270E+02  0.18104696117E+03  0.17468673608E+03 0.  0.
        -13    1    4    4    0    0 -0.29038305358E+02  0.60665540047E+02  0.28230094212E+02  0.72941622621E+02  0.10566000000E+00 0. -1.
     200003    1    4    4    0    0  0.74628714902E+02 -0.58983623128E+02 -0.41692341482E+02  0.10810533855E+03  0.30000000000E+02 0. -1.
     200000    1    3    3    0    0 -0.21301436890E+03  0.80204513848E+02 -0.72375752901E+02  0.55411743792E+03  0.50000000000E+03 0.  1.
    -200001    1    1    2    0    0  0.16742395936E+03 -0.81886430767E+02 -0.16224013745E+03  0.74233283095E+03  0.70000000000E+03 0.  1.
<mgrwt>
<rscale>  0 0.14565216E+04</rscale>
<asrwt>0</asrwt>
<pdfrwt beam="1">  1        2 0.87815650E-01 0.14565216E+04</pdfrwt>
<pdfrwt beam="2">  1       -2 0.12325538E+00 0.14565216E+04</pdfrwt>
<totfact> 0.25422032E+01</totfact>
</mgrwt>
</event>
<event>
 8    1  0.7623533E-028  0.1877664E+04  0.7818608E-02  0.8666055E-01
          2   -1    0    0  501    0  0.00000000000E+00  0.00000000000E+00  0.33322844662E+04  0.33322844662E+04  0.25500000000E-02 0.  1.
         -2   -1    0    0    0  501 -0.00000000000E+00 -0.00000000000E+00 -0.26450490900E+03  0.26450490901E+03  0.25500000000E-02 0. -1.
     200001    2    1    2    0    0 -0.26427067813E+03 -0.52005886321E+03  0.10999043930E+04  0.14281877810E+04  0.69973598701E+03 0.  0.
    5000001    2    3    3    0    0 -0.10637176646E+03 -0.18362360388E+03  0.34871812322E+03  0.45227714885E+03  0.19472470133E+03 0.  0.
        -13    1    4    4    0    0 -0.62612336363E+02 -0.21416228753E+03  0.30087826710E+03  0.37458448025E+03  0.10566000000E+00 0. -1.
     200003    1    4    4    0    0 -0.43759430102E+02  0.30538683643E+02  0.47839856118E+02  0.77692668605E+02  0.30000000000E+02 0. -1.
     200000    1    3    3    0    0 -0.15789891167E+03 -0.33643525933E+03  0.75118626976E+03  0.97591063213E+03  0.50000000000E+03 0. -1.
    -200001    1    1    2    0    0  0.26427067813E+03  0.52005886321E+03  0.19678751642E+04  0.21686015942E+04  0.70000000000E+03 0. -1.
<mgrwt>
<rscale>  0 0.18776641E+04</rscale>
<asrwt>0</asrwt>
<pdfrwt beam="1">  1        2 0.47604066E+00 0.18776641E+04</pdfrwt>
<pdfrwt beam="2">  1       -2 0.37786414E-01 0.18776641E+04</pdfrwt>
<totfact> 0.94690828E+00</totfact>
</mgrwt>
</event>
<event>
 8    1  0.7623533E-028  0.1467016E+04  0.7818608E-02  0.8906688E-01
         -2   -1    0    0    0  501 -0.00000000000E+00  0.00000000000E+00  0.57535496787E+03  0.57535496788E+03  0.25500000000E-02 0. -1.
          2   -1    0    0  501    0  0.00000000000E+00 -0.00000000000E+00 -0.93513367617E+03  0.93513367617E+03  0.25500000000E-02 0.  1.
     200001    2    1    2    0    0  0.19384184175E+03  0.43810627763E+02 -0.85796137335E+02  0.73295377029E+03  0.70026153791E+03 0.  0.
    5000001    2    3    3    0    0  0.12301146086E+03  0.35665962391E+02 -0.79631216083E+02  0.22785844791E+03  0.17080533169E+03 0.  0.
        -13    1    4    4    0    0  0.61411621716E+02  0.39457216115E+02  0.44880990709E+02  0.85688818853E+02  0.10566000000E+00 0. -1.
     200003    1    4    4    0    0  0.61599839141E+02 -0.37912537245E+01 -0.12451220679E+03  0.14216962906E+03  0.30000000000E+02 0. -1.
     200000    1    3    3    0    0  0.70830380897E+02  0.81446653721E+01 -0.61649212515E+01  0.50509532238E+03  0.50000000000E+03 0. -1.
    -200001    1    1    2    0    0 -0.19384184175E+03 -0.43810627763E+02 -0.27398257096E+03  0.77753487376E+03  0.70000000000E+03 0.  1.
<mgrwt>
<rscale>  0 0.14670158E+04</rscale>
<asrwt>0</asrwt>
<pdfrwt beam="1">  1        2 0.13359052E+00 0.14670158E+04</pdfrwt>
<pdfrwt beam="2">  1       -2 0.82193568E-01 0.14670158E+04</pdfrwt>
<totfact> 0.38942899E+01</totfact>
</mgrwt>
</event>
<event>
 8    1  0.7623533E-028  0.2469806E+04  0.7818608E-02  0.8413822E-01
          2   -1    0    0  501    0  0.00000000000E+00  0.00000000000E+00  0.28028132008E+04  0.28028132008E+04  0.25500000000E-02 0.  1.
         -2   -1    0    0    0  501 -0.00000000000E+00 -0.00000000000E+00 -0.54409096490E+03  0.54409096490E+03  0.25500000000E-02 0. -1.
     200001    2    1    2    0    0  0.46243841249E+02 -0.27569155661E+03 -0.19719003281E+03  0.77792588653E+03  0.69867048647E+03 0.  0.
    5000001    2    3    3    0    0  0.82897569857E+02  0.36967737555E+02  0.28524342266E+01  0.15413399923E+03  0.12454128885E+03 0.  0.
        -13    1    4    4    0    0  0.77287150916E+02  0.72026892586E+02 -0.93997697907E+01  0.10606386655E+03  0.10566000000E+00 0. -1.
     200003    1    4    4    0    0  0.56104189417E+01 -0.35059155031E+02  0.12252204017E+02  0.48070132676E+02  0.30000000000E+02 0. -1.
     200000    1    3    3    0    0 -0.36653728609E+02 -0.31265929416E+03 -0.20004246704E+03  0.62379188730E+03  0.50000000000E+03 0. -1.
    -200001    1    1    2    0    0 -0.46243841249E+02  0.27569155661E+03  0.24559122687E+04  0.25689782791E+04  0.70000000000E+03 0.  1.
<mgrwt>
<rscale>  0 0.24698059E+04</rscale>
<asrwt>0</asrwt>
<pdfrwt beam="1">  1        2 0.40040187E+00 0.24698059E+04</pdfrwt>
<pdfrwt beam="2">  1       -2 0.77727283E-01 0.24698059E+04</pdfrwt>
<totfact> 0.40183562E+00</totfact>
</mgrwt>
</event>
<event>
 8    1  0.7623533E-028  0.1801671E+04  0.7818608E-02  0.8705411E-01
          2   -1    0    0  501    0  0.00000000000E+00  0.00000000000E+00  0.10774606506E+04  0.10774606506E+04  0.25500000000E-02 0.  1.
         -2   -1    0    0    0  501 -0.00000000000E+00 -0.00000000000E+00 -0.75316390688E+03  0.75316390689E+03  0.25500000000E-02 0. -1.
     200001    2    1    2    0    0  0.41792679688E+03  0.25365242616E+03 -0.13070103279E+03  0.86314053310E+03  0.69923276458E+03 0.  0.
    5000001    2    3    3    0    0  0.99799632310E+02  0.14997019721E+03 -0.41940736460E+02  0.25500133223E+03  0.17554380480E+03 0.  0.
        -13    1    4    4    0    0 -0.93475622105E+01  0.12700955864E+03  0.11235616805E+02  0.12784778119E+03  0.10566000000E+00 0. -1.
     200003    1    4    4    0    0  0.10914719452E+03  0.22960638564E+02 -0.53176353266E+02  0.12715355104E+03  0.30000000000E+02 0. -1.
     200000    1    3    3    0    0  0.31812716457E+03  0.10368222896E+03 -0.88760296331E+02  0.60813920088E+03  0.50000000000E+03 0. -1.
    -200001    1    1    2    0    0 -0.41792679688E+03 -0.25365242616E+03  0.45499777654E+03  0.96748402442E+03  0.70000000000E+03 0.  1.
<mgrwt>
<rscale>  0 0.18016709E+04</rscale>
<asrwt>0</asrwt>
<pdfrwt beam="1">  1        2 0.15392295E+00 0.18016709E+04</pdfrwt>
<pdfrwt beam="2">  1       -2 0.10759485E+00 0.18016709E+04</pdfrwt>
<totfact> 0.16540545E+01</totfact>
</mgrwt>
</event>
<event>
 8    1  0.7623533E-028  0.1455800E+04  0.7818608E-02  0.8914389E-01
         -2   -1    0    0    0  501 -0.00000000000E+00  0.00000000000E+00  0.97773911023E+03  0.97773911024E+03  0.25500000000E-02 0. -1.
          2   -1    0    0  501    0  0.00000000000E+00 -0.00000000000E+00 -0.54190172791E+03  0.54190172792E+03  0.25500000000E-02 0.  1.
     200001    2    1    2    0    0  0.54393601802E+02 -0.12647108915E+02  0.42134751361E+03  0.81726731248E+03  0.69804979732E+03 0.  0.
    5000001    2    3    3    0    0 -0.47971280476E+01 -0.18282103142E+02  0.10421966479E+03  0.22219978005E+03  0.19532986456E+03 0.  0.
        -13    1    4    4    0    0  0.86332000444E+02 -0.43855453527E+02  0.47578271479E+02  0.10788984283E+03  0.10566000000E+00 0. -1.
     200003    1    4    4    0    0 -0.91129128492E+02  0.25573350385E+02  0.56641393314E+02  0.11430993722E+03  0.30000000000E+02 0. -1.
     200000    1    3    3    0    0  0.59190729849E+02  0.56349942267E+01  0.31712784882E+03  0.59506753243E+03  0.50000000000E+03 0. -1.
    -200001    1    1    2    0    0 -0.54393601802E+02  0.12647108915E+02  0.14489868706E+02  0.70237352568E+03  0.70000000000E+03 0.  1.
<mgrwt>
<rscale>  0 0.14558001E+04</rscale>
<asrwt>0</asrwt>
<pdfrwt beam="1">  1        2 0.77414533E-01 0.14558001E+04</pdfrwt>
<pdfrwt beam="2">  1       -2 0.13967701E+00 0.14558001E+04</pdfrwt>
<totfact> 0.21453320E+01</totfact>
</mgrwt>
</event>
<event>
 8    1  0.7623533E-028  0.1783877E+04  0.7818608E-02  0.8714921E-01
          2   -1    0    0  501    0  0.00000000000E+00  0.00000000000E+00  0.28239162228E+04  0.28239162228E+04  0.25500000000E-02 0.  1.
         -2   -1    0    0    0  501 -0.00000000000E+00 -0.00000000000E+00 -0.28172029973E+03  0.28172029974E+03  0.25500000000E-02 0. -1.
     200001    2    1    2    0    0  0.29135756301E+03 -0.37423613160E+02  0.45572825987E+03  0.88535792157E+03  0.69991474201E+03 0.  0.
    5000001    2    3    3    0    0  0.10025603067E+03  0.29526000021E+02  0.24469888172E+03  0.30610370724E+03  0.15132376056E+03 0.  0.
        -13    1    4    4    0    0  0.28223993498E+02 -0.99450849732E+01  0.20984634619E+03  0.21196933433E+03  0.10566000000E+00 0. -1.
     200003    1    4    4    0    0  0.72032037174E+02  0.39471084995E+02  0.34852535528E+02  0.94134372908E+02  0.30000000000E+02 0. -1.
     200000    1    3    3    0    0  0.19110153234E+03 -0.66949613181E+02  0.21102937816E+03  0.57925421432E+03  0.50000000000E+03 0. -1.
    -200001    1    1    2    0    0 -0.29135756301E+03  0.37423613160E+02  0.20864676632E+04  0.22202786010E+04  0.70000000000E+03 0.  1.
<mgrwt>
<rscale>  0 0.17838773E+04</rscale>
<asrwt>0</asrwt>
<pdfrwt beam="1">  1        2 0.40341664E+00 0.17838773E+04</pdfrwt>
<pdfrwt beam="2">  1       -2 0.40245753E-01 0.17838773E+04</pdfrwt>
<totfact> 0.16378692E+01</totfact>
</mgrwt>
</event>
<event>
 8    1  0.7623533E-028  0.1486732E+04  0.7818608E-02  0.8893324E-01
          2   -1    0    0  501    0  0.00000000000E+00  0.00000000000E+00  0.13407457788E+04  0.13407457788E+04  0.25500000000E-02 0.  1.
         -2   -1    0    0    0  501 -0.00000000000E+00 -0.00000000000E+00 -0.41215355296E+03  0.41215355297E+03  0.25500000000E-02 0. -1.
     200001    2    1    2    0    0  0.55821057445E+02 -0.21427987393E+03  0.30850677685E+03  0.79189058110E+03  0.69489740699E+03 0.  0.
    5000001    2    3    3    0    0  0.18789443135E+02 -0.11052415618E+03  0.89477822485E+02  0.23501512619E+03  0.18616443417E+03 0.  0.
        -13    1    4    4    0    0  0.59079237353E+02 -0.21286932836E+02  0.11360625002E+03  0.12980709150E+03  0.10566000000E+00 0. -1.
     200003    1    4    4    0    0 -0.40289794218E+02 -0.89237223344E+02 -0.24128427537E+02  0.10520803469E+03  0.30000000000E+02 0. -1.
     200000    1    3    3    0    0  0.37031614310E+02 -0.10375571775E+03  0.21902895437E+03  0.55687545490E+03  0.50000000000E+03 0. -1.
    -200001    1    1    2    0    0 -0.55821057445E+02  0.21427987393E+03  0.62008544898E+03  0.96100875067E+03  0.70000000000E+03 0. -1.
<mgrwt>
<rscale>  0 0.14867322E+04</rscale>
<asrwt>0</asrwt>
<pdfrwt beam="1">  1        2 0.19153511E+00 0.14867322E+04</pdfrwt>
<pdfrwt beam="2">  1       -2 0.58879078E-01 0.14867322E+04</pdfrwt>
<totfact> 0.46533060E+01</totfact>
</mgrwt>
</event>
<event>
 8    1  0.7623533E-028  0.1671600E+04  0.7818608E-02  0.8777730E-01
         -2   -1    0    0    0  501 -0.00000000000E+00  0.00000000000E+00  0.20620627910E+03  0.20620627912E+03  0.25500000000E-02 0. -1.
          2   -1    0    0  501    0  0.00000000000E+00 -0.00000000000E+00 -0.33876820836E+04  0.33876820836E+04  0.25500000000E-02 0.  1.
     200001    2    1    2    0    0 -0.27031949726E+03  0.36759575964E+03 -0.16251041544E+04  0.18273969287E+04  0.70015480390E+03 0.  0.
    5000001    2    3    3    0    0 -0.13304048514E+03  0.92594620314E+02 -0.57850241247E+03  0.62746094711E+03  0.18102117147E+03 0.  0.
        -13    1    4    4    0    0 -0.56392782740E+02 -0.80844982999E+01 -0.31265826714E+02  0.64985137856E+02  0.10566000000E+00 0. -1.
     200003    1    4    4    0    0 -0.76647702397E+02  0.10067911861E+03 -0.54723658576E+03  0.56247580926E+03  0.30000000000E+02 0. -1.
     200000    1    3    3    0    0 -0.13727901212E+03  0.27500113933E+03 -0.10466017419E+04  0.11999359816E+04  0.50000000000E+03 0.  1.
    -200001    1    1    2    0    0  0.27031949726E+03 -0.36759575964E+03 -0.15563716501E+04  0.17664914340E+04  0.70000000000E+03 0. -1.
<mgrwt>
<rscale>  0 0.16715996E+04</rscale>
<asrwt>0</asrwt>
<pdfrwt beam="1">  1        2 0.48395455E+00 0.16715996E+04</pdfrwt>
<pdfrwt beam="2">  1       -2 0.29458042E-01 0.16715996E+04</pdfrwt>
<totfact> 0.14346014E+01</totfact>
</mgrwt>
</event>
<event>
 8    1  0.7623533E-028  0.1635197E+04  0.7818608E-02  0.8799212E-01
         -2   -1    0    0    0  501 -0.00000000000E+00  0.00000000000E+00  0.40823064835E+03  0.40823064835E+03  0.25500000000E-02 0. -1.
          2   -1    0    0  501    0  0.00000000000E+00 -0.00000000000E+00 -0.16374755106E+04  0.16374755106E+04  0.25500000000E-02 0.  1.
     200001    2    1    2    0    0 -0.35494104475E+03 -0.15625120274E+02 -0.32582700278E+03  0.84888072539E+03  0.69871879935E+03 0.  0.
    5000001    2    3    3    0    0 -0.12332832201E+03  0.82170937124E+02 -0.20848063180E+03  0.27706021775E+03  0.10647183903E+03 0.  0.
        -13    1    4    4    0    0 -0.52864995101E+02  0.69319556345E+02 -0.16850424022E+03  0.18971979005E+03  0.10566000000E+00 0. -1.
     200003    1    4    4    0    0 -0.70463326913E+02  0.12851380778E+02 -0.39976391578E+02  0.87340427702E+02  0.30000000000E+02 0. -1.
     200000    1    3    3    0    0 -0.23161272273E+03 -0.97796057398E+02 -0.11734637097E+03  0.57182050764E+03  0.50000000000E+03 0. -1.
    -200001    1    1    2    0    0  0.35494104475E+03  0.15625120274E+02 -0.90341785952E+03  0.11968254336E+04  0.70000000000E+03 0.  1.
<mgrwt>
<rscale>  0 0.16351975E+04</rscale>
<asrwt>0</asrwt>
<pdfrwt beam="1">  1        2 0.23392507E+00 0.16351975E+04</pdfrwt>
<pdfrwt beam="2">  1       -2 0.58318665E-01 0.16351975E+04</pdfrwt>
<totfact> 0.32592303E+01</totfact>
</mgrwt>
</event>
<event>
 8    1  0.7623533E-028  0.1658393E+04  0.7818608E-02  0.8785456E-01
          2   -1    0    0  501    0  0.00000000000E+00  0.00000000000E+00  0.12878411462E+04  0.12878411462E+04  0.25500000000E-02 0.  1.
         -2   -1    0    0    0  501 -0.00000000000E+00 -0.00000000000E+00 -0.53389128970E+03  0.53389128971E+03  0.25500000000E-02 0. -1.
     200001    2    1    2    0    0  0.11091834912E+02  0.41917871024E+03  0.21926548218E+03  0.84617044398E+03  0.70149358421E+03 0.  0.
    5000001    2    3    3    0    0 -0.40679236564E+01  0.12506247018E+03  0.11352569236E+03  0.25632717319E+03  0.19276505763E+03 0.  0.
        -13    1    4    4    0    0 -0.15128629245E+02  0.79717872090E+02  0.16294215008E+03  0.18202738802E+03  0.10566000000E+00 0. -1.
     200003    1    4    4    0    0  0.11060705589E+02  0.45344598089E+02 -0.49416457717E+02  0.74299785177E+02  0.30000000000E+02 0. -1.
     200000    1    3    3    0    0  0.15159758569E+02  0.29411624006E+03  0.10573978982E+03  0.58984327079E+03  0.50000000000E+03 0. -1.
    -200001    1    1    2    0    0 -0.11091834912E+02 -0.41917871024E+03  0.53468437430E+03  0.97556199190E+03  0.70000000000E+03 0.  1.
<mgrwt>
<rscale>  0 0.16583934E+04</rscale>
<asrwt>0</asrwt>
<pdfrwt beam="1">  1        2 0.18397731E+00 0.16583934E+04</pdfrwt>
<pdfrwt beam="2">  1       -2 0.76270185E-01 0.16583934E+04</pdfrwt>
<totfact> 0.28071925E+01</totfact>
</mgrwt>
</event>
<event>
 8    1  0.7623533E-028  0.1771304E+04  0.7818608E-02  0.8721710E-01
         -2   -1    0    0    0  501 -0.00000000000E+00  0.00000000000E+00  0.85932485849E+03  0.85932485850E+03  0.25500000000E-02 0. -1.
          2   -1    0    0  501    0  0.00000000000E+00 -0.00000000000E+00 -0.91278537954E+03  0.91278537954E+03  0.25500000000E-02 0.  1.
     200001    2    1    2    0    0 -0.34808218531E+03 -0.39636994547E+03 -0.15471971599E+03  0.88977030017E+03  0.69963037037E+03 0.  0.
    5000001    2    3    3    0    0 -0.99455769076E+02 -0.10108065625E+03 -0.13119053733E+03  0.25765916957E+03  0.17049498969E+03 0.  0.
        -13    1    4    4    0    0  0.38233238628E+02 -0.65511490676E+02 -0.53847774120E+02  0.93022201051E+02  0.10566000000E+00 0. -1.
     200003    1    4    4    0    0 -0.13768900770E+03 -0.35569165573E+02 -0.77342763206E+02  0.16463696852E+03  0.30000000000E+02 0. -1.
     200000    1    3    3    0    0 -0.24862641623E+03 -0.29528928922E+03 -0.23529178664E+02  0.63211113060E+03  0.50000000000E+03 0. -1.
    -200001    1    1    2    0    0  0.34808218531E+03  0.39636994547E+03  0.10125919494E+03  0.88233993787E+03  0.70000000000E+03 0. -1.
<mgrwt>
<rscale>  0 0.17713037E+04</rscale>
<asrwt>0</asrwt>
<pdfrwt beam="1">  1        2 0.13039791E+00 0.17713037E+04</pdfrwt>
<pdfrwt beam="2">  1       -2 0.12276070E+00 0.17713037E+04</pdfrwt>
<totfact> 0.15189178E+01</totfact>
</mgrwt>
</event>
<event>
 8    1  0.7623533E-028  0.1862436E+04  0.7818608E-02  0.8673784E-01
          2   -1    0    0  501    0  0.00000000000E+00  0.00000000000E+00  0.49572101678E+04  0.49572101678E+04  0.25500000000E-02 0.  1.
         -2   -1    0    0    0  501 -0.00000000000E+00 -0.00000000000E+00 -0.17493047143E+03  0.17493047145E+03  0.25500000000E-02 0. -1.
     200001    2    1    2    0    0 -0.57835758394E+03 -0.69171203131E+01  0.18216462881E+04  0.20353849951E+04  0.69989394756E+03 0.  0.
    5000001    2    3    3    0    0 -0.17725962073E+03  0.32720903353E+02  0.49316111837E+03  0.55980931244E+03  0.19413126223E+03 0.  0.
        -13    1    4    4    0    0 -0.18658246186E+03  0.81494334597E+02  0.34364834673E+03  0.39943527513E+03  0.10566000000E+00 0. -1.
     200003    1    4    4    0    0  0.93228411304E+01 -0.48773431245E+02  0.14951277164E+03  0.16037403732E+03  0.30000000000E+02 0. -1.
     200000    1    3    3    0    0 -0.40109796321E+03 -0.39638023666E+02  0.13284851697E+04  0.14755756827E+04  0.50000000000E+03 0. -1.
    -200001    1    1    2    0    0  0.57835758394E+03  0.69171203131E+01  0.29606334082E+04  0.30967556441E+04  0.70000000000E+03 0.  1.
<mgrwt>
<rscale>  0 0.18624362E+04</rscale>
<asrwt>0</asrwt>
<pdfrwt beam="1">  1        2 0.70817296E+00 0.18624362E+04</pdfrwt>
<pdfrwt beam="2">  1       -2 0.24990065E-01 0.18624362E+04</pdfrwt>
<totfact> 0.13406008E+00</totfact>
</mgrwt>
</event>
<event>
 8    1  0.7623533E-028  0.1548861E+04  0.7818608E-02  0.8852596E-01
          2   -1    0    0  501    0  0.00000000000E+00  0.00000000000E+00  0.90875673949E+03  0.90875673950E+03  0.25500000000E-02 0.  1.
         -2   -1    0    0    0  501 -0.00000000000E+00 -0.00000000000E+00 -0.65995954853E+03  0.65995954853E+03  0.25500000000E-02 0. -1.
     200001    2    1    2    0    0  0.64492909602E+02  0.12761863255E+03  0.42724927014E+03  0.83231219019E+03  0.69982554421E+03 0.  0.
    5000001    2    3    3    0    0 -0.56079455180E+02  0.71113626121E+02  0.13306041462E+03  0.23709996450E+03  0.17409556603E+03 0.  0.
        -13    1    4    4    0    0 -0.32902184997E+02 -0.46962060232E+02  0.88244414665E+02  0.10523819061E+03  0.10566000000E+00 0. -1.
     200003    1    4    4    0    0 -0.23177270184E+02  0.11807568635E+03  0.44815999958E+02  0.13186177389E+03  0.30000000000E+02 0. -1.
     200000    1    3    3    0    0  0.12057236478E+03  0.56505006432E+02  0.29418885551E+03  0.59521222569E+03  0.50000000000E+03 0. -1.
    -200001    1    1    2    0    0 -0.64492909602E+02 -0.12761863255E+03 -0.17845207917E+03  0.73640409785E+03  0.70000000000E+03 0. -1.
<mgrwt>
<rscale>  0 0.15488611E+04</rscale>
<asrwt>0</asrwt>
<pdfrwt beam="1">  1        2 0.12982239E+00 0.15488611E+04</pdfrwt>
<pdfrwt beam="2">  1       -2 0.94279935E-01 0.15488611E+04</pdfrwt>
<totfact> 0.29379041E+01</totfact>
</mgrwt>
</event>
<event>
 8    1  0.7623533E-028  0.1455273E+04  0.7818608E-02  0.8914753E-01
         -2   -1    0    0    0  501 -0.00000000000E+00  0.00000000000E+00  0.27362067340E+03  0.27362067341E+03  0.25500000000E-02 0. -1.
          2   -1    0    0  501    0  0.00000000000E+00 -0.00000000000E+00 -0.19349965104E+04  0.19349965104E+04  0.25500000000E-02 0.  1.
     200001    2    1    2    0    0  0.15272559840E+03  0.43908373375E+02 -0.10101902857E+04  0.12394445078E+04  0.70034650065E+03 0.  0.
    5000001    2    3    3    0    0  0.64883367891E+02  0.10069477475E+03 -0.38440791351E+03  0.43164222372E+03  0.15555152279E+03 0.  0.
        -13    1    4    4    0    0 -0.14974342183E+01 -0.77523538209E+01  0.11942179272E+02  0.14316707331E+02  0.10566000000E+00 0. -1.
     200003    1    4    4    0    0  0.66380802110E+02  0.10844712857E+03 -0.39635009278E+03  0.41732551639E+03  0.30000000000E+02 0. -1.
     200000    1    3    3    0    0  0.87842230509E+02 -0.56786401374E+02 -0.62578237221E+03  0.80780228411E+03  0.50000000000E+03 0.  1.
    -200001    1    1    2    0    0 -0.15272559840E+03 -0.43908373375E+02 -0.65118555127E+03  0.96917267597E+03  0.70000000000E+03 0. -1.
<mgrwt>
<rscale>  0 0.14552732E+04</rscale>
<asrwt>0</asrwt>
<pdfrwt beam="1">  1        2 0.27642806E+00 0.14552732E+04</pdfrwt>
<pdfrwt beam="2">  1       -2 0.39088669E-01 0.14552732E+04</pdfrwt>
<totfact> 0.52040166E+01</totfact>
</mgrwt>
</event>
<event>
 8    1  0.7623533E-028  0.1461519E+04  0.7818608E-02  0.8910453E-01
          2   -1    0    0  501    0  0.00000000000E+00  0.00000000000E+00  0.17890637178E+04  0.17890637178E+04  0.25500000000E-02 0.  1.
         -2   -1    0    0    0  501 -0.00000000000E+00 -0.00000000000E+00 -0.29848543830E+03  0.29848543831E+03  0.25500000000E-02 0. -1.
     200001    2    1    2    0    0  0.12643498376E+03  0.15997952740E+03  0.66911230903E+03  0.98919329623E+03  0.69943751751E+03 0.  0.
    5000001    2    3    3    0    0  0.12278308289E+03  0.16483574309E+02  0.31050893795E+03  0.35736990106E+03  0.12629351515E+03 0.  0.
        -13    1    4    4    0    0  0.11592170846E+03 -0.31175674883E+02  0.20417053421E+03  0.23684463980E+03  0.10566000000E+00 0. -1.
     200003    1    4    4    0    0  0.68613744324E+01  0.47659249192E+02  0.10633840374E+03  0.12052526126E+03  0.30000000000E+02 0. -1.
     200000    1    3    3    0    0  0.36519008728E+01  0.14349595309E+03  0.35860337108E+03  0.63182339517E+03  0.50000000000E+03 0. -1.
    -200001    1    1    2    0    0 -0.12643498376E+03 -0.15997952740E+03  0.82146597044E+03  0.10983558599E+04  0.70000000000E+03 0.  1.
<mgrwt>
<rscale>  0 0.14615190E+04</rscale>
<asrwt>0</asrwt>
<pdfrwt beam="1">  1        2 0.25558053E+00 0.14615190E+04</pdfrwt>
<pdfrwt beam="2">  1       -2 0.42640777E-01 0.14615190E+04</pdfrwt>
<totfact> 0.52142535E+01</totfact>
</mgrwt>
</event>
<event>
 8    1  0.7623533E-028  0.1785676E+04  0.7818608E-02  0.8713954E-01
         -2   -1    0    0    0  501 -0.00000000000E+00  0.00000000000E+00  0.32598422750E+03  0.32598422751E+03  0.25500000000E-02 0. -1.
          2   -1    0    0  501    0  0.00000000000E+00 -0.00000000000E+00 -0.24453923785E+04  0.24453923785E+04  0.25500000000E-02 0.  1.
     200001    2    1    2    0    0  0.42849526388E+02  0.47561521603E+03 -0.14953668500E+04  0.17190109562E+04  0.70059313134E+03 0.  0.
    5000001    2    3    3    0    0  0.33234001951E+02  0.20032092363E+03 -0.54476193663E+03  0.61016962078E+03  0.18522534163E+03 0.  0.
        -13    1    4    4    0    0  0.81537354812E+02  0.24235252254E+02 -0.12242853385E+03  0.14907865289E+03  0.10566000000E+00 0. -1.
     200003    1    4    4    0    0 -0.48303352861E+02  0.17608567138E+03 -0.42233340278E+03  0.46109096789E+03  0.30000000000E+02 0. -1.
     200000    1    3    3    0    0  0.96155244367E+01  0.27529429239E+03 -0.95060491338E+03  0.11088413354E+04  0.50000000000E+03 0.  1.
    -200001    1    1    2    0    0 -0.42849526388E+02 -0.47561521603E+03 -0.62404130096E+03  0.10523656498E+04  0.70000000000E+03 0. -1.
<mgrwt>
<rscale>  0 0.17856756E+04</rscale>
<asrwt>0</asrwt>
<pdfrwt beam="1">  1        2 0.34934176E+00 0.17856756E+04</pdfrwt>
<pdfrwt beam="2">  1       -2 0.46569177E-01 0.17856756E+04</pdfrwt>
<totfact> 0.19521378E+01</totfact>
</mgrwt>
</event>
<event>
 8    1  0.7623533E-028  0.1444081E+04  0.7818608E-02  0.8922514E-01
         -2   -1    0    0    0  501 -0.00000000000E+00  0.00000000000E+00  0.37527293746E+03  0.37527293746E+03  0.25500000000E-02 0. -1.
          2   -1    0    0  501    0  0.00000000000E+00 -0.00000000000E+00 -0.13892357180E+04  0.13892357180E+04  0.25500000000E-02 0.  1.
     200001    2    1    2    0    0 -0.89106993632E+02  0.69018864751E-01 -0.69647027350E+03  0.99072473658E+03  0.69894534888E+03 0.  0.
    5000001    2    3    3    0    0 -0.30907976220E+02 -0.55199511554E+02 -0.24721380626E+03  0.31376601595E+03  0.18257096617E+03 0.  0.
        -13    1    4    4    0    0 -0.24613310662E+01  0.67853288082E+01 -0.23866023101E+03  0.23876937799E+03  0.10566000000E+00 0. -1.
     200003    1    4    4    0    0 -0.28446645154E+02 -0.61984840363E+02 -0.85535752509E+01  0.74996637957E+02  0.30000000000E+02 0. -1.
     200000    1    3    3    0    0 -0.58199017412E+02  0.55268530419E+02 -0.44925646724E+03  0.67695872063E+03  0.50000000000E+03 0.  1.
    -200001    1    1    2    0    0  0.89106993632E+02 -0.69018864751E-01 -0.31749250703E+03  0.77378391887E+03  0.70000000000E+03 0. -1.
<mgrwt>
<rscale>  0 0.14440811E+04</rscale>
<asrwt>0</asrwt>
<pdfrwt beam="1">  1        2 0.19846224E+00 0.14440811E+04</pdfrwt>
<pdfrwt beam="2">  1       -2 0.53610420E-01 0.14440811E+04</pdfrwt>
<totfact> 0.53402696E+01</totfact>
</mgrwt>
</event>
<event>
 8    1  0.7623533E-028  0.2098239E+04  0.7818608E-02  0.8562019E-01
          2   -1    0    0  501    0  0.00000000000E+00  0.00000000000E+00  0.12305394846E+04  0.12305394846E+04  0.25500000000E-02 0.  1.
         -2   -1    0    0    0  501 -0.00000000000E+00 -0.00000000000E+00 -0.89444658540E+03  0.89444658540E+03  0.25500000000E-02 0. -1.
     200001    2    1    2    0    0 -0.67242422204E+03 -0.38949351574E+03  0.24246727683E+03  0.10749264096E+04  0.70200916844E+03 0.  0.
    5000001    2    3    3    0    0 -0.27239206660E+03 -0.19286462897E+03  0.12572423858E+03  0.39498701417E+03  0.16974673530E+03 0.  0.
        -13    1    4    4    0    0 -0.13457017405E+03 -0.46779139893E+02  0.12856354456E+03  0.19190105739E+03  0.10566000000E+00 0. -1.
     200003    1    4    4    0    0 -0.13782189255E+03 -0.14608548907E+03 -0.28393059824E+01  0.20308595678E+03  0.30000000000E+02 0. -1.
     200000    1    3    3    0    0 -0.40003215544E+03 -0.19662888678E+03  0.11674303825E+03  0.67993939545E+03  0.50000000000E+03 0. -1.
    -200001    1    1    2    0    0  0.67242422204E+03  0.38949351574E+03  0.93625622367E+02  0.10500596604E+04  0.70000000000E+03 0. -1.
<mgrwt>
<rscale>  0 0.20982391E+04</rscale>
<asrwt>0</asrwt>
<pdfrwt beam="1">  1        2 0.17579135E+00 0.20982391E+04</pdfrwt>
<pdfrwt beam="2">  1       -2 0.12777808E+00 0.20982391E+04</pdfrwt>
<totfact> 0.86244418E+00</totfact>
</mgrwt>
</event>
<event>
 8    1  0.7623533E-028  0.1860088E+04  0.7818608E-02  0.8674982E-01
         -2   -1    0    0    0  501 -0.00000000000E+00  0.00000000000E+00  0.44868970542E+03  0.44868970543E+03  0.25500000000E-02 0. -1.
          2   -1    0    0  501    0  0.00000000000E+00 -0.00000000000E+00 -0.19277950240E+04  0.19277950240E+04  0.25500000000E-02 0.  1.
     200001    2    1    2    0    0  0.23110720669E+03 -0.53992344066E+03 -0.52033174692E+03  0.10520321540E+04  0.70078432025E+03 0.  0.
    5000001    2    3    3    0    0  0.23924241243E+01  0.25345046237E+02 -0.92380204364E+02  0.15482457670E+03  0.12160778071E+03 0.  0.
        -13    1    4    4    0    0 -0.21755345174E+02  0.43690791331E+02  0.44543455751E+01  0.49010536106E+02  0.10566000000E+00 0. -1.
     200003    1    4    4    0    0  0.24147769299E+02 -0.18345745095E+02 -0.96834549939E+02  0.10581404060E+03  0.30000000000E+02 0. -1.
     200000    1    3    3    0    0  0.22871478257E+03 -0.56526848690E+03 -0.42795154256E+03  0.89720757733E+03  0.50000000000E+03 0.  1.
    -200001    1    1    2    0    0 -0.23110720669E+03  0.53992344066E+03 -0.95877357163E+03  0.13244525754E+04  0.70000000000E+03 0. -1.
<mgrwt>
<rscale>  0 0.18600879E+04</rscale>
<asrwt>0</asrwt>
<pdfrwt beam="1">  1        2 0.27539929E+00 0.18600879E+04</pdfrwt>
<pdfrwt beam="2">  1       -2 0.64098530E-01 0.18600879E+04</pdfrwt>
<totfact> 0.18533191E+01</totfact>
</mgrwt>
</event>
<event>
 8    1  0.7623533E-028  0.2261376E+04  0.7818608E-02  0.8493307E-01
         -2   -1    0    0    0  501 -0.00000000000E+00  0.00000000000E+00  0.11239562112E+04  0.11239562112E+04  0.25500000000E-02 0. -1.
          2   -1    0    0  501    0  0.00000000000E+00 -0.00000000000E+00 -0.11374604337E+04  0.11374604337E+04  0.25500000000E-02 0.  1.
     200001    2    1    2    0    0 -0.29487975806E+03 -0.20970646280E+03  0.80407181791E+03  0.11259161147E+04  0.70016050789E+03 0.  0.
    5000001    2    3    3    0    0 -0.10598530730E+03 -0.81435668401E+02  0.91866038591E+02  0.22626530341E+03  0.15777187655E+03 0.  0.
        -13    1    4    4    0    0 -0.46705989293E+02  0.67612434652E+01  0.10494964771E+03  0.11507216678E+03  0.10566000000E+00 0. -1.
     200003    1    4    4    0    0 -0.59279318009E+02 -0.88196911866E+02 -0.13083609116E+02  0.11119313663E+03  0.30000000000E+02 0. -1.
     200000    1    3    3    0    0 -0.18889445075E+03 -0.12827079440E+03  0.71220577932E+03  0.89965081133E+03  0.50000000000E+03 0. -1.
    -200001    1    1    2    0    0  0.29487975806E+03  0.20970646280E+03 -0.81757604044E+03  0.11355005302E+04  0.70000000000E+03 0.  1.
<mgrwt>
<rscale>  0 0.22613763E+04</rscale>
<asrwt>0</asrwt>
<pdfrwt beam="1">  1        2 0.16249435E+00 0.22613763E+04</pdfrwt>
<pdfrwt beam="2">  1       -2 0.16056517E+00 0.22613763E+04</pdfrwt>
<totfact> 0.52950231E+00</totfact>
</mgrwt>
</event>
<event>
 8    1  0.7623533E-028  0.1877378E+04  0.7818608E-02  0.8666199E-01
          2   -1    0    0  501    0  0.00000000000E+00  0.00000000000E+00  0.19681046298E+04  0.19681046298E+04  0.25500000000E-02 0.  1.
         -2   -1    0    0    0  501 -0.00000000000E+00 -0.00000000000E+00 -0.44770853578E+03  0.44770853578E+03  0.25500000000E-02 0. -1.
     200001    2    1    2    0    0 -0.46204909668E+03  0.31451880648E+03  0.39948993659E+03  0.98094659996E+03  0.70018038758E+03 0.  0.
    5000001    2    3    3    0    0 -0.24530368593E+02  0.21413848879E+03  0.83244465981E+02  0.23830937810E+03  0.58349697599E+02 0.  0.
        -13    1    4    4    0    0 -0.29232124429E+01  0.10578645167E+03  0.59431489372E+02  0.12137310913E+03  0.10566000000E+00 0. -1.
     200003    1    4    4    0    0 -0.21607156150E+02  0.10835203712E+03  0.23812976609E+02  0.11693626896E+03  0.30000000000E+02 0. -1.
     200000    1    3    3    0    0 -0.43751872809E+03  0.10038031769E+03  0.31624547061E+03  0.74263722186E+03  0.50000000000E+03 0. -1.
    -200001    1    1    2    0    0  0.46204909668E+03 -0.31451880648E+03  0.11209061574E+04  0.14348665656E+04  0.70000000000E+03 0. -1.
<mgrwt>
<rscale>  0 0.18773782E+04</rscale>
<asrwt>0</asrwt>
<pdfrwt beam="1">  1        2 0.28115780E+00 0.18773782E+04</pdfrwt>
<pdfrwt beam="2">  1       -2 0.63958363E-01 0.18773782E+04</pdfrwt>
<totfact> 0.17726640E+01</totfact>
</mgrwt>
</event>
<event>
 8    1  0.7623533E-028  0.1740699E+04  0.7818608E-02  0.8738487E-01
          2   -1    0    0  501    0  0.00000000000E+00  0.00000000000E+00  0.26956941684E+04  0.26956941684E+04  0.25500000000E-02 0.  1.
         -2   -1    0    0    0  501 -0.00000000000E+00 -0.00000000000E+00 -0.28100682693E+03  0.28100682694E+03  0.25500000000E-02 0. -1.
     200001    2    1    2    0    0  0.28067972519E+03 -0.36555549192E+03  0.16092977740E+04  0.18143480880E+04  0.69971975338E+03 0.  0.
    5000001    2    3    3    0    0  0.10338694631E+03 -0.12775005754E+03  0.36231059665E+03  0.43849883226E+03  0.18439989042E+03 0.  0.
        -13    1    4    4    0    0  0.15177540059E+03 -0.91000058241E+02  0.23386582884E+03  0.29327464924E+03  0.10566000000E+00 0. -1.
     200003    1    4    4    0    0 -0.48388454288E+02 -0.36749999299E+02  0.12844476781E+03  0.14522418302E+03  0.30000000000E+02 0. -1.
     200000    1    3    3    0    0  0.17729277889E+03 -0.23780543438E+03  0.12469871773E+04  0.13758492557E+04  0.50000000000E+03 0. -1.
    -200001    1    1    2    0    0 -0.28067972519E+03  0.36555549192E+03  0.80538956749E+03  0.11623529074E+04  0.70000000000E+03 0.  1.
<mgrwt>
<rscale>  0 0.17406992E+04</rscale>
<asrwt>0</asrwt>
<pdfrwt beam="1">  1        2 0.38509917E+00 0.17406992E+04</pdfrwt>
<pdfrwt beam="2">  1       -2 0.40143832E-01 0.17406992E+04</pdfrwt>
<totfact> 0.19380669E+01</totfact>
</mgrwt>
</event>
<event>
 8    1  0.7623533E-028  0.1626482E+04  0.7818608E-02  0.8804443E-01
          2   -1    0    0  501    0  0.00000000000E+00  0.00000000000E+00  0.14538472771E+04  0.14538472771E+04  0.25500000000E-02 0.  1.
         -2   -1    0    0    0  501 -0.00000000000E+00 -0.00000000000E+00 -0.45490375658E+03  0.45490375658E+03  0.25500000000E-02 0. -1.
     200001    2    1    2    0    0 -0.31801588648E+03  0.16895393136E+01  0.80840039155E+03  0.11166376310E+04  0.70159208049E+03 0.  0.
    5000001    2    3    3    0    0 -0.94382988729E+02 -0.19427682672E+02  0.83028414794E+02  0.20745001857E+03  0.16387864145E+03 0.  0.
        -13    1    4    4    0    0  0.17650311251E+02 -0.35203033896E+02 -0.26243016980E+02  0.47323294338E+02  0.10566000000E+00 0. -1.
     200003    1    4    4    0    0 -0.11203329998E+03  0.15775351224E+02  0.10927143177E+03  0.16012672423E+03  0.30000000000E+02 0. -1.
     200000    1    3    3    0    0 -0.22363289775E+03  0.21117221985E+02  0.72537197675E+03  0.90918761247E+03  0.50000000000E+03 0.  1.
    -200001    1    1    2    0    0  0.31801588648E+03 -0.16895393136E+01  0.19054312894E+03  0.79211340260E+03  0.70000000000E+03 0. -1.
<mgrwt>
<rscale>  0 0.16264816E+04</rscale>
<asrwt>0</asrwt>
<pdfrwt beam="1">  1        2 0.20769247E+00 0.16264816E+04</pdfrwt>
<pdfrwt beam="2">  1       -2 0.64986252E-01 0.16264816E+04</pdfrwt>
<totfact> 0.32413893E+01</totfact>
</mgrwt>
</event>
<event>
 8    1  0.7623533E-028  0.2235802E+04  0.7818608E-02  0.8503673E-01
          2   -1    0    0  501    0  0.00000000000E+00  0.00000000000E+00  0.34829727981E+04  0.34829727981E+04  0.25500000000E-02 0.  1.
         -2   -1    0    0    0  501 -0.00000000000E+00 -0.00000000000E+00 -0.35880349897E+03  0.35880349898E+03  0.25500000000E-02 0. -1.
     200001    2    1    2    0    0 -0.15965784045E+03 -0.40720130932E+03  0.26696257781E+03  0.86773295834E+03  0.70027704283E+03 0.  0.
    5000001    2    3    3    0    0 -0.90293251071E+02 -0.39285757707E+02 -0.82325723217E+01  0.18516012704E+03  0.15658944872E+03 0.  0.
        -13    1    4    4    0    0  0.95602944220E+01 -0.36956942903E+02  0.52167931643E+02  0.64643012880E+02  0.10566000000E+00 0. -1.
     200003    1    4    4    0    0 -0.99853545493E+02 -0.23288148042E+01 -0.60400503965E+02  0.12051711416E+03  0.30000000000E+02 0. -1.
     200000    1    3    3    0    0 -0.69364589375E+02 -0.36791555161E+03  0.27519515013E+03  0.68257283130E+03  0.50000000000E+03 0. -1.
    -200001    1    1    2    0    0  0.15965784045E+03  0.40720130932E+03  0.28572067213E+04  0.29740433387E+04  0.70000000000E+03 0.  1.
<mgrwt>
<rscale>  0 0.22358022E+04</rscale>
<asrwt>0</asrwt>
<pdfrwt beam="1">  1        2 0.49756756E+00 0.22358022E+04</pdfrwt>
<pdfrwt beam="2">  1       -2 0.51257641E-01 0.22358022E+04</pdfrwt>
<totfact> 0.40594346E+00</totfact>
</mgrwt>
</event>
<event>
 8    1  0.7623533E-028  0.1953278E+04  0.7818608E-02  0.8628782E-01
         -2   -1    0    0    0  501 -0.00000000000E+00  0.00000000000E+00  0.51195355376E+03  0.51195355377E+03  0.25500000000E-02 0. -1.
          2   -1    0    0  501    0  0.00000000000E+00 -0.00000000000E+00 -0.18631066343E+04  0.18631066343E+04  0.25500000000E-02 0.  1.
     200001    2    1    2    0    0  0.28019564138E+02 -0.36331136917E+03 -0.13750642438E+04  0.15855337537E+04  0.70023950377E+03 0.  0.
    5000001    2    3    3    0    0 -0.54281306217E+02 -0.13025849850E+03 -0.26943233459E+03  0.34718445225E+03  0.16742020285E+03 0.  0.
        -13    1    4    4    0    0 -0.58879579497E+02  0.17087190545E+02 -0.12204274281E+03  0.13657678866E+03  0.10566000000E+00 0. -1.
     200003    1    4    4    0    0  0.45982732807E+01 -0.14734568905E+03 -0.14738959178E+03  0.21060766359E+03  0.30000000000E+02 0. -1.
     200000    1    3    3    0    0  0.82300870354E+02 -0.23305287066E+03 -0.11056319092E+04  0.12383493014E+04  0.50000000000E+03 0.  1.
    -200001    1    1    2    0    0 -0.28019564138E+02  0.36331136917E+03  0.23911163189E+02  0.78952643443E+03  0.70000000000E+03 0. -1.
<mgrwt>
<rscale>  0 0.19532783E+04</rscale>
<asrwt>0</asrwt>
<pdfrwt beam="1">  1        2 0.26615809E+00 0.19532783E+04</pdfrwt>
<pdfrwt beam="2">  1       -2 0.73136223E-01 0.19532783E+04</pdfrwt>
<totfact> 0.14915986E+01</totfact>
</mgrwt>
</event>
<event>
 8    1  0.7623533E-028  0.1460830E+04  0.7818608E-02  0.8910927E-01
         -2   -1    0    0    0  501 -0.00000000000E+00  0.00000000000E+00  0.26570423201E+03  0.26570423202E+03  0.25500000000E-02 0. -1.
          2   -1    0    0  501    0  0.00000000000E+00 -0.00000000000E+00 -0.20078933568E+04  0.20078933568E+04  0.25500000000E-02 0.  1.
     200001    2    1    2    0    0 -0.59907426581E+02 -0.52162177327E+02 -0.11706878015E+04  0.13664462481E+04  0.70025397379E+03 0.  0.
    5000001    2    3    3    0    0  0.88268903929E+02 -0.11131859828E+02 -0.25265167979E+03  0.30983372088E+03  0.15572008730E+03 0.  0.
        -13    1    4    4    0    0  0.12174888154E+03  0.21532436265E+02 -0.17982691953E+03  0.21822962246E+03  0.10566000000E+00 0. -1.
     200003    1    4    4    0    0 -0.33479977608E+02 -0.32664296093E+02 -0.72824760261E+02  0.91604098418E+02  0.30000000000E+02 0. -1.
     200000    1    3    3    0    0 -0.14817633051E+03 -0.41030317499E+02 -0.91803612168E+03  0.10566125272E+04  0.50000000000E+03 0.  1.
    -200001    1    1    2    0    0  0.59907426581E+02  0.52162177327E+02 -0.57150132333E+03  0.90715134078E+03  0.70000000000E+03 0. -1.
<mgrwt>
<rscale>  0 0.14608296E+04</rscale>
<asrwt>0</asrwt>
<pdfrwt beam="1">  1        2 0.28684190E+00 0.14608296E+04</pdfrwt>
<pdfrwt beam="2">  1       -2 0.37957749E-01 0.14608296E+04</pdfrwt>
<totfact> 0.50518872E+01</totfact>
</mgrwt>
</event>
<event>
 8    1  0.7623533E-028  0.1678172E+04  0.7818608E-02  0.8773912E-01
          2   -1    0    0  501    0  0.00000000000E+00  0.00000000000E+00  0.24325629119E+04  0.24325629119E+04  0.25500000000E-02 0.  1.
         -2   -1    0    0    0  501 -0.00000000000E+00 -0.00000000000E+00 -0.28943358757E+03  0.28943358758E+03  0.25500000000E-02 0. -1.
     200001    2    1    2    0    0 -0.30807451794E+02 -0.46019603957E+03  0.99738502075E+03  0.13023276990E+04  0.69896427807E+03 0.  0.
    5000001    2    3    3    0    0  0.40215568072E+02 -0.10536768269E+03  0.31328620483E+03  0.38094904603E+03  0.18507914269E+03 0.  0.
        -13    1    4    4    0    0 -0.42924466115E+02 -0.39246413303E+02  0.24351524898E+03  0.25036469080E+03  0.10566000000E+00 0. -1.
     200003    1    4    4    0    0  0.83140034186E+02 -0.66121269387E+02  0.69770955853E+02  0.13058435523E+03  0.30000000000E+02 0. -1.
     200000    1    3    3    0    0 -0.71023019866E+02 -0.35482835688E+03  0.68409881591E+03  0.92137865296E+03  0.50000000000E+03 0. -1.
    -200001    1    1    2    0    0  0.30807451794E+02  0.46019603957E+03  0.11457443036E+04  0.14196688005E+04  0.70000000000E+03 0.  1.
<mgrwt>
<rscale>  0 0.16781721E+04</rscale>
<asrwt>0</asrwt>
<pdfrwt beam="1">  1        2 0.34750896E+00 0.16781721E+04</pdfrwt>
<pdfrwt beam="2">  1       -2 0.41347658E-01 0.16781721E+04</pdfrwt>
<totfact> 0.25339500E+01</totfact>
</mgrwt>
</event>
<event>
 8    1  0.7623533E-028  0.1550616E+04  0.7818608E-02  0.8851474E-01
          2   -1    0    0  501    0  0.00000000000E+00  0.00000000000E+00  0.10986614914E+04  0.10986614914E+04  0.25500000000E-02 0.  1.
         -2   -1    0    0    0  501 -0.00000000000E+00 -0.00000000000E+00 -0.54712289239E+03  0.54712289239E+03  0.25500000000E-02 0. -1.
     200001    2    1    2    0    0 -0.10633198648E+03  0.47512575265E+02 -0.55684446170E+02  0.71182305549E+03  0.70001954874E+03 0.  0.
    5000001    2    3    3    0    0 -0.83250325041E+02  0.61498964829E+02 -0.11572153598E+02  0.20915589270E+03  0.18138228530E+03 0.  0.
        -13    1    4    4    0    0 -0.98121312568E+02  0.66844948691E+02  0.57718888540E+02  0.13201333419E+03  0.10566000000E+00 0. -1.
     200003    1    4    4    0    0  0.14870987527E+02 -0.53459838622E+01 -0.69291042138E+02  0.77142558514E+02  0.30000000000E+02 0. -1.
     200000    1    3    3    0    0 -0.23081661438E+02 -0.13986389564E+02 -0.44112292572E+02  0.50266716279E+03  0.50000000000E+03 0. -1.
    -200001    1    1    2    0    0  0.10633198648E+03 -0.47512575265E+02  0.60722304517E+03  0.93396132829E+03  0.70000000000E+03 0.  1.
<mgrwt>
<rscale>  0 0.15506165E+04</rscale>
<asrwt>0</asrwt>
<pdfrwt beam="1">  1        2 0.15695164E+00 0.15506165E+04</pdfrwt>
<pdfrwt beam="2">  1       -2 0.78160414E-01 0.15506165E+04</pdfrwt>
<totfact> 0.34387841E+01</totfact>
</mgrwt>
</event>
<event>
 8    1  0.7623533E-028  0.1440428E+04  0.7818608E-02  0.8925063E-01
         -2   -1    0    0    0  501 -0.00000000000E+00  0.00000000000E+00  0.17012628710E+03  0.17012628712E+03  0.25500000000E-02 0.  1.
          2   -1    0    0  501    0  0.00000000000E+00 -0.00000000000E+00 -0.30489605877E+04  0.30489605877E+04  0.25500000000E-02 0. -1.
     200001    2    1    2    0    0 -0.10025101310E+03  0.23482836274E+01 -0.17484960915E+04  0.18857751157E+04  0.69918053816E+03 0.  0.
    5000001    2    3    3    0    0  0.39034697535E+00 -0.11771110933E+02 -0.51723306022E+03  0.55298229877E+03  0.19524516063E+03 0.  0.
        -13    1    4    4    0    0 -0.80580318104E+02 -0.20916179243E+01 -0.39421800664E+03  0.40237471398E+03  0.10566000000E+00 0. -1.
     200003    1    4    4    0    0  0.80970665079E+02 -0.96794930088E+01 -0.12301505358E+03  0.15060758479E+03  0.30000000000E+02 0. -1.
     200000    1    3    3    0    0 -0.10064136008E+03  0.14119394561E+02 -0.12312630312E+04  0.13327928169E+04  0.50000000000E+03 0. -1.
    -200001    1    1    2    0    0  0.10025101310E+03 -0.23482836274E+01 -0.11303382091E+04  0.13333117591E+04  0.70000000000E+03 0.  1.
<mgrwt>
<rscale>  0 0.14404282E+04</rscale>
<asrwt>0</asrwt>
<pdfrwt beam="1">  1        2 0.43556576E+00 0.14404282E+04</pdfrwt>
<pdfrwt beam="2">  1       -2 0.24303757E-01 0.14404282E+04</pdfrwt>
<totfact> 0.32681789E+01</totfact>
</mgrwt>
</event>
<event>
 8    1  0.7623533E-028  0.1622264E+04  0.7818608E-02  0.8806986E-01
          2   -1    0    0  501    0  0.00000000000E+00  0.00000000000E+00  0.37304088732E+04  0.37304088732E+04  0.25500000000E-02 0.  1.
         -2   -1    0    0    0  501 -0.00000000000E+00 -0.00000000000E+00 -0.17637078177E+03  0.17637078179E+03  0.25500000000E-02 0. -1.
     200001    2    1    2    0    0 -0.17923080023E+03 -0.32142832655E+03  0.13684235508E+04  0.15824838974E+04  0.70443766373E+03 0.  0.
    5000001    2    3    3    0    0 -0.47634445013E+02 -0.40072959251E+02  0.34070353212E+03  0.39813307084E+03  0.19635723283E+03 0.  0.
        -13    1    4    4    0    0 -0.12164118874E+03 -0.27673666403E+02  0.21910681536E+03  0.25213135131E+03  0.10566000000E+00 0. -1.
     200003    1    4    4    0    0  0.74006743730E+02 -0.12399292848E+02  0.12159671676E+03  0.14600171954E+03  0.30000000000E+02 0. -1.
     200000    1    3    3    0    0 -0.13159635522E+03 -0.28135536730E+03  0.10277200187E+04  0.11843508265E+04  0.50000000000E+03 0. -1.
    -200001    1    1    2    0    0  0.17923080023E+03  0.32142832655E+03  0.21856145406E+04  0.23242957576E+04  0.70000000000E+03 0. -1.
<mgrwt>
<rscale>  0 0.16222640E+04</rscale>
<asrwt>0</asrwt>
<pdfrwt beam="1">  1        2 0.53291553E+00 0.16222640E+04</pdfrwt>
<pdfrwt beam="2">  1       -2 0.25195827E-01 0.16222640E+04</pdfrwt>
<totfact> 0.11810118E+01</totfact>
</mgrwt>
</event>
<event>
 8    1  0.7623533E-028  0.2030460E+04  0.7818608E-02  0.8592511E-01
          2   -1    0    0  501    0  0.00000000000E+00  0.00000000000E+00  0.19727903322E+04  0.19727903322E+04  0.25500000000E-02 0.  1.
         -2   -1    0    0    0  501 -0.00000000000E+00 -0.00000000000E+00 -0.52245381508E+03  0.52245381509E+03  0.25500000000E-02 0. -1.
     200001    2    1    2    0    0  0.56721020929E+03 -0.46774849792E+03  0.72920905444E+03  0.12500369773E+04  0.70023604637E+03 0.  0.
    5000001    2    3    3    0    0  0.18026161851E+03 -0.10194777371E+03  0.18180267203E+03  0.33724284427E+03  0.19440402460E+03 0.  0.
        -13    1    4    4    0    0  0.51221791873E+02  0.19838647080E+02 -0.27323302221E+02  0.61349962420E+02  0.10566000000E+00 0. -1.
     200003    1    4    4    0    0  0.12903982664E+03 -0.12178642079E+03  0.20912597425E+03  0.27589288185E+03  0.30000000000E+02 0. -1.
     200000    1    3    3    0    0  0.38694859078E+03 -0.36580072421E+03  0.54740638241E+03  0.91279413300E+03  0.50000000000E+03 0. -1.
    -200001    1    1    2    0    0 -0.56721020929E+03  0.46774849792E+03  0.72112746268E+03  0.12452071700E+04  0.70000000000E+03 0.  1.
<mgrwt>
<rscale>  0 0.20304599E+04</rscale>
<asrwt>0</asrwt>
<pdfrwt beam="1">  1        2 0.28182720E+00 0.20304599E+04</pdfrwt>
<pdfrwt beam="2">  1       -2 0.74636258E-01 0.20304599E+04</pdfrwt>
<totfact> 0.12443868E+01</totfact>
</mgrwt>
</event>
<event>
 8    1  0.7623533E-028  0.1835360E+04  0.7818608E-02  0.8687718E-01
         -2   -1    0    0    0  501 -0.00000000000E+00  0.00000000000E+00  0.43150368976E+03  0.43150368977E+03  0.25500000000E-02 0. -1.
          2   -1    0    0  501    0  0.00000000000E+00 -0.00000000000E+00 -0.19516332231E+04  0.19516332231E+04  0.25500000000E-02 0.  1.
     200001    2    1    2    0    0 -0.37400705946E+03 -0.80798402367E+02 -0.13477747780E+04  0.15669777225E+04  0.70179246810E+03 0.  0.
    5000001    2    3    3    0    0 -0.16848709291E+03  0.51977131845E+02 -0.57686947578E+03  0.61610297569E+03  0.12535933098E+03 0.  0.
        -13    1    4    4    0    0 -0.87428852971E+02  0.83708080746E+02 -0.37903844126E+03  0.39789571276E+03  0.10566000000E+00 0. -1.
     200003    1    4    4    0    0 -0.81058239940E+02 -0.31730948902E+02 -0.19783103451E+03  0.21820726293E+03  0.30000000000E+02 0. -1.
     200000    1    3    3    0    0 -0.20551996654E+03 -0.13277553421E+03 -0.77090530224E+03  0.95087474683E+03  0.50000000000E+03 0. -1.
    -200001    1    1    2    0    0  0.37400705946E+03  0.80798402367E+02 -0.17235475535E+03  0.81615919038E+03  0.70000000000E+03 0. -1.
<mgrwt>
<rscale>  0 0.18353604E+04</rscale>
<asrwt>0</asrwt>
<pdfrwt beam="1">  1        2 0.27880474E+00 0.18353604E+04</pdfrwt>
<pdfrwt beam="2">  1       -2 0.61643385E-01 0.18353604E+04</pdfrwt>
<totfact> 0.19620375E+01</totfact>
</mgrwt>
</event>
<event>
 8    1  0.7623533E-028  0.2066776E+04  0.7818608E-02  0.8576022E-01
         -2   -1    0    0    0  501 -0.00000000000E+00  0.00000000000E+00  0.11308427769E+04  0.11308427769E+04  0.25500000000E-02 0. -1.
          2   -1    0    0  501    0  0.00000000000E+00 -0.00000000000E+00 -0.94433207472E+03  0.94433207472E+03  0.25500000000E-02 0.  1.
     200001    2    1    2    0    0  0.26372251683E+03  0.58903897847E+03  0.49621624487E+03  0.10739585877E+04  0.70045699535E+03 0.  0.
    5000001    2    3    3    0    0  0.44705239158E+02  0.22200242286E+03  0.15961273412E+03  0.33504971337E+03  0.18841032715E+03 0.  0.
        -13    1    4    4    0    0 -0.49481778458E+02  0.13454115617E+03  0.23165600798E+02  0.14521165699E+03  0.10566000000E+00 0. -1.
     200003    1    4    4    0    0  0.94187017616E+02  0.87461266689E+02  0.13644713332E+03  0.18983805638E+03  0.30000000000E+02 0. -1.
     200000    1    3    3    0    0  0.21901727767E+03  0.36703655561E+03  0.33660351076E+03  0.73890887431E+03  0.50000000000E+03 0. -1.
    -200001    1    1    2    0    0 -0.26372251683E+03 -0.58903897847E+03 -0.30970554269E+03  0.10012162640E+04  0.70000000000E+03 0.  1.
<mgrwt>
<rscale>  0 0.20667763E+04</rscale>
<asrwt>0</asrwt>
<pdfrwt beam="1">  1        2 0.13490458E+00 0.20667763E+04</pdfrwt>
<pdfrwt beam="2">  1       -2 0.16154897E+00 0.20667763E+04</pdfrwt>
<totfact> 0.69280762E+00</totfact>
</mgrwt>
</event>
<event>
 8    1  0.7623533E-028  0.2208847E+04  0.7818608E-02  0.8514755E-01
         -2   -1    0    0    0  501 -0.00000000000E+00  0.00000000000E+00  0.35404636333E+03  0.35404636333E+03  0.25500000000E-02 0. -1.
          2   -1    0    0  501    0  0.00000000000E+00 -0.00000000000E+00 -0.34451735991E+04  0.34451735991E+04  0.25500000000E-02 0.  1.
     200001    2    1    2    0    0 -0.77559461840E+03 -0.17049260798E+03 -0.10056680908E+04  0.14604693159E+04  0.70070505370E+03 0.  0.
    5000001    2    3    3    0    0 -0.27606403374E+03 -0.88490301512E+02 -0.40659613881E+03  0.53033900945E+03  0.17859776219E+03 0.  0.
        -13    1    4    4    0    0 -0.12680791054E+03 -0.65340948546E+01 -0.54692185378E+02  0.13825406640E+03  0.10566000000E+00 0. -1.
     200003    1    4    4    0    0 -0.14925612321E+03 -0.81956206658E+02 -0.35190395344E+03  0.39208494305E+03  0.30000000000E+02 0. -1.
     200000    1    3    3    0    0 -0.49953058466E+03 -0.82002306469E+02 -0.59907195202E+03  0.93013030645E+03  0.50000000000E+03 0. -1.
    -200001    1    1    2    0    0  0.77559461840E+03  0.17049260798E+03 -0.20854591449E+04  0.23387506465E+04  0.70000000000E+03 0.  1.
<mgrwt>
<rscale>  0 0.22088469E+04</rscale>
<asrwt>0</asrwt>
<pdfrwt beam="1">  1        2 0.49216764E+00 0.22088469E+04</pdfrwt>
<pdfrwt beam="2">  1       -2 0.50578054E-01 0.22088469E+04</pdfrwt>
<totfact> 0.44085009E+00</totfact>
</mgrwt>
</event>
<event>
 8    1  0.7623533E-028  0.1466382E+04  0.7818608E-02  0.8907121E-01
          2   -1    0    0  501    0  0.00000000000E+00  0.00000000000E+00  0.43008467632E+03  0.43008467633E+03  0.25500000000E-02 0.  1.
         -2   -1    0    0    0  501 -0.00000000000E+00 -0.00000000000E+00 -0.12499143230E+04  0.12499143230E+04  0.25500000000E-02 0. -1.
     200001    2    1    2    0    0 -0.93257812016E+02 -0.19074179865E+03 -0.46663119973E+03  0.86770065747E+03  0.70005735562E+03 0.  0.
    5000001    2    3    3    0    0 -0.34823712144E+02 -0.19586156890E+02 -0.47362052450E+02  0.19057776198E+03  0.18022322514E+03 0.  0.
        -13    1    4    4    0    0  0.57141966621E+01  0.63098376895E+02 -0.66505339244E+02  0.91853298919E+02  0.10566000000E+00 0. -1.
     200003    1    4    4    0    0 -0.40537908806E+02 -0.82684533785E+02  0.19143286794E+02  0.98724463062E+02  0.30000000000E+02 0. -1.
     200000    1    3    3    0    0 -0.58434099873E+02 -0.17115564176E+03 -0.41926914728E+03  0.67712289549E+03  0.50000000000E+03 0. -1.
    -200001    1    1    2    0    0  0.93257812016E+02  0.19074179865E+03 -0.35319844694E+03  0.81229834185E+03  0.70000000000E+03 0. -1.
<mgrwt>
<rscale>  0 0.14663819E+04</rscale>
<asrwt>0</asrwt>
<pdfrwt beam="1">  1        2 0.61440669E-01 0.14663819E+04</pdfrwt>
<pdfrwt beam="2">  1       -2 0.17855919E+00 0.14663819E+04</pdfrwt>
<totfact> 0.14335566E+01</totfact>
</mgrwt>
</event>
<event>
 8    1  0.7623533E-028  0.1733538E+04  0.7818608E-02  0.8742464E-01
         -2   -1    0    0    0  501 -0.00000000000E+00  0.00000000000E+00  0.36291744955E+03  0.36291744956E+03  0.25500000000E-02 0.  1.
          2   -1    0    0  501    0  0.00000000000E+00 -0.00000000000E+00 -0.20701358745E+04  0.20701358745E+04  0.25500000000E-02 0. -1.
     200001    2    1    2    0    0  0.37917431323E+03 -0.21251314777E+03 -0.12218240610E+04  0.14767360721E+04  0.70637128543E+03 0.  0.
    5000001    2    3    3    0    0  0.18761941608E+03 -0.40410688741E+02 -0.40236376986E+03  0.48284085441E+03  0.18548481970E+03 0.  0.
        -13    1    4    4    0    0  0.12804843234E+02  0.31958428182E+02 -0.20471942452E+03  0.20759421736E+03  0.10566000000E+00 0. -1.
     200003    1    4    4    0    0  0.17481457284E+03 -0.72369116923E+02 -0.19764434534E+03  0.27524663705E+03  0.30000000000E+02 0. -1.
     200000    1    3    3    0    0  0.19155489715E+03 -0.17210245903E+03 -0.81946029111E+03  0.99389521769E+03  0.50000000000E+03 0. -1.
    -200001    1    1    2    0    0 -0.37917431323E+03  0.21251314777E+03 -0.48539436394E+03  0.95631725193E+03  0.70000000000E+03 0.  1.
<mgrwt>
<rscale>  0 0.17335379E+04</rscale>
<asrwt>0</asrwt>
<pdfrwt beam="1">  1        2 0.29573369E+00 0.17335379E+04</pdfrwt>
<pdfrwt beam="2">  1       -2 0.51845351E-01 0.17335379E+04</pdfrwt>
<totfact> 0.24673558E+01</totfact>
</mgrwt>
</event>
<event>
 8    1  0.7623533E-028  0.2063919E+04  0.7818608E-02  0.8577306E-01
         -2   -1    0    0    0  501 -0.00000000000E+00  0.00000000000E+00  0.24063722522E+03  0.24063722524E+03  0.25500000000E-02 0. -1.
          2   -1    0    0  501    0  0.00000000000E+00 -0.00000000000E+00 -0.44255027283E+04  0.44255027283E+04  0.25500000000E-02 0.  1.
     200001    2    1    2    0    0  0.31978019718E+03  0.17863059741E+02 -0.36458752548E+04  0.37264118273E+04  0.70082827423E+03 0.  0.
    5000001    2    3    3    0    0  0.22425129239E+02  0.24627445117E+02 -0.11322772679E+04  0.11463651935E+04  0.17604530057E+03 0.  0.
        -13    1    4    4    0    0  0.41052303846E+02 -0.17620375189E+02 -0.72502600280E+02  0.85161067891E+02  0.10566000000E+00 0. -1.
     200003    1    4    4    0    0 -0.18627174607E+02  0.42247820306E+02 -0.10597746676E+04  0.10612041256E+04  0.30000000000E+02 0. -1.
     200000    1    3    3    0    0  0.29735506794E+03 -0.67643853758E+01 -0.25135979869E+04  0.25800466339E+04  0.50000000000E+03 0.  1.
    -200001    1    1    2    0    0 -0.31978019718E+03 -0.17863059741E+02 -0.53899024826E+03  0.93972812618E+03  0.70000000000E+03 0. -1.
<mgrwt>
<rscale>  0 0.20639193E+04</rscale>
<asrwt>0</asrwt>
<pdfrwt beam="1">  1        2 0.63221463E+00 0.20639193E+04</pdfrwt>
<pdfrwt beam="2">  1       -2 0.34376749E-01 0.20639193E+04</pdfrwt>
<totfact> 0.20635821E+00</totfact>
</mgrwt>
</event>
<event>
 8    1  0.7623533E-028  0.1512684E+04  0.7818608E-02  0.8876062E-01
         -2   -1    0    0    0  501 -0.00000000000E+00  0.00000000000E+00  0.95340097241E+03  0.95340097242E+03  0.25500000000E-02 0. -1.
          2   -1    0    0  501    0  0.00000000000E+00 -0.00000000000E+00 -0.60001348595E+03  0.60001348596E+03  0.25500000000E-02 0.  1.
     200001    2    1    2    0    0 -0.27658748407E+03 -0.43766867481E+02  0.23976776027E+03  0.79096733417E+03  0.69980323650E+03 0.  0.
    5000001    2    3    3    0    0 -0.92558310638E+02 -0.33811043022E+02  0.39369847211E+02  0.22164740770E+03  0.19459537757E+03 0.  0.
        -13    1    4    4    0    0 -0.75648829895E+01 -0.58468799621E+02 -0.60778111550E+02  0.84674777776E+02  0.10566000000E+00 0. -1.
     200003    1    4    4    0    0 -0.84993427648E+02  0.24657756600E+02  0.10014795876E+03  0.13697262992E+03  0.30000000000E+02 0. -1.
     200000    1    3    3    0    0 -0.18402917343E+03 -0.99558244591E+01  0.20039791306E+03  0.56931992647E+03  0.50000000000E+03 0.  1.
    -200001    1    1    2    0    0  0.27658748407E+03  0.43766867481E+02  0.11361972619E+03  0.76244712421E+03  0.70000000000E+03 0.  1.
<mgrwt>
<rscale>  0 0.15126843E+04</rscale>
<asrwt>0</asrwt>
<pdfrwt beam="1">  1        2 0.85716213E-01 0.15126843E+04</pdfrwt>
<pdfrwt beam="2">  1       -2 0.13620014E+00 0.15126843E+04</pdfrwt>
<totfact> 0.20232628E+01</totfact>
</mgrwt>
</event>
<event>
 8    1  0.7623533E-028  0.1451644E+04  0.7818608E-02  0.8917261E-01
         -2   -1    0    0    0  501 -0.00000000000E+00  0.00000000000E+00  0.12155838318E+04  0.12155838318E+04  0.25500000000E-02 0. -1.
          2   -1    0    0  501    0  0.00000000000E+00 -0.00000000000E+00 -0.43338650570E+03  0.43338650571E+03  0.25500000000E-02 0.  1.
     200001    2    1    2    0    0  0.45767273100E+02 -0.86948036290E+02  0.20360491924E+03  0.73550234267E+03  0.69989579841E+03 0.  0.
    5000001    2    3    3    0    0 -0.54189419741E+01  0.85579983685E+02  0.58423905601E+02  0.18462715444E+03  0.15271062462E+03 0.  0.
        -13    1    4    4    0    0  0.39020718168E+02  0.69637706829E+02  0.90074764065E+02  0.12035572668E+03  0.10566000000E+00 0. -1.
     200003    1    4    4    0    0 -0.44439660142E+02  0.15942276856E+02 -0.31650858464E+02  0.64271427761E+02  0.30000000000E+02 0. -1.
     200000    1    3    3    0    0  0.51186215074E+02 -0.17252801998E+03  0.14518101364E+03  0.55087518823E+03  0.50000000000E+03 0.  1.
    -200001    1    1    2    0    0 -0.45767273100E+02  0.86948036290E+02  0.57859240683E+03  0.91346799481E+03  0.70000000000E+03 0. -1.
<mgrwt>
<rscale>  0 0.14516441E+04</rscale>
<asrwt>0</asrwt>
<pdfrwt beam="1">  1        2 0.61912358E-01 0.14516441E+04</pdfrwt>
<pdfrwt beam="2">  1       -2 0.17365483E+00 0.14516441E+04</pdfrwt>
<totfact> 0.15397684E+01</totfact>
</mgrwt>
</event>
<event>
 8    1  0.7623533E-028  0.1956199E+04  0.7818608E-02  0.8627377E-01
         -2   -1    0    0    0  501 -0.00000000000E+00  0.00000000000E+00  0.11822674710E+04  0.11822674710E+04  0.25500000000E-02 0. -1.
          2   -1    0    0  501    0  0.00000000000E+00 -0.00000000000E+00 -0.80918949473E+03  0.80918949474E+03  0.25500000000E-02 0.  1.
     200001    2    1    2    0    0  0.62045426845E+01  0.66057027514E+03  0.12184987680E+02  0.96352927666E+03  0.70131919145E+03 0.  0.
    5000001    2    3    3    0    0  0.97250242985E+02  0.15397123725E+03  0.10434377450E+03  0.24004800756E+03  0.11649322297E+03 0.  0.
        -13    1    4    4    0    0  0.62687041120E+02  0.11533786831E+02  0.49499865846E+02  0.80702795775E+02  0.10566000000E+00 0. -1.
     200003    1    4    4    0    0  0.34563201866E+02  0.14243745041E+03  0.54843908653E+02  0.15934521179E+03  0.30000000000E+02 0. -1.
     200000    1    3    3    0    0 -0.91045700301E+02  0.50659903790E+03 -0.92158786820E+02  0.72348126909E+03  0.50000000000E+03 0.  1.
    -200001    1    1    2    0    0 -0.62045426845E+01 -0.66057027514E+03  0.36089298857E+03  0.10279276891E+04  0.70000000000E+03 0.  1.
<mgrwt>
<rscale>  0 0.19561988E+04</rscale>
<asrwt>0</asrwt>
<pdfrwt beam="1">  1        2 0.11559850E+00 0.19561988E+04</pdfrwt>
<pdfrwt beam="2">  1       -2 0.16889535E+00 0.19561988E+04</pdfrwt>
<totfact> 0.76024113E+00</totfact>
</mgrwt>
</event>
<event>
 8    1  0.7623533E-028  0.1782241E+04  0.7818608E-02  0.8715801E-01
          2   -1    0    0  501    0  0.00000000000E+00  0.00000000000E+00  0.33679086176E+04  0.33679086176E+04  0.25500000000E-02 0.  1.
         -2   -1    0    0    0  501 -0.00000000000E+00 -0.00000000000E+00 -0.23578308120E+03  0.23578308121E+03  0.25500000000E-02 0. -1.
     200001    2    1    2    0    0 -0.27159605152E+03 -0.63695789033E+02  0.25281439888E+04  0.26379716159E+04  0.69968610778E+03 0.  0.
    5000001    2    3    3    0    0 -0.92900730080E+02 -0.28915720320E+02  0.52964233107E+03  0.56984431153E+03  0.18637294867E+03 0.  0.
        -13    1    4    4    0    0  0.12215691762E+02  0.47333080914E+02  0.42425602709E+02  0.64727016023E+02  0.10566000000E+00 0. -1.
     200003    1    4    4    0    0 -0.10511642184E+03 -0.76248801235E+02  0.48721672836E+03  0.50511729551E+03  0.30000000000E+02 0. -1.
     200000    1    3    3    0    0 -0.17869532144E+03 -0.34780068713E+02  0.19985016577E+04  0.20681273044E+04  0.50000000000E+03 0.  1.
    -200001    1    1    2    0    0  0.27159605152E+03  0.63695789033E+02  0.60398154764E+03  0.96572008296E+03  0.70000000000E+03 0. -1.
<mgrwt>
<rscale>  0 0.17822411E+04</rscale>
<asrwt>0</asrwt>
<pdfrwt beam="1">  1        2 0.48112983E+00 0.17822411E+04</pdfrwt>
<pdfrwt beam="2">  1       -2 0.33683295E-01 0.17822411E+04</pdfrwt>
<totfact> 0.11342292E+01</totfact>
</mgrwt>
</event>
<event>
 8    1  0.7623533E-028  0.2276958E+04  0.7818608E-02  0.8487062E-01
          2   -1    0    0  501    0  0.00000000000E+00  0.00000000000E+00  0.37663713000E+04  0.37663713000E+04  0.25500000000E-02 0.  1.
         -2   -1    0    0    0  501 -0.00000000000E+00 -0.00000000000E+00 -0.34413353409E+03  0.34413353410E+03  0.25500000000E-02 0. -1.
     200001    2    1    2    0    0  0.45173665407E+03  0.76246830634E+03  0.14521499732E+04  0.18396746261E+04  0.70017088077E+03 0.  0.
    5000001    2    3    3    0    0  0.10866934024E+03  0.24196652497E+03  0.38703455708E+03  0.50810106974E+03  0.19497211077E+03 0.  0.
        -13    1    4    4    0    0  0.44469504636E+02  0.22441893569E+03  0.18805540289E+03  0.29615239533E+03  0.10566000000E+00 0. -1.
     200003    1    4    4    0    0  0.64199835604E+02  0.17547589278E+02  0.19897915418E+03  0.21194867440E+03  0.30000000000E+02 0. -1.
     200000    1    3    3    0    0  0.34306731383E+03  0.52050178137E+03  0.10651154161E+04  0.13315735563E+04  0.50000000000E+03 0.  1.
    -200001    1    1    2    0    0 -0.45173665407E+03 -0.76246830634E+03  0.19700877928E+04  0.22708302081E+04  0.70000000000E+03 0.  1.
<mgrwt>
<rscale>  0 0.22769582E+04</rscale>
<asrwt>0</asrwt>
<pdfrwt beam="1">  1        2 0.53805300E+00 0.22769582E+04</pdfrwt>
<pdfrwt beam="2">  1       -2 0.49161937E-01 0.22769582E+04</pdfrwt>
<totfact> 0.29239604E+00</totfact>
</mgrwt>
</event>
<event>
 8    1  0.7623533E-028  0.1598050E+04  0.7818608E-02  0.8821747E-01
         -2   -1    0    0    0  501 -0.00000000000E+00  0.00000000000E+00  0.27611614567E+03  0.27611614568E+03  0.25500000000E-02 0. -1.
          2   -1    0    0  501    0  0.00000000000E+00 -0.00000000000E+00 -0.23122202523E+04  0.23122202523E+04  0.25500000000E-02 0.  1.
     200001    2    1    2    0    0 -0.37898202368E+03  0.78089400160E+02 -0.10055033175E+04  0.12837815639E+04  0.69809229581E+03 0.  0.
    5000001    2    3    3    0    0 -0.11981074149E+03  0.87086217609E+02 -0.30924442747E+03  0.38822188511E+03  0.18205903735E+03 0.  0.
        -13    1    4    4    0    0 -0.89113369502E+02  0.59008400796E+02 -0.31863192627E+03  0.33607960305E+03  0.10566000000E+00 0. -1.
     200003    1    4    4    0    0 -0.30697371990E+02  0.28077816813E+02  0.93874987966E+01  0.52142282053E+02  0.30000000000E+02 0. -1.
     200000    1    3    3    0    0 -0.25917128219E+03 -0.89968174484E+01 -0.69625889006E+03  0.89555967876E+03  0.50000000000E+03 0.  1.
    -200001    1    1    2    0    0  0.37898202368E+03 -0.78089400160E+02 -0.10306007891E+04  0.13045548341E+04  0.70000000000E+03 0. -1.
<mgrwt>
<rscale>  0 0.15980505E+04</rscale>
<asrwt>0</asrwt>
<pdfrwt beam="1">  1        2 0.33031717E+00 0.15980505E+04</pdfrwt>
<pdfrwt beam="2">  1       -2 0.39445165E-01 0.15980505E+04</pdfrwt>
<totfact> 0.32314691E+01</totfact>
</mgrwt>
</event>
<event>
 8    1  0.7623533E-028  0.1590743E+04  0.7818608E-02  0.8826255E-01
          2   -1    0    0  501    0  0.00000000000E+00  0.00000000000E+00  0.12555615519E+04  0.12555615519E+04  0.25500000000E-02 0.  1.
         -2   -1    0    0    0  501 -0.00000000000E+00 -0.00000000000E+00 -0.50385064720E+03  0.50385064720E+03  0.25500000000E-02 0. -1.
     200001    2    1    2    0    0  0.95365803543E+02 -0.22753991948E+02 -0.27823843172E+02  0.70713523757E+03  0.69975259723E+03 0.  0.
    5000001    2    3    3    0    0  0.70186602472E+02  0.36322973697E+01 -0.27650617213E+02  0.20580674403E+03  0.19144844347E+03 0.  0.
        -13    1    4    4    0    0  0.26665217180E+02 -0.44109779367E+02 -0.94806696660E+02  0.10791212786E+03  0.10566000000E+00 0. -1.
     200003    1    4    4    0    0  0.43521385292E+02  0.47742076736E+02  0.67156079447E+02  0.97894616173E+02  0.30000000000E+02 0. -1.
     200000    1    3    3    0    0  0.25179201071E+02 -0.26386289318E+02 -0.17322595907E+00  0.50132849354E+03  0.50000000000E+03 0. -1.
    -200001    1    1    2    0    0 -0.95365803543E+02  0.22753991948E+02  0.77953474788E+03  0.10522769615E+04  0.70000000000E+03 0.  1.
<mgrwt>
<rscale>  0 0.15907426E+04</rscale>
<asrwt>0</asrwt>
<pdfrwt beam="1">  1        2 0.17936593E+00 0.15907426E+04</pdfrwt>
<pdfrwt beam="2">  1       -2 0.71978665E-01 0.15907426E+04</pdfrwt>
<totfact> 0.33428465E+01</totfact>
</mgrwt>
</event>
<event>
 8    1  0.7623533E-028  0.2244460E+04  0.7818608E-02  0.8500147E-01
         -2   -1    0    0    0  501 -0.00000000000E+00  0.00000000000E+00  0.76731774865E+03  0.76731774866E+03  0.25500000000E-02 0. -1.
          2   -1    0    0  501    0  0.00000000000E+00 -0.00000000000E+00 -0.16413020579E+04  0.16413020579E+04  0.25500000000E-02 0.  1.
     200001    2    1    2    0    0  0.50024448415E+03  0.65045284496E+02 -0.12090221773E+04  0.14830249676E+04  0.69509207771E+03 0.  0.
    5000001    2    3    3    0    0  0.12154593738E+03  0.67275848271E+02 -0.49816878079E+03  0.53501119344E+03  0.13698681799E+03 0.  0.
        -13    1    4    4    0    0  0.67497871809E+01 -0.25019719042E+01 -0.25870191129E+03  0.25880206637E+03  0.10566000000E+00 0. -1.
     200003    1    4    4    0    0  0.11479615020E+03  0.69777820176E+02 -0.23946686950E+03  0.27620912707E+03  0.30000000000E+02 0. -1.
     200000    1    3    3    0    0  0.37869854677E+03 -0.22305637755E+01 -0.71085339649E+03  0.94801377418E+03  0.50000000000E+03 0. -1.
    -200001    1    1    2    0    0 -0.50024448415E+03 -0.65045284496E+02  0.33503786798E+03  0.92559483898E+03  0.70000000000E+03 0. -1.
<mgrwt>
<rscale>  0 0.22444600E+04</rscale>
<asrwt>0</asrwt>
<pdfrwt beam="1">  1        2 0.23447172E+00 0.22444600E+04</pdfrwt>
<pdfrwt beam="2">  1       -2 0.10961682E+00 0.22444600E+04</pdfrwt>
<totfact> 0.74669522E+00</totfact>
</mgrwt>
</event>
<event>
 8    1  0.7623533E-028  0.1754662E+04  0.7818608E-02  0.8730788E-01
         -2   -1    0    0    0  501 -0.00000000000E+00  0.00000000000E+00  0.59043979154E+03  0.59043979154E+03  0.25500000000E-02 0. -1.
          2   -1    0    0  501    0  0.00000000000E+00 -0.00000000000E+00 -0.13036216069E+04  0.13036216069E+04  0.25500000000E-02 0.  1.
     200001    2    1    2    0    0 -0.45906852044E+03  0.24954004196E+03 -0.45243597773E+03  0.98246799632E+03  0.69823413755E+03 0.  0.
    5000001    2    3    3    0    0 -0.13747083289E+03  0.45427215838E+02 -0.90518633804E+02  0.25716028075E+03  0.19229125070E+03 0.  0.
        -13    1    4    4    0    0 -0.13991971740E+03  0.14542215859E+02 -0.13516513659E+03  0.19508620831E+03  0.10566000000E+00 0. -1.
     200003    1    4    4    0    0  0.24488845109E+01  0.30884999979E+02  0.44646502784E+02  0.62074072445E+02  0.30000000000E+02 0. -1.
     200000    1    3    3    0    0 -0.32159768756E+03  0.20411282613E+03 -0.36191734392E+03  0.72530771557E+03  0.50000000000E+03 0. -1.
    -200001    1    1    2    0    0  0.45906852044E+03 -0.24954004196E+03 -0.26074583768E+03  0.91159340217E+03  0.70000000000E+03 0. -1.
<mgrwt>
<rscale>  0 0.17546624E+04</rscale>
<asrwt>0</asrwt>
<pdfrwt beam="1">  1        2 0.18623166E+00 0.17546624E+04</pdfrwt>
<pdfrwt beam="2">  1       -2 0.84348542E-01 0.17546624E+04</pdfrwt>
<totfact> 0.21775708E+01</totfact>
</mgrwt>
</event>
<event>
 8    1  0.7623533E-028  0.2922107E+04  0.7818608E-02  0.8266330E-01
          2   -1    0    0  501    0  0.00000000000E+00  0.00000000000E+00  0.35387889177E+04  0.35387889177E+04  0.25500000000E-02 0.  1.
         -2   -1    0    0    0  501 -0.00000000000E+00 -0.00000000000E+00 -0.60322258511E+03  0.60322258511E+03  0.25500000000E-02 0. -1.
     200001    2    1    2    0    0 -0.88512903534E+03  0.49640052359E+03  0.35585800340E+03  0.12828574404E+04  0.69944363943E+03 0.  0.
    5000001    2    3    3    0    0 -0.26588785986E+03  0.12306418030E+03 -0.14236679759E+02  0.32901797112E+03  0.14902682904E+03 0.  0.
        -13    1    4    4    0    0 -0.16561051649E+03  0.13103203925E+02  0.34306779045E+02  0.16963343827E+03  0.10566000000E+00 0. -1.
     200003    1    4    4    0    0 -0.10027734336E+03  0.10996097638E+03 -0.48543458804E+02  0.15938453285E+03  0.30000000000E+02 0. -1.
     200000    1    3    3    0    0 -0.61924117548E+03  0.37333634328E+03  0.37009468315E+03  0.95383946926E+03  0.50000000000E+03 0. -1.
    -200001    1    1    2    0    0  0.88512903534E+03 -0.49640052359E+03  0.25797083292E+04  0.28591540624E+04  0.70000000000E+03 0.  1.
<mgrwt>
<rscale>  0 0.29221070E+04</rscale>
<asrwt>0</asrwt>
<pdfrwt beam="1">  1        2 0.50554126E+00 0.29221070E+04</pdfrwt>
<pdfrwt beam="2">  1       -2 0.86174657E-01 0.29221070E+04</pdfrwt>
<totfact> 0.11512582E+00</totfact>
</mgrwt>
</event>
<event>
 8    1  0.7623533E-028  0.1434359E+04  0.7818608E-02  0.8929316E-01
          2   -1    0    0  501    0  0.00000000000E+00  0.00000000000E+00  0.18687480119E+04  0.18687480119E+04  0.25500000000E-02 0.  1.
         -2   -1    0    0    0  501 -0.00000000000E+00 -0.00000000000E+00 -0.27523597985E+03  0.27523597986E+03  0.25500000000E-02 0. -1.
     200001    2    1    2    0    0  0.13343453832E+03 -0.76093358817E+02  0.78321995552E+03  0.10622408501E+04  0.70094732300E+03 0.  0.
    5000001    2    3    3    0    0  0.67325977434E+02 -0.51537701522E+02  0.32141582568E+03  0.37796285362E+03  0.17988569650E+03 0.  0.
        -13    1    4    4    0    0 -0.89425211806E+01 -0.66339923426E+02  0.27316663403E+02  0.72299138230E+02  0.10566000000E+00 0. -1.
     200003    1    4    4    0    0  0.76268498614E+02  0.14802221905E+02  0.29409916228E+03  0.30566371539E+03  0.30000000000E+02 0. -1.
     200000    1    3    3    0    0  0.66108560886E+02 -0.24555657295E+02  0.46180412983E+03  0.68427799647E+03  0.50000000000E+03 0.  1.
    -200001    1    1    2    0    0 -0.13343453832E+03  0.76093358817E+02  0.81029207658E+03  0.10817431417E+04  0.70000000000E+03 0. -1.
<mgrwt>
<rscale>  0 0.14343594E+04</rscale>
<asrwt>0</asrwt>
<pdfrwt beam="1">  1        2 0.26696400E+00 0.14343594E+04</pdfrwt>
<pdfrwt beam="2">  1       -2 0.39319426E-01 0.14343594E+04</pdfrwt>
<totfact> 0.55735184E+01</totfact>
</mgrwt>
</event>
<event>
 8    1  0.7623533E-028  0.1720588E+04  0.7818608E-02  0.8749708E-01
          2   -1    0    0  501    0  0.00000000000E+00  0.00000000000E+00  0.27011866919E+04  0.27011866919E+04  0.25500000000E-02 0.  1.
         -2   -1    0    0    0  501 -0.00000000000E+00 -0.00000000000E+00 -0.27399291000E+03  0.27399291001E+03  0.25500000000E-02 0. -1.
     200001    2    1    2    0    0 -0.18691784088E+02  0.49147916789E+03  0.13709760916E+04  0.16159529967E+04  0.69987676647E+03 0.  0.
    5000001    2    3    3    0    0  0.25713889060E+02  0.17296298345E+02  0.13951687450E+03  0.20410560366E+03  0.14571812911E+03 0.  0.
        -13    1    4    4    0    0  0.81912297421E+02  0.83920740099E+01  0.60285825631E+02  0.10205117986E+03  0.10566000000E+00 0. -1.
     200003    1    4    4    0    0 -0.56198408360E+02  0.89042243350E+01  0.79231048868E+02  0.10205442380E+03  0.30000000000E+02 0. -1.
     200000    1    3    3    0    0 -0.44405673148E+02  0.47418286955E+03  0.12314592171E+04  0.14118473930E+04  0.50000000000E+03 0.  1.
    -200001    1    1    2    0    0  0.18691784088E+02 -0.49147916789E+03  0.10562176903E+04  0.13592266053E+04  0.70000000000E+03 0.  1.
<mgrwt>
<rscale>  0 0.17205883E+04</rscale>
<asrwt>0</asrwt>
<pdfrwt beam="1">  1        2 0.38588380E+00 0.17205883E+04</pdfrwt>
<pdfrwt beam="2">  1       -2 0.39141846E-01 0.17205883E+04</pdfrwt>
<totfact> 0.20257857E+01</totfact>
</mgrwt>
</event>
<event>
 8    1  0.7623533E-028  0.1849721E+04  0.7818608E-02  0.8680297E-01
         -2   -1    0    0    0  501 -0.00000000000E+00  0.00000000000E+00  0.72011073172E+03  0.72011073172E+03  0.25500000000E-02 0. -1.
          2   -1    0    0  501    0  0.00000000000E+00 -0.00000000000E+00 -0.11878264502E+04  0.11878264502E+04  0.25500000000E-02 0.  1.
     200001    2    1    2    0    0  0.24328274858E+03  0.50976695923E+03 -0.11798467226E+02  0.89951792958E+03  0.69996032268E+03 0.  0.
    5000001    2    3    3    0    0 -0.13906614215E+02 -0.64766122653E+01  0.18157344062E+02  0.13561273646E+03  0.13351323800E+03 0.  0.
        -13    1    4    4    0    0  0.47049331157E+02  0.25801626674E+02 -0.11294787997E+02  0.54835635322E+02  0.10566000000E+00 0. -1.
     200003    1    4    4    0    0 -0.60955945372E+02 -0.32278238939E+02  0.29452132059E+02  0.80777101136E+02  0.30000000000E+02 0. -1.
     200000    1    3    3    0    0  0.25718936279E+03  0.51624357149E+03 -0.29955811288E+02  0.76390519312E+03  0.50000000000E+03 0. -1.
    -200001    1    1    2    0    0 -0.24328274858E+03 -0.50976695923E+03 -0.45591725121E+03  0.10084192523E+04  0.70000000000E+03 0. -1.
<mgrwt>
<rscale>  0 0.18497206E+04</rscale>
<asrwt>0</asrwt>
<pdfrwt beam="1">  1        2 0.16968949E+00 0.18497206E+04</pdfrwt>
<pdfrwt beam="2">  1       -2 0.10287296E+00 0.18497206E+04</pdfrwt>
<totfact> 0.15821728E+01</totfact>
</mgrwt>
</event>
<event>
 8    1  0.7623533E-028  0.1460642E+04  0.7818608E-02  0.8911056E-01
         -2   -1    0    0    0  501 -0.00000000000E+00  0.00000000000E+00  0.53027449945E+03  0.53027449945E+03  0.25500000000E-02 0.  1.
          2   -1    0    0  501    0  0.00000000000E+00 -0.00000000000E+00 -0.10058349006E+04  0.10058349006E+04  0.25500000000E-02 0. -1.
     200001    2    1    2    0    0 -0.63142510882E+02 -0.18777283136E+03 -0.20218870003E+03  0.75894937802E+03  0.70418625029E+03 0.  0.
    5000001    2    3    3    0    0 -0.75089926209E+02 -0.67630294933E+02 -0.67359390576E+02  0.22720139967E+03  0.19201779788E+03 0.  0.
        -13    1    4    4    0    0 -0.68146265382E+02  0.40873645702E+02 -0.81143874568E+02  0.11357335930E+03  0.10566000000E+00 0. -1.
     200003    1    4    4    0    0 -0.69436608278E+01 -0.10850394064E+03  0.13784483992E+02  0.11362804037E+03  0.30000000000E+02 0. -1.
     200000    1    3    3    0    0  0.11947415328E+02 -0.12014253643E+03 -0.13482930945E+03  0.53174797835E+03  0.50000000000E+03 0.  1.
    -200001    1    1    2    0    0  0.63142510882E+02  0.18777283136E+03 -0.27337170112E+03  0.77716002204E+03  0.70000000000E+03 0.  1.
<mgrwt>
<rscale>  0 0.14606418E+04</rscale>
<asrwt>0</asrwt>
<pdfrwt beam="1">  1        2 0.14369070E+00 0.14606418E+04</pdfrwt>
<pdfrwt beam="2">  1       -2 0.75753500E-01 0.14606418E+04</pdfrwt>
<totfact> 0.42230332E+01</totfact>
</mgrwt>
</event>
<event>
 8    1  0.7623533E-028  0.1482606E+04  0.7818608E-02  0.8896103E-01
          2   -1    0    0  501    0  0.00000000000E+00  0.00000000000E+00  0.18805754638E+04  0.18805754638E+04  0.25500000000E-02 0.  1.
         -2   -1    0    0    0  501 -0.00000000000E+00 -0.00000000000E+00 -0.29221377318E+03  0.29221377319E+03  0.25500000000E-02 0. -1.
     200001    2    1    2    0    0  0.35910516372E+02 -0.26440637332E+02  0.44521917125E+03  0.83160934895E+03  0.70097455469E+03 0.  0.
    5000001    2    3    3    0    0 -0.43186355458E+02 -0.14351864116E+02  0.73708017342E+02  0.20357830589E+03  0.18422870978E+03 0.  0.
        -13    1    4    4    0    0 -0.69036853370E+02 -0.14080704761E+02  0.12214672477E+03  0.14101130063E+03  0.10566000000E+00 0. -1.
     200003    1    4    4    0    0  0.25850497912E+02 -0.27115935526E+00 -0.48438707428E+02  0.62567005258E+02  0.30000000000E+02 0. -1.
     200000    1    3    3    0    0  0.79096871830E+02 -0.12088773215E+02  0.37151115390E+03  0.62803104306E+03  0.50000000000E+03 0. -1.
    -200001    1    1    2    0    0 -0.35910516372E+02  0.26440637332E+02  0.11431425194E+04  0.13411798880E+04  0.70000000000E+03 0.  1.
<mgrwt>
<rscale>  0 0.14826059E+04</rscale>
<asrwt>0</asrwt>
<pdfrwt beam="1">  1        2 0.26865363E+00 0.14826059E+04</pdfrwt>
<pdfrwt beam="2">  1       -2 0.41744826E-01 0.14826059E+04</pdfrwt>
<totfact> 0.48697325E+01</totfact>
</mgrwt>
</event>
<event>
 8    1  0.7623533E-028  0.1463794E+04  0.7818608E-02  0.8908893E-01
         -2   -1    0    0    0  501 -0.00000000000E+00  0.00000000000E+00  0.99584938428E+03  0.99584938429E+03  0.25500000000E-02 0. -1.
          2   -1    0    0  501    0  0.00000000000E+00 -0.00000000000E+00 -0.53790616358E+03  0.53790616359E+03  0.25500000000E-02 0.  1.
     200001    2    1    2    0    0 -0.17048335546E+03 -0.10306340385E+03  0.14850111935E+03  0.74290723512E+03  0.70012280197E+03 0.  0.
    5000001    2    3    3    0    0 -0.51786016803E+02 -0.14988784416E+02 -0.56116903487E+02  0.18280480514E+03  0.16541473554E+03 0.  0.
        -13    1    4    4    0    0  0.88719465527E+01 -0.43931963203E+02 -0.90937758574E+02  0.10138252278E+03  0.10566000000E+00 0. -1.
     200003    1    4    4    0    0 -0.60657963356E+02  0.28943178787E+02  0.34820855087E+02  0.81422282366E+02  0.30000000000E+02 0. -1.
     200000    1    3    3    0    0 -0.11869733866E+03 -0.88074619432E+02  0.20461802284E+03  0.56010242998E+03  0.50000000000E+03 0. -1.
    -200001    1    1    2    0    0  0.17048335546E+03  0.10306340385E+03  0.30944210134E+03  0.79084831275E+03  0.70000000000E+03 0. -1.
<mgrwt>
<rscale>  0 0.14637944E+04</rscale>
<asrwt>0</asrwt>
<pdfrwt beam="1">  1        2 0.76843737E-01 0.14637944E+04</pdfrwt>
<pdfrwt beam="2">  1       -2 0.14226420E+00 0.14637944E+04</pdfrwt>
<totfact> 0.20615760E+01</totfact>
</mgrwt>
</event>
<event>
 8    1  0.7623533E-028  0.1437749E+04  0.7818608E-02  0.8926938E-01
         -2   -1    0    0    0  501 -0.00000000000E+00  0.00000000000E+00  0.55475771512E+03  0.55475771512E+03  0.25500000000E-02 0. -1.
          2   -1    0    0  501    0  0.00000000000E+00 -0.00000000000E+00 -0.93154327819E+03  0.93154327819E+03  0.25500000000E-02 0.  1.
     200001    2    1    2    0    0 -0.15387670456E+03 -0.52105464507E+02 -0.17751293298E+03  0.74057812204E+03  0.70039424172E+03 0.  0.
    5000001    2    3    3    0    0 -0.24568780062E+02  0.40353073598E+02 -0.40058800107E+02  0.19821038770E+03  0.18828344278E+03 0.  0.
        -13    1    4    4    0    0  0.68166600881E+02  0.63854252528E+02 -0.12530849729E+02  0.94239505519E+02  0.10566000000E+00 0. -1.
     200003    1    4    4    0    0 -0.92735380943E+02 -0.23501178930E+02 -0.27527950378E+02  0.10397088218E+03  0.30000000000E+02 0. -1.
     200000    1    3    3    0    0 -0.12930792450E+03 -0.92458538105E+02 -0.13745413287E+03  0.54236773434E+03  0.50000000000E+03 0.  1.
    -200001    1    1    2    0    0  0.15387670456E+03  0.52105464507E+02 -0.19927263009E+03  0.74572287127E+03  0.70000000000E+03 0.  1.
<mgrwt>
<rscale>  0 0.14377494E+04</rscale>
<asrwt>0</asrwt>
<pdfrwt beam="1">  1        2 0.13307761E+00 0.14377494E+04</pdfrwt>
<pdfrwt beam="2">  1       -2 0.79251102E-01 0.14377494E+04</pdfrwt>
<totfact> 0.42591564E+01</totfact>
</mgrwt>
</event>
<event>
 8    1  0.7623533E-028  0.1677343E+04  0.7818608E-02  0.8774393E-01
         -2   -1    0    0    0  501 -0.00000000000E+00  0.00000000000E+00  0.10791000935E+04  0.10791000935E+04  0.25500000000E-02 0. -1.
          2   -1    0    0  501    0  0.00000000000E+00 -0.00000000000E+00 -0.65181143898E+03  0.65181143898E+03  0.25500000000E-02 0.  1.
     200001    2    1    2    0    0  0.45858363364E+03 -0.43524265349E+02  0.24758678216E+03  0.87388990285E+03  0.70013644163E+03 0.  0.
    5000001    2    3    3    0    0  0.59744080889E+02  0.59828928866E+01  0.78806994876E+02  0.21055698180E+03  0.18579168425E+03 0.  0.
        -13    1    4    4    0    0 -0.38120363238E+02 -0.52744724687E+02 -0.58222944047E+01  0.65338184486E+02  0.10566000000E+00 0. -1.
     200003    1    4    4    0    0  0.97864444126E+02  0.58727617574E+02  0.84629289280E+02  0.14521879732E+03  0.30000000000E+02 0. -1.
     200000    1    3    3    0    0  0.39883955275E+03 -0.49507158235E+02  0.16877978728E+03  0.66333292105E+03  0.50000000000E+03 0. -1.
    -200001    1    1    2    0    0 -0.45858363364E+03  0.43524265349E+02  0.17970187236E+03  0.85702162962E+03  0.70000000000E+03 0.  1.
<mgrwt>
<rscale>  0 0.16773429E+04</rscale>
<asrwt>0</asrwt>
<pdfrwt beam="1">  1        2 0.93115921E-01 0.16773429E+04</pdfrwt>
<pdfrwt beam="2">  1       -2 0.15415715E+00 0.16773429E+04</pdfrwt>
<totfact> 0.13069795E+01</totfact>
</mgrwt>
</event>
<event>
 8    1  0.7623533E-028  0.1770194E+04  0.7818608E-02  0.8722313E-01
          2   -1    0    0  501    0  0.00000000000E+00  0.00000000000E+00  0.68461461078E+03  0.68461461079E+03  0.25500000000E-02 0.  1.
         -2   -1    0    0    0  501 -0.00000000000E+00 -0.00000000000E+00 -0.11442881660E+04  0.11442881660E+04  0.25500000000E-02 0. -1.
     200001    2    1    2    0    0 -0.53831253763E+03 -0.61608754852E+01 -0.29466451192E+03  0.93054520377E+03  0.69947756012E+03 0.  0.
    5000001    2    3    3    0    0 -0.58163786179E+02 -0.85829392194E+01 -0.41871505712E+02  0.19267462304E+03  0.17864376425E+03 0.  0.
        -13    1    4    4    0    0  0.28339422673E+02  0.42862899064E+02 -0.67246471929E+02  0.84631259855E+02  0.10566000000E+00 0. -1.
     200003    1    4    4    0    0 -0.86503208852E+02 -0.51445838283E+02  0.25374966217E+02  0.10804336319E+03  0.30000000000E+02 0. -1.
     200000    1    3    3    0    0 -0.48014875146E+03  0.24220637342E+01 -0.25279300621E+03  0.73787058073E+03  0.50000000000E+03 0. -1.
    -200001    1    1    2    0    0  0.53831253763E+03  0.61608754852E+01 -0.16500904325E+03  0.89835757297E+03  0.70000000000E+03 0. -1.
<mgrwt>
<rscale>  0 0.17701937E+04</rscale>
<asrwt>0</asrwt>
<pdfrwt beam="1">  1        2 0.97802088E-01 0.17701937E+04</pdfrwt>
<pdfrwt beam="2">  1       -2 0.16346974E+00 0.17701937E+04</pdfrwt>
<totfact> 0.10422292E+01</totfact>
</mgrwt>
</event>
<event>
 8    1  0.7623533E-028  0.1883917E+04  0.7818608E-02  0.8662903E-01
         -2   -1    0    0    0  501 -0.00000000000E+00  0.00000000000E+00  0.40247529820E+03  0.40247529821E+03  0.25500000000E-02 0. -1.
          2   -1    0    0  501    0  0.00000000000E+00 -0.00000000000E+00 -0.22045728017E+04  0.22045728017E+04  0.25500000000E-02 0.  1.
     200001    2    1    2    0    0 -0.30573269307E+03 -0.42097819020E+03 -0.13930622531E+04  0.16437179632E+04  0.70035075876E+03 0.  0.
    5000001    2    3    3    0    0 -0.70630766431E+02 -0.18946114985E+03 -0.52135607797E+03  0.58601067305E+03  0.17524872729E+03 0.  0.
        -13    1    4    4    0    0 -0.12552643788E+03 -0.11424865242E+03 -0.33341934235E+03  0.37413648606E+03  0.10566000000E+00 0. -1.
     200003    1    4    4    0    0  0.54895671452E+02 -0.75212497432E+02 -0.18793673563E+03  0.21187418699E+03  0.30000000000E+02 0. -1.
     200000    1    3    3    0    0 -0.23510192664E+03 -0.23151704034E+03 -0.87170617513E+03  0.10577072902E+04  0.50000000000E+03 0.  1.
    -200001    1    1    2    0    0  0.30573269307E+03  0.42097819020E+03 -0.40903525040E+03  0.96333013671E+03  0.70000000000E+03 0. -1.
<mgrwt>
<rscale>  0 0.18839173E+04</rscale>
<asrwt>0</asrwt>
<pdfrwt beam="1">  1        2 0.31493897E+00 0.18839173E+04</pdfrwt>
<pdfrwt beam="2">  1       -2 0.57496472E-01 0.18839173E+04</pdfrwt>
<totfact> 0.16765992E+01</totfact>
</mgrwt>
</event>
<event>
 8    1  0.7623533E-028  0.1584018E+04  0.7818608E-02  0.8830427E-01
          2   -1    0    0  501    0  0.00000000000E+00  0.00000000000E+00  0.13918069844E+04  0.13918069844E+04  0.25500000000E-02 0.  1.
         -2   -1    0    0    0  501 -0.00000000000E+00 -0.00000000000E+00 -0.45069318418E+03  0.45069318418E+03  0.25500000000E-02 0. -1.
     200001    2    1    2    0    0 -0.10151622061E+03  0.32214252069E+02  0.57671856318E+02  0.71032837537E+03  0.69992646525E+03 0.  0.
    5000001    2    3    3    0    0 -0.70933919625E+02 -0.56746668931E+02 -0.60729027232E+02  0.18796060088E+03  0.15293582755E+03 0.  0.
        -13    1    4    4    0    0 -0.81909231231E+02 -0.75640971701E+02  0.59465378795E+01  0.11165147217E+03  0.10566000000E+00 0. -1.
     200003    1    4    4    0    0  0.10975311607E+02  0.18894302770E+02 -0.66675565111E+02  0.76309128713E+02  0.30000000000E+02 0. -1.
     200000    1    3    3    0    0 -0.30582300989E+02  0.88960921000E+02  0.11840088355E+03  0.52236777449E+03  0.50000000000E+03 0. -1.
    -200001    1    1    2    0    0  0.10151622061E+03 -0.32214252069E+02  0.88344194388E+03  0.11321717932E+04  0.70000000000E+03 0.  1.
<mgrwt>
<rscale>  0 0.15840176E+04</rscale>
<asrwt>0</asrwt>
<pdfrwt beam="1">  1        2 0.19882957E+00 0.15840176E+04</pdfrwt>
<pdfrwt beam="2">  1       -2 0.64384741E-01 0.15840176E+04</pdfrwt>
<totfact> 0.35832154E+01</totfact>
</mgrwt>
</event>
<event>
 8    1  0.7623533E-028  0.1459721E+04  0.7818608E-02  0.8911689E-01
          2   -1    0    0  501    0  0.00000000000E+00  0.00000000000E+00  0.81604920518E+03  0.81604920519E+03  0.25500000000E-02 0.  1.
         -2   -1    0    0    0  501 -0.00000000000E+00 -0.00000000000E+00 -0.65277503739E+03  0.65277503739E+03  0.25500000000E-02 0. -1.
     200001    2    1    2    0    0 -0.19743652247E+03  0.61403176591E+02  0.85597873104E+02  0.73480439458E+03  0.69989925841E+03 0.  0.
    5000001    2    3    3    0    0 -0.73457304683E+02  0.16402252795E+03 -0.24800705460E+02  0.19806477068E+03  0.79468315116E+02 0.  0.
        -13    1    4    4    0    0 -0.20926204054E+02  0.11708673840E+03 -0.53321833293E+01  0.11906155411E+03  0.10566000000E+00 0. -1.
     200003    1    4    4    0    0 -0.52531100628E+02  0.46935789552E+02 -0.19468522130E+02  0.79003216568E+02  0.30000000000E+02 0. -1.
     200000    1    3    3    0    0 -0.12397921778E+03 -0.10261935136E+03  0.11039857856E+03  0.53673962390E+03  0.50000000000E+03 0. -1.
    -200001    1    1    2    0    0  0.19743652247E+03 -0.61403176591E+02  0.77676294692E+02  0.73401984800E+03  0.70000000000E+03 0.  1.
<mgrwt>
<rscale>  0 0.14597213E+04</rscale>
<asrwt>0</asrwt>
<pdfrwt beam="1">  1        2 0.11657846E+00 0.14597213E+04</pdfrwt>
<pdfrwt beam="2">  1       -2 0.93253576E-01 0.14597213E+04</pdfrwt>
<totfact> 0.35009506E+01</totfact>
</mgrwt>
</event>
<event>
 8    1  0.7623533E-028  0.1621466E+04  0.7818608E-02  0.8807468E-01
          2   -1    0    0  501    0  0.00000000000E+00  0.00000000000E+00  0.18736206886E+04  0.18736206886E+04  0.25500000000E-02 0.  1.
         -2   -1    0    0    0  501 -0.00000000000E+00 -0.00000000000E+00 -0.35081153449E+03  0.35081153450E+03  0.25500000000E-02 0. -1.
     200001    2    1    2    0    0  0.22268283929E+03 -0.24279553427E+03  0.10932090930E+04  0.13395065025E+04  0.70045287563E+03 0.  0.
    5000001    2    3    3    0    0  0.36526630138E+01 -0.11933761111E+03  0.39920951046E+03  0.44796205751E+03  0.16445961314E+03 0.  0.
        -13    1    4    4    0    0 -0.73459788258E+02 -0.67310462096E+02  0.14804446441E+03  0.17844947017E+03  0.10566000000E+00 0. -1.
     200003    1    4    4    0    0  0.77112451272E+02 -0.52027149015E+02  0.25116504605E+03  0.26951258734E+03  0.30000000000E+02 0. -1.
     200000    1    3    3    0    0  0.21903017627E+03 -0.12345792316E+03  0.69399958252E+03  0.89154444502E+03  0.50000000000E+03 0. -1.
    -200001    1    1    2    0    0 -0.22268283929E+03  0.24279553427E+03  0.42960006109E+03  0.88492572054E+03  0.70000000000E+03 0. -1.
<mgrwt>
<rscale>  0 0.16214657E+04</rscale>
<asrwt>0</asrwt>
<pdfrwt beam="1">  1        2 0.26766009E+00 0.16214657E+04</pdfrwt>
<pdfrwt beam="2">  1       -2 0.50115934E-01 0.16214657E+04</pdfrwt>
<totfact> 0.33679896E+01</totfact>
</mgrwt>
</event>
<event>
 8    1  0.7623533E-028  0.2051225E+04  0.7818608E-02  0.8583039E-01
          2   -1    0    0  501    0  0.00000000000E+00  0.00000000000E+00  0.23173241027E+04  0.23173241027E+04  0.25500000000E-02 0.  1.
         -2   -1    0    0    0  501 -0.00000000000E+00 -0.00000000000E+00 -0.45392042755E+03  0.45392042756E+03  0.25500000000E-02 0. -1.
     200001    2    1    2    0    0  0.29570991102E+03 -0.51645576699E+03  0.31364526127E+03  0.96960026679E+03  0.69826958742E+03 0.  0.
    5000001    2    3    3    0    0  0.11911623740E+03 -0.58950660757E+02  0.62410313911E+02  0.22554701160E+03  0.17120907903E+03 0.  0.
        -13    1    4    4    0    0  0.91898154632E+02 -0.18862099651E+02 -0.44928172909E+02  0.10401731352E+03  0.10566000000E+00 0. -1.
     200003    1    4    4    0    0  0.27218082772E+02 -0.40088561107E+02  0.10733848682E+03  0.12152969807E+03  0.30000000000E+02 0. -1.
     200000    1    3    3    0    0  0.17659367362E+03 -0.45750510623E+03  0.25123494736E+03  0.74405325520E+03  0.50000000000E+03 0.  1.
    -200001    1    1    2    0    0 -0.29570991102E+03  0.51645576699E+03  0.15497584139E+04  0.18016442635E+04  0.70000000000E+03 0.  1.
<mgrwt>
<rscale>  0 0.20512248E+04</rscale>
<asrwt>0</asrwt>
<pdfrwt beam="1">  1        2 0.33104630E+00 0.20512248E+04</pdfrwt>
<pdfrwt beam="2">  1       -2 0.64845775E-01 0.20512248E+04</pdfrwt>
<totfact> 0.11201461E+01</totfact>
</mgrwt>
</event>
<event>
 8    1  0.7623533E-028  0.1405281E+04  0.7818608E-02  0.8950004E-01
          2   -1    0    0  501    0  0.00000000000E+00  0.00000000000E+00  0.23094263788E+04  0.23094263788E+04  0.25500000000E-02 0.  1.
         -2   -1    0    0    0  501 -0.00000000000E+00 -0.00000000000E+00 -0.21377773368E+03  0.21377773369E+03  0.25500000000E-02 0. -1.
     200001    2    1    2    0    0  0.53100826543E+02  0.33693812333E+02  0.10468925490E+04  0.12607286395E+04  0.69964113841E+03 0.  0.
    5000001    2    3    3    0    0  0.13778325638E+03 -0.95850375433E+00  0.18738515521E+03  0.26216724584E+03  0.12096827655E+03 0.  0.
        -13    1    4    4    0    0  0.13151645178E+03  0.24001134318E+02  0.10226354106E+03  0.16831659018E+03  0.10566000000E+00 0. -1.
     200003    1    4    4    0    0  0.62668046033E+01 -0.24959638072E+02  0.85121614145E+02  0.93850655657E+02  0.30000000000E+02 0. -1.
     200000    1    3    3    0    0 -0.84682429838E+02  0.34652316088E+02  0.85950739380E+03  0.99856139367E+03  0.50000000000E+03 0. -1.
    -200001    1    1    2    0    0 -0.53100826543E+02 -0.33693812333E+02  0.10487560962E+04  0.12624754730E+04  0.70000000000E+03 0. -1.
<mgrwt>
<rscale>  0 0.14052814E+04</rscale>
<asrwt>0</asrwt>
<pdfrwt beam="1">  1        2 0.32991806E+00 0.14052814E+04</pdfrwt>
<pdfrwt beam="2">  1       -2 0.30539676E-01 0.14052814E+04</pdfrwt>
<totfact> 0.53658012E+01</totfact>
</mgrwt>
</event>
<event>
 8    1  0.7623533E-028  0.1449556E+04  0.7818608E-02  0.8918708E-01
          2   -1    0    0  501    0  0.00000000000E+00  0.00000000000E+00  0.11817831324E+04  0.11817831324E+04  0.25500000000E-02 0.  1.
         -2   -1    0    0    0  501 -0.00000000000E+00 -0.00000000000E+00 -0.44450038450E+03  0.44450038451E+03  0.25500000000E-02 0. -1.
     200001    2    1    2    0    0 -0.11660246795E+03 -0.14489267952E+03  0.33297308803E+03  0.79679191047E+03  0.69958290941E+03 0.  0.
    5000001    2    3    3    0    0  0.87447692960E+01 -0.76276259946E+02  0.14614084325E+03  0.24422840226E+03  0.17998840958E+03 0.  0.
        -13    1    4    4    0    0  0.20617021954E+02 -0.46978978580E+02 -0.32245333533E+02  0.60595863897E+02  0.10566000000E+00 0. -1.
     200003    1    4    4    0    0 -0.11872252658E+02 -0.29297281365E+02  0.17838617678E+03  0.18363253836E+03  0.30000000000E+02 0. -1.
     200000    1    3    3    0    0 -0.12534723725E+03 -0.68616419575E+02  0.18683224478E+03  0.55256350821E+03  0.50000000000E+03 0. -1.
    -200001    1    1    2    0    0  0.11660246795E+03  0.14489267952E+03  0.40430965990E+03  0.82949160646E+03  0.70000000000E+03 0. -1.
<mgrwt>
<rscale>  0 0.14495559E+04</rscale>
<asrwt>0</asrwt>
<pdfrwt beam="1">  1        2 0.16882616E+00 0.14495559E+04</pdfrwt>
<pdfrwt beam="2">  1       -2 0.63500055E-01 0.14495559E+04</pdfrwt>
<totfact> 0.48804198E+01</totfact>
</mgrwt>
</event>
<event>
 8    1  0.7623533E-028  0.1780174E+04  0.7818608E-02  0.8716914E-01
         -2   -1    0    0    0  501 -0.00000000000E+00  0.00000000000E+00  0.43702767414E+03  0.43702767415E+03  0.25500000000E-02 0. -1.
          2   -1    0    0  501    0  0.00000000000E+00 -0.00000000000E+00 -0.18128248570E+04  0.18128248570E+04  0.25500000000E-02 0.  1.
     200001    2    1    2    0    0 -0.51608090923E+03 -0.92454972003E+02 -0.89599765350E+03  0.12523080384E+04  0.70041145131E+03 0.  0.
    5000001    2    3    3    0    0 -0.13999704409E+03 -0.11623657258E+03 -0.23906971181E+03  0.34480654595E+03  0.16919549009E+03 0.  0.
        -13    1    4    4    0    0 -0.17755124852E+02 -0.11119448884E+03 -0.65258208950E+02  0.13014647059E+03  0.10566000000E+00 0. -1.
     200003    1    4    4    0    0 -0.12224191923E+03 -0.50420837347E+01 -0.17381150286E+03  0.21466007536E+03  0.30000000000E+02 0. -1.
     200000    1    3    3    0    0 -0.37608386514E+03  0.23781600574E+02 -0.65692794169E+03  0.90750149240E+03  0.50000000000E+03 0.  1.
    -200001    1    1    2    0    0  0.51608090923E+03  0.92454972003E+02 -0.47979952933E+03  0.99754449277E+03  0.70000000000E+03 0. -1.
<mgrwt>
<rscale>  0 0.17801737E+04</rscale>
<asrwt>0</asrwt>
<pdfrwt beam="1">  1        2 0.25897498E+00 0.17801737E+04</pdfrwt>
<pdfrwt beam="2">  1       -2 0.62432526E-01 0.17801737E+04</pdfrwt>
<totfact> 0.22618075E+01</totfact>
</mgrwt>
</event>
<event>
 8    1  0.7623533E-028  0.1613201E+04  0.7818608E-02  0.8812479E-01
         -2   -1    0    0    0  501 -0.00000000000E+00  0.00000000000E+00  0.74596283108E+03  0.74596283108E+03  0.25500000000E-02 0. -1.
          2   -1    0    0  501    0  0.00000000000E+00 -0.00000000000E+00 -0.87216697324E+03  0.87216697324E+03  0.25500000000E-02 0.  1.
     200001    2    1    2    0    0  0.37902049975E+03 -0.33111591030E+02  0.71715896582E+02  0.79720029552E+03  0.69687317688E+03 0.  0.
    5000001    2    3    3    0    0  0.46741425900E+02  0.93469279341E+01  0.67829504672E+00  0.19118177304E+03  0.18514287537E+03 0.  0.
        -13    1    4    4    0    0  0.43818992818E+02 -0.58233392728E+02  0.61528248124E+02  0.95378030182E+02  0.10566000000E+00 0. -1.
     200003    1    4    4    0    0  0.29224330812E+01  0.67580320662E+02 -0.60849953077E+02  0.95803742857E+02  0.30000000000E+02 0. -1.
     200000    1    3    3    0    0  0.33227907385E+03 -0.42458518964E+02  0.71037601535E+02  0.60601852248E+03  0.50000000000E+03 0.  1.
    -200001    1    1    2    0    0 -0.37902049975E+03  0.33111591030E+02 -0.19792003874E+03  0.82092950881E+03  0.70000000000E+03 0.  1.
<mgrwt>
<rscale>  0 0.16132007E+04</rscale>
<asrwt>0</asrwt>
<pdfrwt beam="1">  1        2 0.12459528E+00 0.16132007E+04</pdfrwt>
<pdfrwt beam="2">  1       -2 0.10656612E+00 0.16132007E+04</pdfrwt>
<totfact> 0.23112102E+01</totfact>
</mgrwt>
</event>
<event>
 8    1  0.7623533E-028  0.1695804E+04  0.7818608E-02  0.8763761E-01
         -2   -1    0    0    0  501 -0.00000000000E+00  0.00000000000E+00  0.23589703749E+03  0.23589703751E+03  0.25500000000E-02 0. -1.
          2   -1    0    0  501    0  0.00000000000E+00 -0.00000000000E+00 -0.30476774781E+04  0.30476774781E+04  0.25500000000E-02 0.  1.
     200001    2    1    2    0    0 -0.25466649463E+03 -0.24260060254E+03 -0.77546997370E+03  0.11017701262E+04  0.69916640016E+03 0.  0.
    5000001    2    3    3    0    0 -0.12084701190E+03 -0.90476890029E+01 -0.29042306289E+03  0.35496016174E+03  0.16421114457E+03 0.  0.
        -13    1    4    4    0    0 -0.10299982109E+03  0.29895680489E+02 -0.28236143073E+03  0.30204420800E+03  0.10566000000E+00 0. -1.
     200003    1    4    4    0    0 -0.17847190816E+02 -0.38943369492E+02 -0.80616321573E+01  0.52915953742E+02  0.30000000000E+02 0. -1.
     200000    1    3    3    0    0 -0.13381948273E+03 -0.23355291354E+03 -0.48504691082E+03  0.74680996450E+03  0.50000000000E+03 0. -1.
    -200001    1    1    2    0    0  0.25466649463E+03  0.24260060254E+03 -0.20363104669E+04  0.21818043893E+04  0.70000000000E+03 0.  1.
<mgrwt>
<rscale>  0 0.16958043E+04</rscale>
<asrwt>0</asrwt>
<pdfrwt beam="1">  1        2 0.43538247E+00 0.16958043E+04</pdfrwt>
<pdfrwt beam="2">  1       -2 0.33699579E-01 0.16958043E+04</pdfrwt>
<totfact> 0.17476969E+01</totfact>
</mgrwt>
</event>
<event>
 8    1  0.7623533E-028  0.1590702E+04  0.7818608E-02  0.8826281E-01
          2   -1    0    0  501    0  0.00000000000E+00  0.00000000000E+00  0.15536832002E+04  0.15536832002E+04  0.25500000000E-02 0.  1.
         -2   -1    0    0    0  501 -0.00000000000E+00 -0.00000000000E+00 -0.40715065053E+03  0.40715065054E+03  0.25500000000E-02 0. -1.
     200001    2    1    2    0    0 -0.11776119270E+03  0.19285314089E+03  0.19641778651E+03  0.75926067544E+03  0.69773690884E+03 0.  0.
    5000001    2    3    3    0    0  0.85931298654E+01  0.12598338189E+03  0.63618388681E+02  0.22253666856E+03  0.17184183158E+03 0.  0.
        -13    1    4    4    0    0  0.52109264800E+02  0.11780382486E+03  0.95425224142E+02  0.16030939211E+03  0.10566000000E+00 0. -1.
     200003    1    4    4    0    0 -0.43516134934E+02  0.81795570286E+01 -0.31806835461E+02  0.62227276454E+02  0.30000000000E+02 0. -1.
     200000    1    3    3    0    0 -0.12635432256E+03  0.66869759001E+02  0.13279939783E+03  0.53672400688E+03  0.50000000000E+03 0. -1.
    -200001    1    1    2    0    0  0.11776119270E+03 -0.19285314089E+03  0.95011476320E+03  0.12015731753E+04  0.70000000000E+03 0.  1.
<mgrwt>
<rscale>  0 0.15907019E+04</rscale>
<asrwt>0</asrwt>
<pdfrwt beam="1">  1        2 0.22195474E+00 0.15907019E+04</pdfrwt>
<pdfrwt beam="2">  1       -2 0.58164378E-01 0.15907019E+04</pdfrwt>
<totfact> 0.36396278E+01</totfact>
</mgrwt>
</event>
<event>
 8    1  0.7623533E-028  0.1651861E+04  0.7818608E-02  0.8789306E-01
          2   -1    0    0  501    0  0.00000000000E+00  0.00000000000E+00  0.58483212728E+03  0.58483212729E+03  0.25500000000E-02 0. -1.
         -2   -1    0    0    0  501 -0.00000000000E+00 -0.00000000000E+00 -0.11664224829E+04  0.11664224830E+04  0.25500000000E-02 0.  1.
     200001    2    1    2    0    0  0.28956576799E+03  0.12520824399E+03  0.26902399950E+02  0.77156645986E+03  0.70360899973E+03 0.  0.
    5000001    2    3    3    0    0  0.71084997203E+02  0.11723523992E+03 -0.24141495254E+02  0.22347623441E+03  0.17481886982E+03 0.  0.
        -13    1    4    4    0    0  0.44699921876E+02  0.19674415961E+02 -0.87695083148E+02  0.10037731034E+03  0.10566000000E+00 0. -1.
     200003    1    4    4    0    0  0.26385075327E+02  0.97560823962E+02  0.63553587894E+02  0.12309892407E+03  0.30000000000E+02 0. -1.
     200000    1    3    3    0    0  0.21848077079E+03  0.79730040669E+01  0.51043895203E+02  0.54809022545E+03  0.50000000000E+03 0. -1.
    -200001    1    1    2    0    0 -0.28956576799E+03 -0.12520824399E+03 -0.60849275561E+03  0.97968815038E+03  0.70000000000E+03 0.  1.
<mgrwt>
<rscale>  0 0.16518612E+04</rscale>
<asrwt>0</asrwt>
<pdfrwt beam="1">  1        2 0.83547447E-01 0.16518612E+04</pdfrwt>
<pdfrwt beam="2">  1       -2 0.16663178E+00 0.16518612E+04</pdfrwt>
<totfact> 0.12057521E+01</totfact>
</mgrwt>
</event>
<event>
 8    1  0.7623533E-028  0.3038314E+04  0.7818608E-02  0.8232874E-01
          2   -1    0    0  501    0  0.00000000000E+00  0.00000000000E+00  0.13422852785E+04  0.13422852785E+04  0.25500000000E-02 0. -1.
         -2   -1    0    0    0  501 -0.00000000000E+00 -0.00000000000E+00 -0.17193352082E+04  0.17193352082E+04  0.25500000000E-02 0.  1.
     200001    2    1    2    0    0  0.69256387958E+03 -0.96188498606E+03 -0.83602376123E+03  0.16105779541E+04  0.70011296453E+03 0.  0.
    5000001    2    3    3    0    0  0.15844652886E+03 -0.13303400217E+03 -0.24780283098E+03  0.35826842340E+03  0.15539199440E+03 0.  0.
        -13    1    4    4    0    0  0.15860448466E+03 -0.81843729979E+02 -0.23899849301E+03  0.29828521505E+03  0.10566000000E+00 0. -1.
     200003    1    4    4    0    0 -0.15795580389E+00 -0.51190272190E+02 -0.88043379710E+01  0.59983208351E+02  0.30000000000E+02 0. -1.
     200000    1    3    3    0    0  0.53411735073E+03 -0.82885098389E+03 -0.58822093025E+03  0.12523095307E+04  0.50000000000E+03 0.  1.
    -200001    1    1    2    0    0 -0.69256387958E+03  0.96188498606E+03  0.45897383153E+03  0.14510425327E+04  0.70000000000E+03 0. -1.
<mgrwt>
<rscale>  0 0.30383142E+04</rscale>
<asrwt>0</asrwt>
<pdfrwt beam="1">  1        2 0.19175504E+00 0.30383142E+04</pdfrwt>
<pdfrwt beam="2">  1       -2 0.24561931E+00 0.30383142E+04</pdfrwt>
<totfact> 0.10458098E+00</totfact>
</mgrwt>
</event>
<event>
 8    1  0.7623533E-028  0.1424110E+04  0.7818608E-02  0.8936549E-01
          2   -1    0    0  501    0  0.00000000000E+00  0.00000000000E+00  0.10785252140E+04  0.10785252140E+04  0.25500000000E-02 0.  1.
         -2   -1    0    0    0  501 -0.00000000000E+00 -0.00000000000E+00 -0.47010689343E+03  0.47010689344E+03  0.25500000000E-02 0. -1.
     200001    2    1    2    0    0 -0.40957076664E+02  0.43197356018E+02  0.43210047048E+03  0.82431761915E+03  0.69946066863E+03 0.  0.
    5000001    2    3    3    0    0 -0.17430801004E+02 -0.10610104584E+03  0.11345915113E+03  0.21245506201E+03  0.14388505706E+03 0.  0.
        -13    1    4    4    0    0 -0.27409949530E+02  0.29323536856E+02  0.31593232762E+02  0.51081490457E+02  0.10566000000E+00 0. -1.
     200003    1    4    4    0    0  0.99791485256E+01 -0.13542458270E+03  0.81865918372E+02  0.16137357155E+03  0.30000000000E+02 0. -1.
     200000    1    3    3    0    0 -0.23526275660E+02  0.14929840186E+03  0.31864131934E+03  0.61186255715E+03  0.50000000000E+03 0. -1.
    -200001    1    1    2    0    0  0.40957076664E+02 -0.43197356018E+02  0.17631785010E+03  0.72431448830E+03  0.70000000000E+03 0. -1.
<mgrwt>
<rscale>  0 0.14241097E+04</rscale>
<asrwt>0</asrwt>
<pdfrwt beam="1">  1        2 0.15407503E+00 0.14241097E+04</pdfrwt>
<pdfrwt beam="2">  1       -2 0.67158128E-01 0.14241097E+04</pdfrwt>
<totfact> 0.49812733E+01</totfact>
</mgrwt>
</event>
<event>
 8    1  0.7623533E-028  0.2399719E+04  0.7818608E-02  0.8439609E-01
         -2   -1    0    0    0  501 -0.00000000000E+00  0.00000000000E+00  0.11698489627E+04  0.11698489627E+04  0.25500000000E-02 0. -1.
          2   -1    0    0  501    0  0.00000000000E+00 -0.00000000000E+00 -0.12306398487E+04  0.12306398487E+04  0.25500000000E-02 0.  1.
     200001    2    1    2    0    0  0.74392127496E+03  0.62731236414E+03 -0.79398986347E+02  0.12016202085E+04  0.70046217668E+03 0.  0.
    5000001    2    3    3    0    0  0.26905263157E+03  0.12421470555E+03 -0.26555719676E+01  0.34459218436E+03  0.17583546238E+03 0.  0.
        -13    1    4    4    0    0  0.22823648920E+02  0.64302437061E+02  0.49292868148E+02  0.84175533121E+02  0.10566000000E+00 0. -1.
     200003    1    4    4    0    0  0.24622898265E+03  0.59912268487E+02 -0.51948440115E+02  0.26041665124E+03  0.30000000000E+02 0. -1.
     200000    1    3    3    0    0  0.47486864339E+03  0.50309765859E+03 -0.76743414379E+02  0.85702802417E+03  0.50000000000E+03 0. -1.
    -200001    1    1    2    0    0 -0.74392127496E+03 -0.62731236414E+03  0.18608100346E+02  0.11988686029E+04  0.70000000000E+03 0. -1.
<mgrwt>
<rscale>  0 0.23997189E+04</rscale>
<asrwt>0</asrwt>
<pdfrwt beam="1">  1        2 0.17580569E+00 0.23997189E+04</pdfrwt>
<pdfrwt beam="2">  1       -2 0.16712128E+00 0.23997189E+04</pdfrwt>
<totfact> 0.41486707E+00</totfact>
</mgrwt>
</event>
<event>
 8    1  0.7623533E-028  0.1507251E+04  0.7818608E-02  0.8879645E-01
         -2   -1    0    0    0  501 -0.00000000000E+00  0.00000000000E+00  0.16621384374E+03  0.16621384376E+03  0.25500000000E-02 0. -1.
          2   -1    0    0  501    0  0.00000000000E+00 -0.00000000000E+00 -0.34169925157E+04  0.34169925157E+04  0.25500000000E-02 0.  1.
     200001    2    1    2    0    0  0.16944684694E+03  0.26439125208E+02 -0.11012811460E+04  0.13161044925E+04  0.69992829008E+03 0.  0.
    5000001    2    3    3    0    0  0.82328352498E+02  0.49804523787E+02 -0.31424194417E+03  0.37931941618E+03  0.18941164642E+03 0.  0.
        -13    1    4    4    0    0 -0.32776100433E+02  0.51800086538E+02 -0.21753059219E+03  0.22600241465E+03  0.10566000000E+00 0. -1.
     200003    1    4    4    0    0  0.11510445293E+03 -0.19955627518E+01 -0.96711351979E+02  0.15331700153E+03  0.30000000000E+02 0. -1.
     200000    1    3    3    0    0  0.87118494442E+02 -0.23365398579E+02 -0.78703920186E+03  0.93678507630E+03  0.50000000000E+03 0. -1.
    -200001    1    1    2    0    0 -0.16944684694E+03 -0.26439125208E+02 -0.21494975259E+04  0.22671018670E+04  0.70000000000E+03 0.  1.
<mgrwt>
<rscale>  0 0.15072511E+04</rscale>
<asrwt>0</asrwt>
<pdfrwt beam="1">  1        2 0.48814175E+00 0.15072511E+04</pdfrwt>
<pdfrwt beam="2">  1       -2 0.23744837E-01 0.15072511E+04</pdfrwt>
<totfact> 0.20754158E+01</totfact>
</mgrwt>
</event>
<event>
 8    1  0.7623533E-028  0.1413393E+04  0.7818608E-02  0.8944180E-01
         -2   -1    0    0    0  501 -0.00000000000E+00  0.00000000000E+00  0.35101329421E+03  0.35101329422E+03  0.25500000000E-02 0. -1.
          2   -1    0    0  501    0  0.00000000000E+00 -0.00000000000E+00 -0.14227959031E+04  0.14227959031E+04  0.25500000000E-02 0.  1.
     200001    2    1    2    0    0 -0.69953318082E+02 -0.29776782872E+02 -0.45533376559E+03  0.83797304718E+03  0.69934960228E+03 0.  0.
    5000001    2    3    3    0    0 -0.67078672163E+02 -0.35589218820E+02 -0.82137695530E+02  0.21402004037E+03  0.18246050503E+03 0.  0.
        -13    1    4    4    0    0 -0.32510551984E+02 -0.33550195530E+02 -0.13571115927E+03  0.14352728495E+03  0.10566000000E+00 0. -1.
     200003    1    4    4    0    0 -0.34568120179E+02 -0.20390232900E+01  0.53573463742E+02  0.70492755416E+02  0.30000000000E+02 0. -1.
     200000    1    3    3    0    0 -0.28746459190E+01  0.58124359483E+01 -0.37319607006E+03  0.62395300681E+03  0.50000000000E+03 0. -1.
    -200001    1    1    2    0    0  0.69953318082E+02  0.29776782872E+02 -0.61644884332E+03  0.93583615016E+03  0.70000000000E+03 0. -1.
<mgrwt>
<rscale>  0 0.14133935E+04</rscale>
<asrwt>0</asrwt>
<pdfrwt beam="1">  1        2 0.20325655E+00 0.14133935E+04</pdfrwt>
<pdfrwt beam="2">  1       -2 0.50144757E-01 0.14133935E+04</pdfrwt>
<totfact> 0.58877534E+01</totfact>
</mgrwt>
</event>
<event>
 8    1  0.7623533E-028  0.1632290E+04  0.7818608E-02  0.8800953E-01
         -2   -1    0    0    0  501 -0.00000000000E+00  0.00000000000E+00  0.61486790355E+03  0.61486790356E+03  0.25500000000E-02 0. -1.
          2   -1    0    0  501    0  0.00000000000E+00 -0.00000000000E+00 -0.10833096557E+04  0.10833096557E+04  0.25500000000E-02 0.  1.
     200001    2    1    2    0    0 -0.79309707173E+02  0.32110318257E+03  0.46788999897E+02  0.76819905877E+03  0.69176824145E+03 0.  0.
    5000001    2    3    3    0    0  0.21532025544E+02  0.73411945903E+02  0.13041591906E+03  0.19503811681E+03  0.12320151435E+03 0.  0.
        -13    1    4    4    0    0  0.62063314272E+02  0.42679092783E+02  0.10843096077E+03  0.13202516562E+03  0.10566000000E+00 0. -1.
     200003    1    4    4    0    0 -0.40531288728E+02  0.30732853120E+02  0.21984958294E+02  0.63012951193E+02  0.30000000000E+02 0. -1.
     200000    1    3    3    0    0 -0.10084173272E+03  0.24769123667E+03 -0.83626919165E+02  0.57316094196E+03  0.50000000000E+03 0.  1.
    -200001    1    1    2    0    0  0.79309707173E+02 -0.32110318257E+03 -0.51523075203E+03  0.92997850048E+03  0.70000000000E+03 0.  1.
<mgrwt>
<rscale>  0 0.16322896E+04</rscale>
<asrwt>0</asrwt>
<pdfrwt beam="1">  1        2 0.15475852E+00 0.16322896E+04</pdfrwt>
<pdfrwt beam="2">  1       -2 0.87838272E-01 0.16322896E+04</pdfrwt>
<totfact> 0.26793569E+01</totfact>
</mgrwt>
</event>
<event>
 8    1  0.7623533E-028  0.1602856E+04  0.7818608E-02  0.8818795E-01
         -2   -1    0    0    0  501 -0.00000000000E+00  0.00000000000E+00  0.52590537642E+03  0.52590537643E+03  0.25500000000E-02 0. -1.
          2   -1    0    0  501    0  0.00000000000E+00 -0.00000000000E+00 -0.12212970686E+04  0.12212970686E+04  0.25500000000E-02 0.  1.
     200001    2    1    2    0    0  0.35986681181E+03  0.10198023454E+02 -0.18289047510E+03  0.80791249009E+03  0.69976106196E+03 0.  0.
    5000001    2    3    3    0    0  0.81977259858E+02  0.58411557998E+01 -0.10946610031E+02  0.21057985402E+03  0.19357080465E+03 0.  0.
        -13    1    4    4    0    0 -0.61486837492E+02  0.29630534450E+01  0.10424830724E+02  0.62434758990E+02  0.10566000000E+00 0. -1.
     200003    1    4    4    0    0  0.14346409735E+03  0.28781023549E+01 -0.21371440754E+02  0.14814509503E+03  0.30000000000E+02 0. -1.
     200000    1    3    3    0    0  0.27788955195E+03  0.43568676538E+01 -0.17194386507E+03  0.59733263607E+03  0.50000000000E+03 0. -1.
    -200001    1    1    2    0    0 -0.35986681181E+03 -0.10198023454E+02 -0.51250121705E+03  0.93928995491E+03  0.70000000000E+03 0.  1.
<mgrwt>
<rscale>  0 0.16028558E+04</rscale>
<asrwt>0</asrwt>
<pdfrwt beam="1">  1        2 0.17447101E+00 0.16028558E+04</pdfrwt>
<pdfrwt beam="2">  1       -2 0.75129340E-01 0.16028558E+04</pdfrwt>
<totfact> 0.31767899E+01</totfact>
</mgrwt>
</event>
<event>
 8    1  0.7623533E-028  0.1634647E+04  0.7818608E-02  0.8799541E-01
          2   -1    0    0  501    0  0.00000000000E+00  0.00000000000E+00  0.13255838761E+04  0.13255838761E+04  0.25500000000E-02 0.  1.
         -2   -1    0    0    0  501 -0.00000000000E+00 -0.00000000000E+00 -0.50394228034E+03  0.50394228034E+03  0.25500000000E-02 0. -1.
     200001    2    1    2    0    0 -0.10144867147E+03 -0.36225762310E+02  0.86770189154E+03  0.11197898042E+04  0.69958451540E+03 0.  0.
    5000001    2    3    3    0    0 -0.89573116600E+02 -0.11570761251E+03  0.38961055585E+03  0.42334905396E+03  0.77565723423E+02 0.  0.
        -13    1    4    4    0    0 -0.50179024205E+02 -0.44852736431E+02  0.95744977229E+02  0.11703338953E+03  0.10566000000E+00 0. -1.
     200003    1    4    4    0    0 -0.39394092396E+02 -0.70854876077E+02  0.29386557862E+03  0.30631566444E+03  0.30000000000E+02 0. -1.
     200000    1    3    3    0    0 -0.11875554874E+02  0.79481850198E+02  0.47809133569E+03  0.69644075023E+03  0.50000000000E+03 0.  1.
    -200001    1    1    2    0    0  0.10144867147E+03  0.36225762310E+02 -0.46060295823E+02  0.70973635221E+03  0.70000000000E+03 0. -1.
<mgrwt>
<rscale>  0 0.16346471E+04</rscale>
<asrwt>0</asrwt>
<pdfrwt beam="1">  1        2 0.18936912E+00 0.16346471E+04</pdfrwt>
<pdfrwt beam="2">  1       -2 0.71991754E-01 0.16346471E+04</pdfrwt>
<totfact> 0.30449349E+01</totfact>
</mgrwt>
</event>
<event>
 8    1  0.7623533E-028  0.2769521E+04  0.7818608E-02  0.8312794E-01
         -2   -1    0    0    0  501 -0.00000000000E+00  0.00000000000E+00  0.13131133906E+04  0.13131133906E+04  0.25500000000E-02 0. -1.
          2   -1    0    0  501    0  0.00000000000E+00 -0.00000000000E+00 -0.14603167369E+04  0.14603167369E+04  0.25500000000E-02 0.  1.
     200001    2    1    2    0    0 -0.10851979902E+04 -0.15133019260E+03  0.40368218018E+03  0.13613287259E+04  0.69978646180E+03 0.  0.
    5000001    2    3    3    0    0 -0.41553873781E+03 -0.73752776562E+02  0.20440643650E+03  0.49867433862E+03  0.16965314630E+03 0.  0.
        -13    1    4    4    0    0 -0.16035407530E+03  0.24243119332E+02  0.11141388091E+02  0.16255860479E+03  0.10566000000E+00 0. -1.
     200003    1    4    4    0    0 -0.25518466251E+03 -0.97995895894E+02  0.19326504841E+03  0.33611573383E+03  0.30000000000E+02 0. -1.
     200000    1    3    3    0    0 -0.66965925242E+03 -0.77577416034E+02  0.19927574369E+03  0.86265438726E+03  0.50000000000E+03 0. -1.
    -200001    1    1    2    0    0  0.10851979902E+04  0.15133019260E+03 -0.55088552653E+03  0.14121014016E+04  0.70000000000E+03 0.  1.
<mgrwt>
<rscale>  0 0.27695209E+04</rscale>
<asrwt>0</asrwt>
<pdfrwt beam="1">  1        2 0.20861668E+00 0.27695209E+04</pdfrwt>
<pdfrwt beam="2">  1       -2 0.18758763E+00 0.27695209E+04</pdfrwt>
<totfact> 0.21698098E+00</totfact>
</mgrwt>
</event>
<event>
 8    1  0.7623533E-028  0.1506843E+04  0.7818608E-02  0.8879915E-01
         -2   -1    0    0    0  501 -0.00000000000E+00  0.00000000000E+00  0.22314635411E+03  0.22314635413E+03  0.25500000000E-02 0. -1.
          2   -1    0    0  501    0  0.00000000000E+00 -0.00000000000E+00 -0.25438189446E+04  0.25438189446E+04  0.25500000000E-02 0.  1.
     200001    2    1    2    0    0 -0.60437755800E+02 -0.23756542744E+03 -0.14271750445E+04  0.16057470078E+04  0.69390546224E+03 0.  0.
    5000001    2    3    3    0    0 -0.99226797051E+02 -0.23768545707E+02 -0.47829096878E+03  0.51140031425E+03  0.14952300686E+03 0.  0.
        -13    1    4    4    0    0 -0.89656607246E+02  0.43421983472E+02 -0.34206615063E+03  0.35627663191E+03  0.10566000000E+00 0. -1.
     200003    1    4    4    0    0 -0.95701898047E+01 -0.67190529179E+02 -0.13622481815E+03  0.15512368234E+03  0.30000000000E+02 0. -1.
     200000    1    3    3    0    0  0.38789041250E+02 -0.21379688173E+03 -0.94888407576E+03  0.10943466935E+04  0.50000000000E+03 0.  1.
    -200001    1    1    2    0    0  0.60437755800E+02  0.23756542744E+03 -0.89349754590E+03  0.11612182909E+04  0.70000000000E+03 0.  1.
<mgrwt>
<rscale>  0 0.15068430E+04</rscale>
<asrwt>0</asrwt>
<pdfrwt beam="1">  1        2 0.36340269E+00 0.15068430E+04</pdfrwt>
<pdfrwt beam="2">  1       -2 0.31878052E-01 0.15068430E+04</pdfrwt>
<totfact> 0.37042187E+01</totfact>
</mgrwt>
</event>
<event>
 8    1  0.7623533E-028  0.1880443E+04  0.7818608E-02  0.8664653E-01
          2   -1    0    0  501    0  0.00000000000E+00  0.00000000000E+00  0.13868356449E+04  0.13868356449E+04  0.25500000000E-02 0.  1.
         -2   -1    0    0    0  501 -0.00000000000E+00 -0.00000000000E+00 -0.63743394810E+03  0.63743394811E+03  0.25500000000E-02 0. -1.
     200001    2    1    2    0    0  0.54434544193E+03 -0.23638783892E+03  0.59428358025E+03  0.10935425650E+04  0.70033648855E+03 0.  0.
    5000001    2    3    3    0    0  0.16199436035E+03 -0.13077423799E+03  0.23839727424E+03  0.36278840314E+03  0.17730789880E+03 0.  0.
        -13    1    4    4    0    0  0.76379795129E+02  0.34192744665E+02  0.56255932181E+02  0.10083530117E+03  0.10566000000E+00 0. -1.
     200003    1    4    4    0    0  0.85614565222E+02 -0.16496698266E+03  0.18214134205E+03  0.26195310197E+03  0.30000000000E+02 0. -1.
     200000    1    3    3    0    0  0.38235108158E+03 -0.10561360093E+03  0.35588630602E+03  0.73075416187E+03  0.50000000000E+03 0. -1.
    -200001    1    1    2    0    0 -0.54434544193E+03  0.23638783892E+03  0.15511811652E+03  0.93072702798E+03  0.70000000000E+03 0. -1.
<mgrwt>
<rscale>  0 0.18804426E+04</rscale>
<asrwt>0</asrwt>
<pdfrwt beam="1">  1        2 0.19811938E+00 0.18804426E+04</pdfrwt>
<pdfrwt beam="2">  1       -2 0.91061993E-01 0.18804426E+04</pdfrwt>
<totfact> 0.16286339E+01</totfact>
</mgrwt>
</event>
<event>
 8    1  0.7623533E-028  0.1752475E+04  0.7818608E-02  0.8731989E-01
         -2   -1    0    0    0  501 -0.00000000000E+00  0.00000000000E+00  0.36914786486E+03  0.36914786486E+03  0.25500000000E-02 0. -1.
          2   -1    0    0  501    0  0.00000000000E+00 -0.00000000000E+00 -0.20799052580E+04  0.20799052580E+04  0.25500000000E-02 0.  1.
     200001    2    1    2    0    0 -0.31561630121E+02 -0.36350710991E+03 -0.32747179473E+03  0.85637845356E+03  0.70214864803E+03 0.  0.
    5000001    2    3    3    0    0  0.99035822448E+02 -0.29868037478E+02 -0.54876653433E+02  0.18356433634E+03  0.14136557111E+03 0.  0.
        -13    1    4    4    0    0  0.46419801785E+02 -0.66920393360E+02 -0.73989581181E+02  0.11003456881E+03  0.10566000000E+00 0. -1.
     200003    1    4    4    0    0  0.52616020664E+02  0.37052355883E+02  0.19112927748E+02  0.73529767537E+02  0.30000000000E+02 0.  1.
     200000    1    3    3    0    0 -0.13059745257E+03 -0.33363907243E+03 -0.27259514129E+03  0.67281411722E+03  0.50000000000E+03 0. -1.
    -200001    1    1    2    0    0  0.31561630121E+02  0.36350710991E+03 -0.13832855984E+04  0.15926746693E+04  0.70000000000E+03 0. -1.
<mgrwt>
<rscale>  0 0.17524755E+04</rscale>
<asrwt>0</asrwt>
<pdfrwt beam="1">  1        2 0.29712931E+00 0.17524755E+04</pdfrwt>
<pdfrwt beam="2">  1       -2 0.52735411E-01 0.17524755E+04</pdfrwt>
<totfact> 0.23514802E+01</totfact>
</mgrwt>
</event>
<event>
 8    1  0.7623533E-028  0.1426238E+04  0.7818608E-02  0.8935042E-01
         -2   -1    0    0    0  501 -0.00000000000E+00  0.00000000000E+00  0.66587427300E+03  0.66587427301E+03  0.25500000000E-02 0. -1.
          2   -1    0    0  501    0  0.00000000000E+00 -0.00000000000E+00 -0.76371569598E+03  0.76371569599E+03  0.25500000000E-02 0.  1.
     200001    2    1    2    0    0 -0.12276367226E+03 -0.22790125111E+02  0.94549937475E+01  0.71049134567E+03  0.69936989236E+03 0.  0.
    5000001    2    3    3    0    0 -0.95638921333E+02 -0.22535075040E+01 -0.77206136661E+02  0.20189754282E+03  0.16015601359E+03 0.  0.
        -13    1    4    4    0    0 -0.56251859567E+02  0.68359797806E+02 -0.37419976455E+01  0.88607829063E+02  0.10566000000E+00 0. -1.
     200003    1    4    4    0    0 -0.39387061766E+02 -0.70613305310E+02 -0.73464139016E+02  0.11328971375E+03  0.30000000000E+02 0. -1.
     200000    1    3    3    0    0 -0.27124750928E+02 -0.20536617607E+02  0.86661130409E+02  0.50859380285E+03  0.50000000000E+03 0. -1.
    -200001    1    1    2    0    0  0.12276367226E+03  0.22790125111E+02 -0.10729641673E+03  0.71909862333E+03  0.70000000000E+03 0. -1.
<mgrwt>
<rscale>  0 0.14262379E+04</rscale>
<asrwt>0</asrwt>
<pdfrwt beam="1">  1        2 0.10910224E+00 0.14262379E+04</pdfrwt>
<pdfrwt beam="2">  1       -2 0.95124896E-01 0.14262379E+04</pdfrwt>
<totfact> 0.36488245E+01</totfact>
</mgrwt>
</event>
<event>
 8    1  0.7623533E-028  0.1861846E+04  0.7818608E-02  0.8674085E-01
          2   -1    0    0  501    0  0.00000000000E+00  0.00000000000E+00  0.18056466834E+04  0.18056466834E+04  0.25500000000E-02 0.  1.
         -2   -1    0    0    0  501 -0.00000000000E+00 -0.00000000000E+00 -0.47994838899E+03  0.47994838899E+03  0.25500000000E-02 0. -1.
     200001    2    1    2    0    0 -0.60234496739E+03 -0.42809372382E+02  0.53017582017E+03  0.10659606562E+04  0.70038105211E+03 0.  0.
    5000001    2    3    3    0    0 -0.24848816814E+03 -0.28393454058E+02  0.12586066194E+03  0.33186720148E+03  0.17816389998E+03 0.  0.
        -13    1    4    4    0    0 -0.10971133919E+03  0.22603628652E+02 -0.28959192513E+02  0.11569852191E+03  0.10566000000E+00 0. -1.
     200003    1    4    4    0    0 -0.13877682894E+03 -0.50997082710E+02  0.15481985445E+03  0.21616867958E+03  0.30000000000E+02 0. -1.
     200000    1    3    3    0    0 -0.35385679926E+03 -0.14415918324E+02  0.40431515823E+03  0.73409345472E+03  0.50000000000E+03 0. -1.
    -200001    1    1    2    0    0  0.60234496739E+03  0.42809372382E+02  0.79552247419E+03  0.12196344161E+04  0.70000000000E+03 0.  1.
<mgrwt>
<rscale>  0 0.18618456E+04</rscale>
<asrwt>0</asrwt>
<pdfrwt beam="1">  1        2 0.25794953E+00 0.18618456E+04</pdfrwt>
<pdfrwt beam="2">  1       -2 0.68564055E-01 0.18618456E+04</pdfrwt>
<totfact> 0.18527974E+01</totfact>
</mgrwt>
</event>
<event>
 8    1  0.7623533E-028  0.1556168E+04  0.7818608E-02  0.8847938E-01
          2   -1    0    0  501    0  0.00000000000E+00  0.00000000000E+00  0.13362113106E+04  0.13362113106E+04  0.25500000000E-02 0.  1.
         -2   -1    0    0    0  501 -0.00000000000E+00 -0.00000000000E+00 -0.45308303620E+03  0.45308303621E+03  0.25500000000E-02 0. -1.
     200001    2    1    2    0    0 -0.33624832260E+03  0.32209224448E+02  0.48504460664E+03  0.91604124771E+03  0.69983064272E+03 0.  0.
    5000001    2    3    3    0    0 -0.17382880007E+03 -0.43099269434E+02  0.26347391677E+03  0.34058921569E+03  0.12045127756E+03 0.  0.
        -13    1    4    4    0    0  0.14570280095E+02  0.34640459358E+01  0.46116305502E+01  0.15670704409E+02  0.10566000000E+00 0. -1.
     200003    1    4    4    0    0 -0.18839908017E+03 -0.46563315370E+02  0.25886228622E+03  0.32491851128E+03  0.30000000000E+02 0. -1.
     200000    1    3    3    0    0 -0.16241952253E+03  0.75308493882E+02  0.22157068988E+03  0.57545203203E+03  0.50000000000E+03 0.  1.
    -200001    1    1    2    0    0  0.33624832260E+03 -0.32209224448E+02  0.39808366780E+03  0.87325309914E+03  0.70000000000E+03 0.  1.
<mgrwt>
<rscale>  0 0.15561680E+04</rscale>
<asrwt>0</asrwt>
<pdfrwt beam="1">  1        2 0.19088733E+00 0.15561680E+04</pdfrwt>
<pdfrwt beam="2">  1       -2 0.64726148E-01 0.15561680E+04</pdfrwt>
<totfact> 0.38072658E+01</totfact>
</mgrwt>
</event>
<event>
 8    1  0.7623533E-028  0.1529651E+04  0.7818608E-02  0.8864971E-01
         -2   -1    0    0    0  501 -0.00000000000E+00  0.00000000000E+00  0.31367530118E+03  0.31367530119E+03  0.25500000000E-02 0. -1.
          2   -1    0    0  501    0  0.00000000000E+00 -0.00000000000E+00 -0.18648514449E+04  0.18648514449E+04  0.25500000000E-02 0.  1.
     200001    2    1    2    0    0  0.13069593071E+03 -0.12411965931E+03 -0.11332120734E+04  0.13435530458E+04  0.69891205987E+03 0.  0.
    5000001    2    3    3    0    0 -0.22459014297E+02 -0.13760036718E+02 -0.11025923084E+03  0.18940045554E+03  0.15172899736E+03 0.  0.
        -13    1    4    4    0    0  0.58088443593E+02 -0.30687379047E+02 -0.56237959773E+02  0.86479487714E+02  0.10566000000E+00 0. -1.
     200003    1    4    4    0    0 -0.80547457891E+02  0.16927342329E+02 -0.54021271064E+02  0.10292096783E+03  0.30000000000E+02 0. -1.
     200000    1    3    3    0    0  0.15315494501E+03 -0.11035962259E+03 -0.10229528426E+04  0.11541525903E+04  0.50000000000E+03 0.  1.
    -200001    1    1    2    0    0 -0.13069593071E+03  0.12411965931E+03 -0.41796407033E+03  0.83497370031E+03  0.70000000000E+03 0. -1.
<mgrwt>
<rscale>  0 0.15296507E+04</rscale>
<asrwt>0</asrwt>
<pdfrwt beam="1">  1        2 0.26640734E+00 0.15296507E+04</pdfrwt>
<pdfrwt beam="2">  1       -2 0.44810758E-01 0.15296507E+04</pdfrwt>
<totfact> 0.42953103E+01</totfact>
</mgrwt>
</event>
<event>
 8    1  0.7623533E-028  0.1569681E+04  0.7818608E-02  0.8839394E-01
          2   -1    0    0  501    0  0.00000000000E+00  0.00000000000E+00  0.18198886896E+04  0.18198886896E+04  0.25500000000E-02 0.  1.
         -2   -1    0    0    0  501 -0.00000000000E+00 -0.00000000000E+00 -0.33846815202E+03  0.33846815203E+03  0.25500000000E-02 0. -1.
     200001    2    1    2    0    0 -0.27505237993E+03 -0.15718853031E+03  0.96045354493E+03  0.12300418879E+04  0.70012140974E+03 0.  0.
    5000001    2    3    3    0    0 -0.58812903982E+02 -0.18656483226E+03  0.28601874686E+03  0.36258308494E+03  0.10674444067E+03 0.  0.
        -13    1    4    4    0    0  0.25070841075E+02 -0.14200362381E+02  0.37852573023E+02  0.47571270872E+02  0.10566000000E+00 0. -1.
     200003    1    4    4    0    0 -0.83883745057E+02 -0.17236446988E+03  0.24816617384E+03  0.31501181406E+03  0.30000000000E+02 0. -1.
     200000    1    3    3    0    0 -0.21623947595E+03  0.29376301955E+02  0.67443479806E+03  0.86745880301E+03  0.50000000000E+03 0.  1.
    -200001    1    1    2    0    0  0.27505237993E+03  0.15718853031E+03  0.52096699262E+03  0.92831495365E+03  0.70000000000E+03 0. -1.
<mgrwt>
<rscale>  0 0.15696807E+04</rscale>
<asrwt>0</asrwt>
<pdfrwt beam="1">  1        2 0.25998410E+00 0.15696807E+04</pdfrwt>
<pdfrwt beam="2">  1       -2 0.48352593E-01 0.15696807E+04</pdfrwt>
<totfact> 0.38764540E+01</totfact>
</mgrwt>
</event>
<event>
 8    1  0.7623533E-028  0.2649405E+04  0.7818608E-02  0.8351610E-01
          2   -1    0    0  501    0  0.00000000000E+00  0.00000000000E+00  0.24930859539E+04  0.24930859539E+04  0.25500000000E-02 0.  1.
         -2   -1    0    0    0  501 -0.00000000000E+00 -0.00000000000E+00 -0.70388136405E+03  0.70388136405E+03  0.25500000000E-02 0. -1.
     200001    2    1    2    0    0 -0.49843327936E+02 -0.85675664045E+03  0.18660048584E+02  0.11085841465E+04  0.70149434360E+03 0.  0.
    5000001    2    3    3    0    0  0.33556208215E+02 -0.82533777152E+02 -0.42151041895E+02  0.18118212286E+03  0.15202765482E+03 0.  0.
        -13    1    4    4    0    0  0.73671953966E+02 -0.75716665270E+02  0.12913761751E+02  0.10643000802E+03  0.10566000000E+00 0. -1.
     200003    1    4    4    0    0 -0.40115745751E+02 -0.68171118813E+01 -0.55064803646E+02  0.74752114834E+02  0.30000000000E+02 0. -1.
     200000    1    3    3    0    0 -0.83399536151E+02 -0.77422286330E+03  0.60811090479E+02  0.92740202362E+03  0.50000000000E+03 0. -1.
    -200001    1    1    2    0    0  0.49843327936E+02  0.85675664045E+03  0.17705445413E+04  0.20883831715E+04  0.70000000000E+03 0.  1.
<mgrwt>
<rscale>  0 0.26494050E+04</rscale>
<asrwt>0</asrwt>
<pdfrwt beam="1">  1        2 0.35615514E+00 0.26494050E+04</pdfrwt>
<pdfrwt beam="2">  1       -2 0.10055448E+00 0.26494050E+04</pdfrwt>
<totfact> 0.32120079E+00</totfact>
</mgrwt>
</event>
<event>
 8    1  0.7623533E-028  0.1623486E+04  0.7818608E-02  0.8806248E-01
         -2   -1    0    0    0  501 -0.00000000000E+00  0.00000000000E+00  0.16036035610E+04  0.16036035610E+04  0.25500000000E-02 0. -1.
          2   -1    0    0  501    0  0.00000000000E+00 -0.00000000000E+00 -0.41090384750E+03  0.41090384751E+03  0.25500000000E-02 0.  1.
     200001    2    1    2    0    0 -0.46288978707E+02 -0.37637106273E+03  0.76678046594E+03  0.11116203437E+04  0.70989411822E+03 0.  0.
    5000001    2    3    3    0    0 -0.33086736518E+02 -0.12631728836E+03  0.38314322612E+02  0.19327176536E+03  0.13724138770E+03 0.  0.
        -13    1    4    4    0    0 -0.57044761661E+02 -0.81806811523E+02 -0.29041081869E+02  0.10387422608E+03  0.10566000000E+00 0. -1.
     200003    1    4    4    0    0  0.23958025143E+02 -0.44510476832E+02  0.67355404481E+02  0.89397539280E+02  0.30000000000E+02 0. -1.
     200000    1    3    3    0    0 -0.13202242189E+02 -0.25005377438E+03  0.72846614333E+03  0.91834857830E+03  0.50000000000E+03 0.  1.
    -200001    1    1    2    0    0  0.46288978707E+02  0.37637106273E+03  0.42591924755E+03  0.90288706483E+03  0.70000000000E+03 0.  1.
<mgrwt>
<rscale>  0 0.16234862E+04</rscale>
<asrwt>0</asrwt>
<pdfrwt beam="1">  1        2 0.58700548E-01 0.16234862E+04</pdfrwt>
<pdfrwt beam="2">  1       -2 0.22908623E+00 0.16234862E+04</pdfrwt>
<totfact> 0.69711108E+00</totfact>
</mgrwt>
</event>
<event>
 8    1  0.7623533E-028  0.1564573E+04  0.7818608E-02  0.8842613E-01
          2   -1    0    0  501    0  0.00000000000E+00  0.00000000000E+00  0.85876679404E+03  0.85876679404E+03  0.25500000000E-02 0.  1.
         -2   -1    0    0    0  501 -0.00000000000E+00 -0.00000000000E+00 -0.71261724940E+03  0.71261724940E+03  0.25500000000E-02 0. -1.
     200001    2    1    2    0    0  0.24503056439E+03 -0.16729577427E+03 -0.11162066043E+03  0.76859307924E+03  0.70017733186E+03 0.  0.
    5000001    2    3    3    0    0  0.10850490228E+03  0.20363088755E+00  0.32785949032E+01  0.21190901622E+03  0.18199265559E+03 0.  0.
        -13    1    4    4    0    0  0.13547338325E+03 -0.51802620178E+02 -0.74109474089E+01  0.14522906848E+03  0.10566000000E+00 0. -1.
     200003    1    4    4    0    0 -0.26968480973E+02  0.52006251065E+02  0.10689542312E+02  0.66679947741E+02  0.30000000000E+02 0. -1.
     200000    1    3    3    0    0  0.13652566212E+03 -0.16749940515E+03 -0.11489925533E+03  0.55668406302E+03  0.50000000000E+03 0. -1.
    -200001    1    1    2    0    0 -0.24503056439E+03  0.16729577427E+03  0.25777020507E+03  0.80279096420E+03  0.70000000000E+03 0. -1.
<mgrwt>
<rscale>  0 0.15645728E+04</rscale>
<asrwt>0</asrwt>
<pdfrwt beam="1">  1        2 0.12268097E+00 0.15645728E+04</pdfrwt>
<pdfrwt beam="2">  1       -2 0.10180246E+00 0.15645728E+04</pdfrwt>
<totfact> 0.26424290E+01</totfact>
</mgrwt>
</event>
<event>
 8    1  0.7623533E-028  0.1470508E+04  0.7818608E-02  0.8904305E-01
          2   -1    0    0  501    0  0.00000000000E+00  0.00000000000E+00  0.26799458810E+04  0.26799458810E+04  0.25500000000E-02 0.  1.
         -2   -1    0    0    0  501 -0.00000000000E+00 -0.00000000000E+00 -0.20172000075E+03  0.20172000076E+03  0.25500000000E-02 0. -1.
     200001    2    1    2    0    0 -0.20147133913E+03  0.87297143331E+02  0.11502562909E+04  0.13645255712E+04  0.70044914729E+03 0.  0.
    5000001    2    3    3    0    0 -0.12542621728E+03 -0.38385087727E+02  0.50302523050E+03  0.53357013959E+03  0.12023959580E+03 0.  0.
        -13    1    4    4    0    0 -0.94559233780E+02 -0.52231849630E+02  0.20110068758E+03  0.22827858532E+03  0.10566000000E+00 0. -1.
     200003    1    4    4    0    0 -0.30866983495E+02  0.13846761902E+02  0.30192454293E+03  0.30529155427E+03  0.30000000000E+02 0. -1.
     200000    1    3    3    0    0 -0.76045121853E+02  0.12568223106E+03  0.64723106040E+03  0.83095543160E+03  0.50000000000E+03 0. -1.
    -200001    1    1    2    0    0  0.20147133913E+03 -0.87297143331E+02  0.13279695893E+04  0.15171403105E+04  0.70000000000E+03 0.  1.
<mgrwt>
<rscale>  0 0.14705083E+04</rscale>
<asrwt>0</asrwt>
<pdfrwt beam="1">  1        2 0.38284943E+00 0.14705083E+04</pdfrwt>
<pdfrwt beam="2">  1       -2 0.28817142E-01 0.14705083E+04</pdfrwt>
<totfact> 0.37984421E+01</totfact>
</mgrwt>
</event>
<event>
 8    1  0.7623533E-028  0.2398664E+04  0.7818608E-02  0.8440004E-01
          2   -1    0    0  501    0  0.00000000000E+00  0.00000000000E+00  0.18287812108E+04  0.18287812108E+04  0.25500000000E-02 0.  1.
         -2   -1    0    0    0  501 -0.00000000000E+00 -0.00000000000E+00 -0.78653338927E+03  0.78653338927E+03  0.25500000000E-02 0. -1.
     200001    2    1    2    0    0  0.62389479063E+03  0.68727527617E+03  0.20113051127E+03  0.11803684880E+04  0.70087393293E+03 0.  0.
    5000001    2    3    3    0    0  0.15572801790E+03  0.13173110594E+03  0.12808996556E+03  0.29541404086E+03  0.17105004072E+03 0.  0.
        -13    1    4    4    0    0  0.70157968899E+02  0.47022105471E+01  0.12005981179E+03  0.13913526137E+03  0.10566000000E+00 0. -1.
     200003    1    4    4    0    0  0.85570048999E+02  0.12702889540E+03  0.80301537710E+01  0.15627877950E+03  0.30000000000E+02 0. -1.
     200000    1    3    3    0    0  0.46816677273E+03  0.55554417023E+03  0.73040545701E+02  0.88495444712E+03  0.50000000000E+03 0. -1.
    -200001    1    1    2    0    0 -0.62389479063E+03 -0.68727527617E+03  0.84111731030E+03  0.14349461121E+04  0.70000000000E+03 0. -1.
<mgrwt>
<rscale>  0 0.23986642E+04</rscale>
<asrwt>0</asrwt>
<pdfrwt beam="1">  1        2 0.26125446E+00 0.23986642E+04</pdfrwt>
<pdfrwt beam="2">  1       -2 0.11236191E+00 0.23986642E+04</pdfrwt>
<totfact> 0.55502423E+00</totfact>
</mgrwt>
</event>
<event>
 8    1  0.7623533E-028  0.1944666E+04  0.7818608E-02  0.8632937E-01
         -2   -1    0    0    0  501 -0.00000000000E+00  0.00000000000E+00  0.10786122652E+04  0.10786122652E+04  0.25500000000E-02 0. -1.
          2   -1    0    0  501    0  0.00000000000E+00 -0.00000000000E+00 -0.87652619335E+03  0.87652619336E+03  0.25500000000E-02 0.  1.
     200001    2    1    2    0    0  0.25555821187E+03  0.57478014754E+03  0.34555291411E+03  0.10031589669E+04  0.70088435482E+03 0.  0.
    5000001    2    3    3    0    0  0.71756688229E+02  0.14119723921E+03  0.30936946735E+02  0.24767214017E+03  0.18787951372E+03 0.  0.
        -13    1    4    4    0    0  0.97522527086E+02  0.11144212980E+02 -0.24014954340E+02  0.10105229324E+03  0.10566000000E+00 0. -1.
     200003    1    4    4    0    0 -0.25765838856E+02  0.13005302623E+03  0.54951901075E+02  0.14661984693E+03  0.30000000000E+02 0. -1.
     200000    1    3    3    0    0  0.18380152364E+03  0.43358290834E+03  0.31461596737E+03  0.75548682677E+03  0.50000000000E+03 0.  1.
    -200001    1    1    2    0    0 -0.25555821187E+03 -0.57478014754E+03 -0.14346684225E+03  0.95197949163E+03  0.70000000000E+03 0.  1.
<mgrwt>
<rscale>  0 0.19446665E+04</rscale>
<asrwt>0</asrwt>
<pdfrwt beam="1">  1        2 0.12521803E+00 0.19446665E+04</pdfrwt>
<pdfrwt beam="2">  1       -2 0.15408747E+00 0.19446665E+04</pdfrwt>
<totfact> 0.88003550E+00</totfact>
</mgrwt>
</event>
<event>
 8    1  0.7623533E-028  0.1883001E+04  0.7818608E-02  0.8663364E-01
          2   -1    0    0  501    0  0.00000000000E+00  0.00000000000E+00  0.33384820610E+03  0.33384820611E+03  0.25500000000E-02 0.  1.
         -2   -1    0    0    0  501 -0.00000000000E+00 -0.00000000000E+00 -0.26551697438E+04  0.26551697438E+04  0.25500000000E-02 0. -1.
     200001    2    1    2    0    0  0.49305368744E+03 -0.36690826360E+03 -0.13735534533E+04  0.16601131548E+04  0.70114405450E+03 0.  0.
    5000001    2    3    3    0    0  0.14385522382E+03 -0.16093930955E+03 -0.37992274724E+03  0.47619391897E+03  0.18927114891E+03 0.  0.
        -13    1    4    4    0    0  0.56264542409E+02  0.29274515830E+02 -0.37465429880E+02  0.73663869093E+02  0.10566000000E+00 0. -1.
     200003    1    4    4    0    0  0.87590681415E+02 -0.19021382538E+03 -0.34245731736E+03  0.40253004988E+03  0.30000000000E+02 0. -1.
     200000    1    3    3    0    0  0.34919846361E+03 -0.20596895405E+03 -0.99363070603E+03  0.11839192358E+04  0.50000000000E+03 0.  1.
    -200001    1    1    2    0    0 -0.49305368744E+03  0.36690826360E+03 -0.94776808443E+03  0.13289047951E+04  0.70000000000E+03 0. -1.
<mgrwt>
<rscale>  0 0.18830015E+04</rscale>
<asrwt>0</asrwt>
<pdfrwt beam="1">  1        2 0.47692603E-01 0.18830015E+04</pdfrwt>
<pdfrwt beam="2">  1       -2 0.37930995E+00 0.18830015E+04</pdfrwt>
<totfact> 0.10109577E+00</totfact>
</mgrwt>
</event>
<event>
 8    1  0.7623533E-028  0.1478731E+04  0.7818608E-02  0.8898721E-01
         -2   -1    0    0    0  501 -0.00000000000E+00  0.00000000000E+00  0.41175225548E+03  0.41175225548E+03  0.25500000000E-02 0. -1.
          2   -1    0    0  501    0  0.00000000000E+00 -0.00000000000E+00 -0.13276463469E+04  0.13276463469E+04  0.25500000000E-02 0.  1.
     200001    2    1    2    0    0 -0.90384748285E+02 -0.20587093772E+03 -0.54808346645E+03  0.91730560183E+03  0.70035836202E+03 0.  0.
    5000001    2    3    3    0    0 -0.39747868407E+01 -0.57925146597E+02 -0.22230980992E+03  0.29643273736E+03  0.18729547420E+03 0.  0.
        -13    1    4    4    0    0 -0.91546699084E+02 -0.12697786312E+02 -0.11710612373E+03  0.14918407177E+03  0.10566000000E+00 0. -1.
     200003    1    4    4    0    0  0.87571912243E+02 -0.45227360285E+02 -0.10520368619E+03  0.14724866559E+03  0.30000000000E+02 0. -1.
     200000    1    3    3    0    0 -0.86409961444E+02 -0.14794579112E+03 -0.32577365653E+03  0.62087286447E+03  0.50000000000E+03 0. -1.
    -200001    1    1    2    0    0  0.90384748285E+02  0.20587093772E+03 -0.36781062499E+03  0.82209300056E+03  0.70000000000E+03 0. -1.
<mgrwt>
<rscale>  0 0.14787310E+04</rscale>
<asrwt>0</asrwt>
<pdfrwt beam="1">  1        2 0.18966376E+00 0.14787310E+04</pdfrwt>
<pdfrwt beam="2">  1       -2 0.58821751E-01 0.14787310E+04</pdfrwt>
<totfact> 0.47436192E+01</totfact>
</mgrwt>
</event>
<event>
 8    1  0.7623533E-028  0.1757191E+04  0.7818608E-02  0.8729402E-01
          2   -1    0    0  501    0  0.00000000000E+00  0.00000000000E+00  0.85010682450E+03  0.85010682451E+03  0.25500000000E-02 0.  1.
         -2   -1    0    0    0  501 -0.00000000000E+00 -0.00000000000E+00 -0.90803840340E+03  0.90803840340E+03  0.25500000000E-02 0. -1.
     200001    2    1    2    0    0  0.37054842972E+03  0.64046771405E+02 -0.40393704125E+03  0.89146887097E+03  0.70010248315E+03 0.  0.
    5000001    2    3    3    0    0  0.13089190823E+03  0.48991166582E+02 -0.80074085436E+02  0.24916899265E+03  0.19010655354E+03 0.  0.
        -13    1    4    4    0    0  0.38517871741E+02 -0.53651445442E+02  0.27529646896E+02  0.71554151967E+02  0.10566000000E+00 0. -1.
     200003    1    4    4    0    0  0.92374036486E+02  0.10264261202E+03 -0.10760373233E+03  0.17761484069E+03  0.30000000000E+02 0. -1.
     200000    1    3    3    0    0  0.23965652150E+03  0.15055604822E+02 -0.32386295582E+03  0.64229987832E+03  0.50000000000E+03 0. -1.
    -200001    1    1    2    0    0 -0.37054842972E+03 -0.64046771405E+02  0.34600546236E+03  0.86667635694E+03  0.70000000000E+03 0.  1.
<mgrwt>
<rscale>  0 0.17571905E+04</rscale>
<asrwt>0</asrwt>
<pdfrwt beam="1">  1        2 0.12144383E+00 0.17571905E+04</pdfrwt>
<pdfrwt beam="2">  1       -2 0.12971977E+00 0.17571905E+04</pdfrwt>
<totfact> 0.14562238E+01</totfact>
</mgrwt>
</event>
<event>
 8    1  0.7623533E-028  0.2156539E+04  0.7818608E-02  0.8536739E-01
          2   -1    0    0  501    0  0.00000000000E+00  0.00000000000E+00  0.34826551433E+04  0.34826551433E+04  0.25500000000E-02 0.  1.
         -2   -1    0    0    0  501 -0.00000000000E+00 -0.00000000000E+00 -0.33384436403E+03  0.33384436404E+03  0.25500000000E-02 0. -1.
     200001    2    1    2    0    0 -0.21554289523E+03  0.71365947412E+03  0.96878848461E+03  0.14085406643E+04  0.69976216697E+03 0.  0.
    5000001    2    3    3    0    0 -0.66732104862E+02  0.21022920067E+03  0.19164255207E+03  0.34574129844E+03  0.18482609948E+03 0.  0.
        -13    1    4    4    0    0  0.42947876208E+02  0.40974902041E+02  0.11215029555E+03  0.12689035671E+03  0.10566000000E+00 0. -1.
     200003    1    4    4    0    0 -0.10967998107E+03  0.16925429863E+03  0.79492256516E+02  0.21885094174E+03  0.30000000000E+02 0. -1.
     200000    1    3    3    0    0 -0.14881079037E+03  0.50343027345E+03  0.77714593254E+03  0.10627993658E+04  0.50000000000E+03 0.  1.
    -200001    1    1    2    0    0  0.21554289523E+03 -0.71365947412E+03  0.21800222946E+04  0.24079588431E+04  0.70000000000E+03 0.  1.
<mgrwt>
<rscale>  0 0.21565387E+04</rscale>
<asrwt>0</asrwt>
<pdfrwt beam="1">  1        2 0.49752213E+00 0.21565387E+04</pdfrwt>
<pdfrwt beam="2">  1       -2 0.47692055E-01 0.21565387E+04</pdfrwt>
<totfact> 0.47361988E+00</totfact>
</mgrwt>
</event>
<event>
 8    1  0.7623533E-028  0.2226360E+04  0.7818608E-02  0.8507536E-01
         -2   -1    0    0    0  501 -0.00000000000E+00  0.00000000000E+00  0.15847573483E+04  0.15847573483E+04  0.25500000000E-02 0. -1.
          2   -1    0    0  501    0  0.00000000000E+00 -0.00000000000E+00 -0.78193037484E+03  0.78193037485E+03  0.25500000000E-02 0.  1.
     200001    2    1    2    0    0  0.11291787443E+03  0.61796357892E+03  0.10283564408E+04  0.13994788668E+04  0.71161414964E+03 0.  0.
    5000001    2    3    3    0    0  0.96535753350E+02  0.26718735150E+03  0.38130037273E+03  0.50953848066E+03  0.18311541866E+03 0.  0.
        -13    1    4    4    0    0  0.81279527000E+02  0.22124198990E+03  0.16977245164E+03  0.29047732459E+03  0.10566000000E+00 0. -1.
     200003    1    4    4    0    0  0.15256226349E+02  0.45945361601E+02  0.21152792109E+03  0.21906115607E+03  0.30000000000E+02 0. -1.
     200000    1    3    3    0    0  0.16382121078E+02  0.35077622742E+03  0.64705606806E+03  0.88994038611E+03  0.50000000000E+03 0. -1.
    -200001    1    1    2    0    0 -0.11291787443E+03 -0.61796357892E+03 -0.22552946733E+03  0.96720885638E+03  0.70000000000E+03 0.  1.
<mgrwt>
<rscale>  0 0.22263602E+04</rscale>
<asrwt>0</asrwt>
<pdfrwt beam="1">  1        2 0.11170434E+00 0.22263602E+04</pdfrwt>
<pdfrwt beam="2">  1       -2 0.22639391E+00 0.22263602E+04</pdfrwt>
<totfact> 0.32284253E+00</totfact>
</mgrwt>
</event>
<event>
 8    1  0.7623533E-028  0.2805258E+04  0.7818608E-02  0.8301638E-01
         -2   -1    0    0    0  501 -0.00000000000E+00  0.00000000000E+00  0.54928498861E+03  0.54928498862E+03  0.25500000000E-02 0. -1.
          2   -1    0    0  501    0  0.00000000000E+00 -0.00000000000E+00 -0.35816891119E+04  0.35816891119E+04  0.25500000000E-02 0.  1.
     200001    2    1    2    0    0  0.10883483409E+03 -0.12105044152E+04 -0.15156024103E+04  0.20650957409E+04  0.70028836393E+03 0.  0.
    5000001    2    3    3    0    0 -0.25294769811E+01 -0.28017387882E+03 -0.43085274087E+03  0.54700524227E+03  0.18728814734E+03 0.  0.
        -13    1    4    4    0    0 -0.90150756493E+02 -0.10313744858E+03 -0.18534240617E+03  0.23046976133E+03  0.10566000000E+00 0. -1.
     200003    1    4    4    0    0  0.87621279512E+02 -0.17703643024E+03 -0.24551033470E+03  0.31653548095E+03  0.30000000000E+02 0. -1.
     200000    1    3    3    0    0  0.11136431107E+03 -0.93033053636E+03 -0.10847496695E+04  0.15180904986E+04  0.50000000000E+03 0. -1.
    -200001    1    1    2    0    0 -0.10883483409E+03  0.12105044152E+04 -0.15168017130E+04  0.20658783596E+04  0.70000000000E+03 0.  1.
<mgrwt>
<rscale>  0 0.28052580E+04</rscale>
<asrwt>0</asrwt>
<pdfrwt beam="1">  1        2 0.51166986E+00 0.28052580E+04</pdfrwt>
<pdfrwt beam="2">  1       -2 0.78469286E-01 0.28052580E+04</pdfrwt>
<totfact> 0.13511813E+00</totfact>
</mgrwt>
</event>
<event>
 8    1  0.7623533E-028  0.1451749E+04  0.7818608E-02  0.8917189E-01
         -2   -1    0    0    0  501 -0.00000000000E+00  0.00000000000E+00  0.63203506180E+03  0.63203506180E+03  0.25500000000E-02 0. -1.
          2   -1    0    0  501    0  0.00000000000E+00 -0.00000000000E+00 -0.83364683784E+03  0.83364683784E+03  0.25500000000E-02 0.  1.
     200001    2    1    2    0    0  0.18058902742E+03  0.36908198493E+02 -0.15480428168E+03  0.74030919994E+03  0.70008480483E+03 0.  0.
    5000001    2    3    3    0    0 -0.56891754454E+02  0.51764189427E+02  0.57071229315E+01  0.16378362962E+03  0.14448634208E+03 0.  0.
        -13    1    4    4    0    0 -0.94440016833E+02  0.43334228341E+02 -0.24018474648E+02  0.10664741166E+03  0.10566000000E+00 0. -1.
     200003    1    4    4    0    0  0.37548262379E+02  0.84299610865E+01  0.29725597579E+02  0.57136217962E+02  0.30000000000E+02 0. -1.
     200000    1    3    3    0    0  0.23748078187E+03 -0.14855990934E+02 -0.16051140461E+03  0.57652557032E+03  0.50000000000E+03 0. -1.
    -200001    1    1    2    0    0 -0.18058902742E+03 -0.36908198493E+02 -0.46807494363E+02  0.72537269970E+03  0.70000000000E+03 0. -1.
<mgrwt>
<rscale>  0 0.14517493E+04</rscale>
<asrwt>0</asrwt>
<pdfrwt beam="1">  1        2 0.11909240E+00 0.14517493E+04</pdfrwt>
<pdfrwt beam="2">  1       -2 0.90290723E-01 0.14517493E+04</pdfrwt>
<totfact> 0.36713481E+01</totfact>
</mgrwt>
</event>
<event>
 8    1  0.7623533E-028  0.1677428E+04  0.7818608E-02  0.8774344E-01
          2   -1    0    0  501    0  0.00000000000E+00  0.00000000000E+00  0.10764790698E+04  0.10764790698E+04  0.25500000000E-02 0.  1.
         -2   -1    0    0    0  501 -0.00000000000E+00 -0.00000000000E+00 -0.65346487432E+03  0.65346487432E+03  0.25500000000E-02 0. -1.
     200001    2    1    2    0    0  0.38542286822E+03 -0.11715102933E+03  0.44521609346E+03  0.92200330568E+03  0.69971249438E+03 0.  0.
    5000001    2    3    3    0    0  0.17955374988E+03 -0.31073714134E+02  0.10765574628E+03  0.27877831700E+03  0.18144548911E+03 0.  0.
        -13    1    4    4    0    0  0.66396871235E+02 -0.89048377550E+01  0.14010034280E+03  0.15529313527E+03  0.10566000000E+00 0. -1.
     200003    1    4    4    0    0  0.11315687864E+03 -0.22168876379E+02 -0.32444596520E+02  0.12348518173E+03  0.30000000000E+02 0. -1.
     200000    1    3    3    0    0  0.20586911834E+03 -0.86077315196E+02  0.33756034718E+03  0.64322498868E+03  0.50000000000E+03 0.  1.
    -200001    1    1    2    0    0 -0.38542286822E+03  0.11715102933E+03 -0.22201897945E+02  0.80794063847E+03  0.70000000000E+03 0. -1.
<mgrwt>
<rscale>  0 0.16774281E+04</rscale>
<asrwt>0</asrwt>
<pdfrwt beam="1">  1        2 0.15378272E+00 0.16774281E+04</pdfrwt>
<pdfrwt beam="2">  1       -2 0.93352125E-01 0.16774281E+04</pdfrwt>
<totfact> 0.23416622E+01</totfact>
</mgrwt>
</event>
<event>
 8    1  0.7623533E-028  0.2215468E+04  0.7818608E-02  0.8512018E-01
          2   -1    0    0  501    0  0.00000000000E+00  0.00000000000E+00  0.11022406935E+04  0.11022406935E+04  0.25500000000E-02 0.  1.
         -2   -1    0    0    0  501 -0.00000000000E+00 -0.00000000000E+00 -0.11132543709E+04  0.11132543709E+04  0.25500000000E-02 0. -1.
     200001    2    1    2    0    0 -0.58171940765E+03  0.52750204043E+03  0.35036751504E+03  0.11031766577E+04  0.69107558959E+03 0.  0.
    5000001    2    3    3    0    0 -0.25370409010E+03  0.26102544306E+03  0.11076867094E+03  0.40603145644E+03  0.14174553926E+03 0.  0.
        -13    1    4    4    0    0 -0.16781204888E+03  0.24322842565E+03  0.10325912604E+03  0.31302301684E+03  0.10566000000E+00 0. -1.
     200003    1    4    4    0    0 -0.85892041218E+02  0.17797017413E+02  0.75095449007E+01  0.93008439606E+02  0.30000000000E+02 0. -1.
     200000    1    3    3    0    0 -0.32801531755E+03  0.26647659736E+03  0.23959884410E+03  0.69714520122E+03  0.50000000000E+03 0.  1.
    -200001    1    1    2    0    0  0.58171940765E+03 -0.52750204043E+03 -0.36138119242E+03  0.11123184068E+04  0.70000000000E+03 0. -1.
<mgrwt>
<rscale>  0 0.22154677E+04</rscale>
<asrwt>0</asrwt>
<pdfrwt beam="1">  1        2 0.15746296E+00 0.22154677E+04</pdfrwt>
<pdfrwt beam="2">  1       -2 0.15903634E+00 0.22154677E+04</pdfrwt>
<totfact> 0.57203176E+00</totfact>
</mgrwt>
</event>
<event>
 8    1  0.7623533E-028  0.1584179E+04  0.7818608E-02  0.8830327E-01
         -2   -1    0    0    0  501 -0.00000000000E+00  0.00000000000E+00  0.41081399658E+03  0.41081399659E+03  0.25500000000E-02 0. -1.
          2   -1    0    0  501    0  0.00000000000E+00 -0.00000000000E+00 -0.15272251530E+04  0.15272251530E+04  0.25500000000E-02 0.  1.
     200001    2    1    2    0    0 -0.23565917603E+02 -0.82628534018E+02 -0.11746747922E+03  0.71522628684E+03  0.70026224059E+03 0.  0.
    5000001    2    3    3    0    0  0.28107980741E+02 -0.66221700497E+02 -0.66331503651E+02  0.20970253472E+03  0.18547213401E+03 0.  0.
        -13    1    4    4    0    0  0.39133553733E+02  0.50002285184E+00  0.55054665342E+02  0.67547852598E+02  0.10566000000E+00 0. -1.
     200003    1    4    4    0    0 -0.11025572993E+02 -0.66721723349E+02 -0.12138616899E+03  0.14215468212E+03  0.30000000000E+02 0. -1.
     200000    1    3    3    0    0 -0.51673898344E+02 -0.16406833521E+02 -0.51135975571E+02  0.50552375212E+03  0.50000000000E+03 0. -1.
    -200001    1    1    2    0    0  0.23565917603E+02  0.82628534018E+02 -0.99894367723E+03  0.12228128628E+04  0.70000000000E+03 0.  1.
<mgrwt>
<rscale>  0 0.15841786E+04</rscale>
<asrwt>0</asrwt>
<pdfrwt beam="1">  1        2 0.21817502E+00 0.15841786E+04</pdfrwt>
<pdfrwt beam="2">  1       -2 0.58687714E-01 0.15841786E+04</pdfrwt>
<totfact> 0.36906407E+01</totfact>
</mgrwt>
</event>
<event>
 8    1  0.7623533E-028  0.1681510E+04  0.7818608E-02  0.8771981E-01
          2   -1    0    0  501    0  0.00000000000E+00  0.00000000000E+00  0.44028383056E+03  0.44028383057E+03  0.25500000000E-02 0.  1.
         -2   -1    0    0    0  501 -0.00000000000E+00 -0.00000000000E+00 -0.16054843351E+04  0.16054843351E+04  0.25500000000E-02 0. -1.
     200001    2    1    2    0    0 -0.35101609104E+03  0.24827642788E+03 -0.80232402739E+03  0.11476964433E+04  0.69902060072E+03 0.  0.
    5000001    2    3    3    0    0 -0.44613513704E+02  0.19848204939E+02 -0.21677381200E+03  0.28808545734E+03  0.18335219748E+03 0.  0.
        -13    1    4    4    0    0 -0.12833899543E+02  0.49518962196E+02 -0.22834902577E+03  0.23400881464E+03  0.10566000000E+00 0. -1.
     200003    1    4    4    0    0 -0.31779614161E+02 -0.29670757257E+02  0.11575213771E+02  0.54076642706E+02  0.30000000000E+02 0. -1.
     200000    1    3    3    0    0 -0.30640257733E+03  0.22842822294E+03 -0.58555021540E+03  0.85961098596E+03  0.50000000000E+03 0.  1.
    -200001    1    1    2    0    0  0.35101609104E+03 -0.24827642788E+03 -0.36287647711E+03  0.89807172233E+03  0.70000000000E+03 0.  1.
<mgrwt>
<rscale>  0 0.16815098E+04</rscale>
<asrwt>0</asrwt>
<pdfrwt beam="1">  1        2 0.62897691E-01 0.16815098E+04</pdfrwt>
<pdfrwt beam="2">  1       -2 0.22935490E+00 0.16815098E+04</pdfrwt>
<totfact> 0.63958450E+00</totfact>
</mgrwt>
</event>
<event>
 8    1  0.7623533E-028  0.1451631E+04  0.7818608E-02  0.8917270E-01
          2   -1    0    0  501    0  0.00000000000E+00  0.00000000000E+00  0.22576638579E+04  0.22576638579E+04  0.25500000000E-02 0.  1.
         -2   -1    0    0    0  501 -0.00000000000E+00 -0.00000000000E+00 -0.23334218616E+03  0.23334218617E+03  0.25500000000E-02 0. -1.
     200001    2    1    2    0    0  0.13570561914E+03 -0.64132123658E+02  0.80788846379E+03  0.10795391852E+04  0.70013722802E+03 0.  0.
    5000001    2    3    3    0    0  0.71232036834E+02 -0.19394451843E+02  0.22018325286E+03  0.30393895500E+03  0.19608180868E+03 0.  0.
        -13    1    4    4    0    0  0.19922524235E+02 -0.10278191888E+03  0.88242756753E+02  0.13692269755E+03  0.10566000000E+00 0. -1.
     200003    1    4    4    0    0  0.51309512599E+02  0.83387467035E+02  0.13194049611E+03  0.16701625745E+03  0.30000000000E+02 0. -1.
     200000    1    3    3    0    0  0.64473582304E+02 -0.44737671814E+02  0.58770521093E+03  0.77560023018E+03  0.50000000000E+03 0. -1.
    -200001    1    1    2    0    0 -0.13570561914E+03  0.64132123658E+02  0.12164332080E+04  0.14114668589E+04  0.70000000000E+03 0.  1.
<mgrwt>
<rscale>  0 0.14516311E+04</rscale>
<asrwt>0</asrwt>
<pdfrwt beam="1">  1        2 0.32252339E+00 0.14516311E+04</pdfrwt>
<pdfrwt beam="2">  1       -2 0.33334599E-01 0.14516311E+04</pdfrwt>
<totfact> 0.48222670E+01</totfact>
</mgrwt>
</event>
<event>
 8    1  0.7623533E-028  0.2287316E+04  0.7818608E-02  0.8482939E-01
         -2   -1    0    0    0  501 -0.00000000000E+00  0.00000000000E+00  0.12054701269E+04  0.12054701269E+04  0.25500000000E-02 0. -1.
          2   -1    0    0  501    0  0.00000000000E+00 -0.00000000000E+00 -0.10850150169E+04  0.10850150169E+04  0.25500000000E-02 0.  1.
     200001    2    1    2    0    0  0.27013190752E+03  0.27891556162E+03  0.87703476141E+03  0.11890415879E+04  0.70275514013E+03 0.  0.
    5000001    2    3    3    0    0  0.76523227074E+02  0.40354160809E+02  0.14481134987E+03  0.25066693587E+03  0.18541662037E+03 0.  0.
        -13    1    4    4    0    0  0.12437991495E+03  0.67407177590E+02  0.10838112028E+03  0.17821495232E+03  0.10566000000E+00 0. -1.
     200003    1    4    4    0    0 -0.47856687880E+02 -0.27053016781E+02  0.36430229591E+02  0.72451983547E+02  0.30000000000E+02 0. -1.
     200000    1    3    3    0    0  0.19360868045E+03  0.23856140081E+03  0.73222341155E+03  0.93837465200E+03  0.50000000000E+03 0. -1.
    -200001    1    1    2    0    0 -0.27013190752E+03 -0.27891556162E+03 -0.75657965146E+03  0.11014435560E+04  0.70000000000E+03 0.  1.
<mgrwt>
<rscale>  0 0.22873156E+04</rscale>
<asrwt>0</asrwt>
<pdfrwt beam="1">  1        2 0.15500215E+00 0.22873156E+04</pdfrwt>
<pdfrwt beam="2">  1       -2 0.17221002E+00 0.22873156E+04</pdfrwt>
<totfact> 0.46750394E+00</totfact>
</mgrwt>
</event>
<event>
 8    1  0.7623533E-028  0.1672453E+04  0.7818608E-02  0.8777233E-01
         -2   -1    0    0    0  501 -0.00000000000E+00  0.00000000000E+00  0.26581231058E+03  0.26581231060E+03  0.25500000000E-02 0. -1.
          2   -1    0    0  501    0  0.00000000000E+00 -0.00000000000E+00 -0.26307079030E+04  0.26307079030E+04  0.25500000000E-02 0.  1.
     200001    2    1    2    0    0 -0.22259935308E+03 -0.32421933283E+03 -0.15909103978E+04  0.17812974873E+04  0.69810901488E+03 0.  0.
    5000001    2    3    3    0    0 -0.13341311842E+03 -0.23014267560E+02 -0.21543535732E+03  0.28443067199E+03  0.12712079809E+03 0.  0.
        -13    1    4    4    0    0 -0.79947891886E+01  0.13225040223E+02  0.12615602809E+02  0.19949509802E+02  0.10566000000E+00 0. -1.
     200003    1    4    4    0    0 -0.12541832923E+03 -0.36239307783E+02 -0.22805096013E+03  0.26448116218E+03  0.30000000000E+02 0. -1.
     200000    1    3    3    0    0 -0.89186234662E+02 -0.30120506527E+03 -0.13754750405E+04  0.14968668153E+04  0.50000000000E+03 0. -1.
    -200001    1    1    2    0    0  0.22259935308E+03  0.32421933283E+03 -0.77398519463E+03  0.11152227263E+04  0.70000000000E+03 0.  1.
<mgrwt>
<rscale>  0 0.16724527E+04</rscale>
<asrwt>0</asrwt>
<pdfrwt beam="1">  1        2 0.37581540E+00 0.16724527E+04</pdfrwt>
<pdfrwt beam="2">  1       -2 0.37973189E-01 0.16724527E+04</pdfrwt>
<totfact> 0.23529595E+01</totfact>
</mgrwt>
</event>
<event>
 8    1  0.7623533E-028  0.3333156E+04  0.7818608E-02  0.8154510E-01
          2   -1    0    0  501    0  0.00000000000E+00  0.00000000000E+00  0.38584894264E+04  0.38584894264E+04  0.25500000000E-02 0.  1.
         -2   -1    0    0    0  501 -0.00000000000E+00 -0.00000000000E+00 -0.71983682553E+03  0.71983682553E+03  0.25500000000E-02 0. -1.
     200001    2    1    2    0    0 -0.97093569432E+02  0.42738884406E+03 -0.41896299851E+03  0.92610540179E+03  0.70003773887E+03 0.  0.
    5000001    2    3    3    0    0 -0.11516829602E+02  0.16728002598E+03 -0.84083772731E+02  0.26495181033E+03  0.18712064692E+03 0.  0.
        -13    1    4    4    0    0 -0.69496301405E+02 -0.90896598945E+00 -0.11324548307E+02  0.70418880185E+02  0.10566000000E+00 0. -1.
     200003    1    4    4    0    0  0.57979471803E+02  0.16818899197E+03 -0.72759224425E+02  0.19453293014E+03  0.30000000000E+02 0. -1.
     200000    1    3    3    0    0 -0.85576739830E+02  0.26010881808E+03 -0.33487922578E+03  0.66115359146E+03  0.50000000000E+03 0. -1.
    -200001    1    1    2    0    0  0.97093569432E+02 -0.42738884406E+03  0.35576155994E+04  0.36522208501E+04  0.70000000000E+03 0.  1.
<mgrwt>
<rscale>  0 0.33331563E+04</rscale>
<asrwt>0</asrwt>
<pdfrwt beam="1">  1        2 0.55121277E+00 0.33331563E+04</pdfrwt>
<pdfrwt beam="2">  1       -2 0.10283383E+00 0.33331563E+04</pdfrwt>
<totfact> 0.45980472E-01</totfact>
</mgrwt>
</event>
<event>
 8    1  0.7623533E-028  0.1498955E+04  0.7818608E-02  0.8885148E-01
          2   -1    0    0  501    0  0.00000000000E+00  0.00000000000E+00  0.15470886680E+04  0.15470886680E+04  0.25500000000E-02 0.  1.
         -2   -1    0    0    0  501 -0.00000000000E+00 -0.00000000000E+00 -0.36307991921E+03  0.36307991922E+03  0.25500000000E-02 0. -1.
     200001    2    1    2    0    0 -0.17855095245E+03 -0.13820448529E+03  0.40744144625E+03  0.84057160811E+03  0.69969362857E+03 0.  0.
    5000001    2    3    3    0    0  0.26200689951E+02 -0.13303205772E+03  0.16657409236E+03  0.24899146034E+03  0.12595957503E+03 0.  0.
        -13    1    4    4    0    0  0.62456837636E+02 -0.11964271895E+03  0.10935001766E+03  0.17370283328E+03  0.10566000000E+00 0. -1.
     200003    1    4    4    0    0 -0.36256147685E+02 -0.13389338763E+02  0.57224074705E+02  0.75288627052E+02  0.30000000000E+02 0. -1.
     200000    1    3    3    0    0 -0.20475164240E+03 -0.51724275741E+01  0.24086735389E+03  0.59158014778E+03  0.50000000000E+03 0. -1.
    -200001    1    1    2    0    0  0.17855095245E+03  0.13820448529E+03  0.77656730256E+03  0.10695969791E+04  0.70000000000E+03 0. -1.
<mgrwt>
<rscale>  0 0.14989554E+04</rscale>
<asrwt>0</asrwt>
<pdfrwt beam="1">  1        2 0.22101267E+00 0.14989554E+04</pdfrwt>
<pdfrwt beam="2">  1       -2 0.51868559E-01 0.14989554E+04</pdfrwt>
<totfact> 0.46864806E+01</totfact>
</mgrwt>
</event>
<event>
 8    1  0.7623533E-028  0.1784408E+04  0.7818608E-02  0.8714635E-01
         -2   -1    0    0    0  501 -0.00000000000E+00  0.00000000000E+00  0.38638786705E+03  0.38638786706E+03  0.25500000000E-02 0. -1.
          2   -1    0    0  501    0  0.00000000000E+00 -0.00000000000E+00 -0.20601795206E+04  0.20601795206E+04  0.25500000000E-02 0.  1.
     200001    2    1    2    0    0  0.18653119244E+03 -0.50442249207E+03 -0.66103038844E+03  0.11030937867E+04  0.70044185459E+03 0.  0.
    5000001    2    3    3    0    0  0.12300114222E+03 -0.14920165967E+03 -0.17336760288E+03  0.31694310178E+03  0.18167605182E+03 0.  0.
        -13    1    4    4    0    0  0.11062640720E+03 -0.18534873439E+03 -0.13106232177E+03  0.25252662961E+03  0.10566000000E+00 0. -1.
     200003    1    4    4    0    0  0.12374735018E+02  0.36147074721E+02 -0.42305281114E+02  0.64416472177E+02  0.30000000000E+02 0. -1.
     200000    1    3    3    0    0  0.63530050226E+02 -0.35522083240E+03 -0.48766278556E+03  0.78615068496E+03  0.50000000000E+03 0. -1.
    -200001    1    1    2    0    0 -0.18653119244E+03  0.50442249207E+03 -0.10127612651E+04  0.13434736009E+04  0.70000000000E+03 0.  1.
<mgrwt>
<rscale>  0 0.17844084E+04</rscale>
<asrwt>0</asrwt>
<pdfrwt beam="1">  1        2 0.29431135E+00 0.17844084E+04</pdfrwt>
<pdfrwt beam="2">  1       -2 0.55198268E-01 0.17844084E+04</pdfrwt>
<totfact> 0.21845902E+01</totfact>
</mgrwt>
</event>
<event>
 8    1  0.7623533E-028  0.2416792E+04  0.7818608E-02  0.8433243E-01
          2   -1    0    0  501    0  0.00000000000E+00  0.00000000000E+00  0.10604174804E+04  0.10604174804E+04  0.25500000000E-02 0.  1.
         -2   -1    0    0    0  501 -0.00000000000E+00 -0.00000000000E+00 -0.13770248886E+04  0.13770248886E+04  0.25500000000E-02 0. -1.
     200001    2    1    2    0    0 -0.86120554728E+03  0.23889978966E+03 -0.57549740400E+03  0.12730660835E+04  0.70053685614E+03 0.  0.
    5000001    2    3    3    0    0 -0.30678483596E+03  0.90529458319E+02 -0.10655677717E+03  0.37902951164E+03  0.17319499280E+03 0.  0.
        -13    1    4    4    0    0 -0.72101653069E+02  0.97748910568E+02 -0.53044129916E+01  0.12157979213E+03  0.10566000000E+00 0. -1.
     200003    1    4    4    0    0 -0.23468318289E+03 -0.72194522487E+01 -0.10125236418E+03  0.25744971951E+03  0.30000000000E+02 0. -1.
     200000    1    3    3    0    0 -0.55442071131E+03  0.14837033134E+03 -0.46894062683E+03  0.89403657187E+03  0.50000000000E+03 0. -1.
    -200001    1    1    2    0    0  0.86120554728E+03 -0.23889978966E+03  0.25888999579E+03  0.11643762854E+04  0.70000000000E+03 0.  1.
<mgrwt>
<rscale>  0 0.24167923E+04</rscale>
<asrwt>0</asrwt>
<pdfrwt beam="1">  1        2 0.15148821E+00 0.24167923E+04</pdfrwt>
<pdfrwt beam="2">  1       -2 0.19671784E+00 0.24167923E+04</pdfrwt>
<totfact> 0.32551107E+00</totfact>
</mgrwt>
</event>
<event>
 8    1  0.7623533E-028  0.1463996E+04  0.7818608E-02  0.8908754E-01
         -2   -1    0    0    0  501 -0.00000000000E+00  0.00000000000E+00  0.91473551233E+03  0.91473551234E+03  0.25500000000E-02 0. -1.
          2   -1    0    0  501    0  0.00000000000E+00 -0.00000000000E+00 -0.58576649060E+03  0.58576649061E+03  0.25500000000E-02 0.  1.
     200001    2    1    2    0    0  0.12767941074E+03 -0.81370579387E+02  0.79811874901E+01  0.71567310895E+03  0.69942912179E+03 0.  0.
    5000001    2    3    3    0    0  0.40235092541E+02  0.10140862320E+02 -0.72930726596E+02  0.19359304748E+03  0.17446397161E+03 0.  0.
        -13    1    4    4    0    0  0.26508006306E+02 -0.50908625529E+02 -0.10304107077E+03  0.11794844629E+03  0.10566000000E+00 0. -1.
     200003    1    4    4    0    0  0.13727086235E+02  0.61049487849E+02  0.30110344176E+02  0.75644601192E+02  0.30000000000E+02 0. -1.
     200000    1    3    3    0    0  0.87444318200E+02 -0.91511441707E+02  0.80911914086E+02  0.52208006148E+03  0.50000000000E+03 0. -1.
    -200001    1    1    2    0    0 -0.12767941074E+03  0.81370579387E+02  0.32098783424E+03  0.78482889399E+03  0.70000000000E+03 0. -1.
<mgrwt>
<rscale>  0 0.14639965E+04</rscale>
<asrwt>0</asrwt>
<pdfrwt beam="1">  1        2 0.83680928E-01 0.14639965E+04</pdfrwt>
<pdfrwt beam="2">  1       -2 0.13067650E+00 0.14639965E+04</pdfrwt>
<totfact> 0.23218106E+01</totfact>
</mgrwt>
</event>
<event>
 8    1  0.7623533E-028  0.1425803E+04  0.7818608E-02  0.8935350E-01
         -2   -1    0    0    0  501 -0.00000000000E+00  0.00000000000E+00  0.73637412845E+03  0.73637412846E+03  0.25500000000E-02 0. -1.
          2   -1    0    0  501    0  0.00000000000E+00 -0.00000000000E+00 -0.69017728904E+03  0.69017728905E+03  0.25500000000E-02 0.  1.
     200001    2    1    2    0    0 -0.11691743968E+03 -0.63802576954E+02  0.42671569324E+02  0.71398360736E+03  0.70015089247E+03 0.  0.
    5000001    2    3    3    0    0 -0.59034176389E+02 -0.11798903963E+03  0.24411669483E+02  0.20740679300E+03  0.15816194461E+03 0.  0.
        -13    1    4    4    0    0 -0.21530950173E+01 -0.10595340115E+03  0.70584722780E+02  0.12733017430E+03  0.10566000000E+00 0. -1.
     200003    1    4    4    0    0 -0.56881081372E+02 -0.12035638476E+02 -0.46173053296E+02  0.80076618699E+02  0.30000000000E+02 0. -1.
     200000    1    3    3    0    0 -0.57883263287E+02  0.54186462673E+02  0.18259899840E+02  0.50657681436E+03  0.50000000000E+03 0. -1.
    -200001    1    1    2    0    0  0.11691743968E+03  0.63802576954E+02  0.35252700868E+01  0.71256781015E+03  0.70000000000E+03 0.  1.
<mgrwt>
<rscale>  0 0.14258032E+04</rscale>
<asrwt>0</asrwt>
<pdfrwt beam="1">  1        2 0.98596755E-01 0.14258032E+04</pdfrwt>
<pdfrwt beam="2">  1       -2 0.10519630E+00 0.14258032E+04</pdfrwt>
<totfact> 0.32623309E+01</totfact>
</mgrwt>
</event>
<event>
 8    1  0.7623533E-028  0.1567049E+04  0.7818608E-02  0.8841051E-01
          2   -1    0    0  501    0  0.00000000000E+00  0.00000000000E+00  0.61263057039E+03  0.61263057040E+03  0.25500000000E-02 0.  1.
         -2   -1    0    0    0  501 -0.00000000000E+00 -0.00000000000E+00 -0.10020896649E+04  0.10020896649E+04  0.25500000000E-02 0. -1.
     200001    2    1    2    0    0  0.80732745109E+02 -0.11371099076E+02  0.15694075913E+03  0.72298043127E+03  0.70101585153E+03 0.  0.
    5000001    2    3    3    0    0  0.77800240906E+02  0.34957028438E+02  0.95947171834E+02  0.21713943582E+03  0.17512510809E+03 0.  0.
        -13    1    4    4    0    0 -0.30583326654E+02 -0.40055439844E+02  0.57787448764E+02  0.76675801456E+02  0.10566000000E+00 0. -1.
     200003    1    4    4    0    0  0.10838356756E+03  0.75012468282E+02  0.38159723069E+02  0.14046363437E+03  0.30000000000E+02 0. -1.
     200000    1    3    3    0    0  0.29325042026E+01 -0.46328127515E+02  0.60993587297E+02  0.50584099544E+03  0.50000000000E+03 0.  1.
    -200001    1    1    2    0    0 -0.80732745109E+02  0.11371099076E+02 -0.54639985363E+03  0.89173980402E+03  0.70000000000E+03 0. -1.
<mgrwt>
<rscale>  0 0.15670492E+04</rscale>
<asrwt>0</asrwt>
<pdfrwt beam="1">  1        2 0.87518653E-01 0.15670492E+04</pdfrwt>
<pdfrwt beam="2">  1       -2 0.14315567E+00 0.15670492E+04</pdfrwt>
<totfact> 0.17272232E+01</totfact>
</mgrwt>
</event>
<event>
 8    1  0.7623533E-028  0.1451297E+04  0.7818608E-02  0.8917502E-01
         -2   -1    0    0    0  501 -0.00000000000E+00  0.00000000000E+00  0.20808672138E+03  0.20808672139E+03  0.25500000000E-02 0. -1.
          2   -1    0    0  501    0  0.00000000000E+00 -0.00000000000E+00 -0.25305119522E+04  0.25305119522E+04  0.25500000000E-02 0.  1.
     200001    2    1    2    0    0 -0.17626860086E+03  0.71741985726E+02 -0.11443023802E+04  0.13550557638E+04  0.70037893559E+03 0.  0.
    5000001    2    3    3    0    0 -0.11611494181E+02  0.26014094655E+02 -0.27768242607E+03  0.34005175013E+03  0.19420634155E+03 0.  0.
        -13    1    4    4    0    0  0.63743143780E+02  0.25021992872E+02 -0.22176595307E+02  0.71979865585E+02  0.10566000000E+00 0. -1.
     200003    1    4    4    0    0 -0.75354637962E+02  0.99210178290E+00 -0.25550583076E+03  0.26807188454E+03  0.30000000000E+02 0. -1.
     200000    1    3    3    0    0 -0.16465710667E+03  0.45727891071E+02 -0.86661995414E+03  0.10150040136E+04  0.50000000000E+03 0. -1.
    -200001    1    1    2    0    0  0.17626860086E+03 -0.71741985726E+02 -0.11781228506E+04  0.13835429098E+04  0.70000000000E+03 0. -1.
<mgrwt>
<rscale>  0 0.14512973E+04</rscale>
<asrwt>0</asrwt>
<pdfrwt beam="1">  1        2 0.36150169E+00 0.14512973E+04</pdfrwt>
<pdfrwt beam="2">  1       -2 0.29726676E-01 0.14512973E+04</pdfrwt>
<totfact> 0.43101430E+01</totfact>
</mgrwt>
</event>
<event>
 8    1  0.7623533E-028  0.1846090E+04  0.7818608E-02  0.8682166E-01
         -2   -1    0    0    0  501 -0.00000000000E+00  0.00000000000E+00  0.56078549788E+03  0.56078549788E+03  0.25500000000E-02 0. -1.
          2   -1    0    0  501    0  0.00000000000E+00 -0.00000000000E+00 -0.15193192221E+04  0.15193192221E+04  0.25500000000E-02 0.  1.
     200001    2    1    2    0    0  0.28128689013E+03  0.38380525937E+03 -0.63068500572E+02  0.84791692649E+03  0.69896830170E+03 0.  0.
    5000001    2    3    3    0    0  0.10941555698E+03  0.18609590939E+03 -0.39533438968E+02  0.28295441327E+03  0.17859690811E+03 0.  0.
        -13    1    4    4    0    0 -0.18445747130E+02  0.56288873897E+02  0.50203409685E+02  0.77647127569E+02  0.10566000000E+00 0. -1.
     200003    1    4    4    0    0  0.12786130411E+03  0.12980703550E+03 -0.89736848653E+02  0.20530728570E+03  0.30000000000E+02 0. -1.
     200000    1    3    3    0    0  0.17187133315E+03  0.19770934998E+03 -0.23535061604E+02  0.56496251323E+03  0.50000000000E+03 0. -1.
    -200001    1    1    2    0    0 -0.28128689013E+03 -0.38380525937E+03 -0.89546522369E+03  0.12321877935E+04  0.70000000000E+03 0.  1.
<mgrwt>
<rscale>  0 0.18460901E+04</rscale>
<asrwt>0</asrwt>
<pdfrwt beam="1">  1        2 0.21704560E+00 0.18460901E+04</pdfrwt>
<pdfrwt beam="2">  1       -2 0.80112215E-01 0.18460901E+04</pdfrwt>
<totfact> 0.18564653E+01</totfact>
</mgrwt>
</event>
<event>
 8    1  0.7623533E-028  0.1885454E+04  0.7818608E-02  0.8662131E-01
         -2   -1    0    0    0  501 -0.00000000000E+00  0.00000000000E+00  0.46324305493E+03  0.46324305494E+03  0.25500000000E-02 0. -1.
          2   -1    0    0  501    0  0.00000000000E+00 -0.00000000000E+00 -0.19185056729E+04  0.19185056729E+04  0.25500000000E-02 0.  1.
     200001    2    1    2    0    0  0.42228350382E+03  0.20937089366E+03 -0.19753351671E+03  0.86713920032E+03  0.70053648998E+03 0.  0.
    5000001    2    3    3    0    0  0.42788502351E+02 -0.10438095199E+01 -0.12068936646E+03  0.20065902291E+03  0.15448681117E+03 0.  0.
        -13    1    4    4    0    0 -0.27073424458E+02 -0.36791700345E+02 -0.10592683623E+03  0.11535642732E+03  0.10566000000E+00 0. -1.
     200003    1    4    4    0    0  0.69861926810E+02  0.35747890825E+02 -0.14762530238E+02  0.85302595594E+02  0.30000000000E+02 0. -1.
     200000    1    3    3    0    0  0.37949500147E+03  0.21041470318E+03 -0.76844150249E+02  0.66648017741E+03  0.50000000000E+03 0. -1.
    -200001    1    1    2    0    0 -0.42228350382E+03 -0.20937089366E+03 -0.12577291012E+04  0.15146095275E+04  0.70000000000E+03 0.  1.
<mgrwt>
<rscale>  0 0.18854542E+04</rscale>
<asrwt>0</asrwt>
<pdfrwt beam="1">  1        2 0.27407223E+00 0.18854542E+04</pdfrwt>
<pdfrwt beam="2">  1       -2 0.66177580E-01 0.18854542E+04</pdfrwt>
<totfact> 0.17461018E+01</totfact>
</mgrwt>
</event>
<event>
 8    1  0.7623533E-028  0.1821187E+04  0.7818608E-02  0.8695113E-01
         -2   -1    0    0    0  501 -0.00000000000E+00  0.00000000000E+00  0.27959392752E+03  0.27959392753E+03  0.25500000000E-02 0. -1.
          2   -1    0    0  501    0  0.00000000000E+00 -0.00000000000E+00 -0.29656602412E+04  0.29656602412E+04  0.25500000000E-02 0.  1.
     200001    2    1    2    0    0  0.17811169726E+03 -0.51308302180E+03 -0.17200292577E+04  0.19344507672E+04  0.69901442000E+03 0.  0.
    5000001    2    3    3    0    0  0.14577344508E+03 -0.18495447688E+03 -0.64552457257E+03  0.70429857217E+03  0.15452006069E+03 0.  0.
        -13    1    4    4    0    0  0.19433839409E+01  0.15592192497E+02 -0.14073913131E+03  0.14161358499E+03  0.10566000000E+00 0. -1.
     200003    1    4    4    0    0  0.14383006114E+03 -0.20054666938E+03 -0.50478544126E+03  0.56268498718E+03  0.30000000000E+02 0. -1.
     200000    1    3    3    0    0  0.32338252174E+02 -0.32812854492E+03 -0.10745046851E+04  0.12301521950E+04  0.50000000000E+03 0. -1.
    -200001    1    1    2    0    0 -0.17811169726E+03  0.51308302180E+03 -0.96603705594E+03  0.13108034015E+04  0.70000000000E+03 0. -1.
<mgrwt>
<rscale>  0 0.18211871E+04</rscale>
<asrwt>0</asrwt>
<pdfrwt beam="1">  1        2 0.42366573E+00 0.18211871E+04</pdfrwt>
<pdfrwt beam="2">  1       -2 0.39941991E-01 0.18211871E+04</pdfrwt>
<totfact> 0.13845851E+01</totfact>
</mgrwt>
</event>
<event>
 8    1  0.7623533E-028  0.1762980E+04  0.7818608E-02  0.8726238E-01
         -2   -1    0    0    0  501 -0.00000000000E+00  0.00000000000E+00  0.62397938850E+03  0.62397938850E+03  0.25500000000E-02 0. -1.
          2   -1    0    0  501    0  0.00000000000E+00 -0.00000000000E+00 -0.12452724240E+04  0.12452724240E+04  0.25500000000E-02 0.  1.
     200001    2    1    2    0    0 -0.28575425632E+03  0.13196167136E+03  0.15120344764E+03  0.78029809714E+03  0.69780603330E+03 0.  0.
    5000001    2    3    3    0    0 -0.17125976930E+03  0.42449827430E+02  0.69449976510E+02  0.25322600738E+03  0.16783389154E+03 0.  0.
        -13    1    4    4    0    0 -0.12823433708E+03 -0.46420837329E+02  0.61861637060E+02  0.14975250465E+03  0.10566000000E+00 0. -1.
     200003    1    4    4    0    0 -0.43025432218E+02  0.88870664759E+02  0.75883394502E+01  0.10347350273E+03  0.30000000000E+02 0. -1.
     200000    1    3    3    0    0 -0.11449448703E+03  0.89511843929E+02  0.81753471131E+02  0.52707208976E+03  0.50000000000E+03 0. -1.
    -200001    1    1    2    0    0  0.28575425632E+03 -0.13196167136E+03 -0.77249648312E+03  0.10889537153E+04  0.70000000000E+03 0.  1.
<mgrwt>
<rscale>  0 0.17629797E+04</rscale>
<asrwt>0</asrwt>
<pdfrwt beam="1">  1        2 0.17789606E+00 0.17629797E+04</pdfrwt>
<pdfrwt beam="2">  1       -2 0.89139914E-01 0.17629797E+04</pdfrwt>
<totfact> 0.20672386E+01</totfact>
</mgrwt>
</event>
<event>
 8    1  0.7623533E-028  0.1571333E+04  0.7818608E-02  0.8838355E-01
          2   -1    0    0  501    0  0.00000000000E+00  0.00000000000E+00  0.70457535977E+03  0.70457535977E+03  0.25500000000E-02 0.  1.
         -2   -1    0    0    0  501 -0.00000000000E+00 -0.00000000000E+00 -0.87609058790E+03  0.87609058790E+03  0.25500000000E-02 0. -1.
     200001    2    1    2    0    0  0.32923796651E+03 -0.13146866173E+03 -0.43302080448E+02  0.78560603871E+03  0.69972861187E+03 0.  0.
    5000001    2    3    3    0    0  0.14382938102E+03 -0.10082853020E+03  0.80699003483E+02  0.23725265807E+03  0.13756166346E+03 0.  0.
        -13    1    4    4    0    0  0.77316925981E+02 -0.89027830620E+02 -0.12192029754E+02  0.11854331876E+03  0.10566000000E+00 0. -1.
     200003    1    4    4    0    0  0.66512455034E+02 -0.11800699583E+02  0.92891033237E+02  0.11870933932E+03  0.30000000000E+02 0. -1.
     200000    1    3    3    0    0  0.18540858549E+03 -0.30640131529E+02 -0.12400108393E+03  0.54835338063E+03  0.50000000000E+03 0. -1.
    -200001    1    1    2    0    0 -0.32923796651E+03  0.13146866173E+03 -0.12821314768E+03  0.79505990897E+03  0.70000000000E+03 0.  1.
<mgrwt>
<rscale>  0 0.15713330E+04</rscale>
<asrwt>0</asrwt>
<pdfrwt beam="1">  1        2 0.10065362E+00 0.15713330E+04</pdfrwt>
<pdfrwt beam="2">  1       -2 0.12515580E+00 0.15713330E+04</pdfrwt>
<totfact> 0.20551610E+01</totfact>
</mgrwt>
</event>
<event>
 8    1  0.7623533E-028  0.1701995E+04  0.7818608E-02  0.8760228E-01
          2   -1    0    0  501    0  0.00000000000E+00  0.00000000000E+00  0.11332980857E+04  0.11332980857E+04  0.25500000000E-02 0.  1.
         -2   -1    0    0    0  501 -0.00000000000E+00 -0.00000000000E+00 -0.63901678853E+03  0.63901678854E+03  0.25500000000E-02 0. -1.
     200001    2    1    2    0    0  0.21232052361E+02  0.29633917851E+03 -0.15115398292E+03  0.77489098765E+03  0.69952898969E+03 0.  0.
    5000001    2    3    3    0    0  0.33939997361E+02 -0.12268998133E+02  0.24908422474E+02  0.16137776925E+03  0.15530583750E+03 0.  0.
        -13    1    4    4    0    0 -0.44282894834E+01  0.42599787443E+02  0.64946263373E+02  0.77797043184E+02  0.10566000000E+00 0. -1.
     200003    1    4    4    0    0  0.38368286845E+02 -0.54868785576E+02 -0.40037840899E+02  0.83580726067E+02  0.30000000000E+02 0. -1.
     200000    1    3    3    0    0 -0.12707945000E+02  0.30860817665E+03 -0.17606240539E+03  0.61351321840E+03  0.50000000000E+03 0. -1.
    -200001    1    1    2    0    0 -0.21232052361E+02 -0.29633917851E+03  0.64543528009E+03  0.99742388660E+03  0.70000000000E+03 0. -1.
<mgrwt>
<rscale>  0 0.17019947E+04</rscale>
<asrwt>0</asrwt>
<pdfrwt beam="1">  1        2 0.16189973E+00 0.17019947E+04</pdfrwt>
<pdfrwt beam="2">  1       -2 0.91288113E-01 0.17019947E+04</pdfrwt>
<totfact> 0.22787671E+01</totfact>
</mgrwt>
</event>
<event>
 8    1  0.7623533E-028  0.1811439E+04  0.7818608E-02  0.8700240E-01
         -2   -1    0    0    0  501 -0.00000000000E+00  0.00000000000E+00  0.44015698909E+03  0.44015698910E+03  0.25500000000E-02 0. -1.
          2   -1    0    0  501    0  0.00000000000E+00 -0.00000000000E+00 -0.18637159614E+04  0.18637159614E+04  0.25500000000E-02 0.  1.
     200001    2    1    2    0    0  0.31874709580E+03  0.40680495886E+03 -0.10327699152E+04  0.13500354000E+04  0.69920805042E+03 0.  0.
    5000001    2    3    3    0    0 -0.72660319357E+02  0.73770907268E+02 -0.15126481024E+03  0.21374199849E+03  0.10992238322E+03 0.  0.
        -13    1    4    4    0    0 -0.82764161234E+02  0.55977324323E+02 -0.62545319520E+02  0.11787830751E+03  0.10566000000E+00 0. -1.
     200003    1    4    4    0    0  0.10103841877E+02  0.17793582945E+02 -0.88719490723E+02  0.95863690982E+02  0.30000000000E+02 0. -1.
     200000    1    3    3    0    0  0.39140741516E+03  0.33303405160E+03 -0.88150510495E+03  0.11362934015E+04  0.50000000000E+03 0. -1.
    -200001    1    1    2    0    0 -0.31874709580E+03 -0.40680495886E+03 -0.39078905711E+03  0.95383755053E+03  0.70000000000E+03 0. -1.
<mgrwt>
<rscale>  0 0.18114388E+04</rscale>
<asrwt>0</asrwt>
<pdfrwt beam="1">  1        2 0.26624513E+00 0.18114388E+04</pdfrwt>
<pdfrwt beam="2">  1       -2 0.62879571E-01 0.18114388E+04</pdfrwt>
<totfact> 0.20916591E+01</totfact>
</mgrwt>
</event>
<event>
 8    1  0.7623533E-028  0.1477338E+04  0.7818608E-02  0.8899664E-01
          2   -1    0    0  501    0  0.00000000000E+00  0.00000000000E+00  0.40179203227E+03  0.40179203228E+03  0.25500000000E-02 0.  1.
         -2   -1    0    0    0  501 -0.00000000000E+00 -0.00000000000E+00 -0.13579964192E+04  0.13579964192E+04  0.25500000000E-02 0. -1.
     200001    2    1    2    0    0  0.55422983146E+02  0.22448348719E+03 -0.38798929066E+03  0.82901837317E+03  0.69517712154E+03 0.  0.
    5000001    2    3    3    0    0  0.44716629092E+02  0.21017666934E+02 -0.67650318265E+02  0.20122061652E+03  0.18295314075E+03 0.  0.
        -13    1    4    4    0    0  0.85727296620E+02  0.28018672011E+02  0.26502193773E+02  0.94003153170E+02  0.10566000000E+00 0. -1.
     200003    1    4    4    0    0 -0.41010667528E+02 -0.70010050765E+01 -0.94152512038E+02  0.10721746335E+03  0.30000000000E+02 0. -1.
     200000    1    3    3    0    0  0.10706354054E+02  0.20346582025E+03 -0.32033897240E+03  0.62779775666E+03  0.50000000000E+03 0.  1.
    -200001    1    1    2    0    0 -0.55422983146E+02 -0.22448348719E+03 -0.56821509631E+03  0.93077007835E+03  0.70000000000E+03 0. -1.
<mgrwt>
<rscale>  0 0.14773383E+04</rscale>
<asrwt>0</asrwt>
<pdfrwt beam="1">  1        2 0.57398862E-01 0.14773383E+04</pdfrwt>
<pdfrwt beam="2">  1       -2 0.19399949E+00 0.14773383E+04</pdfrwt>
<totfact> 0.12147387E+01</totfact>
</mgrwt>
</event>
<event>
 8    1  0.7623533E-028  0.1414611E+04  0.7818608E-02  0.8943310E-01
          2   -1    0    0  501    0  0.00000000000E+00  0.00000000000E+00  0.39605584715E+04  0.39605584715E+04  0.25500000000E-02 0.  1.
         -2   -1    0    0    0  501 -0.00000000000E+00 -0.00000000000E+00 -0.12631575017E+03  0.12631575020E+03  0.25500000000E-02 0. -1.
     200001    2    1    2    0    0 -0.38392909016E+02 -0.64970617260E+02  0.17140351375E+04  0.18528251186E+04  0.69953503910E+03 0.  0.
    5000001    2    3    3    0    0 -0.82549021164E+02 -0.33958182641E+02  0.55562370286E+03  0.58995989014E+03  0.17710864949E+03 0.  0.
        -13    1    4    4    0    0 -0.11690458562E+03 -0.55222879407E+02  0.26324277850E+03  0.29327976429E+03  0.10566000000E+00 0. -1.
     200003    1    4    4    0    0  0.34355564455E+02  0.21264696766E+02  0.29238092437E+03  0.29668012584E+03  0.30000000000E+02 0. -1.
     200000    1    3    3    0    0  0.44156112148E+02 -0.31012434619E+02  0.11584114347E+04  0.12628652285E+04  0.50000000000E+03 0. -1.
    -200001    1    1    2    0    0  0.38392909016E+02  0.64970617260E+02  0.21202075838E+04  0.22340491030E+04  0.70000000000E+03 0. -1.
<mgrwt>
<rscale>  0 0.14146108E+04</rscale>
<asrwt>0</asrwt>
<pdfrwt beam="1">  1        2 0.56579398E+00 0.14146108E+04</pdfrwt>
<pdfrwt beam="2">  1       -2 0.18045110E-01 0.14146108E+04</pdfrwt>
<totfact> 0.15409745E+01</totfact>
</mgrwt>
</event>
<event>
 8    1  0.7623533E-028  0.1989330E+04  0.7818608E-02  0.8611626E-01
         -2   -1    0    0    0  501 -0.00000000000E+00  0.00000000000E+00  0.50488546987E+03  0.50488546988E+03  0.25500000000E-02 0. -1.
          2   -1    0    0  501    0  0.00000000000E+00 -0.00000000000E+00 -0.19595697254E+04  0.19595697254E+04  0.25500000000E-02 0.  1.
     200001    2    1    2    0    0 -0.14199476754E+03 -0.61041295683E+03 -0.32315054370E+03  0.99369517650E+03  0.70016950664E+03 0.  0.
    5000001    2    3    3    0    0 -0.11624420146E+03 -0.11913936816E+03 -0.37930939075E+02  0.23648777200E+03  0.16364842421E+03 0.  0.
        -13    1    4    4    0    0 -0.67529460950E+02  0.22053673216E+02  0.19518053200E+02  0.73671963210E+02  0.10566000000E+00 0. -1.
     200003    1    4    4    0    0 -0.48714740506E+02 -0.14119304138E+03 -0.57448992275E+02  0.16281580878E+03  0.30000000000E+02 0. -1.
     200000    1    3    3    0    0 -0.25750566082E+02 -0.49127358866E+03 -0.28521960463E+03  0.75720740450E+03  0.50000000000E+03 0. -1.
    -200001    1    1    2    0    0  0.14199476754E+03  0.61041295683E+03 -0.11315337118E+04  0.14707600188E+04  0.70000000000E+03 0.  1.
<mgrwt>
<rscale>  0 0.19893298E+04</rscale>
<asrwt>0</asrwt>
<pdfrwt beam="1">  1        2 0.27993853E+00 0.19893298E+04</pdfrwt>
<pdfrwt beam="2">  1       -2 0.72126497E-01 0.19893298E+04</pdfrwt>
<totfact> 0.13675771E+01</totfact>
</mgrwt>
</event>
<event>
 8    1  0.7623533E-028  0.1917885E+04  0.7818608E-02  0.8646005E-01
         -2   -1    0    0    0  501 -0.00000000000E+00  0.00000000000E+00  0.65079107020E+03  0.65079107020E+03  0.25500000000E-02 0. -1.
          2   -1    0    0  501    0  0.00000000000E+00 -0.00000000000E+00 -0.14130048790E+04  0.14130048790E+04  0.25500000000E-02 0.  1.
     200001    2    1    2    0    0  0.31990244048E+03 -0.64514048053E+01 -0.99648532467E+03  0.12592697935E+04  0.70028438408E+03 0.  0.
    5000001    2    3    3    0    0  0.87840588812E+02  0.12922815322E+02 -0.27530101489E+03  0.35134090200E+03  0.19941617894E+03 0.  0.
        -13    1    4    4    0    0  0.95856531189E+02  0.92166602078E+02 -0.17513388366E+03  0.21989780690E+03  0.10566000000E+00 0. -1.
     200003    1    4    4    0    0 -0.80159423763E+01 -0.79243786756E+02 -0.10016713123E+03  0.13144309510E+03  0.30000000000E+02 0. -1.
     200000    1    3    3    0    0  0.23206185167E+03 -0.19374220127E+02 -0.72118430978E+03  0.90792889153E+03  0.50000000000E+03 0.  1.
    -200001    1    1    2    0    0 -0.31990244048E+03  0.64514048053E+01  0.23427151584E+03  0.80452615569E+03  0.70000000000E+03 0.  1.
<mgrwt>
<rscale>  0 0.19178852E+04</rscale>
<asrwt>0</asrwt>
<pdfrwt beam="1">  1        2 0.20185784E+00 0.19178852E+04</pdfrwt>
<pdfrwt beam="2">  1       -2 0.92970153E-01 0.19178852E+04</pdfrwt>
<totfact> 0.14979057E+01</totfact>
</mgrwt>
</event>
<event>
 8    1  0.7623533E-028  0.1477180E+04  0.7818608E-02  0.8899771E-01
         -2   -1    0    0    0  501 -0.00000000000E+00  0.00000000000E+00  0.52559323163E+03  0.52559323163E+03  0.25500000000E-02 0. -1.
          2   -1    0    0  501    0  0.00000000000E+00 -0.00000000000E+00 -0.10379035337E+04  0.10379035337E+04  0.25500000000E-02 0.  1.
     200001    2    1    2    0    0  0.22095840538E+03 -0.31306814071E+02 -0.18230496403E+03  0.75807373574E+03  0.70116899203E+03 0.  0.
    5000001    2    3    3    0    0  0.40624618441E+02 -0.68408363257E+02 -0.38370036416E+02  0.20615520638E+03  0.18627304055E+03 0.  0.
        -13    1    4    4    0    0  0.86640274912E+01 -0.65474743506E+01 -0.10479471875E+03  0.10535596345E+03  0.10566000000E+00 0. -1.
     200003    1    4    4    0    0  0.31960590949E+02 -0.61860888906E+02  0.66424682337E+02  0.10079924292E+03  0.30000000000E+02 0. -1.
     200000    1    3    3    0    0  0.18033378694E+03  0.37101549185E+02 -0.14393492761E+03  0.55191852936E+03  0.50000000000E+03 0. -1.
    -200001    1    1    2    0    0 -0.22095840538E+03  0.31306814071E+02 -0.33000533809E+03  0.80542302964E+03  0.70000000000E+03 0. -1.
<mgrwt>
<rscale>  0 0.14771798E+04</rscale>
<asrwt>0</asrwt>
<pdfrwt beam="1">  1        2 0.14827193E+00 0.14771798E+04</pdfrwt>
<pdfrwt beam="2">  1       -2 0.75084748E-01 0.14771798E+04</pdfrwt>
<totfact> 0.41116059E+01</totfact>
</mgrwt>
</event>
<event>
 8    1  0.7623533E-028  0.1702420E+04  0.7818608E-02  0.8759985E-01
          2   -1    0    0  501    0  0.00000000000E+00  0.00000000000E+00  0.29889555282E+03  0.29889555283E+03  0.25500000000E-02 0.  1.
         -2   -1    0    0    0  501 -0.00000000000E+00 -0.00000000000E+00 -0.24241187586E+04  0.24241187586E+04  0.25500000000E-02 0. -1.
     200001    2    1    2    0    0  0.10317830417E+03 -0.31064668151E+02 -0.18181190152E+04  0.19510533280E+04  0.69960099990E+03 0.  0.
    5000001    2    3    3    0    0 -0.89755688485E+01  0.38686441786E+02 -0.47303147988E+03  0.50997588860E+03  0.18638515064E+03 0.  0.
        -13    1    4    4    0    0  0.42261731570E+00 -0.25205868401E+02 -0.42107291840E+03  0.42182689362E+03  0.10566000000E+00 0. -1.
     200003    1    4    4    0    0 -0.93981861642E+01  0.63892310187E+02 -0.51958561476E+02  0.88148994974E+02  0.30000000000E+02 0. -1.
     200000    1    3    3    0    0  0.11215387302E+03 -0.69751109937E+02 -0.13450875354E+04  0.14410774394E+04  0.50000000000E+03 0. -1.
    -200001    1    1    2    0    0 -0.10317830417E+03  0.31064668151E+02 -0.30710419051E+03  0.77196098340E+03  0.70000000000E+03 0.  1.
<mgrwt>
<rscale>  0 0.17024198E+04</rscale>
<asrwt>0</asrwt>
<pdfrwt beam="1">  1        2 0.42699366E-01 0.17024198E+04</pdfrwt>
<pdfrwt beam="2">  1       -2 0.34630267E+00 0.17024198E+04</pdfrwt>
<totfact> 0.18832970E+00</totfact>
</mgrwt>
</event>
<event>
 8    1  0.7623533E-028  0.1802600E+04  0.7818608E-02  0.8704918E-01
          2   -1    0    0  501    0  0.00000000000E+00  0.00000000000E+00  0.12100536456E+04  0.12100536456E+04  0.25500000000E-02 0.  1.
         -2   -1    0    0    0  501 -0.00000000000E+00 -0.00000000000E+00 -0.67132691944E+03  0.67132691945E+03  0.25500000000E-02 0. -1.
     200001    2    1    2    0    0  0.31876374539E+03 -0.39729898841E+03  0.53200228307E+03  0.10156427123E+04  0.69931886736E+03 0.  0.
    5000001    2    3    3    0    0  0.43734706382E+02 -0.10664125840E+03  0.21723433487E+03  0.30205897541E+03  0.17539608275E+03 0.  0.
        -13    1    4    4    0    0  0.69661924403E+02 -0.64088140516E+02  0.20426785867E+02  0.96836657373E+02  0.10566000000E+00 0. -1.
     200003    1    4    4    0    0 -0.25927218021E+02 -0.42553117888E+02  0.19680754900E+03  0.20522231803E+03  0.30000000000E+02 0. -1.
     200000    1    3    3    0    0  0.27502903901E+03 -0.29065773001E+03  0.31476794821E+03  0.71358373687E+03  0.50000000000E+03 0. -1.
    -200001    1    1    2    0    0 -0.31876374539E+03  0.39729898841E+03  0.67244430777E+01  0.86573785276E+03  0.70000000000E+03 0.  1.
<mgrwt>
<rscale>  0 0.18025999E+04</rscale>
<asrwt>0</asrwt>
<pdfrwt beam="1">  1        2 0.17286480E+00 0.18025999E+04</pdfrwt>
<pdfrwt beam="2">  1       -2 0.95903847E-01 0.18025999E+04</pdfrwt>
<totfact> 0.18206798E+01</totfact>
</mgrwt>
</event>
<event>
 8    1  0.7623533E-028  0.1826579E+04  0.7818608E-02  0.8692292E-01
          2   -1    0    0  501    0  0.00000000000E+00  0.00000000000E+00  0.19328748888E+04  0.19328748888E+04  0.25500000000E-02 0.  1.
         -2   -1    0    0    0  501 -0.00000000000E+00 -0.00000000000E+00 -0.43153208036E+03  0.43153208037E+03  0.25500000000E-02 0. -1.
     200001    2    1    2    0    0  0.30214720204E+03 -0.15519242424E+03  0.13707390297E+04  0.15754614912E+04  0.69840948042E+03 0.  0.
    5000001    2    3    3    0    0  0.68336954742E+02 -0.39745474257E+02  0.42678296102E+03  0.47589417189E+03  0.19514590674E+03 0.  0.
        -13    1    4    4    0    0  0.36579675895E+02 -0.75675229649E+02  0.40758453823E+03  0.41616100255E+03  0.10566000000E+00 0. -1.
     200003    1    4    4    0    0  0.31757278847E+02  0.35929755392E+02  0.19198422787E+02  0.59733169344E+02  0.30000000000E+02 0. -1.
     200000    1    3    3    0    0  0.23381024730E+03 -0.11544694999E+03  0.94395606869E+03  0.10995673193E+04  0.50000000000E+03 0.  1.
    -200001    1    1    2    0    0 -0.30214720204E+03  0.15519242424E+03  0.13060377872E+03  0.78894547800E+03  0.70000000000E+03 0. -1.
<mgrwt>
<rscale>  0 0.18265788E+04</rscale>
<asrwt>0</asrwt>
<pdfrwt beam="1">  1        2 0.27612499E+00 0.18265788E+04</pdfrwt>
<pdfrwt beam="2">  1       -2 0.61647440E-01 0.18265788E+04</pdfrwt>
<totfact> 0.20073080E+01</totfact>
</mgrwt>
</event>
<event>
 8    1  0.7623533E-028  0.1454001E+04  0.7818608E-02  0.8915631E-01
         -2   -1    0    0    0  501 -0.00000000000E+00  0.00000000000E+00  0.37104239330E+03  0.37104239331E+03  0.25500000000E-02 0. -1.
          2   -1    0    0  501    0  0.00000000000E+00 -0.00000000000E+00 -0.14244457412E+04  0.14244457412E+04  0.25500000000E-02 0.  1.
     200001    2    1    2    0    0  0.12924351386E+03  0.57111615450E+01 -0.70813999851E+03  0.10043223594E+04  0.70033180768E+03 0.  0.
    5000001    2    3    3    0    0 -0.19285426891E+02  0.13273923065E+02 -0.21081957295E+03  0.28359658125E+03  0.18823921970E+03 0.  0.
        -13    1    4    4    0    0  0.32847029012E+02  0.79140070618E+02 -0.15852318007E+03  0.18019902296E+03  0.10566000000E+00 0. -1.
     200003    1    4    4    0    0 -0.52132455903E+02 -0.65866147553E+02 -0.52296392880E+02  0.10339755829E+03  0.30000000000E+02 0. -1.
     200000    1    3    3    0    0  0.14852894075E+03 -0.75627615205E+01 -0.49732042557E+03  0.72072577815E+03  0.50000000000E+03 0.  1.
    -200001    1    1    2    0    0 -0.12924351386E+03 -0.57111615450E+01 -0.34526334934E+03  0.79116577507E+03  0.70000000000E+03 0. -1.
<mgrwt>
<rscale>  0 0.14540010E+04</rscale>
<asrwt>0</asrwt>
<pdfrwt beam="1">  1        2 0.20349225E+00 0.14540010E+04</pdfrwt>
<pdfrwt beam="2">  1       -2 0.53006057E-01 0.14540010E+04</pdfrwt>
<totfact> 0.52282824E+01</totfact>
</mgrwt>
</event>
<event>
 8    1  0.7623533E-028  0.1725245E+04  0.7818608E-02  0.8747096E-01
          2   -1    0    0  501    0  0.00000000000E+00  0.00000000000E+00  0.31812727146E+04  0.31812727146E+04  0.25500000000E-02 0.  1.
         -2   -1    0    0    0  501 -0.00000000000E+00 -0.00000000000E+00 -0.23390575291E+03  0.23390575292E+03  0.25500000000E-02 0. -1.
     200001    2    1    2    0    0 -0.23631967280E+02 -0.37437765452E+03  0.21401931380E+04  0.22828151514E+04  0.70007231730E+03 0.  0.
    5000001    2    3    3    0    0  0.44018582683E+02 -0.11240183082E+03  0.17065487792E+03  0.23286664302E+03  0.10262542999E+03 0.  0.
        -13    1    4    4    0    0  0.55680051446E+02 -0.98782390242E+02  0.16041744926E+03  0.19644846128E+03  0.10566000000E+00 0. -1.
     200003    1    4    4    0    0 -0.11661468764E+02 -0.13619440581E+02  0.10237428667E+02  0.36418181739E+02  0.30000000000E+02 0. -1.
     200000    1    3    3    0    0 -0.67650549963E+02 -0.26197582370E+03  0.19695382600E+04  0.20499485084E+04  0.50000000000E+03 0.  1.
    -200001    1    1    2    0    0  0.23631967280E+02  0.37437765452E+03  0.80717382377E+03  0.11323633162E+04  0.70000000000E+03 0. -1.
<mgrwt>
<rscale>  0 0.17252455E+04</rscale>
<asrwt>0</asrwt>
<pdfrwt beam="1">  1        2 0.45446751E+00 0.17252455E+04</pdfrwt>
<pdfrwt beam="2">  1       -2 0.33415109E-01 0.17252455E+04</pdfrwt>
<totfact> 0.14875015E+01</totfact>
</mgrwt>
</event>
<event>
 8    1  0.7623533E-028  0.2128403E+04  0.7818608E-02  0.8548834E-01
         -2   -1    0    0    0  501 -0.00000000000E+00  0.00000000000E+00  0.61313508390E+03  0.61313508390E+03  0.25500000000E-02 0. -1.
          2   -1    0    0  501    0  0.00000000000E+00 -0.00000000000E+00 -0.18471056076E+04  0.18471056076E+04  0.25500000000E-02 0.  1.
     200001    2    1    2    0    0 -0.57280040699E+03  0.23896783851E+03 -0.29938277352E+02  0.93547855126E+03  0.69929813765E+03 0.  0.
    5000001    2    3    3    0    0 -0.14768879426E+03  0.11611902634E+02  0.46053484080E+02  0.23677593021E+03  0.17887174594E+03 0.  0.
        -13    1    4    4    0    0 -0.17802111966E+03 -0.14047415883E+02  0.53549511554E+02  0.18643071177E+03  0.10566000000E+00 0. -1.
     200003    1    4    4    0    0  0.30332325406E+02  0.25659318517E+02 -0.74960274738E+01  0.50345218434E+02  0.30000000000E+02 0. -1.
     200000    1    3    3    0    0 -0.42511161274E+03  0.22735593587E+03 -0.75991761432E+02  0.69870262105E+03  0.50000000000E+03 0. -1.
    -200001    1    1    2    0    0  0.57280040699E+03 -0.23896783851E+03 -0.12040322464E+04  0.15247621403E+04  0.70000000000E+03 0.  1.
<mgrwt>
<rscale>  0 0.21284034E+04</rscale>
<asrwt>0</asrwt>
<pdfrwt beam="1">  1        2 0.26387223E+00 0.21284034E+04</pdfrwt>
<pdfrwt beam="2">  1       -2 0.87590727E-01 0.21284034E+04</pdfrwt>
<totfact> 0.99959809E+00</totfact>
</mgrwt>
</event>
<event>
 8    1  0.7623533E-028  0.1647137E+04  0.7818608E-02  0.8792102E-01
          2   -1    0    0  501    0  0.00000000000E+00  0.00000000000E+00  0.85920115208E+03  0.85920115208E+03  0.25500000000E-02 0.  1.
         -2   -1    0    0    0  501 -0.00000000000E+00 -0.00000000000E+00 -0.78941312736E+03  0.78941312737E+03  0.25500000000E-02 0. -1.
     200001    2    1    2    0    0 -0.75592059957E+02 -0.18482533338E+03  0.41911792962E+03  0.84120735240E+03  0.70149512287E+03 0.  0.
    5000001    2    3    3    0    0  0.12104581344E+03 -0.65759972375E+02  0.11440788395E+03  0.21216742888E+03  0.11379539116E+03 0.  0.
        -13    1    4    4    0    0  0.28424369068E+02 -0.51340835293E+02 -0.32479358672E+01  0.58774028082E+02  0.10566000000E+00 0. -1.
     200003    1    4    4    0    0  0.92621444372E+02 -0.14419137083E+02  0.11765581981E+03  0.15339340080E+03  0.30000000000E+02 0.  1.
     200000    1    3    3    0    0 -0.19663787340E+03 -0.11906536101E+03  0.30471004567E+03  0.62903992352E+03  0.50000000000E+03 0.  1.
    -200001    1    1    2    0    0  0.75592059957E+02  0.18482533338E+03 -0.34932990491E+03  0.80740692705E+03  0.70000000000E+03 0. -1.
<mgrwt>
<rscale>  0 0.16471365E+04</rscale>
<asrwt>0</asrwt>
<pdfrwt beam="1">  1        2 0.12274302E+00 0.16471365E+04</pdfrwt>
<pdfrwt beam="2">  1       -2 0.11277330E+00 0.16471365E+04</pdfrwt>
<totfact> 0.20505243E+01</totfact>
</mgrwt>
</event>
<event>
 8    1  0.7623533E-028  0.1552080E+04  0.7818608E-02  0.8850540E-01
          2   -1    0    0  501    0  0.00000000000E+00  0.00000000000E+00  0.79904445063E+03  0.79904445063E+03  0.25500000000E-02 0.  1.
         -2   -1    0    0    0  501 -0.00000000000E+00 -0.00000000000E+00 -0.75369778921E+03  0.75369778921E+03  0.25500000000E-02 0. -1.
     200001    2    1    2    0    0 -0.21481190593E+03 -0.25266224100E+03  0.71965346928E+02  0.77769971368E+03  0.69975386425E+03 0.  0.
    5000001    2    3    3    0    0 -0.39598756628E+02 -0.17613634143E+03  0.29991149726E+02  0.24074748654E+03  0.15642190037E+03 0.  0.
        -13    1    4    4    0    0 -0.93986961910E+02 -0.10180098126E+03  0.37642597286E+02  0.14357564239E+03  0.10566000000E+00 0. -1.
     200003    1    4    4    0    0  0.54388205282E+02 -0.74335360173E+02 -0.76514475595E+01  0.97171844151E+02  0.30000000000E+02 0. -1.
     200000    1    3    3    0    0 -0.17521314930E+03 -0.76525899568E+02  0.41974197202E+02  0.53695222713E+03  0.50000000000E+03 0. -1.
    -200001    1    1    2    0    0  0.21481190593E+03  0.25266224100E+03 -0.26618685504E+02  0.77504252617E+03  0.70000000000E+03 0. -1.
<mgrwt>
<rscale>  0 0.15520799E+04</rscale>
<asrwt>0</asrwt>
<pdfrwt beam="1">  1        2 0.11414921E+00 0.15520799E+04</pdfrwt>
<pdfrwt beam="2">  1       -2 0.10767111E+00 0.15520799E+04</pdfrwt>
<totfact> 0.25410070E+01</totfact>
</mgrwt>
</event>
<event>
 8    1  0.7623533E-028  0.2111326E+04  0.7818608E-02  0.8556270E-01
         -2   -1    0    0    0  501 -0.00000000000E+00  0.00000000000E+00  0.41538027858E+03  0.41538027858E+03  0.25500000000E-02 0. -1.
          2   -1    0    0  501    0  0.00000000000E+00 -0.00000000000E+00 -0.26829019466E+04  0.26829019466E+04  0.25500000000E-02 0.  1.
     200001    2    1    2    0    0  0.40718153532E+03 -0.57765879964E+02 -0.14667158407E+03  0.82734876553E+03  0.70275153977E+03 0.  0.
    5000001    2    3    3    0    0  0.10173623060E+03 -0.36285299222E+02 -0.68060654483E+02  0.23579325015E+03  0.19824056238E+03 0.  0.
        -13    1    4    4    0    0  0.43863126614E+02  0.66601517777E+02  0.23815087539E+02  0.83228033769E+02  0.10566000000E+00 0. -1.
     200003    1    4    4    0    0  0.57873103984E+02 -0.10288681700E+03 -0.91875742021E+02  0.15256521638E+03  0.30000000000E+02 0.  1.
     200000    1    3    3    0    0  0.30544530472E+03 -0.21480580741E+02 -0.78610929583E+02  0.59155551538E+03  0.50000000000E+03 0. -1.
    -200001    1    1    2    0    0 -0.40718153532E+03  0.57765879964E+02 -0.21208500840E+04  0.22709334597E+04  0.70000000000E+03 0.  1.
<mgrwt>
<rscale>  0 0.21113262E+04</rscale>
<asrwt>0</asrwt>
<pdfrwt beam="1">  1        2 0.38327170E+00 0.21113262E+04</pdfrwt>
<pdfrwt beam="2">  1       -2 0.59340041E-01 0.21113262E+04</pdfrwt>
<totfact> 0.86321743E+00</totfact>
</mgrwt>
</event>
<event>
 8    1  0.7623533E-028  0.2081730E+04  0.7818608E-02  0.8569334E-01
         -2   -1    0    0    0  501 -0.00000000000E+00  0.00000000000E+00  0.96423515062E+03  0.96423515062E+03  0.25500000000E-02 0. -1.
          2   -1    0    0  501    0  0.00000000000E+00 -0.00000000000E+00 -0.11235850773E+04  0.11235850773E+04  0.25500000000E-02 0.  1.
     200001    2    1    2    0    0 -0.62611121232E+03  0.37265340818E+03  0.16466869435E+03  0.10267481853E+04  0.70442192213E+03 0.  0.
    5000001    2    3    3    0    0 -0.96210388211E+02  0.43572222669E+02  0.15358608145E+03  0.22724075300E+03  0.12997960618E+03 0.  0.
        -13    1    4    4    0    0 -0.24347146897E+02  0.62052353044E+02  0.12606779376E+03  0.14260567264E+03  0.10566000000E+00 0. -1.
     200003    1    4    4    0    0 -0.71863241314E+02 -0.18480130375E+02  0.27518287687E+02  0.84635080363E+02  0.30000000000E+02 0. -1.
     200000    1    3    3    0    0 -0.52990082411E+03  0.32908118551E+03  0.11082612902E+02  0.79950743234E+03  0.50000000000E+03 0. -1.
    -200001    1    1    2    0    0  0.62611121232E+03 -0.37265340818E+03 -0.32401862106E+03  0.10610720426E+04  0.70000000000E+03 0.  1.
<mgrwt>
<rscale>  0 0.20817303E+04</rscale>
<asrwt>0</asrwt>
<pdfrwt beam="1">  1        2 0.16051215E+00 0.20817303E+04</pdfrwt>
<pdfrwt beam="2">  1       -2 0.13774788E+00 0.20817303E+04</pdfrwt>
<totfact> 0.82158100E+00</totfact>
</mgrwt>
</event>
<event>
 8    1  0.7623533E-028  0.2052393E+04  0.7818608E-02  0.8582509E-01
         -2   -1    0    0    0  501 -0.00000000000E+00  0.00000000000E+00  0.77301558012E+03  0.77301558012E+03  0.25500000000E-02 0. -1.
          2   -1    0    0  501    0  0.00000000000E+00 -0.00000000000E+00 -0.13623007697E+04  0.13623007697E+04  0.25500000000E-02 0.  1.
     200001    2    1    2    0    0  0.21935395188E+03 -0.30440288494E+03  0.38150574544E+03  0.88103874416E+03  0.69993239841E+03 0.  0.
    5000001    2    3    3    0    0  0.12660308902E+03 -0.90347640259E+02  0.13650254907E+03  0.27734268109E+03  0.18464825642E+03 0.  0.
        -13    1    4    4    0    0  0.16174914177E+03 -0.82151528594E+02  0.66819862512E+02  0.19333019346E+03  0.10566000000E+00 0. -1.
     200003    1    4    4    0    0 -0.35146052753E+02 -0.81961116649E+01  0.69682686561E+02  0.84012487625E+02  0.30000000000E+02 0. -1.
     200000    1    3    3    0    0  0.92750862863E+02 -0.21405524468E+03  0.24500319637E+03  0.60369606307E+03  0.50000000000E+03 0. -1.
    -200001    1    1    2    0    0 -0.21935395188E+03  0.30440288494E+03 -0.97079093505E+03  0.12542776057E+04  0.70000000000E+03 0.  1.
<mgrwt>
<rscale>  0 0.20523935E+04</rscale>
<asrwt>0</asrwt>
<pdfrwt beam="1">  1        2 0.19461439E+00 0.20523935E+04</pdfrwt>
<pdfrwt beam="2">  1       -2 0.11043080E+00 0.20523935E+04</pdfrwt>
<totfact> 0.10490316E+01</totfact>
</mgrwt>
</event>
<event>
 8    1  0.7623533E-028  0.1861511E+04  0.7818608E-02  0.8674256E-01
          2   -1    0    0  501    0  0.00000000000E+00  0.00000000000E+00  0.44573999123E+04  0.44573999123E+04  0.25500000000E-02 0.  1.
         -2   -1    0    0    0  501 -0.00000000000E+00 -0.00000000000E+00 -0.19435217304E+03  0.19435217306E+03  0.25500000000E-02 0. -1.
     200001    2    1    2    0    0  0.44569176827E+03 -0.41864731153E+03  0.20145859100E+04  0.22187524304E+04  0.70028510949E+03 0.  0.
    5000001    2    3    3    0    0  0.27574784934E+03 -0.57036270773E+02  0.59458842939E+03  0.66117857163E+03  0.65815580327E+02 0.  0.
        -13    1    4    4    0    0  0.19793470670E+03 -0.24057534098E+02  0.40188704111E+03  0.44863138325E+03  0.10566000000E+00 0. -1.
     200003    1    4    4    0    0  0.77813142637E+02 -0.32978736674E+02  0.19270138829E+03  0.21254718838E+03  0.30000000000E+02 0.  1.
     200000    1    3    3    0    0  0.16994391893E+03 -0.36161104075E+03  0.14199974806E+04  0.15575738587E+04  0.50000000000E+03 0. -1.
    -200001    1    1    2    0    0 -0.44569176827E+03  0.41864731153E+03  0.22484618293E+04  0.24329996550E+04  0.70000000000E+03 0.  1.
<mgrwt>
<rscale>  0 0.18615105E+04</rscale>
<asrwt>0</asrwt>
<pdfrwt beam="1">  1        2 0.63677143E+00 0.18615105E+04</pdfrwt>
<pdfrwt beam="2">  1       -2 0.27764595E-01 0.18615105E+04</pdfrwt>
<totfact> 0.29686451E+00</totfact>
</mgrwt>
</event>
<event>
 8    1  0.7623533E-028  0.2060316E+04  0.7818608E-02  0.8578929E-01
          2   -1    0    0  501    0  0.00000000000E+00  0.00000000000E+00  0.87954259041E+03  0.87954259041E+03  0.25500000000E-02 0.  1.
         -2   -1    0    0    0  501 -0.00000000000E+00 -0.00000000000E+00 -0.12065647634E+04  0.12065647634E+04  0.25500000000E-02 0. -1.
     200001    2    1    2    0    0 -0.35717320009E+03 -0.66590066019E+03 -0.14503265609E+03  0.10401070821E+04  0.69985133192E+03 0.  0.
    5000001    2    3    3    0    0 -0.11396685045E+03 -0.23926331232E+03  0.43335585020E+02  0.31439960014E+03  0.16350461773E+03 0.  0.
        -13    1    4    4    0    0 -0.14419992811E+03 -0.17752288668E+03  0.19168860687E+01  0.22871746802E+03  0.10566000000E+00 0. -1.
     200003    1    4    4    0    0  0.30233077655E+02 -0.61740425641E+02  0.41418698951E+02  0.85682132126E+02  0.30000000000E+02 0.  1.
     200000    1    3    3    0    0 -0.24320634964E+03 -0.42663734788E+03 -0.18836824111E+03  0.72570748196E+03  0.50000000000E+03 0.  1.
    -200001    1    1    2    0    0  0.35717320009E+03  0.66590066019E+03 -0.18198951687E+03  0.10460002717E+04  0.70000000000E+03 0. -1.
<mgrwt>
<rscale>  0 0.20603156E+04</rscale>
<asrwt>0</asrwt>
<pdfrwt beam="1">  1        2 0.12564894E+00 0.20603156E+04</pdfrwt>
<pdfrwt beam="2">  1       -2 0.17236639E+00 0.20603156E+04</pdfrwt>
<totfact> 0.63823356E+00</totfact>
</mgrwt>
</event>
<event>
 8    1  0.7623533E-028  0.1475073E+04  0.7818608E-02  0.8901201E-01
          2   -1    0    0  501    0  0.00000000000E+00  0.00000000000E+00  0.65597548410E+03  0.65597548410E+03  0.25500000000E-02 0.  1.
         -2   -1    0    0    0  501 -0.00000000000E+00 -0.00000000000E+00 -0.82923796831E+03  0.82923796831E+03  0.25500000000E-02 0. -1.
     200001    2    1    2    0    0 -0.59571313064E+00  0.92582318617E+02 -0.30343889339E+03  0.76721781309E+03  0.69855291145E+03 0.  0.
    5000001    2    3    3    0    0  0.19111480378E+02  0.36644882170E+01 -0.89855434424E+02  0.21593508346E+03  0.19538496364E+03 0.  0.
        -13    1    4    4    0    0 -0.51990948016E+02  0.39365767690E+02 -0.11061516789E+03  0.12840735521E+03  0.10566000000E+00 0. -1.
     200003    1    4    4    0    0  0.71102428395E+02 -0.35701279473E+02  0.20759733462E+02  0.87527728252E+02  0.30000000000E+02 0. -1.
     200000    1    3    3    0    0 -0.19707193509E+02  0.88917830400E+02 -0.21358345896E+03  0.55128272962E+03  0.50000000000E+03 0.  1.
    -200001    1    1    2    0    0  0.59571313064E+00 -0.92582318617E+02  0.13017640917E+03  0.71799563933E+03  0.70000000000E+03 0.  1.
<mgrwt>
<rscale>  0 0.14750726E+04</rscale>
<asrwt>0</asrwt>
<pdfrwt beam="1">  1        2 0.93710784E-01 0.14750726E+04</pdfrwt>
<pdfrwt beam="2">  1       -2 0.11846257E+00 0.14750726E+04</pdfrwt>
<totfact> 0.25916978E+01</totfact>
</mgrwt>
</event>
<event>
 8    1  0.7623533E-028  0.1478987E+04  0.7818608E-02  0.8898548E-01
          2   -1    0    0  501    0  0.00000000000E+00  0.00000000000E+00  0.21669055188E+04  0.21669055188E+04  0.25500000000E-02 0. -1.
         -2   -1    0    0    0  501 -0.00000000000E+00 -0.00000000000E+00 -0.25236488166E+03  0.25236488168E+03  0.25500000000E-02 0.  1.
     200001    2    1    2    0    0  0.15025210697E+03 -0.18060100725E+03  0.98788460576E+03  0.12344143671E+04  0.70190484813E+03 0.  0.
    5000001    2    3    3    0    0  0.18912582538E+01  0.13712225567E+02  0.22100753520E+03  0.28685486221E+03  0.18234522031E+03 0.  0.
        -13    1    4    4    0    0  0.37562913962E+02  0.59037710575E+02  0.20943907738E+03  0.22081929733E+03  0.10566000000E+00 0. -1.
     200003    1    4    4    0    0 -0.35671655709E+02 -0.45325485009E+02  0.11568457819E+02  0.66035564877E+02  0.30000000000E+02 0. -1.
     200000    1    3    3    0    0  0.14836084872E+03 -0.19431323282E+03  0.76687707055E+03  0.94755950484E+03  0.50000000000E+03 0.  1.
    -200001    1    1    2    0    0 -0.15025210697E+03  0.18060100725E+03  0.92665603141E+03  0.11848560335E+04  0.70000000000E+03 0.  1.
<mgrwt>
<rscale>  0 0.14789873E+04</rscale>
<asrwt>0</asrwt>
<pdfrwt beam="1">  1        2 0.30955794E+00 0.14789873E+04</pdfrwt>
<pdfrwt beam="2">  1       -2 0.36052125E-01 0.14789873E+04</pdfrwt>
<totfact> 0.46154106E+01</totfact>
</mgrwt>
</event>
<event>
 8    1  0.7623533E-028  0.1501244E+04  0.7818608E-02  0.8883626E-01
          2   -1    0    0  501    0  0.00000000000E+00  0.00000000000E+00  0.43910157851E+03  0.43910157852E+03  0.25500000000E-02 0.  1.
         -2   -1    0    0    0  501 -0.00000000000E+00 -0.00000000000E+00 -0.12831501616E+04  0.12831501616E+04  0.25500000000E-02 0. -1.
     200001    2    1    2    0    0 -0.19054553680E+03 -0.45228916364E+02 -0.63751903827E+03  0.96660121951E+03  0.69966716153E+03 0.  0.
    5000001    2    3    3    0    0  0.90475508993E+02 -0.13774377372E+02 -0.18607978536E+03  0.23601267917E+03  0.11269759097E+03 0.  0.
        -13    1    4    4    0    0  0.17385119746E+02  0.38913787044E+02 -0.96375540248E+02  0.10537922534E+03  0.10566000000E+00 0. -1.
     200003    1    4    4    0    0  0.73090389247E+02 -0.52688164416E+02 -0.89704245110E+02  0.13063345383E+03  0.30000000000E+02 0. -1.
     200000    1    3    3    0    0 -0.28102104579E+03 -0.31454538992E+02 -0.45143925291E+03  0.73058854034E+03  0.50000000000E+03 0. -1.
    -200001    1    1    2    0    0  0.19054553680E+03  0.45228916364E+02 -0.20652954486E+03  0.75565052066E+03  0.70000000000E+03 0.  1.
<mgrwt>
<rscale>  0 0.15012438E+04</rscale>
<asrwt>0</asrwt>
<pdfrwt beam="1">  1        2 0.62728798E-01 0.15012438E+04</pdfrwt>
<pdfrwt beam="2">  1       -2 0.18330716E+00 0.15012438E+04</pdfrwt>
<totfact> 0.12954470E+01</totfact>
</mgrwt>
</event>
<event>
 8    1  0.7623533E-028  0.1840850E+04  0.7818608E-02  0.8684873E-01
         -2   -1    0    0    0  501 -0.00000000000E+00  0.00000000000E+00  0.52848906900E+03  0.52848906901E+03  0.25500000000E-02 0. -1.
          2   -1    0    0  501    0  0.00000000000E+00 -0.00000000000E+00 -0.16030267811E+04  0.16030267811E+04  0.25500000000E-02 0.  1.
     200001    2    1    2    0    0  0.48957473008E+02  0.18102918511E+03  0.11981714865E+03  0.73450048391E+03  0.69997600797E+03 0.  0.
    5000001    2    3    3    0    0 -0.27597898499E+02 -0.10173825804E+03  0.50191814789E+02  0.15083462152E+03  0.95496322582E+02 0.  0.
        -13    1    4    4    0    0  0.28522471588E+02 -0.54233729776E+02  0.32946023887E+02  0.69572124338E+02  0.10566000000E+00 0. -1.
     200003    1    4    4    0    0 -0.56120370087E+02 -0.47504528260E+02  0.17245790902E+02  0.81262497179E+02  0.30000000000E+02 0. -1.
     200000    1    3    3    0    0  0.76555371507E+02  0.28276744314E+03  0.69625333863E+02  0.58366586239E+03  0.50000000000E+03 0. -1.
    -200001    1    1    2    0    0 -0.48957473008E+02 -0.18102918511E+03 -0.11943548608E+04  0.13970153662E+04  0.70000000000E+03 0.  1.
<mgrwt>
<rscale>  0 0.18408499E+04</rscale>
<asrwt>0</asrwt>
<pdfrwt beam="1">  1        2 0.22900382E+00 0.18408499E+04</pdfrwt>
<pdfrwt beam="2">  1       -2 0.75498439E-01 0.18408499E+04</pdfrwt>
<totfact> 0.19150946E+01</totfact>
</mgrwt>
</event>
<event>
 8    1  0.7623533E-028  0.2047595E+04  0.7818608E-02  0.8584686E-01
         -2   -1    0    0    0  501 -0.00000000000E+00  0.00000000000E+00  0.59583363363E+03  0.59583363363E+03  0.25500000000E-02 0. -1.
          2   -1    0    0  501    0  0.00000000000E+00 -0.00000000000E+00 -0.17591508864E+04  0.17591508864E+04  0.25500000000E-02 0.  1.
     200001    2    1    2    0    0 -0.70931554716E+03  0.15689349810E+03 -0.78031699220E+03  0.12758954066E+04  0.70090681622E+03 0.  0.
    5000001    2    3    3    0    0 -0.22738676304E+03  0.79663616847E+02 -0.28978441615E+03  0.42217296006E+03  0.19027340463E+03 0.  0.
        -13    1    4    4    0    0 -0.18186447880E+03  0.75646110261E+02 -0.30709194048E+03  0.36483214458E+03  0.10566000000E+00 0. -1.
     200003    1    4    4    0    0 -0.45522284243E+02  0.40175065858E+01  0.17307524331E+02  0.57340815483E+02  0.30000000000E+02 0.  1.
     200000    1    3    3    0    0 -0.48192878412E+03  0.77229881251E+02 -0.49053257606E+03  0.85372244652E+03  0.50000000000E+03 0.  1.
    -200001    1    1    2    0    0  0.70931554716E+03 -0.15689349810E+03 -0.38300026058E+03  0.10790891135E+04  0.70000000000E+03 0. -1.
<mgrwt>
<rscale>  0 0.20475949E+04</rscale>
<asrwt>0</asrwt>
<pdfrwt beam="1">  1        2 0.25130727E+00 0.20475949E+04</pdfrwt>
<pdfrwt beam="2">  1       -2 0.85119092E-01 0.20475949E+04</pdfrwt>
<totfact> 0.11927405E+01</totfact>
</mgrwt>
</event>
<event>
 8    1  0.7623533E-028  0.1480204E+04  0.7818608E-02  0.8897725E-01
          2   -1    0    0  501    0  0.00000000000E+00  0.00000000000E+00  0.59497420121E+03  0.59497420122E+03  0.25500000000E-02 0.  1.
         -2   -1    0    0    0  501 -0.00000000000E+00 -0.00000000000E+00 -0.92063020063E+03  0.92063020063E+03  0.25500000000E-02 0. -1.
     200001    2    1    2    0    0  0.17814088430E+03 -0.12949412114E+03 -0.26635114370E+03  0.77938434780E+03  0.69856576482E+03 0.  0.
    5000001    2    3    3    0    0  0.34400662018E+02  0.51942898270E+02  0.22034310119E+02  0.15749463613E+03  0.14296006211E+03 0.  0.
        -13    1    4    4    0    0  0.74022011131E+02  0.17240080429E+02  0.49756255422E+02  0.90841480739E+02  0.10566000000E+00 0. -1.
     200003    1    4    4    0    0 -0.39621349114E+02  0.34702817840E+02 -0.27721945303E+02  0.66653155387E+02  0.30000000000E+02 0. -1.
     200000    1    3    3    0    0  0.14374022229E+03 -0.18143701941E+03 -0.28838545382E+03  0.62188971168E+03  0.50000000000E+03 0. -1.
    -200001    1    1    2    0    0 -0.17814088430E+03  0.12949412114E+03 -0.59304855717E+02  0.73622005405E+03  0.70000000000E+03 0. -1.
<mgrwt>
<rscale>  0 0.14802043E+04</rscale>
<asrwt>0</asrwt>
<pdfrwt beam="1">  1        2 0.84996316E-01 0.14802043E+04</pdfrwt>
<pdfrwt beam="2">  1       -2 0.13151860E+00 0.14802043E+04</pdfrwt>
<totfact> 0.22398253E+01</totfact>
</mgrwt>
</event>
<event>
 8    1  0.7623533E-028  0.2044101E+04  0.7818608E-02  0.8586275E-01
          2   -1    0    0  501    0  0.00000000000E+00  0.00000000000E+00  0.98537779529E+03  0.98537779529E+03  0.25500000000E-02 0.  1.
         -2   -1    0    0    0  501 -0.00000000000E+00 -0.00000000000E+00 -0.10600876883E+04  0.10600876883E+04  0.25500000000E-02 0. -1.
     200001    2    1    2    0    0 -0.22792832968E+03 -0.41124844104E+02  0.67058289285E+03  0.99708391523E+03  0.70060855087E+03 0.  0.
    5000001    2    3    3    0    0 -0.83622409730E+02  0.26889096076E+02  0.24458628360E+03  0.32112296541E+03  0.18863132797E+03 0.  0.
        -13    1    4    4    0    0  0.28240780811E+02 -0.54525508759E+02  0.10895999719E+03  0.12507143942E+03  0.10566000000E+00 0. -1.
     200003    1    4    4    0    0 -0.11186319054E+03  0.81414604835E+02  0.13562628641E+03  0.19605152599E+03  0.30000000000E+02 0. -1.
     200000    1    3    3    0    0 -0.14430591995E+03 -0.68013940180E+02  0.42599660925E+03  0.67596094982E+03  0.50000000000E+03 0.  1.
    -200001    1    1    2    0    0  0.22792832968E+03  0.41124844104E+02 -0.74529278590E+03  0.10483815684E+04  0.70000000000E+03 0. -1.
<mgrwt>
<rscale>  0 0.20441007E+04</rscale>
<asrwt>0</asrwt>
<pdfrwt beam="1">  1        2 0.14076826E+00 0.20441007E+04</pdfrwt>
<pdfrwt beam="2">  1       -2 0.15144110E+00 0.20441007E+04</pdfrwt>
<totfact> 0.77854169E+00</totfact>
</mgrwt>
</event>
<event>
 8    1  0.7623533E-028  0.2044996E+04  0.7818608E-02  0.8585868E-01
         -2   -1    0    0    0  501 -0.00000000000E+00  0.00000000000E+00  0.83404830773E+03  0.83404830774E+03  0.25500000000E-02 0. -1.
          2   -1    0    0  501    0  0.00000000000E+00 -0.00000000000E+00 -0.12535266677E+04  0.12535266677E+04  0.25500000000E-02 0.  1.
     200001    2    1    2    0    0  0.48162497565E+03 -0.47610076792E+03 -0.52283421920E+03  0.11081276864E+04  0.70424199695E+03 0.  0.
    5000001    2    3    3    0    0  0.15651976440E+03 -0.14263794610E+03 -0.19310362385E+03  0.34943597207E+03  0.19993115994E+03 0.  0.
        -13    1    4    4    0    0  0.12210032768E+02 -0.14319775565E+03 -0.10033050519E+03  0.17527379599E+03  0.10566000000E+00 0. -1.
     200003    1    4    4    0    0  0.14430973163E+03  0.55980955832E+00 -0.92773118662E+02  0.17416217608E+03  0.30000000000E+02 0. -1.
     200000    1    3    3    0    0  0.32510521125E+03 -0.33346282183E+03 -0.32973059535E+03  0.75869171435E+03  0.50000000000E+03 0.  1.
    -200001    1    1    2    0    0 -0.48162497565E+03  0.47610076792E+03  0.10335585921E+03  0.97944728905E+03  0.70000000000E+03 0. -1.
<mgrwt>
<rscale>  0 0.20449956E+04</rscale>
<asrwt>0</asrwt>
<pdfrwt beam="1">  1        2 0.17907524E+00 0.20449956E+04</pdfrwt>
<pdfrwt beam="2">  1       -2 0.11914976E+00 0.20449956E+04</pdfrwt>
<totfact> 0.10014124E+01</totfact>
</mgrwt>
</event>
<event>
 8    1  0.7623533E-028  0.1850629E+04  0.7818608E-02  0.8679829E-01
         -2   -1    0    0    0  501 -0.00000000000E+00  0.00000000000E+00  0.46993095237E+03  0.46993095238E+03  0.25500000000E-02 0. -1.
          2   -1    0    0  501    0  0.00000000000E+00 -0.00000000000E+00 -0.18219844165E+04  0.18219844165E+04  0.25500000000E-02 0.  1.
     200001    2    1    2    0    0 -0.53474266611E+03  0.16359544827E+03 -0.96148960390E+03  0.13145447541E+04  0.70060863719E+03 0.  0.
    5000001    2    3    3    0    0 -0.76309155480E+02  0.96887002028E+02 -0.15207738012E+03  0.25635788570E+03  0.16547403919E+03 0.  0.
        -13    1    4    4    0    0 -0.44870617855E+02  0.12946620442E+03 -0.14830668605E+03  0.20191521668E+03  0.10566000000E+00 0. -1.
     200003    1    4    4    0    0 -0.31438537624E+02 -0.32579202396E+02 -0.37706940649E+01  0.54442669024E+02  0.30000000000E+02 0. -1.
     200000    1    3    3    0    0 -0.45843351063E+03  0.66708446238E+02 -0.80941222378E+03  0.10581868684E+04  0.50000000000E+03 0.  1.
    -200001    1    1    2    0    0  0.53474266611E+03 -0.16359544827E+03 -0.39056386019E+03  0.97737061473E+03  0.70000000000E+03 0. -1.
<mgrwt>
<rscale>  0 0.18506289E+04</rscale>
<asrwt>0</asrwt>
<pdfrwt beam="1">  1        2 0.26028348E+00 0.18506289E+04</pdfrwt>
<pdfrwt beam="2">  1       -2 0.67132994E-01 0.18506289E+04</pdfrwt>
<totfact> 0.19038121E+01</totfact>
</mgrwt>
</event>
<event>
 8    1  0.7623533E-028  0.1721808E+04  0.7818608E-02  0.8749023E-01
         -2   -1    0    0    0  501 -0.00000000000E+00  0.00000000000E+00  0.45726838755E+03  0.45726838755E+03  0.25500000000E-02 0.  1.
          2   -1    0    0  501    0  0.00000000000E+00 -0.00000000000E+00 -0.16208330879E+04  0.16208330879E+04  0.25500000000E-02 0. -1.
     200001    2    1    2    0    0  0.46126105434E+03 -0.11937080999E+03 -0.75333425125E+03  0.11371975633E+04  0.70618315853E+03 0.  0.
    5000001    2    3    3    0    0  0.12436479482E+03 -0.34917607451E+01 -0.30382892639E+03  0.37628884290E+03  0.18385451367E+03 0.  0.
        -13    1    4    4    0    0  0.13031899476E+03 -0.52390880709E+02 -0.28121003155E+03  0.31433570873E+03  0.10566000000E+00 0. -1.
     200003    1    4    4    0    0 -0.59541999342E+01  0.48899119964E+02 -0.22618894842E+02  0.61953134174E+02  0.30000000000E+02 0. -1.
     200000    1    3    3    0    0  0.33689625952E+03 -0.11587904924E+03 -0.44950532486E+03  0.76090872042E+03  0.50000000000E+03 0. -1.
    -200001    1    1    2    0    0 -0.46126105434E+03  0.11937080999E+03 -0.41023044913E+03  0.94090391216E+03  0.70000000000E+03 0. -1.
<mgrwt>
<rscale>  0 0.17218080E+04</rscale>
<asrwt>0</asrwt>
<pdfrwt beam="1">  1        2 0.23154758E+00 0.17218080E+04</pdfrwt>
<pdfrwt beam="2">  1       -2 0.65324056E-01 0.17218080E+04</pdfrwt>
<totfact> 0.25954830E+01</totfact>
</mgrwt>
</event>
<event>
 8    1  0.7623533E-028  0.1480483E+04  0.7818608E-02  0.8897536E-01
          2   -1    0    0  501    0  0.00000000000E+00  0.00000000000E+00  0.11789888418E+04  0.11789888418E+04  0.25500000000E-02 0.  1.
         -2   -1    0    0    0  501 -0.00000000000E+00 -0.00000000000E+00 -0.46476931869E+03  0.46476931870E+03  0.25500000000E-02 0. -1.
     200001    2    1    2    0    0 -0.80511637255E+02  0.13517461562E+03  0.15777868349E+03  0.73580402706E+03  0.70125541198E+03 0.  0.
    5000001    2    3    3    0    0  0.73025850746E+01 -0.69096193927E+02  0.89239069030E+02  0.18431914057E+03  0.14554147991E+03 0.  0.
        -13    1    4    4    0    0  0.52401726118E+02 -0.68065359649E+02  0.97025321371E+02  0.12958687524E+03  0.10566000000E+00 0. -1.
     200003    1    4    4    0    0 -0.45099141044E+02 -0.10308342774E+01 -0.77862523413E+01  0.54732265326E+02  0.30000000000E+02 0. -1.
     200000    1    3    3    0    0 -0.87814222329E+02  0.20427080955E+03  0.68539614459E+02  0.55148488649E+03  0.50000000000E+03 0. -1.
    -200001    1    1    2    0    0  0.80511637255E+02 -0.13517461562E+03  0.55644083961E+03  0.90795413344E+03  0.70000000000E+03 0.  1.
<mgrwt>
<rscale>  0 0.14804835E+04</rscale>
<asrwt>0</asrwt>
<pdfrwt beam="1">  1        2 0.16842698E+00 0.14804835E+04</pdfrwt>
<pdfrwt beam="2">  1       -2 0.66395617E-01 0.14804835E+04</pdfrwt>
<totfact> 0.44410037E+01</totfact>
</mgrwt>
</event>
<event>
 8    1  0.7623533E-028  0.1959516E+04  0.7818608E-02  0.8625785E-01
         -2   -1    0    0    0  501 -0.00000000000E+00  0.00000000000E+00  0.69689858835E+03  0.69689858835E+03  0.25500000000E-02 0. -1.
          2   -1    0    0  501    0  0.00000000000E+00 -0.00000000000E+00 -0.13774259720E+04  0.13774259720E+04  0.25500000000E-02 0.  1.
     200001    2    1    2    0    0  0.28888744233E+03 -0.60976293547E+03 -0.47138650482E+03  0.10798364011E+04  0.69898113301E+03 0.  0.
    5000001    2    3    3    0    0  0.80886368442E+02 -0.19465101429E+03 -0.14978910859E+03  0.32551071601E+03  0.19770894574E+03 0.  0.
        -13    1    4    4    0    0  0.21030814275E+02 -0.10543020975E+03 -0.18025193777E+03  0.20987757505E+03  0.10566000000E+00 0. -1.
     200003    1    4    4    0    0  0.59855554167E+02 -0.89220804541E+02  0.30462829179E+02  0.11563314096E+03  0.30000000000E+02 0. -1.
     200000    1    3    3    0    0  0.20800107389E+03 -0.41511192118E+03 -0.32159739624E+03  0.75432568504E+03  0.50000000000E+03 0.  1.
    -200001    1    1    2    0    0 -0.28888744233E+03  0.60976293547E+03 -0.20914087884E+03  0.99448815931E+03  0.70000000000E+03 0. -1.
<mgrwt>
<rscale>  0 0.19595165E+04</rscale>
<asrwt>0</asrwt>
<pdfrwt beam="1">  1        2 0.19677514E+00 0.19595165E+04</pdfrwt>
<pdfrwt beam="2">  1       -2 0.99556942E-01 0.19595165E+04</pdfrwt>
<totfact> 0.13295459E+01</totfact>
</mgrwt>
</event>
<event>
 8    1  0.7623533E-028  0.2125076E+04  0.7818608E-02  0.8550277E-01
         -2   -1    0    0    0  501 -0.00000000000E+00  0.00000000000E+00  0.50763583631E+03  0.50763583631E+03  0.25500000000E-02 0. -1.
          2   -1    0    0  501    0  0.00000000000E+00 -0.00000000000E+00 -0.22240105563E+04  0.22240105563E+04  0.25500000000E-02 0.  1.
     200001    2    1    2    0    0  0.60952796630E+03 -0.40832579127E+02 -0.19570004528E+03  0.94961297330E+03  0.70019615118E+03 0.  0.
    5000001    2    3    3    0    0  0.73353752778E+02  0.10708538357E+03 -0.49607763479E+02  0.18757264252E+03  0.12599410146E+03 0.  0.
        -13    1    4    4    0    0  0.10311027282E+03  0.70705417517E+02 -0.31249592499E+02  0.12887021619E+03  0.10566000000E+00 0. -1.
     200003    1    4    4    0    0 -0.29756520039E+02  0.36379966056E+02 -0.18358170980E+02  0.58702426327E+02  0.30000000000E+02 0. -1.
     200000    1    3    3    0    0  0.53617421352E+03 -0.14791796270E+03 -0.14609228180E+03  0.76204033078E+03  0.50000000000E+03 0. -1.
    -200001    1    1    2    0    0 -0.60952796630E+03  0.40832579127E+02 -0.15206746747E+04  0.17820334193E+04  0.70000000000E+03 0.  1.
<mgrwt>
<rscale>  0 0.21250764E+04</rscale>
<asrwt>0</asrwt>
<pdfrwt beam="1">  1        2 0.31771579E+00 0.21250764E+04</pdfrwt>
<pdfrwt beam="2">  1       -2 0.72519406E-01 0.21250764E+04</pdfrwt>
<totfact> 0.97623683E+00</totfact>
</mgrwt>
</event>
<event>
 8    1  0.7623533E-028  0.1637078E+04  0.7818608E-02  0.8798088E-01
         -2   -1    0    0    0  501 -0.00000000000E+00  0.00000000000E+00  0.22025046438E+03  0.22025046439E+03  0.25500000000E-02 0. -1.
          2   -1    0    0  501    0  0.00000000000E+00 -0.00000000000E+00 -0.30420180389E+04  0.30420180389E+04  0.25500000000E-02 0.  1.
     200001    2    1    2    0    0 -0.12418167619E+03 -0.10931389576E+02 -0.22193674885E+04  0.23303744924E+04  0.69965180032E+03 0.  0.
    5000001    2    3    3    0    0 -0.28058012444E+02 -0.10417090803E+03 -0.59176319440E+03  0.62244325701E+03  0.16004093168E+03 0.  0.
        -13    1    4    4    0    0  0.26134297560E+02  0.28158933482E+02 -0.62328422928E+02  0.73217282881E+02  0.10566000000E+00 0. -1.
     200003    1    4    4    0    0 -0.54192310004E+02 -0.13232984151E+03 -0.52943477147E+03  0.54922597413E+03  0.30000000000E+02 0. -1.
     200000    1    3    3    0    0 -0.96123663748E+02  0.93239518450E+02 -0.16276042941E+04  0.17079312353E+04  0.50000000000E+03 0.  1.
    -200001    1    1    2    0    0  0.12418167619E+03  0.10931389576E+02 -0.60240008605E+03  0.93189401095E+03  0.70000000000E+03 0.  1.
<mgrwt>
<rscale>  0 0.16370777E+04</rscale>
<asrwt>0</asrwt>
<pdfrwt beam="1">  1        2 0.43457398E+00 0.16370777E+04</pdfrwt>
<pdfrwt beam="2">  1       -2 0.31464354E-01 0.16370777E+04</pdfrwt>
<totfact> 0.20145428E+01</totfact>
</mgrwt>
</event>
<event>
 8    1  0.7623533E-028  0.2285408E+04  0.7818608E-02  0.8483697E-01
          2   -1    0    0  501    0  0.00000000000E+00  0.00000000000E+00  0.14196794895E+04  0.14196794895E+04  0.25500000000E-02 0.  1.
         -2   -1    0    0    0  501 -0.00000000000E+00 -0.00000000000E+00 -0.91976547353E+03  0.91976547354E+03  0.25500000000E-02 0. -1.
     200001    2    1    2    0    0  0.72142508384E+03 -0.18950943996E+03 -0.27152740908E+03  0.10582385582E+04  0.69983836193E+03 0.  0.
    5000001    2    3    3    0    0  0.24043694895E+03 -0.96076527813E+02 -0.18990676318E+03  0.35343984597E+03  0.14769739469E+03 0.  0.
        -13    1    4    4    0    0  0.17479465196E+03 -0.10508192831E+03 -0.19279294324E+03  0.28065015970E+03  0.10566000000E+00 0. -1.
     200003    1    4    4    0    0  0.65642296988E+02  0.90054004967E+01  0.28861800574E+01  0.72789686270E+02  0.30000000000E+02 0. -1.
     200000    1    3    3    0    0  0.48098813489E+03 -0.93432912144E+02 -0.81620645892E+02  0.70479871227E+03  0.50000000000E+03 0. -1.
    -200001    1    1    2    0    0 -0.72142508384E+03  0.18950943996E+03  0.77144142503E+03  0.12812064048E+04  0.70000000000E+03 0.  1.
<mgrwt>
<rscale>  0 0.22854078E+04</rscale>
<asrwt>0</asrwt>
<pdfrwt beam="1">  1        2 0.20281136E+00 0.22854078E+04</pdfrwt>
<pdfrwt beam="2">  1       -2 0.13139507E+00 0.22854078E+04</pdfrwt>
<totfact> 0.62274032E+00</totfact>
</mgrwt>
</event>
<event>
 8    1  0.7623533E-028  0.1886686E+04  0.7818608E-02  0.8661512E-01
          2   -1    0    0  501    0  0.00000000000E+00  0.00000000000E+00  0.20843534254E+04  0.20843534254E+04  0.25500000000E-02 0.  1.
         -2   -1    0    0    0  501 -0.00000000000E+00 -0.00000000000E+00 -0.42694109378E+03  0.42694109378E+03  0.25500000000E-02 0. -1.
     200001    2    1    2    0    0  0.32677649008E+03  0.29466089749E+03  0.14334643322E+04  0.16546962321E+04  0.69970830356E+03 0.  0.
    5000001    2    3    3    0    0  0.17812169680E+03  0.11819663384E+03  0.61690196753E+03  0.66980437043E+03  0.14957297209E+03 0.  0.
        -13    1    4    4    0    0  0.69589782729E+02  0.18619873739E+02  0.62452205764E+02  0.95340058355E+02  0.10566000000E+00 0. -1.
     200003    1    4    4    0    0  0.10853191407E+03  0.99576760106E+02  0.55444976177E+03  0.57446431208E+03  0.30000000000E+02 0. -1.
     200000    1    3    3    0    0  0.14865479327E+03  0.17646426365E+03  0.81656236463E+03  0.98489186169E+03  0.50000000000E+03 0.  1.
    -200001    1    1    2    0    0 -0.32677649008E+03 -0.29466089749E+03  0.22394799951E+03  0.85659828710E+03  0.70000000000E+03 0. -1.
<mgrwt>
<rscale>  0 0.18866861E+04</rscale>
<asrwt>0</asrwt>
<pdfrwt beam="1">  1        2 0.29776478E+00 0.18866861E+04</pdfrwt>
<pdfrwt beam="2">  1       -2 0.60991583E-01 0.18866861E+04</pdfrwt>
<totfact> 0.17075569E+01</totfact>
</mgrwt>
</event>
<event>
 8    1  0.7623533E-028  0.1954998E+04  0.7818608E-02  0.8627954E-01
         -2   -1    0    0    0  501 -0.00000000000E+00  0.00000000000E+00  0.59811342646E+03  0.59811342647E+03  0.25500000000E-02 0. -1.
          2   -1    0    0  501    0  0.00000000000E+00 -0.00000000000E+00 -0.15975306868E+04  0.15975306868E+04  0.25500000000E-02 0.  1.
     200001    2    1    2    0    0  0.91496307881E+02  0.67589955257E+03 -0.47275811554E+03  0.10854271821E+04  0.69959999449E+03 0.  0.
    5000001    2    3    3    0    0  0.62240329917E+02  0.31105581433E+03 -0.85413565163E+02  0.35467232149E+03  0.13366899499E+03 0.  0.
        -13    1    4    4    0    0  0.87973435567E+02  0.26572177177E+03 -0.48424844956E+02  0.28406401062E+03  0.10566000000E+00 0. -1.
     200003    1    4    4    0    0 -0.25733105650E+02  0.45334042563E+02 -0.36988720207E+02  0.70608310871E+02  0.30000000000E+02 0. -1.
     200000    1    3    3    0    0  0.29255977964E+02  0.36484373823E+03 -0.38734455038E+03  0.73075486060E+03  0.50000000000E+03 0.  1.
    -200001    1    1    2    0    0 -0.91496307881E+02 -0.67589955257E+03 -0.52665914483E+03  0.11102169312E+04  0.70000000000E+03 0. -1.
<mgrwt>
<rscale>  0 0.19549983E+04</rscale>
<asrwt>0</asrwt>
<pdfrwt beam="1">  1        2 0.22821867E+00 0.19549983E+04</pdfrwt>
<pdfrwt beam="2">  1       -2 0.85444776E-01 0.19549983E+04</pdfrwt>
<totfact> 0.14464484E+01</totfact>
</mgrwt>
</event>
<event>
 8    1  0.7623533E-028  0.1801406E+04  0.7818608E-02  0.8705552E-01
         -2   -1    0    0    0  501 -0.00000000000E+00  0.00000000000E+00  0.79617241923E+03  0.79617241923E+03  0.25500000000E-02 0. -1.
          2   -1    0    0  501    0  0.00000000000E+00 -0.00000000000E+00 -0.10189575606E+04  0.10189575606E+04  0.25500000000E-02 0.  1.
     200001    2    1    2    0    0  0.14414730872E+03  0.20175174600E+03 -0.62480872212E+03  0.97067443153E+03  0.70024331425E+03 0.  0.
    5000001    2    3    3    0    0 -0.96844019304E+01  0.65032903224E+02 -0.17648482127E+03  0.26828525362E+03  0.19106810050E+03 0.  0.
        -13    1    4    4    0    0  0.16402767067E+02 -0.38514370061E+02  0.17064987533E+02  0.45206552978E+02  0.10566000000E+00 0. -1.
     200003    1    4    4    0    0 -0.26087168997E+02  0.10354727328E+03 -0.19354980880E+03  0.22307870064E+03  0.30000000000E+02 0. -1.
     200000    1    3    3    0    0  0.15383171065E+03  0.13671884278E+03 -0.44832390086E+03  0.70238917791E+03  0.50000000000E+03 0.  1.
    -200001    1    1    2    0    0 -0.14414730872E+03 -0.20175174600E+03  0.40202358074E+03  0.84445554832E+03  0.70000000000E+03 0. -1.
<mgrwt>
<rscale>  0 0.18014060E+04</rscale>
<asrwt>0</asrwt>
<pdfrwt beam="1">  1        2 0.14556537E+00 0.18014060E+04</pdfrwt>
<pdfrwt beam="2">  1       -2 0.11373892E+00 0.18014060E+04</pdfrwt>
<totfact> 0.15683554E+01</totfact>
</mgrwt>
</event>
<event>
 8    1  0.7623533E-028  0.2447166E+04  0.7818608E-02  0.8422053E-01
         -2   -1    0    0    0  501 -0.00000000000E+00  0.00000000000E+00  0.51388262216E+03  0.51388262216E+03  0.25500000000E-02 0. -1.
          2   -1    0    0  501    0  0.00000000000E+00 -0.00000000000E+00 -0.29134192569E+04  0.29134192569E+04  0.25500000000E-02 0.  1.
     200001    2    1    2    0    0 -0.45871516436E+03  0.76934703660E+03 -0.18336203287E+04  0.21574295508E+04  0.70001735120E+03 0.  0.
    5000001    2    3    3    0    0 -0.12730872260E+03  0.26962986810E+03 -0.52300827956E+03  0.63189639103E+03  0.19195731787E+03 0.  0.
        -13    1    4    4    0    0 -0.55209349529E+02  0.14767060735E+03 -0.10476120896E+03  0.18928709046E+03  0.10566000000E+00 0. -1.
     200003    1    4    4    0    0 -0.72099373072E+02  0.12195926076E+03 -0.41824707060E+03  0.44260930056E+03  0.30000000000E+02 0. -1.
     200000    1    3    3    0    0 -0.33140644176E+03  0.49971716850E+03 -0.13106120491E+04  0.15255331597E+04  0.50000000000E+03 0. -1.
    -200001    1    1    2    0    0  0.45871516436E+03 -0.76934703660E+03 -0.56591630608E+03  0.12698723283E+04  0.70000000000E+03 0.  1.
<mgrwt>
<rscale>  0 0.24471661E+04</rscale>
<asrwt>0</asrwt>
<pdfrwt beam="1">  1        2 0.41620274E+00 0.24471661E+04</pdfrwt>
<pdfrwt beam="2">  1       -2 0.73411805E-01 0.24471661E+04</pdfrwt>
<totfact> 0.39731380E+00</totfact>
</mgrwt>
</event>
<event>
 8    1  0.7623533E-028  0.1674566E+04  0.7818608E-02  0.8776005E-01
          2   -1    0    0  501    0  0.00000000000E+00  0.00000000000E+00  0.23178856418E+04  0.23178856418E+04  0.25500000000E-02 0.  1.
         -2   -1    0    0    0  501 -0.00000000000E+00 -0.00000000000E+00 -0.30244938099E+03  0.30244938100E+03  0.25500000000E-02 0. -1.
     200001    2    1    2    0    0  0.12507946584E+03  0.42282396082E+03  0.12095560672E+04  0.14654030503E+04  0.69996803186E+03 0.  0.
    5000001    2    3    3    0    0  0.40733319305E+02  0.15914056779E+03  0.32894079485E+03  0.41558094060E+03  0.19370221490E+03 0.  0.
        -13    1    4    4    0    0 -0.56232534802E+02  0.70803685737E+02  0.44189330340E+02  0.10063780584E+03  0.10566000000E+00 0. -1.
     200003    1    4    4    0    0  0.96965854106E+02  0.88336882050E+02  0.28475146451E+03  0.31494313476E+03  0.30000000000E+02 0. -1.
     200000    1    3    3    0    0  0.84346146535E+02  0.26368339303E+03  0.88061527232E+03  0.10498221097E+04  0.50000000000E+03 0.  1.
    -200001    1    1    2    0    0 -0.12507946584E+03 -0.42282396082E+03  0.80588019369E+03  0.11549319725E+04  0.70000000000E+03 0. -1.
<mgrwt>
<rscale>  0 0.16745663E+04</rscale>
<asrwt>0</asrwt>
<pdfrwt beam="1">  1        2 0.33112650E+00 0.16745663E+04</pdfrwt>
<pdfrwt beam="2">  1       -2 0.43207057E-01 0.16745663E+04</pdfrwt>
<totfact> 0.26666943E+01</totfact>
</mgrwt>
</event>
<event>
 8    1  0.7623533E-028  0.5124070E+04  0.7818608E-02  0.7809648E-01
         -2   -1    0    0    0  501 -0.00000000000E+00  0.00000000000E+00  0.17746229832E+04  0.17746229832E+04  0.25500000000E-02 0. -1.
          2   -1    0    0  501    0  0.00000000000E+00 -0.00000000000E+00 -0.36988265458E+04  0.36988265458E+04  0.25500000000E-02 0.  1.
     200001    2    1    2    0    0 -0.13595963297E+04  0.20525995697E+04 -0.10796740904E+04  0.27781022039E+04  0.70034887091E+03 0.  0.
    5000001    2    3    3    0    0 -0.36024801434E+03  0.52015460814E+03 -0.29542650630E+03  0.72575503822E+03  0.19774758322E+03 0.  0.
        -13    1    4    4    0    0 -0.95059152016E+02  0.11461846073E+03 -0.16666297704E+03  0.22349539817E+03  0.10566000000E+00 0. -1.
     200003    1    4    4    0    0 -0.26518886233E+03  0.40553614740E+03 -0.12876352926E+03  0.50225964005E+03  0.30000000000E+02 0. -1.
     200000    1    3    3    0    0 -0.99934831537E+03  0.15324449615E+04 -0.78424758405E+03  0.20523471657E+04  0.50000000000E+03 0.  1.
    -200001    1    1    2    0    0  0.13595963297E+04 -0.20525995697E+04 -0.84452947227E+03  0.26953473251E+04  0.70000000000E+03 0.  1.
<mgrwt>
<rscale>  0 0.51240697E+04</rscale>
<asrwt>0</asrwt>
<pdfrwt beam="1">  1        2 0.52840379E+00 0.51240697E+04</pdfrwt>
<pdfrwt beam="2">  1       -2 0.25351757E+00 0.51240697E+04</pdfrwt>
<totfact> 0.40283810E-02</totfact>
</mgrwt>
</event>
<event>
 8    1  0.7623533E-028  0.1957352E+04  0.7818608E-02  0.8626824E-01
         -2   -1    0    0    0  501 -0.00000000000E+00  0.00000000000E+00  0.80177693782E+03  0.80177693783E+03  0.25500000000E-02 0. -1.
          2   -1    0    0  501    0  0.00000000000E+00 -0.00000000000E+00 -0.11946047724E+04  0.11946047724E+04  0.25500000000E-02 0.  1.
     200001    2    1    2    0    0 -0.30211032102E+03  0.21562674511E+03 -0.78235495938E+03  0.11134904824E+04  0.70001159471E+03 0.  0.
    5000001    2    3    3    0    0 -0.10605906413E+03  0.87687894210E+02 -0.21785592304E+03  0.32389336558E+03  0.19623459734E+03 0.  0.
        -13    1    4    4    0    0  0.49670498160E+02  0.13872433495E+02 -0.10135195464E+03  0.11371821609E+03  0.10566000000E+00 0. -1.
     200003    1    4    4    0    0 -0.15572956229E+03  0.73815460715E+02 -0.11650396840E+03  0.21017514949E+03  0.30000000000E+02 0. -1.
     200000    1    3    3    0    0 -0.19605125689E+03  0.12793885090E+03 -0.56449903635E+03  0.78959711685E+03  0.50000000000E+03 0.  1.
    -200001    1    1    2    0    0  0.30211032102E+03 -0.21562674511E+03  0.38952712477E+03  0.88289122784E+03  0.70000000000E+03 0. -1.
<mgrwt>
<rscale>  0 0.19573518E+04</rscale>
<asrwt>0</asrwt>
<pdfrwt beam="1">  1        2 0.17065782E+00 0.19573518E+04</pdfrwt>
<pdfrwt beam="2">  1       -2 0.11453956E+00 0.19573518E+04</pdfrwt>
<totfact> 0.11995510E+01</totfact>
</mgrwt>
</event>
<event>
 8    1  0.7623533E-028  0.1641179E+04  0.7818608E-02  0.8795642E-01
          2   -1    0    0  501    0  0.00000000000E+00  0.00000000000E+00  0.24360061870E+04  0.24360061870E+04  0.25500000000E-02 0.  1.
         -2   -1    0    0    0  501 -0.00000000000E+00 -0.00000000000E+00 -0.27642247433E+03  0.27642247434E+03  0.25500000000E-02 0. -1.
     200001    2    1    2    0    0  0.15942315781E+03  0.35823396633E+03  0.79577190449E+03  0.11301107521E+04  0.70010718471E+03 0.  0.
    5000001    2    3    3    0    0 -0.72917478139E+02  0.11888040049E+03  0.24741413518E+03  0.31649625874E+03  0.13966609922E+03 0.  0.
        -13    1    4    4    0    0 -0.38309038631E+02  0.13882224681E+03  0.20738194533E+03  0.25248065483E+03  0.10566000000E+00 0. -1.
     200003    1    4    4    0    0 -0.34608439508E+02 -0.19941846320E+02  0.40032189845E+02  0.64015603907E+02  0.30000000000E+02 0. -1.
     200000    1    3    3    0    0  0.23234063595E+03  0.23935356584E+03  0.54835776931E+03  0.81361449333E+03  0.50000000000E+03 0.  1.
    -200001    1    1    2    0    0 -0.15942315781E+03 -0.35823396633E+03  0.13638118082E+04  0.15823179093E+04  0.70000000000E+03 0.  1.
<mgrwt>
<rscale>  0 0.16411787E+04</rscale>
<asrwt>0</asrwt>
<pdfrwt beam="1">  1        2 0.34800087E+00 0.16411787E+04</pdfrwt>
<pdfrwt beam="2">  1       -2 0.39488926E-01 0.16411787E+04</pdfrwt>
<totfact> 0.27697869E+01</totfact>
</mgrwt>
</event>
<event>
 8    1  0.7623533E-028  0.1493698E+04  0.7818608E-02  0.8888655E-01
         -2   -1    0    0    0  501 -0.00000000000E+00  0.00000000000E+00  0.12597174437E+04  0.12597174437E+04  0.25500000000E-02 0. -1.
          2   -1    0    0  501    0  0.00000000000E+00 -0.00000000000E+00 -0.44278455065E+03  0.44278455065E+03  0.25500000000E-02 0.  1.
     200001    2    1    2    0    0  0.79003509738E+02 -0.17746895771E+03  0.21054891691E+03  0.75622597120E+03  0.69986433514E+03 0.  0.
    5000001    2    3    3    0    0  0.48633743605E+02 -0.92356825978E+02  0.54525213528E+02  0.22470946752E+03  0.19138004484E+03 0.  0.
        -13    1    4    4    0    0  0.65430953021E+02 -0.74458487002E+02  0.11565885537E+03  0.15232287382E+03  0.10566000000E+00 0. -1.
     200003    1    4    4    0    0 -0.16797209417E+02 -0.17898338977E+02 -0.61133641843E+02  0.72386593699E+02  0.30000000000E+02 0. -1.
     200000    1    3    3    0    0  0.30369766133E+02 -0.85112131732E+02  0.15602370339E+03  0.53151650368E+03  0.50000000000E+03 0.  1.
    -200001    1    1    2    0    0 -0.79003509738E+02  0.17746895771E+03  0.60638397616E+03  0.94627602318E+03  0.70000000000E+03 0.  1.
<mgrwt>
<rscale>  0 0.14936980E+04</rscale>
<asrwt>0</asrwt>
<pdfrwt beam="1">  1        2 0.63254937E-01 0.14936980E+04</pdfrwt>
<pdfrwt beam="2">  1       -2 0.17995963E+00 0.14936980E+04</pdfrwt>
<totfact> 0.13538891E+01</totfact>
</mgrwt>
</event>
<event>
 8    1  0.7623533E-028  0.1862874E+04  0.7818608E-02  0.8673560E-01
         -2   -1    0    0    0  501 -0.00000000000E+00  0.00000000000E+00  0.42454201795E+03  0.42454201796E+03  0.25500000000E-02 0. -1.
          2   -1    0    0  501    0  0.00000000000E+00 -0.00000000000E+00 -0.20435556002E+04  0.20435556002E+04  0.25500000000E-02 0.  1.
     200001    2    1    2    0    0  0.58462680801E+03 -0.53854551171E+02 -0.10493747373E+04  0.13914466854E+04  0.70017692167E+03 0.  0.
    5000001    2    3    3    0    0  0.10888041554E+03  0.39356866811E+02 -0.12875019370E+03  0.23707562343E+03  0.16193928180E+03 0.  0.
        -13    1    4    4    0    0  0.12508118829E+03  0.30018352464E+02 -0.14859371824E+03  0.19653628014E+03  0.10566000000E+00 0. -1.
     200003    1    4    4    0    0 -0.16200772748E+02  0.93385143474E+01  0.19843524537E+02  0.40539343284E+02  0.30000000000E+02 0. -1.
     200000    1    3    3    0    0  0.47574639247E+03 -0.93211417982E+02 -0.92062454362E+03  0.11543710620E+04  0.50000000000E+03 0.  1.
    -200001    1    1    2    0    0 -0.58462680801E+03  0.53854551171E+02 -0.56963884488E+03  0.10766509327E+04  0.70000000000E+03 0. -1.
<mgrwt>
<rscale>  0 0.18628744E+04</rscale>
<asrwt>0</asrwt>
<pdfrwt beam="1">  1        2 0.29193651E+00 0.18628744E+04</pdfrwt>
<pdfrwt beam="2">  1       -2 0.60648861E-01 0.18628744E+04</pdfrwt>
<totfact> 0.18172046E+01</totfact>
</mgrwt>
</event>
<event>
 8    1  0.7623533E-028  0.1543057E+04  0.7818608E-02  0.8856315E-01
         -2   -1    0    0    0  501 -0.00000000000E+00  0.00000000000E+00  0.69429573926E+03  0.69429573927E+03  0.25500000000E-02 0. -1.
          2   -1    0    0  501    0  0.00000000000E+00 -0.00000000000E+00 -0.85735253855E+03  0.85735253855E+03  0.25500000000E-02 0.  1.
     200001    2    1    2    0    0 -0.31223180136E+03 -0.79466230047E+02 -0.11041725771E+03  0.77926592378E+03  0.70089930066E+03 0.  0.
    5000001    2    3    3    0    0 -0.17105592228E+03  0.49149942047E+02  0.38847712369E+02  0.22361065309E+03  0.12967935096E+03 0.  0.
        -13    1    4    4    0    0 -0.70919258951E+02  0.23902778879E+01 -0.42891715337E+02  0.82915409467E+02  0.10566000000E+00 0. -1.
     200003    1    4    4    0    0 -0.10013666333E+03  0.46759664159E+02  0.81739427706E+02  0.14069524362E+03  0.30000000000E+02 0. -1.
     200000    1    3    3    0    0 -0.14117587908E+03 -0.12861617209E+03 -0.14926497008E+03  0.55565527069E+03  0.50000000000E+03 0.  1.
    -200001    1    1    2    0    0  0.31223180136E+03  0.79466230047E+02 -0.52639541577E+02  0.77238235404E+03  0.70000000000E+03 0.  1.
<mgrwt>
<rscale>  0 0.15430570E+04</rscale>
<asrwt>0</asrwt>
<pdfrwt beam="1">  1        2 0.12247893E+00 0.15430570E+04</pdfrwt>
<pdfrwt beam="2">  1       -2 0.99185106E-01 0.15430570E+04</pdfrwt>
<totfact> 0.28217905E+01</totfact>
</mgrwt>
</event>
<event>
 8    1  0.7623533E-028  0.1913935E+04  0.7818608E-02  0.8647951E-01
         -2   -1    0    0    0  501 -0.00000000000E+00  0.00000000000E+00  0.77929171590E+03  0.77929171591E+03  0.25500000000E-02 0. -1.
          2   -1    0    0  501    0  0.00000000000E+00 -0.00000000000E+00 -0.11751528239E+04  0.11751528239E+04  0.25500000000E-02 0.  1.
     200001    2    1    2    0    0  0.34946727834E+02 -0.61983851227E+03 -0.40388580818E+03  0.10187707447E+04  0.69953486630E+03 0.  0.
    5000001    2    3    3    0    0  0.26069372737E+02 -0.11671876178E+03 -0.14941878934E+03  0.26513837118E+03  0.18349250589E+03 0.  0.
        -13    1    4    4    0    0 -0.52492336742E+02 -0.31709876526E+02  0.13746044287E+02  0.62848441377E+02  0.10566000000E+00 0. -1.
     200003    1    4    4    0    0  0.78561709479E+02 -0.85008885257E+02 -0.16316483363E+03  0.20228992981E+03  0.30000000000E+02 0. -1.
     200000    1    3    3    0    0  0.88773550969E+01 -0.50311975048E+03 -0.25446701885E+03  0.75363237354E+03  0.50000000000E+03 0.  1.
    -200001    1    1    2    0    0 -0.34946727834E+02  0.61983851227E+03  0.80247001550E+01  0.93567379513E+03  0.70000000000E+03 0. -1.
<mgrwt>
<rscale>  0 0.19139351E+04</rscale>
<asrwt>0</asrwt>
<pdfrwt beam="1">  1        2 0.16787897E+00 0.19139351E+04</pdfrwt>
<pdfrwt beam="2">  1       -2 0.11132739E+00 0.19139351E+04</pdfrwt>
<totfact> 0.13234635E+01</totfact>
</mgrwt>
</event>
<event>
 8    1  0.7623533E-028  0.1760359E+04  0.7818608E-02  0.8727669E-01
          2   -1    0    0  501    0  0.00000000000E+00  0.00000000000E+00  0.12265321026E+04  0.12265321026E+04  0.25500000000E-02 0.  1.
         -2   -1    0    0    0  501 -0.00000000000E+00 -0.00000000000E+00 -0.63163122288E+03  0.63163122288E+03  0.25500000000E-02 0. -1.
     200001    2    1    2    0    0 -0.11972663610E+03  0.37936440135E+03  0.67307211687E+03  0.10492365311E+04  0.69972809520E+03 0.  0.
    5000001    2    3    3    0    0  0.69616895469E+01  0.99605525048E+02  0.21464178711E+03  0.30460687280E+03  0.19168861323E+03 0.  0.
        -13    1    4    4    0    0  0.70148692641E+02  0.10349250080E+03  0.19536828652E+03  0.23194894987E+03  0.10566000000E+00 0. -1.
     200003    1    4    4    0    0 -0.63187003094E+02 -0.38869757548E+01  0.19273500592E+02  0.72657922937E+02  0.30000000000E+02 0. -1.
     200000    1    3    3    0    0 -0.12668832565E+03  0.27975887630E+03  0.45843032976E+03  0.74462965827E+03  0.50000000000E+03 0.  1.
    -200001    1    1    2    0    0  0.11972663610E+03 -0.37936440135E+03 -0.78171237147E+02  0.80892679442E+03  0.70000000000E+03 0. -1.
<mgrwt>
<rscale>  0 0.17603590E+04</rscale>
<asrwt>0</asrwt>
<pdfrwt beam="1">  1        2 0.17521887E+00 0.17603590E+04</pdfrwt>
<pdfrwt beam="2">  1       -2 0.90233032E-01 0.17603590E+04</pdfrwt>
<totfact> 0.20599313E+01</totfact>
</mgrwt>
</event>
<event>
 8    1  0.7623533E-028  0.1905436E+04  0.7818608E-02  0.8652155E-01
          2   -1    0    0  501    0  0.00000000000E+00  0.00000000000E+00  0.37645863419E+03  0.37645863420E+03  0.25500000000E-02 0.  1.
         -2   -1    0    0    0  501 -0.00000000000E+00 -0.00000000000E+00 -0.24110781531E+04  0.24110781531E+04  0.25500000000E-02 0. -1.
     200001    2    1    2    0    0  0.17072508693E+03 -0.59821826539E+03 -0.12748806212E+04  0.15816282746E+04  0.69943924127E+03 0.  0.
    5000001    2    3    3    0    0  0.72665747570E+02 -0.20053879265E+03 -0.28190384947E+03  0.39682134250E+03  0.18028111184E+03 0.  0.
        -13    1    4    4    0    0  0.13911806725E+02  0.29266929092E+02 -0.70841177404E+02  0.77901059587E+02  0.10566000000E+00 0. -1.
     200003    1    4    4    0    0  0.58753940845E+02 -0.22980572174E+03 -0.21106267207E+03  0.31892028291E+03  0.30000000000E+02 0. -1.
     200000    1    3    3    0    0  0.98059339357E+02 -0.39767947274E+03 -0.99297677176E+03  0.11848069321E+04  0.50000000000E+03 0. -1.
    -200001    1    1    2    0    0 -0.17072508693E+03  0.59821826539E+03 -0.75973889763E+03  0.12059085127E+04  0.70000000000E+03 0.  1.
<mgrwt>
<rscale>  0 0.19054356E+04</rscale>
<asrwt>0</asrwt>
<pdfrwt beam="1">  1        2 0.53779806E-01 0.19054356E+04</pdfrwt>
<pdfrwt beam="2">  1       -2 0.34443973E+00 0.19054356E+04</pdfrwt>
<totfact> 0.14698358E+00</totfact>
</mgrwt>
</event>
<event>
 8    1  0.7623533E-028  0.1906166E+04  0.7818608E-02  0.8651793E-01
         -2   -1    0    0    0  501 -0.00000000000E+00  0.00000000000E+00  0.49795798202E+03  0.49795798203E+03  0.25500000000E-02 0. -1.
          2   -1    0    0  501    0  0.00000000000E+00 -0.00000000000E+00 -0.18241838608E+04  0.18241838608E+04  0.25500000000E-02 0.  1.
     200001    2    1    2    0    0  0.77050232028E+02  0.52973316848E+03 -0.22069423907E+03  0.90836881491E+03  0.69990998614E+03 0.  0.
    5000001    2    3    3    0    0  0.10521069397E+03  0.25615564540E+02 -0.11611615215E+03  0.19013198316E+03  0.10460288217E+03 0.  0.
        -13    1    4    4    0    0  0.76574923362E+01 -0.49557046455E+01 -0.75596463375E+02  0.76144813587E+02  0.10566000000E+00 0. -1.
     200003    1    4    4    0    0  0.97553201637E+02  0.30571269186E+02 -0.40519688777E+02  0.11398716958E+03  0.30000000000E+02 0. -1.
     200000    1    3    3    0    0 -0.28160461946E+02  0.50411760394E+03 -0.10457808692E+03  0.71823683175E+03  0.50000000000E+03 0. -1.
    -200001    1    1    2    0    0 -0.77050232028E+02 -0.52973316848E+03 -0.11055316397E+04  0.14137730279E+04  0.70000000000E+03 0.  1.
<mgrwt>
<rscale>  0 0.19061657E+04</rscale>
<asrwt>0</asrwt>
<pdfrwt beam="1">  1        2 0.26059769E+00 0.19061657E+04</pdfrwt>
<pdfrwt beam="2">  1       -2 0.71136856E-01 0.19061657E+04</pdfrwt>
<totfact> 0.16665691E+01</totfact>
</mgrwt>
</event>
<event>
 8    1  0.7623533E-028  0.1460393E+04  0.7818608E-02  0.8911227E-01
         -2   -1    0    0    0  501 -0.00000000000E+00  0.00000000000E+00  0.87553298922E+03  0.87553298923E+03  0.25500000000E-02 0.  1.
          2   -1    0    0  501    0  0.00000000000E+00 -0.00000000000E+00 -0.60898587696E+03  0.60898587697E+03  0.25500000000E-02 0. -1.
     200001    2    1    2    0    0  0.14993945712E+03  0.87445832938E+02  0.25348417341E+03  0.76320114502E+03  0.69863663452E+03 0.  0.
    5000001    2    3    3    0    0  0.67773194872E+02  0.85693418352E+01 -0.35286624369E+02  0.17467640540E+03  0.15684406645E+03 0.  0.
        -13    1    4    4    0    0  0.19698106953E+02  0.15008358086E+01  0.60231721293E+02  0.63388795063E+02  0.10566000000E+00 0. -1.
     200003    1    4    4    0    0  0.48075087919E+02  0.70685060266E+01 -0.95518345662E+02  0.11128761033E+03  0.30000000000E+02 0. -1.
     200000    1    3    3    0    0  0.82166262250E+02  0.78876491103E+02  0.28877079778E+03  0.58852473963E+03  0.50000000000E+03 0. -1.
    -200001    1    1    2    0    0 -0.14993945712E+03 -0.87445832938E+02  0.13062938844E+02  0.72131772117E+03  0.70000000000E+03 0. -1.
<mgrwt>
<rscale>  0 0.14603934E+04</rscale>
<asrwt>0</asrwt>
<pdfrwt beam="1">  1        2 0.86997982E-01 0.14603934E+04</pdfrwt>
<pdfrwt beam="2">  1       -2 0.12507614E+00 0.14603934E+04</pdfrwt>
<totfact> 0.24771834E+01</totfact>
</mgrwt>
</event>
<event>
 8    1  0.7623533E-028  0.1630147E+04  0.7818608E-02  0.8802239E-01
         -2   -1    0    0    0  501 -0.00000000000E+00  0.00000000000E+00  0.33496367075E+03  0.33496367076E+03  0.25500000000E-02 0. -1.
          2   -1    0    0  501    0  0.00000000000E+00 -0.00000000000E+00 -0.19833333111E+04  0.19833333111E+04  0.25500000000E-02 0.  1.
     200001    2    1    2    0    0 -0.24899157871E+03 -0.88976897183E+02 -0.35899810708E+03  0.82752783631E+03  0.69714344613E+03 0.  0.
    5000001    2    3    3    0    0 -0.76691875666E+02 -0.11849524496E+03 -0.98188873179E+02  0.23712121625E+03  0.16328701574E+03 0.  0.
        -13    1    4    4    0    0 -0.83397216851E+02 -0.84517194853E+02 -0.13394868598E+03  0.17899864146E+03  0.10566000000E+00 0. -1.
     200003    1    4    4    0    0  0.67053411851E+01 -0.33978050103E+02  0.35759812800E+02  0.58122574794E+02  0.30000000000E+02 0.  1.
     200000    1    3    3    0    0 -0.17229970304E+03  0.29518347773E+02 -0.26080923390E+03  0.59040662006E+03  0.50000000000E+03 0. -1.
    -200001    1    1    2    0    0  0.24899157871E+03  0.88976897183E+02 -0.12893715333E+04  0.14907691455E+04  0.70000000000E+03 0.  1.
<mgrwt>
<rscale>  0 0.16301467E+04</rscale>
<asrwt>0</asrwt>
<pdfrwt beam="1">  1        2 0.28333332E+00 0.16301467E+04</pdfrwt>
<pdfrwt beam="2">  1       -2 0.47851954E-01 0.16301467E+04</pdfrwt>
<totfact> 0.32460635E+01</totfact>
</mgrwt>
</event>
<event>
 8    1  0.7623533E-028  0.1684986E+04  0.7818608E-02  0.8769974E-01
          2   -1    0    0  501    0  0.00000000000E+00  0.00000000000E+00  0.14109720754E+04  0.14109720754E+04  0.25500000000E-02 0.  1.
         -2   -1    0    0    0  501 -0.00000000000E+00 -0.00000000000E+00 -0.50305365935E+03  0.50305365936E+03  0.25500000000E-02 0. -1.
     200001    2    1    2    0    0 -0.64313569660E+02  0.23693745167E+03  0.90774366680E+03  0.11722200852E+04  0.69987554051E+03 0.  0.
    5000001    2    3    3    0    0  0.10571883227E+02  0.12922150059E+03  0.30575288165E+03  0.37874452626E+03  0.18207863852E+03 0.  0.
        -13    1    4    4    0    0 -0.11957128680E+02 -0.31864189923E+02  0.14191042395E+03  0.14593450283E+03  0.10566000000E+00 0. -1.
     200003    1    4    4    0    0  0.22529011907E+02  0.16108569051E+03  0.16384245769E+03  0.23281002342E+03  0.30000000000E+02 0. -1.
     200000    1    3    3    0    0 -0.74885452887E+02  0.10771595108E+03  0.60199078515E+03  0.79347555891E+03  0.50000000000E+03 0.  1.
    -200001    1    1    2    0    0  0.64313569660E+02 -0.23693745167E+03  0.17474925051E+00  0.74180564960E+03  0.70000000000E+03 0.  1.
<mgrwt>
<rscale>  0 0.16849863E+04</rscale>
<asrwt>0</asrwt>
<pdfrwt beam="1">  1        2 0.20156744E+00 0.16849863E+04</pdfrwt>
<pdfrwt beam="2">  1       -2 0.71864809E-01 0.16849863E+04</pdfrwt>
<totfact> 0.27352395E+01</totfact>
</mgrwt>
</event>
<event>
 8    1  0.7623533E-028  0.1842843E+04  0.7818608E-02  0.8683842E-01
          2   -1    0    0  501    0  0.00000000000E+00  0.00000000000E+00  0.11109082838E+04  0.11109082838E+04  0.25500000000E-02 0.  1.
         -2   -1    0    0    0  501 -0.00000000000E+00 -0.00000000000E+00 -0.76425542341E+03  0.76425542342E+03  0.25500000000E-02 0. -1.
     200001    2    1    2    0    0  0.48266780972E+03 -0.35014761480E+03  0.11518969760E+03  0.92693021153E+03  0.70025665576E+03 0.  0.
    5000001    2    3    3    0    0  0.68981914113E+02 -0.39022166748E+02  0.71611792435E+01  0.19919040540E+03  0.18260421995E+03 0.  0.
        -13    1    4    4    0    0  0.41339562819E+02  0.19379917336E+01 -0.82621363146E+02  0.92406796710E+02  0.10566000000E+00 0. -1.
     200003    1    4    4    0    0  0.27642351294E+02 -0.40960158482E+02  0.89782542389E+02  0.10678360869E+03  0.30000000000E+02 0. -1.
     200000    1    3    3    0    0  0.41368589560E+03 -0.31112544805E+03  0.10802851835E+03  0.72773980613E+03  0.50000000000E+03 0.  1.
    -200001    1    1    2    0    0 -0.48266780972E+03  0.35014761480E+03  0.23146316284E+03  0.94823349574E+03  0.70000000000E+03 0. -1.
<mgrwt>
<rscale>  0 0.18428431E+04</rscale>
<asrwt>0</asrwt>
<pdfrwt beam="1">  1        2 0.15870118E+00 0.18428431E+04</pdfrwt>
<pdfrwt beam="2">  1       -2 0.10917935E+00 0.18428431E+04</pdfrwt>
<totfact> 0.15205266E+01</totfact>
</mgrwt>
</event>
<event>
 8    1  0.7623533E-028  0.1579799E+04  0.7818608E-02  0.8833055E-01
          2   -1    0    0  501    0  0.00000000000E+00  0.00000000000E+00  0.10986258563E+04  0.10986258563E+04  0.25500000000E-02 0.  1.
         -2   -1    0    0    0  501 -0.00000000000E+00 -0.00000000000E+00 -0.56792899058E+03  0.56792899058E+03  0.25500000000E-02 0. -1.
     200001    2    1    2    0    0 -0.37065682923E+02 -0.35499753182E+03  0.18592393703E+03  0.80849570858E+03  0.70121358228E+03 0.  0.
    5000001    2    3    3    0    0  0.19316374623E+02 -0.48137735377E+02  0.11380372631E+03  0.21474222785E+03  0.17456394932E+03 0.  0.
        -13    1    4    4    0    0 -0.45349685693E+02  0.38843226996E+02  0.78379833709E+01  0.60223213326E+02  0.10566000000E+00 0. -1.
     200003    1    4    4    0    0  0.64666060316E+02 -0.86980962373E+02  0.10596574294E+03  0.15451901452E+03  0.30000000000E+02 0. -1.
     200000    1    3    3    0    0 -0.56382057545E+02 -0.30685979645E+03  0.72120210718E+02  0.59375348073E+03  0.50000000000E+03 0. -1.
    -200001    1    1    2    0    0  0.37065682923E+02  0.35499753182E+03  0.34477292868E+03  0.85805913829E+03  0.70000000000E+03 0. -1.
<mgrwt>
<rscale>  0 0.15797993E+04</rscale>
<asrwt>0</asrwt>
<pdfrwt beam="1">  1        2 0.15694655E+00 0.15797993E+04</pdfrwt>
<pdfrwt beam="2">  1       -2 0.81132712E-01 0.15797993E+04</pdfrwt>
<totfact> 0.31555641E+01</totfact>
</mgrwt>
</event>
<event>
 8    1  0.7623533E-028  0.2170322E+04  0.7818608E-02  0.8530883E-01
         -2   -1    0    0    0  501 -0.00000000000E+00  0.00000000000E+00  0.64997624903E+03  0.64997624904E+03  0.25500000000E-02 0. -1.
          2   -1    0    0  501    0  0.00000000000E+00 -0.00000000000E+00 -0.18117196169E+04  0.18117196169E+04  0.25500000000E-02 0.  1.
     200001    2    1    2    0    0 -0.60567018666E+02  0.13854273312E+03 -0.15056941521E+04  0.16672371858E+04  0.69978746870E+03 0.  0.
    5000001    2    3    3    0    0  0.21986365300E+02 -0.60586081683E+02 -0.54769093926E+03  0.56531273198E+03  0.12433441371E+03 0.  0.
        -13    1    4    4    0    0 -0.39620955076E+02  0.78555768964E+01 -0.11414577665E+03  0.12108178914E+03  0.10566000000E+00 0. -1.
     200003    1    4    4    0    0  0.61607320376E+02 -0.68441658579E+02 -0.43354516261E+03  0.44423094284E+03  0.30000000000E+02 0. -1.
     200000    1    3    3    0    0 -0.82553383966E+02  0.19912881480E+03 -0.95800321281E+03  0.11019244538E+04  0.50000000000E+03 0.  1.
    -200001    1    1    2    0    0  0.60567018666E+02 -0.13854273312E+03  0.34395078416E+03  0.79445868022E+03  0.70000000000E+03 0. -1.
<mgrwt>
<rscale>  0 0.21703223E+04</rscale>
<asrwt>0</asrwt>
<pdfrwt beam="1">  1        2 0.25881709E+00 0.21703223E+04</pdfrwt>
<pdfrwt beam="2">  1       -2 0.92853750E-01 0.21703223E+04</pdfrwt>
<totfact> 0.90822029E+00</totfact>
</mgrwt>
</event>
<event>
 8    1  0.7623533E-028  0.1709506E+04  0.7818608E-02  0.8755961E-01
          2   -1    0    0  501    0  0.00000000000E+00  0.00000000000E+00  0.11225128117E+04  0.11225128117E+04  0.25500000000E-02 0.  1.
         -2   -1    0    0    0  501 -0.00000000000E+00 -0.00000000000E+00 -0.65086344692E+03  0.65086344693E+03  0.25500000000E-02 0. -1.
     200001    2    1    2    0    0  0.12319612119E+03 -0.71260201529E+02 -0.24729125622E+03  0.75990158352E+03  0.70430259877E+03 0.  0.
    5000001    2    3    3    0    0 -0.13770504491E+00  0.91658391509E+02 -0.22839224018E+02  0.17498072100E+03  0.14729339045E+03 0.  0.
        -13    1    4    4    0    0  0.35243303520E+02  0.84136988650E+02  0.37391388055E+02  0.98586258509E+02  0.10566000000E+00 0. -1.
     200003    1    4    4    0    0 -0.35381008565E+02  0.75214028584E+01 -0.60230612072E+02  0.76394462487E+02  0.30000000000E+02 0. -1.
     200000    1    3    3    0    0  0.12333382623E+03 -0.16291859304E+03 -0.22445203220E+03  0.58492086252E+03  0.50000000000E+03 0. -1.
    -200001    1    1    2    0    0 -0.12319612119E+03  0.71260201529E+02  0.71894062105E+03  0.10134746752E+04  0.70000000000E+03 0.  1.
<mgrwt>
<rscale>  0 0.17095058E+04</rscale>
<asrwt>0</asrwt>
<pdfrwt beam="1">  1        2 0.16035897E+00 0.17095058E+04</pdfrwt>
<pdfrwt beam="2">  1       -2 0.92980493E-01 0.17095058E+04</pdfrwt>
<totfact> 0.22143875E+01</totfact>
</mgrwt>
</event>
<event>
 8    1  0.7623533E-028  0.1645182E+04  0.7818608E-02  0.8793262E-01
         -2   -1    0    0    0  501 -0.00000000000E+00  0.00000000000E+00  0.84934511193E+03  0.84934511194E+03  0.25500000000E-02 0. -1.
          2   -1    0    0  501    0  0.00000000000E+00 -0.00000000000E+00 -0.79668002462E+03  0.79668002463E+03  0.25500000000E-02 0.  1.
     200001    2    1    2    0    0  0.14216745469E+03 -0.50990027332E+02 -0.37876346688E+03  0.80999752611E+03  0.69987331740E+03 0.  0.
    5000001    2    3    3    0    0 -0.75643477602E+02 -0.66575118896E+02 -0.39300293708E+02  0.16740921059E+03  0.12777773103E+03 0.  0.
        -13    1    4    4    0    0 -0.74086745777E+02 -0.68688310483E+01 -0.61970356976E+02  0.96831622146E+02  0.10566000000E+00 0. -1.
     200003    1    4    4    0    0 -0.15567318255E+01 -0.59706287848E+02  0.22670063269E+02  0.70577588448E+02  0.30000000000E+02 0. -1.
     200000    1    3    3    0    0  0.21781093229E+03  0.15585091563E+02 -0.33946317317E+03  0.64258831552E+03  0.50000000000E+03 0.  1.
    -200001    1    1    2    0    0 -0.14216745469E+03  0.50990027332E+02  0.43142855419E+03  0.83602761045E+03  0.70000000000E+03 0. -1.
<mgrwt>
<rscale>  0 0.16451824E+04</rscale>
<asrwt>0</asrwt>
<pdfrwt beam="1">  1        2 0.11381143E+00 0.16451824E+04</pdfrwt>
<pdfrwt beam="2">  1       -2 0.12133502E+00 0.16451824E+04</pdfrwt>
<totfact> 0.18911412E+01</totfact>
</mgrwt>
</event>
<event>
 8    1  0.7623533E-028  0.2122151E+04  0.7818608E-02  0.8551548E-01
         -2   -1    0    0    0  501 -0.00000000000E+00  0.00000000000E+00  0.43531887794E+03  0.43531887795E+03  0.25500000000E-02 0. -1.
          2   -1    0    0  501    0  0.00000000000E+00 -0.00000000000E+00 -0.25863375969E+04  0.25863375969E+04  0.25500000000E-02 0.  1.
     200001    2    1    2    0    0 -0.33113098963E+03 -0.19113580661E+03 -0.79173826057E+02  0.80158397848E+03  0.70006267645E+03 0.  0.
    5000001    2    3    3    0    0  0.18026271541E+02  0.61220024240E+02 -0.21193369283E+02  0.13904643859E+03  0.12170421254E+03 0.  0.
        -13    1    4    4    0    0  0.47151361974E+02  0.63096695743E+02  0.18989756173E+02  0.81025094589E+02  0.10566000000E+00 0. -1.
     200003    1    4    4    0    0 -0.29125090433E+02 -0.18766715030E+01 -0.40183125456E+02  0.58021344004E+02  0.30000000000E+02 0.  1.
     200000    1    3    3    0    0 -0.34915726117E+03 -0.25235583085E+03 -0.57980456775E+02  0.66253753989E+03  0.50000000000E+03 0. -1.
    -200001    1    1    2    0    0  0.33113098963E+03  0.19113580661E+03 -0.20718448929E+04  0.22200724964E+04  0.70000000000E+03 0.  1.
<mgrwt>
<rscale>  0 0.21221513E+04</rscale>
<asrwt>0</asrwt>
<pdfrwt beam="1">  1        2 0.36947679E+00 0.21221513E+04</pdfrwt>
<pdfrwt beam="2">  1       -2 0.62188412E-01 0.21221513E+04</pdfrwt>
<totfact> 0.87942098E+00</totfact>
</mgrwt>
</event>
<event>
 8    1  0.7623533E-028  0.2417630E+04  0.7818608E-02  0.8432933E-01
         -2   -1    0    0    0  501 -0.00000000000E+00  0.00000000000E+00  0.78538027076E+03  0.78538027076E+03  0.25500000000E-02 0.  1.
          2   -1    0    0  501    0  0.00000000000E+00 -0.00000000000E+00 -0.18605423013E+04  0.18605423013E+04  0.25500000000E-02 0. -1.
     200001    2    1    2    0    0 -0.47336321046E+03  0.44301579991E+03 -0.13500498511E+04  0.16529980825E+04  0.69959440571E+03 0.  0.
    5000001    2    3    3    0    0 -0.24516835529E+03  0.15423468372E+03 -0.47739920509E+03  0.58202349137E+03  0.16415079465E+03 0.  0.
        -13    1    4    4    0    0 -0.14457035950E+03 -0.10175950558E+01 -0.18637268809E+03  0.23587372549E+03  0.10566000000E+00 0. -1.
     200003    1    4    4    0    0 -0.10059799580E+03  0.15525227878E+03 -0.29102651700E+03  0.34614976588E+03  0.30000000000E+02 0. -1.
     200000    1    3    3    0    0 -0.22819485517E+03  0.28878111619E+03 -0.87265064596E+03  0.10709745912E+04  0.50000000000E+03 0.  1.
    -200001    1    1    2    0    0  0.47336321046E+03 -0.44301579991E+03  0.27488782055E+03  0.99292448951E+03  0.70000000000E+03 0. -1.
<mgrwt>
<rscale>  0 0.24176296E+04</rscale>
<asrwt>0</asrwt>
<pdfrwt beam="1">  1        2 0.26579176E+00 0.24176296E+04</pdfrwt>
<pdfrwt beam="2">  1       -2 0.11219718E+00 0.24176296E+04</pdfrwt>
<totfact> 0.53553662E+00</totfact>
</mgrwt>
</event>
<event>
 8    1  0.7623533E-028  0.1851761E+04  0.7818608E-02  0.8679248E-01
          2   -1    0    0  501    0  0.00000000000E+00  0.00000000000E+00  0.30406053788E+04  0.30406053788E+04  0.25500000000E-02 0.  1.
         -2   -1    0    0    0  501 -0.00000000000E+00 -0.00000000000E+00 -0.28193559617E+03  0.28193559618E+03  0.25500000000E-02 0. -1.
     200001    2    1    2    0    0  0.57216104585E+03  0.52906501727E+02  0.17231660453E+04  0.19468828233E+04  0.70063124936E+03 0.  0.
    5000001    2    3    3    0    0  0.77980608553E+02  0.56096217437E+02  0.38288117354E+03  0.43341395463E+03  0.17894664594E+03 0.  0.
        -13    1    4    4    0    0  0.27634659994E+02  0.62554060823E+02  0.36564491166E+03  0.37198507705E+03  0.10566000000E+00 0. -1.
     200003    1    4    4    0    0  0.50345948559E+02 -0.64578433855E+01  0.17236261881E+02  0.61428877583E+02  0.30000000000E+02 0. -1.
     200000    1    3    3    0    0  0.49418043730E+03 -0.31897157107E+01  0.13402848717E+04  0.15134688686E+04  0.50000000000E+03 0.  1.
    -200001    1    1    2    0    0 -0.57216104585E+03 -0.52906501727E+02  0.10355037373E+04  0.13756581517E+04  0.70000000000E+03 0. -1.
<mgrwt>
<rscale>  0 0.18517612E+04</rscale>
<asrwt>0</asrwt>
<pdfrwt beam="1">  1        2 0.43437221E+00 0.18517612E+04</pdfrwt>
<pdfrwt beam="2">  1       -2 0.40276512E-01 0.18517612E+04</pdfrwt>
<totfact> 0.12336572E+01</totfact>
</mgrwt>
</event>
<event>
 8    1  0.7623533E-028  0.1430724E+04  0.7818608E-02  0.8931874E-01
          2   -1    0    0  501    0  0.00000000000E+00  0.00000000000E+00  0.29723473678E+04  0.29723473678E+04  0.25500000000E-02 0.  1.
         -2   -1    0    0    0  501 -0.00000000000E+00 -0.00000000000E+00 -0.17216787188E+03  0.17216787190E+03  0.25500000000E-02 0. -1.
     200001    2    1    2    0    0  0.60705328689E+02  0.12093506089E+03  0.15142156534E+04  0.16741365707E+04  0.70112323208E+03 0.  0.
    5000001    2    3    3    0    0  0.48865979927E+02  0.29709334602E+02  0.49223254001E+03  0.53268495661E+03  0.19542226332E+03 0.  0.
        -13    1    4    4    0    0 -0.86470899056E+01  0.10330361281E+03  0.28860710279E+03  0.30666020206E+03  0.10566000000E+00 0. -1.
     200003    1    4    4    0    0  0.57513069832E+02 -0.73594278208E+02  0.20362543722E+03  0.22602475455E+03  0.30000000000E+02 0. -1.
     200000    1    3    3    0    0  0.11839348762E+02  0.91225726286E+02  0.10219831134E+04  0.11414516141E+04  0.50000000000E+03 0.  1.
    -200001    1    1    2    0    0 -0.60705328689E+02 -0.12093506089E+03  0.12859638425E+04  0.14703786689E+04  0.70000000000E+03 0.  1.
<mgrwt>
<rscale>  0 0.14307239E+04</rscale>
<asrwt>0</asrwt>
<pdfrwt beam="1">  1        2 0.42462102E+00 0.14307239E+04</pdfrwt>
<pdfrwt beam="2">  1       -2 0.24595412E-01 0.14307239E+04</pdfrwt>
<totfact> 0.35318923E+01</totfact>
</mgrwt>
</event>
<event>
 8    1  0.7623533E-028  0.1613891E+04  0.7818608E-02  0.8812059E-01
         -2   -1    0    0    0  501 -0.00000000000E+00  0.00000000000E+00  0.20180686165E+03  0.20180686167E+03  0.25500000000E-02 0. -1.
          2   -1    0    0  501    0  0.00000000000E+00 -0.00000000000E+00 -0.32266562740E+04  0.32266562740E+04  0.25500000000E-02 0.  1.
     200001    2    1    2    0    0  0.18173833852E+03  0.22587467049E+03 -0.92141004094E+03  0.11927293904E+04  0.69968474671E+03 0.  0.
    5000001    2    3    3    0    0  0.49539523985E+02  0.10195939930E+03 -0.12199675857E+03  0.23257673745E+03  0.16235407650E+03 0.  0.
        -13    1    4    4    0    0 -0.27832049590E+02  0.10372297035E+03 -0.99922496971E+02  0.14668876619E+03  0.10566000000E+00 0. -1.
     200003    1    4    4    0    0  0.77371573575E+02 -0.17635710497E+01 -0.22074261603E+02  0.85887971251E+02  0.30000000000E+02 0. -1.
     200000    1    3    3    0    0  0.13219881453E+03  0.12391527119E+03 -0.79941328237E+03  0.96015265298E+03  0.50000000000E+03 0. -1.
    -200001    1    1    2    0    0 -0.18173833852E+03 -0.22587467049E+03 -0.21034393714E+04  0.22357337453E+04  0.70000000000E+03 0.  1.
<mgrwt>
<rscale>  0 0.16138914E+04</rscale>
<asrwt>0</asrwt>
<pdfrwt beam="1">  1        2 0.46095087E+00 0.16138914E+04</pdfrwt>
<pdfrwt beam="2">  1       -2 0.28829554E-01 0.16138914E+04</pdfrwt>
<totfact> 0.18655884E+01</totfact>
</mgrwt>
</event>
<event>
 8    1  0.7623533E-028  0.1853781E+04  0.7818608E-02  0.8678211E-01
          2   -1    0    0  501    0  0.00000000000E+00  0.00000000000E+00  0.20347463382E+04  0.20347463382E+04  0.25500000000E-02 0.  1.
         -2   -1    0    0    0  501 -0.00000000000E+00 -0.00000000000E+00 -0.42222773078E+03  0.42222773079E+03  0.25500000000E-02 0. -1.
     200001    2    1    2    0    0 -0.37200405294E+03  0.47201319582E+03  0.92287412357E+03  0.13051090654E+04  0.70030675580E+03 0.  0.
    5000001    2    3    3    0    0 -0.67052635329E+02  0.95652604363E+02  0.17452174238E+03  0.28301613991E+03  0.18972300931E+03 0.  0.
        -13    1    4    4    0    0  0.38696815040E+02 -0.27019899566E+02  0.80605940360E+02  0.93406890817E+02  0.10566000000E+00 0. -1.
     200003    1    4    4    0    0 -0.10574945037E+03  0.12267250393E+03  0.93915802015E+02  0.18960924909E+03  0.30000000000E+02 0. -1.
     200000    1    3    3    0    0 -0.30495141761E+03  0.37636059145E+03  0.74835238119E+03  0.10220929255E+04  0.50000000000E+03 0.  1.
    -200001    1    1    2    0    0  0.37200405294E+03 -0.47201319582E+03  0.68964448389E+03  0.11518650036E+04  0.70000000000E+03 0.  1.
<mgrwt>
<rscale>  0 0.18537814E+04</rscale>
<asrwt>0</asrwt>
<pdfrwt beam="1">  1        2 0.29067806E+00 0.18537814E+04</pdfrwt>
<pdfrwt beam="2">  1       -2 0.60318246E-01 0.18537814E+04</pdfrwt>
<totfact> 0.18589978E+01</totfact>
</mgrwt>
</event>
<event>
 8    1  0.7623533E-028  0.1621498E+04  0.7818608E-02  0.8807449E-01
          2   -1    0    0  501    0  0.00000000000E+00  0.00000000000E+00  0.10328528351E+04  0.10328528351E+04  0.25500000000E-02 0.  1.
         -2   -1    0    0    0  501 -0.00000000000E+00 -0.00000000000E+00 -0.63640600113E+03  0.63640600113E+03  0.25500000000E-02 0. -1.
     200001    2    1    2    0    0 -0.18007055344E+03  0.36633620800E+03  0.22112412226E+03  0.84018364379E+03  0.70027498622E+03 0.  0.
    5000001    2    3    3    0    0  0.42621197883E+02  0.10811540407E+03  0.11702003818E+03  0.22609304785E+03  0.15465726574E+03 0.  0.
        -13    1    4    4    0    0 -0.53491181207E+01  0.19028853484E+02  0.11890973222E+03  0.12054146967E+03  0.10566000000E+00 0. -1.
     200003    1    4    4    0    0  0.47970316004E+02  0.89086550591E+02 -0.18896940400E+01  0.10555157819E+03  0.30000000000E+02 0. -1.
     200000    1    3    3    0    0 -0.22269175132E+03  0.25822080393E+03  0.10410408409E+03  0.61409059593E+03  0.50000000000E+03 0. -1.
    -200001    1    1    2    0    0  0.18007055344E+03 -0.36633620800E+03  0.17532271172E+03  0.82907519246E+03  0.70000000000E+03 0.  1.
<mgrwt>
<rscale>  0 0.16214978E+04</rscale>
<asrwt>0</asrwt>
<pdfrwt beam="1">  1        2 0.14755041E+00 0.16214978E+04</pdfrwt>
<pdfrwt beam="2">  1       -2 0.90915143E-01 0.16214978E+04</pdfrwt>
<totfact> 0.26565798E+01</totfact>
</mgrwt>
</event>
<event>
 8    1  0.7623533E-028  0.1579055E+04  0.7818608E-02  0.8833520E-01
          2   -1    0    0  501    0  0.00000000000E+00  0.00000000000E+00  0.24745444624E+04  0.24745444624E+04  0.25500000000E-02 0.  1.
         -2   -1    0    0    0  501 -0.00000000000E+00 -0.00000000000E+00 -0.25190646310E+03  0.25190646311E+03  0.25500000000E-02 0. -1.
     200001    2    1    2    0    0  0.19381315807E+02 -0.10140725159E+03  0.50706560635E+03  0.87069024549E+03  0.70023346705E+03 0.  0.
    5000001    2    3    3    0    0  0.25962406531E+02 -0.26363047378E+02  0.50135834755E+02  0.18917739931E+03  0.17862091048E+03 0.  0.
        -13    1    4    4    0    0 -0.69164135087E+02 -0.34147324860E+02 -0.30055957677E+00  0.77135069051E+02  0.10566000000E+00 0. -1.
     200003    1    4    4    0    0  0.95126541618E+02  0.77842774821E+01  0.50436394332E+02  0.11204233026E+03  0.30000000000E+02 0. -1.
     200000    1    3    3    0    0 -0.65810907237E+01 -0.75044204212E+02  0.45692977160E+03  0.68151284618E+03  0.50000000000E+03 0. -1.
    -200001    1    1    2    0    0 -0.19381315807E+02  0.10140725159E+03  0.17155723930E+04  0.18557606800E+04  0.70000000000E+03 0.  1.
<mgrwt>
<rscale>  0 0.15790551E+04</rscale>
<asrwt>0</asrwt>
<pdfrwt beam="1">  1        2 0.35350637E+00 0.15790551E+04</pdfrwt>
<pdfrwt beam="2">  1       -2 0.35986636E-01 0.15790551E+04</pdfrwt>
<totfact> 0.31805805E+01</totfact>
</mgrwt>
</event>
<event>
 8    1  0.7623533E-028  0.1820028E+04  0.7818608E-02  0.8695720E-01
          2   -1    0    0  501    0  0.00000000000E+00  0.00000000000E+00  0.17202647655E+04  0.17202647655E+04  0.25500000000E-02 0.  1.
         -2   -1    0    0    0  501 -0.00000000000E+00 -0.00000000000E+00 -0.48139445477E+03  0.48139445477E+03  0.25500000000E-02 0. -1.
     200001    2    1    2    0    0  0.54910297969E+03 -0.13658530695E+03  0.48491605262E+03  0.10275141476E+04  0.70744053958E+03 0.  0.
    5000001    2    3    3    0    0  0.14953705676E+03 -0.52197725529E+01  0.67069158288E+02  0.25194606065E+03  0.19128504414E+03 0.  0.
        -13    1    4    4    0    0  0.53941053611E+02  0.53557413055E+02 -0.46813825775E+02  0.89272499716E+02  0.10566000000E+00 0. -1.
     200003    1    4    4    0    0  0.95596003152E+02 -0.58777185608E+02  0.11388298406E+03  0.16267356093E+03  0.30000000000E+02 0. -1.
     200000    1    3    3    0    0  0.39956592293E+03 -0.13136553440E+03  0.41784689433E+03  0.77556808695E+03  0.50000000000E+03 0.  1.
    -200001    1    1    2    0    0 -0.54910297969E+03  0.13658530695E+03  0.75395425814E+03  0.11741450727E+04  0.70000000000E+03 0. -1.
<mgrwt>
<rscale>  0 0.18200285E+04</rscale>
<asrwt>0</asrwt>
<pdfrwt beam="1">  1        2 0.24575211E+00 0.18200285E+04</pdfrwt>
<pdfrwt beam="2">  1       -2 0.68770636E-01 0.18200285E+04</pdfrwt>
<totfact> 0.20449714E+01</totfact>
</mgrwt>
</event>
<event>
 8    1  0.7623533E-028  0.1582259E+04  0.7818608E-02  0.8831522E-01
          2   -1    0    0  501    0  0.00000000000E+00  0.00000000000E+00  0.14307704753E+04  0.14307704753E+04  0.25500000000E-02 0.  1.
         -2   -1    0    0    0  501 -0.00000000000E+00 -0.00000000000E+00 -0.43744650745E+03  0.43744650746E+03  0.25500000000E-02 0. -1.
     200001    2    1    2    0    0 -0.14383230026E+03  0.17951074474E+03  0.15523785471E+03  0.75228680076E+03  0.69923157894E+03 0.  0.
    5000001    2    3    3    0    0 -0.15136418194E+02  0.48051177736E+02  0.29562147604E+02  0.20489422575E+03  0.19639169111E+03 0.  0.
        -13    1    4    4    0    0  0.40702282519E+02  0.10747276266E+03  0.70359524431E+01  0.11513724986E+03  0.10566000000E+00 0. -1.
     200003    1    4    4    0    0 -0.55838700712E+02 -0.59421584919E+02  0.22526195161E+02  0.89756975885E+02  0.30000000000E+02 0. -1.
     200000    1    3    3    0    0 -0.12869588207E+03  0.13145956701E+03  0.12567570710E+03  0.54739257501E+03  0.50000000000E+03 0. -1.
    -200001    1    1    2    0    0  0.14383230026E+03 -0.17951074474E+03  0.83808611319E+03  0.11159301820E+04  0.70000000000E+03 0.  1.
<mgrwt>
<rscale>  0 0.15822586E+04</rscale>
<asrwt>0</asrwt>
<pdfrwt beam="1">  1        2 0.20439578E+00 0.15822586E+04</pdfrwt>
<pdfrwt beam="2">  1       -2 0.62492358E-01 0.15822586E+04</pdfrwt>
<totfact> 0.36387567E+01</totfact>
</mgrwt>
</event>
<event>
 8    1  0.7623533E-028  0.1676825E+04  0.7818608E-02  0.8774693E-01
         -2   -1    0    0    0  501 -0.00000000000E+00  0.00000000000E+00  0.10393466794E+04  0.10393466794E+04  0.25500000000E-02 0. -1.
          2   -1    0    0  501    0  0.00000000000E+00 -0.00000000000E+00 -0.67632471074E+03  0.67632471075E+03  0.25500000000E-02 0.  1.
     200001    2    1    2    0    0 -0.31892385936E+03  0.20024739582E+03 -0.70791399285E+02  0.81012984732E+03  0.71378393069E+03 0.  0.
    5000001    2    3    3    0    0  0.17130761714E+02 -0.22840653639E+02 -0.29438461328E+02  0.16638218587E+03  0.16124903197E+03 0.  0.
        -13    1    4    4    0    0  0.38174225880E+02 -0.15609981289E+02 -0.87850099078E+02  0.97049441572E+02  0.10566000000E+00 0. -1.
     200003    1    4    4    0    0 -0.21043464166E+02 -0.72306723497E+01  0.58411637749E+02  0.69332744294E+02  0.30000000000E+02 0. -1.
     200000    1    3    3    0    0 -0.33605462107E+03  0.22308804946E+03 -0.41352937956E+02  0.64374766146E+03  0.50000000000E+03 0.  1.
    -200001    1    1    2    0    0  0.31892385936E+03 -0.20024739582E+03  0.43381336797E+03  0.90554154285E+03  0.70000000000E+03 0. -1.
<mgrwt>
<rscale>  0 0.16768254E+04</rscale>
<asrwt>0</asrwt>
<pdfrwt beam="1">  1        2 0.96617816E-01 0.16768254E+04</pdfrwt>
<pdfrwt beam="2">  1       -2 0.14847810E+00 0.16768254E+04</pdfrwt>
<totfact> 0.13808532E+01</totfact>
</mgrwt>
</event>
<event>
 8    1  0.7623533E-028  0.1522809E+04  0.7818608E-02  0.8869425E-01
         -2   -1    0    0    0  501 -0.00000000000E+00  0.00000000000E+00  0.22997494817E+03  0.22997494819E+03  0.25500000000E-02 0. -1.
          2   -1    0    0  501    0  0.00000000000E+00 -0.00000000000E+00 -0.25208706919E+04  0.25208706919E+04  0.25500000000E-02 0.  1.
     200001    2    1    2    0    0 -0.26541050111E+03  0.45648508836E+02 -0.13793743050E+04  0.15704228965E+04  0.70073395802E+03 0.  0.
    5000001    2    3    3    0    0 -0.92325802097E+02  0.88005098898E+02 -0.42155522610E+03  0.47535678810E+03  0.17884718665E+03 0.  0.
        -13    1    4    4    0    0 -0.37820088843E+02  0.99032746037E+02 -0.93747209982E+02  0.14151464395E+03  0.10566000000E+00 0. -1.
     200003    1    4    4    0    0 -0.54505713254E+02 -0.11027647139E+02 -0.32780801612E+03  0.33384214415E+03  0.30000000000E+02 0. -1.
     200000    1    3    3    0    0 -0.17308469901E+03 -0.42356590062E+02 -0.95781907894E+03  0.10950661084E+04  0.50000000000E+03 0.  1.
    -200001    1    1    2    0    0  0.26541050111E+03 -0.45648508836E+02 -0.91152143871E+03  0.11804227436E+04  0.70000000000E+03 0. -1.
<mgrwt>
<rscale>  0 0.15228094E+04</rscale>
<asrwt>0</asrwt>
<pdfrwt beam="1">  1        2 0.36012437E+00 0.15228094E+04</pdfrwt>
<pdfrwt beam="2">  1       -2 0.32853566E-01 0.15228094E+04</pdfrwt>
<totfact> 0.35935130E+01</totfact>
</mgrwt>
</event>
<event>
 8    1  0.7623533E-028  0.3040386E+04  0.7818608E-02  0.8232292E-01
         -2   -1    0    0    0  501 -0.00000000000E+00  0.00000000000E+00  0.18844923115E+04  0.18844923115E+04  0.25500000000E-02 0. -1.
          2   -1    0    0  501    0  0.00000000000E+00 -0.00000000000E+00 -0.12263177933E+04  0.12263177933E+04  0.25500000000E-02 0.  1.
     200001    2    1    2    0    0 -0.33345244442E+03  0.98141121901E+03 -0.55524520697E+03  0.13681839420E+04  0.69947948213E+03 0.  0.
    5000001    2    3    3    0    0 -0.12158953983E+03  0.34753886015E+03 -0.16746980956E+03  0.44783084866E+03  0.19219535995E+03 0.  0.
        -13    1    4    4    0    0  0.42592767351E+02  0.34542791818E+02  0.16469526326E+01  0.54864122286E+02  0.10566000000E+00 0. -1.
     200003    1    4    4    0    0 -0.16418230718E+03  0.31299606833E+03 -0.16911676220E+03  0.39296672637E+03  0.30000000000E+02 0. -1.
     200000    1    3    3    0    0 -0.21186290459E+03  0.63387235886E+03 -0.38777539741E+03  0.92035309339E+03  0.50000000000E+03 0.  1.
    -200001    1    1    2    0    0  0.33345244442E+03 -0.98141121901E+03  0.12134197252E+04  0.17426261627E+04  0.70000000000E+03 0. -1.
<mgrwt>
<rscale>  0 0.30403858E+04</rscale>
<asrwt>0</asrwt>
<pdfrwt beam="1">  1        2 0.17518826E+00 0.30403858E+04</pdfrwt>
<pdfrwt beam="2">  1       -2 0.26921318E+00 0.30403858E+04</pdfrwt>
<totfact> 0.86938893E-01</totfact>
</mgrwt>
</event>
<event>
 8    1  0.7623533E-028  0.1461127E+04  0.7818608E-02  0.8910723E-01
         -2   -1    0    0    0  501 -0.00000000000E+00  0.00000000000E+00  0.16583081183E+03  0.16583081185E+03  0.25500000000E-02 0. -1.
          2   -1    0    0  501    0  0.00000000000E+00 -0.00000000000E+00 -0.32184793797E+04  0.32184793797E+04  0.25500000000E-02 0.  1.
     200001    2    1    2    0    0  0.14958695667E+03  0.14160114688E+03 -0.16156473667E+04  0.17726651951E+04  0.69971303978E+03 0.  0.
    5000001    2    3    3    0    0  0.33461157998E+02  0.45774413449E+02 -0.61540953672E+03  0.64432850756E+03  0.18225087585E+03 0.  0.
        -13    1    4    4    0    0  0.48141604774E+02  0.75494605133E+02 -0.13593449559E+03  0.16277360895E+03  0.10566000000E+00 0. -1.
     200003    1    4    4    0    0 -0.14680446776E+02 -0.29720191684E+02 -0.47947504113E+03  0.48155489861E+03  0.30000000000E+02 0. -1.
     200000    1    3    3    0    0  0.11612579868E+03  0.95826733427E+02 -0.10002378300E+04  0.11283366875E+04  0.50000000000E+03 0. -1.
    -200001    1    1    2    0    0 -0.14958695667E+03 -0.14160114688E+03 -0.14370012012E+04  0.16116449965E+04  0.70000000000E+03 0.  1.
<mgrwt>
<rscale>  0 0.14611270E+04</rscale>
<asrwt>0</asrwt>
<pdfrwt beam="1">  1        2 0.45978273E+00 0.14611270E+04</pdfrwt>
<pdfrwt beam="2">  1       -2 0.23690118E-01 0.14611270E+04</pdfrwt>
<totfact> 0.27366247E+01</totfact>
</mgrwt>
</event>
<event>
 8    1  0.7623533E-028  0.1755797E+04  0.7818608E-02  0.8730166E-01
          2   -1    0    0  501    0  0.00000000000E+00  0.00000000000E+00  0.25643611054E+04  0.25643611054E+04  0.25500000000E-02 0.  1.
         -2   -1    0    0    0  501 -0.00000000000E+00 -0.00000000000E+00 -0.30054479301E+03  0.30054479302E+03  0.25500000000E-02 0. -1.
     200001    2    1    2    0    0  0.16378413694E+03  0.49311964778E+03  0.13022497808E+04  0.15669835490E+04  0.69970759648E+03 0.  0.
    5000001    2    3    3    0    0  0.13194354445E+03  0.70869175341E+02  0.23792684378E+03  0.31714651995E+03  0.14676918338E+03 0.  0.
        -13    1    4    4    0    0 -0.15436986115E+02  0.85013305893E+01  0.10636735055E+03  0.10781742711E+03  0.10566000000E+00 0. -1.
     200003    1    4    4    0    0  0.14738053057E+03  0.62367844752E+02  0.13155949322E+03  0.20932909283E+03  0.30000000000E+02 0. -1.
     200000    1    3    3    0    0  0.31840592487E+02  0.42225047244E+03  0.10643229370E+04  0.12498370290E+04  0.50000000000E+03 0.  1.
    -200001    1    1    2    0    0 -0.16378413694E+03 -0.49311964778E+03  0.96156653159E+03  0.12979223495E+04  0.70000000000E+03 0.  1.
<mgrwt>
<rscale>  0 0.17557965E+04</rscale>
<asrwt>0</asrwt>
<pdfrwt beam="1">  1        2 0.36633731E+00 0.17557965E+04</pdfrwt>
<pdfrwt beam="2">  1       -2 0.42934970E-01 0.17557965E+04</pdfrwt>
<totfact> 0.19922360E+01</totfact>
</mgrwt>
</event>
<event>
 8    1  0.7623533E-028  0.1802325E+04  0.7818608E-02  0.8705064E-01
         -2   -1    0    0    0  501 -0.00000000000E+00  0.00000000000E+00  0.35284749382E+03  0.35284749383E+03  0.25500000000E-02 0. -1.
          2   -1    0    0  501    0  0.00000000000E+00 -0.00000000000E+00 -0.23015434109E+04  0.23015434109E+04  0.25500000000E-02 0.  1.
     200001    2    1    2    0    0  0.46468438147E+03 -0.82525830766E+01 -0.49495115819E+03  0.97529188933E+03  0.70015565476E+03 0.  0.
    5000001    2    3    3    0    0  0.30615365826E+02  0.46200851861E+02 -0.13103953976E+03  0.21778759697E+03  0.16488862021E+03 0.  0.
        -13    1    4    4    0    0 -0.45044845769E+02  0.34120843316E+02  0.71464630991E+01  0.56959223817E+02  0.10566000000E+00 0. -1.
     200003    1    4    4    0    0  0.75660211595E+02  0.12080008544E+02 -0.13818600286E+03  0.16082837315E+03  0.30000000000E+02 0. -1.
     200000    1    3    3    0    0  0.43406901565E+03 -0.54453434937E+02 -0.36391161843E+03  0.75750429237E+03  0.50000000000E+03 0. -1.
    -200001    1    1    2    0    0 -0.46468438147E+03  0.82525830766E+01 -0.14537447589E+04  0.16790990154E+04  0.70000000000E+03 0. -1.
<mgrwt>
<rscale>  0 0.18023250E+04</rscale>
<asrwt>0</asrwt>
<pdfrwt beam="1">  1        2 0.32879191E+00 0.18023250E+04</pdfrwt>
<pdfrwt beam="2">  1       -2 0.50406786E-01 0.18023250E+04</pdfrwt>
<totfact> 0.19736601E+01</totfact>
</mgrwt>
</event>
<event>
 8    1  0.7623533E-028  0.1458081E+04  0.7818608E-02  0.8912817E-01
         -2   -1    0    0    0  501 -0.00000000000E+00  0.00000000000E+00  0.90299675469E+03  0.90299675470E+03  0.25500000000E-02 0. -1.
          2   -1    0    0  501    0  0.00000000000E+00 -0.00000000000E+00 -0.58859555980E+03  0.58859555980E+03  0.25500000000E-02 0.  1.
     200001    2    1    2    0    0  0.10408045359E+03  0.26680883033E+02  0.33412535218E+03  0.78311955376E+03  0.70006562133E+03 0.  0.
    5000001    2    3    3    0    0  0.46387723742E+02  0.66158464297E+02  0.13650745113E+03  0.24095743288E+03  0.18137650601E+03 0.  0.
        -13    1    4    4    0    0  0.93072518506E+02  0.96174486963E+02  0.10678314122E+03  0.17121529154E+03  0.10566000000E+00 0. -1.
     200003    1    4    4    0    0 -0.46684794765E+02 -0.30016022667E+02  0.29724309908E+02  0.69742141338E+02  0.30000000000E+02 0. -1.
     200000    1    3    3    0    0  0.57692729846E+02 -0.39477581263E+02  0.19761790105E+03  0.54216212088E+03  0.50000000000E+03 0. -1.
    -200001    1    1    2    0    0 -0.10408045359E+03 -0.26680883033E+02 -0.19724157285E+02  0.70847276075E+03  0.70000000000E+03 0.  1.
<mgrwt>
<rscale>  0 0.14580808E+04</rscale>
<asrwt>0</asrwt>
<pdfrwt beam="1">  1        2 0.84085080E-01 0.14580808E+04</pdfrwt>
<pdfrwt beam="2">  1       -2 0.12899954E+00 0.14580808E+04</pdfrwt>
<totfact> 0.23864801E+01</totfact>
</mgrwt>
</event>
<event>
 8    1  0.7623533E-028  0.1889046E+04  0.7818608E-02  0.8660328E-01
         -2   -1    0    0    0  501 -0.00000000000E+00  0.00000000000E+00  0.58462846316E+03  0.58462846316E+03  0.25500000000E-02 0. -1.
          2   -1    0    0  501    0  0.00000000000E+00 -0.00000000000E+00 -0.15259661449E+04  0.15259661449E+04  0.25500000000E-02 0.  1.
     200001    2    1    2    0    0  0.63188449014E+03  0.78073507265E+01 -0.53069842880E+03  0.10820210523E+04  0.69984982079E+03 0.  0.
    5000001    2    3    3    0    0  0.12891661576E+03  0.11441016706E+03 -0.23317383261E+03  0.30557934266E+03  0.96434010087E+02 0.  0.
        -13    1    4    4    0    0  0.11787298707E+03  0.56234463638E+02 -0.14386002807E+03  0.19429893160E+03  0.10566000000E+00 0. -1.
     200003    1    4    4    0    0  0.11043628682E+02  0.58175703418E+02 -0.89313804544E+02  0.11128041106E+03  0.30000000000E+02 0. -1.
     200000    1    3    3    0    0  0.50296787439E+03 -0.10660281633E+03 -0.29752459618E+03  0.77644170963E+03  0.50000000000E+03 0. -1.
    -200001    1    1    2    0    0 -0.63188449014E+03 -0.78073507265E+01 -0.41063925296E+03  0.10285735558E+04  0.70000000000E+03 0. -1.
<mgrwt>
<rscale>  0 0.18890455E+04</rscale>
<asrwt>0</asrwt>
<pdfrwt beam="1">  1        2 0.21799516E+00 0.18890455E+04</pdfrwt>
<pdfrwt beam="2">  1       -2 0.83518352E-01 0.18890455E+04</pdfrwt>
<totfact> 0.16705571E+01</totfact>
</mgrwt>
</event>
<event>
 8    1  0.7623533E-028  0.2117745E+04  0.7818608E-02  0.8553467E-01
          2   -1    0    0  501    0  0.00000000000E+00  0.00000000000E+00  0.20446855037E+04  0.20446855037E+04  0.25500000000E-02 0.  1.
         -2   -1    0    0    0  501 -0.00000000000E+00 -0.00000000000E+00 -0.54835380145E+03  0.54835380146E+03  0.25500000000E-02 0. -1.
     200001    2    1    2    0    0 -0.46519118723E+03  0.54311599705E+03  0.32445480558E+03  0.10520418075E+04  0.70010229032E+03 0.  0.
    5000001    2    3    3    0    0 -0.17690980716E+03  0.16381716590E+03  0.35788875796E+02  0.30350872443E+03  0.18084125211E+03 0.  0.
        -13    1    4    4    0    0 -0.10633161103E+03  0.58013765135E+02 -0.65932838921E+02  0.13790996650E+03  0.10566000000E+00 0. -1.
     200003    1    4    4    0    0 -0.70578196126E+02  0.10580340077E+03  0.10172171472E+03  0.16559875793E+03  0.30000000000E+02 0. -1.
     200000    1    3    3    0    0 -0.28828138007E+03  0.37929883115E+03  0.28866592978E+03  0.74853308305E+03  0.50000000000E+03 0.  1.
    -200001    1    1    2    0    0  0.46519118723E+03 -0.54311599705E+03  0.11718768967E+04  0.15409974977E+04  0.70000000000E+03 0. -1.
<mgrwt>
<rscale>  0 0.21177451E+04</rscale>
<asrwt>0</asrwt>
<pdfrwt beam="1">  1        2 0.29209792E+00 0.21177451E+04</pdfrwt>
<pdfrwt beam="2">  1       -2 0.78336259E-01 0.21177451E+04</pdfrwt>
<totfact> 0.10188445E+01</totfact>
</mgrwt>
</event>
<event>
 8    1  0.7623533E-028  0.2360869E+04  0.7818608E-02  0.8454301E-01
         -2   -1    0    0    0  501 -0.00000000000E+00  0.00000000000E+00  0.52536399658E+03  0.52536399659E+03  0.25500000000E-02 0. -1.
          2   -1    0    0  501    0  0.00000000000E+00 -0.00000000000E+00 -0.26523052906E+04  0.26523052906E+04  0.25500000000E-02 0.  1.
     200001    2    1    2    0    0  0.66920066394E+03 -0.66223633630E+03 -0.88561531633E+03  0.14696655762E+04  0.69943972131E+03 0.  0.
    5000001    2    3    3    0    0  0.27561844545E+03 -0.11685023646E+03 -0.20735308378E+03  0.39152244256E+03  0.14378809562E+03 0.  0.
        -13    1    4    4    0    0  0.13102532476E+03 -0.94330800694E+02 -0.17610023286E+03  0.23890843197E+03  0.10566000000E+00 0. -1.
     200003    1    4    4    0    0  0.14459312068E+03 -0.22519435763E+02 -0.31252850914E+02  0.15261401058E+03  0.30000000000E+02 0. -1.
     200000    1    3    3    0    0  0.39358221850E+03 -0.54538609984E+03 -0.67826223255E+03  0.10781431337E+04  0.50000000000E+03 0.  1.
    -200001    1    1    2    0    0 -0.66920066394E+03  0.66223633630E+03 -0.12413259777E+04  0.17080037110E+04  0.70000000000E+03 0.  1.
<mgrwt>
<rscale>  0 0.23608691E+04</rscale>
<asrwt>0</asrwt>
<pdfrwt beam="1">  1        2 0.37890075E+00 0.23608691E+04</pdfrwt>
<pdfrwt beam="2">  1       -2 0.75052001E-01 0.23608691E+04</pdfrwt>
<totfact> 0.52860232E+00</totfact>
</mgrwt>
</event>
<event>
 8    1  0.7623533E-028  0.1460168E+04  0.7818608E-02  0.8911382E-01
          2   -1    0    0  501    0  0.00000000000E+00  0.00000000000E+00  0.10920729433E+04  0.10920729433E+04  0.25500000000E-02 0.  1.
         -2   -1    0    0    0  501 -0.00000000000E+00 -0.00000000000E+00 -0.48808329188E+03  0.48808329188E+03  0.25500000000E-02 0. -1.
     200001    2    1    2    0    0 -0.19494055243E+03  0.21896684685E+01  0.37228225959E+03  0.81746696092E+03  0.70117867749E+03 0.  0.
    5000001    2    3    3    0    0 -0.14992678227E+03 -0.10690284927E+01  0.12077933054E+03  0.25595954162E+03  0.16866670506E+03 0.  0.
        -13    1    4    4    0    0 -0.41215829672E+02 -0.73533542938E+02  0.15960372589E+02  0.85794354183E+02  0.10566000000E+00 0. -1.
     200003    1    4    4    0    0 -0.10871095260E+03  0.72464514445E+02  0.10481895795E+03  0.17016518744E+03  0.30000000000E+02 0. -1.
     200000    1    3    3    0    0 -0.45013770156E+02  0.32586969612E+01  0.25150292905E+03  0.56150741930E+03  0.50000000000E+03 0. -1.
    -200001    1    1    2    0    0  0.19494055243E+03 -0.21896684685E+01  0.23170739182E+03  0.76268927425E+03  0.70000000000E+03 0. -1.
<mgrwt>
<rscale>  0 0.14601679E+04</rscale>
<asrwt>0</asrwt>
<pdfrwt beam="1">  1        2 0.15601042E+00 0.14601679E+04</pdfrwt>
<pdfrwt beam="2">  1       -2 0.69726184E-01 0.14601679E+04</pdfrwt>
<totfact> 0.44950863E+01</totfact>
</mgrwt>
</event>
<event>
 8    1  0.7623533E-028  0.1491322E+04  0.7818608E-02  0.8890244E-01
          2   -1    0    0  501    0  0.00000000000E+00  0.00000000000E+00  0.92341688440E+03  0.92341688441E+03  0.25500000000E-02 0.  1.
         -2   -1    0    0    0  501 -0.00000000000E+00 -0.00000000000E+00 -0.60212301263E+03  0.60212301263E+03  0.25500000000E-02 0. -1.
     200001    2    1    2    0    0  0.14715527061E+03 -0.13896261737E+03  0.33105513421E+03  0.79680087315E+03  0.69593738718E+03 0.  0.
    5000001    2    3    3    0    0  0.12903268913E+03 -0.32566149378E+02  0.95528805061E+02  0.23366564243E+03  0.16662500084E+03 0.  0.
        -13    1    4    4    0    0  0.80454237522E+02 -0.43705459652E+02 -0.29147063917E+02  0.96086492483E+02  0.10566000000E+00 0. -1.
     200003    1    4    4    0    0  0.48578451605E+02  0.11139310274E+02  0.12467586898E+03  0.13757914994E+03  0.30000000000E+02 0. -1.
     200000    1    3    3    0    0  0.18122581480E+02 -0.10639646799E+03  0.23552632915E+03  0.56313523072E+03  0.50000000000E+03 0. -1.
    -200001    1    1    2    0    0 -0.14715527061E+03  0.13896261737E+03 -0.97612624395E+01  0.72873902389E+03  0.70000000000E+03 0. -1.
<mgrwt>
<rscale>  0 0.14913223E+04</rscale>
<asrwt>0</asrwt>
<pdfrwt beam="1">  1        2 0.13191670E+00 0.14913223E+04</pdfrwt>
<pdfrwt beam="2">  1       -2 0.86017574E-01 0.14913223E+04</pdfrwt>
<totfact> 0.35671178E+01</totfact>
</mgrwt>
</event>
<event>
 8    1  0.7623533E-028  0.1558639E+04  0.7818608E-02  0.8846369E-01
          2   -1    0    0  501    0  0.00000000000E+00  0.00000000000E+00  0.16128116856E+04  0.16128116856E+04  0.25500000000E-02 0.  1.
         -2   -1    0    0    0  501 -0.00000000000E+00 -0.00000000000E+00 -0.37657132255E+03  0.37657132256E+03  0.25500000000E-02 0. -1.
     200001    2    1    2    0    0 -0.11930574814E+01 -0.34240661912E+03  0.61217173983E+03  0.99103168590E+03  0.70010416882E+03 0.  0.
    5000001    2    3    3    0    0 -0.56504801456E+02 -0.23317914765E+02  0.16429583409E+03  0.24573321065E+03  0.17220677100E+03 0.  0.
        -13    1    4    4    0    0 -0.10711159107E+03  0.17567291042E+02  0.78476736872E+02  0.13394070349E+03  0.10566000000E+00 0. -1.
     200003    1    4    4    0    0  0.50606789619E+02 -0.40885205807E+02  0.85819097214E+02  0.11179250716E+03  0.30000000000E+02 0. -1.
     200000    1    3    3    0    0  0.55311743974E+02 -0.31908870436E+03  0.44787590574E+03  0.74529847525E+03  0.50000000000E+03 0. -1.
    -200001    1    1    2    0    0  0.11930574814E+01  0.34240661912E+03  0.62406862326E+03  0.99835132230E+03  0.70000000000E+03 0.  1.
<mgrwt>
<rscale>  0 0.15586387E+04</rscale>
<asrwt>0</asrwt>
<pdfrwt beam="1">  1        2 0.23040167E+00 0.15586387E+04</pdfrwt>
<pdfrwt beam="2">  1       -2 0.53795903E-01 0.15586387E+04</pdfrwt>
<totfact> 0.39961813E+01</totfact>
</mgrwt>
</event>
<event>
 8    1  0.7623533E-028  0.1440257E+04  0.7818608E-02  0.8925183E-01
         -2   -1    0    0    0  501 -0.00000000000E+00  0.00000000000E+00  0.96581647989E+03  0.96581647989E+03  0.25500000000E-02 0. -1.
          2   -1    0    0  501    0  0.00000000000E+00 -0.00000000000E+00 -0.53693952728E+03  0.53693952729E+03  0.25500000000E-02 0.  1.
     200001    2    1    2    0    0  0.82526396510E+02  0.75749540977E+02  0.35031880533E+03  0.78950991951E+03  0.69860865193E+03 0.  0.
    5000001    2    3    3    0    0  0.11904593549E+03  0.38242750611E+02  0.78165399873E+02  0.21783876215E+03  0.16034167839E+03 0.  0.
        -13    1    4    4    0    0 -0.23331030207E+02  0.97181168689E+01  0.64096872938E+02  0.68899920540E+02  0.10566000000E+00 0. -1.
     200003    1    4    4    0    0  0.14237696569E+03  0.28524633742E+02  0.14068526935E+02  0.14893884161E+03  0.30000000000E+02 0. -1.
     200000    1    3    3    0    0 -0.36519538977E+02  0.37506790365E+02  0.27215340546E+03  0.57167115736E+03  0.50000000000E+03 0. -1.
    -200001    1    1    2    0    0 -0.82526396510E+02 -0.75749540977E+02  0.78558147273E+02  0.71324608767E+03  0.70000000000E+03 0.  1.
<mgrwt>
<rscale>  0 0.14402570E+04</rscale>
<asrwt>0</asrwt>
<pdfrwt beam="1">  1        2 0.76705647E-01 0.14402570E+04</pdfrwt>
<pdfrwt beam="2">  1       -2 0.13797378E+00 0.14402570E+04</pdfrwt>
<totfact> 0.22410557E+01</totfact>
</mgrwt>
</event>
<event>
 8    1  0.7623533E-028  0.1965626E+04  0.7818608E-02  0.8622862E-01
          2   -1    0    0  501    0  0.00000000000E+00  0.00000000000E+00  0.19297779895E+04  0.19297779895E+04  0.25500000000E-02 0.  1.
         -2   -1    0    0    0  501 -0.00000000000E+00 -0.00000000000E+00 -0.50053491140E+03  0.50053491141E+03  0.25500000000E-02 0. -1.
     200001    2    1    2    0    0  0.20389630810E+02 -0.62206820356E+03  0.34504228611E+03  0.99752682327E+03  0.69901430387E+03 0.  0.
    5000001    2    3    3    0    0  0.23720560889E+02 -0.27568938662E+03  0.10317878123E+03  0.34293738331E+03  0.17433555308E+03 0.  0.
        -13    1    4    4    0    0  0.67361030455E+02 -0.37014793112E+02 -0.17767299746E+01  0.76881540479E+02  0.10566000000E+00 0. -1.
     200003    1    4    4    0    0 -0.43640469566E+02 -0.23867459351E+03  0.10495551121E+03  0.26605584283E+03  0.30000000000E+02 0. -1.
     200000    1    3    3    0    0 -0.33309300791E+01 -0.34637881694E+03  0.24186350488E+03  0.65458943996E+03  0.50000000000E+03 0. -1.
    -200001    1    1    2    0    0 -0.20389630810E+02  0.62206820356E+03  0.10842007920E+04  0.14327860776E+04  0.70000000000E+03 0.  1.
<mgrwt>
<rscale>  0 0.19656259E+04</rscale>
<asrwt>0</asrwt>
<pdfrwt beam="1">  1        2 0.27568257E+00 0.19656259E+04</pdfrwt>
<pdfrwt beam="2">  1       -2 0.71504987E-01 0.19656259E+04</pdfrwt>
<totfact> 0.14466855E+01</totfact>
</mgrwt>
</event>
<event>
 8    1  0.7623533E-028  0.1629490E+04  0.7818608E-02  0.8802633E-01
          2   -1    0    0  501    0  0.00000000000E+00  0.00000000000E+00  0.28714349739E+04  0.28714349739E+04  0.25500000000E-02 0.  1.
         -2   -1    0    0    0  501 -0.00000000000E+00 -0.00000000000E+00 -0.23117678186E+03  0.23117678187E+03  0.25500000000E-02 0. -1.
     200001    2    1    2    0    0 -0.13653636337E+03 -0.96659886642E+02  0.20470054149E+04  0.21699091398E+04  0.70020653678E+03 0.  0.
    5000001    2    3    3    0    0 -0.29756711864E+02 -0.30196604649E+02  0.69781011858E+03  0.72555904047E+03  0.19416401000E+03 0.  0.
        -13    1    4    4    0    0 -0.94350899161E+01 -0.58945168047E+02  0.66771026414E+03  0.67037344947E+03  0.10566000000E+00 0. -1.
     200003    1    4    4    0    0 -0.20321621948E+02  0.28748563399E+02  0.30099854440E+02  0.55185590994E+02  0.30000000000E+02 0. -1.
     200000    1    3    3    0    0 -0.10677965151E+03 -0.66463281993E+02  0.13491952964E+04  0.14443500994E+04  0.50000000000E+03 0.  1.
    -200001    1    1    2    0    0  0.13653636337E+03  0.96659886642E+02  0.59325277705E+03  0.93270261589E+03  0.70000000000E+03 0. -1.
<mgrwt>
<rscale>  0 0.16294896E+04</rscale>
<asrwt>0</asrwt>
<pdfrwt beam="1">  1        2 0.41020496E+00 0.16294896E+04</pdfrwt>
<pdfrwt beam="2">  1       -2 0.33025258E-01 0.16294896E+04</pdfrwt>
<totfact> 0.22874424E+01</totfact>
</mgrwt>
</event>
<event>
 8    1  0.7623533E-028  0.1475680E+04  0.7818608E-02  0.8900788E-01
          2   -1    0    0  501    0  0.00000000000E+00  0.00000000000E+00  0.11527259160E+04  0.11527259160E+04  0.25500000000E-02 0.  1.
         -2   -1    0    0    0  501 -0.00000000000E+00 -0.00000000000E+00 -0.47227865183E+03  0.47227865184E+03  0.25500000000E-02 0. -1.
     200001    2    1    2    0    0 -0.21525229412E+03 -0.63117307155E+02  0.40867915984E+03  0.84131123045E+03  0.70033462446E+03 0.  0.
    5000001    2    3    3    0    0 -0.47582769600E+02  0.14241475348E+02  0.10717596561E+02  0.17612640161E+03  0.16863778605E+03 0.  0.
        -13    1    4    4    0    0 -0.65493535280E+02  0.49307966982E+02 -0.51351319593E+02  0.96734936602E+02  0.10566000000E+00 0. -1.
     200003    1    4    4    0    0  0.17910765681E+02 -0.35066491634E+02  0.62068916154E+02  0.79391465003E+02  0.30000000000E+02 0. -1.
     200000    1    3    3    0    0 -0.16766952452E+03 -0.77358782503E+02  0.39796156328E+03  0.66518482885E+03  0.50000000000E+03 0.  1.
    -200001    1    1    2    0    0  0.21525229412E+03  0.63117307155E+02  0.27176810437E+03  0.78369333743E+03  0.70000000000E+03 0. -1.
<mgrwt>
<rscale>  0 0.14756800E+04</rscale>
<asrwt>0</asrwt>
<pdfrwt beam="1">  1        2 0.16467513E+00 0.14756800E+04</pdfrwt>
<pdfrwt beam="2">  1       -2 0.67468378E-01 0.14756800E+04</pdfrwt>
<totfact> 0.44436897E+01</totfact>
</mgrwt>
</event>
<event>
 8    1  0.7623533E-028  0.1664204E+04  0.7818608E-02  0.8782048E-01
          2   -1    0    0  501    0  0.00000000000E+00  0.00000000000E+00  0.94803370899E+03  0.94803370899E+03  0.25500000000E-02 0.  1.
         -2   -1    0    0    0  501 -0.00000000000E+00 -0.00000000000E+00 -0.73034678942E+03  0.73034678942E+03  0.25500000000E-02 0. -1.
     200001    2    1    2    0    0 -0.69912231132E+02  0.80545843086E+02  0.54878283354E+03  0.89671569996E+03  0.70111418133E+03 0.  0.
    5000001    2    3    3    0    0  0.94344563601E+02  0.74343039997E+02  0.11704988151E+03  0.21597190729E+03  0.13607132578E+03 0.  0.
        -13    1    4    4    0    0  0.10139187314E+03  0.11744010138E+02  0.34180689718E+02  0.10764090499E+03  0.10566000000E+00 0. -1.
     200003    1    4    4    0    0 -0.70473095421E+01  0.62599029859E+02  0.82869191788E+02  0.10833100230E+03  0.30000000000E+02 0. -1.
     200000    1    3    3    0    0 -0.16425679473E+03  0.62028030887E+01  0.43173295204E+03  0.68074379267E+03  0.50000000000E+03 0.  1.
    -200001    1    1    2    0    0  0.69912231132E+02 -0.80545843086E+02 -0.33109591397E+03  0.78166479846E+03  0.70000000000E+03 0. -1.
<mgrwt>
<rscale>  0 0.16642036E+04</rscale>
<asrwt>0</asrwt>
<pdfrwt beam="1">  1        2 0.13543339E+00 0.16642036E+04</pdfrwt>
<pdfrwt beam="2">  1       -2 0.10433526E+00 0.16642036E+04</pdfrwt>
<totfact> 0.21622266E+01</totfact>
</mgrwt>
</event>
<event>
 8    1  0.7623533E-028  0.1795497E+04  0.7818608E-02  0.8708698E-01
         -2   -1    0    0    0  501 -0.00000000000E+00  0.00000000000E+00  0.50866629669E+03  0.50866629670E+03  0.25500000000E-02 0. -1.
          2   -1    0    0  501    0  0.00000000000E+00 -0.00000000000E+00 -0.15844423410E+04  0.15844423410E+04  0.25500000000E-02 0.  1.
     200001    2    1    2    0    0 -0.41693333363E+03 -0.33109145823E+03 -0.32764292217E+03  0.93848396846E+03  0.69996236770E+03 0.  0.
    5000001    2    3    3    0    0 -0.64154091834E+02 -0.17487609549E+03 -0.18493453629E+03  0.29101032699E+03  0.12565361685E+03 0.  0.
        -13    1    4    4    0    0 -0.17418557908E+02 -0.11093701547E+03 -0.32963303155E+02  0.11703426028E+03  0.10566000000E+00 0. -1.
     200003    1    4    4    0    0 -0.46735533926E+02 -0.63939080017E+02 -0.15197123314E+03  0.17397606671E+03  0.30000000000E+02 0. -1.
     200000    1    3    3    0    0 -0.35277924180E+03 -0.15621536274E+03 -0.14270838587E+03  0.64747364147E+03  0.50000000000E+03 0.  1.
    -200001    1    1    2    0    0  0.41693333363E+03  0.33109145823E+03 -0.74813312216E+03  0.11546246693E+04  0.70000000000E+03 0. -1.
<mgrwt>
<rscale>  0 0.17954971E+04</rscale>
<asrwt>0</asrwt>
<pdfrwt beam="1">  1        2 0.22634890E+00 0.17954971E+04</pdfrwt>
<pdfrwt beam="2">  1       -2 0.72666614E-01 0.17954971E+04</pdfrwt>
<totfact> 0.21389632E+01</totfact>
</mgrwt>
</event>
<event>
 8    1  0.7623533E-028  0.1454940E+04  0.7818608E-02  0.8914983E-01
          2   -1    0    0  501    0  0.00000000000E+00  0.00000000000E+00  0.87664259329E+03  0.87664259329E+03  0.25500000000E-02 0.  1.
         -2   -1    0    0    0  501 -0.00000000000E+00 -0.00000000000E+00 -0.60368088052E+03  0.60368088052E+03  0.25500000000E-02 0. -1.
     200001    2    1    2    0    0  0.15600785994E+03 -0.57960209661E+02  0.24705951590E+03  0.76034516715E+03  0.69956309976E+03 0.  0.
    5000001    2    3    3    0    0  0.11373979384E+03  0.49205673473E+02  0.56159799108E+02  0.21288391940E+03  0.16373057472E+03 0.  0.
        -13    1    4    4    0    0  0.40432156592E+02  0.10176997300E+03  0.39246038184E+02  0.11632776697E+03  0.10566000000E+00 0. -1.
     200003    1    4    4    0    0  0.73307637250E+02 -0.52564299523E+02  0.16913760924E+02  0.96556152431E+02  0.30000000000E+02 0. -1.
     200000    1    3    3    0    0  0.42268066101E+02 -0.10716588313E+03  0.19089971679E+03  0.54746124775E+03  0.50000000000E+03 0.  1.
    -200001    1    1    2    0    0 -0.15600785994E+03  0.57960209661E+02  0.25902196878E+02  0.71997830667E+03  0.70000000000E+03 0. -1.
<mgrwt>
<rscale>  0 0.14549397E+04</rscale>
<asrwt>0</asrwt>
<pdfrwt beam="1">  1        2 0.12523466E+00 0.14549397E+04</pdfrwt>
<pdfrwt beam="2">  1       -2 0.86240126E-01 0.14549397E+04</pdfrwt>
<totfact> 0.38152710E+01</totfact>
</mgrwt>
</event>
<event>
 8    1  0.7623533E-028  0.2232239E+04  0.7818608E-02  0.8505128E-01
          2   -1    0    0  501    0  0.00000000000E+00  0.00000000000E+00  0.28486765473E+04  0.28486765473E+04  0.25500000000E-02 0.  1.
         -2   -1    0    0    0  501 -0.00000000000E+00 -0.00000000000E+00 -0.43729889308E+03  0.43729889308E+03  0.25500000000E-02 0. -1.
     200001    2    1    2    0    0  0.25361555867E+03  0.82706438905E+03  0.10808201993E+04  0.15514035923E+04  0.70023171011E+03 0.  0.
    5000001    2    3    3    0    0  0.52064104117E+02  0.30752996555E+03  0.42333028863E+03  0.55499404367E+03  0.17755141392E+03 0.  0.
        -13    1    4    4    0    0  0.51140241945E+02  0.17470436054E+03  0.36293353403E+03  0.40602672230E+03  0.10566000000E+00 0. -1.
     200003    1    4    4    0    0  0.92386217154E+00  0.13282560501E+03  0.60396754604E+02  0.14896732137E+03  0.30000000000E+02 0. -1.
     200000    1    3    3    0    0  0.20155145455E+03  0.51953442349E+03  0.65748991067E+03  0.99640954866E+03  0.50000000000E+03 0. -1.
    -200001    1    1    2    0    0 -0.25361555867E+03 -0.82706438905E+03  0.13305574549E+04  0.17345718481E+04  0.70000000000E+03 0.  1.
<mgrwt>
<rscale>  0 0.22322393E+04</rscale>
<asrwt>0</asrwt>
<pdfrwt beam="1">  1        2 0.40695380E+00 0.22322393E+04</pdfrwt>
<pdfrwt beam="2">  1       -2 0.62471269E-01 0.22322393E+04</pdfrwt>
<totfact> 0.62293994E+00</totfact>
</mgrwt>
</event>
<event>
 8    1  0.7623533E-028  0.1707462E+04  0.7818608E-02  0.8757120E-01
         -2   -1    0    0    0  501 -0.00000000000E+00  0.00000000000E+00  0.19976825516E+03  0.19976825518E+03  0.25500000000E-02 0.  1.
          2   -1    0    0  501    0  0.00000000000E+00 -0.00000000000E+00 -0.36485113689E+04  0.36485113689E+04  0.25500000000E-02 0. -1.
     200001    2    1    2    0    0  0.32133115371E+03 -0.35916022344E+03 -0.15586541373E+04  0.17759171762E+04  0.70159056481E+03 0.  0.
    5000001    2    3    3    0    0  0.99145263721E+02 -0.13375126383E+03 -0.34901772380E+03  0.42929324147E+03  0.18644069231E+03 0.  0.
        -13    1    4    4    0    0  0.25304496033E+02 -0.40024967402E+02  0.11186605273E+02  0.48656621714E+02  0.10566000000E+00 0. -1.
     200003    1    4    4    0    0  0.73840767688E+02 -0.93726296429E+02 -0.36020432907E+03  0.38063661976E+03  0.30000000000E+02 0.  1.
     200000    1    3    3    0    0  0.22218588999E+03 -0.22540895960E+03 -0.12096364135E+04  0.13466239347E+04  0.50000000000E+03 0.  1.
    -200001    1    1    2    0    0 -0.32133115371E+03  0.35916022344E+03 -0.18900889764E+04  0.20723624478E+04  0.70000000000E+03 0.  1.
<mgrwt>
<rscale>  0 0.17074622E+04</rscale>
<asrwt>0</asrwt>
<pdfrwt beam="1">  1        2 0.52121587E+00 0.17074622E+04</pdfrwt>
<pdfrwt beam="2">  1       -2 0.28538324E-01 0.17074622E+04</pdfrwt>
<totfact> 0.10505919E+01</totfact>
</mgrwt>
</event>
<event>
 8    1  0.7623533E-028  0.1531376E+04  0.7818608E-02  0.8863852E-01
         -2   -1    0    0    0  501 -0.00000000000E+00  0.00000000000E+00  0.66801670136E+03  0.66801670137E+03  0.25500000000E-02 0. -1.
          2   -1    0    0  501    0  0.00000000000E+00 -0.00000000000E+00 -0.87764025751E+03  0.87764025752E+03  0.25500000000E-02 0.  1.
     200001    2    1    2    0    0 -0.12406365306E+03 -0.21623608964E+03  0.84878661136E+02  0.74635639435E+03  0.69835065963E+03 0.  0.
    5000001    2    3    3    0    0 -0.35171027178E+02 -0.96331365292E+02 -0.41560965195E+02  0.20945228656E+03  0.17783760408E+03 0.  0.
        -13    1    4    4    0    0  0.29028695353E+02 -0.65124063066E+02 -0.92483440075E+02  0.11677759458E+03  0.10566000000E+00 0. -1.
     200003    1    4    4    0    0 -0.64199722531E+02 -0.31207302225E+02  0.50922474880E+02  0.92674691978E+02  0.30000000000E+02 0. -1.
     200000    1    3    3    0    0 -0.88892625879E+02 -0.11990472435E+03  0.12643962633E+03  0.53690410779E+03  0.50000000000E+03 0. -1.
    -200001    1    1    2    0    0  0.12406365306E+03  0.21623608964E+03 -0.29450221729E+03  0.79930056453E+03  0.70000000000E+03 0.  1.
<mgrwt>
<rscale>  0 0.15313763E+04</rscale>
<asrwt>0</asrwt>
<pdfrwt beam="1">  1        2 0.12537718E+00 0.15313763E+04</pdfrwt>
<pdfrwt beam="2">  1       -2 0.95430958E-01 0.15313763E+04</pdfrwt>
<totfact> 0.29973479E+01</totfact>
</mgrwt>
</event>
<event>
 8    1  0.7623533E-028  0.2758672E+04  0.7818608E-02  0.8316215E-01
          2   -1    0    0  501    0  0.00000000000E+00  0.00000000000E+00  0.16076218277E+04  0.16076218277E+04  0.25500000000E-02 0.  1.
         -2   -1    0    0    0  501 -0.00000000000E+00 -0.00000000000E+00 -0.11834671378E+04  0.11834671378E+04  0.25500000000E-02 0. -1.
     200001    2    1    2    0    0  0.95497579996E+03 -0.95634910079E+02 -0.49834724476E+03  0.12870495264E+04  0.69786939512E+03 0.  0.
    5000001    2    3    3    0    0  0.23641696286E+03 -0.36714958027E+02 -0.91099505717E+02  0.31975997100E+03  0.19158901493E+03 0.  0.
        -13    1    4    4    0    0  0.10238992244E+03 -0.81604070357E+01  0.55588498852E+02  0.11679204095E+03  0.10566000000E+00 0. -1.
     200003    1    4    4    0    0  0.13402704041E+03 -0.28554550991E+02 -0.14668800457E+03  0.20296793005E+03  0.30000000000E+02 0. -1.
     200000    1    3    3    0    0  0.71855883710E+03 -0.58919952052E+02 -0.40724773904E+03  0.96728955545E+03  0.50000000000E+03 0. -1.
    -200001    1    1    2    0    0 -0.95497579996E+03  0.95634910079E+02  0.92250193465E+03  0.15040394390E+04  0.70000000000E+03 0.  1.
<mgrwt>
<rscale>  0 0.27586719E+04</rscale>
<asrwt>0</asrwt>
<pdfrwt beam="1">  1        2 0.22966026E+00 0.27586719E+04</pdfrwt>
<pdfrwt beam="2">  1       -2 0.16906673E+00 0.27586719E+04</pdfrwt>
<totfact> 0.24401013E+00</totfact>
</mgrwt>
</event>
<event>
 8    1  0.7623533E-028  0.1488809E+04  0.7818608E-02  0.8891929E-01
         -2   -1    0    0    0  501 -0.00000000000E+00  0.00000000000E+00  0.54624147708E+03  0.54624147709E+03  0.25500000000E-02 0. -1.
          2   -1    0    0  501    0  0.00000000000E+00 -0.00000000000E+00 -0.10144559246E+04  0.10144559246E+04  0.25500000000E-02 0.  1.
     200001    2    1    2    0    0 -0.22160202623E+03  0.60156447148E+02 -0.33764676845E+03  0.81251682523E+03  0.70246138318E+03 0.  0.
    5000001    2    3    3    0    0 -0.66482662995E+02  0.56968670779E+02 -0.34832402138E+02  0.20772866461E+03  0.18512840931E+03 0.  0.
        -13    1    4    4    0    0 -0.54414052909E+02 -0.58806118012E+02 -0.35228738238E+02  0.87522133381E+02  0.10566000000E+00 0. -1.
     200003    1    4    4    0    0 -0.12068610086E+02  0.11577478879E+03  0.39633609912E+00  0.12020653123E+03  0.30000000000E+02 0. -1.
     200000    1    3    3    0    0 -0.15511936324E+03  0.31877763691E+01 -0.30281436631E+03  0.60478816061E+03  0.50000000000E+03 0.  1.
    -200001    1    1    2    0    0  0.22160202623E+03 -0.60156447148E+02 -0.13056767905E+03  0.74818057645E+03  0.70000000000E+03 0. -1.
<mgrwt>
<rscale>  0 0.14888088E+04</rscale>
<asrwt>0</asrwt>
<pdfrwt beam="1">  1        2 0.14492227E+00 0.14888088E+04</pdfrwt>
<pdfrwt beam="2">  1       -2 0.78034497E-01 0.14888088E+04</pdfrwt>
<totfact> 0.38968027E+01</totfact>
</mgrwt>
</event>
<event>
 8    1  0.7623533E-028  0.1436318E+04  0.7818608E-02  0.8927941E-01
         -2   -1    0    0    0  501 -0.00000000000E+00  0.00000000000E+00  0.41781579795E+03  0.41781579796E+03  0.25500000000E-02 0. -1.
          2   -1    0    0  501    0  0.00000000000E+00 -0.00000000000E+00 -0.12344013866E+04  0.12344013866E+04  0.25500000000E-02 0.  1.
     200001    2    1    2    0    0 -0.87049257160E+02 -0.13137887666E+03 -0.35944053662E+03  0.80144131455E+03  0.69876512426E+03 0.  0.
    5000001    2    3    3    0    0  0.16651350260E+01  0.11628525515E+03 -0.91398656156E+02  0.17609803662E+03  0.95560299881E+02 0.  0.
        -13    1    4    4    0    0 -0.19278119053E+02 -0.67651036422E+01 -0.22541173231E+02  0.30422494246E+02  0.10566000000E+00 0. -1.
     200003    1    4    4    0    0  0.20943254079E+02  0.12305035879E+03 -0.68857482925E+02  0.14567554237E+03  0.30000000000E+02 0. -1.
     200000    1    3    3    0    0 -0.88714392186E+02 -0.24766413181E+03 -0.26804188047E+03  0.62534327793E+03  0.50000000000E+03 0. -1.
    -200001    1    1    2    0    0  0.87049257160E+02  0.13137887666E+03 -0.45714505203E+03  0.85077587002E+03  0.70000000000E+03 0. -1.
<mgrwt>
<rscale>  0 0.14363181E+04</rscale>
<asrwt>0</asrwt>
<pdfrwt beam="1">  1        2 0.17634305E+00 0.14363181E+04</pdfrwt>
<pdfrwt beam="2">  1       -2 0.59687972E-01 0.14363181E+04</pdfrwt>
<totfact> 0.52004355E+01</totfact>
</mgrwt>
</event>
<event>
 8    1  0.7623533E-028  0.1761245E+04  0.7818608E-02  0.8727185E-01
          2   -1    0    0  501    0  0.00000000000E+00  0.00000000000E+00  0.12823476439E+04  0.12823476439E+04  0.25500000000E-02 0.  1.
         -2   -1    0    0    0  501 -0.00000000000E+00 -0.00000000000E+00 -0.60474727077E+03  0.60474727078E+03  0.25500000000E-02 0. -1.
     200001    2    1    2    0    0  0.21816102913E+03  0.36239973208E+03  0.68857495893E+03  0.10691412229E+04  0.69999977139E+03 0.  0.
    5000001    2    3    3    0    0  0.13704291064E+02  0.21321517581E+03  0.18903206017E+03  0.31840711731E+03  0.14142649607E+03 0.  0.
        -13    1    4    4    0    0 -0.21203647570E+02  0.13093852652E+02  0.84276969845E+02  0.87884369815E+02  0.10566000000E+00 0. -1.
     200003    1    4    4    0    0  0.34907938633E+02  0.20012132316E+03  0.10475509033E+03  0.23052274749E+03  0.30000000000E+02 0. -1.
     200000    1    3    3    0    0  0.20445673807E+03  0.14918455628E+03  0.49954289875E+03  0.75073410557E+03  0.50000000000E+03 0.  1.
    -200001    1    1    2    0    0 -0.21816102913E+03 -0.36239973208E+03 -0.10974585767E+02  0.81795369183E+03  0.70000000000E+03 0. -1.
<mgrwt>
<rscale>  0 0.17612453E+04</rscale>
<asrwt>0</asrwt>
<pdfrwt beam="1">  1        2 0.18319252E+00 0.17612453E+04</pdfrwt>
<pdfrwt beam="2">  1       -2 0.86392468E-01 0.17612453E+04</pdfrwt>
<totfact> 0.21177436E+01</totfact>
</mgrwt>
</event>
<event>
 8    1  0.7623533E-028  0.1715548E+04  0.7818608E-02  0.8752546E-01
          2   -1    0    0  501    0  0.00000000000E+00  0.00000000000E+00  0.13543021174E+04  0.13543021174E+04  0.25500000000E-02 0.  1.
         -2   -1    0    0    0  501 -0.00000000000E+00 -0.00000000000E+00 -0.54328792978E+03  0.54328792978E+03  0.25500000000E-02 0. -1.
     200001    2    1    2    0    0  0.21128640083E+03  0.14123021836E+03  0.87817329772E+03  0.11498613104E+04  0.69742725400E+03 0.  0.
    5000001    2    3    3    0    0 -0.49285306731E+02  0.62940470814E+02  0.27917508688E+03  0.32352859538E+03  0.14262355546E+03 0.  0.
        -13    1    4    4    0    0 -0.91036802067E+02  0.55506973407E+02  0.14771269845E+03  0.18217512420E+03  0.10566000000E+00 0. -1.
     200003    1    4    4    0    0  0.41751495336E+02  0.74334974072E+01  0.13146238842E+03  0.14135347119E+03  0.30000000000E+02 0. -1.
     200000    1    3    3    0    0  0.26057170756E+03  0.78289747545E+02  0.59899821085E+03  0.82633271504E+03  0.50000000000E+03 0.  1.
    -200001    1    1    2    0    0 -0.21128640083E+03 -0.14123021836E+03 -0.67159110073E+02  0.74772873679E+03  0.70000000000E+03 0. -1.
<mgrwt>
<rscale>  0 0.17155477E+04</rscale>
<asrwt>0</asrwt>
<pdfrwt beam="1">  1        2 0.19347173E+00 0.17155477E+04</pdfrwt>
<pdfrwt beam="2">  1       -2 0.77612561E-01 0.17155477E+04</pdfrwt>
<totfact> 0.24707117E+01</totfact>
</mgrwt>
</event>
<event>
 8    1  0.7623533E-028  0.1557376E+04  0.7818608E-02  0.8847170E-01
          2   -1    0    0  501    0  0.00000000000E+00  0.00000000000E+00  0.18322648351E+04  0.18322648351E+04  0.25500000000E-02 0. -1.
         -2   -1    0    0    0  501 -0.00000000000E+00 -0.00000000000E+00 -0.33093187008E+03  0.33093187009E+03  0.25500000000E-02 0.  1.
     200001    2    1    2    0    0 -0.51231486759E+02  0.24398545364E+03  0.10743712773E+04  0.13061962095E+04  0.69980092122E+03 0.  0.
    5000001    2    3    3    0    0  0.56659585995E+02  0.89919030037E+02  0.46173512170E+03  0.49336165952E+03  0.13751604932E+03 0.  0.
        -13    1    4    4    0    0 -0.43350293469E+02  0.33315640842E+02  0.16061315733E+03  0.16966371840E+03  0.10566000000E+00 0. -1.
     200003    1    4    4    0    0  0.10000987946E+03  0.56603389194E+02  0.30112196437E+03  0.32369794112E+03  0.30000000000E+02 0. -1.
     200000    1    3    3    0    0 -0.10789107275E+03  0.15406642361E+03  0.61263615559E+03  0.81283454995E+03  0.50000000000E+03 0. -1.
    -200001    1    1    2    0    0  0.51231486759E+02 -0.24398545364E+03  0.42696168769E+03  0.85700049567E+03  0.70000000000E+03 0.  1.
<mgrwt>
<rscale>  0 0.15573758E+04</rscale>
<asrwt>0</asrwt>
<pdfrwt beam="1">  1        2 0.26175213E+00 0.15573758E+04</pdfrwt>
<pdfrwt beam="2">  1       -2 0.47275980E-01 0.15573758E+04</pdfrwt>
<totfact> 0.40014450E+01</totfact>
</mgrwt>
</event>
<event>
 8    1  0.7623533E-028  0.1703920E+04  0.7818608E-02  0.8759132E-01
         -2   -1    0    0    0  501 -0.00000000000E+00  0.00000000000E+00  0.93367426998E+03  0.93367426999E+03  0.25500000000E-02 0. -1.
          2   -1    0    0  501    0  0.00000000000E+00 -0.00000000000E+00 -0.77739737881E+03  0.77739737881E+03  0.25500000000E-02 0.  1.
     200001    2    1    2    0    0 -0.17971387168E+02  0.43525963550E+03  0.29325279193E+03  0.87528679703E+03  0.70025413674E+03 0.  0.
    5000001    2    3    3    0    0  0.69160901776E+01  0.68801196903E+02  0.79239050334E+02  0.21899947021E+03  0.19209503861E+03 0.  0.
        -13    1    4    4    0    0 -0.69073186018E+02 -0.30554932216E+02  0.29583859301E+02  0.81116735663E+02  0.10566000000E+00 0. -1.
     200003    1    4    4    0    0  0.75989276196E+02  0.99356129120E+02  0.49655191032E+02  0.13788273455E+03  0.30000000000E+02 0. -1.
     200000    1    3    3    0    0 -0.24887477346E+02  0.36645843860E+03  0.21401374160E+03  0.65628732682E+03  0.50000000000E+03 0. -1.
    -200001    1    1    2    0    0  0.17971387168E+02 -0.43525963550E+03 -0.13697590075E+03  0.83578485177E+03  0.70000000000E+03 0. -1.
<mgrwt>
<rscale>  0 0.17039201E+04</rscale>
<asrwt>0</asrwt>
<pdfrwt beam="1">  1        2 0.11105677E+00 0.17039201E+04</pdfrwt>
<pdfrwt beam="2">  1       -2 0.13338204E+00 0.17039201E+04</pdfrwt>
<totfact> 0.15302696E+01</totfact>
</mgrwt>
</event>
<event>
 8    1  0.7623533E-028  0.2147893E+04  0.7818608E-02  0.8540435E-01
         -2   -1    0    0    0  501 -0.00000000000E+00  0.00000000000E+00  0.25199264172E+04  0.25199264172E+04  0.25500000000E-02 0. -1.
          2   -1    0    0  501    0  0.00000000000E+00 -0.00000000000E+00 -0.45769617332E+03  0.45769617333E+03  0.25500000000E-02 0.  1.
     200001    2    1    2    0    0  0.58950001124E+02 -0.68551925206E+03  0.42458477423E+03  0.10683571737E+04  0.69835741032E+03 0.  0.
    5000001    2    3    3    0    0  0.18790787418E+02 -0.88257625369E+02  0.29193577533E+02  0.19390396651E+03  0.16912711531E+03 0.  0.
        -13    1    4    4    0    0  0.66169554942E+01 -0.37507827958E+02  0.96416858049E+02  0.10366698095E+03  0.10566000000E+00 0. -1.
     200003    1    4    4    0    0  0.12173831924E+02 -0.50749797411E+02 -0.67223280516E+02  0.90236985568E+02  0.30000000000E+02 0. -1.
     200000    1    3    3    0    0  0.40159213706E+02 -0.59726162669E+03  0.39539119670E+03  0.87445320720E+03  0.50000000000E+03 0.  1.
    -200001    1    1    2    0    0 -0.58950001124E+02  0.68551925206E+03  0.16376454696E+04  0.19092654168E+04  0.70000000000E+03 0. -1.
<mgrwt>
<rscale>  0 0.21478926E+04</rscale>
<asrwt>0</asrwt>
<pdfrwt beam="1">  1        2 0.65385165E-01 0.21478926E+04</pdfrwt>
<pdfrwt beam="2">  1       -2 0.35998950E+00 0.21478926E+04</pdfrwt>
<totfact> 0.92197100E-01</totfact>
</mgrwt>
</event>
<event>
 8    1  0.7623533E-028  0.1580446E+04  0.7818608E-02  0.8832652E-01
         -2   -1    0    0    0  501 -0.00000000000E+00  0.00000000000E+00  0.28058619793E+03  0.28058619794E+03  0.25500000000E-02 0. -1.
          2   -1    0    0  501    0  0.00000000000E+00 -0.00000000000E+00 -0.22255280070E+04  0.22255280070E+04  0.25500000000E-02 0.  1.
     200001    2    1    2    0    0 -0.35408431834E+03  0.55537042118E+01 -0.11189976916E+04  0.13669960226E+04  0.70079650679E+03 0.  0.
    5000001    2    3    3    0    0 -0.88507202097E+02  0.15726091181E+02 -0.29498439721E+03  0.36717974377E+03  0.19930964570E+03 0.  0.
        -13    1    4    4    0    0 -0.94204465694E+02 -0.39855286677E+02 -0.49500037246E+02  0.11363621819E+03  0.10566000000E+00 0. -1.
     200003    1    4    4    0    0  0.56972635964E+01  0.55581377858E+02 -0.24548435997E+03  0.25354352558E+03  0.30000000000E+02 0. -1.
     200000    1    3    3    0    0 -0.26557711624E+03 -0.10172386970E+02 -0.82401329440E+03  0.99981627886E+03  0.50000000000E+03 0. -1.
    -200001    1    1    2    0    0  0.35408431834E+03 -0.55537042118E+01 -0.82594411750E+03  0.11391181824E+04  0.70000000000E+03 0. -1.
<mgrwt>
<rscale>  0 0.15804461E+04</rscale>
<asrwt>0</asrwt>
<pdfrwt beam="1">  1        2 0.31793256E+00 0.15804461E+04</pdfrwt>
<pdfrwt beam="2">  1       -2 0.40083744E-01 0.15804461E+04</pdfrwt>
<totfact> 0.34775130E+01</totfact>
</mgrwt>
</event>
<event>
 8    1  0.7623533E-028  0.1620617E+04  0.7818608E-02  0.8807981E-01
          2   -1    0    0  501    0  0.00000000000E+00  0.00000000000E+00  0.23655381465E+04  0.23655381465E+04  0.25500000000E-02 0.  1.
         -2   -1    0    0    0  501 -0.00000000000E+00 -0.00000000000E+00 -0.27756889807E+03  0.27756889808E+03  0.25500000000E-02 0. -1.
     200001    2    1    2    0    0  0.12453423502E+03  0.33074103771E+03  0.13777485361E+04  0.15851316810E+04  0.69968064694E+03 0.  0.
    5000001    2    3    3    0    0  0.53101466580E+02  0.44925145837E+02  0.30221933638E+03  0.36302021968E+03  0.18870378411E+03 0.  0.
        -13    1    4    4    0    0  0.23356550636E+02  0.75063230019E+02  0.27258248253E+02  0.83204808878E+02  0.10566000000E+00 0. -1.
     200003    1    4    4    0    0  0.29744915944E+02 -0.30138084182E+02  0.27496108812E+03  0.27981541081E+03  0.30000000000E+02 0. -1.
     200000    1    3    3    0    0  0.71432768437E+02  0.28581589188E+03  0.10755291997E+04  0.12221114613E+04  0.50000000000E+03 0.  1.
    -200001    1    1    2    0    0 -0.12453423502E+03 -0.33074103771E+03  0.71022071238E+03  0.10579753636E+04  0.70000000000E+03 0.  1.
<mgrwt>
<rscale>  0 0.16206169E+04</rscale>
<asrwt>0</asrwt>
<pdfrwt beam="1">  1        2 0.33793404E+00 0.16206169E+04</pdfrwt>
<pdfrwt beam="2">  1       -2 0.39652698E-01 0.16206169E+04</pdfrwt>
<totfact> 0.29953494E+01</totfact>
</mgrwt>
</event>
<event>
 8    1  0.7623533E-028  0.1518509E+04  0.7818608E-02  0.8872237E-01
          2   -1    0    0  501    0  0.00000000000E+00  0.00000000000E+00  0.20770137542E+04  0.20770137542E+04  0.25500000000E-02 0.  1.
         -2   -1    0    0    0  501 -0.00000000000E+00 -0.00000000000E+00 -0.27754638234E+03  0.27754638235E+03  0.25500000000E-02 0. -1.
     200001    2    1    2    0    0 -0.15990267509E+03  0.60100414364E+01  0.12829703400E+04  0.14700409621E+04  0.69957312037E+03 0.  0.
    5000001    2    3    3    0    0 -0.26454314370E+02 -0.76909966877E+02  0.41066804525E+03  0.45239884119E+03  0.17146863962E+03 0.  0.
        -13    1    4    4    0    0 -0.22792353030E+02  0.17620692336E+02  0.30893504740E+03  0.31027544993E+03  0.10566000000E+00 0. -1.
     200003    1    4    4    0    0 -0.36619613399E+01 -0.94530659213E+02  0.10173299785E+03  0.14212339126E+03  0.30000000000E+02 0. -1.
     200000    1    3    3    0    0 -0.13344836072E+03  0.82920008313E+02  0.87230229479E+03  0.10176421209E+04  0.50000000000E+03 0. -1.
    -200001    1    1    2    0    0  0.15990267509E+03 -0.60100414364E+01  0.51649703184E+03  0.88451917446E+03  0.70000000000E+03 0. -1.
<mgrwt>
<rscale>  0 0.15185093E+04</rscale>
<asrwt>0</asrwt>
<pdfrwt beam="1">  1        2 0.29671625E+00 0.15185093E+04</pdfrwt>
<pdfrwt beam="2">  1       -2 0.39649483E-01 0.15185093E+04</pdfrwt>
<totfact> 0.42574834E+01</totfact>
</mgrwt>
</event>
<event>
 8    1  0.7623533E-028  0.1527236E+04  0.7818608E-02  0.8866540E-01
         -2   -1    0    0    0  501 -0.00000000000E+00  0.00000000000E+00  0.29173275111E+03  0.29173275113E+03  0.25500000000E-02 0. -1.
          2   -1    0    0  501    0  0.00000000000E+00 -0.00000000000E+00 -0.19987902912E+04  0.19987902912E+04  0.25500000000E-02 0.  1.
     200001    2    1    2    0    0 -0.13928004968E+03  0.39453334305E+02 -0.12554109981E+04  0.14449817384E+04  0.70068534468E+03 0.  0.
    5000001    2    3    3    0    0 -0.72881446568E+02  0.80368242105E+02 -0.37142159388E+03  0.42639444661E+03  0.17912974097E+03 0.  0.
        -13    1    4    4    0    0 -0.10252550255E+03 -0.47735487283E+01 -0.12166461292E+03  0.15917460426E+03  0.10566000000E+00 0. -1.
     200003    1    4    4    0    0  0.29644055985E+02  0.85141790833E+02 -0.24975698097E+03  0.26721984234E+03  0.30000000000E+02 0. -1.
     200000    1    3    3    0    0 -0.66398603110E+02 -0.40914907800E+02 -0.88398940426E+03  0.10185872918E+04  0.50000000000E+03 0.  1.
    -200001    1    1    2    0    0  0.13928004968E+03 -0.39453334305E+02 -0.45164654199E+03  0.84554130397E+03  0.70000000000E+03 0. -1.
<mgrwt>
<rscale>  0 0.15272362E+04</rscale>
<asrwt>0</asrwt>
<pdfrwt beam="1">  1        2 0.28554146E+00 0.15272362E+04</pdfrwt>
<pdfrwt beam="2">  1       -2 0.41676108E-01 0.15272362E+04</pdfrwt>
<totfact> 0.42326810E+01</totfact>
</mgrwt>
</event>
<event>
 8    1  0.7623533E-028  0.1755381E+04  0.7818608E-02  0.8730394E-01
         -2   -1    0    0    0  501 -0.00000000000E+00  0.00000000000E+00  0.10788572829E+04  0.10788572829E+04  0.25500000000E-02 0. -1.
          2   -1    0    0  501    0  0.00000000000E+00 -0.00000000000E+00 -0.71403360341E+03  0.71403360342E+03  0.25500000000E-02 0.  1.
     200001    2    1    2    0    0  0.44868030809E+03  0.17541451081E+03  0.40654185546E+03  0.94211202212E+03  0.70015320646E+03 0.  0.
    5000001    2    3    3    0    0  0.19671336502E+03  0.96264855171E+02  0.16777495153E+03  0.32830289642E+03  0.17796428607E+03 0.  0.
        -13    1    4    4    0    0  0.13927789749E+03  0.18682808700E+02  0.17790846052E+03  0.22671305997E+03  0.10566000000E+00 0. -1.
     200003    1    4    4    0    0  0.57435467530E+02  0.77582046471E+02 -0.10133508993E+02  0.10158983645E+03  0.30000000000E+02 0. -1.
     200000    1    3    3    0    0  0.25196694307E+03  0.79149655642E+02  0.23876690393E+03  0.61380912571E+03  0.50000000000E+03 0. -1.
    -200001    1    1    2    0    0 -0.44868030809E+03 -0.17541451081E+03 -0.41718176026E+02  0.85077886415E+03  0.70000000000E+03 0.  1.
<mgrwt>
<rscale>  0 0.17553807E+04</rscale>
<asrwt>0</asrwt>
<pdfrwt beam="1">  1        2 0.10200480E+00 0.17553807E+04</pdfrwt>
<pdfrwt beam="2">  1       -2 0.15412247E+00 0.17553807E+04</pdfrwt>
<totfact> 0.11623828E+01</totfact>
</mgrwt>
</event>
<event>
 8    1  0.7623533E-028  0.2086894E+04  0.7818608E-02  0.8567039E-01
          2   -1    0    0  501    0  0.00000000000E+00  0.00000000000E+00  0.18701982630E+04  0.18701982630E+04  0.25500000000E-02 0. -1.
         -2   -1    0    0    0  501 -0.00000000000E+00 -0.00000000000E+00 -0.58217425687E+03  0.58217425687E+03  0.25500000000E-02 0.  1.
     200001    2    1    2    0    0 -0.53615953931E+03  0.49886241877E+03  0.35059666802E+03  0.10721186379E+04  0.70013540523E+03 0.  0.
    5000001    2    3    3    0    0 -0.16195690426E+03 -0.28920743390E+02  0.61661017824E+02  0.20490096725E+03  0.10543185962E+03 0.  0.
        -13    1    4    4    0    0 -0.13317172315E+03 -0.53596550327E+02  0.28717785960E+02  0.14639679111E+03  0.10566000000E+00 0. -1.
     200003    1    4    4    0    0 -0.28785181113E+02  0.24675806937E+02  0.32943231864E+02  0.58504176136E+02  0.30000000000E+02 0.  1.
     200000    1    3    3    0    0 -0.37420263505E+03  0.52778316216E+03  0.28893565020E+03  0.86721767065E+03  0.50000000000E+03 0.  1.
    -200001    1    1    2    0    0  0.53615953931E+03 -0.49886241877E+03  0.93742733808E+03  0.13802538819E+04  0.70000000000E+03 0. -1.
<mgrwt>
<rscale>  0 0.20868937E+04</rscale>
<asrwt>0</asrwt>
<pdfrwt beam="1">  1        2 0.26717118E+00 0.20868937E+04</pdfrwt>
<pdfrwt beam="2">  1       -2 0.83167751E-01 0.20868937E+04</pdfrwt>
<totfact> 0.10980148E+01</totfact>
</mgrwt>
</event>
<event>
 8    1  0.7623533E-028  0.2012648E+04  0.7818608E-02  0.8600730E-01
         -2   -1    0    0    0  501 -0.00000000000E+00  0.00000000000E+00  0.96856243197E+03  0.96856243197E+03  0.25500000000E-02 0.  1.
          2   -1    0    0  501    0  0.00000000000E+00 -0.00000000000E+00 -0.10455576337E+04  0.10455576337E+04  0.25500000000E-02 0. -1.
     200001    2    1    2    0    0 -0.23684776114E+03  0.63723239926E+03  0.20746164996E+03  0.99771576961E+03  0.70016742863E+03 0.  0.
    5000001    2    3    3    0    0 -0.79474500325E+02  0.56951267914E+02 -0.14144983134E+02  0.18494148702E+03  0.15634458722E+03 0.  0.
        -13    1    4    4    0    0 -0.35895695600E+02  0.10314582950E+03 -0.29329566028E+02  0.11308314513E+03  0.10566000000E+00 0. -1.
     200003    1    4    4    0    0 -0.43578804726E+02 -0.46194561584E+02  0.15184582894E+02  0.71858341888E+02  0.30000000000E+02 0. -1.
     200000    1    3    3    0    0 -0.15737326081E+03  0.58028113134E+03  0.22160663309E+03  0.81277428259E+03  0.50000000000E+03 0.  1.
    -200001    1    1    2    0    0  0.23684776114E+03 -0.63723239926E+03 -0.28445685171E+03  0.10164042961E+04  0.70000000000E+03 0. -1.
<mgrwt>
<rscale>  0 0.20126479E+04</rscale>
<asrwt>0</asrwt>
<pdfrwt beam="1">  1        2 0.14936538E+00 0.20126479E+04</pdfrwt>
<pdfrwt beam="2">  1       -2 0.13836606E+00 0.20126479E+04</pdfrwt>
<totfact> 0.90867223E+00</totfact>
</mgrwt>
</event>
<event>
 8    1  0.7623533E-028  0.2427007E+04  0.7818608E-02  0.8429461E-01
         -2   -1    0    0    0  501 -0.00000000000E+00  0.00000000000E+00  0.45906328584E+03  0.45906328584E+03  0.25500000000E-02 0. -1.
          2   -1    0    0  501    0  0.00000000000E+00 -0.00000000000E+00 -0.32078162771E+04  0.32078162772E+04  0.25500000000E-02 0.  1.
     200001    2    1    2    0    0 -0.98697319000E+03  0.71434424329E+02 -0.14750451981E+04  0.19085990117E+04  0.69840739977E+03 0.  0.
    5000001    2    3    3    0    0 -0.42338753571E+03  0.78316229955E+02 -0.54257369327E+03  0.70977489765E+03  0.15493145400E+03 0.  0.
        -13    1    4    4    0    0 -0.84691789187E+02  0.80795942896E+02 -0.12453776958E+03  0.17091035884E+03  0.10566000000E+00 0. -1.
     200003    1    4    4    0    0 -0.33869574652E+03 -0.24797129415E+01 -0.41803592369E+03  0.53886453880E+03  0.30000000000E+02 0. -1.
     200000    1    3    3    0    0 -0.56358565430E+03 -0.68818056258E+01 -0.93247150485E+03  0.11988241140E+04  0.50000000000E+03 0.  1.
    -200001    1    1    2    0    0  0.98697319000E+03 -0.71434424329E+02 -0.12737077932E+04  0.17582805513E+04  0.70000000000E+03 0. -1.
<mgrwt>
<rscale>  0 0.24270069E+04</rscale>
<asrwt>0</asrwt>
<pdfrwt beam="1">  1        2 0.45825946E+00 0.24270069E+04</pdfrwt>
<pdfrwt beam="2">  1       -2 0.65580471E-01 0.24270069E+04</pdfrwt>
<totfact> 0.34674593E+00</totfact>
</mgrwt>
</event>
<event>
 8    1  0.7623533E-028  0.1662345E+04  0.7818608E-02  0.8783137E-01
         -2   -1    0    0    0  501 -0.00000000000E+00  0.00000000000E+00  0.31582759758E+03  0.31582759759E+03  0.25500000000E-02 0. -1.
          2   -1    0    0  501    0  0.00000000000E+00 -0.00000000000E+00 -0.21874192280E+04  0.21874192280E+04  0.25500000000E-02 0.  1.
     200001    2    1    2    0    0  0.37208270721E+03  0.21332893333E+03 -0.11350747435E+04  0.14003361767E+04  0.69899353326E+03 0.  0.
    5000001    2    3    3    0    0  0.12337149053E+03  0.14930045975E+03 -0.43584008695E+03  0.50318177543E+03  0.16038754869E+03 0.  0.
        -13    1    4    4    0    0  0.14359808982E+03  0.10038200111E+03 -0.38819527142E+03  0.42590202800E+03  0.10566000000E+00 0. -1.
     200003    1    4    4    0    0 -0.20226599288E+02  0.48918458643E+02 -0.47644815539E+02  0.77279747428E+02  0.30000000000E+02 0. -1.
     200000    1    3    3    0    0  0.24871121668E+03  0.64028473576E+02 -0.69923465653E+03  0.89715440122E+03  0.50000000000E+03 0. -1.
    -200001    1    1    2    0    0 -0.37208270721E+03 -0.21332893333E+03 -0.73651688693E+03  0.11029106489E+04  0.70000000000E+03 0.  1.
<mgrwt>
<rscale>  0 0.16623446E+04</rscale>
<asrwt>0</asrwt>
<pdfrwt beam="1">  1        2 0.31248845E+00 0.16623446E+04</pdfrwt>
<pdfrwt beam="2">  1       -2 0.45118229E-01 0.16623446E+04</pdfrwt>
<totfact> 0.28609605E+01</totfact>
</mgrwt>
</event>
<event>
 8    1  0.7623533E-028  0.2257347E+04  0.7818608E-02  0.8494931E-01
         -2   -1    0    0    0  501 -0.00000000000E+00  0.00000000000E+00  0.65506803676E+03  0.65506803676E+03  0.25500000000E-02 0. -1.
          2   -1    0    0  501    0  0.00000000000E+00 -0.00000000000E+00 -0.19446901291E+04  0.19446901291E+04  0.25500000000E-02 0.  1.
     200001    2    1    2    0    0 -0.10359334036E+03 -0.23114890389E+03  0.33255687193E+03  0.81492596421E+03  0.69953474405E+03 0.  0.
    5000001    2    3    3    0    0  0.66870073807E+02  0.37148068953E+02  0.44431427427E+02  0.15609570308E+03  0.12860844054E+03 0.  0.
        -13    1    4    4    0    0  0.87469987876E+02  0.52599375572E+02  0.53923858472E+02  0.11543607220E+03  0.10566000000E+00 0. -1.
     200003    1    4    4    0    0 -0.20599914069E+02 -0.15451306618E+02 -0.94924310457E+01  0.40659630877E+02  0.30000000000E+02 0. -1.
     200000    1    3    3    0    0 -0.17046341417E+03 -0.26829697284E+03  0.28812544451E+03  0.65883026113E+03  0.50000000000E+03 0. -1.
    -200001    1    1    2    0    0  0.10359334036E+03  0.23114890389E+03 -0.16221789643E+04  0.17848322017E+04  0.70000000000E+03 0.  1.
<mgrwt>
<rscale>  0 0.22573474E+04</rscale>
<asrwt>0</asrwt>
<pdfrwt beam="1">  1        2 0.27781287E+00 0.22573474E+04</pdfrwt>
<pdfrwt beam="2">  1       -2 0.93581149E-01 0.22573474E+04</pdfrwt>
<totfact> 0.75619827E+00</totfact>
</mgrwt>
</event>
<event>
 8    1  0.7623533E-028  0.2043122E+04  0.7818608E-02  0.8586721E-01
         -2   -1    0    0    0  501 -0.00000000000E+00  0.00000000000E+00  0.69348273314E+03  0.69348273314E+03  0.25500000000E-02 0. -1.
          2   -1    0    0  501    0  0.00000000000E+00 -0.00000000000E+00 -0.15048489186E+04  0.15048489186E+04  0.25500000000E-02 0.  1.
     200001    2    1    2    0    0 -0.92649554872E+02 -0.17354939239E+03 -0.11781364470E+04  0.13839461434E+04  0.69899793160E+03 0.  0.
    5000001    2    3    3    0    0 -0.38426734166E+02 -0.11386423902E+03 -0.43688877026E+03  0.48619865655E+03  0.17628288978E+03 0.  0.
        -13    1    4    4    0    0  0.33400670536E+02  0.32823929890E+02 -0.10980028662E+03  0.11936971672E+03  0.10566000000E+00 0. -1.
     200003    1    4    4    0    0 -0.71827404702E+02 -0.14668816891E+03 -0.32708848364E+03  0.36682893982E+03  0.30000000000E+02 0. -1.
     200000    1    3    3    0    0 -0.54222820706E+02 -0.59685153374E+02 -0.74124767672E+03  0.89774748681E+03  0.50000000000E+03 0.  1.
    -200001    1    1    2    0    0  0.92649554872E+02  0.17354939239E+03  0.36677026149E+03  0.81438550842E+03  0.70000000000E+03 0. -1.
<mgrwt>
<rscale>  0 0.20431219E+04</rscale>
<asrwt>0</asrwt>
<pdfrwt beam="1">  1        2 0.21497842E+00 0.20431219E+04</pdfrwt>
<pdfrwt beam="2">  1       -2 0.99068962E-01 0.20431219E+04</pdfrwt>
<totfact> 0.11410908E+01</totfact>
</mgrwt>
</event>
<event>
 8    1  0.7623533E-028  0.2304927E+04  0.7818608E-02  0.8475981E-01
         -2   -1    0    0    0  501 -0.00000000000E+00  0.00000000000E+00  0.10635884343E+04  0.10635884343E+04  0.25500000000E-02 0. -1.
          2   -1    0    0  501    0  0.00000000000E+00 -0.00000000000E+00 -0.12487648714E+04  0.12487648714E+04  0.25500000000E-02 0.  1.
     200001    2    1    2    0    0 -0.59958080423E+03  0.35306044179E+03  0.50360679218E+03  0.11087872904E+04  0.70117090491E+03 0.  0.
    5000001    2    3    3    0    0 -0.82108795621E+02  0.17007904602E+02  0.13664873285E+03  0.23393484300E+03  0.17035701172E+03 0.  0.
        -13    1    4    4    0    0 -0.72329358072E+02 -0.27400448041E+02  0.15760909086E+03  0.17556468118E+03  0.10566000000E+00 0. -1.
     200003    1    4    4    0    0 -0.97794375489E+01  0.44408352643E+02 -0.20960358005E+02  0.58370161820E+02  0.30000000000E+02 0. -1.
     200000    1    3    3    0    0 -0.51747200860E+03  0.33605253719E+03  0.36695805933E+03  0.87485244741E+03  0.50000000000E+03 0. -1.
    -200001    1    1    2    0    0  0.59958080423E+03 -0.35306044179E+03 -0.68878322927E+03  0.12035660153E+04  0.70000000000E+03 0.  1.
<mgrwt>
<rscale>  0 0.23049268E+04</rscale>
<asrwt>0</asrwt>
<pdfrwt beam="1">  1        2 0.17839498E+00 0.23049268E+04</pdfrwt>
<pdfrwt beam="2">  1       -2 0.15194121E+00 0.23049268E+04</pdfrwt>
<totfact> 0.52893701E+00</totfact>
</mgrwt>
</event>
<event>
 8    1  0.7623533E-028  0.1596889E+04  0.7818608E-02  0.8822461E-01
          2   -1    0    0  501    0  0.00000000000E+00  0.00000000000E+00  0.23325172869E+04  0.23325172869E+04  0.25500000000E-02 0.  1.
         -2   -1    0    0    0  501 -0.00000000000E+00 -0.00000000000E+00 -0.27331581029E+03  0.27331581031E+03  0.25500000000E-02 0. -1.
     200001    2    1    2    0    0  0.15196070972E+03  0.20338612362E+02  0.16039016895E+04  0.17568315586E+04  0.70032191113E+03 0.  0.
    5000001    2    3    3    0    0  0.99887266900E+01  0.72324330794E+01  0.31618065626E+03  0.36810794485E+03  0.18809882753E+03 0.  0.
        -13    1    4    4    0    0  0.63110046145E+02  0.72802166504E+02  0.19410509909E+03  0.21670217818E+03  0.10566000000E+00 0. -1.
     200003    1    4    4    0    0 -0.53121319455E+02 -0.65569733425E+02  0.12207555717E+03  0.15140576667E+03  0.30000000000E+02 0. -1.
     200000    1    3    3    0    0  0.14197198303E+03  0.13106179282E+02  0.12877210333E+04  0.13887236137E+04  0.50000000000E+03 0.  1.
    -200001    1    1    2    0    0 -0.15196070972E+03 -0.20338612362E+02  0.45529978711E+03  0.84900153863E+03  0.70000000000E+03 0. -1.
<mgrwt>
<rscale>  0 0.15968893E+04</rscale>
<asrwt>0</asrwt>
<pdfrwt beam="1">  1        2 0.33321675E+00 0.15968893E+04</pdfrwt>
<pdfrwt beam="2">  1       -2 0.39045116E-01 0.15968893E+04</pdfrwt>
<totfact> 0.32175737E+01</totfact>
</mgrwt>
</event>
<event>
 8    1  0.7623533E-028  0.1558212E+04  0.7818608E-02  0.8846639E-01
         -2   -1    0    0    0  501 -0.00000000000E+00  0.00000000000E+00  0.20523950715E+04  0.20523950715E+04  0.25500000000E-02 0. -1.
          2   -1    0    0  501    0  0.00000000000E+00 -0.00000000000E+00 -0.29575513580E+03  0.29575513581E+03  0.25500000000E-02 0.  1.
     200001    2    1    2    0    0 -0.21982451741E+03 -0.26006905387E+03  0.91943203848E+03  0.12049635233E+04  0.70044492142E+03 0.  0.
    5000001    2    3    3    0    0  0.42088674935E+02 -0.49677440495E+01  0.20872518979E+03  0.26221253640E+03  0.15294794655E+03 0.  0.
        -13    1    4    4    0    0  0.35464025549E+02 -0.27587208118E+01 -0.13362981873E+02  0.37998527567E+02  0.10566000000E+00 0. -1.
     200003    1    4    4    0    0  0.66246493863E+01 -0.22090232378E+01  0.22208817166E+03  0.22421400883E+03  0.30000000000E+02 0. -1.
     200000    1    3    3    0    0 -0.26191319234E+03 -0.25510130982E+03  0.71070684869E+03  0.94275098694E+03  0.50000000000E+03 0.  1.
    -200001    1    1    2    0    0  0.21982451741E+03  0.26006905387E+03  0.83720789721E+03  0.11431866840E+04  0.70000000000E+03 0.  1.
<mgrwt>
<rscale>  0 0.15582123E+04</rscale>
<asrwt>0</asrwt>
<pdfrwt beam="1">  1        2 0.42250734E-01 0.15582123E+04</pdfrwt>
<pdfrwt beam="2">  1       -2 0.29319929E+00 0.15582123E+04</pdfrwt>
<totfact> 0.40976629E+00</totfact>
</mgrwt>
</event>
<event>
 8    1  0.7623533E-028  0.1483103E+04  0.7818608E-02  0.8895768E-01
          2   -1    0    0  501    0  0.00000000000E+00  0.00000000000E+00  0.67352845913E+03  0.67352845914E+03  0.25500000000E-02 0.  1.
         -2   -1    0    0    0  501 -0.00000000000E+00 -0.00000000000E+00 -0.81644458544E+03  0.81644458544E+03  0.25500000000E-02 0. -1.
     200001    2    1    2    0    0  0.18491690433E+03  0.76297628378E+02  0.64552228592E+02  0.73296663253E+03  0.70218053560E+03 0.  0.
    5000001    2    3    3    0    0  0.14736541071E+02 -0.88707206807E+02  0.13417561106E+03  0.17526118423E+03  0.68023921625E+02 0.  0.
        -13    1    4    4    0    0 -0.12489875819E+02  0.37156854555E+00  0.29125789802E+02  0.31693183128E+02  0.10566000000E+00 0. -1.
     200003    1    4    4    0    0  0.27226416890E+02 -0.89078775353E+02  0.10504982125E+03  0.14356800110E+03  0.30000000000E+02 0. -1.
     200000    1    3    3    0    0  0.17018036326E+03  0.16500483519E+03 -0.69623382464E+02  0.55770544830E+03  0.50000000000E+03 0. -1.
    -200001    1    1    2    0    0 -0.18491690433E+03 -0.76297628378E+02 -0.20746835490E+03  0.75700641205E+03  0.70000000000E+03 0. -1.
<mgrwt>
<rscale>  0 0.14831030E+04</rscale>
<asrwt>0</asrwt>
<pdfrwt beam="1">  1        2 0.96218352E-01 0.14831030E+04</pdfrwt>
<pdfrwt beam="2">  1       -2 0.11663494E+00 0.14831030E+04</pdfrwt>
<totfact> 0.26058114E+01</totfact>
</mgrwt>
</event>
<event>
 8    1  0.7623533E-028  0.3106260E+04  0.7818608E-02  0.8214022E-01
         -2   -1    0    0    0  501 -0.00000000000E+00  0.00000000000E+00  0.18055448098E+04  0.18055448098E+04  0.25500000000E-02 0. -1.
          2   -1    0    0  501    0  0.00000000000E+00 -0.00000000000E+00 -0.13360025238E+04  0.13360025238E+04  0.25500000000E-02 0.  1.
     200001    2    1    2    0    0 -0.78797868719E+03  0.96606293343E+03  0.84878265917E+03  0.16623545594E+04  0.69914424528E+03 0.  0.
    5000001    2    3    3    0    0 -0.27439899803E+03  0.37721448834E+03  0.30262928877E+03  0.58588342997E+03  0.18463295145E+03 0.  0.
        -13    1    4    4    0    0 -0.13956572013E+03  0.31391481840E+03  0.16600536605E+03  0.38154802603E+03  0.10566000000E+00 0. -1.
     200003    1    4    4    0    0 -0.13483327790E+03  0.63299669934E+02  0.13662392273E+03  0.20433540394E+03  0.30000000000E+02 0. -1.
     200000    1    3    3    0    0 -0.51357968916E+03  0.58884844509E+03  0.54615337039E+03  0.10764711294E+04  0.50000000000E+03 0. -1.
    -200001    1    1    2    0    0  0.78797868719E+03 -0.96606293343E+03 -0.37924037309E+03  0.14791927742E+04  0.70000000000E+03 0.  1.
<mgrwt>
<rscale>  0 0.31062598E+04</rscale>
<asrwt>0</asrwt>
<pdfrwt beam="1">  1        2 0.19085750E+00 0.31062598E+04</pdfrwt>
<pdfrwt beam="2">  1       -2 0.25793497E+00 0.31062598E+04</pdfrwt>
<totfact> 0.88068725E-01</totfact>
</mgrwt>
</event>
<event>
 8    1  0.7623533E-028  0.1867246E+04  0.7818608E-02  0.8671334E-01
          2   -1    0    0  501    0  0.00000000000E+00  0.00000000000E+00  0.11862684618E+04  0.11862684618E+04  0.25500000000E-02 0.  1.
         -2   -1    0    0    0  501 -0.00000000000E+00 -0.00000000000E+00 -0.73478467428E+03  0.73478467429E+03  0.25500000000E-02 0. -1.
     200001    2    1    2    0    0 -0.36187300530E+03 -0.30330945521E+03  0.63511310098E+03  0.10569533604E+04  0.70059478841E+03 0.  0.
    5000001    2    3    3    0    0 -0.10572034392E+03 -0.80317060686E+02  0.27483543838E+03  0.35329166040E+03  0.17791250030E+03 0.  0.
        -13    1    4    4    0    0 -0.10058597412E+03  0.28727217768E+02  0.16625137717E+03  0.19642383462E+03  0.10566000000E+00 0. -1.
     200003    1    4    4    0    0 -0.51343698031E+01 -0.10904427845E+03  0.10858406121E+03  0.15686782578E+03  0.30000000000E+02 0. -1.
     200000    1    3    3    0    0 -0.25615266138E+03 -0.22299239452E+03  0.36027766259E+03  0.70366170005E+03  0.50000000000E+03 0.  1.
    -200001    1    1    2    0    0  0.36187300530E+03  0.30330945521E+03 -0.18362931342E+03  0.86409977568E+03  0.70000000000E+03 0.  1.
<mgrwt>
<rscale>  0 0.18672460E+04</rscale>
<asrwt>0</asrwt>
<pdfrwt beam="1">  1        2 0.16946692E+00 0.18672460E+04</pdfrwt>
<pdfrwt beam="2">  1       -2 0.10496924E+00 0.18672460E+04</pdfrwt>
<totfact> 0.15085794E+01</totfact>
</mgrwt>
</event>
<event>
 8    1  0.7623533E-028  0.1703023E+04  0.7818608E-02  0.8759642E-01
          2   -1    0    0  501    0  0.00000000000E+00  0.00000000000E+00  0.80699974258E+03  0.80699974258E+03  0.25500000000E-02 0. -1.
         -2   -1    0    0    0  501 -0.00000000000E+00 -0.00000000000E+00 -0.89847855481E+03  0.89847855481E+03  0.25500000000E-02 0.  1.
     200001    2    1    2    0    0 -0.24290340446E+01 -0.30459639278E+03  0.33343490985E+03  0.83178697095E+03  0.69850258642E+03 0.  0.
    5000001    2    3    3    0    0 -0.12338987352E+02  0.33478752465E+02  0.92290252806E+02  0.18175331287E+03  0.15245884199E+03 0.  0.
        -13    1    4    4    0    0  0.19723665168E+02  0.14447415953E+02  0.12266080808E+03  0.12507372145E+03  0.10566000000E+00 0. -1.
     200003    1    4    4    0    0 -0.32062652519E+02  0.19031336512E+02 -0.30370555274E+02  0.56679591421E+02  0.30000000000E+02 0. -1.
     200000    1    3    3    0    0  0.99099533072E+01 -0.33807514524E+03  0.24114465705E+03  0.65003365807E+03  0.50000000000E+03 0. -1.
    -200001    1    1    2    0    0  0.24290340446E+01  0.30459639278E+03 -0.42491372208E+03  0.87369132645E+03  0.70000000000E+03 0.  1.
<mgrwt>
<rscale>  0 0.17030232E+04</rscale>
<asrwt>0</asrwt>
<pdfrwt beam="1">  1        2 0.11528568E+00 0.17030232E+04</pdfrwt>
<pdfrwt beam="2">  1       -2 0.12835408E+00 0.17030232E+04</pdfrwt>
<totfact> 0.16079076E+01</totfact>
</mgrwt>
</event>
<event>
 8    1  0.7623533E-028  0.1593952E+04  0.7818608E-02  0.8824272E-01
         -2   -1    0    0    0  501 -0.00000000000E+00  0.00000000000E+00  0.24983405197E+03  0.24983405199E+03  0.25500000000E-02 0. -1.
          2   -1    0    0  501    0  0.00000000000E+00 -0.00000000000E+00 -0.25423708692E+04  0.25423708692E+04  0.25500000000E-02 0.  1.
     200001    2    1    2    0    0  0.99834605413E+02 -0.80285167893E+01 -0.50072539036E+03  0.86590806064E+03  0.69931355443E+03 0.  0.
    5000001    2    3    3    0    0  0.10204333331E+03 -0.35727119917E+02 -0.27178573564E+03  0.31528527088E+03  0.11767772504E+03 0.  0.
        -13    1    4    4    0    0  0.85999755312E+02 -0.75043947730E+01 -0.25287990626E+03  0.26720877981E+03  0.10566000000E+00 0. -1.
     200003    1    4    4    0    0  0.16043577996E+02 -0.28222725144E+02 -0.18905829383E+02  0.48076491075E+02  0.30000000000E+02 0. -1.
     200000    1    3    3    0    0 -0.22087278950E+01  0.27698603128E+02 -0.22893965472E+03  0.55062278976E+03  0.50000000000E+03 0. -1.
    -200001    1    1    2    0    0 -0.99834605413E+02  0.80285167893E+01 -0.17918114269E+04  0.19262968606E+04  0.70000000000E+03 0.  1.
<mgrwt>
<rscale>  0 0.15939521E+04</rscale>
<asrwt>0</asrwt>
<pdfrwt beam="1">  1        2 0.36319582E+00 0.15939521E+04</pdfrwt>
<pdfrwt beam="2">  1       -2 0.35690580E-01 0.15939521E+04</pdfrwt>
<totfact> 0.29728203E+01</totfact>
</mgrwt>
</event>
<event>
 8    1  0.7623533E-028  0.2380708E+04  0.7818608E-02  0.8446762E-01
          2   -1    0    0  501    0  0.00000000000E+00  0.00000000000E+00  0.91388357865E+03  0.91388357865E+03  0.25500000000E-02 0.  1.
         -2   -1    0    0    0  501 -0.00000000000E+00 -0.00000000000E+00 -0.15504632870E+04  0.15504632870E+04  0.25500000000E-02 0. -1.
     200001    2    1    2    0    0  0.12378319187E+03 -0.42439886824E+03  0.56694372606E+03  0.10035575807E+04  0.70018993941E+03 0.  0.
    5000001    2    3    3    0    0  0.15766388467E+03 -0.16448516719E+03  0.20808523424E+03  0.33461628991E+03  0.12944236558E+03 0.  0.
        -13    1    4    4    0    0  0.78529556574E+02 -0.65632947426E+02  0.17102853093E+03  0.19931217875E+03  0.10566000000E+00 0. -1.
     200003    1    4    4    0    0  0.79134328098E+02 -0.98852219761E+02  0.37056703313E+02  0.13530411116E+03  0.30000000000E+02 0. -1.
     200000    1    3    3    0    0 -0.33880692804E+02 -0.25991370105E+03  0.35885849182E+03  0.66894129077E+03  0.50000000000E+03 0.  1.
    -200001    1    1    2    0    0 -0.12378319187E+03  0.42439886824E+03 -0.12035234344E+04  0.14607892850E+04  0.70000000000E+03 0.  1.
<mgrwt>
<rscale>  0 0.23807082E+04</rscale>
<asrwt>0</asrwt>
<pdfrwt beam="1">  1        2 0.13055480E+00 0.23807082E+04</pdfrwt>
<pdfrwt beam="2">  1       -2 0.22149475E+00 0.23807082E+04</pdfrwt>
<totfact> 0.27865573E+00</totfact>
</mgrwt>
</event>
<event>
 8    1  0.7623533E-028  0.1726239E+04  0.7818608E-02  0.8746539E-01
          2   -1    0    0  501    0  0.00000000000E+00  0.00000000000E+00  0.79979924508E+03  0.79979924508E+03  0.25500000000E-02 0.  1.
         -2   -1    0    0    0  501 -0.00000000000E+00 -0.00000000000E+00 -0.93145290713E+03  0.93145290713E+03  0.25500000000E-02 0. -1.
     200001    2    1    2    0    0  0.46333974396E+03  0.19554420266E+03 -0.93721312515E+02  0.86848908122E+03  0.70183213538E+03 0.  0.
    5000001    2    3    3    0    0  0.68811647516E+02  0.61177515580E+02 -0.75402332920E+02  0.21730369249E+03  0.18181763312E+03 0.  0.
        -13    1    4    4    0    0 -0.31909775838E+02 -0.13313262713E+02  0.33856739203E+02  0.48391804178E+02  0.10566000000E+00 0. -1.
     200003    1    4    4    0    0  0.10072142335E+03  0.74490778294E+02 -0.10925907212E+03  0.16891188832E+03  0.30000000000E+02 0. -1.
     200000    1    3    3    0    0  0.39452809644E+03  0.13436668708E+03 -0.18318979595E+02  0.65118538873E+03  0.50000000000E+03 0.  1.
    -200001    1    1    2    0    0 -0.46333974396E+03 -0.19554420266E+03 -0.37932349540E+02  0.86276307099E+03  0.70000000000E+03 0.  1.
<mgrwt>
<rscale>  0 0.17262391E+04</rscale>
<asrwt>0</asrwt>
<pdfrwt beam="1">  1        2 0.11425704E+00 0.17262391E+04</pdfrwt>
<pdfrwt beam="2">  1       -2 0.13306470E+00 0.17262391E+04</pdfrwt>
<totfact> 0.14818475E+01</totfact>
</mgrwt>
</event>
<event>
 8    1  0.7623533E-028  0.1685503E+04  0.7818608E-02  0.8769676E-01
         -2   -1    0    0    0  501 -0.00000000000E+00  0.00000000000E+00  0.32730720675E+04  0.32730720675E+04  0.25500000000E-02 0. -1.
          2   -1    0    0  501    0  0.00000000000E+00 -0.00000000000E+00 -0.21699192641E+03  0.21699192642E+03  0.25500000000E-02 0.  1.
     200001    2    1    2    0    0  0.16406247709E+03  0.12438064587E+03  0.24015748730E+04  0.25098782016E+04  0.69967111910E+03 0.  0.
    5000001    2    3    3    0    0  0.11614191579E+03  0.38687608400E+02  0.75010721477E+03  0.78158855488E+03  0.18230238567E+03 0.  0.
        -13    1    4    4    0    0  0.19882696123E+02  0.89561214557E+02  0.48222459022E+03  0.49087381203E+03  0.10566000000E+00 0. -1.
     200003    1    4    4    0    0  0.96259219669E+02 -0.50873606157E+02  0.26788262455E+03  0.29071474285E+03  0.30000000000E+02 0. -1.
     200000    1    3    3    0    0  0.47920561299E+02  0.85693037472E+02  0.16514676582E+04  0.17282896467E+04  0.50000000000E+03 0. -1.
    -200001    1    1    2    0    0 -0.16406247709E+03 -0.12438064587E+03  0.65450526809E+03  0.98018579229E+03  0.70000000000E+03 0.  1.
<mgrwt>
<rscale>  0 0.16855031E+04</rscale>
<asrwt>0</asrwt>
<pdfrwt beam="1">  1        2 0.30998849E-01 0.16855031E+04</pdfrwt>
<pdfrwt beam="2">  1       -2 0.46758168E+00 0.16855031E+04</pdfrwt>
<totfact> 0.43733026E-01</totfact>
</mgrwt>
</event>
<event>
 8    1  0.7623533E-028  0.1676927E+04  0.7818608E-02  0.8774634E-01
          2   -1    0    0  501    0  0.00000000000E+00  0.00000000000E+00  0.13909891606E+04  0.13909891606E+04  0.25500000000E-02 0.  1.
         -2   -1    0    0    0  501 -0.00000000000E+00 -0.00000000000E+00 -0.50541090419E+03  0.50541090420E+03  0.25500000000E-02 0. -1.
     200001    2    1    2    0    0 -0.11789063917E+03  0.32291051139E+03  0.79186929631E+03  0.11109379267E+04  0.69925438383E+03 0.  0.
    5000001    2    3    3    0    0 -0.10467494146E+03  0.13957225871E+03  0.25045328241E+03  0.35138617092E+03  0.17409231939E+03 0.  0.
        -13    1    4    4    0    0  0.36724520839E+02 -0.87850562178E+01  0.54116912752E+02  0.65988779755E+02  0.10566000000E+00 0. -1.
     200003    1    4    4    0    0 -0.14139946230E+03  0.14835731493E+03  0.19633636966E+03  0.28539739116E+03  0.30000000000E+02 0. -1.
     200000    1    3    3    0    0 -0.13215697705E+02  0.18333825268E+03  0.54141601390E+03  0.75955175575E+03  0.50000000000E+03 0.  1.
    -200001    1    1    2    0    0  0.11789063917E+03 -0.32291051139E+03  0.93708960052E+02  0.78546213808E+03  0.70000000000E+03 0. -1.
<mgrwt>
<rscale>  0 0.16769271E+04</rscale>
<asrwt>0</asrwt>
<pdfrwt beam="1">  1        2 0.19871274E+00 0.16769271E+04</pdfrwt>
<pdfrwt beam="2">  1       -2 0.72201557E-01 0.16769271E+04</pdfrwt>
<totfact> 0.27773685E+01</totfact>
</mgrwt>
</event>
<event>
 8    1  0.7623533E-028  0.1468488E+04  0.7818608E-02  0.8905683E-01
          2   -1    0    0  501    0  0.00000000000E+00  0.00000000000E+00  0.18583543101E+04  0.18583543101E+04  0.25500000000E-02 0.  1.
         -2   -1    0    0    0  501 -0.00000000000E+00 -0.00000000000E+00 -0.29010315387E+03  0.29010315388E+03  0.25500000000E-02 0. -1.
     200001    2    1    2    0    0  0.13704651543E+03  0.13029742841E+03  0.95042185448E+03  0.11958441041E+04  0.70070125781E+03 0.  0.
    5000001    2    3    3    0    0  0.71149881389E+02  0.45437775935E+02  0.33634358974E+03  0.39669728270E+03  0.19265208704E+03 0.  0.
        -13    1    4    4    0    0  0.10046145515E+03 -0.28759260460E+02  0.96799831948E+02  0.14244233100E+03  0.10566000000E+00 0. -1.
     200003    1    4    4    0    0 -0.29311573757E+02  0.74197036395E+02  0.23954375780E+03  0.25425495170E+03  0.30000000000E+02 0. -1.
     200000    1    3    3    0    0  0.65896634039E+02  0.84859652478E+02  0.61407826473E+03  0.79914682144E+03  0.50000000000E+03 0.  1.
    -200001    1    1    2    0    0 -0.13704651543E+03 -0.13029742841E+03  0.61782930174E+03  0.95261335983E+03  0.70000000000E+03 0. -1.
<mgrwt>
<rscale>  0 0.14684883E+04</rscale>
<asrwt>0</asrwt>
<pdfrwt beam="1">  1        2 0.26547919E+00 0.14684883E+04</pdfrwt>
<pdfrwt beam="2">  1       -2 0.41443307E-01 0.14684883E+04</pdfrwt>
<totfact> 0.50771010E+01</totfact>
</mgrwt>
</event>
<event>
 8    1  0.7623533E-028  0.1885103E+04  0.7818608E-02  0.8662307E-01
         -2   -1    0    0    0  501 -0.00000000000E+00  0.00000000000E+00  0.27041009970E+03  0.27041009971E+03  0.25500000000E-02 0. -1.
          2   -1    0    0  501    0  0.00000000000E+00 -0.00000000000E+00 -0.32853937160E+04  0.32853937160E+04  0.25500000000E-02 0.  1.
     200001    2    1    2    0    0 -0.48726438406E+03 -0.40110709750E+03 -0.14859767517E+04  0.17596480664E+04  0.69994351734E+03 0.  0.
    5000001    2    3    3    0    0 -0.23788240330E+03 -0.67509701167E+02 -0.50367708855E+03  0.58134792495E+03  0.15208288125E+03 0.  0.
        -13    1    4    4    0    0 -0.94578280737E+02 -0.94084102959E+02 -0.17079126170E+03  0.21671764085E+03  0.10566000000E+00 0. -1.
     200003    1    4    4    0    0 -0.14330412257E+03  0.26574401792E+02 -0.33288582684E+03  0.36463028411E+03  0.30000000000E+02 0. -1.
     200000    1    3    3    0    0 -0.24938198076E+03 -0.33359739634E+03 -0.98229966312E+03  0.11783001415E+04  0.50000000000E+03 0.  1.
    -200001    1    1    2    0    0  0.48726438406E+03  0.40110709750E+03 -0.15290068646E+04  0.17961557493E+04  0.70000000000E+03 0. -1.
<mgrwt>
<rscale>  0 0.18851033E+04</rscale>
<asrwt>0</asrwt>
<pdfrwt beam="1">  1        2 0.46934194E+00 0.18851033E+04</pdfrwt>
<pdfrwt beam="2">  1       -2 0.38630016E-01 0.18851033E+04</pdfrwt>
<totfact> 0.96599912E+00</totfact>
</mgrwt>
</event>
<event>
 8    1  0.7623533E-028  0.1987271E+04  0.7818608E-02  0.8612595E-01
         -2   -1    0    0    0  501 -0.00000000000E+00  0.00000000000E+00  0.97125156482E+03  0.97125156483E+03  0.25500000000E-02 0. -1.
          2   -1    0    0  501    0  0.00000000000E+00 -0.00000000000E+00 -0.10165357904E+04  0.10165357904E+04  0.25500000000E-02 0.  1.
     200001    2    1    2    0    0  0.22675179615E+03 -0.61137991122E+03  0.24662212805E+03  0.98758183024E+03  0.69949526409E+03 0.  0.
    5000001    2    3    3    0    0  0.76378984195E+02 -0.15639305291E+03  0.86993525763E+02  0.27687351140E+03  0.19697342857E+03 0.  0.
        -13    1    4    4    0    0 -0.40688308072E+02 -0.13267632371E+03  0.57632427815E+02  0.15026660702E+03  0.10566000000E+00 0. -1.
     200003    1    4    4    0    0  0.11706729227E+03 -0.23716729205E+02  0.29361097949E+02  0.12660690438E+03  0.30000000000E+02 0. -1.
     200000    1    3    3    0    0  0.15037281196E+03 -0.45498685831E+03  0.15962860229E+03  0.71070831885E+03  0.50000000000E+03 0. -1.
    -200001    1    1    2    0    0 -0.22675179615E+03  0.61137991122E+03 -0.29190635361E+03  0.10002055250E+04  0.70000000000E+03 0.  1.
<mgrwt>
<rscale>  0 0.19872715E+04</rscale>
<asrwt>0</asrwt>
<pdfrwt beam="1">  1        2 0.14521940E+00 0.19872715E+04</pdfrwt>
<pdfrwt beam="2">  1       -2 0.13875022E+00 0.19872715E+04</pdfrwt>
<totfact> 0.94151556E+00</totfact>
</mgrwt>
</event>
<event>
 8    1  0.7623533E-028  0.1893923E+04  0.7818608E-02  0.8657887E-01
         -2   -1    0    0    0  501 -0.00000000000E+00  0.00000000000E+00  0.10795024118E+04  0.10795024118E+04  0.25500000000E-02 0. -1.
          2   -1    0    0  501    0  0.00000000000E+00 -0.00000000000E+00 -0.83069371058E+03  0.83069371058E+03  0.25500000000E-02 0.  1.
     200001    2    1    2    0    0  0.21827860235E+02  0.27235888439E+03 -0.45898175321E+03  0.87790587989E+03  0.69670558113E+03 0.  0.
    5000001    2    3    3    0    0  0.86345361034E+02  0.95302681835E+02 -0.21221575842E+03  0.28934418987E+03  0.14881669783E+03 0.  0.
        -13    1    4    4    0    0 -0.38431135186E+02  0.29527463858E+01 -0.43712366919E+02  0.58279096155E+02  0.10566000000E+00 0. -1.
     200003    1    4    4    0    0  0.12477649622E+03  0.92349935449E+02 -0.16850339150E+03  0.23106509372E+03  0.30000000000E+02 0. -1.
     200000    1    3    3    0    0 -0.64517500799E+02  0.17705620255E+03 -0.24676599479E+03  0.58856169002E+03  0.50000000000E+03 0.  1.
    -200001    1    1    2    0    0 -0.21827860235E+02 -0.27235888439E+03  0.70779045444E+03  0.10322902425E+04  0.70000000000E+03 0. -1.
<mgrwt>
<rscale>  0 0.18939228E+04</rscale>
<asrwt>0</asrwt>
<pdfrwt beam="1">  1        2 0.11867053E+00 0.18939228E+04</pdfrwt>
<pdfrwt beam="2">  1       -2 0.15421463E+00 0.18939228E+04</pdfrwt>
<totfact> 0.94660098E+00</totfact>
</mgrwt>
</event>
<event>
 8    1  0.7623533E-028  0.1919018E+04  0.7818608E-02  0.8645448E-01
         -2   -1    0    0    0  501 -0.00000000000E+00  0.00000000000E+00  0.62666050115E+03  0.62666050115E+03  0.25500000000E-02 0. -1.
          2   -1    0    0  501    0  0.00000000000E+00 -0.00000000000E+00 -0.14691480542E+04  0.14691480542E+04  0.25500000000E-02 0.  1.
     200001    2    1    2    0    0  0.45871383832E+02  0.57842829203E+03 -0.85849392363E+02  0.91293714260E+03  0.69957175136E+03 0.  0.
    5000001    2    3    3    0    0  0.16912502989E+02  0.18052635619E+03 -0.17540373911E+02  0.26964040755E+03  0.19880263235E+03 0.  0.
        -13    1    4    4    0    0  0.45914359306E+02  0.13868107868E+03  0.71603071813E+02  0.16268860142E+03  0.10566000000E+00 0. -1.
     200003    1    4    4    0    0 -0.29001856318E+02  0.41845277517E+02 -0.89143445724E+02  0.10695180614E+03  0.30000000000E+02 0. -1.
     200000    1    3    3    0    0  0.28958880843E+02  0.39790193583E+03 -0.68309018452E+02  0.64329673504E+03  0.50000000000E+03 0.  1.
    -200001    1    1    2    0    0 -0.45871383832E+02 -0.57842829203E+03 -0.75663816065E+03  0.11828714127E+04  0.70000000000E+03 0.  1.
<mgrwt>
<rscale>  0 0.19190175E+04</rscale>
<asrwt>0</asrwt>
<pdfrwt beam="1">  1        2 0.20987829E+00 0.19190175E+04</pdfrwt>
<pdfrwt beam="2">  1       -2 0.89522929E-01 0.19190175E+04</pdfrwt>
<totfact> 0.15248057E+01</totfact>
</mgrwt>
</event>
