<event>
 8    1  0.7326756E-052  0.2121437E+04  0.7818608E-02  0.8551858E-01
          2   -1    0    0  501    0  0.00000000000E+00  0.00000000000E+00  0.16270185093E+04  0.16270185093E+04  0.25500000000E-02 0.  1.
         -2   -1    0    0    0  501 -0.00000000000E+00 -0.00000000000E+00 -0.69152499093E+03  0.69152499093E+03  0.25500000000E-02 0. -1.
     200001    2    1    2    0    0  0.62940968940E+03 -0.54796557642E+03  0.71924179713E+03  0.12607360334E+04  0.61296309276E+03 0.  0.
    5000001    2    3    3    0    0  0.61268793418E+03 -0.64466356441E+03  0.61881989731E+03  0.10877745465E+04  0.96632203489E+02 0.  0.
        -11    1    4    4    0    0  0.42148939779E+02 -0.34761885909E+02  0.66432481749E+02  0.86012769215E+02  0.51100000000E-03 0. -1.
     200002    1    4    4    0    0  0.57053899440E+03 -0.60990167850E+03  0.55238741556E+03  0.10017617773E+04  0.30000000000E+02 0. -1.
     200000    1    3    3    0    0  0.16721755221E+02  0.96697987992E+02  0.10042189982E+03  0.17296148688E+03  0.10100000000E+03 0.  1.
    -200001    1    1    2    0    0 -0.62940968940E+03  0.54796557642E+03  0.21625172128E+03  0.10578074669E+04  0.61300000000E+03 0. -1.
<mgrwt>
<rscale>  0 0.21214372E+04</rscale>
<asrwt>0</asrwt>
<pdfrwt beam="1">  1        2 0.23243122E+00 0.21214372E+04</pdfrwt>
<pdfrwt beam="2">  1       -2 0.98789284E-01 0.21214372E+04</pdfrwt>
<totfact> 0.98403467E+00</totfact>
</mgrwt>
</event>
<event>
 8    1  0.7326756E-052  0.1544117E+04  0.7818608E-02  0.8855634E-01
          2   -1    0    0  501    0  0.00000000000E+00  0.00000000000E+00  0.63712227955E+03  0.63712227955E+03  0.25500000000E-02 0.  1.
         -2   -1    0    0    0  501 -0.00000000000E+00 -0.00000000000E+00 -0.93557252676E+03  0.93557252677E+03  0.25500000000E-02 0. -1.
     200001    2    1    2    0    0  0.52121182097E+02 -0.44957014478E+03 -0.27615019087E+03  0.81039812837E+03  0.61290804028E+03 0.  0.
    5000001    2    3    3    0    0 -0.15354507490E+03 -0.49685080777E+03 -0.18598372710E+03  0.55966906833E+03  0.90568780998E+02 0.  0.
        -11    1    4    4    0    0  0.70276594205E+01 -0.55406379061E+02 -0.78866918788E+01  0.56404385882E+02  0.51100000000E-03 0. -1.
     200002    1    4    4    0    0 -0.16057273432E+03 -0.44144442871E+03 -0.17809703522E+03  0.50326468245E+03  0.30000000000E+02 0. -1.
     200000    1    3    3    0    0  0.20566625700E+03  0.47280662987E+02 -0.90166463768E+02  0.25072906004E+03  0.10100000000E+03 0.  1.
    -200001    1    1    2    0    0 -0.52121182097E+02  0.44957014478E+03 -0.22300056344E+02  0.76229667795E+03  0.61300000000E+03 0.  1.
<mgrwt>
<rscale>  0 0.15441167E+04</rscale>
<asrwt>0</asrwt>
<pdfrwt beam="1">  1        2 0.91017469E-01 0.15441167E+04</pdfrwt>
<pdfrwt beam="2">  1       -2 0.13365322E+00 0.15441167E+04</pdfrwt>
<totfact> 0.19717580E+01</totfact>
</mgrwt>
</event>
<event>
 8    1  0.7326756E-052  0.1593219E+04  0.7818608E-02  0.8824724E-01
          2   -1    0    0  501    0  0.00000000000E+00  0.00000000000E+00  0.24612573206E+04  0.24612573206E+04  0.25500000000E-02 0.  1.
         -2   -1    0    0    0  501 -0.00000000000E+00 -0.00000000000E+00 -0.25783041553E+03  0.25783041554E+03  0.25500000000E-02 0. -1.
     200001    2    1    2    0    0  0.44435398196E+03 -0.22022267181E+03  0.90557394540E+03  0.12004897672E+04  0.61250552978E+03 0.  0.
    5000001    2    3    3    0    0 -0.12570689129E+03  0.42536718381E+02  0.20078102515E+03  0.25130803705E+03  0.72326443966E+02 0.  0.
        -11    1    4    4    0    0  0.12143864702E+00 -0.89916865588E+01  0.31014042630E+01  0.95123016763E+01  0.51100000000E-03 0. -1.
     200002    1    4    4    0    0 -0.12582832994E+03  0.51528404940E+02  0.19767962089E+03  0.24179573537E+03  0.30000000000E+02 0. -1.
     200000    1    3    3    0    0  0.57006087325E+03 -0.26275939019E+03  0.70479292025E+03  0.94918173011E+03  0.10100000000E+03 0. -1.
    -200001    1    1    2    0    0 -0.44435398196E+03  0.22022267181E+03  0.12978529597E+04  0.15185979690E+04  0.61300000000E+03 0.  1.
<mgrwt>
<rscale>  0 0.15932194E+04</rscale>
<asrwt>0</asrwt>
<pdfrwt beam="1">  1        2 0.35160816E+00 0.15932194E+04</pdfrwt>
<pdfrwt beam="2">  1       -2 0.36832920E-01 0.15932194E+04</pdfrwt>
<totfact> 0.30871336E+01</totfact>
</mgrwt>
</event>
<event>
 8    1  0.7326756E-052  0.2288395E+04  0.7818608E-02  0.8482511E-01
         -2   -1    0    0    0  501 -0.00000000000E+00  0.00000000000E+00  0.13018920397E+04  0.13018920397E+04  0.25500000000E-02 0. -1.
          2   -1    0    0  501    0  0.00000000000E+00 -0.00000000000E+00 -0.10056043335E+04  0.10056043335E+04  0.25500000000E-02 0.  1.
     200001    2    1    2    0    0 -0.93492796100E+03  0.23315295381E+03  0.20372915167E+03  0.11617273397E+04  0.61616089808E+03 0.  0.
    5000001    2    3    3    0    0 -0.77596298926E+03  0.17542145790E+03  0.39075268236E+03  0.89009967373E+03  0.81844497815E+02 0.  0.
        -11    1    4    4    0    0 -0.61717585685E+03  0.12718268219E+03  0.32576118238E+03  0.70936719749E+03  0.51100000000E-03 0. -1.
     200002    1    4    4    0    0 -0.15878713240E+03  0.48238775709E+02  0.64991499973E+02  0.18073247624E+03  0.30000000000E+02 0. -1.
     200000    1    3    3    0    0 -0.15896497174E+03  0.57731495907E+02 -0.18702353069E+03  0.27162766592E+03  0.10100000000E+03 0.  1.
    -200001    1    1    2    0    0  0.93492796100E+03 -0.23315295381E+03  0.92558554510E+02  0.11457690335E+04  0.61300000000E+03 0.  1.
<mgrwt>
<rscale>  0 0.22883953E+04</rscale>
<asrwt>0</asrwt>
<pdfrwt beam="1">  1        2 0.14365776E+00 0.22883953E+04</pdfrwt>
<pdfrwt beam="2">  1       -2 0.18598458E+00 0.22883953E+04</pdfrwt>
<totfact> 0.41906759E+00</totfact>
</mgrwt>
</event>
<event>
 8    1  0.7326756E-052  0.2197375E+04  0.7818608E-02  0.8519522E-01
          2   -1    0    0  501    0  0.00000000000E+00  0.00000000000E+00  0.37678631529E+04  0.37678631529E+04  0.25500000000E-02 0.  1.
         -2   -1    0    0    0  501 -0.00000000000E+00 -0.00000000000E+00 -0.32037097974E+03  0.32037097975E+03  0.25500000000E-02 0. -1.
     200001    2    1    2    0    0 -0.35192851428E+03  0.83587284078E+03  0.15462045415E+04  0.18943333274E+04  0.61254647653E+03 0.  0.
    5000001    2    3    3    0    0 -0.41413376669E+03  0.47668029818E+03  0.61230025749E+03  0.88672874829E+03  0.11245169779E+03 0.  0.
        -11    1    4    4    0    0 -0.17880128582E+03  0.12967597024E+03  0.22043342099E+03  0.31205231958E+03  0.51100000000E-03 0. -1.
     200002    1    4    4    0    0 -0.23533248087E+03  0.34700432794E+03  0.39186683650E+03  0.57467642871E+03  0.30000000000E+02 0. -1.
     200000    1    3    3    0    0  0.62205252414E+02  0.35919254260E+03  0.93390428402E+03  0.10076045791E+04  0.10100000000E+03 0.  1.
    -200001    1    1    2    0    0  0.35192851428E+03 -0.83587284078E+03  0.19012876317E+04  0.21939008053E+04  0.61300000000E+03 0. -1.
<mgrwt>
<rscale>  0 0.21973748E+04</rscale>
<asrwt>0</asrwt>
<pdfrwt beam="1">  1        2 0.53826617E+00 0.21973748E+04</pdfrwt>
<pdfrwt beam="2">  1       -2 0.45767282E-01 0.21973748E+04</pdfrwt>
<totfact> 0.33950547E+00</totfact>
</mgrwt>
</event>
<event>
 8    1  0.7326756E-052  0.1244954E+04  0.7818608E-02  0.9074394E-01
         -2   -1    0    0    0  501 -0.00000000000E+00  0.00000000000E+00  0.17856894721E+03  0.17856894722E+03  0.25500000000E-02 0. -1.
          2   -1    0    0  501    0  0.00000000000E+00 -0.00000000000E+00 -0.21699037439E+04  0.21699037439E+04  0.25500000000E-02 0.  1.
     200001    2    1    2    0    0 -0.66307833929E+02 -0.87006060547E+02 -0.10119522623E+04  0.11879013094E+04  0.61245028881E+03 0.  0.
    5000001    2    3    3    0    0  0.84572826345E+02  0.18818177745E+03 -0.38257546591E+03  0.47740185713E+03  0.19744265434E+03 0.  0.
        -11    1    4    4    0    0  0.12763088267E+03  0.73125543938E+02 -0.13620389562E+03  0.20047066761E+03  0.51100000000E-03 0. -1.
     200002    1    4    4    0    0 -0.43058056327E+02  0.11505623351E+03 -0.24637157028E+03  0.27693118952E+03  0.30000000000E+02 0. -1.
     200000    1    3    3    0    0 -0.15088066027E+03 -0.27518783800E+03 -0.62937679642E+03  0.71049945228E+03  0.10100000000E+03 0.  1.
    -200001    1    1    2    0    0  0.66307833929E+02  0.87006060547E+02 -0.97938253434E+03  0.11605713817E+04  0.61300000000E+03 0.  1.
<mgrwt>
<rscale>  0 0.12449537E+04</rscale>
<asrwt>0</asrwt>
<pdfrwt beam="1">  1        2 0.30998623E+00 0.12449537E+04</pdfrwt>
<pdfrwt beam="2">  1       -2 0.25509851E-01 0.12449537E+04</pdfrwt>
<totfact> 0.89323862E+01</totfact>
</mgrwt>
</event>
<event>
 8    1  0.7326756E-052  0.1384166E+04  0.7818608E-02  0.8965360E-01
          2   -1    0    0  501    0  0.00000000000E+00  0.00000000000E+00  0.11192414641E+04  0.11192414641E+04  0.25500000000E-02 0.  1.
         -2   -1    0    0    0  501 -0.00000000000E+00 -0.00000000000E+00 -0.42794954117E+03  0.42794954118E+03  0.25500000000E-02 0. -1.
     200001    2    1    2    0    0  0.21164014148E+03  0.50357749137E+02  0.81400727503E+02  0.65552754711E+03  0.61299497077E+03 0.  0.
    5000001    2    3    3    0    0  0.26490899430E+03  0.14618613385E+03 -0.17328458102E+03  0.36042374101E+03  0.91271934746E+02 0.  0.
        -11    1    4    4    0    0  0.21305754477E+03  0.86941933988E+02 -0.11001547826E+03  0.25506042956E+03  0.51100000000E-03 0. -1.
     200002    1    4    4    0    0  0.51851449525E+02  0.59244199867E+02 -0.63269102754E+02  0.10536331145E+03  0.30000000000E+02 0. -1.
     200000    1    3    3    0    0 -0.53268852820E+02 -0.95828384718E+02  0.25468530852E+03  0.29510380610E+03  0.10100000000E+03 0.  1.
    -200001    1    1    2    0    0 -0.21164014148E+03 -0.50357749137E+02  0.60989119543E+03  0.89166345818E+03  0.61300000000E+03 0.  1.
<mgrwt>
<rscale>  0 0.13841660E+04</rscale>
<asrwt>0</asrwt>
<pdfrwt beam="1">  1        2 0.15989163E+00 0.13841660E+04</pdfrwt>
<pdfrwt beam="2">  1       -2 0.61135650E-01 0.13841660E+04</pdfrwt>
<totfact> 0.57795108E+01</totfact>
</mgrwt>
</event>
<event>
 8    1  0.7326756E-052  0.2044846E+04  0.7818608E-02  0.8585936E-01
          2   -1    0    0  501    0  0.00000000000E+00  0.00000000000E+00  0.22465124686E+04  0.22465124686E+04  0.25500000000E-02 0.  1.
         -2   -1    0    0    0  501 -0.00000000000E+00 -0.00000000000E+00 -0.46532088043E+03  0.46532088043E+03  0.25500000000E-02 0. -1.
     200001    2    1    2    0    0 -0.32195210588E+03  0.11272880051E+03 -0.95880304880E+02  0.70795490147E+03  0.61289980315E+03 0.  0.
    5000001    2    3    3    0    0 -0.82498586689E+02  0.30149353876E+03 -0.17164046679E+03  0.37793866491E+03  0.12519110940E+03 0.  0.
        -11    1    4    4    0    0 -0.46990565078E+02  0.22608805661E+03 -0.66188718923E+02  0.24021837786E+03  0.51100000000E-03 0. -1.
     200002    1    4    4    0    0 -0.35508021611E+02  0.75405482150E+02 -0.10545174787E+03  0.13772028705E+03  0.30000000000E+02 0. -1.
     200000    1    3    3    0    0 -0.23945351920E+03 -0.18876473824E+03  0.75760161909E+02  0.33001623656E+03  0.10100000000E+03 0. -1.
    -200001    1    1    2    0    0  0.32195210588E+03 -0.11272880051E+03  0.18770718930E+04  0.20038784476E+04  0.61300000000E+03 0.  1.
<mgrwt>
<rscale>  0 0.20448464E+04</rscale>
<asrwt>0</asrwt>
<pdfrwt beam="1">  1        2 0.32093035E+00 0.20448464E+04</pdfrwt>
<pdfrwt beam="2">  1       -2 0.66474411E-01 0.20448464E+04</pdfrwt>
<totfact> 0.11563354E+01</totfact>
</mgrwt>
</event>
<event>
 8    1  0.7326756E-052  0.1867812E+04  0.7818608E-02  0.8671046E-01
         -2   -1    0    0    0  501 -0.00000000000E+00  0.00000000000E+00  0.57869711760E+03  0.57869711761E+03  0.25500000000E-02 0.  1.
          2   -1    0    0  501    0  0.00000000000E+00 -0.00000000000E+00 -0.15071448105E+04  0.15071448105E+04  0.25500000000E-02 0. -1.
     200001    2    1    2    0    0  0.16531204354E+03 -0.93201338154E+02  0.29331130943E+03  0.70581344255E+03  0.61329155405E+03 0.  0.
    5000001    2    3    3    0    0  0.34160438512E+03  0.83099163522E+02  0.17848018399E+03  0.41332747030E+03  0.12403787616E+03 0.  0.
        -11    1    4    4    0    0  0.71413130867E+02  0.68423748117E+01 -0.12001702024E+02  0.72737158351E+02  0.51100000000E-03 0. -1.
     200002    1    4    4    0    0  0.27019125425E+03  0.76256788710E+02  0.19048188601E+03  0.34059031195E+03  0.30000000000E+02 0. -1.
     200000    1    3    3    0    0 -0.17629234158E+03 -0.17630050168E+03  0.11483112545E+03  0.29248597225E+03  0.10100000000E+03 0. -1.
    -200001    1    1    2    0    0 -0.16531204354E+03  0.93201338154E+02 -0.12217590024E+04  0.13800284856E+04  0.61300000000E+03 0. -1.
<mgrwt>
<rscale>  0 0.18678119E+04</rscale>
<asrwt>0</asrwt>
<pdfrwt beam="1">  1        2 0.21530640E+00 0.18678119E+04</pdfrwt>
<pdfrwt beam="2">  1       -2 0.82671017E-01 0.18678119E+04</pdfrwt>
<totfact> 0.17523287E+01</totfact>
</mgrwt>
</event>
<event>
 8    1  0.7326756E-052  0.1394078E+04  0.7818608E-02  0.8958116E-01
          2   -1    0    0  501    0  0.00000000000E+00  0.00000000000E+00  0.13272608167E+04  0.13272608167E+04  0.25500000000E-02 0.  1.
         -2   -1    0    0    0  501 -0.00000000000E+00 -0.00000000000E+00 -0.36606473387E+03  0.36606473388E+03  0.25500000000E-02 0. -1.
     200001    2    1    2    0    0 -0.68970957014E+02  0.26081964398E+03  0.71362850169E+03  0.97929292748E+03  0.61397485274E+03 0.  0.
    5000001    2    3    3    0    0 -0.64529078281E+01 -0.18306892393E+03  0.16501076671E+03  0.26366174712E+03  0.93451018367E+02 0.  0.
        -11    1    4    4    0    0 -0.19769648220E+02 -0.63955863183E+02  0.10920742670E+03  0.12809158236E+03  0.51100000000E-03 0. -1.
     200002    1    4    4    0    0  0.13316740391E+02 -0.11911306074E+03  0.55803340018E+02  0.13557016475E+03  0.30000000000E+02 0. -1.
     200000    1    3    3    0    0 -0.62518049186E+02  0.44388856790E+03  0.54861773497E+03  0.71563118037E+03  0.10100000000E+03 0.  1.
    -200001    1    1    2    0    0  0.68970957014E+02 -0.26081964398E+03  0.24756758113E+03  0.71403262308E+03  0.61300000000E+03 0. -1.
<mgrwt>
<rscale>  0 0.13940780E+04</rscale>
<asrwt>0</asrwt>
<pdfrwt beam="1">  1        2 0.18960869E+00 0.13940780E+04</pdfrwt>
<pdfrwt beam="2">  1       -2 0.52294962E-01 0.13940780E+04</pdfrwt>
<totfact> 0.60989001E+01</totfact>
</mgrwt>
</event>
<event>
 8    1  0.7326756E-052  0.2170089E+04  0.7818608E-02  0.8530982E-01
          2   -1    0    0  501    0  0.00000000000E+00  0.00000000000E+00  0.40913316509E+04  0.40913316509E+04  0.25500000000E-02 0.  1.
         -2   -1    0    0    0  501 -0.00000000000E+00 -0.00000000000E+00 -0.28776003954E+03  0.28776003956E+03  0.25500000000E-02 0. -1.
     200001    2    1    2    0    0 -0.29768298452E+02  0.28439800126E+03  0.36110225720E+04  0.36758047595E+04  0.62473053353E+03 0.  0.
    5000001    2    3    3    0    0  0.14851818072E+03 -0.26100036899E+02  0.22269059459E+04  0.22425654442E+04  0.21737253146E+03 0.  0.
        -11    1    4    4    0    0  0.72370799863E+02 -0.63614213678E+02  0.33668261262E+03  0.35019920402E+03  0.51100000000E-03 0. -1.
     200002    1    4    4    0    0  0.76147380855E+02  0.37514176779E+02  0.18902233333E+04  0.18923662401E+04  0.30000000000E+02 0. -1.
     200000    1    3    3    0    0 -0.17828647917E+03  0.31049803816E+03  0.13841166261E+04  0.14332393153E+04  0.10100000000E+03 0. -1.
    -200001    1    1    2    0    0  0.29768298452E+02 -0.28439800126E+03  0.19254903933E+03  0.70328693096E+03  0.61300000000E+03 0. -1.
<mgrwt>
<rscale>  0 0.21700892E+04</rscale>
<asrwt>0</asrwt>
<pdfrwt beam="1">  1        2 0.58447595E+00 0.21700892E+04</pdfrwt>
<pdfrwt beam="2">  1       -2 0.41108577E-01 0.21700892E+04</pdfrwt>
<totfact> 0.25492439E+00</totfact>
</mgrwt>
</event>
<event>
 8    1  0.7326756E-052  0.1745003E+04  0.7818608E-02  0.8736106E-01
         -2   -1    0    0    0  501 -0.00000000000E+00  0.00000000000E+00  0.46260758669E+03  0.46260758670E+03  0.25500000000E-02 0. -1.
          2   -1    0    0  501    0  0.00000000000E+00 -0.00000000000E+00 -0.16455821280E+04  0.16455821280E+04  0.25500000000E-02 0.  1.
     200001    2    1    2    0    0  0.23730631840E+03  0.16661383808E+03 -0.12548948645E+04  0.14262689036E+04  0.61270498975E+03 0.  0.
    5000001    2    3    3    0    0  0.12634042356E+03  0.28214661680E+03 -0.25215412489E+03  0.40580271416E+03  0.74333869294E+02 0.  0.
        -11    1    4    4    0    0  0.86663095449E+01  0.85242589373E+02 -0.82277741551E+02  0.11878985950E+03  0.51100000000E-03 0. -1.
     200002    1    4    4    0    0  0.11767411402E+03  0.19690402743E+03 -0.16987638334E+03  0.28701285467E+03  0.30000000000E+02 0.  1.
     200000    1    3    3    0    0  0.11096589484E+03 -0.11553277873E+03 -0.10027407396E+04  0.10204661894E+04  0.10100000000E+03 0.  1.
    -200001    1    1    2    0    0 -0.23730631840E+03 -0.16661383808E+03  0.71920323201E+02  0.68192081115E+03  0.61300000000E+03 0. -1.
<mgrwt>
<rscale>  0 0.17450029E+04</rscale>
<asrwt>0</asrwt>
<pdfrwt beam="1">  1        2 0.23508316E+00 0.17450029E+04</pdfrwt>
<pdfrwt beam="2">  1       -2 0.66086799E-01 0.17450029E+04</pdfrwt>
<totfact> 0.24525432E+01</totfact>
</mgrwt>
</event>
<event>
 8    1  0.7326756E-052  0.1827428E+04  0.7818608E-02  0.8691848E-01
         -2   -1    0    0    0  501 -0.00000000000E+00  0.00000000000E+00  0.59139769065E+03  0.59139769066E+03  0.25500000000E-02 0. -1.
          2   -1    0    0  501    0  0.00000000000E+00 -0.00000000000E+00 -0.14116959086E+04  0.14116959086E+04  0.25500000000E-02 0.  1.
     200001    2    1    2    0    0  0.78268786480E+02 -0.45595877849E+03  0.12772514679E+03  0.78303552248E+03  0.61871358942E+03 0.  0.
    5000001    2    3    3    0    0 -0.23170339390E+03 -0.22379854499E+03  0.18192671784E+03  0.37915442992E+03  0.82996985352E+02 0.  0.
        -11    1    4    4    0    0 -0.79552600286E+01 -0.65026556023E+00  0.22639733154E+02  0.24005551961E+02  0.51100000000E-03 0. -1.
     200002    1    4    4    0    0 -0.22374813387E+03 -0.22314827942E+03  0.15928698469E+03  0.35514887795E+03  0.30000000000E+02 0. -1.
     200000    1    3    3    0    0  0.30997218038E+03 -0.23216023350E+03 -0.54201571052E+02  0.40388109257E+03  0.10100000000E+03 0.  1.
    -200001    1    1    2    0    0 -0.78268786480E+02  0.45595877849E+03 -0.94802336474E+03  0.12200580768E+04  0.61300000000E+03 0.  1.
<mgrwt>
<rscale>  0 0.18274285E+04</rscale>
<asrwt>0</asrwt>
<pdfrwt beam="1">  1        2 0.20167084E+00 0.18274285E+04</pdfrwt>
<pdfrwt beam="2">  1       -2 0.84485385E-01 0.18274285E+04</pdfrwt>
<totfact> 0.18827293E+01</totfact>
</mgrwt>
</event>
<event>
 8    1  0.7326756E-052  0.1441030E+04  0.7818608E-02  0.8924643E-01
         -2   -1    0    0    0  501 -0.00000000000E+00  0.00000000000E+00  0.68306255267E+03  0.68306255268E+03  0.25500000000E-02 0. -1.
          2   -1    0    0  501    0  0.00000000000E+00 -0.00000000000E+00 -0.76002073741E+03  0.76002073741E+03  0.25500000000E-02 0.  1.
     200001    2    1    2    0    0  0.16043161821E+03  0.16025552199E+03  0.26858541184E+03  0.70376636645E+03  0.60969569348E+03 0.  0.
    5000001    2    3    3    0    0  0.51593952365E+02  0.27129462112E+03 -0.83988050343E+02  0.30541430448E+03  0.99805798492E+02 0.  0.
        -11    1    4    4    0    0  0.43859019555E+02  0.78907603938E+02  0.66068442041E+01  0.90518914853E+02  0.51100000000E-03 0. -1.
     200002    1    4    4    0    0  0.77349328094E+01  0.19238701718E+03 -0.90594894547E+02  0.21489538963E+03  0.30000000000E+02 0. -1.
     200000    1    3    3    0    0  0.10883766584E+03 -0.11103909913E+03  0.35257346218E+03  0.39835206197E+03  0.10100000000E+03 0. -1.
    -200001    1    1    2    0    0 -0.16043161821E+03 -0.16025552199E+03 -0.34554359657E+03  0.73931692364E+03  0.61300000000E+03 0.  1.
<mgrwt>
<rscale>  0 0.14410298E+04</rscale>
<asrwt>0</asrwt>
<pdfrwt beam="1">  1        2 0.10857439E+00 0.14410298E+04</pdfrwt>
<pdfrwt beam="2">  1       -2 0.97580364E-01 0.14410298E+04</pdfrwt>
<totfact> 0.34546377E+01</totfact>
</mgrwt>
</event>
<event>
 8    1  0.7326756E-052  0.1419917E+04  0.7818608E-02  0.8939526E-01
         -2   -1    0    0    0  501 -0.00000000000E+00  0.00000000000E+00  0.11483009997E+04  0.11483009997E+04  0.25500000000E-02 0. -1.
          2   -1    0    0  501    0  0.00000000000E+00 -0.00000000000E+00 -0.43894531208E+03  0.43894531209E+03  0.25500000000E-02 0.  1.
     200001    2    1    2    0    0 -0.25337874737E+03  0.24975200764E+03  0.40434752654E+03  0.81564030270E+03  0.61253189813E+03 0.  0.
    5000001    2    3    3    0    0  0.17613951758E+02  0.15980766995E+02  0.43451520210E+03  0.44254899405E+03  0.80501646377E+02 0.  0.
        -11    1    4    4    0    0  0.18381899792E+02  0.19951348754E+02  0.37303747054E+03  0.37402259957E+03  0.51100000000E-03 0. -1.
     200002    1    4    4    0    0 -0.76794803406E+00 -0.39705817588E+01  0.61477731558E+02  0.68526394486E+02  0.30000000000E+02 0.  1.
     200000    1    3    3    0    0 -0.27099269913E+03  0.23377124065E+03 -0.30167675562E+02  0.37309130864E+03  0.10100000000E+03 0.  1.
    -200001    1    1    2    0    0  0.25337874737E+03 -0.24975200764E+03  0.30500816107E+03  0.77160600909E+03  0.61300000000E+03 0. -1.
<mgrwt>
<rscale>  0 0.14199174E+04</rscale>
<asrwt>0</asrwt>
<pdfrwt beam="1">  1        2 0.62706473E-01 0.14199174E+04</pdfrwt>
<pdfrwt beam="2">  1       -2 0.16404300E+00 0.14199174E+04</pdfrwt>
<totfact> 0.17821273E+01</totfact>
</mgrwt>
</event>
<event>
 8    1  0.7326756E-052  0.1552433E+04  0.7818608E-02  0.8850315E-01
          2   -1    0    0  501    0  0.00000000000E+00  0.00000000000E+00  0.46834452212E+03  0.46834452213E+03  0.25500000000E-02 0.  1.
         -2   -1    0    0    0  501 -0.00000000000E+00 -0.00000000000E+00 -0.12864720657E+04  0.12864720657E+04  0.25500000000E-02 0. -1.
     200001    2    1    2    0    0  0.34473445649E+03  0.12699679423E+03 -0.75110363523E+03  0.10370204918E+04  0.61342057211E+03 0.  0.
    5000001    2    3    3    0    0 -0.94523069301E+02  0.19485803836E+03 -0.12044194658E+03  0.25888972645E+03  0.74922374652E+02 0.  0.
        -11    1    4    4    0    0 -0.38990514607E+02  0.10484543384E+03 -0.28148407082E+02  0.11534798675E+03  0.51100000000E-03 0. -1.
     200002    1    4    4    0    0 -0.55532554694E+02  0.90012604519E+02 -0.92293539496E+02  0.14354173970E+03  0.30000000000E+02 0. -1.
     200000    1    3    3    0    0  0.43925752579E+03 -0.67861244131E+02 -0.63066168865E+03  0.77813076533E+03  0.10100000000E+03 0. -1.
    -200001    1    1    2    0    0 -0.34473445649E+03 -0.12699679423E+03 -0.67023908372E+02  0.71779609607E+03  0.61300000000E+03 0.  1.
<mgrwt>
<rscale>  0 0.15524331E+04</rscale>
<asrwt>0</asrwt>
<pdfrwt beam="1">  1        2 0.66906361E-01 0.15524331E+04</pdfrwt>
<pdfrwt beam="2">  1       -2 0.18378172E+00 0.15524331E+04</pdfrwt>
<totfact> 0.11907047E+01</totfact>
</mgrwt>
</event>
<event>
 8    1  0.7326756E-052  0.1313558E+04  0.7818608E-02  0.9018882E-01
         -2   -1    0    0    0  501 -0.00000000000E+00  0.00000000000E+00  0.36246661058E+03  0.36246661059E+03  0.25500000000E-02 0. -1.
          2   -1    0    0  501    0  0.00000000000E+00 -0.00000000000E+00 -0.11900647811E+04  0.11900647811E+04  0.25500000000E-02 0.  1.
     200001    2    1    2    0    0  0.22577980159E+03  0.19578228069E+02 -0.33922302899E+03  0.73666430406E+03  0.61338585544E+03 0.  0.
    5000001    2    3    3    0    0 -0.11627744776E+03 -0.18866666037E+03 -0.18095810414E+03  0.29437720066E+03  0.69257109568E+02 0.  0.
        -11    1    4    4    0    0 -0.21934007078E+02 -0.22225284926E+02 -0.29987140034E+01  0.31369670742E+02  0.51100000000E-03 0. -1.
     200002    1    4    4    0    0 -0.94343440685E+02 -0.16644137544E+03 -0.17795939013E+03  0.26300752992E+03  0.30000000000E+02 0. -1.
     200000    1    3    3    0    0  0.34205724935E+03  0.20824488844E+03 -0.15826492486E+03  0.44228710340E+03  0.10100000000E+03 0.  1.
    -200001    1    1    2    0    0 -0.22577980159E+03 -0.19578228069E+02 -0.48837514152E+03  0.81586708763E+03  0.61300000000E+03 0.  1.
<mgrwt>
<rscale>  0 0.13135581E+04</rscale>
<asrwt>0</asrwt>
<pdfrwt beam="1">  1        2 0.17000925E+00 0.13135581E+04</pdfrwt>
<pdfrwt beam="2">  1       -2 0.51780945E-01 0.13135581E+04</pdfrwt>
<totfact> 0.74723589E+01</totfact>
</mgrwt>
</event>
<event>
 8    1  0.7326756E-052  0.1690047E+04  0.7818608E-02  0.8767061E-01
         -2   -1    0    0    0  501 -0.00000000000E+00  0.00000000000E+00  0.27405403095E+03  0.27405403096E+03  0.25500000000E-02 0.  1.
          2   -1    0    0  501    0  0.00000000000E+00 -0.00000000000E+00 -0.26055615834E+04  0.26055615834E+04  0.25500000000E-02 0. -1.
     200001    2    1    2    0    0 -0.20566831115E+03  0.76839843609E+01 -0.20926544750E+04  0.21902838434E+04  0.61301065685E+03 0.  0.
    5000001    2    3    3    0    0 -0.10586867850E+03  0.11934152646E+03 -0.19548269359E+04  0.19630729196E+04  0.82803147801E+02 0.  0.
        -11    1    4    4    0    0 -0.51173820419E+02  0.99293249513E+02 -0.13830689616E+04  0.13875725790E+04  0.51100000000E-03 0. -1.
     200002    1    4    4    0    0 -0.54694858085E+02  0.20048276943E+02 -0.57175797433E+03  0.57550034068E+03  0.30000000000E+02 0. -1.
     200000    1    3    3    0    0 -0.99799632643E+02 -0.11165754210E+03 -0.13782753901E+03  0.22721092380E+03  0.10100000000E+03 0.  1.
    -200001    1    1    2    0    0  0.20566831115E+03 -0.76839843609E+01 -0.23885307753E+03  0.68933177097E+03  0.61300000000E+03 0.  1.
<mgrwt>
<rscale>  0 0.16900469E+04</rscale>
<asrwt>0</asrwt>
<pdfrwt beam="1">  1        2 0.37222307E+00 0.16900469E+04</pdfrwt>
<pdfrwt beam="2">  1       -2 0.39150577E-01 0.16900469E+04</pdfrwt>
<totfact> 0.22834444E+01</totfact>
</mgrwt>
</event>
<event>
 8    1  0.7326756E-052  0.1431180E+04  0.7818608E-02  0.8931553E-01
         -2   -1    0    0    0  501 -0.00000000000E+00  0.00000000000E+00  0.87342012677E+03  0.87342012677E+03  0.25500000000E-02 0. -1.
          2   -1    0    0  501    0  0.00000000000E+00 -0.00000000000E+00 -0.58628044220E+03  0.58628044220E+03  0.25500000000E-02 0.  1.
     200001    2    1    2    0    0  0.11469992781E+03  0.20847567331E+03 -0.15356332981E+03  0.66811587566E+03  0.60512721575E+03 0.  0.
    5000001    2    3    3    0    0  0.30240361306E+03  0.22104605267E+03  0.35213258927E+02  0.38311010668E+03  0.72277781134E+02 0.  0.
        -11    1    4    4    0    0  0.23565978283E+03  0.16826668117E+03  0.42153398188E+02  0.29261940847E+03  0.51100000000E-03 0. -1.
     200002    1    4    4    0    0  0.66743830227E+02  0.52779371505E+02 -0.69401392607E+01  0.90490698211E+02  0.30000000000E+02 0. -1.
     200000    1    3    3    0    0 -0.18770368525E+03 -0.12570379358E+02 -0.18877658874E+03  0.28500576897E+03  0.10100000000E+03 0.  1.
    -200001    1    1    2    0    0 -0.11469992781E+03 -0.20847567331E+03  0.44070301438E+03  0.79158469332E+03  0.61300000000E+03 0. -1.
<mgrwt>
<rscale>  0 0.14311801E+04</rscale>
<asrwt>0</asrwt>
<pdfrwt beam="1">  1        2 0.83754349E-01 0.14311801E+04</pdfrwt>
<pdfrwt beam="2">  1       -2 0.12477430E+00 0.14311801E+04</pdfrwt>
<totfact> 0.26126881E+01</totfact>
</mgrwt>
</event>
<event>
 8    1  0.7326756E-052  0.1287723E+04  0.7818608E-02  0.9039358E-01
          2   -1    0    0  501    0  0.00000000000E+00  0.00000000000E+00  0.12449132949E+04  0.12449132949E+04  0.25500000000E-02 0.  1.
         -2   -1    0    0    0  501 -0.00000000000E+00 -0.00000000000E+00 -0.33300132290E+03  0.33300132291E+03  0.25500000000E-02 0. -1.
     200001    2    1    2    0    0 -0.12961967191E+03 -0.11495646500E+03  0.56974074867E+03  0.85481960728E+03  0.61326649355E+03 0.  0.
    5000001    2    3    3    0    0 -0.29865523173E+03  0.11870146282E+03  0.29653982938E+03  0.44493085406E+03  0.82113395816E+02 0.  0.
        -11    1    4    4    0    0 -0.52396043056E+02  0.15509509731E+02  0.92957844961E+02  0.10782880487E+03  0.51100000000E-03 0. -1.
     200002    1    4    4    0    0 -0.24625918867E+03  0.10319195309E+03  0.20358198442E+03  0.33710204919E+03  0.30000000000E+02 0. -1.
     200000    1    3    3    0    0  0.16903555982E+03 -0.23365792782E+03  0.27320091929E+03  0.40988875322E+03  0.10100000000E+03 0.  1.
    -200001    1    1    2    0    0  0.12961967191E+03  0.11495646500E+03  0.34217122333E+03  0.72309501054E+03  0.61300000000E+03 0. -1.
<mgrwt>
<rscale>  0 0.12877232E+04</rscale>
<asrwt>0</asrwt>
<pdfrwt beam="1">  1        2 0.17784476E+00 0.12877232E+04</pdfrwt>
<pdfrwt beam="2">  1       -2 0.47571618E-01 0.12877232E+04</pdfrwt>
<totfact> 0.82802123E+01</totfact>
</mgrwt>
</event>
<event>
 8    1  0.7326756E-052  0.1317826E+04  0.7818608E-02  0.9015547E-01
         -2   -1    0    0    0  501 -0.00000000000E+00  0.00000000000E+00  0.25134178903E+03  0.25134178905E+03  0.25500000000E-02 0. -1.
          2   -1    0    0  501    0  0.00000000000E+00 -0.00000000000E+00 -0.17273952823E+04  0.17273952823E+04  0.25500000000E-02 0.  1.
     200001    2    1    2    0    0  0.18148224581E+03  0.84443290904E+02 -0.60278814791E+03  0.89318290949E+03  0.62797745470E+03 0.  0.
    5000001    2    3    3    0    0 -0.35017764382E+01  0.13740786457E+03 -0.56328402304E+03  0.67230758168E+03  0.34031663211E+03 0.  0.
        -11    1    4    4    0    0  0.40546194104E+01 -0.29425985719E+02 -0.48419035001E+03  0.48510063246E+03  0.51100000000E-03 0. -1.
     200002    1    4    4    0    0 -0.75563958485E+01  0.16683385029E+03 -0.79093673033E+02  0.18720694922E+03  0.30000000000E+02 0. -1.
     200000    1    3    3    0    0  0.18498402225E+03 -0.52964573671E+02 -0.39504124872E+02  0.22087532781E+03  0.10100000000E+03 0. -1.
    -200001    1    1    2    0    0 -0.18148224581E+03 -0.84443290904E+02 -0.87326534532E+03  0.10855541618E+04  0.61300000000E+03 0.  1.
<mgrwt>
<rscale>  0 0.13178264E+04</rscale>
<asrwt>0</asrwt>
<pdfrwt beam="1">  1        2 0.24677075E+00 0.13178264E+04</pdfrwt>
<pdfrwt beam="2">  1       -2 0.35905971E-01 0.13178264E+04</pdfrwt>
<totfact> 0.79268037E+01</totfact>
</mgrwt>
</event>
<event>
 8    1  0.7326756E-052  0.2037410E+04  0.7818608E-02  0.8589327E-01
          2   -1    0    0  501    0  0.00000000000E+00  0.00000000000E+00  0.24443967851E+04  0.24443967851E+04  0.25500000000E-02 0.  1.
         -2   -1    0    0    0  501 -0.00000000000E+00 -0.00000000000E+00 -0.42454648390E+03  0.42454648390E+03  0.25500000000E-02 0. -1.
     200001    2    1    2    0    0 -0.53710719889E+03  0.55782353448E+03  0.65782466487E+03  0.11865241557E+04  0.61274386464E+03 0.  0.
    5000001    2    3    3    0    0 -0.52952958507E+03  0.41640203705E+03  0.21527775228E+03  0.71101786762E+03  0.73550387706E+02 0.  0.
        -11    1    4    4    0    0 -0.43511797854E+03  0.33761656115E+03  0.18367503675E+03  0.58055931371E+03  0.51100000000E-03 0. -1.
     200002    1    4    4    0    0 -0.94411606527E+02  0.78785475906E+02  0.31602715528E+02  0.13045855391E+03  0.30000000000E+02 0.  1.
     200000    1    3    3    0    0 -0.75776138221E+01  0.14142149743E+03  0.44254691259E+03  0.47550628808E+03  0.10100000000E+03 0.  1.
    -200001    1    1    2    0    0  0.53710719889E+03 -0.55782353448E+03  0.13620256363E+04  0.16824191133E+04  0.61300000000E+03 0.  1.
<mgrwt>
<rscale>  0 0.20374102E+04</rscale>
<asrwt>0</asrwt>
<pdfrwt beam="1">  1        2 0.34919953E+00 0.20374102E+04</pdfrwt>
<pdfrwt beam="2">  1       -2 0.60649500E-01 0.20374102E+04</pdfrwt>
<totfact> 0.11099854E+01</totfact>
</mgrwt>
</event>
<event>
 8    1  0.7326756E-052  0.1593512E+04  0.7818608E-02  0.8824544E-01
         -2   -1    0    0    0  501 -0.00000000000E+00  0.00000000000E+00  0.28816867476E+03  0.28816867477E+03  0.25500000000E-02 0. -1.
          2   -1    0    0  501    0  0.00000000000E+00 -0.00000000000E+00 -0.22029471373E+04  0.22029471373E+04  0.25500000000E-02 0.  1.
     200001    2    1    2    0    0  0.13543883256E+03  0.48870850248E+03 -0.10201962906E+04  0.12939416643E+04  0.61343694171E+03 0.  0.
    5000001    2    3    3    0    0  0.20289798194E+01  0.13778331825E+03 -0.85972499259E+03  0.87334837950E+03  0.67985068476E+02 0.  0.
        -11    1    4    4    0    0 -0.25021584629E+02  0.42210097857E+02 -0.23537472710E+03  0.24043509356E+03  0.51100000000E-03 0. -1.
     200002    1    4    4    0    0  0.27050564449E+02  0.95573220389E+02 -0.62435026549E+03  0.63291328593E+03  0.30000000000E+02 0. -1.
     200000    1    3    3    0    0  0.13340985274E+03  0.35092518423E+03 -0.16047129804E+03  0.42059328481E+03  0.10100000000E+03 0. -1.
    -200001    1    1    2    0    0 -0.13543883256E+03 -0.48870850248E+03 -0.89458217191E+03  0.11971741478E+04  0.61300000000E+03 0. -1.
<mgrwt>
<rscale>  0 0.15935123E+04</rscale>
<asrwt>0</asrwt>
<pdfrwt beam="1">  1        2 0.31470673E+00 0.15935123E+04</pdfrwt>
<pdfrwt beam="2">  1       -2 0.41166955E-01 0.15935123E+04</pdfrwt>
<totfact> 0.33866659E+01</totfact>
</mgrwt>
</event>
<event>
 8    1  0.7326756E-052  0.2003973E+04  0.7818608E-02  0.8604765E-01
         -2   -1    0    0    0  501 -0.00000000000E+00  0.00000000000E+00  0.27464722320E+03  0.27464722321E+03  0.25500000000E-02 0. -1.
          2   -1    0    0  501    0  0.00000000000E+00 -0.00000000000E+00 -0.36555143171E+04  0.36555143171E+04  0.25500000000E-02 0.  1.
     200001    2    1    2    0    0 -0.65328560439E+03 -0.55763703894E+02 -0.25645515943E+04  0.27168884192E+04  0.61209977201E+03 0.  0.
    5000001    2    3    3    0    0 -0.52421519830E+03  0.15942193907E+03 -0.21610188401E+04  0.22310862842E+04  0.86756275648E+02 0.  0.
        -11    1    4    4    0    0 -0.41506081819E+03  0.10561316542E+03 -0.17287316463E+04  0.17809948704E+04  0.51100000000E-03 0. -1.
     200002    1    4    4    0    0 -0.10915438011E+03  0.53808773648E+02 -0.43228719386E+03  0.45009141382E+03  0.30000000000E+02 0.  1.
     200000    1    3    3    0    0 -0.12907040610E+03 -0.21518564297E+03 -0.40353275417E+03  0.48580213499E+03  0.10100000000E+03 0. -1.
    -200001    1    1    2    0    0  0.65328560439E+03  0.55763703894E+02 -0.81631549963E+03  0.12132731212E+04  0.61300000000E+03 0. -1.
<mgrwt>
<rscale>  0 0.20039729E+04</rscale>
<asrwt>0</asrwt>
<pdfrwt beam="1">  1        2 0.52221630E+00 0.20039729E+04</pdfrwt>
<pdfrwt beam="2">  1       -2 0.39235320E-01 0.20039729E+04</pdfrwt>
<totfact> 0.55280416E+00</totfact>
</mgrwt>
</event>
<event>
 8    1  0.7326756E-052  0.1794911E+04  0.7818608E-02  0.8709010E-01
         -2   -1    0    0    0  501 -0.00000000000E+00  0.00000000000E+00  0.48142507653E+03  0.48142507654E+03  0.25500000000E-02 0. -1.
          2   -1    0    0  501    0  0.00000000000E+00 -0.00000000000E+00 -0.16730050680E+04  0.16730050680E+04  0.25500000000E-02 0.  1.
     200001    2    1    2    0    0  0.47649760317E+02 -0.58447898307E+03 -0.24652530078E+03  0.88447599193E+03  0.61452166363E+03 0.  0.
    5000001    2    3    3    0    0  0.13588596612E+03 -0.44702597930E+03  0.44549657806E+02  0.53575749833E+03  0.25836834762E+03 0.  0.
        -11    1    4    4    0    0  0.20732860953E+03 -0.32513611136E+03  0.36029158719E+01  0.38563146168E+03  0.51100000000E-03 0. -1.
     200002    1    4    4    0    0 -0.71442643408E+02 -0.12188986794E+03  0.40946741934E+02  0.15012603665E+03  0.30000000000E+02 0. -1.
     200000    1    3    3    0    0 -0.88236205807E+02 -0.13745300378E+03 -0.29107495859E+03  0.34871849360E+03  0.10100000000E+03 0. -1.
    -200001    1    1    2    0    0 -0.47649760317E+02  0.58447898307E+03 -0.94505469064E+03  0.12699541526E+04  0.61300000000E+03 0.  1.
<mgrwt>
<rscale>  0 0.17949112E+04</rscale>
<asrwt>0</asrwt>
<pdfrwt beam="1">  1        2 0.23900072E+00 0.17949112E+04</pdfrwt>
<pdfrwt beam="2">  1       -2 0.68775012E-01 0.17949112E+04</pdfrwt>
<totfact> 0.21682038E+01</totfact>
</mgrwt>
</event>
<event>
 8    1  0.7326756E-052  0.1802879E+04  0.7818608E-02  0.8704770E-01
          2   -1    0    0  501    0  0.00000000000E+00  0.00000000000E+00  0.32174471082E+04  0.32174471082E+04  0.25500000000E-02 0.  1.
         -2   -1    0    0    0  501 -0.00000000000E+00 -0.00000000000E+00 -0.25255848591E+03  0.25255848592E+03  0.25500000000E-02 0. -1.
     200001    2    1    2    0    0  0.33391536095E+01 -0.64281788942E+03  0.17785718162E+04  0.19879993346E+04  0.61286022878E+03 0.  0.
    5000001    2    3    3    0    0  0.11692895367E+01 -0.33478168652E+03  0.15607868239E+04  0.15974582823E+04  0.61133537441E+02 0.  0.
        -11    1    4    4    0    0  0.10483932329E+02 -0.22904794344E+03  0.10036520181E+04  0.10295097117E+04  0.51100000000E-03 0. -1.
     200002    1    4    4    0    0 -0.93146427919E+01 -0.10573374307E+03  0.55713480582E+03  0.56794857060E+03  0.30000000000E+02 0. -1.
     200000    1    3    3    0    0  0.21698640728E+01 -0.30803620290E+03  0.21778499236E+03  0.39054105227E+03  0.10100000000E+03 0. -1.
    -200001    1    1    2    0    0 -0.33391536095E+01  0.64281788942E+03  0.11863168061E+04  0.14820062595E+04  0.61300000000E+03 0.  1.
<mgrwt>
<rscale>  0 0.18028794E+04</rscale>
<asrwt>0</asrwt>
<pdfrwt beam="1">  1        2 0.45963526E+00 0.18028794E+04</pdfrwt>
<pdfrwt beam="2">  1       -2 0.36079787E-01 0.18028794E+04</pdfrwt>
<totfact> 0.12161665E+01</totfact>
</mgrwt>
</event>
<event>
 8    1  0.7326756E-052  0.1745403E+04  0.7818608E-02  0.8735885E-01
         -2   -1    0    0    0  501 -0.00000000000E+00  0.00000000000E+00  0.38883058579E+03  0.38883058580E+03  0.25500000000E-02 0. -1.
          2   -1    0    0  501    0  0.00000000000E+00 -0.00000000000E+00 -0.19587144154E+04  0.19587144154E+04  0.25500000000E-02 0.  1.
     200001    2    1    2    0    0 -0.49707585151E+02 -0.59513515518E+03 -0.55767694454E+03  0.10220305821E+04  0.61391061191E+03 0.  0.
    5000001    2    3    3    0    0 -0.18505806165E+03 -0.52130974979E+03 -0.15369611357E+03  0.57799065853E+03  0.66636060920E+02 0.  0.
        -11    1    4    4    0    0 -0.78230126983E+02 -0.14650812942E+03 -0.53171811907E+02  0.17438986879E+03  0.51100000000E-03 0. -1.
     200002    1    4    4    0    0 -0.10682793467E+03 -0.37480162037E+03 -0.10052430166E+03  0.40360078974E+03  0.30000000000E+02 0. -1.
     200000    1    3    3    0    0  0.13535047650E+03 -0.73825405394E+02 -0.40398083098E+03  0.44403992362E+03  0.10100000000E+03 0.  1.
    -200001    1    1    2    0    0  0.49707585151E+02  0.59513515518E+03 -0.10122068851E+04  0.13255144191E+04  0.61300000000E+03 0. -1.
<mgrwt>
<rscale>  0 0.17454032E+04</rscale>
<asrwt>0</asrwt>
<pdfrwt beam="1">  1        2 0.27981634E+00 0.17454032E+04</pdfrwt>
<pdfrwt beam="2">  1       -2 0.55547228E-01 0.17454032E+04</pdfrwt>
<totfact> 0.24392773E+01</totfact>
</mgrwt>
</event>
<event>
 8    1  0.7326756E-052  0.1776070E+04  0.7818608E-02  0.8719130E-01
          2   -1    0    0  501    0  0.00000000000E+00  0.00000000000E+00  0.10454893405E+04  0.10454893405E+04  0.25500000000E-02 0.  1.
         -2   -1    0    0    0  501 -0.00000000000E+00 -0.00000000000E+00 -0.75429390079E+03  0.75429390080E+03  0.25500000000E-02 0. -1.
     200001    2    1    2    0    0  0.41514647429E+03  0.12467279344E+03  0.62670834521E+03  0.97745252293E+03  0.61217659550E+03 0.  0.
    5000001    2    3    3    0    0  0.42559477762E+03 -0.71937912834E+02  0.17730570672E+03  0.47652471541E+03  0.96604931110E+02 0.  0.
        -11    1    4    4    0    0  0.24974084863E+03 -0.50118071103E+02  0.14750501300E+03  0.29434680461E+03  0.51100000000E-03 0. -1.
     200002    1    4    4    0    0  0.17585392899E+03 -0.21819841732E+02  0.29800693722E+02  0.18217791079E+03  0.30000000000E+02 0. -1.
     200000    1    3    3    0    0 -0.10448303331E+02  0.19661070627E+03  0.44940263849E+03  0.50092780752E+03  0.10100000000E+03 0. -1.
    -200001    1    1    2    0    0 -0.41514647429E+03 -0.12467279344E+03 -0.33551290554E+03  0.82233071834E+03  0.61300000000E+03 0. -1.
<mgrwt>
<rscale>  0 0.17760701E+04</rscale>
<asrwt>0</asrwt>
<pdfrwt beam="1">  1        2 0.14935562E+00 0.17760701E+04</pdfrwt>
<pdfrwt beam="2">  1       -2 0.10775627E+00 0.17760701E+04</pdfrwt>
<totfact> 0.17260583E+01</totfact>
</mgrwt>
</event>
<event>
 8    1  0.7326756E-052  0.1300721E+04  0.7818608E-02  0.9028993E-01
          2   -1    0    0  501    0  0.00000000000E+00  0.00000000000E+00  0.33939395199E+04  0.33939395199E+04  0.25500000000E-02 0.  1.
         -2   -1    0    0    0  501 -0.00000000000E+00 -0.00000000000E+00 -0.12462476626E+03  0.12462476628E+03  0.25500000000E-02 0. -1.
     200001    2    1    2    0    0 -0.85140878651E+02  0.57600445241E+02  0.21539317561E+04  0.22416872319E+04  0.61251355517E+03 0.  0.
    5000001    2    3    3    0    0 -0.14587479938E+03 -0.38234687805E+02  0.27610240247E+03  0.35772410509E+03  0.17027228274E+03 0.  0.
        -11    1    4    4    0    0 -0.57678802985E+02 -0.69299051308E+02  0.33819475445E+02  0.96296208366E+02  0.51100000000E-03 0. -1.
     200002    1    4    4    0    0 -0.88195996392E+02  0.31064363504E+02  0.24228292702E+03  0.26142789673E+03  0.30000000000E+02 0. -1.
     200000    1    3    3    0    0  0.60733920727E+02  0.95835133045E+02  0.18778293536E+04  0.18839631268E+04  0.10100000000E+03 0.  1.
    -200001    1    1    2    0    0  0.85140878651E+02 -0.57600445241E+02  0.11153829975E+04  0.12768770543E+04  0.61300000000E+03 0. -1.
<mgrwt>
<rscale>  0 0.13007212E+04</rscale>
<asrwt>0</asrwt>
<pdfrwt beam="1">  1        2 0.48484848E+00 0.13007212E+04</pdfrwt>
<pdfrwt beam="2">  1       -2 0.17803539E-01 0.13007212E+04</pdfrwt>
<totfact> 0.36331778E+01</totfact>
</mgrwt>
</event>
<event>
 8    1  0.7326756E-052  0.1338111E+04  0.7818608E-02  0.8999877E-01
          2   -1    0    0  501    0  0.00000000000E+00  0.00000000000E+00  0.22638373799E+04  0.22638373799E+04  0.25500000000E-02 0. -1.
         -2   -1    0    0    0  501 -0.00000000000E+00 -0.00000000000E+00 -0.19773303919E+03  0.19773303920E+03  0.25500000000E-02 0.  1.
     200001    2    1    2    0    0 -0.79394113003E+02  0.15582998922E+03  0.14074739972E+04  0.15449738120E+04  0.61267823233E+03 0.  0.
    5000001    2    3    3    0    0 -0.12671231913E+03  0.23628078746E+03  0.23569587220E+03  0.36515335205E+03  0.76810181649E+02 0.  0.
        -11    1    4    4    0    0 -0.17339836159E+01 -0.19224021178E+01  0.16944494130E+02  0.17141126295E+02  0.51100000000E-03 0. -1.
     200002    1    4    4    0    0 -0.12497833552E+03  0.23820318957E+03  0.21875137807E+03  0.34801222576E+03  0.30000000000E+02 0. -1.
     200000    1    3    3    0    0  0.47318206131E+02 -0.80450798232E+02  0.11717781250E+04  0.11798204599E+04  0.10100000000E+03 0. -1.
    -200001    1    1    2    0    0  0.79394113003E+02 -0.15582998922E+03  0.65863034358E+03  0.91659660713E+03  0.61300000000E+03 0.  1.
<mgrwt>
<rscale>  0 0.13381113E+04</rscale>
<asrwt>0</asrwt>
<pdfrwt beam="1">  1        2 0.32340532E+00 0.13381113E+04</pdfrwt>
<pdfrwt beam="2">  1       -2 0.28247579E-01 0.13381113E+04</pdfrwt>
<totfact> 0.65830169E+01</totfact>
</mgrwt>
</event>
<event>
 8    1  0.7326756E-052  0.1415244E+04  0.7818608E-02  0.8942857E-01
          2   -1    0    0  501    0  0.00000000000E+00  0.00000000000E+00  0.23551406087E+04  0.23551406087E+04  0.25500000000E-02 0.  1.
         -2   -1    0    0    0  501 -0.00000000000E+00 -0.00000000000E+00 -0.21261117757E+03  0.21261117759E+03  0.25500000000E-02 0. -1.
     200001    2    1    2    0    0 -0.38399862249E+02  0.33765253943E+03  0.88719693967E+03  0.11300061722E+04  0.61181022597E+03 0.  0.
    5000001    2    3    3    0    0  0.25775319014E+03  0.26622791863E+03  0.45437879415E+03  0.59117349501E+03  0.75577780758E+02 0.  0.
        -11    1    4    4    0    0  0.10601737831E+03  0.15434811012E+03  0.22061120589E+03  0.28936538799E+03  0.51100000000E-03 0. -1.
     200002    1    4    4    0    0  0.15173581182E+03  0.11187980851E+03  0.23376758826E+03  0.30180810702E+03  0.30000000000E+02 0. -1.
     200000    1    3    3    0    0 -0.29615305238E+03  0.71424620795E+02  0.43281814552E+03  0.53883267717E+03  0.10100000000E+03 0.  1.
    -200001    1    1    2    0    0  0.38399862249E+02 -0.33765253943E+03  0.12553324915E+04  0.14377456141E+04  0.61300000000E+03 0.  1.
<mgrwt>
<rscale>  0 0.14152445E+04</rscale>
<asrwt>0</asrwt>
<pdfrwt beam="1">  1        2 0.33644864E+00 0.14152445E+04</pdfrwt>
<pdfrwt beam="2">  1       -2 0.30373027E-01 0.14152445E+04</pdfrwt>
<totfact> 0.51288528E+01</totfact>
</mgrwt>
</event>
<event>
 8    1  0.7326756E-052  0.2062461E+04  0.7818608E-02  0.8577962E-01
         -2   -1    0    0    0  501 -0.00000000000E+00  0.00000000000E+00  0.14529660976E+04  0.14529660976E+04  0.25500000000E-02 0. -1.
          2   -1    0    0  501    0  0.00000000000E+00 -0.00000000000E+00 -0.73190717369E+03  0.73190717370E+03  0.25500000000E-02 0.  1.
     200001    2    1    2    0    0 -0.60309077352E+03 -0.32720781128E+03  0.85411280880E+03  0.12552196965E+04  0.61260457354E+03 0.  0.
    5000001    2    3    3    0    0 -0.25466591744E+03  0.43924183684E+02  0.63935748895E+03  0.69356171748E+03  0.73931007386E+02 0.  0.
        -11    1    4    4    0    0 -0.48118175430E+02  0.31186572838E+02  0.10300477477E+03  0.11788954473E+03  0.51100000000E-03 0. -1.
     200002    1    4    4    0    0 -0.20654774201E+03  0.12737610846E+02  0.53635271418E+03  0.57567217274E+03  0.30000000000E+02 0. -1.
     200000    1    3    3    0    0 -0.34842485608E+03 -0.37113199497E+03  0.21475531984E+03  0.56165797905E+03  0.10100000000E+03 0.  1.
    -200001    1    1    2    0    0  0.60309077352E+03  0.32720781128E+03 -0.13305388486E+03  0.92965357481E+03  0.61300000000E+03 0.  1.
<mgrwt>
<rscale>  0 0.20624610E+04</rscale>
<asrwt>0</asrwt>
<pdfrwt beam="1">  1        2 0.10455817E+00 0.20624610E+04</pdfrwt>
<pdfrwt beam="2">  1       -2 0.20756658E+00 0.20624610E+04</pdfrwt>
<totfact> 0.46875438E+00</totfact>
</mgrwt>
</event>
<event>
 8    1  0.7326756E-052  0.1867129E+04  0.7818608E-02  0.8671394E-01
          2   -1    0    0  501    0  0.00000000000E+00  0.00000000000E+00  0.53692932222E+03  0.53692932222E+03  0.25500000000E-02 0.  1.
         -2   -1    0    0    0  501 -0.00000000000E+00 -0.00000000000E+00 -0.16231975116E+04  0.16231975116E+04  0.25500000000E-02 0. -1.
     200001    2    1    2    0    0 -0.52682736921E+03 -0.39653866247E+03 -0.26070385851E+03  0.93860505662E+03  0.61499834365E+03 0.  0.
    5000001    2    3    3    0    0 -0.28327899595E+03 -0.41877234306E+03  0.37000336705E+02  0.54031002211E+03  0.18694552741E+03 0.  0.
        -11    1    4    4    0    0 -0.76273045317E+02 -0.87659541625E+01 -0.10901357906E+02  0.77545206163E+02  0.51100000000E-03 0. -1.
     200002    1    4    4    0    0 -0.20700595064E+03 -0.41000638889E+03  0.47901694611E+02  0.46276481595E+03  0.30000000000E+02 0. -1.
     200000    1    3    3    0    0 -0.24354837325E+03  0.22233680590E+02 -0.29770419521E+03  0.39829503451E+03  0.10100000000E+03 0. -1.
    -200001    1    1    2    0    0  0.52682736921E+03  0.39653866247E+03 -0.82556433088E+03  0.12215217772E+04  0.61300000000E+03 0. -1.
<mgrwt>
<rscale>  0 0.18671286E+04</rscale>
<asrwt>0</asrwt>
<pdfrwt beam="1">  1        2 0.76704189E-01 0.18671286E+04</pdfrwt>
<pdfrwt beam="2">  1       -2 0.23188536E+00 0.18671286E+04</pdfrwt>
<totfact> 0.48436123E+00</totfact>
</mgrwt>
</event>
<event>
 8    1  0.7326756E-052  0.1756827E+04  0.7818608E-02  0.8729601E-01
         -2   -1    0    0    0  501 -0.00000000000E+00  0.00000000000E+00  0.10054192361E+04  0.10054192361E+04  0.25500000000E-02 0. -1.
          2   -1    0    0  501    0  0.00000000000E+00 -0.00000000000E+00 -0.76745155193E+03  0.76745155194E+03  0.25500000000E-02 0.  1.
     200001    2    1    2    0    0  0.19558082705E+03 -0.49385151018E+03  0.45958970502E+03  0.93202211315E+03  0.61261843624E+03 0.  0.
    5000001    2    3    3    0    0 -0.11695173530E+03 -0.44245600259E+03  0.34844643075E+03  0.58149118991E+03  0.85276410734E+02 0.  0.
        -11    1    4    4    0    0 -0.10281388094E+03 -0.37709711710E+03  0.30905194848E+03  0.49828308892E+03  0.51100000000E-03 0. -1.
     200002    1    4    4    0    0 -0.14137854359E+02 -0.65358885491E+02  0.39394482263E+02  0.83208100995E+02  0.30000000000E+02 0.  1.
     200000    1    3    3    0    0  0.31253256235E+03 -0.51395507592E+02  0.11114327427E+03  0.35053092323E+03  0.10100000000E+03 0.  1.
    -200001    1    1    2    0    0 -0.19558082705E+03  0.49385151018E+03 -0.22162202082E+03  0.84084867493E+03  0.61300000000E+03 0.  1.
<mgrwt>
<rscale>  0 0.17568273E+04</rscale>
<asrwt>0</asrwt>
<pdfrwt beam="1">  1        2 0.10963594E+00 0.17568273E+04</pdfrwt>
<pdfrwt beam="2">  1       -2 0.14363132E+00 0.17568273E+04</pdfrwt>
<totfact> 0.12792524E+01</totfact>
</mgrwt>
</event>
<event>
 8    1  0.7326756E-052  0.1491188E+04  0.7818608E-02  0.8890334E-01
          2   -1    0    0  501    0  0.00000000000E+00  0.00000000000E+00  0.27957225296E+04  0.27957225296E+04  0.25500000000E-02 0.  1.
         -2   -1    0    0    0  501 -0.00000000000E+00 -0.00000000000E+00 -0.19884326196E+03  0.19884326198E+03  0.25500000000E-02 0. -1.
     200001    2    1    2    0    0  0.23788849857E+03  0.34617851622E+03  0.11782767114E+04  0.13931187224E+04  0.61319920352E+03 0.  0.
    5000001    2    3    3    0    0 -0.60333025287E+02  0.11182510749E+03  0.94880254880E+01  0.16018498946E+03  0.97078728956E+02 0.  0.
        -11    1    4    4    0    0 -0.35537165041E+02  0.10005472923E+03 -0.22394365766E+02  0.10851426891E+03  0.51100000000E-03 0. -1.
     200002    1    4    4    0    0 -0.24795860245E+02  0.11770378263E+02  0.31882391254E+02  0.51670720547E+02  0.30000000000E+02 0. -1.
     200000    1    3    3    0    0  0.29822152385E+03  0.23435340873E+03  0.11687886859E+04  0.12329337329E+04  0.10100000000E+03 0.  1.
    -200001    1    1    2    0    0 -0.23788849857E+03 -0.34617851622E+03  0.14186025562E+04  0.16014470692E+04  0.61300000000E+03 0. -1.
<mgrwt>
<rscale>  0 0.14911882E+04</rscale>
<asrwt>0</asrwt>
<pdfrwt beam="1">  1        2 0.39938893E+00 0.14911882E+04</pdfrwt>
<pdfrwt beam="2">  1       -2 0.28406181E-01 0.14911882E+04</pdfrwt>
<totfact> 0.33736410E+01</totfact>
</mgrwt>
</event>
<event>
 8    1  0.7326756E-052  0.1684899E+04  0.7818608E-02  0.8770024E-01
          2   -1    0    0  501    0  0.00000000000E+00  0.00000000000E+00  0.16163825759E+04  0.16163825759E+04  0.25500000000E-02 0.  1.
         -2   -1    0    0    0  501 -0.00000000000E+00 -0.00000000000E+00 -0.43908010129E+03  0.43908010130E+03  0.25500000000E-02 0. -1.
     200001    2    1    2    0    0 -0.34449821058E+03  0.41717745991E+03  0.83686144527E+03  0.11698074708E+04  0.61269600135E+03 0.  0.
    5000001    2    3    3    0    0 -0.14580714288E+02  0.61796866553E+01 -0.72148484132E+02  0.11422006292E+03  0.87120796909E+02 0.  0.
        -11    1    4    4    0    0 -0.26853438888E+02  0.31127115812E+02 -0.57687343902E+02  0.70836672463E+02  0.51100000000E-03 0. -1.
     200002    1    4    4    0    0  0.12272724600E+02 -0.24947429156E+02 -0.14461140230E+02  0.43383390455E+02  0.30000000000E+02 0. -1.
     200000    1    3    3    0    0 -0.32991749630E+03  0.41099777326E+03  0.90900992940E+03  0.10555874079E+04  0.10100000000E+03 0.  1.
    -200001    1    1    2    0    0  0.34449821058E+03 -0.41717745991E+03  0.34044102937E+03  0.88565520641E+03  0.61300000000E+03 0. -1.
<mgrwt>
<rscale>  0 0.16848993E+04</rscale>
<asrwt>0</asrwt>
<pdfrwt beam="1">  1        2 0.23091179E+00 0.16848993E+04</pdfrwt>
<pdfrwt beam="2">  1       -2 0.62725729E-01 0.16848993E+04</pdfrwt>
<totfact> 0.28545935E+01</totfact>
</mgrwt>
</event>
<event>
 8    1  0.7326756E-052  0.1708954E+04  0.7818608E-02  0.8756274E-01
         -2   -1    0    0    0  501 -0.00000000000E+00  0.00000000000E+00  0.12023012408E+04  0.12023012408E+04  0.25500000000E-02 0. -1.
          2   -1    0    0  501    0  0.00000000000E+00 -0.00000000000E+00 -0.60727801673E+03  0.60727801674E+03  0.25500000000E-02 0.  1.
     200001    2    1    2    0    0 -0.16069633478E+03  0.25619797502E+03 -0.24616961662E+03  0.72568114902E+03  0.61200730019E+03 0.  0.
    5000001    2    3    3    0    0  0.10619536707E+03  0.23039322992E+03  0.92339411652E+02  0.28218771321E+03  0.82126988042E+02 0.  0.
        -11    1    4    4    0    0  0.10617100610E+01  0.44704420370E+02  0.41009177280E+02  0.60674253603E+02  0.51100000000E-03 0. -1.
     200002    1    4    4    0    0  0.10513365701E+03  0.18568880955E+03  0.51330234371E+02  0.22151345961E+03  0.30000000000E+02 0. -1.
     200000    1    3    3    0    0 -0.26689170185E+03  0.25804745101E+02 -0.33850902827E+03  0.44349343581E+03  0.10100000000E+03 0.  1.
    -200001    1    1    2    0    0  0.16069633478E+03 -0.25619797502E+03  0.84119284065E+03  0.10838981085E+04  0.61300000000E+03 0. -1.
<mgrwt>
<rscale>  0 0.17089542E+04</rscale>
<asrwt>0</asrwt>
<pdfrwt beam="1">  1        2 0.86754002E-01 0.17089542E+04</pdfrwt>
<pdfrwt beam="2">  1       -2 0.17175732E+00 0.17089542E+04</pdfrwt>
<totfact> 0.10553056E+01</totfact>
</mgrwt>
</event>
<event>
 8    1  0.7326756E-052  0.1645424E+04  0.7818608E-02  0.8793118E-01
          2   -1    0    0  501    0  0.00000000000E+00  0.00000000000E+00  0.75502617803E+03  0.75502617803E+03  0.25500000000E-02 0.  1.
         -2   -1    0    0    0  501 -0.00000000000E+00 -0.00000000000E+00 -0.89646516512E+03  0.89646516513E+03  0.25500000000E-02 0. -1.
     200001    2    1    2    0    0  0.48790146324E+03  0.25173463814E+03 -0.78744094746E+02  0.82619272121E+03  0.61235252449E+03 0.  0.
    5000001    2    3    3    0    0  0.24559576061E+03 -0.59077766442E+02 -0.54448332233E+02  0.41862961144E+03  0.32936100342E+03 0.  0.
        -11    1    4    4    0    0  0.15615318710E+03  0.12086257999E+03  0.27861429196E+02  0.19941875619E+03  0.51100000000E-03 0. -1.
     200002    1    4    4    0    0  0.89442573510E+02 -0.17994034644E+03 -0.82309761429E+02  0.21921085525E+03  0.30000000000E+02 0. -1.
     200000    1    3    3    0    0  0.24230570263E+03  0.31081240458E+03 -0.24295762513E+02  0.40756310977E+03  0.10100000000E+03 0.  1.
    -200001    1    1    2    0    0 -0.48790146324E+03 -0.25173463814E+03 -0.62694892350E+02  0.82529862195E+03  0.61300000000E+03 0.  1.
<mgrwt>
<rscale>  0 0.16454236E+04</rscale>
<asrwt>0</asrwt>
<pdfrwt beam="1">  1        2 0.10786088E+00 0.16454236E+04</pdfrwt>
<pdfrwt beam="2">  1       -2 0.12806645E+00 0.16454236E+04</pdfrwt>
<totfact> 0.17687300E+01</totfact>
</mgrwt>
</event>
<event>
 8    1  0.7326756E-052  0.1599115E+04  0.7818608E-02  0.8821092E-01
         -2   -1    0    0    0  501 -0.00000000000E+00  0.00000000000E+00  0.35905370259E+03  0.35905370260E+03  0.25500000000E-02 0. -1.
          2   -1    0    0  501    0  0.00000000000E+00 -0.00000000000E+00 -0.17804907817E+04  0.17804907817E+04  0.25500000000E-02 0.  1.
     200001    2    1    2    0    0  0.47597791660E+03  0.12493462566E+03 -0.90413828410E+03  0.11985180866E+04  0.61385334524E+03 0.  0.
    5000001    2    3    3    0    0  0.92255862882E+02  0.31690083061E+03 -0.32346183105E+03  0.46949148804E+03  0.82809543644E+02 0.  0.
        -11    1    4    4    0    0 -0.42294113823E+01  0.10828113040E+03 -0.10893629629E+03  0.15365483322E+03  0.51100000000E-03 0. -1.
     200002    1    4    4    0    0  0.96485274264E+02  0.20861970020E+03 -0.21452553476E+03  0.31583665482E+03  0.30000000000E+02 0.  1.
     200000    1    3    3    0    0  0.38372205372E+03 -0.19196620494E+03 -0.58067645305E+03  0.72902659861E+03  0.10100000000E+03 0.  1.
    -200001    1    1    2    0    0 -0.47597791660E+03 -0.12493462566E+03 -0.51729879503E+03  0.94102639767E+03  0.61300000000E+03 0. -1.
<mgrwt>
<rscale>  0 0.15991145E+04</rscale>
<asrwt>0</asrwt>
<pdfrwt beam="1">  1        2 0.25435582E+00 0.15991145E+04</pdfrwt>
<pdfrwt beam="2">  1       -2 0.51293387E-01 0.15991145E+04</pdfrwt>
<totfact> 0.35941162E+01</totfact>
</mgrwt>
</event>
<event>
 8    1  0.7326756E-052  0.1298971E+04  0.7818608E-02  0.9030381E-01
         -2   -1    0    0    0  501 -0.00000000000E+00  0.00000000000E+00  0.21737426401E+03  0.21737426403E+03  0.25500000000E-02 0. -1.
          2   -1    0    0  501    0  0.00000000000E+00 -0.00000000000E+00 -0.19405776635E+04  0.19405776635E+04  0.25500000000E-02 0.  1.
     200001    2    1    2    0    0 -0.49107607760E+02  0.20505631411E+03 -0.79495586875E+03  0.10257540087E+04  0.61299005211E+03 0.  0.
    5000001    2    3    3    0    0 -0.14501503104E+03 -0.14678600254E+03 -0.20945565837E+03  0.32861503690E+03  0.14676743470E+03 0.  0.
        -11    1    4    4    0    0 -0.15438173379E+03 -0.14449443603E+03 -0.20869247296E+03  0.29709410974E+03  0.51100000000E-03 0. -1.
     200002    1    4    4    0    0  0.93667027429E+01 -0.22915665040E+01 -0.76318540412E+00  0.31520927164E+02  0.30000000000E+02 0. -1.
     200000    1    3    3    0    0  0.95907423284E+02  0.35184231665E+03 -0.58550021038E+03  0.69713897178E+03  0.10100000000E+03 0. -1.
    -200001    1    1    2    0    0  0.49107607760E+02 -0.20505631411E+03 -0.92824753075E+03  0.11321979188E+04  0.61300000000E+03 0. -1.
<mgrwt>
<rscale>  0 0.12989713E+04</rscale>
<asrwt>0</asrwt>
<pdfrwt beam="1">  1        2 0.27722537E+00 0.12989713E+04</pdfrwt>
<pdfrwt beam="2">  1       -2 0.31053467E-01 0.12989713E+04</pdfrwt>
<totfact> 0.81162359E+01</totfact>
</mgrwt>
</event>
<event>
 8    1  0.7326756E-052  0.1427600E+04  0.7818608E-02  0.8934079E-01
         -2   -1    0    0    0  501 -0.00000000000E+00  0.00000000000E+00  0.24152719051E+03  0.24152719053E+03  0.25500000000E-02 0. -1.
          2   -1    0    0  501    0  0.00000000000E+00 -0.00000000000E+00 -0.21095367197E+04  0.21095367197E+04  0.25500000000E-02 0.  1.
     200001    2    1    2    0    0  0.28273032372E+02 -0.18107673762E+03 -0.41421470831E+03  0.76270736006E+03  0.61364529106E+03 0.  0.
    5000001    2    3    3    0    0 -0.33439884913E+02 -0.29059439338E+03  0.14486728808E+02  0.30468058871E+03  0.84006359625E+02 0.  0.
        -11    1    4    4    0    0 -0.14288030900E+02 -0.21159774005E+03  0.36705704703E+02  0.21523257230E+03  0.51100000000E-03 0. -1.
     200002    1    4    4    0    0 -0.19151854013E+02 -0.78996653334E+02 -0.22218975895E+02  0.89448016411E+02  0.30000000000E+02 0.  1.
     200000    1    3    3    0    0  0.61712917285E+02  0.10951765576E+03 -0.42870143712E+03  0.45802677135E+03  0.10100000000E+03 0.  1.
    -200001    1    1    2    0    0 -0.28273032372E+02  0.18107673762E+03 -0.14537948209E+04  0.15883565502E+04  0.61300000000E+03 0.  1.
<mgrwt>
<rscale>  0 0.14276001E+04</rscale>
<asrwt>0</asrwt>
<pdfrwt beam="1">  1        2 0.30136238E+00 0.14276001E+04</pdfrwt>
<pdfrwt beam="2">  1       -2 0.34503885E-01 0.14276001E+04</pdfrwt>
<totfact> 0.53943835E+01</totfact>
</mgrwt>
</event>
<event>
 8    1  0.7326756E-052  0.1988518E+04  0.7818608E-02  0.8612008E-01
         -2   -1    0    0    0  501 -0.00000000000E+00  0.00000000000E+00  0.81279999971E+03  0.81279999971E+03  0.25500000000E-02 0. -1.
          2   -1    0    0  501    0  0.00000000000E+00 -0.00000000000E+00 -0.12162287575E+04  0.12162287575E+04  0.25500000000E-02 0.  1.
     200001    2    1    2    0    0 -0.28118830154E+03  0.18883478987E+03  0.51896961881E+03  0.87087798812E+03  0.61186074082E+03 0.  0.
    5000001    2    3    3    0    0 -0.10445608188E+03  0.37398637889E+03  0.20088480459E+03  0.45028990290E+03  0.10783972970E+03 0.  0.
        -11    1    4    4    0    0 -0.30586179018E+01  0.17925224100E+03  0.66979839969E+02  0.19138186959E+03  0.51100000000E-03 0. -1.
     200002    1    4    4    0    0 -0.10139746398E+03  0.19473413790E+03  0.13390496462E+03  0.25890803331E+03  0.30000000000E+02 0. -1.
     200000    1    3    3    0    0 -0.17673221966E+03 -0.18515158903E+03  0.31808481422E+03  0.42058808521E+03  0.10100000000E+03 0. -1.
    -200001    1    1    2    0    0  0.28118830154E+03 -0.18883478987E+03 -0.92239837656E+03  0.11581507691E+04  0.61300000000E+03 0.  1.
<mgrwt>
<rscale>  0 0.19885178E+04</rscale>
<asrwt>0</asrwt>
<pdfrwt beam="1">  1        2 0.17374697E+00 0.19885178E+04</pdfrwt>
<pdfrwt beam="2">  1       -2 0.11611429E+00 0.19885178E+04</pdfrwt>
<totfact> 0.11249973E+01</totfact>
</mgrwt>
</event>
<event>
 8    1  0.7326756E-052  0.1389614E+04  0.7818608E-02  0.8961371E-01
         -2   -1    0    0    0  501 -0.00000000000E+00  0.00000000000E+00  0.20560095958E+03  0.20560095959E+03  0.25500000000E-02 0. -1.
          2   -1    0    0  501    0  0.00000000000E+00 -0.00000000000E+00 -0.23480285752E+04  0.23480285752E+04  0.25500000000E-02 0.  1.
     200001    2    1    2    0    0  0.27569040579E+03  0.79288028120E+02 -0.13631742215E+04  0.15214974486E+04  0.61189765196E+03 0.  0.
    5000001    2    3    3    0    0  0.21238045070E+03  0.31435991243E+03 -0.71390228554E+03  0.82076783731E+03  0.14168895190E+03 0.  0.
        -11    1    4    4    0    0  0.40260362619E+02  0.17745280608E+03 -0.29246776746E+03  0.34445288529E+03  0.51100000000E-03 0. -1.
     200002    1    4    4    0    0  0.17212008808E+03  0.13690710635E+03 -0.42143451808E+03  0.47631495202E+03  0.30000000000E+02 0. -1.
     200000    1    3    3    0    0  0.63309955091E+02 -0.23507188431E+03 -0.64927193600E+03  0.70072961126E+03  0.10100000000E+03 0. -1.
    -200001    1    1    2    0    0 -0.27569040579E+03 -0.79288028120E+02 -0.77925339413E+03  0.10321320863E+04  0.61300000000E+03 0. -1.
<mgrwt>
<rscale>  0 0.13896142E+04</rscale>
<asrwt>0</asrwt>
<pdfrwt beam="1">  1        2 0.33543264E+00 0.13896142E+04</pdfrwt>
<pdfrwt beam="2">  1       -2 0.29371567E-01 0.13896142E+04</pdfrwt>
<totfact> 0.55171454E+01</totfact>
</mgrwt>
</event>
<event>
 8    1  0.7326756E-052  0.1311202E+04  0.7818608E-02  0.9020729E-01
         -2   -1    0    0    0  501 -0.00000000000E+00  0.00000000000E+00  0.23276530911E+03  0.23276530912E+03  0.25500000000E-02 0. -1.
          2   -1    0    0  501    0  0.00000000000E+00 -0.00000000000E+00 -0.18465492093E+04  0.18465492093E+04  0.25500000000E-02 0.  1.
     200001    2    1    2    0    0  0.12458268443E+03  0.18195464109E+03 -0.89521642157E+03  0.11093987705E+04  0.61702905438E+03 0.  0.
    5000001    2    3    3    0    0 -0.56421685615E+02  0.50464005104E+02  0.34508143592E+02  0.14781614986E+03  0.12218338580E+03 0.  0.
        -11    1    4    4    0    0  0.25455748770E+02  0.31900825832E+02  0.41729733566E+02  0.58369756707E+02  0.51100000000E-03 0. -1.
     200002    1    4    4    0    0 -0.81877434385E+02  0.18563179272E+02 -0.72215899747E+01  0.89446393152E+02  0.30000000000E+02 0.  1.
     200000    1    3    3    0    0  0.18100437004E+03  0.13149063598E+03 -0.92972456516E+03  0.96158262067E+03  0.10100000000E+03 0.  1.
    -200001    1    1    2    0    0 -0.12458268443E+03 -0.18195464109E+03 -0.71856747864E+03  0.96991574790E+03  0.61300000000E+03 0. -1.
<mgrwt>
<rscale>  0 0.13112019E+04</rscale>
<asrwt>0</asrwt>
<pdfrwt beam="1">  1        2 0.26379274E+00 0.13112019E+04</pdfrwt>
<pdfrwt beam="2">  1       -2 0.33252188E-01 0.13112019E+04</pdfrwt>
<totfact> 0.79677540E+01</totfact>
</mgrwt>
</event>
<event>
 8    1  0.7326756E-052  0.1289982E+04  0.7818608E-02  0.9037547E-01
          2   -1    0    0  501    0  0.00000000000E+00  0.00000000000E+00  0.18562596515E+04  0.18562596515E+04  0.25500000000E-02 0.  1.
         -2   -1    0    0    0  501 -0.00000000000E+00 -0.00000000000E+00 -0.22411396458E+03  0.22411396459E+03  0.25500000000E-02 0. -1.
     200001    2    1    2    0    0  0.10587580988E+02 -0.16088952023E+03  0.10098283338E+04  0.11920913284E+04  0.61264258501E+03 0.  0.
    5000001    2    3    3    0    0  0.11940628752E+03 -0.35385884769E+03  0.70575868855E+03  0.80255568000E+03  0.80785812145E+02 0.  0.
        -11    1    4    4    0    0  0.11108504766E+03 -0.27273182548E+03  0.52360120974E+03  0.60073352103E+03  0.51100000000E-03 0. -1.
     200002    1    4    4    0    0  0.83212398643E+01 -0.81127022214E+02  0.18215747881E+03  0.20182215898E+03  0.30000000000E+02 0.  1.
     200000    1    3    3    0    0 -0.10881870653E+03  0.19296932746E+03  0.30406964521E+03  0.38953564840E+03  0.10100000000E+03 0. -1.
    -200001    1    1    2    0    0 -0.10587580988E+02  0.16088952023E+03  0.62231735315E+03  0.88828228769E+03  0.61300000000E+03 0. -1.
<mgrwt>
<rscale>  0 0.12899825E+04</rscale>
<asrwt>0</asrwt>
<pdfrwt beam="1">  1        2 0.26517994E+00 0.12899825E+04</pdfrwt>
<pdfrwt beam="2">  1       -2 0.32016282E-01 0.12899825E+04</pdfrwt>
<totfact> 0.84734558E+01</totfact>
</mgrwt>
</event>
<event>
 8    1  0.7326756E-052  0.1715837E+04  0.7818608E-02  0.8752383E-01
          2   -1    0    0  501    0  0.00000000000E+00  0.00000000000E+00  0.49453770437E+03  0.49453770438E+03  0.25500000000E-02 0.  1.
         -2   -1    0    0    0  501 -0.00000000000E+00 -0.00000000000E+00 -0.14883082975E+04  0.14883082975E+04  0.25500000000E-02 0. -1.
     200001    2    1    2    0    0  0.15148343105E+03 -0.52035174118E+03 -0.79669828448E+03  0.11412287140E+04  0.61152404432E+03 0.  0.
    5000001    2    3    3    0    0  0.98797516202E+02 -0.54736131948E+03 -0.48137384531E+03  0.80487202109E+03  0.32669990529E+03 0.  0.
        -11    1    4    4    0    0  0.18481232043E+03 -0.51654023222E+03 -0.40096496004E+03  0.67951622825E+03  0.51100000000E-03 0. -1.
     200002    1    4    4    0    0 -0.86014804226E+02 -0.30821087256E+02 -0.80408885276E+02  0.12535579283E+03  0.30000000000E+02 0. -1.
     200000    1    3    3    0    0  0.52685914847E+02  0.27009578294E+02 -0.31532443917E+03  0.33635669293E+03  0.10100000000E+03 0.  1.
    -200001    1    1    2    0    0 -0.15148343105E+03  0.52035174118E+03 -0.19707230868E+03  0.84161728789E+03  0.61300000000E+03 0.  1.
<mgrwt>
<rscale>  0 0.17158375E+04</rscale>
<asrwt>0</asrwt>
<pdfrwt beam="1">  1        2 0.70648244E-01 0.17158375E+04</pdfrwt>
<pdfrwt beam="2">  1       -2 0.21261547E+00 0.17158375E+04</pdfrwt>
<totfact> 0.71315222E+00</totfact>
</mgrwt>
</event>
<event>
 8    1  0.7326756E-052  0.2413317E+04  0.7818608E-02  0.8434534E-01
          2   -1    0    0  501    0  0.00000000000E+00  0.00000000000E+00  0.24816159230E+04  0.24816159230E+04  0.25500000000E-02 0.  1.
         -2   -1    0    0    0  501 -0.00000000000E+00 -0.00000000000E+00 -0.58672466292E+03  0.58672466293E+03  0.25500000000E-02 0. -1.
     200001    2    1    2    0    0 -0.29628181238E+03  0.99236362952E+03  0.10594015560E+04  0.16032875046E+04  0.61288716739E+03 0.  0.
    5000001    2    3    3    0    0 -0.14143723014E+03  0.76864799786E+03  0.40273093449E+03  0.88534402933E+03  0.10400774003E+03 0.  0.
        -11    1    4    4    0    0 -0.32438327530E+02  0.17156098893E+03  0.13771582160E+03  0.22237595539E+03  0.51100000000E-03 0. -1.
     200002    1    4    4    0    0 -0.10899890261E+03  0.59708700893E+03  0.26501511289E+03  0.66296807395E+03  0.30000000000E+02 0. -1.
     200000    1    3    3    0    0 -0.15484458223E+03  0.22371563165E+03  0.65667062152E+03  0.71794347525E+03  0.10100000000E+03 0.  1.
    -200001    1    1    2    0    0  0.29628181238E+03 -0.99236362952E+03  0.83548970404E+03  0.14650530813E+04  0.61300000000E+03 0.  1.
<mgrwt>
<rscale>  0 0.24133174E+04</rscale>
<asrwt>0</asrwt>
<pdfrwt beam="1">  1        2 0.35451655E+00 0.24133174E+04</pdfrwt>
<pdfrwt beam="2">  1       -2 0.83817810E-01 0.24133174E+04</pdfrwt>
<totfact> 0.50626283E+00</totfact>
</mgrwt>
</event>
<event>
 8    1  0.7326756E-052  0.1261970E+04  0.7818608E-02  0.9060279E-01
         -2   -1    0    0    0  501 -0.00000000000E+00  0.00000000000E+00  0.32664488896E+03  0.32664488897E+03  0.25500000000E-02 0. -1.
          2   -1    0    0  501    0  0.00000000000E+00 -0.00000000000E+00 -0.12188842263E+04  0.12188842263E+04  0.25500000000E-02 0.  1.
     200001    2    1    2    0    0 -0.14179688125E+03  0.48969310779E+02 -0.47823535875E+03  0.79076250023E+03  0.61163054574E+03 0.  0.
    5000001    2    3    3    0    0 -0.46827296350E+02 -0.26255821133E+03 -0.29034266978E+03  0.40143836579E+03  0.75659008821E+02 0.  0.
        -11    1    4    4    0    0  0.18841691383E+01 -0.84265501718E+02 -0.54789844763E+02  0.10052935871E+03  0.51100000000E-03 0. -1.
     200002    1    4    4    0    0 -0.48711465488E+02 -0.17829270961E+03 -0.23555282502E+03  0.30090900708E+03  0.30000000000E+02 0. -1.
     200000    1    3    3    0    0 -0.94969584902E+02  0.31152752211E+03 -0.18789268898E+03  0.38932413444E+03  0.10100000000E+03 0. -1.
    -200001    1    1    2    0    0  0.14179688125E+03 -0.48969310779E+02 -0.41400397862E+03  0.75476661508E+03  0.61300000000E+03 0.  1.
<mgrwt>
<rscale>  0 0.12619704E+04</rscale>
<asrwt>0</asrwt>
<pdfrwt beam="1">  1        2 0.17412632E+00 0.12619704E+04</pdfrwt>
<pdfrwt beam="2">  1       -2 0.46663556E-01 0.12619704E+04</pdfrwt>
<totfact> 0.89198978E+01</totfact>
</mgrwt>
</event>
<event>
 8    1  0.7326756E-052  0.1933367E+04  0.7818608E-02  0.8638423E-01
          2   -1    0    0  501    0  0.00000000000E+00  0.00000000000E+00  0.13256686453E+04  0.13256686453E+04  0.25500000000E-02 0.  1.
         -2   -1    0    0    0  501 -0.00000000000E+00 -0.00000000000E+00 -0.70490989172E+03  0.70490989172E+03  0.25500000000E-02 0. -1.
     200001    2    1    2    0    0  0.52803371398E+03  0.19736282174E+03 -0.20465387223E+03  0.85803997075E+03  0.61365926824E+03 0.  0.
    5000001    2    3    3    0    0  0.88185800614E+02  0.19560654793E+03 -0.31062029362E+03  0.39446780393E+03  0.11437318089E+03 0.  0.
        -11    1    4    4    0    0  0.10473969867E+03  0.13376985455E+03 -0.24404204663E+03  0.29735719091E+03  0.51100000000E-03 0. -1.
     200002    1    4    4    0    0 -0.16553898055E+02  0.61836693383E+02 -0.66578246995E+02  0.97110613026E+02  0.30000000000E+02 0. -1.
     200000    1    3    3    0    0  0.43984791336E+03  0.17562738088E+01  0.10596642139E+03  0.46357216682E+03  0.10100000000E+03 0. -1.
    -200001    1    1    2    0    0 -0.52803371398E+03 -0.19736282174E+03  0.82541262576E+03  0.11725385662E+04  0.61300000000E+03 0.  1.
<mgrwt>
<rscale>  0 0.19333670E+04</rscale>
<asrwt>0</asrwt>
<pdfrwt beam="1">  1        2 0.18938123E+00 0.19333670E+04</pdfrwt>
<pdfrwt beam="2">  1       -2 0.10070141E+00 0.19333670E+04</pdfrwt>
<totfact> 0.13840876E+01</totfact>
</mgrwt>
</event>
<event>
 8    1  0.7326756E-052  0.1518837E+04  0.7818608E-02  0.8872022E-01
         -2   -1    0    0    0  501 -0.00000000000E+00  0.00000000000E+00  0.53653585447E+03  0.53653585448E+03  0.25500000000E-02 0. -1.
          2   -1    0    0  501    0  0.00000000000E+00 -0.00000000000E+00 -0.10748891393E+04  0.10748891393E+04  0.25500000000E-02 0.  1.
     200001    2    1    2    0    0 -0.38833070682E+03  0.21045480759E+03 -0.35419629336E+03  0.83375233684E+03  0.61204246671E+03 0.  0.
    5000001    2    3    3    0    0 -0.26329696861E+03  0.14539406493E+03  0.11390325046E+03  0.33456848408E+03  0.92181301120E+02 0.  0.
        -11    1    4    4    0    0 -0.14509971130E+03  0.33185563176E+02  0.55853902536E+02  0.15898071031E+03  0.51100000000E-03 0. -1.
     200002    1    4    4    0    0 -0.11819725731E+03  0.11220850175E+03  0.58049347929E+02  0.17558777377E+03  0.30000000000E+02 0. -1.
     200000    1    3    3    0    0 -0.12503373821E+03  0.65060742664E+02 -0.46809954382E+03  0.49918385276E+03  0.10100000000E+03 0.  1.
    -200001    1    1    2    0    0  0.38833070682E+03 -0.21045480759E+03 -0.18415699152E+03  0.77767265699E+03  0.61300000000E+03 0. -1.
<mgrwt>
<rscale>  0 0.15188371E+04</rscale>
<asrwt>0</asrwt>
<pdfrwt beam="1">  1        2 0.15355559E+00 0.15188371E+04</pdfrwt>
<pdfrwt beam="2">  1       -2 0.76647979E-01 0.15188371E+04</pdfrwt>
<totfact> 0.37196873E+01</totfact>
</mgrwt>
</event>
<event>
 8    1  0.7326756E-052  0.1342262E+04  0.7818608E-02  0.8996706E-01
          2   -1    0    0  501    0  0.00000000000E+00  0.00000000000E+00  0.16512695882E+04  0.16512695882E+04  0.25500000000E-02 0.  1.
         -2   -1    0    0    0  501 -0.00000000000E+00 -0.00000000000E+00 -0.27277004324E+03  0.27277004325E+03  0.25500000000E-02 0. -1.
     200001    2    1    2    0    0 -0.16258682197E+02 -0.23540818658E+03  0.88726288978E+03  0.11038178258E+04  0.61277809845E+03 0.  0.
    5000001    2    3    3    0    0  0.43805374021E+01  0.66768460650E+02  0.23995934241E+02  0.18340077901E+03  0.16906455701E+03 0.  0.
        -11    1    4    4    0    0  0.60089464153E+02  0.11301803695E+00 -0.39307701594E+02  0.71804260877E+02  0.51100000000E-03 0. -1.
     200002    1    4    4    0    0 -0.55708926751E+02  0.66655442613E+02  0.63303635835E+02  0.11159651813E+03  0.30000000000E+02 0. -1.
     200000    1    3    3    0    0 -0.20639219599E+02 -0.30217664723E+03  0.86326695554E+03  0.92041704680E+03  0.10100000000E+03 0.  1.
    -200001    1    1    2    0    0  0.16258682197E+02  0.23540818658E+03  0.49123665517E+03  0.82022180563E+03  0.61300000000E+03 0. -1.
<mgrwt>
<rscale>  0 0.13422621E+04</rscale>
<asrwt>0</asrwt>
<pdfrwt beam="1">  1        2 0.23589566E+00 0.13422621E+04</pdfrwt>
<pdfrwt beam="2">  1       -2 0.38967148E-01 0.13422621E+04</pdfrwt>
<totfact> 0.74008779E+01</totfact>
</mgrwt>
</event>
<event>
 8    1  0.7326756E-052  0.1724469E+04  0.7818608E-02  0.8747531E-01
          2   -1    0    0  501    0  0.00000000000E+00  0.00000000000E+00  0.40381999294E+04  0.40381999294E+04  0.25500000000E-02 0.  1.
         -2   -1    0    0    0  501 -0.00000000000E+00 -0.00000000000E+00 -0.18410381119E+03  0.18410381120E+03  0.25500000000E-02 0. -1.
     200001    2    1    2    0    0  0.49536121901E+03 -0.31809510369E+03  0.15793816881E+04  0.17939993999E+04  0.61434525961E+03 0.  0.
    5000001    2    3    3    0    0  0.30757350314E+03 -0.41216177204E+03  0.14180160833E+04  0.15105340180E+04  0.80402866735E+02 0.  0.
        -11    1    4    4    0    0  0.24299187608E+03 -0.34030340210E+03  0.11805114624E+04  0.12523812399E+04  0.51100000000E-03 0. -1.
     200002    1    4    4    0    0  0.64581627057E+02 -0.71858369942E+02  0.23750462090E+03  0.25815277808E+03  0.30000000000E+02 0.  1.
     200000    1    3    3    0    0  0.18778771587E+03  0.94066668351E+02  0.16136560478E+03  0.28346538190E+03  0.10100000000E+03 0. -1.
    -200001    1    1    2    0    0 -0.49536121901E+03  0.31809510369E+03  0.22747144302E+04  0.24283043407E+04  0.61300000000E+03 0. -1.
<mgrwt>
<rscale>  0 0.17244686E+04</rscale>
<asrwt>0</asrwt>
<pdfrwt beam="1">  1        2 0.57688571E+00 0.17244686E+04</pdfrwt>
<pdfrwt beam="2">  1       -2 0.26300544E-01 0.17244686E+04</pdfrwt>
<totfact> 0.67551782E+00</totfact>
</mgrwt>
</event>
<event>
 8    1  0.7326756E-052  0.1369793E+04  0.7818608E-02  0.8975979E-01
          2   -1    0    0  501    0  0.00000000000E+00  0.00000000000E+00  0.31810229177E+04  0.31810229177E+04  0.25500000000E-02 0.  1.
         -2   -1    0    0    0  501 -0.00000000000E+00 -0.00000000000E+00 -0.14746297223E+03  0.14746297225E+03  0.25500000000E-02 0. -1.
     200001    2    1    2    0    0  0.16625280885E+03 -0.20593270684E+03  0.11388534490E+04  0.13195732527E+04  0.61175004276E+03 0.  0.
    5000001    2    3    3    0    0 -0.30455197861E+02  0.18690566240E+03  0.30732334856E+03  0.37370892197E+03  0.96692668171E+02 0.  0.
        -11    1    4    4    0    0 -0.23017545698E+02  0.12569037889E+03  0.12431929653E+03  0.17827833924E+03  0.51100000000E-03 0. -1.
     200002    1    4    4    0    0 -0.74376521625E+01  0.61215283517E+02  0.18300405203E+03  0.19543058273E+03  0.30000000000E+02 0. -1.
     200000    1    3    3    0    0  0.19670800671E+03 -0.39283836925E+03  0.83153010041E+03  0.94586433073E+03  0.10100000000E+03 0.  1.
    -200001    1    1    2    0    0 -0.16625280885E+03  0.20593270684E+03  0.18947064966E+04  0.20089126373E+04  0.61300000000E+03 0.  1.
<mgrwt>
<rscale>  0 0.13697928E+04</rscale>
<asrwt>0</asrwt>
<pdfrwt beam="1">  1        2 0.45443179E+00 0.13697928E+04</pdfrwt>
<pdfrwt beam="2">  1       -2 0.21066141E-01 0.13697928E+04</pdfrwt>
<totfact> 0.35757767E+01</totfact>
</mgrwt>
</event>
<event>
 8    1  0.7326756E-052  0.2780466E+04  0.7818608E-02  0.8309359E-01
          2   -1    0    0  501    0  0.00000000000E+00  0.00000000000E+00  0.20174271878E+04  0.20174271878E+04  0.25500000000E-02 0.  1.
         -2   -1    0    0    0  501 -0.00000000000E+00 -0.00000000000E+00 -0.95802617326E+03  0.95802617326E+03  0.25500000000E-02 0. -1.
     200001    2    1    2    0    0  0.96681159994E+03 -0.47066055017E+03  0.12075135661E+04  0.17288771095E+04  0.61211193748E+03 0.  0.
    5000001    2    3    3    0    0  0.18312717873E+03  0.89002438138E+02  0.41499506152E+03  0.47760954708E+03  0.12013734139E+03 0.  0.
        -11    1    4    4    0    0  0.11612836868E+03  0.10057327142E+03  0.33429265620E+03  0.36790265143E+03  0.51100000000E-03 0. -1.
     200002    1    4    4    0    0  0.66998810044E+02 -0.11570833283E+02  0.80702405315E+02  0.10970689565E+03  0.30000000000E+02 0. -1.
     200000    1    3    3    0    0  0.78368442121E+03 -0.55966298831E+03  0.79251850458E+03  0.12512675624E+04  0.10100000000E+03 0.  1.
    -200001    1    1    2    0    0 -0.96681159994E+03  0.47066055017E+03 -0.14811255152E+03  0.12465762517E+04  0.61300000000E+03 0. -1.
<mgrwt>
<rscale>  0 0.27804662E+04</rscale>
<asrwt>0</asrwt>
<pdfrwt beam="1">  1        2 0.28820388E+00 0.27804662E+04</pdfrwt>
<pdfrwt beam="2">  1       -2 0.13686088E+00 0.27804662E+04</pdfrwt>
<totfact> 0.26278740E+00</totfact>
</mgrwt>
</event>
<event>
 8    1  0.7326756E-052  0.1650612E+04  0.7818608E-02  0.8790045E-01
         -2   -1    0    0    0  501 -0.00000000000E+00  0.00000000000E+00  0.14205902923E+04  0.14205902923E+04  0.25500000000E-02 0. -1.
          2   -1    0    0  501    0  0.00000000000E+00 -0.00000000000E+00 -0.47946958291E+03  0.47946958291E+03  0.25500000000E-02 0.  1.
     200001    2    1    2    0    0 -0.35511269474E+02 -0.13423926290E+03  0.10864364106E+04  0.12549498977E+04  0.61259606726E+03 0.  0.
    5000001    2    3    3    0    0  0.21234785793E+03 -0.14681583985E+00  0.18656828494E+03  0.30659417600E+03  0.11874607147E+03 0.  0.
        -11    1    4    4    0    0  0.12797273347E+03  0.50795192369E+01  0.17394446723E+03  0.21600810102E+03  0.51100000000E-03 0. -1.
     200002    1    4    4    0    0  0.84375124467E+02 -0.52263350767E+01  0.12623817712E+02  0.90586074983E+02  0.30000000000E+02 0. -1.
     200000    1    3    3    0    0 -0.24785912741E+03 -0.13409244706E+03  0.89986812564E+03  0.94835572173E+03  0.10100000000E+03 0. -1.
    -200001    1    1    2    0    0  0.35511269474E+02  0.13423926290E+03 -0.14531570123E+03  0.64510997744E+03  0.61300000000E+03 0.  1.
<mgrwt>
<rscale>  0 0.16506118E+04</rscale>
<asrwt>0</asrwt>
<pdfrwt beam="1">  1        2 0.68495655E-01 0.16506118E+04</pdfrwt>
<pdfrwt beam="2">  1       -2 0.20294147E+00 0.16506118E+04</pdfrwt>
<totfact> 0.85745805E+00</totfact>
</mgrwt>
</event>
<event>
 8    1  0.7326756E-052  0.1604695E+04  0.7818608E-02  0.8817669E-01
         -2   -1    0    0    0  501 -0.00000000000E+00  0.00000000000E+00  0.41163039350E+03  0.41163039351E+03  0.25500000000E-02 0. -1.
          2   -1    0    0  501    0  0.00000000000E+00 -0.00000000000E+00 -0.15639305870E+04  0.15639305870E+04  0.25500000000E-02 0.  1.
     200001    2    1    2    0    0  0.32965253807E+03 -0.24550032733E+03 -0.18962029308E+03  0.76252231779E+03  0.61363117832E+03 0.  0.
    5000001    2    3    3    0    0  0.30414680764E+03  0.13003690263E+03 -0.30347130101E+02  0.34151436797E+03  0.79348841045E+02 0.  0.
        -11    1    4    4    0    0  0.84938119926E+02  0.72156298933E+02 -0.83837770504E+01  0.11176449978E+03  0.51100000000E-03 0. -1.
     200002    1    4    4    0    0  0.21920868772E+03  0.57880603698E+02 -0.21963353051E+02  0.22974986819E+03  0.30000000000E+02 0. -1.
     200000    1    3    3    0    0  0.25505730422E+02 -0.37553722996E+03 -0.15927316298E+03  0.42100794983E+03  0.10100000000E+03 0.  1.
    -200001    1    1    2    0    0 -0.32965253807E+03  0.24550032733E+03 -0.96267990037E+03  0.12130386627E+04  0.61300000000E+03 0.  1.
<mgrwt>
<rscale>  0 0.16046948E+04</rscale>
<asrwt>0</asrwt>
<pdfrwt beam="1">  1        2 0.22341865E+00 0.16046948E+04</pdfrwt>
<pdfrwt beam="2">  1       -2 0.58804343E-01 0.16046948E+04</pdfrwt>
<totfact> 0.35091028E+01</totfact>
</mgrwt>
</event>
<event>
 8    1  0.7326756E-052  0.1370884E+04  0.7818608E-02  0.8975168E-01
         -2   -1    0    0    0  501 -0.00000000000E+00  0.00000000000E+00  0.33382188885E+03  0.33382188886E+03  0.25500000000E-02 0. -1.
          2   -1    0    0  501    0  0.00000000000E+00 -0.00000000000E+00 -0.14074298311E+04  0.14074298311E+04  0.25500000000E-02 0.  1.
     200001    2    1    2    0    0 -0.81564261057E+02  0.25495040529E+03 -0.35898188374E+03  0.76241984401E+03  0.61706044100E+03 0.  0.
    5000001    2    3    3    0    0  0.21329875870E+03  0.26449504396E+03 -0.15167262710E+03  0.38796900821E+03  0.10982429958E+03 0.  0.
        -11    1    4    4    0    0  0.11846451047E+03  0.71624309801E+02 -0.41051830885E+02  0.14439229486E+03  0.51100000000E-03 0. -1.
     200002    1    4    4    0    0  0.94834248230E+02  0.19287073416E+03 -0.11062079622E+03  0.24357671335E+03  0.30000000000E+02 0. -1.
     200000    1    3    3    0    0 -0.29486301976E+03 -0.95446386658E+01 -0.20730925664E+03  0.37445083580E+03  0.10100000000E+03 0. -1.
    -200001    1    1    2    0    0  0.81564261057E+02 -0.25495040529E+03 -0.71462605848E+03  0.97883187591E+03  0.61300000000E+03 0. -1.
<mgrwt>
<rscale>  0 0.13708842E+04</rscale>
<asrwt>0</asrwt>
<pdfrwt beam="1">  1        2 0.20106140E+00 0.13708842E+04</pdfrwt>
<pdfrwt beam="2">  1       -2 0.47688842E-01 0.13708842E+04</pdfrwt>
<totfact> 0.66654782E+01</totfact>
</mgrwt>
</event>
<event>
 8    1  0.7326756E-052  0.1269977E+04  0.7818608E-02  0.9053719E-01
          2   -1    0    0  501    0  0.00000000000E+00  0.00000000000E+00  0.21712944835E+04  0.21712944835E+04  0.25500000000E-02 0.  1.
         -2   -1    0    0    0  501 -0.00000000000E+00 -0.00000000000E+00 -0.18570043333E+03  0.18570043334E+03  0.25500000000E-02 0. -1.
     200001    2    1    2    0    0  0.14111722615E+03 -0.81273187511E+02  0.10498040424E+04  0.12265121256E+04  0.61296334672E+03 0.  0.
    5000001    2    3    3    0    0 -0.13030721981E+03 -0.25193427908E+03  0.49210184853E+03  0.57533689956E+03  0.91637689616E+02 0.  0.
        -11    1    4    4    0    0 -0.41574793392E+01  0.69854796558E+01  0.18742420349E+02  0.20429387687E+02  0.51100000000E-03 0. -1.
     200002    1    4    4    0    0 -0.12614974047E+03 -0.25891975874E+03  0.47335942818E+03  0.55490751187E+03  0.30000000000E+02 0. -1.
     200000    1    3    3    0    0  0.27142444595E+03  0.17066109157E+03  0.55770219383E+03  0.65117522607E+03  0.10100000000E+03 0.  1.
    -200001    1    1    2    0    0 -0.14111722615E+03  0.81273187511E+02  0.93579000780E+03  0.11304827912E+04  0.61300000000E+03 0.  1.
<mgrwt>
<rscale>  0 0.12699769E+04</rscale>
<asrwt>0</asrwt>
<pdfrwt beam="1">  1        2 0.31018494E+00 0.12699769E+04</pdfrwt>
<pdfrwt beam="2">  1       -2 0.26528632E-01 0.12699769E+04</pdfrwt>
<totfact> 0.82877398E+01</totfact>
</mgrwt>
</event>
<event>
 8    1  0.7326756E-052  0.1681215E+04  0.7818608E-02  0.8772151E-01
          2   -1    0    0  501    0  0.00000000000E+00  0.00000000000E+00  0.23214697197E+04  0.23214697197E+04  0.25500000000E-02 0.  1.
         -2   -1    0    0    0  501 -0.00000000000E+00 -0.00000000000E+00 -0.30438526648E+03  0.30438526649E+03  0.25500000000E-02 0. -1.
     200001    2    1    2    0    0 -0.15879000063E+03  0.10488320443E+03  0.18567658711E+04  0.19642767227E+04  0.61203659423E+03 0.  0.
    5000001    2    3    3    0    0 -0.30650822797E+03 -0.16868390986E+02  0.12789653574E+04  0.13472689763E+04  0.29180382524E+03 0.  0.
        -11    1    4    4    0    0 -0.56406697017E+02  0.12057294321E+03  0.48927050769E+03  0.50705540111E+03  0.51100000000E-03 0. -1.
     200002    1    4    4    0    0 -0.25010153095E+03 -0.13744133420E+03  0.78969484976E+03  0.84021357515E+03  0.30000000000E+02 0. -1.
     200000    1    3    3    0    0  0.14771822734E+03  0.12175159542E+03  0.57780051361E+03  0.61700774647E+03  0.10100000000E+03 0.  1.
    -200001    1    1    2    0    0  0.15879000063E+03 -0.10488320443E+03  0.16031858213E+03  0.66157826343E+03  0.61300000000E+03 0. -1.
<mgrwt>
<rscale>  0 0.16812153E+04</rscale>
<asrwt>0</asrwt>
<pdfrwt beam="1">  1        2 0.33163853E+00 0.16812153E+04</pdfrwt>
<pdfrwt beam="2">  1       -2 0.43483610E-01 0.16812153E+04</pdfrwt>
<totfact> 0.26204707E+01</totfact>
</mgrwt>
</event>
<event>
 8    1  0.7326756E-052  0.1407709E+04  0.7818608E-02  0.8948257E-01
         -2   -1    0    0    0  501 -0.00000000000E+00  0.00000000000E+00  0.48494122137E+03  0.48494122138E+03  0.25500000000E-02 0. -1.
          2   -1    0    0  501    0  0.00000000000E+00 -0.00000000000E+00 -0.10215898279E+04  0.10215898279E+04  0.25500000000E-02 0.  1.
     200001    2    1    2    0    0 -0.32055423779E+03 -0.11495137480E+02 -0.40208735349E+03  0.80171696854E+03  0.61497048731E+03 0.  0.
    5000001    2    3    3    0    0  0.59996178264E+02 -0.20570882937E+03 -0.37452019078E+02  0.23101783206E+03  0.77787666815E+02 0.  0.
        -11    1    4    4    0    0  0.49237921171E+01 -0.42028295924E+02  0.19666736838E+02  0.46662639502E+02  0.51100000000E-03 0. -1.
     200002    1    4    4    0    0  0.55072386146E+02 -0.16368053345E+03 -0.57118755916E+02  0.18435519256E+03  0.30000000000E+02 0. -1.
     200000    1    3    3    0    0 -0.38055041606E+03  0.19421369189E+03 -0.36463533441E+03  0.57069913648E+03  0.10100000000E+03 0. -1.
    -200001    1    1    2    0    0  0.32055423779E+03  0.11495137480E+02 -0.13456125301E+03  0.70481408071E+03  0.61300000000E+03 0.  1.
<mgrwt>
<rscale>  0 0.14077088E+04</rscale>
<asrwt>0</asrwt>
<pdfrwt beam="1">  1        2 0.14594140E+00 0.14077088E+04</pdfrwt>
<pdfrwt beam="2">  1       -2 0.69277317E-01 0.14077088E+04</pdfrwt>
<totfact> 0.50462860E+01</totfact>
</mgrwt>
</event>
<event>
 8    1  0.7326756E-052  0.1602519E+04  0.7818608E-02  0.8819002E-01
          2   -1    0    0  501    0  0.00000000000E+00  0.00000000000E+00  0.21639529467E+04  0.21639529467E+04  0.25500000000E-02 0.  1.
         -2   -1    0    0    0  501 -0.00000000000E+00 -0.00000000000E+00 -0.29668707682E+03  0.29668707683E+03  0.25500000000E-02 0. -1.
     200001    2    1    2    0    0 -0.35011750312E+03 -0.22449751247E+03  0.14024085377E+04  0.15860871444E+04  0.61314054177E+03 0.  0.
    5000001    2    3    3    0    0  0.80022516765E+02  0.13120783620E+03  0.38728357220E+03  0.42323443346E+03  0.74294824202E+02 0.  0.
        -11    1    4    4    0    0  0.18587740933E+02 -0.10968417096E+01  0.22394034745E+02  0.29123872805E+02  0.51100000000E-03 0. -1.
     200002    1    4    4    0    0  0.61434775832E+02  0.13230467791E+03  0.36488953745E+03  0.39411056066E+03  0.30000000000E+02 0. -1.
     200000    1    3    3    0    0 -0.43014001989E+03 -0.35570534867E+03  0.10151249655E+04  0.11628527110E+04  0.10100000000E+03 0.  1.
    -200001    1    1    2    0    0  0.35011750312E+03  0.22449751247E+03  0.46485733220E+03  0.87455287913E+03  0.61300000000E+03 0. -1.
<mgrwt>
<rscale>  0 0.16025191E+04</rscale>
<asrwt>0</asrwt>
<pdfrwt beam="1">  1        2 0.30913614E+00 0.16025191E+04</pdfrwt>
<pdfrwt beam="2">  1       -2 0.42383867E-01 0.16025191E+04</pdfrwt>
<totfact> 0.33469194E+01</totfact>
</mgrwt>
</event>
<event>
 8    1  0.7326756E-052  0.1390720E+04  0.7818608E-02  0.8960563E-01
          2   -1    0    0  501    0  0.00000000000E+00  0.00000000000E+00  0.17279186955E+04  0.17279186955E+04  0.25500000000E-02 0.  1.
         -2   -1    0    0    0  501 -0.00000000000E+00 -0.00000000000E+00 -0.27983119627E+03  0.27983119628E+03  0.25500000000E-02 0. -1.
     200001    2    1    2    0    0 -0.56102673063E+02 -0.25430595413E+01  0.11909061660E+04  0.13406178095E+04  0.61306169175E+03 0.  0.
    5000001    2    3    3    0    0 -0.17323697568E+03 -0.95728564785E+02  0.11237176402E+04  0.11479541616E+04  0.12602545112E+03 0.  0.
        -11    1    4    4    0    0 -0.74654731429E+02  0.20620578910E+02  0.31015518340E+03  0.31967917510E+03  0.51100000000E-03 0. -1.
     200002    1    4    4    0    0 -0.98582244252E+02 -0.11634914370E+03  0.81356245679E+03  0.82827498648E+03  0.30000000000E+02 0. -1.
     200000    1    3    3    0    0  0.11713430262E+03  0.93185505243E+02  0.67188525802E+02  0.19266364794E+03  0.10100000000E+03 0. -1.
    -200001    1    1    2    0    0  0.56102673063E+02  0.25430595413E+01  0.25718133328E+03  0.66713208232E+03  0.61300000000E+03 0. -1.
<mgrwt>
<rscale>  0 0.13907200E+04</rscale>
<asrwt>0</asrwt>
<pdfrwt beam="1">  1        2 0.24684553E+00 0.13907200E+04</pdfrwt>
<pdfrwt beam="2">  1       -2 0.39975885E-01 0.13907200E+04</pdfrwt>
<totfact> 0.64009084E+01</totfact>
</mgrwt>
</event>
<event>
 8    1  0.7326756E-052  0.1333138E+04  0.7818608E-02  0.9003692E-01
          2   -1    0    0  501    0  0.00000000000E+00  0.00000000000E+00  0.98405713071E+03  0.98405713072E+03  0.25500000000E-02 0. -1.
         -2   -1    0    0    0  501 -0.00000000000E+00 -0.00000000000E+00 -0.45151252235E+03  0.45151252236E+03  0.25500000000E-02 0.  1.
     200001    2    1    2    0    0 -0.34254110942E+02  0.19266305622E+03  0.45487497901E+03  0.78742308889E+03  0.61223482181E+03 0.  0.
    5000001    2    3    3    0    0 -0.10713942851E+03  0.38666075216E+03  0.32283951864E+03  0.52175085032E+03  0.83744854244E+02 0.  0.
        -11    1    4    4    0    0 -0.99350783611E+01  0.47703150532E+02  0.10740865720E+02  0.49896518409E+02  0.51100000000E-03 0. -1.
     200002    1    4    4    0    0 -0.97204350151E+02  0.33895760163E+03  0.31209865292E+03  0.47185433191E+03  0.30000000000E+02 0. -1.
     200000    1    3    3    0    0  0.72885317570E+02 -0.19399769594E+03  0.13203546038E+03  0.26567223857E+03  0.10100000000E+03 0.  1.
    -200001    1    1    2    0    0  0.34254110942E+02 -0.19266305622E+03  0.77669629347E+02  0.64814656419E+03  0.61300000000E+03 0.  1.
<mgrwt>
<rscale>  0 0.13331378E+04</rscale>
<asrwt>0</asrwt>
<pdfrwt beam="1">  1        2 0.14057959E+00 0.13331378E+04</pdfrwt>
<pdfrwt beam="2">  1       -2 0.64501789E-01 0.13331378E+04</pdfrwt>
<totfact> 0.62445762E+01</totfact>
</mgrwt>
</event>
<event>
 8    1  0.7326756E-052  0.1547065E+04  0.7818608E-02  0.8853744E-01
          2   -1    0    0  501    0  0.00000000000E+00  0.00000000000E+00  0.91071065973E+03  0.91071065973E+03  0.25500000000E-02 0.  1.
         -2   -1    0    0    0  501 -0.00000000000E+00 -0.00000000000E+00 -0.65701755418E+03  0.65701755418E+03  0.25500000000E-02 0. -1.
     200001    2    1    2    0    0  0.36555751668E+03  0.24348544793E+03  0.30201026858E+03  0.81206889279E+03  0.61264037001E+03 0.  0.
    5000001    2    3    3    0    0  0.27739490833E+03 -0.14303959545E+03  0.15001176897E+03  0.37563012440E+03  0.14555479549E+03 0.  0.
        -11    1    4    4    0    0  0.19000805163E+03 -0.21017056337E+02  0.88869380390E+02  0.21081400123E+03  0.51100000000E-03 0. -1.
     200002    1    4    4    0    0  0.87386856700E+02 -0.12202253912E+03  0.61142388580E+02  0.16481612317E+03  0.30000000000E+02 0. -1.
     200000    1    3    3    0    0  0.88162608344E+02  0.38652504338E+03  0.15199849961E+03  0.43643876839E+03  0.10100000000E+03 0. -1.
    -200001    1    1    2    0    0 -0.36555751668E+03 -0.24348544793E+03 -0.48317163035E+02  0.75565932112E+03  0.61300000000E+03 0. -1.
<mgrwt>
<rscale>  0 0.15470655E+04</rscale>
<asrwt>0</asrwt>
<pdfrwt beam="1">  1        2 0.13010152E+00 0.15470655E+04</pdfrwt>
<pdfrwt beam="2">  1       -2 0.93859651E-01 0.15470655E+04</pdfrwt>
<totfact> 0.29603921E+01</totfact>
</mgrwt>
</event>
<event>
 8    1  0.7326756E-052  0.1714131E+04  0.7818608E-02  0.8753346E-01
         -2   -1    0    0    0  501 -0.00000000000E+00  0.00000000000E+00  0.36140317301E+03  0.36140317302E+03  0.25500000000E-02 0. -1.
          2   -1    0    0  501    0  0.00000000000E+00 -0.00000000000E+00 -0.20325250997E+04  0.20325250997E+04  0.25500000000E-02 0.  1.
     200001    2    1    2    0    0 -0.19099440062E+03 -0.29141148935E+03 -0.15555237702E+03  0.72236625561E+03  0.61336526479E+03 0.  0.
    5000001    2    3    3    0    0  0.15724486170E+02 -0.38505604347E+03 -0.21104605682E+03  0.46784209335E+03  0.16068718099E+03 0.  0.
        -11    1    4    4    0    0  0.19087059691E+02 -0.18062568210E+03 -0.13776914684E+02  0.18215311213E+03  0.51100000000E-03 0. -1.
     200002    1    4    4    0    0 -0.33625735213E+01 -0.20443036137E+03 -0.19726914213E+03  0.28568898122E+03  0.30000000000E+02 0. -1.
     200000    1    3    3    0    0 -0.20671888679E+03  0.93644554129E+02  0.55493679793E+02  0.25452416226E+03  0.10100000000E+03 0. -1.
    -200001    1    1    2    0    0  0.19099440062E+03  0.29141148935E+03 -0.15155695497E+04  0.16715620171E+04  0.61300000000E+03 0.  1.
<mgrwt>
<rscale>  0 0.17141307E+04</rscale>
<asrwt>0</asrwt>
<pdfrwt beam="1">  1        2 0.29036072E+00 0.17141307E+04</pdfrwt>
<pdfrwt beam="2">  1       -2 0.51629026E-01 0.17141307E+04</pdfrwt>
<totfact> 0.26060936E+01</totfact>
</mgrwt>
</event>
<event>
 8    1  0.7326756E-052  0.1835598E+04  0.7818608E-02  0.8687595E-01
         -2   -1    0    0    0  501 -0.00000000000E+00  0.00000000000E+00  0.32786431556E+03  0.32786431557E+03  0.25500000000E-02 0. -1.
          2   -1    0    0  501    0  0.00000000000E+00 -0.00000000000E+00 -0.25692181497E+04  0.25692181497E+04  0.25500000000E-02 0.  1.
     200001    2    1    2    0    0  0.46242773566E+03 -0.32970379371E+03 -0.17198181645E+04  0.19120380718E+04  0.61283853256E+03 0.  0.
    5000001    2    3    3    0    0  0.13834228650E+03 -0.29760104037E+03 -0.60534579104E+03  0.74657179764E+03  0.28848042367E+03 0.  0.
        -11    1    4    4    0    0  0.20753853474E+03 -0.22773652367E+03 -0.54844482300E+03  0.62906906735E+03  0.51100000000E-03 0. -1.
     200002    1    4    4    0    0 -0.69196248235E+02 -0.69864516697E+02 -0.56900968041E+02  0.11750273030E+03  0.30000000000E+02 0. -1.
     200000    1    3    3    0    0  0.32408544916E+03 -0.32102753340E+02 -0.11144723734E+04  0.11654662742E+04  0.10100000000E+03 0.  1.
    -200001    1    1    2    0    0 -0.46242773566E+03  0.32970379371E+03 -0.52153566965E+03  0.98504439342E+03  0.61300000000E+03 0. -1.
<mgrwt>
<rscale>  0 0.18355979E+04</rscale>
<asrwt>0</asrwt>
<pdfrwt beam="1">  1        2 0.36703115E+00 0.18355979E+04</pdfrwt>
<pdfrwt beam="2">  1       -2 0.46837761E-01 0.18355979E+04</pdfrwt>
<totfact> 0.16535303E+01</totfact>
</mgrwt>
</event>
<event>
 8    1  0.7326756E-052  0.1415096E+04  0.7818608E-02  0.8942963E-01
          2   -1    0    0  501    0  0.00000000000E+00  0.00000000000E+00  0.93658903725E+03  0.93658903726E+03  0.25500000000E-02 0.  1.
         -2   -1    0    0    0  501 -0.00000000000E+00 -0.00000000000E+00 -0.53451835693E+03  0.53451835693E+03  0.25500000000E-02 0. -1.
     200001    2    1    2    0    0 -0.36772175106E+02  0.16279969099E+03 -0.12232158113E+03  0.64732819069E+03  0.61336390911E+03 0.  0.
    5000001    2    3    3    0    0 -0.87326307008E+02  0.24131838306E+03  0.17106645739E+03  0.32329355302E+03  0.96925449081E+02 0.  0.
        -11    1    4    4    0    0 -0.42742463192E+02  0.11715193951E+03  0.30889922427E+02  0.12847444259E+03  0.51100000000E-03 0. -1.
     200002    1    4    4    0    0 -0.44583843817E+02  0.12416644355E+03  0.14017653497E+03  0.19481911043E+03  0.30000000000E+02 0. -1.
     200000    1    3    3    0    0  0.50554131903E+02 -0.78518692077E+02 -0.29338803852E+03  0.32403463767E+03  0.10100000000E+03 0. -1.
    -200001    1    1    2    0    0  0.36772175106E+02 -0.16279969099E+03  0.52439226145E+03  0.82377920350E+03  0.61300000000E+03 0.  1.
<mgrwt>
<rscale>  0 0.14150958E+04</rscale>
<asrwt>0</asrwt>
<pdfrwt beam="1">  1        2 0.13379843E+00 0.14150958E+04</pdfrwt>
<pdfrwt beam="2">  1       -2 0.76359766E-01 0.14150958E+04</pdfrwt>
<totfact> 0.46011199E+01</totfact>
</mgrwt>
</event>
<event>
 8    1  0.7326756E-052  0.1801249E+04  0.7818608E-02  0.8705636E-01
          2   -1    0    0  501    0  0.00000000000E+00  0.00000000000E+00  0.69063564463E+03  0.69063564464E+03  0.25500000000E-02 0.  1.
         -2   -1    0    0    0  501 -0.00000000000E+00 -0.00000000000E+00 -0.11744605117E+04  0.11744605117E+04  0.25500000000E-02 0. -1.
     200001    2    1    2    0    0 -0.19145266054E+03  0.47218771451E+03 -0.67596329932E+03  0.10451561975E+04  0.61303322604E+03 0.  0.
    5000001    2    3    3    0    0 -0.26839057209E+03  0.53247933714E+03 -0.66663281064E+03  0.90429250451E+03  0.13333373850E+03 0.  0.
        -11    1    4    4    0    0 -0.45883368985E+02  0.56252102267E+02 -0.31022976280E+02  0.78943065664E+02  0.51100000000E-03 0. -1.
     200002    1    4    4    0    0 -0.22250720310E+03  0.47622723487E+03 -0.63560983436E+03  0.82534943884E+03  0.30000000000E+02 0. -1.
     200000    1    3    3    0    0  0.76937911542E+02 -0.60291622628E+02 -0.93304886796E+01  0.14086369302E+03  0.10100000000E+03 0.  1.
    -200001    1    1    2    0    0  0.19145266054E+03 -0.47218771451E+03  0.19213843223E+03  0.81993995884E+03  0.61300000000E+03 0.  1.
<mgrwt>
<rscale>  0 0.18012488E+04</rscale>
<asrwt>0</asrwt>
<pdfrwt beam="1">  1        2 0.98662235E-01 0.18012488E+04</pdfrwt>
<pdfrwt beam="2">  1       -2 0.16778007E+00 0.18012488E+04</pdfrwt>
<totfact> 0.95730031E+00</totfact>
</mgrwt>
</event>
<event>
 8    1  0.7326756E-052  0.1436511E+04  0.7818608E-02  0.8927806E-01
          2   -1    0    0  501    0  0.00000000000E+00  0.00000000000E+00  0.15594778710E+04  0.15594778710E+04  0.25500000000E-02 0.  1.
         -2   -1    0    0    0  501 -0.00000000000E+00 -0.00000000000E+00 -0.33081020953E+03  0.33081020954E+03  0.25500000000E-02 0. -1.
     200001    2    1    2    0    0 -0.26113338083E+03 -0.26390874593E+02  0.96495908818E+03  0.11732118416E+04  0.61350864912E+03 0.  0.
    5000001    2    3    3    0    0 -0.38068967195E+03  0.94401570729E+02  0.85730188854E+03  0.94809943805E+03  0.10044766528E+03 0.  0.
        -11    1    4    4    0    0 -0.30089015911E+03  0.10561329650E+03  0.67697806560E+03  0.74832369838E+03  0.51100000000E-03 0. -1.
     200002    1    4    4    0    0 -0.79799512834E+02 -0.11211725776E+02  0.18032382294E+03  0.19977573967E+03  0.30000000000E+02 0. -1.
     200000    1    3    3    0    0  0.11955629112E+03 -0.12079244532E+03  0.10765719965E+03  0.22511240354E+03  0.10100000000E+03 0. -1.
    -200001    1    1    2    0    0  0.26113338083E+03  0.26390874593E+02  0.26370857327E+03  0.71707623895E+03  0.61300000000E+03 0. -1.
<mgrwt>
<rscale>  0 0.14365113E+04</rscale>
<asrwt>0</asrwt>
<pdfrwt beam="1">  1        2 0.22278255E+00 0.14365113E+04</pdfrwt>
<pdfrwt beam="2">  1       -2 0.47258602E-01 0.14365113E+04</pdfrwt>
<totfact> 0.56046889E+01</totfact>
</mgrwt>
</event>
<event>
 8    1  0.7326756E-052  0.2435822E+04  0.7818608E-02  0.8426213E-01
          2   -1    0    0  501    0  0.00000000000E+00  0.00000000000E+00  0.10991933181E+04  0.10991933181E+04  0.25500000000E-02 0.  1.
         -2   -1    0    0    0  501 -0.00000000000E+00 -0.00000000000E+00 -0.13494511633E+04  0.13494511633E+04  0.25500000000E-02 0. -1.
     200001    2    1    2    0    0 -0.13592456847E+03 -0.36023155657E+03 -0.11101437269E+04  0.13246271362E+04  0.61153552066E+03 0.  0.
    5000001    2    3    3    0    0 -0.32196203387E+03 -0.16330838119E+03 -0.47759765614E+03  0.62913866965E+03  0.19335657702E+03 0.  0.
        -11    1    4    4    0    0 -0.83056225180E+02 -0.42113177314E+02 -0.15844721677E+02  0.94461163713E+02  0.51100000000E-03 0. -1.
     200002    1    4    4    0    0 -0.23890580869E+03 -0.12119520387E+03 -0.46175293446E+03  0.53467750594E+03  0.30000000000E+02 0. -1.
     200000    1    3    3    0    0  0.18603746540E+03 -0.19692317538E+03 -0.63254607072E+03  0.69548846656E+03  0.10100000000E+03 0.  1.
    -200001    1    1    2    0    0  0.13592456847E+03  0.36023155657E+03  0.85988588168E+03  0.11240173451E+04  0.61300000000E+03 0.  1.
<mgrwt>
<rscale>  0 0.24358224E+04</rscale>
<asrwt>0</asrwt>
<pdfrwt beam="1">  1        2 0.15702762E+00 0.24358224E+04</pdfrwt>
<pdfrwt beam="2">  1       -2 0.19277874E+00 0.24358224E+04</pdfrwt>
<totfact> 0.32735119E+00</totfact>
</mgrwt>
</event>
<event>
 8    1  0.7326756E-052  0.1680338E+04  0.7818608E-02  0.8772658E-01
         -2   -1    0    0    0  501 -0.00000000000E+00  0.00000000000E+00  0.41443401280E+03  0.41443401280E+03  0.25500000000E-02 0. -1.
          2   -1    0    0  501    0  0.00000000000E+00 -0.00000000000E+00 -0.17032487170E+04  0.17032487170E+04  0.25500000000E-02 0.  1.
     200001    2    1    2    0    0  0.35893636688E+03  0.37011735950E+03 -0.32769926001E+03  0.86654961444E+03  0.61457241559E+03 0.  0.
    5000001    2    3    3    0    0  0.80306119168E+02 -0.10075905456E+03 -0.20557114571E+03  0.29692193906E+03  0.17117734106E+03 0.  0.
        -11    1    4    4    0    0 -0.40388728539E+02 -0.77214014074E+02 -0.94212991448E+02  0.12833293077E+03  0.51100000000E-03 0. -1.
     200002    1    4    4    0    0  0.12069484771E+03 -0.23545040490E+02 -0.11135815426E+03  0.16858900829E+03  0.30000000000E+02 0. -1.
     200000    1    3    3    0    0  0.27863024771E+03  0.47087641406E+03 -0.12212811430E+03  0.56962767538E+03  0.10100000000E+03 0.  1.
    -200001    1    1    2    0    0 -0.35893636688E+03 -0.37011735950E+03 -0.96111544415E+03  0.12511331153E+04  0.61300000000E+03 0.  1.
<mgrwt>
<rscale>  0 0.16803383E+04</rscale>
<asrwt>0</asrwt>
<pdfrwt beam="1">  1        2 0.24332124E+00 0.16803383E+04</pdfrwt>
<pdfrwt beam="2">  1       -2 0.59204860E-01 0.16803383E+04</pdfrwt>
<totfact> 0.29074050E+01</totfact>
</mgrwt>
</event>
<event>
 8    1  0.7326756E-052  0.1625819E+04  0.7818608E-02  0.8804841E-01
          2   -1    0    0  501    0  0.00000000000E+00  0.00000000000E+00  0.14827066549E+04  0.14827066549E+04  0.25500000000E-02 0.  1.
         -2   -1    0    0    0  501 -0.00000000000E+00 -0.00000000000E+00 -0.44568633786E+03  0.44568633787E+03  0.25500000000E-02 0. -1.
     200001    2    1    2    0    0 -0.20639731607E+03  0.11851971187E+03  0.10853032420E+04  0.12690395102E+04  0.61313243040E+03 0.  0.
    5000001    2    3    3    0    0  0.69732024362E+02  0.58597547766E+02  0.14850415839E+03  0.28535683707E+03  0.22600622022E+03 0.  0.
        -11    1    4    4    0    0  0.12581887240E+03 -0.34496577837E+02  0.70908955068E+02  0.14848731408E+03  0.51100000000E-03 0. -1.
     200002    1    4    4    0    0 -0.56086848038E+02  0.93094125603E+02  0.77595203320E+02  0.13686952299E+03  0.30000000000E+02 0. -1.
     200000    1    3    3    0    0 -0.27612934043E+03  0.59922164107E+02  0.93679908357E+03  0.98368267311E+03  0.10100000000E+03 0.  1.
    -200001    1    1    2    0    0  0.20639731607E+03 -0.11851971187E+03 -0.48282924903E+02  0.65935348260E+03  0.61300000000E+03 0. -1.
<mgrwt>
<rscale>  0 0.16258193E+04</rscale>
<asrwt>0</asrwt>
<pdfrwt beam="1">  1        2 0.21181524E+00 0.16258193E+04</pdfrwt>
<pdfrwt beam="2">  1       -2 0.63669476E-01 0.16258193E+04</pdfrwt>
<totfact> 0.32686216E+01</totfact>
</mgrwt>
</event>
<event>
 8    1  0.7326756E-052  0.1652263E+04  0.7818608E-02  0.8789069E-01
         -2   -1    0    0    0  501 -0.00000000000E+00  0.00000000000E+00  0.49900425725E+03  0.49900425725E+03  0.25500000000E-02 0. -1.
          2   -1    0    0  501    0  0.00000000000E+00 -0.00000000000E+00 -0.13677108643E+04  0.13677108643E+04  0.25500000000E-02 0.  1.
     200001    2    1    2    0    0  0.68733768605E+02  0.30542888487E+03 -0.95343694552E+03  0.11732027822E+04  0.60774305785E+03 0.  0.
    5000001    2    3    3    0    0  0.82660321416E+02  0.23356025780E+03 -0.10056147368E+04  0.10379897268E+04  0.69127066202E+02 0.  0.
        -11    1    4    4    0    0  0.11200199187E+02  0.82586206803E+02 -0.42441840246E+03  0.43252387953E+03  0.51100000000E-03 0. -1.
     200002    1    4    4    0    0  0.71460122229E+02  0.15097405100E+03 -0.58119633438E+03  0.60546584729E+03  0.30000000000E+02 0. -1.
     200000    1    3    3    0    0 -0.13926552811E+02  0.71868627069E+02  0.52177791321E+02  0.13521305535E+03  0.10100000000E+03 0. -1.
    -200001    1    1    2    0    0 -0.68733768605E+02 -0.30542888487E+03  0.84730338436E+02  0.69351233941E+03  0.61300000000E+03 0. -1.
<mgrwt>
<rscale>  0 0.16522633E+04</rscale>
<asrwt>0</asrwt>
<pdfrwt beam="1">  1        2 0.19538727E+00 0.16522633E+04</pdfrwt>
<pdfrwt beam="2">  1       -2 0.71286323E-01 0.16522633E+04</pdfrwt>
<totfact> 0.29463308E+01</totfact>
</mgrwt>
</event>
<event>
 8    1  0.7326756E-052  0.1362896E+04  0.7818608E-02  0.8981123E-01
          2   -1    0    0  501    0  0.00000000000E+00  0.00000000000E+00  0.16516177994E+04  0.16516177994E+04  0.25500000000E-02 0.  1.
         -2   -1    0    0    0  501 -0.00000000000E+00 -0.00000000000E+00 -0.28116152574E+03  0.28116152575E+03  0.25500000000E-02 0. -1.
     200001    2    1    2    0    0 -0.16395375340E+02  0.28467498659E+03  0.57337269354E+03  0.88759039964E+03  0.61461517676E+03 0.  0.
    5000001    2    3    3    0    0 -0.23702922951E+03  0.23466870940E+02  0.44063661845E+03  0.50715795765E+03  0.79467067460E+02 0.  0.
        -11    1    4    4    0    0 -0.10402790966E+03  0.14012234142E+02  0.26193576789E+03  0.28218521434E+03  0.51100000000E-03 0. -1.
     200002    1    4    4    0    0 -0.13300131985E+03  0.94546367982E+01  0.17870085057E+03  0.22497274331E+03  0.30000000000E+02 0. -1.
     200000    1    3    3    0    0  0.22063385417E+03  0.26120811565E+03  0.13273607509E+03  0.38043244199E+03  0.10100000000E+03 0. -1.
    -200001    1    1    2    0    0  0.16395375340E+02 -0.28467498659E+03  0.79708358006E+03  0.10451889255E+04  0.61300000000E+03 0.  1.
<mgrwt>
<rscale>  0 0.13628960E+04</rscale>
<asrwt>0</asrwt>
<pdfrwt beam="1">  1        2 0.23594540E+00 0.13628960E+04</pdfrwt>
<pdfrwt beam="2">  1       -2 0.40165933E-01 0.13628960E+04</pdfrwt>
<totfact> 0.69627871E+01</totfact>
</mgrwt>
</event>
<event>
 8    1  0.7326756E-052  0.1362607E+04  0.7818608E-02  0.8981339E-01
          2   -1    0    0  501    0  0.00000000000E+00  0.00000000000E+00  0.15163512937E+04  0.15163512937E+04  0.25500000000E-02 0.  1.
         -2   -1    0    0    0  501 -0.00000000000E+00 -0.00000000000E+00 -0.30611264353E+03  0.30611264354E+03  0.25500000000E-02 0. -1.
     200001    2    1    2    0    0 -0.28363056671E+03 -0.73831503928E+02  0.51729733431E+03  0.85198258421E+03  0.61022979472E+03 0.  0.
    5000001    2    3    3    0    0 -0.75687010544E+02 -0.16805012227E+03  0.56166211059E+03  0.59843396172E+03  0.93217556850E+02 0.  0.
        -11    1    4    4    0    0 -0.75738080268E+02 -0.11340481035E+03  0.30148571047E+03  0.33089355000E+03  0.51100000000E-03 0. -1.
     200002    1    4    4    0    0  0.51069724292E-01 -0.54645311915E+02  0.26017640012E+03  0.26754041172E+03  0.30000000000E+02 0. -1.
     200000    1    3    3    0    0 -0.20794355617E+03  0.94218618338E+02 -0.44364776281E+02  0.25354862249E+03  0.10100000000E+03 0. -1.
    -200001    1    1    2    0    0  0.28363056671E+03  0.73831503928E+02  0.69294131586E+03  0.97048135303E+03  0.61300000000E+03 0. -1.
<mgrwt>
<rscale>  0 0.13626068E+04</rscale>
<asrwt>0</asrwt>
<pdfrwt beam="1">  1        2 0.21662161E+00 0.13626068E+04</pdfrwt>
<pdfrwt beam="2">  1       -2 0.43730378E-01 0.13626068E+04</pdfrwt>
<totfact> 0.69365033E+01</totfact>
</mgrwt>
</event>
<event>
 8    1  0.7326756E-052  0.1615802E+04  0.7818608E-02  0.8810899E-01
          2   -1    0    0  501    0  0.00000000000E+00  0.00000000000E+00  0.27547076274E+04  0.27547076274E+04  0.25500000000E-02 0.  1.
         -2   -1    0    0    0  501 -0.00000000000E+00 -0.00000000000E+00 -0.23694130273E+03  0.23694130274E+03  0.25500000000E-02 0. -1.
     200001    2    1    2    0    0 -0.45623291699E+03 -0.23420997704E+03  0.10425836840E+04  0.13138719452E+04  0.61341336985E+03 0.  0.
    5000001    2    3    3    0    0 -0.53676980329E+03 -0.26534626763E+03  0.10104170673E+04  0.11771556335E+04  0.78881380844E+02 0.  0.
        -11    1    4    4    0    0 -0.26225702383E+03 -0.16626698304E+03  0.51254701388E+03  0.59927280736E+03  0.51100000000E-03 0. -1.
     200002    1    4    4    0    0 -0.27451277946E+03 -0.99079284590E+02  0.49787005340E+03  0.57788282618E+03  0.30000000000E+02 0. -1.
     200000    1    3    3    0    0  0.80536886298E+02  0.31136290584E+02  0.32166616755E+02  0.13671631168E+03  0.10100000000E+03 0. -1.
    -200001    1    1    2    0    0  0.45623291699E+03  0.23420997704E+03  0.14751826406E+04  0.16777769849E+04  0.61300000000E+03 0. -1.
<mgrwt>
<rscale>  0 0.16158020E+04</rscale>
<asrwt>0</asrwt>
<pdfrwt beam="1">  1        2 0.39352966E+00 0.16158020E+04</pdfrwt>
<pdfrwt beam="2">  1       -2 0.33848758E-01 0.16158020E+04</pdfrwt>
<totfact> 0.25294278E+01</totfact>
</mgrwt>
</event>
<event>
 8    1  0.7326756E-052  0.1561716E+04  0.7818608E-02  0.8844419E-01
         -2   -1    0    0    0  501 -0.00000000000E+00  0.00000000000E+00  0.57107461412E+03  0.57107461413E+03  0.25500000000E-02 0. -1.
          2   -1    0    0  501    0  0.00000000000E+00 -0.00000000000E+00 -0.10677053528E+04  0.10677053528E+04  0.25500000000E-02 0.  1.
     200001    2    1    2    0    0 -0.33323833954E+03  0.12760975467E+03  0.91550457878E+02  0.71733644700E+03  0.61551446078E+03 0.  0.
    5000001    2    3    3    0    0 -0.23621191110E+03 -0.98741450216E+02 -0.64592799928E+02  0.40874170834E+03  0.31201220072E+03 0.  0.
        -11    1    4    4    0    0  0.64637120243E+02 -0.59098831588E+02  0.24716781179E+02  0.91003013579E+02  0.51100000000E-03 0. -1.
     200002    1    4    4    0    0 -0.30084903134E+03 -0.39642618628E+02 -0.89309581107E+02  0.31773869476E+03  0.30000000000E+02 0. -1.
     200000    1    3    3    0    0 -0.97026428446E+02  0.22635120488E+03  0.15614325781E+03  0.30859473866E+03  0.10100000000E+03 0. -1.
    -200001    1    1    2    0    0  0.33323833954E+03 -0.12760975467E+03 -0.58818119653E+03  0.92144351991E+03  0.61300000000E+03 0.  1.
<mgrwt>
<rscale>  0 0.15617163E+04</rscale>
<asrwt>0</asrwt>
<pdfrwt beam="1">  1        2 0.15252933E+00 0.15617163E+04</pdfrwt>
<pdfrwt beam="2">  1       -2 0.81582089E-01 0.15617163E+04</pdfrwt>
<totfact> 0.32558776E+01</totfact>
</mgrwt>
</event>
<event>
 8    1  0.7326756E-052  0.1350856E+04  0.7818608E-02  0.8990180E-01
         -2   -1    0    0    0  501 -0.00000000000E+00  0.00000000000E+00  0.43657967871E+03  0.43657967872E+03  0.25500000000E-02 0. -1.
          2   -1    0    0  501    0  0.00000000000E+00 -0.00000000000E+00 -0.10449481290E+04  0.10449481290E+04  0.25500000000E-02 0.  1.
     200001    2    1    2    0    0 -0.77924197793E+02  0.96069851179E+02 -0.58412898208E+03  0.85570183449E+03  0.61295788185E+03 0.  0.
    5000001    2    3    3    0    0 -0.22895351979E+03  0.26152767511E+03 -0.45339155000E+03  0.57735057483E+03  0.83386747008E+02 0.  0.
        -11    1    4    4    0    0 -0.62601659377E+02  0.95606345291E+02 -0.99598032414E+02  0.15158927758E+03  0.51100000000E-03 0. -1.
     200002    1    4    4    0    0 -0.16635186042E+03  0.16592132982E+03 -0.35379351758E+03  0.42576129725E+03  0.30000000000E+02 0. -1.
     200000    1    3    3    0    0  0.15102932200E+03 -0.16545782393E+03 -0.13073743209E+03  0.27835125965E+03  0.10100000000E+03 0. -1.
    -200001    1    1    2    0    0  0.77924197793E+02 -0.96069851179E+02 -0.24239468167E+02  0.62582597319E+03  0.61300000000E+03 0. -1.
<mgrwt>
<rscale>  0 0.13508562E+04</rscale>
<asrwt>0</asrwt>
<pdfrwt beam="1">  1        2 0.14927830E+00 0.13508562E+04</pdfrwt>
<pdfrwt beam="2">  1       -2 0.62368526E-01 0.13508562E+04</pdfrwt>
<totfact> 0.61484619E+01</totfact>
</mgrwt>
</event>
<event>
 8    1  0.7326756E-052  0.1252776E+04  0.7818608E-02  0.9067876E-01
         -2   -1    0    0    0  501 -0.00000000000E+00  0.00000000000E+00  0.10588914622E+03  0.10588914625E+03  0.25500000000E-02 0. -1.
          2   -1    0    0  501    0  0.00000000000E+00 -0.00000000000E+00 -0.37054015770E+04  0.37054015770E+04  0.25500000000E-02 0.  1.
     200001    2    1    2    0    0 -0.78212085596E+01 -0.66540635075E+02 -0.14634991665E+04  0.15880474859E+04  0.61284270380E+03 0.  0.
    5000001    2    3    3    0    0 -0.18988613951E+03 -0.22733175993E+03 -0.48442137622E+03  0.57424486981E+03  0.85770774220E+02 0.  0.
        -11    1    4    4    0    0 -0.48900461546E+02 -0.76319473784E+02 -0.21562759047E+03  0.23390420045E+03  0.51100000000E-03 0. -1.
     200002    1    4    4    0    0 -0.14098567797E+03 -0.15101228614E+03 -0.26879378575E+03  0.34034066936E+03  0.30000000000E+02 0. -1.
     200000    1    3    3    0    0  0.18206493095E+03  0.16079112485E+03 -0.97907779027E+03  0.10138026161E+04  0.10100000000E+03 0.  1.
    -200001    1    1    2    0    0  0.78212085596E+01  0.66540635075E+02 -0.21360132643E+04  0.22232432374E+04  0.61300000000E+03 0.  1.
<mgrwt>
<rscale>  0 0.12527758E+04</rscale>
<asrwt>0</asrwt>
<pdfrwt beam="1">  1        2 0.52934300E+00 0.12527758E+04</pdfrwt>
<pdfrwt beam="2">  1       -2 0.15127023E-01 0.12527758E+04</pdfrwt>
<totfact> 0.31140079E+01</totfact>
</mgrwt>
</event>
<event>
 8    1  0.7326756E-052  0.1455404E+04  0.7818608E-02  0.8914663E-01
         -2   -1    0    0    0  501 -0.00000000000E+00  0.00000000000E+00  0.28418214592E+03  0.28418214593E+03  0.25500000000E-02 0. -1.
          2   -1    0    0  501    0  0.00000000000E+00 -0.00000000000E+00 -0.18634185752E+04  0.18634185752E+04  0.25500000000E-02 0.  1.
     200001    2    1    2    0    0  0.12751609010E+03 -0.25169790930E+02 -0.13358087494E+04  0.14753508368E+04  0.61268360931E+03 0.  0.
    5000001    2    3    3    0    0 -0.36853995527E+01 -0.25239111122E+03 -0.28690865437E+03  0.38942461066E+03  0.74967301182E+02 0.  0.
        -11    1    4    4    0    0 -0.21592752530E+02 -0.14103212512E+03 -0.12404281339E+03  0.18905799859E+03  0.51100000000E-03 0. -1.
     200002    1    4    4    0    0  0.17907352977E+02 -0.11135898611E+03 -0.16286584098E+03  0.20036661207E+03  0.30000000000E+02 0. -1.
     200000    1    3    3    0    0  0.13120148966E+03  0.22722132029E+03 -0.10489000950E+04  0.10859262262E+04  0.10100000000E+03 0.  1.
    -200001    1    1    2    0    0 -0.12751609010E+03  0.25169790930E+02 -0.24342767985E+03  0.67224988429E+03  0.61300000000E+03 0. -1.
<mgrwt>
<rscale>  0 0.14554041E+04</rscale>
<asrwt>0</asrwt>
<pdfrwt beam="1">  1        2 0.26620265E+00 0.14554041E+04</pdfrwt>
<pdfrwt beam="2">  1       -2 0.40597450E-01 0.14554041E+04</pdfrwt>
<totfact> 0.52605099E+01</totfact>
</mgrwt>
</event>
<event>
 8    1  0.7326756E-052  0.1619789E+04  0.7818608E-02  0.8808482E-01
          2   -1    0    0  501    0  0.00000000000E+00  0.00000000000E+00  0.37930506244E+04  0.37930506244E+04  0.25500000000E-02 0.  1.
         -2   -1    0    0    0  501 -0.00000000000E+00 -0.00000000000E+00 -0.17292920442E+03  0.17292920444E+03  0.25500000000E-02 0. -1.
     200001    2    1    2    0    0  0.10641595472E+03 -0.50382646146E+03  0.21101725906E+04  0.22569216303E+04  0.61294487882E+03 0.  0.
    5000001    2    3    3    0    0 -0.14137817495E+03 -0.41308120095E+02  0.11015898475E+04  0.11155341867E+04  0.96032183933E+02 0.  0.
        -11    1    4    4    0    0 -0.82266730685E+02 -0.64779079207E+02  0.71013421022E+03  0.71781246896E+03  0.51100000000E-03 0. -1.
     200002    1    4    4    0    0 -0.59111444268E+02  0.23470959112E+02  0.39145563731E+03  0.39772171772E+03  0.30000000000E+02 0. -1.
     200000    1    3    3    0    0  0.24779412967E+03 -0.46251834136E+03  0.10085827431E+04  0.11413874436E+04  0.10100000000E+03 0. -1.
    -200001    1    1    2    0    0 -0.10641595472E+03  0.50382646146E+03  0.15099488294E+04  0.17090581985E+04  0.61300000000E+03 0.  1.
<mgrwt>
<rscale>  0 0.16197892E+04</rscale>
<asrwt>0</asrwt>
<pdfrwt beam="1">  1        2 0.54186435E+00 0.16197892E+04</pdfrwt>
<pdfrwt beam="2">  1       -2 0.24704173E-01 0.16197892E+04</pdfrwt>
<totfact> 0.11157197E+01</totfact>
</mgrwt>
</event>
<event>
 8    1  0.7326756E-052  0.1733823E+04  0.7818608E-02  0.8742306E-01
          2   -1    0    0  501    0  0.00000000000E+00  0.00000000000E+00  0.12321718942E+04  0.12321718942E+04  0.25500000000E-02 0.  1.
         -2   -1    0    0    0  501 -0.00000000000E+00 -0.00000000000E+00 -0.60992752576E+03  0.60992752577E+03  0.25500000000E-02 0. -1.
     200001    2    1    2    0    0  0.51475454553E+03 -0.32940960712E+03  0.26409992501E+03  0.90533937934E+03  0.61352073314E+03 0.  0.
    5000001    2    3    3    0    0  0.62157563589E+02 -0.53457712613E+02  0.32837695265E+03  0.36190031889E+03  0.12813714542E+03 0.  0.
        -11    1    4    4    0    0  0.31958102955E+02  0.31733760450E+02  0.48137146824E+02  0.65920685687E+02  0.51100000000E-03 0. -1.
     200002    1    4    4    0    0  0.30199460634E+02 -0.85191473064E+02  0.28023980582E+03  0.29597963320E+03  0.30000000000E+02 0. -1.
     200000    1    3    3    0    0  0.45259698194E+03 -0.27595189451E+03 -0.64277027632E+02  0.54343906045E+03  0.10100000000E+03 0. -1.
    -200001    1    1    2    0    0 -0.51475454553E+03  0.32940960712E+03  0.35814444346E+03  0.93676004067E+03  0.61300000000E+03 0. -1.
<mgrwt>
<rscale>  0 0.17338230E+04</rscale>
<asrwt>0</asrwt>
<pdfrwt beam="1">  1        2 0.17602456E+00 0.17338230E+04</pdfrwt>
<pdfrwt beam="2">  1       -2 0.87132503E-01 0.17338230E+04</pdfrwt>
<totfact> 0.22205630E+01</totfact>
</mgrwt>
</event>
<event>
 8    1  0.7326756E-052  0.1338414E+04  0.7818608E-02  0.8999645E-01
          2   -1    0    0  501    0  0.00000000000E+00  0.00000000000E+00  0.62609545850E+03  0.62609545850E+03  0.25500000000E-02 0.  1.
         -2   -1    0    0    0  501 -0.00000000000E+00 -0.00000000000E+00 -0.71528731568E+03  0.71528731569E+03  0.25500000000E-02 0. -1.
     200001    2    1    2    0    0  0.10793139863E+03  0.21640420377E+03  0.72032312235E+02  0.66297124788E+03  0.61307605996E+03 0.  0.
    5000001    2    3    3    0    0  0.29470355804E+03 -0.55348052422E+02 -0.16282779876E+01  0.31032410012E+03  0.79904954758E+02 0.  0.
        -11    1    4    4    0    0  0.86347708866E+02 -0.37343476410E+02 -0.26121325477E+02  0.97635985690E+02  0.51100000000E-03 0. -1.
     200002    1    4    4    0    0  0.20835584918E+03 -0.18004576012E+02  0.24493047489E+02  0.21268811443E+03  0.30000000000E+02 0. -1.
     200000    1    3    3    0    0 -0.18677215941E+03  0.27175225619E+03  0.73660590222E+02  0.35264714777E+03  0.10100000000E+03 0. -1.
    -200001    1    1    2    0    0 -0.10793139863E+03 -0.21640420377E+03 -0.16122416942E+03  0.67841152631E+03  0.61300000000E+03 0.  1.
<mgrwt>
<rscale>  0 0.13384142E+04</rscale>
<asrwt>0</asrwt>
<pdfrwt beam="1">  1        2 0.89442208E-01 0.13384142E+04</pdfrwt>
<pdfrwt beam="2">  1       -2 0.10218390E+00 0.13384142E+04</pdfrwt>
<totfact> 0.39616231E+01</totfact>
</mgrwt>
</event>
<event>
 8    1  0.7326756E-052  0.1780193E+04  0.7818608E-02  0.8716904E-01
         -2   -1    0    0    0  501 -0.00000000000E+00  0.00000000000E+00  0.46939857290E+03  0.46939857290E+03  0.25500000000E-02 0. -1.
          2   -1    0    0  501    0  0.00000000000E+00 -0.00000000000E+00 -0.16878440516E+04  0.16878440516E+04  0.25500000000E-02 0.  1.
     200001    2    1    2    0    0 -0.28041568365E+03 -0.42687014854E+03 -0.13009286601E+03  0.80774957564E+03  0.61211448586E+03 0.  0.
    5000001    2    3    3    0    0 -0.40749542443E+03 -0.46884947933E+03 -0.74609153707E+02  0.63113992964E+03  0.83058592365E+02 0.  0.
        -11    1    4    4    0    0 -0.17537659770E+03 -0.23673063343E+03 -0.63147823269E+02  0.30130713800E+03  0.51100000000E-03 0. -1.
     200002    1    4    4    0    0 -0.23211882673E+03 -0.23211884590E+03 -0.11461330438E+02  0.32983279164E+03  0.30000000000E+02 0. -1.
     200000    1    3    3    0    0  0.12707974078E+03  0.41979330790E+02 -0.55483712307E+02  0.17660964600E+03  0.10100000000E+03 0.  1.
    -200001    1    1    2    0    0  0.28041568365E+03  0.42687014854E+03 -0.10883526127E+04  0.13494930488E+04  0.61300000000E+03 0.  1.
<mgrwt>
<rscale>  0 0.17801928E+04</rscale>
<asrwt>0</asrwt>
<pdfrwt beam="1">  1        2 0.24112058E+00 0.17801928E+04</pdfrwt>
<pdfrwt beam="2">  1       -2 0.67056940E-01 0.17801928E+04</pdfrwt>
<totfact> 0.22526318E+01</totfact>
</mgrwt>
</event>
<event>
 8    1  0.7326756E-052  0.2355864E+04  0.7818608E-02  0.8456215E-01
          2   -1    0    0  501    0  0.00000000000E+00  0.00000000000E+00  0.11145732475E+04  0.11145732475E+04  0.25500000000E-02 0.  1.
         -2   -1    0    0    0  501 -0.00000000000E+00 -0.00000000000E+00 -0.12448926025E+04  0.12448926025E+04  0.25500000000E-02 0. -1.
     200001    2    1    2    0    0 -0.23160211820E+03  0.60666386079E+03  0.70411456640E+03  0.11372835598E+04  0.61315250280E+03 0.  0.
    5000001    2    3    3    0    0 -0.32112754860E+03  0.23432348175E+03  0.56799393235E+03  0.71849723296E+03  0.18865516167E+03 0.  0.
        -11    1    4    4    0    0 -0.30820259366E+03  0.14081826625E+03  0.40843042139E+03  0.53069203119E+03  0.51100000000E-03 0. -1.
     200002    1    4    4    0    0 -0.12924954939E+02  0.93505215493E+02  0.15956351096E+03  0.18780520178E+03  0.30000000000E+02 0. -1.
     200000    1    3    3    0    0  0.89525430394E+02  0.37234037904E+03  0.13612063405E+03  0.41878632686E+03  0.10100000000E+03 0. -1.
    -200001    1    1    2    0    0  0.23160211820E+03 -0.60666386079E+03 -0.83443392137E+03  0.12221822901E+04  0.61300000000E+03 0. -1.
<mgrwt>
<rscale>  0 0.23558642E+04</rscale>
<asrwt>0</asrwt>
<pdfrwt beam="1">  1        2 0.15922475E+00 0.23558642E+04</pdfrwt>
<pdfrwt beam="2">  1       -2 0.17784180E+00 0.23558642E+04</pdfrwt>
<totfact> 0.40777622E+00</totfact>
</mgrwt>
</event>
<event>
 8    1  0.7326756E-052  0.1421277E+04  0.7818608E-02  0.8938560E-01
         -2   -1    0    0    0  501 -0.00000000000E+00  0.00000000000E+00  0.60139560677E+03  0.60139560677E+03  0.25500000000E-02 0. -1.
          2   -1    0    0  501    0  0.00000000000E+00 -0.00000000000E+00 -0.83972471209E+03  0.83972471209E+03  0.25500000000E-02 0.  1.
     200001    2    1    2    0    0 -0.25394510141E+03  0.17718897033E+03  0.65981059654E+02  0.68994941804E+03  0.61301929292E+03 0.  0.
    5000001    2    3    3    0    0 -0.29160333368E+03 -0.11251330971E+03  0.15442377806E+03  0.36843943693E+03  0.11920220797E+03 0.  0.
        -11    1    4    4    0    0 -0.10797745946E+03 -0.61606732112E+02  0.49653547514E+01  0.12441533644E+03  0.51100000000E-03 0. -1.
     200002    1    4    4    0    0 -0.18362587422E+03 -0.50906577594E+02  0.14945842331E+03  0.24402410050E+03  0.30000000000E+02 0. -1.
     200000    1    3    3    0    0  0.37658232265E+02  0.28970228003E+03 -0.88442718408E+02  0.32150998111E+03  0.10100000000E+03 0.  1.
    -200001    1    1    2    0    0  0.25394510141E+03 -0.17718897033E+03 -0.30431016497E+03  0.75117090082E+03  0.61300000000E+03 0.  1.
<mgrwt>
<rscale>  0 0.14212765E+04</rscale>
<asrwt>0</asrwt>
<pdfrwt beam="1">  1        2 0.11996067E+00 0.14212765E+04</pdfrwt>
<pdfrwt beam="2">  1       -2 0.85913658E-01 0.14212765E+04</pdfrwt>
<totfact> 0.40849147E+01</totfact>
</mgrwt>
</event>
<event>
 8    1  0.7326756E-052  0.1616326E+04  0.7818608E-02  0.8810581E-01
          2   -1    0    0  501    0  0.00000000000E+00  0.00000000000E+00  0.11383142149E+04  0.11383142149E+04  0.25500000000E-02 0.  1.
         -2   -1    0    0    0  501 -0.00000000000E+00 -0.00000000000E+00 -0.57376701099E+03  0.57376701099E+03  0.25500000000E-02 0. -1.
     200001    2    1    2    0    0  0.17707800930E+03 -0.29561351764E+03  0.70547431662E+03  0.99488291007E+03  0.61102702081E+03 0.  0.
    5000001    2    3    3    0    0 -0.22052840048E+02 -0.24501714187E+03  0.84804820183E+01  0.26125187619E+03  0.87526548400E+02 0.  0.
        -11    1    4    4    0    0 -0.24679144284E+02 -0.21981115282E+03  0.57632755399E+00  0.22119298185E+03  0.51100000000E-03 0. -1.
     200002    1    4    4    0    0  0.26263042354E+01 -0.25205989044E+02  0.79041544643E+01  0.40058894336E+02  0.30000000000E+02 0.  1.
     200000    1    3    3    0    0  0.19913084935E+03 -0.50596375769E+02  0.69699383460E+03  0.73363103388E+03  0.10100000000E+03 0.  1.
    -200001    1    1    2    0    0 -0.17707800930E+03  0.29561351764E+03 -0.14092711267E+03  0.71719831586E+03  0.61300000000E+03 0. -1.
<mgrwt>
<rscale>  0 0.16163256E+04</rscale>
<asrwt>0</asrwt>
<pdfrwt beam="1">  1        2 0.16261632E+00 0.16163256E+04</pdfrwt>
<pdfrwt beam="2">  1       -2 0.81966716E-01 0.16163256E+04</pdfrwt>
<totfact> 0.29143980E+01</totfact>
</mgrwt>
</event>
<event>
 8    1  0.7326756E-052  0.1319304E+04  0.7818608E-02  0.9014395E-01
          2   -1    0    0  501    0  0.00000000000E+00  0.00000000000E+00  0.21926906168E+04  0.21926906168E+04  0.25500000000E-02 0. -1.
         -2   -1    0    0    0  501 -0.00000000000E+00 -0.00000000000E+00 -0.19845069930E+03  0.19845069932E+03  0.25500000000E-02 0.  1.
     200001    2    1    2    0    0  0.10492798513E+03 -0.21873598753E+03  0.99834791236E+03  0.11968108760E+04  0.61384232868E+03 0.  0.
    5000001    2    3    3    0    0 -0.36978724679E+02 -0.39493777939E+03  0.65562665225E+03  0.77391201352E+03  0.10839844038E+03 0.  0.
        -11    1    4    4    0    0 -0.61289976622E+02 -0.19070423732E+03  0.27483673390E+03  0.34008792637E+03  0.51100000000E-03 0. -1.
     200002    1    4    4    0    0  0.24311251943E+02 -0.20423354207E+03  0.38078991835E+03  0.43382408715E+03  0.30000000000E+02 0. -1.
     200000    1    3    3    0    0  0.14190670981E+03  0.17620179185E+03  0.34272126011E+03  0.42289886247E+03  0.10100000000E+03 0.  1.
    -200001    1    1    2    0    0 -0.10492798513E+03  0.21873598753E+03  0.99589200515E+03  0.11943304401E+04  0.61300000000E+03 0.  1.
<mgrwt>
<rscale>  0 0.13193043E+04</rscale>
<asrwt>0</asrwt>
<pdfrwt beam="1">  1        2 0.31324149E+00 0.13193043E+04</pdfrwt>
<pdfrwt beam="2">  1       -2 0.28350103E-01 0.13193043E+04</pdfrwt>
<totfact> 0.71256059E+01</totfact>
</mgrwt>
</event>
<event>
 8    1  0.7326756E-052  0.1448967E+04  0.7818608E-02  0.8919117E-01
          2   -1    0    0  501    0  0.00000000000E+00  0.00000000000E+00  0.15271159569E+04  0.15271159569E+04  0.25500000000E-02 0.  1.
         -2   -1    0    0    0  501 -0.00000000000E+00 -0.00000000000E+00 -0.34370440824E+03  0.34370440825E+03  0.25500000000E-02 0. -1.
     200001    2    1    2    0    0 -0.14031882013E+03 -0.17892530066E+03  0.99458023297E+03  0.11902838854E+04  0.61309236951E+03 0.  0.
    5000001    2    3    3    0    0 -0.14858162029E+03  0.17629687856E+03  0.24802528327E+03  0.35733949146E+03  0.11409594095E+03 0.  0.
        -11    1    4    4    0    0 -0.12564851358E+03  0.13072474470E+03  0.23486126160E+03  0.29670915059E+03  0.51100000000E-03 0. -1.
     200002    1    4    4    0    0 -0.22933106715E+02  0.45572133863E+02  0.13164021667E+02  0.60630340877E+02  0.30000000000E+02 0. -1.
     200000    1    3    3    0    0  0.82628001627E+01 -0.35522217922E+03  0.74655494971E+03  0.83294439395E+03  0.10100000000E+03 0. -1.
    -200001    1    1    2    0    0  0.14031882013E+03  0.17892530066E+03  0.18883131571E+03  0.68053647977E+03  0.61300000000E+03 0. -1.
<mgrwt>
<rscale>  0 0.14489672E+04</rscale>
<asrwt>0</asrwt>
<pdfrwt beam="1">  1        2 0.21815942E+00 0.14489672E+04</pdfrwt>
<pdfrwt beam="2">  1       -2 0.49100630E-01 0.14489672E+04</pdfrwt>
<totfact> 0.53909419E+01</totfact>
</mgrwt>
</event>
<event>
 8    1  0.7326756E-052  0.1408044E+04  0.7818608E-02  0.8948017E-01
          2   -1    0    0  501    0  0.00000000000E+00  0.00000000000E+00  0.13972535920E+04  0.13972535920E+04  0.25500000000E-02 0.  1.
         -2   -1    0    0    0  501 -0.00000000000E+00 -0.00000000000E+00 -0.35472925008E+03  0.35472925009E+03  0.25500000000E-02 0. -1.
     200001    2    1    2    0    0  0.41754974232E+02  0.32190543850E+03  0.66809525702E+03  0.96373622533E+03  0.61405997292E+03 0.  0.
    5000001    2    3    3    0    0 -0.24091138304E+03  0.39844424378E+02  0.35721291917E+03  0.44768631185E+03  0.11487424236E+03 0.  0.
        -11    1    4    4    0    0 -0.21622780443E+03  0.10901958128E+02  0.25456462772E+03  0.33418028934E+03  0.51100000000E-03 0. -1.
     200002    1    4    4    0    0 -0.24683578607E+02  0.28942466250E+02  0.10264829145E+03  0.11350602250E+03  0.30000000000E+02 0. -1.
     200000    1    3    3    0    0  0.28266635727E+03  0.28206101412E+03  0.31088233785E+03  0.51604991348E+03  0.10100000000E+03 0.  1.
    -200001    1    1    2    0    0 -0.41754974232E+02 -0.32190543850E+03  0.37442908488E+03  0.78824661675E+03  0.61300000000E+03 0. -1.
<mgrwt>
<rscale>  0 0.14080436E+04</rscale>
<asrwt>0</asrwt>
<pdfrwt beam="1">  1        2 0.19960766E+00 0.14080436E+04</pdfrwt>
<pdfrwt beam="2">  1       -2 0.50675606E-01 0.14080436E+04</pdfrwt>
<totfact> 0.59510183E+01</totfact>
</mgrwt>
</event>
<event>
 8    1  0.7326756E-052  0.2143706E+04  0.7818608E-02  0.8542231E-01
          2   -1    0    0  501    0  0.00000000000E+00  0.00000000000E+00  0.36614607376E+04  0.36614607376E+04  0.25500000000E-02 0.  1.
         -2   -1    0    0    0  501 -0.00000000000E+00 -0.00000000000E+00 -0.31377342919E+03  0.31377342920E+03  0.25500000000E-02 0. -1.
     200001    2    1    2    0    0  0.65571484450E+01  0.73127638649E+03  0.76809549055E+03  0.12248030922E+04  0.61266939071E+03 0.  0.
    5000001    2    3    3    0    0 -0.16908706974E+03  0.69682836045E+01  0.19454483945E+03  0.27895190478E+03  0.10643061821E+03 0.  0.
        -11    1    4    4    0    0 -0.13131386478E+03  0.10354335137E+02  0.18886759746E+03  0.23026400654E+03  0.51100000000E-03 0. -1.
     200002    1    4    4    0    0 -0.37773204956E+02 -0.33860515321E+01  0.56772419945E+01  0.48687898232E+02  0.30000000000E+02 0. -1.
     200000    1    3    3    0    0  0.17564421818E+03  0.72430810289E+03  0.57355065110E+03  0.94585118738E+03  0.10100000000E+03 0. -1.
    -200001    1    1    2    0    0 -0.65571484450E+01 -0.73127638649E+03  0.25795918179E+04  0.27504310747E+04  0.61300000000E+03 0. -1.
<mgrwt>
<rscale>  0 0.21437062E+04</rscale>
<asrwt>0</asrwt>
<pdfrwt beam="1">  1        2 0.52306577E+00 0.21437062E+04</pdfrwt>
<pdfrwt beam="2">  1       -2 0.44824779E-01 0.21437062E+04</pdfrwt>
<totfact> 0.41604723E+00</totfact>
</mgrwt>
</event>
<event>
 8    1  0.7326756E-052  0.1247249E+04  0.7818608E-02  0.9072476E-01
          2   -1    0    0  501    0  0.00000000000E+00  0.00000000000E+00  0.15015658733E+03  0.15015658735E+03  0.25500000000E-02 0.  1.
         -2   -1    0    0    0  501 -0.00000000000E+00 -0.00000000000E+00 -0.25900144720E+04  0.25900144720E+04  0.25500000000E-02 0. -1.
     200001    2    1    2    0    0  0.41211622717E+02 -0.40131746584E+00 -0.14526691508E+04  0.15774117742E+04  0.61341803432E+03 0.  0.
    5000001    2    3    3    0    0 -0.17081935936E+03  0.69113746993E+02 -0.12243012011E+04  0.12425350775E+04  0.10499535339E+03 0.  0.
        -11    1    4    4    0    0 -0.13763357248E+03  0.17296267290E+02 -0.93567281111E+03  0.94589945057E+03  0.51100000000E-03 0. -1.
     200002    1    4    4    0    0 -0.33185786884E+02  0.51817479703E+02 -0.28862839001E+03  0.29663562695E+03  0.30000000000E+02 0. -1.
     200000    1    3    3    0    0  0.21203098208E+03 -0.69515064459E+02 -0.22836794968E+03  0.33487669669E+03  0.10100000000E+03 0.  1.
    -200001    1    1    2    0    0 -0.41211622717E+02  0.40131746584E+00 -0.98718873389E+03  0.11627592852E+04  0.61300000000E+03 0.  1.
<mgrwt>
<rscale>  0 0.12472493E+04</rscale>
<asrwt>0</asrwt>
<pdfrwt beam="1">  1        2 0.21450943E-01 0.12472493E+04</pdfrwt>
<pdfrwt beam="2">  1       -2 0.37000204E+00 0.12472493E+04</pdfrwt>
<totfact> 0.30429676E+00</totfact>
</mgrwt>
</event>
<event>
 8    1  0.7326756E-052  0.1421399E+04  0.7818608E-02  0.8938473E-01
         -2   -1    0    0    0  501 -0.00000000000E+00  0.00000000000E+00  0.78185486405E+03  0.78185486405E+03  0.25500000000E-02 0. -1.
          2   -1    0    0  501    0  0.00000000000E+00 -0.00000000000E+00 -0.64601982641E+03  0.64601982642E+03  0.25500000000E-02 0.  1.
     200001    2    1    2    0    0 -0.26006219673E+02  0.98691035062E+02 -0.27888267963E+03  0.68076289905E+03  0.61257353180E+03 0.  0.
    5000001    2    3    3    0    0 -0.25813400765E+03  0.16417744589E+03 -0.22867983577E+02  0.31481713182E+03  0.70707016415E+02 0.  0.
        -11    1    4    4    0    0 -0.46627435517E+02  0.44598143937E+02  0.17127865016E+02  0.66756841940E+02  0.51100000000E-03 0. -1.
     200002    1    4    4    0    0 -0.21150657213E+03  0.11957930195E+03 -0.39995848593E+02  0.24806028988E+03  0.30000000000E+02 0. -1.
     200000    1    3    3    0    0  0.23212778798E+03 -0.65486410826E+02 -0.25601469605E+03  0.36594576723E+03  0.10100000000E+03 0.  1.
    -200001    1    1    2    0    0  0.26006219673E+02 -0.98691035062E+02  0.41471771727E+03  0.74711179142E+03  0.61300000000E+03 0. -1.
<mgrwt>
<rscale>  0 0.14213989E+04</rscale>
<asrwt>0</asrwt>
<pdfrwt beam="1">  1        2 0.92288547E-01 0.14213989E+04</pdfrwt>
<pdfrwt beam="2">  1       -2 0.11169355E+00 0.14213989E+04</pdfrwt>
<totfact> 0.30605000E+01</totfact>
</mgrwt>
</event>
<event>
 8    1  0.7326756E-052  0.1300983E+04  0.7818608E-02  0.9028786E-01
         -2   -1    0    0    0  501 -0.00000000000E+00  0.00000000000E+00  0.17871781971E+03  0.17871781973E+03  0.25500000000E-02 0. -1.
          2   -1    0    0  501    0  0.00000000000E+00 -0.00000000000E+00 -0.23676391529E+04  0.23676391529E+04  0.25500000000E-02 0.  1.
     200001    2    1    2    0    0  0.10622156426E+03 -0.11832279373E+03 -0.80328503158E+03  0.10228609061E+04  0.61293905662E+03 0.  0.
    5000001    2    3    3    0    0  0.25600643484E+03  0.12717983645E+03 -0.22887692347E+03  0.37258963695E+03  0.68734168999E+02 0.  0.
        -11    1    4    4    0    0  0.33745331937E+02  0.83456950230E+01 -0.54515242513E+02  0.64655314704E+02  0.51100000000E-03 0. -1.
     200002    1    4    4    0    0  0.22226110290E+03  0.11883414143E+03 -0.17436168096E+03  0.30793432225E+03  0.30000000000E+02 0. -1.
     200000    1    3    3    0    0 -0.14978487058E+03 -0.24550263017E+03 -0.57440810811E+03  0.65027126919E+03  0.10100000000E+03 0.  1.
    -200001    1    1    2    0    0 -0.10622156426E+03  0.11832279373E+03 -0.13856363016E+04  0.15234960664E+04  0.61300000000E+03 0.  1.
<mgrwt>
<rscale>  0 0.13009832E+04</rscale>
<asrwt>0</asrwt>
<pdfrwt beam="1">  1        2 0.33823415E+00 0.13009832E+04</pdfrwt>
<pdfrwt beam="2">  1       -2 0.25531119E-01 0.13009832E+04</pdfrwt>
<totfact> 0.70206651E+01</totfact>
</mgrwt>
</event>
<event>
 8    1  0.7326756E-052  0.1384164E+04  0.7818608E-02  0.8965362E-01
          2   -1    0    0  501    0  0.00000000000E+00  0.00000000000E+00  0.54791873869E+03  0.54791873870E+03  0.25500000000E-02 0.  1.
         -2   -1    0    0    0  501 -0.00000000000E+00 -0.00000000000E+00 -0.87417621263E+03  0.87417621263E+03  0.25500000000E-02 0. -1.
     200001    2    1    2    0    0  0.30756352053E+03  0.91081057094E+02 -0.18856951380E+03  0.71667447212E+03  0.61251347685E+03 0.  0.
    5000001    2    3    3    0    0  0.85564061340E+02 -0.23926633323E+03 -0.14611270247E+03  0.30385884862E+03  0.80073036951E+02 0.  0.
        -11    1    4    4    0    0  0.13266410397E+02 -0.10169852038E+02  0.62038176562E+01  0.17830055779E+02  0.51100000000E-03 0. -1.
     200002    1    4    4    0    0  0.72297650943E+02 -0.22909648120E+03 -0.15231652013E+03  0.28602879284E+03  0.30000000000E+02 0. -1.
     200000    1    3    3    0    0  0.22199945919E+03  0.33034739033E+03 -0.42456811328E+02  0.41281562350E+03  0.10100000000E+03 0.  1.
    -200001    1    1    2    0    0 -0.30756352053E+03 -0.91081057094E+02 -0.13768796013E+03  0.70542047921E+03  0.61300000000E+03 0.  1.
<mgrwt>
<rscale>  0 0.13841640E+04</rscale>
<asrwt>0</asrwt>
<pdfrwt beam="1">  1        2 0.78274105E-01 0.13841640E+04</pdfrwt>
<pdfrwt beam="2">  1       -2 0.12488232E+00 0.13841640E+04</pdfrwt>
<totfact> 0.28319066E+01</totfact>
</mgrwt>
</event>
<event>
 8    1  0.7326756E-052  0.1354029E+04  0.7818608E-02  0.8987784E-01
          2   -1    0    0  501    0  0.00000000000E+00  0.00000000000E+00  0.29219367371E+03  0.29219367372E+03  0.25500000000E-02 0. -1.
         -2   -1    0    0    0  501 -0.00000000000E+00 -0.00000000000E+00 -0.15686473298E+04  0.15686473298E+04  0.25500000000E-02 0.  1.
     200001    2    1    2    0    0 -0.20770576981E+03 -0.18617189938E+02 -0.37091544350E+03  0.74762191409E+03  0.61471291969E+03 0.  0.
    5000001    2    3    3    0    0 -0.28375146996E+03 -0.20927970769E+03 -0.86818879675E+02  0.38286582879E+03  0.12139123623E+03 0.  0.
        -11    1    4    4    0    0 -0.18763859778E+03 -0.19250914665E+03 -0.45042882218E+02  0.27257453322E+03  0.51100000000E-03 0. -1.
     200002    1    4    4    0    0 -0.96112872179E+02 -0.16770561045E+02 -0.41775997456E+02  0.11029129558E+03  0.30000000000E+02 0.  1.
     200000    1    3    3    0    0  0.76045700155E+02  0.19066251775E+03 -0.28409656382E+03  0.36475608530E+03  0.10100000000E+03 0. -1.
    -200001    1    1    2    0    0  0.20770576981E+03  0.18617189938E+02 -0.90553821256E+03  0.11132190894E+04  0.61300000000E+03 0. -1.
<mgrwt>
<rscale>  0 0.13540293E+04</rscale>
<asrwt>0</asrwt>
<pdfrwt beam="1">  1        2 0.41741954E-01 0.13540293E+04</pdfrwt>
<pdfrwt beam="2">  1       -2 0.22409247E+00 0.13540293E+04</pdfrwt>
<totfact> 0.11186330E+01</totfact>
</mgrwt>
</event>
<event>
 8    1  0.7326756E-052  0.1635545E+04  0.7818608E-02  0.8799004E-01
          2   -1    0    0  501    0  0.00000000000E+00  0.00000000000E+00  0.77383928578E+03  0.77383928579E+03  0.25500000000E-02 0.  1.
         -2   -1    0    0    0  501 -0.00000000000E+00 -0.00000000000E+00 -0.86419961045E+03  0.86419961045E+03  0.25500000000E-02 0. -1.
     200001    2    1    2    0    0 -0.25060953520E+03  0.45349817546E+02 -0.52375188126E+03  0.84528484458E+03  0.61264075139E+03 0.  0.
    5000001    2    3    3    0    0 -0.11763916216E+03 -0.50715338941E+02  0.11104357002E+03  0.18190267768E+03  0.65930961062E+02 0.  0.
        -11    1    4    4    0    0 -0.26055663649E+00 -0.18771176860E+02  0.13728122260E+02  0.23256962645E+02  0.51100000000E-03 0. -1.
     200002    1    4    4    0    0 -0.11737860553E+03 -0.31944162081E+02  0.97315447758E+02  0.15864571503E+03  0.30000000000E+02 0. -1.
     200000    1    3    3    0    0 -0.13297037304E+03  0.96065156486E+02 -0.63479545128E+03  0.66338216690E+03  0.10100000000E+03 0. -1.
    -200001    1    1    2    0    0  0.25060953520E+03 -0.45349817546E+02  0.43339155660E+03  0.79275405165E+03  0.61300000000E+03 0.  1.
<mgrwt>
<rscale>  0 0.16355447E+04</rscale>
<asrwt>0</asrwt>
<pdfrwt beam="1">  1        2 0.11054847E+00 0.16355447E+04</pdfrwt>
<pdfrwt beam="2">  1       -2 0.12345709E+00 0.16355447E+04</pdfrwt>
<totfact> 0.18812053E+01</totfact>
</mgrwt>
</event>
<event>
 8    1  0.7326756E-052  0.1275316E+04  0.7818608E-02  0.9049372E-01
          2   -1    0    0  501    0  0.00000000000E+00  0.00000000000E+00  0.35116011183E+04  0.35116011183E+04  0.25500000000E-02 0.  1.
         -2   -1    0    0    0  501 -0.00000000000E+00 -0.00000000000E+00 -0.11578987450E+03  0.11578987453E+03  0.25500000000E-02 0. -1.
     200001    2    1    2    0    0  0.16640823130E+03  0.59256947712E+02  0.14976201681E+04  0.16248672239E+04  0.60508201270E+03 0.  0.
    5000001    2    3    3    0    0 -0.12043520992E+03  0.16427149411E+03  0.22653795205E+03  0.31370048595E+03  0.74825046628E+02 0.  0.
        -11    1    4    4    0    0 -0.10168270002E+03  0.10442055554E+03  0.13426771905E+03  0.19816872680E+03  0.51100000000E-03 0. -1.
     200002    1    4    4    0    0 -0.18752509900E+02  0.59850938568E+02  0.92270232997E+02  0.11553175915E+03  0.30000000000E+02 0.  1.
     200000    1    3    3    0    0  0.28684344122E+03 -0.10501454640E+03  0.12710822161E+04  0.13111667380E+04  0.10100000000E+03 0. -1.
    -200001    1    1    2    0    0 -0.16640823130E+03 -0.59256947712E+02  0.18981910757E+04  0.20025237689E+04  0.61300000000E+03 0.  1.
<mgrwt>
<rscale>  0 0.12753162E+04</rscale>
<asrwt>0</asrwt>
<pdfrwt beam="1">  1        2 0.50165721E+00 0.12753162E+04</pdfrwt>
<pdfrwt beam="2">  1       -2 0.16541414E-01 0.12753162E+04</pdfrwt>
<totfact> 0.35148329E+01</totfact>
</mgrwt>
</event>
<event>
 8    1  0.7326756E-052  0.1743152E+04  0.7818608E-02  0.8737129E-01
         -2   -1    0    0    0  501 -0.00000000000E+00  0.00000000000E+00  0.16180426733E+04  0.16180426733E+04  0.25500000000E-02 0. -1.
          2   -1    0    0  501    0  0.00000000000E+00 -0.00000000000E+00 -0.46948379101E+03  0.46948379102E+03  0.25500000000E-02 0.  1.
     200001    2    1    2    0    0 -0.32807602645E+03  0.17512670608E+03  0.11697019566E+04  0.13702264769E+04  0.60910975079E+03 0.  0.
    5000001    2    3    3    0    0 -0.11243902750E+03 -0.20420995329E+03  0.59857931095E+03  0.64443195172E+03  0.51488920877E+02 0.  0.
        -11    1    4    4    0    0 -0.42654280577E+02 -0.98553927119E+02  0.23852620890E+03  0.26158558166E+03  0.51100000000E-03 0. -1.
     200002    1    4    4    0    0 -0.69784746923E+02 -0.10565602617E+03  0.36005310205E+03  0.38284637006E+03  0.30000000000E+02 0.  1.
     200000    1    3    3    0    0 -0.21563699895E+03  0.37933665937E+03  0.57112264563E+03  0.72579452520E+03  0.10100000000E+03 0.  1.
    -200001    1    1    2    0    0  0.32807602645E+03 -0.17512670608E+03 -0.21143074309E+02  0.71729998739E+03  0.61300000000E+03 0.  1.
<mgrwt>
<rscale>  0 0.17431521E+04</rscale>
<asrwt>0</asrwt>
<pdfrwt beam="1">  1        2 0.67069111E-01 0.17431521E+04</pdfrwt>
<pdfrwt beam="2">  1       -2 0.23114896E+00 0.17431521E+04</pdfrwt>
<totfact> 0.57674314E+00</totfact>
</mgrwt>
</event>
<event>
 8    1  0.7326756E-052  0.1763870E+04  0.7818608E-02  0.8725752E-01
          2   -1    0    0  501    0  0.00000000000E+00  0.00000000000E+00  0.58689118379E+03  0.58689118379E+03  0.25500000000E-02 0.  1.
         -2   -1    0    0    0  501 -0.00000000000E+00 -0.00000000000E+00 -0.13253043132E+04  0.13253043132E+04  0.25500000000E-02 0. -1.
     200001    2    1    2    0    0  0.16242411119E+03  0.31156424145E+03 -0.94021449738E+03  0.11773848679E+04  0.61544939495E+03 0.  0.
    5000001    2    3    3    0    0 -0.76043510778E+02  0.19144403179E+03 -0.71809260694E+02  0.26325997134E+03  0.14736285064E+03 0.  0.
        -11    1    4    4    0    0  0.10110534350E+02  0.15423331058E+03 -0.38901080998E+02  0.15938453846E+03  0.51100000000E-03 0. -1.
     200002    1    4    4    0    0 -0.86154045128E+02  0.37210721209E+02 -0.32908179696E+02  0.10387543288E+03  0.30000000000E+02 0. -1.
     200000    1    3    3    0    0  0.23846762197E+03  0.12012020966E+03 -0.86840523668E+03  0.91412489661E+03  0.10100000000E+03 0. -1.
    -200001    1    1    2    0    0 -0.16242411119E+03 -0.31156424145E+03  0.20180136796E+03  0.73481062905E+03  0.61300000000E+03 0.  1.
<mgrwt>
<rscale>  0 0.17638701E+04</rscale>
<asrwt>0</asrwt>
<pdfrwt beam="1">  1        2 0.83841598E-01 0.17638701E+04</pdfrwt>
<pdfrwt beam="2">  1       -2 0.18932919E+00 0.17638701E+04</pdfrwt>
<totfact> 0.82762195E+00</totfact>
</mgrwt>
</event>
<event>
 8    1  0.7326756E-052  0.2204762E+04  0.7818608E-02  0.8516449E-01
         -2   -1    0    0    0  501 -0.00000000000E+00  0.00000000000E+00  0.54737276176E+03  0.54737276177E+03  0.25500000000E-02 0. -1.
          2   -1    0    0  501    0  0.00000000000E+00 -0.00000000000E+00 -0.22201399313E+04  0.22201399313E+04  0.25500000000E-02 0.  1.
     200001    2    1    2    0    0 -0.33640347704E+03  0.38592654946E+03  0.11705506727E+03  0.80757921453E+03  0.61349466014E+03 0.  0.
    5000001    2    3    3    0    0 -0.22732123740E+03  0.53441015966E+03  0.11489479783E+03  0.59745547892E+03  0.80517519874E+02 0.  0.
        -11    1    4    4    0    0 -0.18077745927E+03  0.35839265283E+03  0.68735866272E+02  0.40724734830E+03  0.51100000000E-03 0. -1.
     200002    1    4    4    0    0 -0.46543778121E+02  0.17601750682E+03  0.46158931563E+02  0.19020813062E+03  0.30000000000E+02 0. -1.
     200000    1    3    3    0    0 -0.10908223964E+03 -0.14848361019E+03  0.21602694368E+01  0.21012373561E+03  0.10100000000E+03 0.  1.
    -200001    1    1    2    0    0  0.33640347704E+03 -0.38592654946E+03 -0.17898222368E+04  0.19599334786E+04  0.61300000000E+03 0.  1.
<mgrwt>
<rscale>  0 0.22047622E+04</rscale>
<asrwt>0</asrwt>
<pdfrwt beam="1">  1        2 0.31716284E+00 0.22047622E+04</pdfrwt>
<pdfrwt beam="2">  1       -2 0.78196110E-01 0.22047622E+04</pdfrwt>
<totfact> 0.82444686E+00</totfact>
</mgrwt>
</event>
<event>
 8    1  0.7326756E-052  0.1339498E+04  0.7818608E-02  0.8998816E-01
         -2   -1    0    0    0  501 -0.00000000000E+00  0.00000000000E+00  0.15554025004E+04  0.15554025004E+04  0.25500000000E-02 0. -1.
          2   -1    0    0  501    0  0.00000000000E+00 -0.00000000000E+00 -0.28839096876E+03  0.28839096877E+03  0.25500000000E-02 0.  1.
     200001    2    1    2    0    0 -0.63141771055E+02 -0.20104128349E+03  0.86515256140E+03  0.10811243975E+04  0.61313663038E+03 0.  0.
    5000001    2    3    3    0    0  0.18131018610E+03 -0.15870270779E+03  0.74658782683E+03  0.78819452429E+03  0.76139949571E+02 0.  0.
        -11    1    4    4    0    0  0.12182920574E+03 -0.92155729052E+02  0.37635211978E+03  0.40617231790E+03  0.51100000000E-03 0. -1.
     200002    1    4    4    0    0  0.59480980354E+02 -0.66546978740E+02  0.37023570705E+03  0.38202220639E+03  0.30000000000E+02 0. -1.
     200000    1    3    3    0    0 -0.24445195715E+03 -0.42338575695E+02  0.11856473458E+03  0.29292987323E+03  0.10100000000E+03 0.  1.
    -200001    1    1    2    0    0  0.63141771055E+02  0.20104128349E+03  0.40185897027E+03  0.76266907169E+03  0.61300000000E+03 0. -1.
<mgrwt>
<rscale>  0 0.13394985E+04</rscale>
<asrwt>0</asrwt>
<pdfrwt beam="1">  1        2 0.41198709E-01 0.13394985E+04</pdfrwt>
<pdfrwt beam="2">  1       -2 0.22220036E+00 0.13394985E+04</pdfrwt>
<totfact> 0.11678449E+01</totfact>
</mgrwt>
</event>
<event>
 8    1  0.7326756E-052  0.1435515E+04  0.7818608E-02  0.8928505E-01
         -2   -1    0    0    0  501 -0.00000000000E+00  0.00000000000E+00  0.33872377939E+03  0.33872377940E+03  0.25500000000E-02 0. -1.
          2   -1    0    0  501    0  0.00000000000E+00 -0.00000000000E+00 -0.15209312336E+04  0.15209312336E+04  0.25500000000E-02 0.  1.
     200001    2    1    2    0    0  0.29466247412E+03 -0.73151632939E+02 -0.87327075987E+03  0.11090632357E+04  0.61257024553E+03 0.  0.
    5000001    2    3    3    0    0  0.11598974843E+03  0.12394011100E+03 -0.78812593940E+03  0.81204515733E+03  0.97262882611E+02 0.  0.
        -11    1    4    4    0    0  0.40533242585E+02  0.89523446580E+02 -0.53611923288E+03  0.54505157839E+03  0.51100000000E-03 0. -1.
     200002    1    4    4    0    0  0.75456505847E+02  0.34416664418E+02 -0.25200670652E+03  0.26699357894E+03  0.30000000000E+02 0.  1.
     200000    1    3    3    0    0  0.17867272568E+03 -0.19709174394E+03 -0.85144820471E+02  0.29701807838E+03  0.10100000000E+03 0. -1.
    -200001    1    1    2    0    0 -0.29466247412E+03  0.73151632939E+02 -0.30893669437E+03  0.75059177732E+03  0.61300000000E+03 0. -1.
<mgrwt>
<rscale>  0 0.14355146E+04</rscale>
<asrwt>0</asrwt>
<pdfrwt beam="1">  1        2 0.21727589E+00 0.14355146E+04</pdfrwt>
<pdfrwt beam="2">  1       -2 0.48389112E-01 0.14355146E+04</pdfrwt>
<totfact> 0.56005531E+01</totfact>
</mgrwt>
</event>
<event>
 8    1  0.7326756E-052  0.1588144E+04  0.7818608E-02  0.8827865E-01
         -2   -1    0    0    0  501 -0.00000000000E+00  0.00000000000E+00  0.38967221808E+03  0.38967221809E+03  0.25500000000E-02 0. -1.
          2   -1    0    0  501    0  0.00000000000E+00 -0.00000000000E+00 -0.16181562085E+04  0.16181562085E+04  0.25500000000E-02 0.  1.
     200001    2    1    2    0    0 -0.40180025814E+03 -0.30420281838E+03 -0.64760352314E+03  0.10243784180E+04  0.61317046398E+03 0.  0.
    5000001    2    3    3    0    0 -0.47941735298E+03 -0.19072449355E+03 -0.67318965475E+03  0.85187510280E+03  0.79309827480E+02 0.  0.
        -11    1    4    4    0    0 -0.17879340950E+02 -0.13055597818E+02 -0.10656288564E+02  0.24569817936E+02  0.51100000000E-03 0. -1.
     200002    1    4    4    0    0 -0.46153801203E+03 -0.17766889573E+03 -0.66253336618E+03  0.82730528486E+03  0.30000000000E+02 0. -1.
     200000    1    3    3    0    0  0.77617094841E+02 -0.11347832483E+03  0.25586131610E+02  0.17250331518E+03  0.10100000000E+03 0. -1.
    -200001    1    1    2    0    0  0.40180025814E+03  0.30420281838E+03 -0.58088046726E+03  0.98345000859E+03  0.61300000000E+03 0.  1.
<mgrwt>
<rscale>  0 0.15881442E+04</rscale>
<asrwt>0</asrwt>
<pdfrwt beam="1">  1        2 0.23116517E+00 0.15881442E+04</pdfrwt>
<pdfrwt beam="2">  1       -2 0.55667461E-01 0.15881442E+04</pdfrwt>
<totfact> 0.36902394E+01</totfact>
</mgrwt>
</event>
<event>
 8    1  0.7326756E-052  0.1932372E+04  0.7818608E-02  0.8638908E-01
         -2   -1    0    0    0  501 -0.00000000000E+00  0.00000000000E+00  0.24525870197E+04  0.24525870197E+04  0.25500000000E-02 0. -1.
          2   -1    0    0  501    0  0.00000000000E+00 -0.00000000000E+00 -0.38062484405E+03  0.38062484406E+03  0.25500000000E-02 0.  1.
     200001    2    1    2    0    0  0.65181933395E+03 -0.15207966644E+03  0.15199270519E+04  0.17708990817E+04  0.61474274741E+03 0.  0.
    5000001    2    3    3    0    0  0.35201033054E+03 -0.11768156613E+03  0.13666357119E+04  0.14176740787E+04  0.65927237033E+02 0.  0.
        -11    1    4    4    0    0  0.14997394943E+03 -0.56080665527E+02  0.49213254513E+03  0.51752455838E+03  0.51100000000E-03 0. -1.
     200002    1    4    4    0    0  0.20203638111E+03 -0.61600900604E+02  0.87450316678E+03  0.90014952034E+03  0.30000000000E+02 0. -1.
     200000    1    3    3    0    0  0.29980900341E+03 -0.34398100305E+02  0.15329133998E+03  0.35322500300E+03  0.10100000000E+03 0.  1.
    -200001    1    1    2    0    0 -0.65181933395E+03  0.15207966644E+03  0.55203512378E+03  0.10623127821E+04  0.61300000000E+03 0. -1.
<mgrwt>
<rscale>  0 0.19323722E+04</rscale>
<asrwt>0</asrwt>
<pdfrwt beam="1">  1        2 0.54374975E-01 0.19323722E+04</pdfrwt>
<pdfrwt beam="2">  1       -2 0.35036959E+00 0.19323722E+04</pdfrwt>
<totfact> 0.13294442E+00</totfact>
</mgrwt>
</event>
<event>
 8    1  0.7326756E-052  0.1675597E+04  0.7818608E-02  0.8775406E-01
         -2   -1    0    0    0  501 -0.00000000000E+00  0.00000000000E+00  0.66849282457E+03  0.66849282457E+03  0.25500000000E-02 0. -1.
          2   -1    0    0  501    0  0.00000000000E+00 -0.00000000000E+00 -0.10499832569E+04  0.10499832569E+04  0.25500000000E-02 0.  1.
     200001    2    1    2    0    0 -0.17687299708E+03  0.52054645192E+03 -0.34863631203E+03  0.89440019966E+03  0.61331213374E+03 0.  0.
    5000001    2    3    3    0    0 -0.33723909865E+03  0.22853775805E+03 -0.26363344987E+02  0.42000876939E+03  0.98755374024E+02 0.  0.
        -11    1    4    4    0    0 -0.13170491476E+03  0.39867346424E+02  0.46986091972E+01  0.13768684328E+03  0.51100000000E-03 0. -1.
     200002    1    4    4    0    0 -0.20553418389E+03  0.18867041162E+03 -0.31061954184E+02  0.28232192611E+03  0.30000000000E+02 0. -1.
     200000    1    3    3    0    0  0.16036610156E+03  0.29200869388E+03 -0.32227296704E+03  0.47439143027E+03  0.10100000000E+03 0.  1.
    -200001    1    1    2    0    0  0.17687299708E+03 -0.52054645192E+03 -0.32854120272E+02  0.82407588178E+03  0.61300000000E+03 0. -1.
<mgrwt>
<rscale>  0 0.16755969E+04</rscale>
<asrwt>0</asrwt>
<pdfrwt beam="1">  1        2 0.14999761E+00 0.16755969E+04</pdfrwt>
<pdfrwt beam="2">  1       -2 0.95498976E-01 0.16755969E+04</pdfrwt>
<totfact> 0.23038621E+01</totfact>
</mgrwt>
</event>
<event>
 8    1  0.7326756E-052  0.1374903E+04  0.7818608E-02  0.8972188E-01
         -2   -1    0    0    0  501 -0.00000000000E+00  0.00000000000E+00  0.61808980366E+03  0.61808980367E+03  0.25500000000E-02 0. -1.
          2   -1    0    0  501    0  0.00000000000E+00 -0.00000000000E+00 -0.76459731539E+03  0.76459731540E+03  0.25500000000E-02 0.  1.
     200001    2    1    2    0    0  0.18528790204E+02  0.10776714519E+03  0.21935668266E+03  0.66048030493E+03  0.61331868170E+03 0.  0.
    5000001    2    3    3    0    0 -0.23639883472E+03 -0.31420713887E+02  0.24538423313E+03  0.35187086333E+03  0.82024461433E+02 0.  0.
        -11    1    4    4    0    0 -0.10939797729E+02 -0.21496998357E+02  0.29723656945E+02  0.38279183574E+02  0.51100000000E-03 0. -1.
     200002    1    4    4    0    0 -0.22545903699E+03 -0.99237155298E+01  0.21566057619E+03  0.31359167975E+03  0.30000000000E+02 0. -1.
     200000    1    3    3    0    0  0.25492762492E+03  0.13918785907E+03 -0.26027550472E+02  0.30860944160E+03  0.10100000000E+03 0. -1.
    -200001    1    1    2    0    0 -0.18528790204E+02 -0.10776714519E+03 -0.36586419439E+03  0.72220681414E+03  0.61300000000E+03 0.  1.
<mgrwt>
<rscale>  0 0.13749033E+04</rscale>
<asrwt>0</asrwt>
<pdfrwt beam="1">  1        2 0.10922819E+00 0.13749033E+04</pdfrwt>
<pdfrwt beam="2">  1       -2 0.88298544E-01 0.13749033E+04</pdfrwt>
<totfact> 0.43457992E+01</totfact>
</mgrwt>
</event>
<event>
 8    1  0.7326756E-052  0.1282581E+04  0.7818608E-02  0.9043494E-01
         -2   -1    0    0    0  501 -0.00000000000E+00  0.00000000000E+00  0.28374796412E+03  0.28374796413E+03  0.25500000000E-02 0. -1.
          2   -1    0    0  501    0  0.00000000000E+00 -0.00000000000E+00 -0.14493615730E+04  0.14493615730E+04  0.25500000000E-02 0.  1.
     200001    2    1    2    0    0 -0.41723646393E+02  0.17105580025E+03 -0.48335103591E+03  0.79916512341E+03  0.61158459847E+03 0.  0.
    5000001    2    3    3    0    0 -0.15706472755E+03  0.29126851225E+03 -0.76687412774E+02  0.34824277586E+03  0.76716339799E+02 0.  0.
        -11    1    4    4    0    0 -0.10363524583E+03  0.13787474003E+03 -0.20144712060E+02  0.17365344091E+03  0.51100000000E-03 0. -1.
     200002    1    4    4    0    0 -0.53429481715E+02  0.15339377222E+03 -0.56542700715E+02  0.17458933495E+03  0.30000000000E+02 0. -1.
     200000    1    3    3    0    0  0.11534108116E+03 -0.12021271200E+03 -0.40666362314E+03  0.45092234754E+03  0.10100000000E+03 0.  1.
    -200001    1    1    2    0    0  0.41723646393E+02 -0.17105580025E+03 -0.68226257300E+03  0.93394441376E+03  0.61300000000E+03 0. -1.
<mgrwt>
<rscale>  0 0.12825808E+04</rscale>
<asrwt>0</asrwt>
<pdfrwt beam="1">  1        2 0.20705165E+00 0.12825808E+04</pdfrwt>
<pdfrwt beam="2">  1       -2 0.40535424E-01 0.12825808E+04</pdfrwt>
<totfact> 0.87966036E+01</totfact>
</mgrwt>
</event>
<event>
 8    1  0.7326756E-052  0.1488916E+04  0.7818608E-02  0.8891857E-01
         -2   -1    0    0    0  501 -0.00000000000E+00  0.00000000000E+00  0.15165637491E+04  0.15165637491E+04  0.25500000000E-02 0. -1.
          2   -1    0    0  501    0  0.00000000000E+00 -0.00000000000E+00 -0.36544296990E+03  0.36544296991E+03  0.25500000000E-02 0.  1.
     200001    2    1    2    0    0 -0.15473546870E+03  0.38876417829E+03  0.65134297057E+03  0.98722880826E+03  0.61261113518E+03 0.  0.
    5000001    2    3    3    0    0 -0.11330916423E+03  0.51264804009E+03  0.32061760493E+03  0.61757543360E+03  0.54376354087E+02 0.  0.
        -11    1    4    4    0    0 -0.76847319320E+02  0.35393108379E+03  0.21568464009E+03  0.42153598486E+03  0.51100000000E-03 0. -1.
     200002    1    4    4    0    0 -0.36461844913E+02  0.15871695630E+03  0.10493296484E+03  0.19603944874E+03  0.30000000000E+02 0. -1.
     200000    1    3    3    0    0 -0.41426304472E+02 -0.12388386180E+03  0.33072536564E+03  0.36965337466E+03  0.10100000000E+03 0. -1.
    -200001    1    1    2    0    0  0.15473546870E+03 -0.38876417829E+03  0.49977780864E+03  0.89477791077E+03  0.61300000000E+03 0.  1.
<mgrwt>
<rscale>  0 0.14889158E+04</rscale>
<asrwt>0</asrwt>
<pdfrwt beam="1">  1        2 0.52206138E-01 0.14889158E+04</pdfrwt>
<pdfrwt beam="2">  1       -2 0.21665196E+00 0.14889158E+04</pdfrwt>
<totfact> 0.96180549E+00</totfact>
</mgrwt>
</event>
<event>
 8    1  0.7326756E-052  0.1409582E+04  0.7818608E-02  0.8946912E-01
          2   -1    0    0  501    0  0.00000000000E+00  0.00000000000E+00  0.18133744201E+04  0.18133744201E+04  0.25500000000E-02 0.  1.
         -2   -1    0    0    0  501 -0.00000000000E+00 -0.00000000000E+00 -0.27392579247E+03  0.27392579249E+03  0.25500000000E-02 0. -1.
     200001    2    1    2    0    0  0.15536885013E+03 -0.28378403748E+03  0.59315713653E+03  0.91430854781E+03  0.61599664972E+03 0.  0.
    5000001    2    3    3    0    0  0.88116566308E+02 -0.12139426819E+03 -0.97412082732E+02  0.19460016698E+03  0.76674725423E+02 0.  0.
        -11    1    4    4    0    0  0.62081630288E+02 -0.96147824707E+02 -0.92733034286E+02  0.14730223577E+03  0.51100000000E-03 0. -1.
     200002    1    4    4    0    0  0.26034936021E+02 -0.25246443481E+02 -0.46790484455E+01  0.47297931206E+02  0.30000000000E+02 0.  1.
     200000    1    3    3    0    0  0.67252283825E+02 -0.16238976929E+03  0.69056921926E+03  0.71970838083E+03  0.10100000000E+03 0.  1.
    -200001    1    1    2    0    0 -0.15536885013E+03  0.28378403748E+03  0.94629149111E+03  0.11729916648E+04  0.61300000000E+03 0.  1.
<mgrwt>
<rscale>  0 0.14095815E+04</rscale>
<asrwt>0</asrwt>
<pdfrwt beam="1">  1        2 0.25905348E+00 0.14095815E+04</pdfrwt>
<pdfrwt beam="2">  1       -2 0.39132257E-01 0.14095815E+04</pdfrwt>
<totfact> 0.60188425E+01</totfact>
</mgrwt>
</event>
<event>
 8    1  0.7326756E-052  0.2088425E+04  0.7818608E-02  0.8566360E-01
         -2   -1    0    0    0  501 -0.00000000000E+00  0.00000000000E+00  0.37784772826E+03  0.37784772827E+03  0.25500000000E-02 0. -1.
          2   -1    0    0  501    0  0.00000000000E+00 -0.00000000000E+00 -0.28857636948E+04  0.28857636948E+04  0.25500000000E-02 0.  1.
     200001    2    1    2    0    0  0.33076787549E+02  0.38984380011E+03 -0.24250654078E+04  0.25316923856E+04  0.61274125089E+03 0.  0.
    5000001    2    3    3    0    0  0.17054437788E+03 -0.70008492841E+02 -0.37821828551E+03  0.42690127673E+03  0.72173781103E+02 0.  0.
        -11    1    4    4    0    0  0.14377004663E+03 -0.52705235268E+02 -0.31153060328E+03  0.34712963704E+03  0.51100000000E-03 0. -1.
     200002    1    4    4    0    0  0.26774331254E+02 -0.17303257573E+02 -0.66687682233E+02  0.79771639686E+02  0.30000000000E+02 0. -1.
     200000    1    3    3    0    0 -0.13746759033E+03  0.45985229295E+03 -0.20468471223E+04  0.21047911088E+04  0.10100000000E+03 0.  1.
    -200001    1    1    2    0    0 -0.33076787549E+02 -0.38984380011E+03 -0.82850558705E+02  0.73191903749E+03  0.61300000000E+03 0. -1.
<mgrwt>
<rscale>  0 0.20884245E+04</rscale>
<asrwt>0</asrwt>
<pdfrwt beam="1">  1        2 0.41225194E+00 0.20884245E+04</pdfrwt>
<pdfrwt beam="2">  1       -2 0.53978248E-01 0.20884245E+04</pdfrwt>
<totfact> 0.81771466E+00</totfact>
</mgrwt>
</event>
<event>
 8    1  0.7326756E-052  0.1301123E+04  0.7818608E-02  0.9028675E-01
          2   -1    0    0  501    0  0.00000000000E+00  0.00000000000E+00  0.31123869848E+04  0.31123869848E+04  0.25500000000E-02 0.  1.
         -2   -1    0    0    0  501 -0.00000000000E+00 -0.00000000000E+00 -0.13598243516E+03  0.13598243518E+03  0.25500000000E-02 0. -1.
     200001    2    1    2    0    0  0.19204440281E+03 -0.10025056502E+03  0.14375889705E+04  0.15778444681E+04  0.61318829800E+03 0.  0.
    5000001    2    3    3    0    0 -0.12930749998E+03 -0.31749319550E+02  0.10286418019E+04  0.10436176878E+04  0.11534935093E+03 0.  0.
        -11    1    4    4    0    0 -0.11222585645E+03 -0.47030044133E+02  0.93122415213E+03  0.93914050568E+03  0.51100000000E-03 0. -1.
     200002    1    4    4    0    0 -0.17081643536E+02  0.15280724583E+02  0.97417649809E+02  0.10447718212E+03  0.30000000000E+02 0. -1.
     200000    1    3    3    0    0  0.32135190279E+03 -0.68501245475E+02  0.40894716860E+03  0.53422678028E+03  0.10100000000E+03 0. -1.
    -200001    1    1    2    0    0 -0.19204440281E+03  0.10025056502E+03  0.15388155791E+04  0.16705249519E+04  0.61300000000E+03 0.  1.
<mgrwt>
<rscale>  0 0.13011225E+04</rscale>
<asrwt>0</asrwt>
<pdfrwt beam="1">  1        2 0.44462666E+00 0.13011225E+04</pdfrwt>
<pdfrwt beam="2">  1       -2 0.19426065E-01 0.13011225E+04</pdfrwt>
<totfact> 0.45405225E+01</totfact>
</mgrwt>
</event>
<event>
 8    1  0.7326756E-052  0.2757387E+04  0.7818608E-02  0.8316622E-01
         -2   -1    0    0    0  501 -0.00000000000E+00  0.00000000000E+00  0.12415919989E+04  0.12415919989E+04  0.25500000000E-02 0. -1.
          2   -1    0    0  501    0  0.00000000000E+00 -0.00000000000E+00 -0.15309338892E+04  0.15309338892E+04  0.25500000000E-02 0.  1.
     200001    2    1    2    0    0 -0.90774197082E+03  0.79149078029E+03  0.12990983350E+03  0.13576074633E+04  0.61299944430E+03 0.  0.
    5000001    2    3    3    0    0 -0.52799293496E+03  0.26470661169E+03  0.31376023668E+03  0.67517588338E+03  0.92578927067E+02 0.  0.
        -11    1    4    4    0    0 -0.37582953405E+03  0.15160017380E+03  0.19826144786E+03  0.45115191795E+03  0.51100000000E-03 0. -1.
     200002    1    4    4    0    0 -0.15216340090E+03  0.11310643789E+03  0.11549878882E+03  0.22402396543E+03  0.30000000000E+02 0.  1.
     200000    1    3    3    0    0 -0.37974903587E+03  0.52678416860E+03 -0.18385040319E+03  0.68243157993E+03  0.10100000000E+03 0.  1.
    -200001    1    1    2    0    0  0.90774197082E+03 -0.79149078029E+03 -0.41925172375E+03  0.14149184248E+04  0.61300000000E+03 0.  1.
<mgrwt>
<rscale>  0 0.27573866E+04</rscale>
<asrwt>0</asrwt>
<pdfrwt beam="1">  1        2 0.21870484E+00 0.27573866E+04</pdfrwt>
<pdfrwt beam="2">  1       -2 0.17737029E+00 0.27573866E+04</pdfrwt>
<totfact> 0.23406573E+00</totfact>
</mgrwt>
</event>
<event>
 8    1  0.7326756E-052  0.1354279E+04  0.7818608E-02  0.8987596E-01
         -2   -1    0    0    0  501 -0.00000000000E+00  0.00000000000E+00  0.20389391264E+03  0.20389391265E+03  0.25500000000E-02 0. -1.
          2   -1    0    0  501    0  0.00000000000E+00 -0.00000000000E+00 -0.22488051980E+04  0.22488051980E+04  0.25500000000E-02 0.  1.
     200001    2    1    2    0    0  0.28096980229E+03 -0.55154046136E+02 -0.97416603832E+03  0.11861090496E+04  0.61308173095E+03 0.  0.
    5000001    2    3    3    0    0  0.37914624918E+03 -0.22952696027E+03 -0.69149315436E+03  0.82534668016E+03  0.81239498764E+02 0.  0.
        -11    1    4    4    0    0  0.26611169033E+03 -0.12970378733E+03 -0.47801256396E+03  0.56225840633E+03  0.51100000000E-03 0. -1.
     200002    1    4    4    0    0  0.11303455885E+03 -0.99823172942E+02 -0.21348059040E+03  0.26308827384E+03  0.30000000000E+02 0.  1.
     200000    1    3    3    0    0 -0.98176446897E+02  0.17437291413E+03 -0.28267288395E+03  0.36076236948E+03  0.10100000000E+03 0. -1.
    -200001    1    1    2    0    0 -0.28096980229E+03  0.55154046136E+02 -0.10707452470E+04  0.12665900610E+04  0.61300000000E+03 0.  1.
<mgrwt>
<rscale>  0 0.13542787E+04</rscale>
<asrwt>0</asrwt>
<pdfrwt beam="1">  1        2 0.32125787E+00 0.13542787E+04</pdfrwt>
<pdfrwt beam="2">  1       -2 0.29127703E-01 0.13542787E+04</pdfrwt>
<totfact> 0.63238653E+01</totfact>
</mgrwt>
</event>
<event>
 8    1  0.7326756E-052  0.1375266E+04  0.7818608E-02  0.8971920E-01
          2   -1    0    0  501    0  0.00000000000E+00  0.00000000000E+00  0.10259404641E+04  0.10259404641E+04  0.25500000000E-02 0.  1.
         -2   -1    0    0    0  501 -0.00000000000E+00 -0.00000000000E+00 -0.46088341550E+03  0.46088341551E+03  0.25500000000E-02 0. -1.
     200001    2    1    2    0    0 -0.20781492651E+03  0.13214809943E+03  0.75474900637E+02  0.66456489156E+03  0.61261723009E+03 0.  0.
    5000001    2    3    3    0    0 -0.25588611735E+03  0.45543383586E+02  0.29638102562E+03  0.40224498714E+03  0.80046314695E+02 0.  0.
        -11    1    4    4    0    0 -0.22047051444E+03  0.45731264336E+02  0.23748233967E+03  0.32725595171E+03  0.51100000000E-03 0. -1.
     200002    1    4    4    0    0 -0.35415602903E+02 -0.18788075045E+00  0.58898685952E+02  0.74989035433E+02  0.30000000000E+02 0. -1.
     200000    1    3    3    0    0  0.48071190839E+02  0.86604715849E+02 -0.22090612498E+03  0.26231990441E+03  0.10100000000E+03 0. -1.
    -200001    1    1    2    0    0  0.20781492651E+03 -0.13214809943E+03  0.48958214799E+03  0.82225898809E+03  0.61300000000E+03 0.  1.
<mgrwt>
<rscale>  0 0.13752657E+04</rscale>
<asrwt>0</asrwt>
<pdfrwt beam="1">  1        2 0.14656292E+00 0.13752657E+04</pdfrwt>
<pdfrwt beam="2">  1       -2 0.65840488E-01 0.13752657E+04</pdfrwt>
<totfact> 0.56128614E+01</totfact>
</mgrwt>
</event>
<event>
 8    1  0.7326756E-052  0.1806078E+04  0.7818608E-02  0.8703074E-01
         -2   -1    0    0    0  501 -0.00000000000E+00  0.00000000000E+00  0.50791357003E+03  0.50791357003E+03  0.25500000000E-02 0.  1.
          2   -1    0    0  501    0  0.00000000000E+00 -0.00000000000E+00 -0.16055468620E+04  0.16055468620E+04  0.25500000000E-02 0. -1.
     200001    2    1    2    0    0 -0.51906795910E+03  0.28327752245E+03 -0.19920687078E+03  0.87547144371E+03  0.61407586706E+03 0.  0.
    5000001    2    3    3    0    0  0.12306374837E+03  0.26071939264E+02 -0.73390557266E+02  0.16517672566E+03  0.77927816754E+02 0.  0.
        -11    1    4    4    0    0  0.82193242977E+02  0.16239194569E+02 -0.76480845634E+02  0.11344055880E+03  0.51100000000E-03 0. -1.
     200002    1    4    4    0    0  0.40870505391E+02  0.98327446947E+01  0.30902883685E+01  0.51736166860E+02  0.30000000000E+02 0. -1.
     200000    1    3    3    0    0 -0.64213170746E+03  0.25720558318E+03 -0.12581631351E+03  0.71029471806E+03  0.10100000000E+03 0. -1.
    -200001    1    1    2    0    0  0.51906795910E+03 -0.28327752245E+03 -0.89842642115E+03  0.12379889883E+04  0.61300000000E+03 0.  1.
<mgrwt>
<rscale>  0 0.18060776E+04</rscale>
<asrwt>0</asrwt>
<pdfrwt beam="1">  1        2 0.22936384E+00 0.18060776E+04</pdfrwt>
<pdfrwt beam="2">  1       -2 0.72559082E-01 0.18060776E+04</pdfrwt>
<totfact> 0.20900561E+01</totfact>
</mgrwt>
</event>
<event>
 8    1  0.7326756E-052  0.1614946E+04  0.7818608E-02  0.8811418E-01
          2   -1    0    0  501    0  0.00000000000E+00  0.00000000000E+00  0.88896421805E+03  0.88896421806E+03  0.25500000000E-02 0.  1.
         -2   -1    0    0    0  501 -0.00000000000E+00 -0.00000000000E+00 -0.73345203192E+03  0.73345203192E+03  0.25500000000E-02 0. -1.
     200001    2    1    2    0    0 -0.26950174639E+03  0.48106503756E+02  0.52839289598E+03  0.85446153075E+03  0.61315579424E+03 0.  0.
    5000001    2    3    3    0    0 -0.83012071141E+02 -0.26164095113E+03  0.30837611849E+03  0.41934055085E+03  0.73509699137E+02 0.  0.
        -11    1    4    4    0    0 -0.58041777195E+02 -0.20185799910E+03  0.25401204127E+03  0.32960220996E+03  0.51100000000E-03 0. -1.
     200002    1    4    4    0    0 -0.24970293946E+02 -0.59782952029E+02  0.54364077219E+02  0.89738340886E+02  0.30000000000E+02 0.  1.
     200000    1    3    3    0    0 -0.18648967524E+03  0.30974745488E+03  0.22001677748E+03  0.43512097991E+03  0.10100000000E+03 0.  1.
    -200001    1    1    2    0    0  0.26950174639E+03 -0.48106503756E+02 -0.37288070984E+03  0.76795471922E+03  0.61300000000E+03 0. -1.
<mgrwt>
<rscale>  0 0.16149460E+04</rscale>
<asrwt>0</asrwt>
<pdfrwt beam="1">  1        2 0.12699489E+00 0.16149460E+04</pdfrwt>
<pdfrwt beam="2">  1       -2 0.10477886E+00 0.16149460E+04</pdfrwt>
<totfact> 0.23459403E+01</totfact>
</mgrwt>
</event>
<event>
 8    1  0.7326756E-052  0.1648850E+04  0.7818608E-02  0.8791087E-01
          2   -1    0    0  501    0  0.00000000000E+00  0.00000000000E+00  0.55732886239E+03  0.55732886240E+03  0.25500000000E-02 0.  1.
         -2   -1    0    0    0  501 -0.00000000000E+00 -0.00000000000E+00 -0.12195248442E+04  0.12195248442E+04  0.25500000000E-02 0. -1.
     200001    2    1    2    0    0  0.23028768391E+03 -0.34506185799E+02 -0.86883647476E+03  0.10893274253E+04  0.61443821929E+03 0.  0.
    5000001    2    3    3    0    0  0.28729111464E+03  0.36441554076E+02 -0.90065482310E+03  0.94969798639E+03  0.82963748433E+02 0.  0.
        -11    1    4    4    0    0  0.70223783385E+02  0.23596079648E+02 -0.33160053593E+03  0.33977502874E+03  0.51100000000E-03 0. -1.
     200002    1    4    4    0    0  0.21706733126E+03  0.12845474428E+02 -0.56905428717E+03  0.60992295765E+03  0.30000000000E+02 0. -1.
     200000    1    3    3    0    0 -0.57003430730E+02 -0.70947739875E+02  0.31818348341E+02  0.13962943887E+03  0.10100000000E+03 0.  1.
    -200001    1    1    2    0    0 -0.23028768391E+03  0.34506185799E+02  0.20664049295E+03  0.68752628135E+03  0.61300000000E+03 0.  1.
<mgrwt>
<rscale>  0 0.16488498E+04</rscale>
<asrwt>0</asrwt>
<pdfrwt beam="1">  1        2 0.79618409E-01 0.16488498E+04</pdfrwt>
<pdfrwt beam="2">  1       -2 0.17421783E+00 0.16488498E+04</pdfrwt>
<totfact> 0.11271228E+01</totfact>
</mgrwt>
</event>
<event>
 8    1  0.7326756E-052  0.1588299E+04  0.7818608E-02  0.8827769E-01
          2   -1    0    0  501    0  0.00000000000E+00  0.00000000000E+00  0.10370123989E+04  0.10370123989E+04  0.25500000000E-02 0.  1.
         -2   -1    0    0    0  501 -0.00000000000E+00 -0.00000000000E+00 -0.60816401257E+03  0.60816401258E+03  0.25500000000E-02 0. -1.
     200001    2    1    2    0    0  0.36235302402E+03  0.23129731698E+03 -0.59005236645E+02  0.75154991216E+03  0.61363465487E+03 0.  0.
    5000001    2    3    3    0    0  0.39601738984E+03 -0.79424605119E+02  0.16673736120E+02  0.41448951800E+03  0.91572409038E+02 0.  0.
        -11    1    4    4    0    0  0.44831517525E+02  0.11797453129E+02 -0.15774505354E+02  0.48968151725E+02  0.51100000000E-03 0. -1.
     200002    1    4    4    0    0  0.35118587232E+03 -0.91222058248E+02  0.32448241474E+02  0.36552136627E+03  0.30000000000E+02 0. -1.
     200000    1    3    3    0    0 -0.33664365820E+02  0.31072192210E+03 -0.75678972764E+02  0.33706039417E+03  0.10100000000E+03 0.  1.
    -200001    1    1    2    0    0 -0.36235302402E+03 -0.23129731698E+03  0.48785362300E+03  0.89362649934E+03  0.61300000000E+03 0.  1.
<mgrwt>
<rscale>  0 0.15882992E+04</rscale>
<asrwt>0</asrwt>
<pdfrwt beam="1">  1        2 0.14814463E+00 0.15882992E+04</pdfrwt>
<pdfrwt beam="2">  1       -2 0.86880574E-01 0.15882992E+04</pdfrwt>
<totfact> 0.29391880E+01</totfact>
</mgrwt>
</event>
<event>
 8    1  0.7326756E-052  0.1523398E+04  0.7818608E-02  0.8869041E-01
          2   -1    0    0  501    0  0.00000000000E+00  0.00000000000E+00  0.31705812426E+03  0.31705812427E+03  0.25500000000E-02 0. -1.
         -2   -1    0    0    0  501 -0.00000000000E+00 -0.00000000000E+00 -0.18299019656E+04  0.18299019656E+04  0.25500000000E-02 0.  1.
     200001    2    1    2    0    0 -0.52878095215E+02 -0.44152971773E+03 -0.64662984227E+03  0.99637750840E+03  0.61391644524E+03 0.  0.
    5000001    2    3    3    0    0  0.37093050499E+02 -0.30229738937E+03 -0.89935536860E+01  0.32984807556E+03  0.12632997636E+03 0.  0.
        -11    1    4    4    0    0  0.73152266543E+01 -0.12468510352E+03 -0.62406361506E+02  0.13962249653E+03  0.51100000000E-03 0. -1.
     200002    1    4    4    0    0  0.29777823845E+02 -0.17761228585E+03  0.53412807820E+02  0.19022557903E+03  0.30000000000E+02 0. -1.
     200000    1    3    3    0    0 -0.89971145714E+02 -0.13923232836E+03 -0.63763628859E+03  0.66652943284E+03  0.10100000000E+03 0. -1.
    -200001    1    1    2    0    0  0.52878095215E+02  0.44152971773E+03 -0.86621399902E+03  0.11505825814E+04  0.61300000000E+03 0.  1.
<mgrwt>
<rscale>  0 0.15233979E+04</rscale>
<asrwt>0</asrwt>
<pdfrwt beam="1">  1        2 0.45294019E-01 0.15233979E+04</pdfrwt>
<pdfrwt beam="2">  1       -2 0.26141456E+00 0.15233979E+04</pdfrwt>
<totfact> 0.59339481E+00</totfact>
</mgrwt>
</event>
<event>
 8    1  0.7326756E-052  0.1237864E+04  0.7818608E-02  0.9080345E-01
         -2   -1    0    0    0  501 -0.00000000000E+00  0.00000000000E+00  0.30133379721E+03  0.30133379722E+03  0.25500000000E-02 0. -1.
          2   -1    0    0  501    0  0.00000000000E+00 -0.00000000000E+00 -0.12712710073E+04  0.12712710073E+04  0.25500000000E-02 0.  1.
     200001    2    1    2    0    0 -0.49174207852E+02  0.40560255350E+02 -0.41011670019E+03  0.73999971186E+03  0.61265049478E+03 0.  0.
    5000001    2    3    3    0    0  0.19534126445E+03  0.76027541072E+02 -0.41700148643E+03  0.47299007752E+03  0.76752701203E+02 0.  0.
        -11    1    4    4    0    0  0.43075570707E+02  0.24062273894E+02 -0.45844668171E+02  0.67351550959E+02  0.51100000000E-03 0. -1.
     200002    1    4    4    0    0  0.15226569375E+03  0.51965267178E+02 -0.37115681826E+03  0.40563852656E+03  0.30000000000E+02 0. -1.
     200000    1    3    3    0    0 -0.24451547231E+03 -0.35467285722E+02  0.68847862389E+01  0.26700963435E+03  0.10100000000E+03 0.  1.
    -200001    1    1    2    0    0  0.49174207852E+02 -0.40560255350E+02 -0.55982050991E+03  0.83260509267E+03  0.61300000000E+03 0.  1.
<mgrwt>
<rscale>  0 0.12378642E+04</rscale>
<asrwt>0</asrwt>
<pdfrwt beam="1">  1        2 0.18161014E+00 0.12378642E+04</pdfrwt>
<pdfrwt beam="2">  1       -2 0.43047686E-01 0.12378642E+04</pdfrwt>
<totfact> 0.98061305E+01</totfact>
</mgrwt>
</event>
<event>
 8    1  0.7326756E-052  0.2051671E+04  0.7818608E-02  0.8582837E-01
          2   -1    0    0  501    0  0.00000000000E+00  0.00000000000E+00  0.10080629944E+04  0.10080629944E+04  0.25500000000E-02 0.  1.
         -2   -1    0    0    0  501 -0.00000000000E+00 -0.00000000000E+00 -0.10439214310E+04  0.10439214310E+04  0.25500000000E-02 0. -1.
     200001    2    1    2    0    0 -0.20079065215E+03 -0.22964390143E+03  0.74629854304E+03  0.10124692749E+04  0.61243718839E+03 0.  0.
    5000001    2    3    3    0    0  0.11656944055E+03  0.13176479743E+03  0.19397588702E+03  0.27314864589E+03  0.77673301046E+02 0.  0.
        -11    1    4    4    0    0  0.45544982590E+02  0.22788870946E+02  0.92026562864E+02  0.10517873526E+03  0.51100000000E-03 0. -1.
     200002    1    4    4    0    0  0.71024457963E+02  0.10897592648E+03  0.10194932415E+03  0.16796991063E+03  0.30000000000E+02 0.  1.
     200000    1    3    3    0    0 -0.31736009270E+03 -0.36140869886E+03  0.55232265602E+03  0.73932062896E+03  0.10100000000E+03 0.  1.
    -200001    1    1    2    0    0  0.20079065215E+03  0.22964390143E+03 -0.78215697960E+03  0.10395151505E+04  0.61300000000E+03 0. -1.
<mgrwt>
<rscale>  0 0.20516711E+04</rscale>
<asrwt>0</asrwt>
<pdfrwt beam="1">  1        2 0.14400900E+00 0.20516711E+04</pdfrwt>
<pdfrwt beam="2">  1       -2 0.14913163E+00 0.20516711E+04</pdfrwt>
<totfact> 0.78468535E+00</totfact>
</mgrwt>
</event>
<event>
 8    1  0.7326756E-052  0.1418432E+04  0.7818608E-02  0.8940583E-01
          2   -1    0    0  501    0  0.00000000000E+00  0.00000000000E+00  0.14648330178E+04  0.14648330178E+04  0.25500000000E-02 0.  1.
         -2   -1    0    0    0  501 -0.00000000000E+00 -0.00000000000E+00 -0.34337543912E+03  0.34337543913E+03  0.25500000000E-02 0. -1.
     200001    2    1    2    0    0  0.62467367378E+02 -0.11860914350E+03  0.98206848658E+03  0.11654265189E+04  0.61301725719E+03 0.  0.
    5000001    2    3    3    0    0  0.15676302127E+03  0.20077875133E+03  0.30898559847E+03  0.40770501859E+03  0.76580221329E+02 0.  0.
        -11    1    4    4    0    0  0.26561727565E+02  0.34825678449E+01  0.21803131654E+02  0.34540269255E+02  0.51100000000E-03 0. -1.
     200002    1    4    4    0    0  0.13020129370E+03  0.19729618348E+03  0.28718246682E+03  0.37316474933E+03  0.30000000000E+02 0. -1.
     200000    1    3    3    0    0 -0.94295653891E+02 -0.31938789482E+03  0.67308288811E+03  0.75772150027E+03  0.10100000000E+03 0.  1.
    -200001    1    1    2    0    0 -0.62467367378E+02  0.11860914350E+03  0.13938909210E+03  0.64278193807E+03  0.61300000000E+03 0. -1.
<mgrwt>
<rscale>  0 0.14184325E+04</rscale>
<asrwt>0</asrwt>
<pdfrwt beam="1">  1        2 0.20926186E+00 0.14184325E+04</pdfrwt>
<pdfrwt beam="2">  1       -2 0.49053634E-01 0.14184325E+04</pdfrwt>
<totfact> 0.58431730E+01</totfact>
</mgrwt>
</event>
<event>
 8    1  0.7326756E-052  0.1415536E+04  0.7818608E-02  0.8942649E-01
         -2   -1    0    0    0  501 -0.00000000000E+00  0.00000000000E+00  0.37256322170E+03  0.37256322171E+03  0.25500000000E-02 0. -1.
          2   -1    0    0  501    0  0.00000000000E+00 -0.00000000000E+00 -0.13445653071E+04  0.13445653071E+04  0.25500000000E-02 0.  1.
     200001    2    1    2    0    0  0.26467868875E+03  0.22627957294E+03 -0.41037278786E+03  0.81576638115E+03  0.61303483603E+03 0.  0.
    5000001    2    3    3    0    0 -0.57431756269E+01 -0.16404841566E+03 -0.24017548960E+03  0.30132295010E+03  0.78526350372E+02 0.  0.
        -11    1    4    4    0    0  0.92429599005E+01 -0.13918511823E+03 -0.19568394357E+03  0.24031257815E+03  0.51100000000E-03 0. -1.
     200002    1    4    4    0    0 -0.14986135527E+02 -0.24863297431E+02 -0.44491546033E+02  0.61010371951E+02  0.30000000000E+02 0.  1.
     200000    1    3    3    0    0  0.27042186437E+03  0.39032798860E+03 -0.17019729826E+03  0.51444343105E+03  0.10100000000E+03 0. -1.
    -200001    1    1    2    0    0 -0.26467868875E+03 -0.22627957294E+03 -0.56162929756E+03  0.90136214769E+03  0.61300000000E+03 0. -1.
<mgrwt>
<rscale>  0 0.14155361E+04</rscale>
<asrwt>0</asrwt>
<pdfrwt beam="1">  1        2 0.19208076E+00 0.14155361E+04</pdfrwt>
<pdfrwt beam="2">  1       -2 0.53223318E-01 0.14155361E+04</pdfrwt>
<totfact> 0.57455742E+01</totfact>
</mgrwt>
</event>
<event>
 8    1  0.7326756E-052  0.1419078E+04  0.7818608E-02  0.8940124E-01
         -2   -1    0    0    0  501 -0.00000000000E+00  0.00000000000E+00  0.13984450728E+03  0.13984450730E+03  0.25500000000E-02 0. -1.
          2   -1    0    0  501    0  0.00000000000E+00 -0.00000000000E+00 -0.36000370967E+04  0.36000370967E+04  0.25500000000E-02 0.  1.
     200001    2    1    2    0    0  0.21108869011E+03  0.71208013473E+01 -0.96890341672E+03  0.11656050293E+04  0.61257825015E+03 0.  0.
    5000001    2    3    3    0    0 -0.73090047608E+02  0.24115813170E+03 -0.45875631580E+03  0.52843778948E+03  0.72730602281E+02 0.  0.
        -11    1    4    4    0    0 -0.69092280211E+02  0.19420728654E+03 -0.35056347169E+03  0.40667549842E+03  0.51100000000E-03 0. -1.
     200002    1    4    4    0    0 -0.39977673964E+01  0.46950845164E+02 -0.10819284411E+03  0.12176229105E+03  0.30000000000E+02 0.  1.
     200000    1    3    3    0    0  0.28417873771E+03 -0.23403733036E+03 -0.51014710091E+03  0.63716723985E+03  0.10100000000E+03 0.  1.
    -200001    1    1    2    0    0 -0.21108869011E+03 -0.71208013473E+01 -0.24912891727E+04  0.25742765747E+04  0.61300000000E+03 0. -1.
<mgrwt>
<rscale>  0 0.14190777E+04</rscale>
<asrwt>0</asrwt>
<pdfrwt beam="1">  1        2 0.51429096E+00 0.14190777E+04</pdfrwt>
<pdfrwt beam="2">  1       -2 0.19977789E-01 0.14190777E+04</pdfrwt>
<totfact> 0.22029984E+01</totfact>
</mgrwt>
</event>
<event>
 8    1  0.7326756E-052  0.1336861E+04  0.7818608E-02  0.9000834E-01
         -2   -1    0    0    0  501 -0.00000000000E+00  0.00000000000E+00  0.49146687933E+03  0.49146687933E+03  0.25500000000E-02 0. -1.
          2   -1    0    0  501    0  0.00000000000E+00 -0.00000000000E+00 -0.90911323920E+03  0.90911323920E+03  0.25500000000E-02 0.  1.
     200001    2    1    2    0    0 -0.22277093035E+03 -0.13691244998E+03 -0.26350838064E+03  0.71654837730E+03  0.61288906336E+03 0.  0.
    5000001    2    3    3    0    0  0.62591154061E+02  0.15931909908E+03 -0.18800524298E+03  0.28633171831E+03  0.13168011856E+03 0.  0.
        -11    1    4    4    0    0 -0.30644611289E+02  0.20827949570E+01 -0.26413168331E+02  0.40510315938E+02  0.51100000000E-03 0. -1.
     200002    1    4    4    0    0  0.93235765349E+02  0.15723630412E+03 -0.16159207465E+03  0.24582140237E+03  0.30000000000E+02 0. -1.
     200000    1    3    3    0    0 -0.28536208441E+03 -0.29623154906E+03 -0.75503137659E+02  0.43021665899E+03  0.10100000000E+03 0. -1.
    -200001    1    1    2    0    0  0.22277093035E+03  0.13691244998E+03 -0.15413797923E+03  0.68403174123E+03  0.61300000000E+03 0. -1.
<mgrwt>
<rscale>  0 0.13368606E+04</rscale>
<asrwt>0</asrwt>
<pdfrwt beam="1">  1        2 0.12987332E+00 0.13368606E+04</pdfrwt>
<pdfrwt beam="2">  1       -2 0.70209555E-01 0.13368606E+04</pdfrwt>
<totfact> 0.57997511E+01</totfact>
</mgrwt>
</event>
<event>
 8    1  0.7326756E-052  0.1515147E+04  0.7818608E-02  0.8874442E-01
         -2   -1    0    0    0  501 -0.00000000000E+00  0.00000000000E+00  0.84290959608E+03  0.84290959609E+03  0.25500000000E-02 0. -1.
          2   -1    0    0  501    0  0.00000000000E+00 -0.00000000000E+00 -0.68087694414E+03  0.68087694415E+03  0.25500000000E-02 0.  1.
     200001    2    1    2    0    0  0.31912289401E+03 -0.30465479212E+03  0.19483504232E+02  0.75518832051E+03  0.61259760745E+03 0.  0.
    5000001    2    3    3    0    0  0.65655209329E+00 -0.18698723472E+03 -0.24195485307E+03  0.31494125389E+03  0.75373639089E+02 0.  0.
        -11    1    4    4    0    0  0.28757547064E+02 -0.11599111411E+03 -0.13943330236E+03  0.18363709013E+03  0.51100000000E-03 0. -1.
     200002    1    4    4    0    0 -0.28100994971E+02 -0.70996120609E+02 -0.10252155071E+03  0.13130416375E+03  0.30000000000E+02 0. -1.
     200000    1    3    3    0    0  0.31846634192E+03 -0.11766755740E+03  0.26143835730E+03  0.44024706662E+03  0.10100000000E+03 0. -1.
    -200001    1    1    2    0    0 -0.31912289401E+03  0.30465479212E+03  0.14254914771E+03  0.76859821972E+03  0.61300000000E+03 0. -1.
<mgrwt>
<rscale>  0 0.15151471E+04</rscale>
<asrwt>0</asrwt>
<pdfrwt beam="1">  1        2 0.97268135E-01 0.15151471E+04</pdfrwt>
<pdfrwt beam="2">  1       -2 0.12041566E+00 0.15151471E+04</pdfrwt>
<totfact> 0.23709099E+01</totfact>
</mgrwt>
</event>
<event>
 8    1  0.7326756E-052  0.1267249E+04  0.7818608E-02  0.9055948E-01
         -2   -1    0    0    0  501 -0.00000000000E+00  0.00000000000E+00  0.17553860162E+03  0.17553860164E+03  0.25500000000E-02 0. -1.
          2   -1    0    0  501    0  0.00000000000E+00 -0.00000000000E+00 -0.22871306023E+04  0.22871306023E+04  0.25500000000E-02 0.  1.
     200001    2    1    2    0    0 -0.29840261605E+02 -0.11321328658E+03 -0.84347951961E+03  0.10493093934E+04  0.61309445727E+03 0.  0.
    5000001    2    3    3    0    0  0.10312810628E+03  0.20304793716E+03 -0.17763925756E+03  0.29350121462E+03  0.52186071564E+02 0.  0.
        -11    1    4    4    0    0 -0.27918146215E+01  0.44933561928E+01 -0.94195833334E-01  0.52908743958E+01  0.51100000000E-03 0. -1.
     200002    1    4    4    0    0  0.10591992090E+03  0.19855458097E+03 -0.17754506173E+03  0.28821034022E+03  0.30000000000E+02 0. -1.
     200000    1    3    3    0    0 -0.13296836788E+03 -0.31626122374E+03 -0.66584026205E+03  0.75580817875E+03  0.10100000000E+03 0.  1.
    -200001    1    1    2    0    0  0.29840261605E+02  0.11321328658E+03 -0.12681124810E+04  0.14133598105E+04  0.61300000000E+03 0.  1.
<mgrwt>
<rscale>  0 0.12672485E+04</rscale>
<asrwt>0</asrwt>
<pdfrwt beam="1">  1        2 0.32673292E+00 0.12672485E+04</pdfrwt>
<pdfrwt beam="2">  1       -2 0.25076945E-01 0.12672485E+04</pdfrwt>
<totfact> 0.80046383E+01</totfact>
</mgrwt>
</event>
<event>
 8    1  0.7326756E-052  0.1291389E+04  0.7818608E-02  0.9036422E-01
         -2   -1    0    0    0  501 -0.00000000000E+00  0.00000000000E+00  0.23140040890E+03  0.23140040891E+03  0.25500000000E-02 0. -1.
          2   -1    0    0  501    0  0.00000000000E+00 -0.00000000000E+00 -0.18017302112E+04  0.18017302112E+04  0.25500000000E-02 0.  1.
     200001    2    1    2    0    0 -0.63947211900E+02 -0.11903922169E+02 -0.48263519240E+03  0.78289883612E+03  0.61299503211E+03 0.  0.
    5000001    2    3    3    0    0  0.25114997812E+03  0.86905924353E+01 -0.29600213097E+03  0.40244742949E+03  0.10580564287E+03 0.  0.
        -11    1    4    4    0    0  0.18086623665E+03  0.13029913740E+02 -0.26214652899E+03  0.31875253234E+03  0.51100000000E-03 0. -1.
     200002    1    4    4    0    0  0.70283741468E+02 -0.43393213043E+01 -0.33855601979E+02  0.83694897153E+02  0.30000000000E+02 0. -1.
     200000    1    3    3    0    0 -0.31509719002E+03 -0.20594514604E+02 -0.18663306143E+03  0.38045140663E+03  0.10100000000E+03 0. -1.
    -200001    1    1    2    0    0  0.63947211900E+02  0.11903922169E+02 -0.10876946099E+04  0.12502317839E+04  0.61300000000E+03 0.  1.
<mgrwt>
<rscale>  0 0.12913886E+04</rscale>
<asrwt>0</asrwt>
<pdfrwt beam="1">  1        2 0.25739002E+00 0.12913886E+04</pdfrwt>
<pdfrwt beam="2">  1       -2 0.33057202E-01 0.12913886E+04</pdfrwt>
<totfact> 0.85090767E+01</totfact>
</mgrwt>
</event>
<event>
 8    1  0.7326756E-052  0.1850666E+04  0.7818608E-02  0.8679810E-01
          2   -1    0    0  501    0  0.00000000000E+00  0.00000000000E+00  0.36459257329E+04  0.36459257329E+04  0.25500000000E-02 0.  1.
         -2   -1    0    0    0  501 -0.00000000000E+00 -0.00000000000E+00 -0.23484871924E+03  0.23484871925E+03  0.25500000000E-02 0. -1.
     200001    2    1    2    0    0 -0.67610816871E+03 -0.14597995846E+03  0.17879228830E+04  0.20129332555E+04  0.61384008623E+03 0.  0.
    5000001    2    3    3    0    0 -0.57354209266E+03  0.11901904839E+03  0.90772521464E+03  0.10825068968E+04  0.68848023756E+02 0.  0.
        -11    1    4    4    0    0 -0.45194057515E+03  0.87909463505E+02  0.72366276133E+03  0.85770982819E+03  0.51100000000E-03 0. -1.
     200002    1    4    4    0    0 -0.12160151751E+03  0.31109584886E+02  0.18406245331E+03  0.22479706859E+03  0.30000000000E+02 0.  1.
     200000    1    3    3    0    0 -0.10256607606E+03 -0.26499900685E+03  0.88019766837E+03  0.93042635872E+03  0.10100000000E+03 0. -1.
    -200001    1    1    2    0    0  0.67610816871E+03  0.14597995846E+03  0.16231541307E+04  0.18678411967E+04  0.61300000000E+03 0. -1.
<mgrwt>
<rscale>  0 0.18506658E+04</rscale>
<asrwt>0</asrwt>
<pdfrwt beam="1">  1        2 0.52084654E+00 0.18506658E+04</pdfrwt>
<pdfrwt beam="2">  1       -2 0.33549817E-01 0.18506658E+04</pdfrwt>
<totfact> 0.76823445E+00</totfact>
</mgrwt>
</event>
<event>
 8    1  0.7326756E-052  0.3663068E+04  0.7818608E-02  0.8076196E-01
         -2   -1    0    0    0  501 -0.00000000000E+00  0.00000000000E+00  0.11458447058E+04  0.11458447058E+04  0.25500000000E-02 0. -1.
          2   -1    0    0  501    0  0.00000000000E+00 -0.00000000000E+00 -0.29275498017E+04  0.29275498017E+04  0.25500000000E-02 0.  1.
     200001    2    1    2    0    0 -0.13548071634E+04  0.34212139221E+03  0.23549188885E+03  0.15440858723E+04  0.61334758028E+03 0.  0.
    5000001    2    3    3    0    0 -0.97347366960E+03  0.17976164385E+03  0.41961438063E+03  0.10794591260E+04  0.95867315897E+02 0.  0.
        -11    1    4    4    0    0 -0.63199387936E+03  0.80281010625E+02  0.25161007051E+03  0.68495907308E+03  0.51100000000E-03 0. -1.
     200002    1    4    4    0    0 -0.34147979025E+03  0.99480633229E+02  0.16800431011E+03  0.39450005291E+03  0.30000000000E+02 0. -1.
     200000    1    3    3    0    0 -0.38133349381E+03  0.16235974835E+03 -0.18412249178E+03  0.46462674629E+03  0.10100000000E+03 0.  1.
    -200001    1    1    2    0    0  0.13548071634E+04 -0.34212139221E+03 -0.20171969848E+04  0.25293086353E+04  0.61300000000E+03 0.  1.
<mgrwt>
<rscale>  0 0.36630684E+04</rscale>
<asrwt>0</asrwt>
<pdfrwt beam="1">  1        2 0.41822140E+00 0.36630684E+04</pdfrwt>
<pdfrwt beam="2">  1       -2 0.16369210E+00 0.36630684E+04</pdfrwt>
<totfact> 0.50151658E-01</totfact>
</mgrwt>
</event>
<event>
 8    1  0.7326756E-052  0.1875375E+04  0.7818608E-02  0.8667212E-01
         -2   -1    0    0    0  501 -0.00000000000E+00  0.00000000000E+00  0.25016125513E+03  0.25016125514E+03  0.25500000000E-02 0. -1.
          2   -1    0    0  501    0  0.00000000000E+00 -0.00000000000E+00 -0.35147649909E+04  0.35147649909E+04  0.25500000000E-02 0.  1.
     200001    2    1    2    0    0 -0.47235967156E+03  0.31018686839E+03 -0.77080122698E+03  0.11354473042E+04  0.61299795800E+03 0.  0.
    5000001    2    3    3    0    0 -0.10494603578E+03 -0.16556277985E+03 -0.11283651078E+03  0.23853645284E+03  0.75781638097E+02 0.  0.
        -11    1    4    4    0    0 -0.14974904464E+02 -0.69606707345E+02 -0.17450211959E+02  0.73306557475E+02  0.51100000000E-03 0. -1.
     200002    1    4    4    0    0 -0.89971131318E+02 -0.95956072504E+02 -0.95386298817E+02  0.16522989537E+03  0.30000000000E+02 0. -1.
     200000    1    3    3    0    0 -0.36741363578E+03  0.47574964823E+03 -0.65796471621E+03  0.89691085138E+03  0.10100000000E+03 0. -1.
    -200001    1    1    2    0    0  0.47235967156E+03 -0.31018686839E+03 -0.24938025088E+04  0.26294789418E+04  0.61300000000E+03 0.  1.
<mgrwt>
<rscale>  0 0.18753752E+04</rscale>
<asrwt>0</asrwt>
<pdfrwt beam="1">  1        2 0.50210925E+00 0.18753752E+04</pdfrwt>
<pdfrwt beam="2">  1       -2 0.35737324E-01 0.18753752E+04</pdfrwt>
<totfact> 0.81934631E+00</totfact>
</mgrwt>
</event>
<event>
 8    1  0.7326756E-052  0.1548250E+04  0.7818608E-02  0.8852987E-01
          2   -1    0    0  501    0  0.00000000000E+00  0.00000000000E+00  0.12845295075E+04  0.12845295075E+04  0.25500000000E-02 0.  1.
         -2   -1    0    0    0  501 -0.00000000000E+00 -0.00000000000E+00 -0.46652819675E+03  0.46652819676E+03  0.25500000000E-02 0. -1.
     200001    2    1    2    0    0  0.26006959372E+03 -0.17440975953E+03  0.15992576389E+02  0.69415564269E+03  0.61930714188E+03 0.  0.
    5000001    2    3    3    0    0 -0.57105611871E+02 -0.10444760658E+03 -0.23258530029E+03  0.27286384991E+03  0.78666417571E+02 0.  0.
        -11    1    4    4    0    0 -0.16291936583E+02 -0.10901688526E+02 -0.10468961339E+03  0.10650910366E+03  0.51100000000E-03 0. -1.
     200002    1    4    4    0    0 -0.40813675289E+02 -0.93545918050E+02 -0.12789568690E+03  0.16635474625E+03  0.30000000000E+02 0. -1.
     200000    1    3    3    0    0  0.31717520559E+03 -0.69962152950E+02  0.24857787668E+03  0.42129179278E+03  0.10100000000E+03 0.  1.
    -200001    1    1    2    0    0 -0.26006959372E+03  0.17440975953E+03  0.80200873440E+03  0.10569020616E+04  0.61300000000E+03 0.  1.
<mgrwt>
<rscale>  0 0.15482496E+04</rscale>
<asrwt>0</asrwt>
<pdfrwt beam="1">  1        2 0.18350422E+00 0.15482496E+04</pdfrwt>
<pdfrwt beam="2">  1       -2 0.66646885E-01 0.15482496E+04</pdfrwt>
<totfact> 0.38203632E+01</totfact>
</mgrwt>
</event>
<event>
 8    1  0.7326756E-052  0.1719752E+04  0.7818608E-02  0.8750179E-01
          2   -1    0    0  501    0  0.00000000000E+00  0.00000000000E+00  0.26207321248E+04  0.26207321248E+04  0.25500000000E-02 0.  1.
         -2   -1    0    0    0  501 -0.00000000000E+00 -0.00000000000E+00 -0.28212983181E+03  0.28212983182E+03  0.25500000000E-02 0. -1.
     200001    2    1    2    0    0  0.45670346535E+03 -0.19518513744E+03  0.59049900978E+03  0.98497004573E+03  0.61221043546E+03 0.  0.
    5000001    2    3    3    0    0  0.20008804145E+03 -0.35185967705E+03  0.50163103040E+03  0.65558136210E+03  0.11963601051E+03 0.  0.
        -11    1    4    4    0    0  0.15603380412E+03 -0.29903562212E+03  0.45792892585E+03  0.56874225485E+03  0.51100000000E-03 0. -1.
     200002    1    4    4    0    0  0.44054237329E+02 -0.52824054926E+02  0.43702104552E+02  0.86839107248E+02  0.30000000000E+02 0.  1.
     200000    1    3    3    0    0  0.25661542389E+03  0.15667453960E+03  0.88867979380E+02  0.32938868362E+03  0.10100000000E+03 0. -1.
    -200001    1    1    2    0    0 -0.45670346535E+03  0.19518513744E+03  0.17481032833E+04  0.19178919109E+04  0.61300000000E+03 0.  1.
<mgrwt>
<rscale>  0 0.17197520E+04</rscale>
<asrwt>0</asrwt>
<pdfrwt beam="1">  1        2 0.37439031E+00 0.17197520E+04</pdfrwt>
<pdfrwt beam="2">  1       -2 0.40304261E-01 0.17197520E+04</pdfrwt>
<totfact> 0.21125463E+01</totfact>
</mgrwt>
</event>
<event>
 8    1  0.7326756E-052  0.1317314E+04  0.7818608E-02  0.9015947E-01
          2   -1    0    0  501    0  0.00000000000E+00  0.00000000000E+00  0.26929403239E+03  0.26929403240E+03  0.25500000000E-02 0.  1.
         -2   -1    0    0    0  501 -0.00000000000E+00 -0.00000000000E+00 -0.16109862587E+04  0.16109862587E+04  0.25500000000E-02 0. -1.
     200001    2    1    2    0    0  0.22270409593E+03 -0.15687247494E+02 -0.53881788064E+03  0.84576619309E+03  0.61249697207E+03 0.  0.
    5000001    2    3    3    0    0 -0.14495687387E+03 -0.77797732995E+02 -0.14731855720E+02  0.19469057333E+03  0.10306507280E+03 0.  0.
        -11    1    4    4    0    0 -0.13858311974E+03 -0.44043882360E+02 -0.25982934277E+02  0.14771681531E+03  0.51100000000E-03 0. -1.
     200002    1    4    4    0    0 -0.63737541223E+01 -0.33753850635E+02  0.11251078557E+02  0.46973758025E+02  0.30000000000E+02 0. -1.
     200000    1    3    3    0    0  0.36766096980E+03  0.62110485501E+02 -0.52408602492E+03  0.65107561975E+03  0.10100000000E+03 0.  1.
    -200001    1    1    2    0    0 -0.22270409593E+03  0.15687247494E+02 -0.80287434570E+03  0.10345140980E+04  0.61300000000E+03 0. -1.
<mgrwt>
<rscale>  0 0.13173139E+04</rscale>
<asrwt>0</asrwt>
<pdfrwt beam="1">  1        2 0.38470577E-01 0.13173139E+04</pdfrwt>
<pdfrwt beam="2">  1       -2 0.23014089E+00 0.13173139E+04</pdfrwt>
<totfact> 0.11261508E+01</totfact>
</mgrwt>
</event>
<event>
 8    1  0.7326756E-052  0.1341525E+04  0.7818608E-02  0.8997269E-01
         -2   -1    0    0    0  501 -0.00000000000E+00  0.00000000000E+00  0.49168022219E+03  0.49168022220E+03  0.25500000000E-02 0. -1.
          2   -1    0    0  501    0  0.00000000000E+00 -0.00000000000E+00 -0.91507036812E+03  0.91507036812E+03  0.25500000000E-02 0.  1.
     200001    2    1    2    0    0 -0.29620245890E+02  0.11883400836E+02  0.72146432282E+02  0.61786271837E+03  0.61280556205E+03 0.  0.
    5000001    2    3    3    0    0  0.96060128297E+02  0.22085244566E+03 -0.39193315808E+02  0.33139953110E+03  0.22424580756E+03 0.  0.
        -11    1    4    4    0    0 -0.29807151036E+02  0.11104025813E+02  0.58263747398E+02  0.66380945333E+02  0.51100000000E-03 0. -1.
     200002    1    4    4    0    0  0.12586727933E+03  0.20974841985E+03 -0.97457063207E+02  0.26501858577E+03  0.30000000000E+02 0. -1.
     200000    1    3    3    0    0 -0.12568037419E+03 -0.20896904483E+03  0.11133974809E+03  0.28646318726E+03  0.10100000000E+03 0.  1.
    -200001    1    1    2    0    0  0.29620245890E+02 -0.11883400836E+02 -0.49553657821E+03  0.78888787196E+03  0.61300000000E+03 0.  1.
<mgrwt>
<rscale>  0 0.13415245E+04</rscale>
<asrwt>0</asrwt>
<pdfrwt beam="1">  1        2 0.13072434E+00 0.13415245E+04</pdfrwt>
<pdfrwt beam="2">  1       -2 0.70240032E-01 0.13415245E+04</pdfrwt>
<totfact> 0.57409803E+01</totfact>
</mgrwt>
</event>
<event>
 8    1  0.7326756E-052  0.1581434E+04  0.7818608E-02  0.8832036E-01
          2   -1    0    0  501    0  0.00000000000E+00  0.00000000000E+00  0.21874986566E+04  0.21874986566E+04  0.25500000000E-02 0.  1.
         -2   -1    0    0    0  501 -0.00000000000E+00 -0.00000000000E+00 -0.28582106427E+03  0.28582106428E+03  0.25500000000E-02 0. -1.
     200001    2    1    2    0    0 -0.36510656354E+03  0.13779044382E+03  0.14385704558E+04  0.16116201044E+04  0.61281758737E+03 0.  0.
    5000001    2    3    3    0    0 -0.12201834995E+03  0.31569580809E+03  0.10641771639E+04  0.11205869739E+04  0.93219144490E+02 0.  0.
        -11    1    4    4    0    0 -0.30531551374E+02  0.15306507180E+03  0.38049277320E+03  0.41126128227E+03  0.51100000000E-03 0. -1.
     200002    1    4    4    0    0 -0.91486798577E+02  0.16263073630E+03  0.68368439070E+03  0.70932569162E+03  0.30000000000E+02 0. -1.
     200000    1    3    3    0    0 -0.24308821359E+03 -0.17790536428E+03  0.37439329191E+03  0.49103313051E+03  0.10100000000E+03 0. -1.
    -200001    1    1    2    0    0  0.36510656354E+03 -0.13779044382E+03  0.46310713649E+03  0.86169961646E+03  0.61300000000E+03 0. -1.
<mgrwt>
<rscale>  0 0.15814338E+04</rscale>
<asrwt>0</asrwt>
<pdfrwt beam="1">  1        2 0.31249982E+00 0.15814338E+04</pdfrwt>
<pdfrwt beam="2">  1       -2 0.40831579E-01 0.15814338E+04</pdfrwt>
<totfact> 0.35086336E+01</totfact>
</mgrwt>
</event>
<event>
 8    1  0.7326756E-052  0.1429200E+04  0.7818608E-02  0.8932949E-01
         -2   -1    0    0    0  501 -0.00000000000E+00  0.00000000000E+00  0.32845502136E+03  0.32845502137E+03  0.25500000000E-02 0. -1.
          2   -1    0    0  501    0  0.00000000000E+00 -0.00000000000E+00 -0.15547125020E+04  0.15547125020E+04  0.25500000000E-02 0.  1.
     200001    2    1    2    0    0 -0.15951954947E+03 -0.32291980678E+03 -0.51580445863E+03  0.87806246182E+03  0.61254857689E+03 0.  0.
    5000001    2    3    3    0    0  0.22255739040E+03 -0.13592514407E+03 -0.17069367643E+03  0.32105954994E+03  0.77041979620E+02 0.  0.
        -11    1    4    4    0    0  0.13891946563E+02  0.85608612201E+01 -0.11463912256E+02  0.19942312018E+02  0.51100000000E-03 0. -1.
     200002    1    4    4    0    0  0.20866544383E+03 -0.14448600529E+03 -0.15922976417E+03  0.30111723792E+03  0.30000000000E+02 0. -1.
     200000    1    3    3    0    0 -0.38207693986E+03 -0.18699466271E+03 -0.34511078221E+03  0.55700291189E+03  0.10100000000E+03 0.  1.
    -200001    1    1    2    0    0  0.15951954947E+03  0.32291980678E+03 -0.71045302200E+03  0.10051050615E+04  0.61300000000E+03 0. -1.
<mgrwt>
<rscale>  0 0.14292000E+04</rscale>
<asrwt>0</asrwt>
<pdfrwt beam="1">  1        2 0.22210178E+00 0.14292000E+04</pdfrwt>
<pdfrwt beam="2">  1       -2 0.46922147E-01 0.14292000E+04</pdfrwt>
<totfact> 0.57220525E+01</totfact>
</mgrwt>
</event>
<event>
 8    1  0.7326756E-052  0.1381995E+04  0.7818608E-02  0.8966956E-01
         -2   -1    0    0    0  501 -0.00000000000E+00  0.00000000000E+00  0.72267909262E+03  0.72267909263E+03  0.25500000000E-02 0. -1.
          2   -1    0    0  501    0  0.00000000000E+00 -0.00000000000E+00 -0.66070462066E+03  0.66070462067E+03  0.25500000000E-02 0.  1.
     200001    2    1    2    0    0  0.26722306860E+03 -0.12881362132E+03 -0.36151472917E+02  0.69534387543E+03  0.62784955099E+03 0.  0.
    5000001    2    3    3    0    0 -0.87258851167E+02  0.17120420403E+03  0.39718439379E+02  0.21406914042E+03  0.85574855350E+02 0.  0.
        -11    1    4    4    0    0 -0.75363097381E+02  0.66093233601E+02  0.14784112951E+02  0.10132364961E+03  0.51100000000E-03 0. -1.
     200002    1    4    4    0    0 -0.11895753787E+02  0.10511097043E+03  0.24934326428E+02  0.11274549081E+03  0.30000000000E+02 0. -1.
     200000    1    3    3    0    0  0.35448191976E+03 -0.30001782535E+03 -0.75869912296E+02  0.48127473501E+03  0.10100000000E+03 0. -1.
    -200001    1    1    2    0    0 -0.26722306860E+03  0.12881362132E+03  0.98125944875E+02  0.68803983786E+03  0.61300000000E+03 0. -1.
<mgrwt>
<rscale>  0 0.13819948E+04</rscale>
<asrwt>0</asrwt>
<pdfrwt beam="1">  1        2 0.94386375E-01 0.13819948E+04</pdfrwt>
<pdfrwt beam="2">  1       -2 0.10323987E+00 0.13819948E+04</pdfrwt>
<totfact> 0.36110984E+01</totfact>
</mgrwt>
</event>
<event>
 8    1  0.7326756E-052  0.1496658E+04  0.7818608E-02  0.8886678E-01
         -2   -1    0    0    0  501 -0.00000000000E+00  0.00000000000E+00  0.28648536826E+03  0.28648536827E+03  0.25500000000E-02 0. -1.
          2   -1    0    0  501    0  0.00000000000E+00 -0.00000000000E+00 -0.19547123932E+04  0.19547123932E+04  0.25500000000E-02 0.  1.
     200001    2    1    2    0    0  0.23926041505E+03  0.34183533769E+03 -0.98415129625E+03  0.12323243567E+04  0.61316604757E+03 0.  0.
    5000001    2    3    3    0    0  0.39631845119E+03  0.33679399724E+03 -0.54645026896E+03  0.75642958774E+03  0.55491561802E+02 0.  0.
        -11    1    4    4    0    0  0.36959877267E+02  0.20890891493E+02 -0.59455217233E+02  0.73057407095E+02  0.51100000000E-03 0. -1.
     200002    1    4    4    0    0  0.35935857392E+03  0.31590310574E+03 -0.48699505173E+03  0.68337218064E+03  0.30000000000E+02 0.  1.
     200000    1    3    3    0    0 -0.15705803614E+03  0.50413404561E+01 -0.43770102729E+03  0.47589476896E+03  0.10100000000E+03 0. -1.
    -200001    1    1    2    0    0 -0.23926041505E+03 -0.34183533769E+03 -0.68407572874E+03  0.10088734048E+04  0.61300000000E+03 0. -1.
<mgrwt>
<rscale>  0 0.14966583E+04</rscale>
<asrwt>0</asrwt>
<pdfrwt beam="1">  1        2 0.27924462E+00 0.14966583E+04</pdfrwt>
<pdfrwt beam="2">  1       -2 0.40926482E-01 0.14966583E+04</pdfrwt>
<totfact> 0.46324238E+01</totfact>
</mgrwt>
</event>
<event>
 8    1  0.7326756E-052  0.1345335E+04  0.7818608E-02  0.8994367E-01
         -2   -1    0    0    0  501 -0.00000000000E+00  0.00000000000E+00  0.30830063067E+03  0.30830063068E+03  0.25500000000E-02 0. -1.
          2   -1    0    0  501    0  0.00000000000E+00 -0.00000000000E+00 -0.14676632729E+04  0.14676632729E+04  0.25500000000E-02 0.  1.
     200001    2    1    2    0    0 -0.99792650650E+02 -0.12464347701E+03 -0.87985150899E+03  0.10835839190E+04  0.61198109619E+03 0.  0.
    5000001    2    3    3    0    0  0.20758885640E+03 -0.13186393355E+03 -0.53121911838E+03  0.60789382064E+03  0.16388994836E+03 0.  0.
        -11    1    4    4    0    0  0.46998235017E+02 -0.19070829518E+01 -0.12387986776E+02  0.48640860156E+02  0.51100000000E-03 0. -1.
     200002    1    4    4    0    0  0.16059062138E+03 -0.12995685060E+03 -0.51883113160E+03  0.55925296048E+03  0.30000000000E+02 0. -1.
     200000    1    3    3    0    0 -0.30738150705E+03  0.72204565418E+01 -0.34863239062E+03  0.47569009833E+03  0.10100000000E+03 0.  1.
    -200001    1    1    2    0    0  0.99792650650E+02  0.12464347701E+03 -0.27951113325E+03  0.69237998462E+03  0.61300000000E+03 0.  1.
<mgrwt>
<rscale>  0 0.13453349E+04</rscale>
<asrwt>0</asrwt>
<pdfrwt beam="1">  1        2 0.20966618E+00 0.13453349E+04</pdfrwt>
<pdfrwt beam="2">  1       -2 0.44042948E-01 0.13453349E+04</pdfrwt>
<totfact> 0.72687322E+01</totfact>
</mgrwt>
</event>
<event>
 8    1  0.7326756E-052  0.1996931E+04  0.7818608E-02  0.8608057E-01
          2   -1    0    0  501    0  0.00000000000E+00  0.00000000000E+00  0.13523881567E+04  0.13523881567E+04  0.25500000000E-02 0.  1.
         -2   -1    0    0    0  501 -0.00000000000E+00 -0.00000000000E+00 -0.73716522410E+03  0.73716522410E+03  0.25500000000E-02 0. -1.
     200001    2    1    2    0    0  0.73865411118E+03 -0.25611188953E+03  0.40665401435E+03  0.10744311273E+04  0.61468005015E+03 0.  0.
    5000001    2    3    3    0    0  0.68858642695E+02  0.13021906030E+03  0.20356489871E+03  0.26862484708E+03  0.94984862701E+02 0.  0.
        -11    1    4    4    0    0  0.64255260368E+02  0.12919543362E+03  0.17623405897E+03  0.22776883478E+03  0.51100000000E-03 0. -1.
     200002    1    4    4    0    0  0.46033823276E+01  0.10236266775E+01  0.27330839735E+02  0.40856012300E+02  0.30000000000E+02 0.  1.
     200000    1    3    3    0    0  0.66979546848E+03 -0.38633094983E+03  0.20308911565E+03  0.80580628025E+03  0.10100000000E+03 0.  1.
    -200001    1    1    2    0    0 -0.73865411118E+03  0.25611188953E+03  0.20856891830E+03  0.10151222535E+04  0.61300000000E+03 0. -1.
<mgrwt>
<rscale>  0 0.19969312E+04</rscale>
<asrwt>0</asrwt>
<pdfrwt beam="1">  1        2 0.19319831E+00 0.19969312E+04</pdfrwt>
<pdfrwt beam="2">  1       -2 0.10530932E+00 0.19969312E+04</pdfrwt>
<totfact> 0.11963775E+01</totfact>
</mgrwt>
</event>
<event>
 8    1  0.7326756E-052  0.1255491E+04  0.7818608E-02  0.9065626E-01
         -2   -1    0    0    0  501 -0.00000000000E+00  0.00000000000E+00  0.28610082911E+03  0.28610082912E+03  0.25500000000E-02 0. -1.
          2   -1    0    0  501    0  0.00000000000E+00 -0.00000000000E+00 -0.13773609202E+04  0.13773609202E+04  0.25500000000E-02 0.  1.
     200001    2    1    2    0    0  0.13417224704E+02  0.12913325669E+03 -0.49049762211E+03  0.79539495233E+03  0.61254370701E+03 0.  0.
    5000001    2    3    3    0    0 -0.12023982446E+03 -0.20164922450E+03 -0.12532992037E+03  0.27498193650E+03  0.69191410849E+02 0.  0.
        -11    1    4    4    0    0 -0.13650486245E+02 -0.76279219491E+02 -0.39728538106E+02  0.87081638945E+02  0.51100000000E-03 0. -1.
     200002    1    4    4    0    0 -0.10658933821E+03 -0.12537000500E+03 -0.85601382265E+02  0.18790029755E+03  0.30000000000E+02 0. -1.
     200000    1    3    3    0    0  0.13365704916E+03  0.33078248119E+03 -0.36516770174E+03  0.52041301583E+03  0.10100000000E+03 0. -1.
    -200001    1    1    2    0    0 -0.13417224704E+02 -0.12913325669E+03 -0.60076246896E+03  0.86806679697E+03  0.61300000000E+03 0. -1.
<mgrwt>
<rscale>  0 0.12554905E+04</rscale>
<asrwt>0</asrwt>
<pdfrwt beam="1">  1        2 0.19676584E+00 0.12554905E+04</pdfrwt>
<pdfrwt beam="2">  1       -2 0.40871548E-01 0.12554905E+04</pdfrwt>
<totfact> 0.94834276E+01</totfact>
</mgrwt>
</event>
<event>
 8    1  0.7326756E-052  0.1716833E+04  0.7818608E-02  0.8751822E-01
          2   -1    0    0  501    0  0.00000000000E+00  0.00000000000E+00  0.26768273445E+04  0.26768273445E+04  0.25500000000E-02 0.  1.
         -2   -1    0    0    0  501 -0.00000000000E+00 -0.00000000000E+00 -0.27528062118E+03  0.27528062119E+03  0.25500000000E-02 0. -1.
     200001    2    1    2    0    0  0.44272672006E+01 -0.48891887219E+03  0.18020785596E+04  0.19650961402E+04  0.61241688500E+03 0.  0.
    5000001    2    3    3    0    0 -0.13648553665E+03 -0.15538681411E+03  0.13835387473E+04  0.14025335867E+04  0.10073546079E+03 0.  0.
        -11    1    4    4    0    0 -0.89299884216E+02 -0.39798145299E+02  0.47414844167E+03  0.48412302820E+03  0.51100000000E-03 0. -1.
     200002    1    4    4    0    0 -0.47185652430E+02 -0.11558866881E+03  0.90939030558E+03  0.91841055854E+03  0.30000000000E+02 0. -1.
     200000    1    3    3    0    0  0.14091280385E+03 -0.33353205809E+03  0.41853981236E+03  0.56256255349E+03  0.10100000000E+03 0. -1.
    -200001    1    1    2    0    0 -0.44272672006E+01  0.48891887219E+03  0.59946816368E+03  0.98701182544E+03  0.61300000000E+03 0.  1.
<mgrwt>
<rscale>  0 0.17168328E+04</rscale>
<asrwt>0</asrwt>
<pdfrwt beam="1">  1        2 0.38240390E+00 0.17168328E+04</pdfrwt>
<pdfrwt beam="2">  1       -2 0.39325803E-01 0.17168328E+04</pdfrwt>
<totfact> 0.20692988E+01</totfact>
</mgrwt>
</event>
<event>
 8    1  0.7326756E-052  0.2673901E+04  0.7818608E-02  0.8343523E-01
         -2   -1    0    0    0  501 -0.00000000000E+00  0.00000000000E+00  0.71409635478E+03  0.71409635478E+03  0.25500000000E-02 0. -1.
          2   -1    0    0  501    0  0.00000000000E+00 -0.00000000000E+00 -0.25030745372E+04  0.25030745372E+04  0.25500000000E-02 0.  1.
     200001    2    1    2    0    0 -0.23843688815E+03 -0.43071129598E+03 -0.21963515640E+04  0.23316843352E+04  0.60862737062E+03 0.  0.
    5000001    2    3    3    0    0 -0.22077425966E+03 -0.50852143353E+03 -0.20923954777E+04  0.21662326691E+04  0.84319744993E+02 0.  0.
        -11    1    4    4    0    0 -0.12814783164E+02 -0.53798103190E+02 -0.30494566262E+03  0.30991984725E+03  0.51100000000E-03 0. -1.
     200002    1    4    4    0    0 -0.20795947650E+03 -0.45472333034E+03 -0.17874498151E+04  0.18563128218E+04  0.30000000000E+02 0. -1.
     200000    1    3    3    0    0 -0.17662628488E+02  0.77810137547E+02 -0.10395608633E+03  0.16545166616E+03  0.10100000000E+03 0.  1.
    -200001    1    1    2    0    0  0.23843688815E+03  0.43071129598E+03  0.40737338161E+03  0.88548655674E+03  0.61300000000E+03 0. -1.
<mgrwt>
<rscale>  0 0.26739008E+04</rscale>
<asrwt>0</asrwt>
<pdfrwt beam="1">  1        2 0.35758207E+00 0.26739008E+04</pdfrwt>
<pdfrwt beam="2">  1       -2 0.10201377E+00 0.26739008E+04</pdfrwt>
<totfact> 0.30601088E+00</totfact>
</mgrwt>
</event>
<event>
 8    1  0.7326756E-052  0.1428797E+04  0.7818608E-02  0.8933234E-01
          2   -1    0    0  501    0  0.00000000000E+00  0.00000000000E+00  0.18489911454E+04  0.18489911454E+04  0.25500000000E-02 0.  1.
         -2   -1    0    0    0  501 -0.00000000000E+00 -0.00000000000E+00 -0.27602360288E+03  0.27602360289E+03  0.25500000000E-02 0. -1.
     200001    2    1    2    0    0  0.81822008703E+02  0.28829901840E+03  0.11053362713E+04  0.12978151527E+04  0.61052824079E+03 0.  0.
    5000001    2    3    3    0    0 -0.13328628099E+03  0.37560039865E+03  0.57266357195E+03  0.70804035507E+03  0.12056817821E+03 0.  0.
        -11    1    4    4    0    0 -0.99601709286E+02  0.11728226213E+03  0.19910128566E+03  0.25162859825E+03  0.51100000000E-03 0. -1.
     200002    1    4    4    0    0 -0.33684571700E+02  0.25831813652E+03  0.37356228629E+03  0.45641175682E+03  0.30000000000E+02 0. -1.
     200000    1    3    3    0    0  0.21510828969E+03 -0.87301380251E+02  0.53267269938E+03  0.58977479765E+03  0.10100000000E+03 0.  1.
    -200001    1    1    2    0    0 -0.81822008703E+02 -0.28829901840E+03  0.46763127120E+03  0.82719959558E+03  0.61300000000E+03 0.  1.
<mgrwt>
<rscale>  0 0.14287970E+04</rscale>
<asrwt>0</asrwt>
<pdfrwt beam="1">  1        2 0.26414160E+00 0.14287970E+04</pdfrwt>
<pdfrwt beam="2">  1       -2 0.39431942E-01 0.14287970E+04</pdfrwt>
<totfact> 0.56763348E+01</totfact>
</mgrwt>
</event>
<event>
 8    1  0.7326756E-052  0.1262755E+04  0.7818608E-02  0.9059634E-01
          2   -1    0    0  501    0  0.00000000000E+00  0.00000000000E+00  0.15428141261E+04  0.15428141261E+04  0.25500000000E-02 0.  1.
         -2   -1    0    0    0  501 -0.00000000000E+00 -0.00000000000E+00 -0.25838322072E+03  0.25838322074E+03  0.25500000000E-02 0. -1.
     200001    2    1    2    0    0  0.13710021242E+02  0.58461597916E+02  0.44325393272E+03  0.75862676293E+03  0.61272734021E+03 0.  0.
    5000001    2    3    3    0    0  0.16287032854E+03 -0.20153335210E+03  0.99517425357E+02  0.29150583875E+03  0.89047740861E+02 0.  0.
        -11    1    4    4    0    0  0.88805876270E+02 -0.77582223290E+02  0.80567020354E+02  0.14281641992E+03  0.51100000000E-03 0. -1.
     200002    1    4    4    0    0  0.74064452266E+02 -0.12395112881E+03  0.18950405003E+02  0.14868941883E+03  0.30000000000E+02 0. -1.
     200000    1    3    3    0    0 -0.14916030729E+03  0.25999495002E+03  0.34373650736E+03  0.46712092417E+03  0.10100000000E+03 0.  1.
    -200001    1    1    2    0    0 -0.13710021242E+02 -0.58461597916E+02  0.84117697268E+03  0.10425705839E+04  0.61300000000E+03 0.  1.
<mgrwt>
<rscale>  0 0.12627546E+04</rscale>
<asrwt>0</asrwt>
<pdfrwt beam="1">  1        2 0.22040201E+00 0.12627546E+04</pdfrwt>
<pdfrwt beam="2">  1       -2 0.36911890E-01 0.12627546E+04</pdfrwt>
<totfact> 0.94231381E+01</totfact>
</mgrwt>
</event>
<event>
 8    1  0.7326756E-052  0.1503356E+04  0.7818608E-02  0.8882224E-01
          2   -1    0    0  501    0  0.00000000000E+00  0.00000000000E+00  0.19794459172E+04  0.19794459172E+04  0.25500000000E-02 0.  1.
         -2   -1    0    0    0  501 -0.00000000000E+00 -0.00000000000E+00 -0.28544353858E+03  0.28544353859E+03  0.25500000000E-02 0. -1.
     200001    2    1    2    0    0  0.16640466763E+03  0.18012701991E+03  0.13878487612E+04  0.15371289910E+04  0.61360010939E+03 0.  0.
    5000001    2    3    3    0    0  0.16848039697E+02  0.37316305261E+03  0.93185412684E+03  0.10100974915E+04  0.11140156351E+03 0.  0.
        -11    1    4    4    0    0 -0.23412643669E+02  0.18955106798E+03  0.36204471198E+03  0.40933376690E+03  0.51100000000E-03 0. -1.
     200002    1    4    4    0    0  0.40260683365E+02  0.18361198462E+03  0.56980941487E+03  0.60076372460E+03  0.30000000000E+02 0. -1.
     200000    1    3    3    0    0  0.14955662794E+03 -0.19303603270E+03  0.45599463433E+03  0.52703149945E+03  0.10100000000E+03 0. -1.
    -200001    1    1    2    0    0 -0.16640466763E+03 -0.18012701991E+03  0.30615361745E+03  0.72776046485E+03  0.61300000000E+03 0.  1.
<mgrwt>
<rscale>  0 0.15033563E+04</rscale>
<asrwt>0</asrwt>
<pdfrwt beam="1">  1        2 0.28277799E+00 0.15033563E+04</pdfrwt>
<pdfrwt beam="2">  1       -2 0.40777649E-01 0.15033563E+04</pdfrwt>
<totfact> 0.45286997E+01</totfact>
</mgrwt>
</event>
<event>
 8    1  0.7326756E-052  0.1458190E+04  0.7818608E-02  0.8912742E-01
          2   -1    0    0  501    0  0.00000000000E+00  0.00000000000E+00  0.15274633143E+04  0.15274633143E+04  0.25500000000E-02 0.  1.
         -2   -1    0    0    0  501 -0.00000000000E+00 -0.00000000000E+00 -0.34801459286E+03  0.34801459286E+03  0.25500000000E-02 0. -1.
     200001    2    1    2    0    0  0.38210266565E+03 -0.28677621889E+02  0.47002813527E+03  0.86262479777E+03  0.61349021239E+03 0.  0.
    5000001    2    3    3    0    0  0.49656057181E+03 -0.31973776878E+01  0.41292028284E+03  0.69766370559E+03  0.26391070726E+03 0.  0.
        -11    1    4    4    0    0  0.30682445739E+03 -0.56407860924E+02  0.10177711457E+03  0.32814886177E+03  0.51100000000E-03 0. -1.
     200002    1    4    4    0    0  0.18973611442E+03  0.53210483236E+02  0.31114316827E+03  0.36951484382E+03  0.30000000000E+02 0. -1.
     200000    1    3    3    0    0 -0.11445790616E+03 -0.25480244201E+02  0.57107852424E+02  0.16496109219E+03  0.10100000000E+03 0.  1.
    -200001    1    1    2    0    0 -0.38210266565E+03  0.28677621889E+02  0.70942058615E+03  0.10128531094E+04  0.61300000000E+03 0.  1.
<mgrwt>
<rscale>  0 0.14581900E+04</rscale>
<asrwt>0</asrwt>
<pdfrwt beam="1">  1        2 0.21820904E+00 0.14581900E+04</pdfrwt>
<pdfrwt beam="2">  1       -2 0.49716370E-01 0.14581900E+04</pdfrwt>
<totfact> 0.52502405E+01</totfact>
</mgrwt>
</event>
<event>
 8    1  0.7326756E-052  0.1397435E+04  0.7818608E-02  0.8955678E-01
         -2   -1    0    0    0  501 -0.00000000000E+00  0.00000000000E+00  0.25575003986E+04  0.25575003986E+04  0.25500000000E-02 0. -1.
          2   -1    0    0  501    0  0.00000000000E+00 -0.00000000000E+00 -0.19089180790E+03  0.19089180791E+03  0.25500000000E-02 0.  1.
     200001    2    1    2    0    0 -0.13220411228E+03 -0.97533383103E+01  0.17884466863E+04  0.18953897197E+04  0.61350434768E+03 0.  0.
    5000001    2    3    3    0    0 -0.32041250328E+03  0.13641904023E+03  0.12173100690E+04  0.12683436302E+04  0.74682215371E+02 0.  0.
        -11    1    4    4    0    0 -0.15854424247E+02  0.25970008171E+02  0.12166202787E+03  0.12540914288E+03  0.51100000000E-03 0. -1.
     200002    1    4    4    0    0 -0.30455807903E+03  0.11044903206E+03  0.10956480411E+04  0.11429344873E+04  0.30000000000E+02 0. -1.
     200000    1    3    3    0    0  0.18820839100E+03 -0.14617237854E+03  0.57113661732E+03  0.62704608949E+03  0.10100000000E+03 0.  1.
    -200001    1    1    2    0    0  0.13220411228E+03  0.97533383103E+01  0.57816190437E+03  0.85300248685E+03  0.61300000000E+03 0.  1.
<mgrwt>
<rscale>  0 0.13974346E+04</rscale>
<asrwt>0</asrwt>
<pdfrwt beam="1">  1        2 0.27270262E-01 0.13974346E+04</pdfrwt>
<pdfrwt beam="2">  1       -2 0.36535716E+00 0.13974346E+04</pdfrwt>
<totfact> 0.24315647E+00</totfact>
</mgrwt>
</event>
<event>
 8    1  0.7326756E-052  0.1310869E+04  0.7818608E-02  0.9020990E-01
         -2   -1    0    0    0  501 -0.00000000000E+00  0.00000000000E+00  0.25126256330E+03  0.25126256331E+03  0.25500000000E-02 0. -1.
          2   -1    0    0  501    0  0.00000000000E+00 -0.00000000000E+00 -0.17097432609E+04  0.17097432609E+04  0.25500000000E-02 0.  1.
     200001    2    1    2    0    0 -0.30448993194E+02 -0.23023026032E+03 -0.73594276009E+03  0.98542231415E+03  0.61279056549E+03 0.  0.
    5000001    2    3    3    0    0 -0.31335250419E+01 -0.37714807564E+03 -0.25650904305E+03  0.47318343599E+03  0.12591737367E+03 0.  0.
        -11    1    4    4    0    0 -0.32902896208E+02 -0.33405561389E+03 -0.20143029512E+03  0.39147147731E+03  0.51100000000E-03 0. -1.
     200002    1    4    4    0    0  0.29769371166E+02 -0.43092461753E+02 -0.55078747924E+02  0.81711958687E+02  0.30000000000E+02 0.  1.
     200000    1    3    3    0    0 -0.27315468152E+02  0.14691781533E+03 -0.47943371704E+03  0.51223887816E+03  0.10100000000E+03 0.  1.
    -200001    1    1    2    0    0  0.30448993194E+02  0.23023026032E+03 -0.72253793750E+03  0.97558351005E+03  0.61300000000E+03 0.  1.
<mgrwt>
<rscale>  0 0.13108691E+04</rscale>
<asrwt>0</asrwt>
<pdfrwt beam="1">  1        2 0.24424903E+00 0.13108691E+04</pdfrwt>
<pdfrwt beam="2">  1       -2 0.35894653E-01 0.13108691E+04</pdfrwt>
<totfact> 0.81046076E+01</totfact>
</mgrwt>
</event>
<event>
 8    1  0.7326756E-052  0.1358320E+04  0.7818608E-02  0.8984554E-01
         -2   -1    0    0    0  501 -0.00000000000E+00  0.00000000000E+00  0.17248734691E+03  0.17248734693E+03  0.25500000000E-02 0. -1.
          2   -1    0    0  501    0  0.00000000000E+00 -0.00000000000E+00 -0.26741556217E+04  0.26741556217E+04  0.25500000000E-02 0.  1.
     200001    2    1    2    0    0 -0.23891387851E+03  0.59786301339E+02 -0.91837190638E+03  0.11310525066E+04  0.61255087223E+03 0.  0.
    5000001    2    3    3    0    0 -0.80710598571E+02  0.14068274788E+03  0.44450038055E+01  0.18587286093E+03  0.90681454003E+02 0.  0.
        -11    1    4    4    0    0 -0.12341534179E+02  0.45233437912E+01  0.25965385687E+02  0.29102841083E+02  0.51100000000E-03 0. -1.
     200002    1    4    4    0    0 -0.68369064391E+02  0.13615940409E+03 -0.21520381882E+02  0.15677001985E+03  0.30000000000E+02 0. -1.
     200000    1    3    3    0    0 -0.15820327994E+03 -0.80896446542E+02 -0.92281691018E+03  0.94517964566E+03  0.10100000000E+03 0.  1.
    -200001    1    1    2    0    0  0.23891387851E+03 -0.59786301339E+02 -0.15832963684E+04  0.17155904620E+04  0.61300000000E+03 0.  1.
<mgrwt>
<rscale>  0 0.13583196E+04</rscale>
<asrwt>0</asrwt>
<pdfrwt beam="1">  1        2 0.38202221E+00 0.13583196E+04</pdfrwt>
<pdfrwt beam="2">  1       -2 0.24641051E-01 0.13583196E+04</pdfrwt>
<totfact> 0.51429506E+01</totfact>
</mgrwt>
</event>
<event>
 8    1  0.7326756E-052  0.1308058E+04  0.7818608E-02  0.9023200E-01
         -2   -1    0    0    0  501 -0.00000000000E+00  0.00000000000E+00  0.35787007407E+03  0.35787007408E+03  0.25500000000E-02 0. -1.
          2   -1    0    0  501    0  0.00000000000E+00 -0.00000000000E+00 -0.11952767157E+04  0.11952767157E+04  0.25500000000E-02 0.  1.
     200001    2    1    2    0    0  0.38129085499E+02  0.17589431599E+03 -0.58344237655E+03  0.86564443672E+03  0.61363070857E+03 0.  0.
    5000001    2    3    3    0    0  0.18136537307E+03 -0.96030624545E+02 -0.47347391271E+03  0.52395178183E+03  0.90733920147E+02 0.  0.
        -11    1    4    4    0    0 -0.63582105728E+01 -0.16420215429E+02 -0.27460257215E+02  0.32620791575E+02  0.51100000000E-03 0. -1.
     200002    1    4    4    0    0  0.18772358365E+03 -0.79610409116E+02 -0.44601365550E+03  0.49133099026E+03  0.30000000000E+02 0. -1.
     200000    1    3    3    0    0 -0.14323628757E+03  0.27192494054E+03 -0.10996846384E+03  0.34169265489E+03  0.10100000000E+03 0. -1.
    -200001    1    1    2    0    0 -0.38129085499E+02 -0.17589431599E+03 -0.25396426510E+03  0.68750235309E+03  0.61300000000E+03 0. -1.
<mgrwt>
<rscale>  0 0.13080577E+04</rscale>
<asrwt>0</asrwt>
<pdfrwt beam="1">  1        2 0.17075381E+00 0.13080577E+04</pdfrwt>
<pdfrwt beam="2">  1       -2 0.51124297E-01 0.13080577E+04</pdfrwt>
<totfact> 0.76207987E+01</totfact>
</mgrwt>
</event>
<event>
 8    1  0.7326756E-052  0.1415500E+04  0.7818608E-02  0.8942675E-01
         -2   -1    0    0    0  501 -0.00000000000E+00  0.00000000000E+00  0.88189408404E+03  0.88189408404E+03  0.25500000000E-02 0. -1.
          2   -1    0    0  501    0  0.00000000000E+00 -0.00000000000E+00 -0.56799354828E+03  0.56799354829E+03  0.25500000000E-02 0.  1.
     200001    2    1    2    0    0 -0.18336814526E+01 -0.56354172295E+02  0.51480860747E+03  0.80234442265E+03  0.61282094866E+03 0.  0.
    5000001    2    3    3    0    0  0.91351177012E+02  0.10953038330E+03  0.55169979603E+03  0.58379679987E+03  0.12690191562E+03 0.  0.
        -11    1    4    4    0    0  0.43672280143E+01  0.84500416096E+02  0.35845456949E+03  0.36830567657E+03  0.51100000000E-03 0. -1.
     200002    1    4    4    0    0  0.86983948998E+02  0.25029967200E+02  0.19324522654E+03  0.21549112330E+03  0.30000000000E+02 0.  1.
     200000    1    3    3    0    0 -0.93184858465E+02 -0.16588455559E+03 -0.36891188564E+02  0.21854762278E+03  0.10100000000E+03 0.  1.
    -200001    1    1    2    0    0  0.18336814526E+01  0.56354172295E+02 -0.20090807171E+03  0.64754320968E+03  0.61300000000E+03 0.  1.
<mgrwt>
<rscale>  0 0.14155001E+04</rscale>
<asrwt>0</asrwt>
<pdfrwt beam="1">  1        2 0.81141935E-01 0.14155001E+04</pdfrwt>
<pdfrwt beam="2">  1       -2 0.12598487E+00 0.14155001E+04</pdfrwt>
<totfact> 0.26499427E+01</totfact>
</mgrwt>
</event>
<event>
 8    1  0.7326756E-052  0.1254215E+04  0.7818608E-02  0.9066682E-01
         -2   -1    0    0    0  501 -0.00000000000E+00  0.00000000000E+00  0.10389694147E+03  0.10389694150E+03  0.25500000000E-02 0. -1.
          2   -1    0    0  501    0  0.00000000000E+00 -0.00000000000E+00 -0.37851338831E+04  0.37851338831E+04  0.25500000000E-02 0.  1.
     200001    2    1    2    0    0  0.63196023024E+01  0.14319770468E+02 -0.22499860248E+04  0.23319524130E+04  0.61263361898E+03 0.  0.
    5000001    2    3    3    0    0 -0.12251863640E+03 -0.14976012290E+03 -0.18879918707E+04  0.19021125930E+04  0.12680734227E+03 0.  0.
        -11    1    4    4    0    0 -0.14538088478E+02 -0.11003907607E+03 -0.80586530746E+03  0.81347332350E+03  0.51100000000E-03 0. -1.
     200002    1    4    4    0    0 -0.10798054792E+03 -0.39721046832E+02 -0.10821265632E+04  0.10886392695E+04  0.30000000000E+02 0. -1.
     200000    1    3    3    0    0  0.12883823870E+03  0.16407989337E+03 -0.36199415413E+03  0.42983981992E+03  0.10100000000E+03 0. -1.
    -200001    1    1    2    0    0 -0.63196023024E+01 -0.14319770468E+02 -0.14312509167E+04  0.15570784116E+04  0.61300000000E+03 0. -1.
<mgrwt>
<rscale>  0 0.12542150E+04</rscale>
<asrwt>0</asrwt>
<pdfrwt beam="1">  1        2 0.54073332E+00 0.12542150E+04</pdfrwt>
<pdfrwt beam="2">  1       -2 0.14842423E-01 0.12542150E+04</pdfrwt>
<totfact> 0.28603190E+01</totfact>
</mgrwt>
</event>
<event>
 8    1  0.7326756E-052  0.1547860E+04  0.7818608E-02  0.8853236E-01
         -2   -1    0    0    0  501 -0.00000000000E+00  0.00000000000E+00  0.18649282161E+03  0.18649282163E+03  0.25500000000E-02 0. -1.
          2   -1    0    0  501    0  0.00000000000E+00 -0.00000000000E+00 -0.32117450623E+04  0.32117450623E+04  0.25500000000E-02 0.  1.
     200001    2    1    2    0    0  0.41592557344E+03  0.88352640417E+02 -0.19648654474E+04  0.21017081222E+04  0.61292783652E+03 0.  0.
    5000001    2    3    3    0    0  0.39740483423E+03  0.16655555710E+03 -0.67530219314E+03  0.80570152472E+03  0.86316504792E+02 0.  0.
        -11    1    4    4    0    0  0.10009810147E+03  0.40743286145E+02 -0.11121604456E+03  0.15507628398E+03  0.51100000000E-03 0. -1.
     200002    1    4    4    0    0  0.29730673276E+03  0.12581227095E+03 -0.56408614858E+03  0.65062524074E+03  0.30000000000E+02 0. -1.
     200000    1    3    3    0    0  0.18520739208E+02 -0.78202916683E+02 -0.12895632542E+04  0.12960065974E+04  0.10100000000E+03 0.  1.
    -200001    1    1    2    0    0 -0.41592557344E+03 -0.88352640417E+02 -0.10603867933E+04  0.12965297618E+04  0.61300000000E+03 0. -1.
<mgrwt>
<rscale>  0 0.15478597E+04</rscale>
<asrwt>0</asrwt>
<pdfrwt beam="1">  1        2 0.45882069E+00 0.15478597E+04</pdfrwt>
<pdfrwt beam="2">  1       -2 0.26641834E-01 0.15478597E+04</pdfrwt>
<totfact> 0.22136542E+01</totfact>
</mgrwt>
</event>
<event>
 8    1  0.7326756E-052  0.1948753E+04  0.7818608E-02  0.8630963E-01
          2   -1    0    0  501    0  0.00000000000E+00  0.00000000000E+00  0.37716224225E+03  0.37716224226E+03  0.25500000000E-02 0.  1.
         -2   -1    0    0    0  501 -0.00000000000E+00 -0.00000000000E+00 -0.25172434883E+04  0.25172434883E+04  0.25500000000E-02 0. -1.
     200001    2    1    2    0    0 -0.70963093777E+03  0.26204723450E+03 -0.10069938641E+04  0.14004509669E+04  0.61235728721E+03 0.  0.
    5000001    2    3    3    0    0 -0.16439104135E+03  0.36403268087E+03 -0.38606917681E+03  0.56174002544E+03  0.83416063656E+02 0.  0.
        -11    1    4    4    0    0 -0.36106221530E+02  0.16170608384E+03 -0.17579778037E+03  0.24157271445E+03  0.51100000000E-03 0. -1.
     200002    1    4    4    0    0 -0.12828481982E+03  0.20232659703E+03 -0.21027139644E+03  0.32016731098E+03  0.30000000000E+02 0. -1.
     200000    1    3    3    0    0 -0.54523989642E+03 -0.10198544637E+03 -0.62092468732E+03  0.83871094141E+03  0.10100000000E+03 0.  1.
    -200001    1    1    2    0    0  0.70963093777E+03 -0.26204723450E+03 -0.11330873819E+04  0.14939547637E+04  0.61300000000E+03 0. -1.
<mgrwt>
<rscale>  0 0.19487526E+04</rscale>
<asrwt>0</asrwt>
<pdfrwt beam="1">  1        2 0.53880322E-01 0.19487526E+04</pdfrwt>
<pdfrwt beam="2">  1       -2 0.35960620E+00 0.19487526E+04</pdfrwt>
<totfact> 0.11725360E+00</totfact>
</mgrwt>
</event>
<event>
 8    1  0.7326756E-052  0.1363200E+04  0.7818608E-02  0.8980896E-01
         -2   -1    0    0    0  501 -0.00000000000E+00  0.00000000000E+00  0.46362982793E+03  0.46362982794E+03  0.25500000000E-02 0. -1.
          2   -1    0    0  501    0  0.00000000000E+00 -0.00000000000E+00 -0.10020460655E+04  0.10020460655E+04  0.25500000000E-02 0.  1.
     200001    2    1    2    0    0  0.28153163532E+01 -0.28308892068E+03 -0.16047179096E+03  0.69188117404E+03  0.61057440192E+03 0.  0.
    5000001    2    3    3    0    0  0.37465547590E+02  0.44394363080E+02 -0.30260494394E+03  0.31925700301E+03  0.83550913483E+02 0.  0.
        -11    1    4    4    0    0 -0.10023908780E+02 -0.14143488682E+02 -0.90921943553E+02  0.92559801420E+02  0.51100000000E-03 0. -1.
     200002    1    4    4    0    0  0.47489456370E+02  0.58537851762E+02 -0.21168300038E+03  0.22669720159E+03  0.30000000000E+02 0. -1.
     200000    1    3    3    0    0 -0.34650231237E+02 -0.32748328376E+03  0.14213315298E+03  0.37262417104E+03  0.10100000000E+03 0. -1.
    -200001    1    1    2    0    0 -0.28153163532E+01  0.28308892068E+03 -0.37794444656E+03  0.77379471936E+03  0.61300000000E+03 0. -1.
<mgrwt>
<rscale>  0 0.13631998E+04</rscale>
<asrwt>0</asrwt>
<pdfrwt beam="1">  1        2 0.14314944E+00 0.13631998E+04</pdfrwt>
<pdfrwt beam="2">  1       -2 0.66232833E-01 0.13631998E+04</pdfrwt>
<totfact> 0.57368906E+01</totfact>
</mgrwt>
</event>
<event>
 8    1  0.7326756E-052  0.1356084E+04  0.7818608E-02  0.8986235E-01
          2   -1    0    0  501    0  0.00000000000E+00  0.00000000000E+00  0.12359646161E+04  0.12359646161E+04  0.25500000000E-02 0.  1.
         -2   -1    0    0    0  501 -0.00000000000E+00 -0.00000000000E+00 -0.37196947234E+03  0.37196947235E+03  0.25500000000E-02 0. -1.
     200001    2    1    2    0    0 -0.20292423138E+03 -0.18683604198E+03  0.54168977747E+03  0.86245726158E+03  0.61181595498E+03 0.  0.
    5000001    2    3    3    0    0  0.20458840313E+03 -0.63701171756E+02  0.23480852066E+03  0.32803622033E+03  0.80984359569E+02 0.  0.
        -11    1    4    4    0    0  0.98542731115E+02  0.37922178133E+01  0.11855689640E+03  0.15421020866E+03  0.51100000000E-03 0. -1.
     200002    1    4    4    0    0  0.10604567201E+03 -0.67493389569E+02  0.11625162426E+03  0.17382601167E+03  0.30000000000E+02 0. -1.
     200000    1    3    3    0    0 -0.40751263451E+03 -0.12313487022E+03  0.30688125680E+03  0.53442104125E+03  0.10100000000E+03 0. -1.
    -200001    1    1    2    0    0  0.20292423138E+03  0.18683604198E+03  0.32230536628E+03  0.74547682687E+03  0.61300000000E+03 0.  1.
<mgrwt>
<rscale>  0 0.13560842E+04</rscale>
<asrwt>0</asrwt>
<pdfrwt beam="1">  1        2 0.17656637E+00 0.13560842E+04</pdfrwt>
<pdfrwt beam="2">  1       -2 0.53138496E-01 0.13560842E+04</pdfrwt>
<totfact> 0.66522816E+01</totfact>
</mgrwt>
</event>
<event>
 8    1  0.7326756E-052  0.1580297E+04  0.7818608E-02  0.8832745E-01
          2   -1    0    0  501    0  0.00000000000E+00  0.00000000000E+00  0.35393793969E+04  0.35393793969E+04  0.25500000000E-02 0.  1.
         -2   -1    0    0    0  501 -0.00000000000E+00 -0.00000000000E+00 -0.17639654683E+03  0.17639654684E+03  0.25500000000E-02 0. -1.
     200001    2    1    2    0    0  0.77582347176E+02 -0.11184298311E+03  0.28089725035E+04  0.28783845552E+04  0.61338670421E+03 0.  0.
    5000001    2    3    3    0    0 -0.90818561684E+02  0.70129777156E+02  0.42291319157E+03  0.47735290370E+03  0.18932519716E+03 0.  0.
        -11    1    4    4    0    0 -0.36287458473E+02  0.11305786211E+03  0.13551276141E+03  0.18017371710E+03  0.51100000000E-03 0. -1.
     200002    1    4    4    0    0 -0.54531103211E+02 -0.42928084955E+02  0.28740043016E+03  0.29717918660E+03  0.30000000000E+02 0. -1.
     200000    1    3    3    0    0  0.16840090886E+03 -0.18197276026E+03  0.23860593119E+04  0.24010316515E+04  0.10100000000E+03 0.  1.
    -200001    1    1    2    0    0 -0.77582347176E+02  0.11184298311E+03  0.55401034660E+03  0.83739138854E+03  0.61300000000E+03 0. -1.
<mgrwt>
<rscale>  0 0.15802966E+04</rscale>
<asrwt>0</asrwt>
<pdfrwt beam="1">  1        2 0.50562566E+00 0.15802966E+04</pdfrwt>
<pdfrwt beam="2">  1       -2 0.25199505E-01 0.15802966E+04</pdfrwt>
<totfact> 0.15609430E+01</totfact>
</mgrwt>
</event>
<event>
 8    1  0.7326756E-052  0.1386330E+04  0.7818608E-02  0.8963773E-01
          2   -1    0    0  501    0  0.00000000000E+00  0.00000000000E+00  0.86948307446E+03  0.86948307446E+03  0.25500000000E-02 0.  1.
         -2   -1    0    0    0  501 -0.00000000000E+00 -0.00000000000E+00 -0.55260164373E+03  0.55260164374E+03  0.25500000000E-02 0. -1.
     200001    2    1    2    0    0  0.50344996597E+02  0.17870564301E+03  0.43085675191E+03  0.77152365314E+03  0.61248745389E+03 0.  0.
    5000001    2    3    3    0    0 -0.36159796330E+02  0.15182298326E+03  0.55712316135E+03  0.58618622371E+03  0.94182391332E+02 0.  0.
        -11    1    4    4    0    0 -0.55832866841E+02  0.11598987682E+03  0.44260094158E+03  0.46094094419E+03  0.51100000000E-03 0. -1.
     200002    1    4    4    0    0  0.19673070510E+02  0.35833106441E+02  0.11452221978E+03  0.12524527952E+03  0.30000000000E+02 0.  1.
     200000    1    3    3    0    0  0.86504792927E+02  0.26882659748E+02 -0.12626640945E+03  0.18533742943E+03  0.10100000000E+03 0. -1.
    -200001    1    1    2    0    0 -0.50344996597E+02 -0.17870564301E+03 -0.11397532118E+03  0.65056106505E+03  0.61300000000E+03 0. -1.
<mgrwt>
<rscale>  0 0.13863301E+04</rscale>
<asrwt>0</asrwt>
<pdfrwt beam="1">  1        2 0.12421187E+00 0.13863301E+04</pdfrwt>
<pdfrwt beam="2">  1       -2 0.78943092E-01 0.13863301E+04</pdfrwt>
<totfact> 0.47351700E+01</totfact>
</mgrwt>
</event>
<event>
 8    1  0.7326756E-052  0.1839441E+04  0.7818608E-02  0.8685602E-01
         -2   -1    0    0    0  501 -0.00000000000E+00  0.00000000000E+00  0.16897734433E+04  0.16897734433E+04  0.25500000000E-02 0. -1.
          2   -1    0    0  501    0  0.00000000000E+00 -0.00000000000E+00 -0.50059098810E+03  0.50059098811E+03  0.25500000000E-02 0.  1.
     200001    2    1    2    0    0 -0.22352589314E+02 -0.50725948637E+03  0.11440841261E+04  0.13931099651E+04  0.61156770897E+03 0.  0.
    5000001    2    3    3    0    0  0.90733785651E+02 -0.52836456454E+03  0.55969098188E+03  0.78899880028E+03  0.14786270222E+03 0.  0.
        -11    1    4    4    0    0  0.75880571342E+02 -0.28476765592E+03  0.21151661984E+03  0.36275302816E+03  0.51100000000E-03 0. -1.
     200002    1    4    4    0    0  0.14853214309E+02 -0.24359690862E+03  0.34817436204E+03  0.42624577212E+03  0.30000000000E+02 0. -1.
     200000    1    3    3    0    0 -0.11308637496E+03  0.21105078177E+02  0.58439314419E+03  0.60411116486E+03  0.10100000000E+03 0.  1.
    -200001    1    1    2    0    0  0.22352589314E+02  0.50725948637E+03  0.45098329157E+02  0.79725446631E+03  0.61300000000E+03 0.  1.
<mgrwt>
<rscale>  0 0.18394405E+04</rscale>
<asrwt>0</asrwt>
<pdfrwt beam="1">  1        2 0.71512997E-01 0.18394405E+04</pdfrwt>
<pdfrwt beam="2">  1       -2 0.24139621E+00 0.18394405E+04</pdfrwt>
<totfact> 0.45942850E+00</totfact>
</mgrwt>
</event>
<event>
 8    1  0.7326756E-052  0.1309051E+04  0.7818608E-02  0.9022418E-01
          2   -1    0    0  501    0  0.00000000000E+00  0.00000000000E+00  0.12621284314E+04  0.12621284314E+04  0.25500000000E-02 0.  1.
         -2   -1    0    0    0  501 -0.00000000000E+00 -0.00000000000E+00 -0.33942970549E+03  0.33942970549E+03  0.25500000000E-02 0. -1.
     200001    2    1    2    0    0  0.14605316058E+03 -0.15348086598E+03  0.57382404797E+03  0.86510009816E+03  0.61174851032E+03 0.  0.
    5000001    2    3    3    0    0  0.17204050564E+02  0.19799563542E+03  0.52350658802E+02  0.21527449094E+03  0.64064529752E+02 0.  0.
        -11    1    4    4    0    0 -0.11748155082E+02  0.84141291453E+02  0.49861587211E+01  0.85103688841E+02  0.51100000000E-03 0. -1.
     200002    1    4    4    0    0  0.28952205646E+02  0.11385434397E+03  0.47364500081E+02  0.13017080210E+03  0.30000000000E+02 0.  1.
     200000    1    3    3    0    0  0.12884911001E+03 -0.35147650141E+03  0.52147338916E+03  0.64982560722E+03  0.10100000000E+03 0.  1.
    -200001    1    1    2    0    0 -0.14605316058E+03  0.15348086598E+03  0.34887467799E+03  0.73645803878E+03  0.61300000000E+03 0. -1.
<mgrwt>
<rscale>  0 0.13090514E+04</rscale>
<asrwt>0</asrwt>
<pdfrwt beam="1">  1        2 0.18030406E+00 0.13090514E+04</pdfrwt>
<pdfrwt beam="2">  1       -2 0.48489959E-01 0.13090514E+04</pdfrwt>
<totfact> 0.77795626E+01</totfact>
</mgrwt>
</event>
<event>
 8    1  0.7326756E-052  0.1688613E+04  0.7818608E-02  0.8767885E-01
         -2   -1    0    0    0  501 -0.00000000000E+00  0.00000000000E+00  0.57905842267E+03  0.57905842268E+03  0.25500000000E-02 0. -1.
          2   -1    0    0  501    0  0.00000000000E+00 -0.00000000000E+00 -0.12310564820E+04  0.12310564820E+04  0.25500000000E-02 0.  1.
     200001    2    1    2    0    0 -0.39234818100E+02  0.12083959138E+03 -0.93366476198E+03  0.11236407906E+04  0.61212511860E+03 0.  0.
    5000001    2    3    3    0    0 -0.30145608107E+03  0.22567239796E+02 -0.36735043954E+03  0.48385148340E+03  0.88209202672E+02 0.  0.
        -11    1    4    4    0    0 -0.16731635838E+03 -0.60329039409E+01 -0.14824862597E+03  0.22362650741E+03  0.51100000000E-03 0. -1.
     200002    1    4    4    0    0 -0.13413972269E+03  0.28600143737E+02 -0.21910181356E+03  0.26022497599E+03  0.30000000000E+02 0. -1.
     200000    1    3    3    0    0  0.26222126297E+03  0.98272351583E+02 -0.56631432244E+03  0.63978930723E+03  0.10100000000E+03 0.  1.
    -200001    1    1    2    0    0  0.39234818100E+02 -0.12083959138E+03  0.28166670269E+03  0.68647411401E+03  0.61300000000E+03 0. -1.
<mgrwt>
<rscale>  0 0.16886132E+04</rscale>
<asrwt>0</asrwt>
<pdfrwt beam="1">  1        2 0.17586521E+00 0.16886132E+04</pdfrwt>
<pdfrwt beam="2">  1       -2 0.82722632E-01 0.16886132E+04</pdfrwt>
<totfact> 0.25115479E+01</totfact>
</mgrwt>
</event>
<event>
 8    1  0.7326756E-052  0.1975277E+04  0.7818608E-02  0.8618267E-01
          2   -1    0    0  501    0  0.00000000000E+00  0.00000000000E+00  0.13081580626E+04  0.13081580626E+04  0.25500000000E-02 0.  1.
         -2   -1    0    0    0  501 -0.00000000000E+00 -0.00000000000E+00 -0.74565129138E+03  0.74565129139E+03  0.25500000000E-02 0. -1.
     200001    2    1    2    0    0  0.44615223214E+03  0.79410628034E+01 -0.37770406331E+03  0.84596818558E+03  0.61146294806E+03 0.  0.
    5000001    2    3    3    0    0  0.53466793720E+03  0.10686522000E+03 -0.37159093999E+03  0.67905686423E+03  0.16046314174E+03 0.  0.
        -11    1    4    4    0    0  0.22820791814E+03 -0.25806117674E+02 -0.18797515740E+03  0.29678185493E+03  0.51100000000E-03 0. -1.
     200002    1    4    4    0    0  0.30646001906E+03  0.13267133768E+03 -0.18361578258E+03  0.38227500930E+03  0.30000000000E+02 0. -1.
     200000    1    3    3    0    0 -0.88515705059E+02 -0.98924157201E+02 -0.61131233257E+01  0.16691132136E+03  0.10100000000E+03 0.  1.
    -200001    1    1    2    0    0 -0.44615223214E+03 -0.79410628034E+01  0.94021083451E+03  0.12078411684E+04  0.61300000000E+03 0.  1.
<mgrwt>
<rscale>  0 0.19752769E+04</rscale>
<asrwt>0</asrwt>
<pdfrwt beam="1">  1        2 0.18687972E+00 0.19752769E+04</pdfrwt>
<pdfrwt beam="2">  1       -2 0.10652161E+00 0.19752769E+04</pdfrwt>
<totfact> 0.12330943E+01</totfact>
</mgrwt>
</event>
<event>
 8    1  0.7326756E-052  0.1490701E+04  0.7818608E-02  0.8890660E-01
         -2   -1    0    0    0  501 -0.00000000000E+00  0.00000000000E+00  0.56873237533E+03  0.56873237534E+03  0.25500000000E-02 0. -1.
          2   -1    0    0  501    0  0.00000000000E+00 -0.00000000000E+00 -0.97681670823E+03  0.97681670823E+03  0.25500000000E-02 0.  1.
     200001    2    1    2    0    0  0.45417885111E+01  0.20957802075E+03 -0.58609501288E+03  0.87368572186E+03  0.61308710786E+03 0.  0.
    5000001    2    3    3    0    0  0.11568015850E+03  0.24595012340E+03 -0.20985607633E+02  0.28783223587E+03  0.92377692184E+02 0.  0.
        -11    1    4    4    0    0  0.80610436007E+02  0.21851790471E+03 -0.23435173268E+02  0.23408828338E+03  0.51100000000E-03 0. -1.
     200002    1    4    4    0    0  0.35069722488E+02  0.27432218686E+02  0.24495656347E+01  0.53743952490E+02  0.30000000000E+02 0. -1.
     200000    1    3    3    0    0 -0.11113836998E+03 -0.36372102648E+02 -0.56510940525E+03  0.58585348598E+03  0.10100000000E+03 0.  1.
    -200001    1    1    2    0    0 -0.45417885111E+01 -0.20957802075E+03  0.17801067999E+03  0.67186336171E+03  0.61300000000E+03 0. -1.
<mgrwt>
<rscale>  0 0.14907009E+04</rscale>
<asrwt>0</asrwt>
<pdfrwt beam="1">  1        2 0.13954524E+00 0.14907009E+04</pdfrwt>
<pdfrwt beam="2">  1       -2 0.81247483E-01 0.14907009E+04</pdfrwt>
<totfact> 0.37552101E+01</totfact>
</mgrwt>
</event>
<event>
 8    1  0.7326756E-052  0.1795881E+04  0.7818608E-02  0.8708493E-01
         -2   -1    0    0    0  501 -0.00000000000E+00  0.00000000000E+00  0.49596921927E+03  0.49596921928E+03  0.25500000000E-02 0. -1.
          2   -1    0    0  501    0  0.00000000000E+00 -0.00000000000E+00 -0.16256991625E+04  0.16256991625E+04  0.25500000000E-02 0.  1.
     200001    2    1    2    0    0  0.56208409362E+03  0.17739317698E+03 -0.22447722212E+03  0.87963039661E+03  0.61314985431E+03 0.  0.
    5000001    2    3    3    0    0  0.41334297167E+03 -0.11825079340E+03 -0.56836957312E+02  0.49513912627E+03  0.23894905790E+03 0.  0.
        -11    1    4    4    0    0  0.52159244173E+02 -0.11288825700E+03  0.16139470814E+02  0.12539867559E+03  0.51100000000E-03 0. -1.
     200002    1    4    4    0    0  0.36118372750E+03 -0.53625364061E+01 -0.72976428126E+02  0.36974045068E+03  0.30000000000E+02 0. -1.
     200000    1    3    3    0    0  0.14874112195E+03  0.29564397038E+03 -0.16764026481E+03  0.38449127034E+03  0.10100000000E+03 0. -1.
    -200001    1    1    2    0    0 -0.56208409362E+03 -0.17739317698E+03 -0.90525272109E+03  0.12420379852E+04  0.61300000000E+03 0.  1.
<mgrwt>
<rscale>  0 0.17958806E+04</rscale>
<asrwt>0</asrwt>
<pdfrwt beam="1">  1        2 0.23224274E+00 0.17958806E+04</pdfrwt>
<pdfrwt beam="2">  1       -2 0.70852746E-01 0.17958806E+04</pdfrwt>
<totfact> 0.21508393E+01</totfact>
</mgrwt>
</event>
<event>
 8    1  0.7326756E-052  0.2604842E+04  0.7818608E-02  0.8366558E-01
          2   -1    0    0  501    0  0.00000000000E+00  0.00000000000E+00  0.13191735221E+04  0.13191735221E+04  0.25500000000E-02 0.  1.
         -2   -1    0    0    0  501 -0.00000000000E+00 -0.00000000000E+00 -0.12858811209E+04  0.12858811209E+04  0.25500000000E-02 0. -1.
     200001    2    1    2    0    0  0.52320793645E+03 -0.75730085939E+03  0.70461181614E+03  0.13113429699E+04  0.61309985880E+03 0.  0.
    5000001    2    3    3    0    0  0.21533053249E+02  0.81467713967E+02  0.14073624338E+03  0.17848504869E+03  0.70353120795E+02 0.  0.
        -11    1    4    4    0    0  0.22537940195E+02  0.33376093949E+02  0.10243822863E+03  0.11007049142E+03  0.51100000000E-03 0. -1.
     200002    1    4    4    0    0 -0.10048869463E+01  0.48091620018E+02  0.38298014748E+02  0.68414557277E+02  0.30000000000E+02 0. -1.
     200000    1    3    3    0    0  0.50167488320E+03 -0.83876857335E+03  0.56387557276E+03  0.11328579212E+04  0.10100000000E+03 0.  1.
    -200001    1    1    2    0    0 -0.52320793645E+03  0.75730085939E+03 -0.67131941492E+03  0.12937116731E+04  0.61300000000E+03 0. -1.
<mgrwt>
<rscale>  0 0.26048419E+04</rscale>
<asrwt>0</asrwt>
<pdfrwt beam="1">  1        2 0.18845336E+00 0.26048419E+04</pdfrwt>
<pdfrwt beam="2">  1       -2 0.18369730E+00 0.26048419E+04</pdfrwt>
<totfact> 0.27875160E+00</totfact>
</mgrwt>
</event>
<event>
 8    1  0.7326756E-052  0.1414486E+04  0.7818608E-02  0.8943399E-01
          2   -1    0    0  501    0  0.00000000000E+00  0.00000000000E+00  0.34576648819E+03  0.34576648820E+03  0.25500000000E-02 0.  1.
         -2   -1    0    0    0  501 -0.00000000000E+00 -0.00000000000E+00 -0.14466193401E+04  0.14466193401E+04  0.25500000000E-02 0. -1.
     200001    2    1    2    0    0 -0.15263963618E+03 -0.24431979462E+03 -0.80989366008E+03  0.10552174134E+04  0.61201717978E+03 0.  0.
    5000001    2    3    3    0    0  0.17733177401E+03 -0.79946698969E+01 -0.48267848476E+03  0.52417931018E+03  0.10136546133E+03 0.  0.
        -11    1    4    4    0    0  0.12406640606E+03 -0.45661359807E+02 -0.29670251144E+03  0.32482274118E+03  0.51100000000E-03 0. -1.
     200002    1    4    4    0    0  0.53265367955E+02  0.37666689910E+02 -0.18597597332E+03  0.19935656900E+03  0.30000000000E+02 0. -1.
     200000    1    3    3    0    0 -0.32997141019E+03 -0.23632512472E+03 -0.32721517532E+03  0.53103810323E+03  0.10100000000E+03 0.  1.
    -200001    1    1    2    0    0  0.15263963618E+03  0.24431979462E+03 -0.29095919179E+03  0.73716841486E+03  0.61300000000E+03 0.  1.
<mgrwt>
<rscale>  0 0.14144858E+04</rscale>
<asrwt>0</asrwt>
<pdfrwt beam="1">  1        2 0.49395213E-01 0.14144858E+04</pdfrwt>
<pdfrwt beam="2">  1       -2 0.20665990E+00 0.14144858E+04</pdfrwt>
<totfact> 0.11922383E+01</totfact>
</mgrwt>
</event>
<event>
 8    1  0.7326756E-052  0.1780899E+04  0.7818608E-02  0.8716523E-01
         -2   -1    0    0    0  501 -0.00000000000E+00  0.00000000000E+00  0.64129648404E+03  0.64129648404E+03  0.25500000000E-02 0. -1.
          2   -1    0    0  501    0  0.00000000000E+00 -0.00000000000E+00 -0.12364024919E+04  0.12364024919E+04  0.25500000000E-02 0.  1.
     200001    2    1    2    0    0  0.21973212062E+03 -0.11179843949E+03 -0.92692927121E+03  0.11383365654E+04  0.61305070466E+03 0.  0.
    5000001    2    3    3    0    0 -0.12890661154E+03 -0.40864331637E+02 -0.66873827144E+03  0.68728866822E+03  0.82873576505E+02 0.  0.
        -11    1    4    4    0    0 -0.10871252447E+03 -0.48863044352E+02 -0.55566060000E+03  0.56829984381E+03  0.51100000000E-03 0. -1.
     200002    1    4    4    0    0 -0.20194087071E+02  0.79987127150E+01 -0.11307767144E+03  0.11898882441E+03  0.30000000000E+02 0.  1.
     200000    1    3    3    0    0  0.34863873216E+03 -0.70934107854E+02 -0.25819099977E+03  0.45104789722E+03  0.10100000000E+03 0. -1.
    -200001    1    1    2    0    0 -0.21973212062E+03  0.11179843949E+03  0.33182326338E+03  0.73936241048E+03  0.61300000000E+03 0. -1.
<mgrwt>
<rscale>  0 0.17808993E+04</rscale>
<asrwt>0</asrwt>
<pdfrwt beam="1">  1        2 0.17662893E+00 0.17808993E+04</pdfrwt>
<pdfrwt beam="2">  1       -2 0.91613784E-01 0.17808993E+04</pdfrwt>
<totfact> 0.19603510E+01</totfact>
</mgrwt>
</event>
<event>
 8    1  0.7326756E-052  0.1408510E+04  0.7818608E-02  0.8947682E-01
         -2   -1    0    0    0  501 -0.00000000000E+00  0.00000000000E+00  0.24873044067E+03  0.24873044068E+03  0.25500000000E-02 0. -1.
          2   -1    0    0  501    0  0.00000000000E+00 -0.00000000000E+00 -0.19940259047E+04  0.19940259047E+04  0.25500000000E-02 0.  1.
     200001    2    1    2    0    0 -0.90862385958E+02  0.17533851466E+03 -0.41926914580E+03  0.76860765391E+03  0.61316518258E+03 0.  0.
    5000001    2    3    3    0    0 -0.31525849034E+03  0.82497665198E+02 -0.19089140730E+03  0.42028248051E+03  0.18440188055E+03 0.  0.
        -11    1    4    4    0    0 -0.20115646697E+03 -0.32488629733E+02 -0.14225564030E+03  0.24850775131E+03  0.51100000000E-03 0. -1.
     200002    1    4    4    0    0 -0.11410202337E+03  0.11498629493E+03 -0.48635766999E+02  0.17177472920E+03  0.30000000000E+02 0. -1.
     200000    1    3    3    0    0  0.22439610438E+03  0.92840849461E+02 -0.22837773849E+03  0.34832517340E+03  0.10100000000E+03 0.  1.
    -200001    1    1    2    0    0  0.90862385958E+02 -0.17533851466E+03 -0.13260263182E+04  0.14741486914E+04  0.61300000000E+03 0. -1.
<mgrwt>
<rscale>  0 0.14085098E+04</rscale>
<asrwt>0</asrwt>
<pdfrwt beam="1">  1        2 0.28486083E+00 0.14085098E+04</pdfrwt>
<pdfrwt beam="2">  1       -2 0.35532921E-01 0.14085098E+04</pdfrwt>
<totfact> 0.58551091E+01</totfact>
</mgrwt>
</event>
<event>
 8    1  0.7326756E-052  0.1292871E+04  0.7818608E-02  0.9035238E-01
          2   -1    0    0  501    0  0.00000000000E+00  0.00000000000E+00  0.50775181523E+03  0.50775181523E+03  0.25500000000E-02 0.  1.
         -2   -1    0    0    0  501 -0.00000000000E+00 -0.00000000000E+00 -0.82299798066E+03  0.82299798066E+03  0.25500000000E-02 0. -1.
     200001    2    1    2    0    0 -0.39329756189E+02 -0.12528233031E+03 -0.32028384516E+03  0.70382326892E+03  0.61281560064E+03 0.  0.
    5000001    2    3    3    0    0 -0.10012018029E+02 -0.35850293397E+03 -0.15903366118E+03  0.40140964228E+03  0.84931745319E+02 0.  0.
        -11    1    4    4    0    0 -0.41225143142E+02 -0.19141124945E+03 -0.78753921042E+02  0.21104492158E+03  0.51100000000E-03 0. -1.
     200002    1    4    4    0    0  0.31213125113E+02 -0.16709168452E+03 -0.80279740135E+02  0.19036472071E+03  0.30000000000E+02 0. -1.
     200000    1    3    3    0    0 -0.29317738161E+02  0.23322060365E+03 -0.16125018399E+03  0.30241362664E+03  0.10100000000E+03 0.  1.
    -200001    1    1    2    0    0  0.39329756189E+02  0.12528233031E+03  0.50376797297E+01  0.62692652698E+03  0.61300000000E+03 0.  1.
<mgrwt>
<rscale>  0 0.12928708E+04</rscale>
<asrwt>0</asrwt>
<pdfrwt beam="1">  1        2 0.72535974E-01 0.12928708E+04</pdfrwt>
<pdfrwt beam="2">  1       -2 0.11757114E+00 0.12928708E+04</pdfrwt>
<totfact> 0.36174061E+01</totfact>
</mgrwt>
</event>
<event>
 8    1  0.7326756E-052  0.1365007E+04  0.7818608E-02  0.8979545E-01
         -2   -1    0    0    0  501 -0.00000000000E+00  0.00000000000E+00  0.20412613095E+03  0.20412613097E+03  0.25500000000E-02 0. -1.
          2   -1    0    0  501    0  0.00000000000E+00 -0.00000000000E+00 -0.22819774381E+04  0.22819774381E+04  0.25500000000E-02 0.  1.
     200001    2    1    2    0    0 -0.15992318137E+03  0.17255527061E+03 -0.13842706561E+04  0.15310256326E+04  0.61031425738E+03 0.  0.
    5000001    2    3    3    0    0 -0.10646893811E+03  0.20809707733E+02 -0.13265624809E+04  0.13324927500E+04  0.63247405799E+02 0.  0.
        -11    1    4    4    0    0 -0.54476081086E+02  0.33840340053E+02 -0.66631706491E+03  0.66939617792E+03  0.51100000000E-03 0. -1.
     200002    1    4    4    0    0 -0.51992857025E+02 -0.13030632320E+02 -0.66024541597E+03  0.66309657205E+03  0.30000000000E+02 0. -1.
     200000    1    3    3    0    0 -0.53454243262E+02  0.15174556288E+03 -0.57708175260E+02  0.19853288259E+03  0.10100000000E+03 0. -1.
    -200001    1    1    2    0    0  0.15992318137E+03 -0.17255527061E+03 -0.69358065102E+03  0.95507793652E+03  0.61300000000E+03 0. -1.
<mgrwt>
<rscale>  0 0.13650073E+04</rscale>
<asrwt>0</asrwt>
<pdfrwt beam="1">  1        2 0.32599676E+00 0.13650073E+04</pdfrwt>
<pdfrwt beam="2">  1       -2 0.29160877E-01 0.13650073E+04</pdfrwt>
<totfact> 0.60613611E+01</totfact>
</mgrwt>
</event>
<event>
 8    1  0.7326756E-052  0.1741301E+04  0.7818608E-02  0.8738153E-01
          2   -1    0    0  501    0  0.00000000000E+00  0.00000000000E+00  0.19183738073E+04  0.19183738073E+04  0.25500000000E-02 0.  1.
         -2   -1    0    0    0  501 -0.00000000000E+00 -0.00000000000E+00 -0.39514303384E+03  0.39514303385E+03  0.25500000000E-02 0. -1.
     200001    2    1    2    0    0 -0.41968338746E+03  0.15090936040E+03  0.13305781526E+04  0.15313456239E+04  0.61292203331E+03 0.  0.
    5000001    2    3    3    0    0  0.13003491725E+03  0.13287159464E+03  0.36055072245E+03  0.41167165762E+03  0.70091296641E+02 0.  0.
        -11    1    4    4    0    0  0.78435122957E+02  0.87288739296E+02  0.16742120778E+03  0.20445354811E+03  0.51100000000E-03 0. -1.
     200002    1    4    4    0    0  0.51599794296E+02  0.45582855344E+02  0.19312951467E+03  0.20721810951E+03  0.30000000000E+02 0. -1.
     200000    1    3    3    0    0 -0.54971830471E+03  0.18037765763E+02  0.97002743019E+03  0.11196739663E+04  0.10100000000E+03 0. -1.
    -200001    1    1    2    0    0  0.41968338746E+03 -0.15090936040E+03  0.19265262085E+03  0.78217121724E+03  0.61300000000E+03 0. -1.
<mgrwt>
<rscale>  0 0.17413007E+04</rscale>
<asrwt>0</asrwt>
<pdfrwt beam="1">  1        2 0.27405341E+00 0.17413007E+04</pdfrwt>
<pdfrwt beam="2">  1       -2 0.56449003E-01 0.17413007E+04</pdfrwt>
<totfact> 0.24751167E+01</totfact>
</mgrwt>
</event>
<event>
 8    1  0.7326756E-052  0.1524924E+04  0.7818608E-02  0.8868046E-01
         -2   -1    0    0    0  501 -0.00000000000E+00  0.00000000000E+00  0.98966073295E+03  0.98966073295E+03  0.25500000000E-02 0. -1.
          2   -1    0    0  501    0  0.00000000000E+00 -0.00000000000E+00 -0.58742172034E+03  0.58742172034E+03  0.25500000000E-02 0.  1.
     200001    2    1    2    0    0 -0.89716231825E+02 -0.42050631467E+03  0.68936568029E+02  0.75748860114E+03  0.61980816993E+03 0.  0.
    5000001    2    3    3    0    0  0.10952684212E+02  0.72180378530E+02 -0.15494017306E+03  0.19784924984E+03  0.99034842853E+02 0.  0.
        -11    1    4    4    0    0 -0.32266620284E+02  0.13969323180E+02 -0.87810152335E+02  0.94588052248E+02  0.51100000000E-03 0. -1.
     200002    1    4    4    0    0  0.43219304497E+02  0.58211055350E+02 -0.67130020726E+02  0.10326119760E+03  0.30000000000E+02 0. -1.
     200000    1    3    3    0    0 -0.10066891604E+03 -0.49268669320E+03  0.22387674109E+03  0.55963935129E+03  0.10100000000E+03 0. -1.
    -200001    1    1    2    0    0  0.89716231825E+02  0.42050631467E+03  0.33330244458E+03  0.81959385216E+03  0.61300000000E+03 0. -1.
<mgrwt>
<rscale>  0 0.15249239E+04</rscale>
<asrwt>0</asrwt>
<pdfrwt beam="1">  1        2 0.83917390E-01 0.15249239E+04</pdfrwt>
<pdfrwt beam="2">  1       -2 0.14138010E+00 0.15249239E+04</pdfrwt>
<totfact> 0.18816279E+01</totfact>
</mgrwt>
</event>
<event>
 8    1  0.7326756E-052  0.1394822E+04  0.7818608E-02  0.8957575E-01
         -2   -1    0    0    0  501 -0.00000000000E+00  0.00000000000E+00  0.52339101161E+03  0.52339101161E+03  0.25500000000E-02 0. -1.
          2   -1    0    0  501    0  0.00000000000E+00 -0.00000000000E+00 -0.92929022043E+03  0.92929022043E+03  0.25500000000E-02 0.  1.
     200001    2    1    2    0    0 -0.25937287489E+03 -0.18722727517E+03 -0.29051059899E+03  0.75167347740E+03  0.61505143501E+03 0.  0.
    5000001    2    3    3    0    0 -0.58614767690E+02 -0.13623926908E+03  0.14506181477E+03  0.25889774546E+03  0.15488151299E+03 0.  0.
        -11    1    4    4    0    0  0.51122282917E+02 -0.46910106448E+02  0.39596383730E+02  0.79886916966E+02  0.51100000000E-03 0. -1.
     200002    1    4    4    0    0 -0.10973705061E+03 -0.89329162635E+02  0.10546543104E+03  0.17901082849E+03  0.30000000000E+02 0. -1.
     200000    1    3    3    0    0 -0.20075810720E+03 -0.50988006092E+02 -0.43557241375E+03  0.49277573194E+03  0.10100000000E+03 0.  1.
    -200001    1    1    2    0    0  0.25937287489E+03  0.18722727517E+03 -0.11538860983E+03  0.70100775465E+03  0.61300000000E+03 0. -1.
<mgrwt>
<rscale>  0 0.13948221E+04</rscale>
<asrwt>0</asrwt>
<pdfrwt beam="1">  1        2 0.13275575E+00 0.13948221E+04</pdfrwt>
<pdfrwt beam="2">  1       -2 0.74770145E-01 0.13948221E+04</pdfrwt>
<totfact> 0.48804534E+01</totfact>
</mgrwt>
</event>
<event>
 8    1  0.7326756E-052  0.1241474E+04  0.7818608E-02  0.9077309E-01
         -2   -1    0    0    0  501 -0.00000000000E+00  0.00000000000E+00  0.13741148060E+04  0.13741148060E+04  0.25500000000E-02 0. -1.
          2   -1    0    0  501    0  0.00000000000E+00 -0.00000000000E+00 -0.28040915661E+03  0.28040915663E+03  0.25500000000E-02 0.  1.
     200001    2    1    2    0    0  0.29732869348E+02 -0.91622747149E+02  0.52938992973E+03  0.81577489242E+03  0.61315267762E+03 0.  0.
    5000001    2    3    3    0    0  0.79352857509E+01  0.24441969498E+03  0.30654642453E+03  0.39952991001E+03  0.76481909935E+02 0.  0.
        -11    1    4    4    0    0  0.28229966679E+02  0.81028304899E+02  0.13428364042E+03  0.15935687402E+03  0.51100000000E-03 0. -1.
     200002    1    4    4    0    0 -0.20294680928E+02  0.16339139008E+03  0.17226278411E+03  0.24017303599E+03  0.30000000000E+02 0. -1.
     200000    1    3    3    0    0  0.21797583597E+02 -0.33604244213E+03  0.22284350521E+03  0.41624498241E+03  0.10100000000E+03 0.  1.
    -200001    1    1    2    0    0 -0.29732869348E+02  0.91622747149E+02  0.56431571961E+03  0.83874907017E+03  0.61300000000E+03 0. -1.
<mgrwt>
<rscale>  0 0.12414739E+04</rscale>
<asrwt>0</asrwt>
<pdfrwt beam="1">  1        2 0.40058450E-01 0.12414739E+04</pdfrwt>
<pdfrwt beam="2">  1       -2 0.19630212E+00 0.12414739E+04</pdfrwt>
<totfact> 0.17813542E+01</totfact>
</mgrwt>
</event>
<event>
 8    1  0.7326756E-052  0.2086403E+04  0.7818608E-02  0.8567257E-01
          2   -1    0    0  501    0  0.00000000000E+00  0.00000000000E+00  0.20418344945E+04  0.20418344945E+04  0.25500000000E-02 0.  1.
         -2   -1    0    0    0  501 -0.00000000000E+00 -0.00000000000E+00 -0.53298618331E+03  0.53298618332E+03  0.25500000000E-02 0. -1.
     200001    2    1    2    0    0 -0.46334826629E+03 -0.55231551793E+03  0.12957861153E+04  0.16048162724E+04  0.61370152713E+03 0.  0.
    5000001    2    3    3    0    0 -0.35177312873E+03 -0.62848100359E+02  0.74132711218E+03  0.85006257065E+03  0.21294663406E+03 0.  0.
        -11    1    4    4    0    0 -0.31092546621E+03  0.11647845976E+02  0.46565860357E+03  0.56004308132E+03  0.51100000000E-03 0. -1.
     200002    1    4    4    0    0 -0.40847662517E+02 -0.74495946335E+02  0.27566850861E+03  0.29001948933E+03  0.30000000000E+02 0. -1.
     200000    1    3    3    0    0 -0.11157513756E+03 -0.48946741757E+03  0.55445900308E+03  0.75475370174E+03  0.10100000000E+03 0.  1.
    -200001    1    1    2    0    0  0.46334826629E+03  0.55231551793E+03  0.21306219593E+03  0.97000440543E+03  0.61300000000E+03 0. -1.
<mgrwt>
<rscale>  0 0.20864032E+04</rscale>
<asrwt>0</asrwt>
<pdfrwt beam="1">  1        2 0.29169064E+00 0.20864032E+04</pdfrwt>
<pdfrwt beam="2">  1       -2 0.76140883E-01 0.20864032E+04</pdfrwt>
<totfact> 0.10919480E+01</totfact>
</mgrwt>
</event>
<event>
 8    1  0.7326756E-052  0.1570107E+04  0.7818608E-02  0.8839126E-01
         -2   -1    0    0    0  501 -0.00000000000E+00  0.00000000000E+00  0.99963882026E+03  0.99963882026E+03  0.25500000000E-02 0. -1.
          2   -1    0    0  501    0  0.00000000000E+00 -0.00000000000E+00 -0.61653143820E+03  0.61653143820E+03  0.25500000000E-02 0.  1.
     200001    2    1    2    0    0  0.40545825424E+03  0.15754691435E+03  0.42487532447E+03  0.86335488458E+03  0.61289900410E+03 0.  0.
    5000001    2    3    3    0    0  0.25105923262E+03 -0.19484648434E+03  0.13407796431E+03  0.37062344658E+03  0.13560585497E+03 0.  0.
        -11    1    4    4    0    0  0.14601191373E+03 -0.34614079827E+02  0.75849350061E+02  0.16813904181E+03  0.51100000000E-03 0. -1.
     200002    1    4    4    0    0  0.10504731889E+03 -0.16023240451E+03  0.58228614248E+02  0.20248440478E+03  0.30000000000E+02 0. -1.
     200000    1    3    3    0    0  0.15439902162E+03  0.35239339868E+03  0.29079736016E+03  0.49273143800E+03  0.10100000000E+03 0. -1.
    -200001    1    1    2    0    0 -0.40545825424E+03 -0.15754691435E+03 -0.41767942414E+02  0.75281537389E+03  0.61300000000E+03 0. -1.
<mgrwt>
<rscale>  0 0.15701067E+04</rscale>
<asrwt>0</asrwt>
<pdfrwt beam="1">  1        2 0.88075920E-01 0.15701067E+04</pdfrwt>
<pdfrwt beam="2">  1       -2 0.14280554E+00 0.15701067E+04</pdfrwt>
<totfact> 0.17248142E+01</totfact>
</mgrwt>
</event>
<event>
 8    1  0.7326756E-052  0.3891367E+04  0.7818608E-02  0.8026827E-01
         -2   -1    0    0    0  501 -0.00000000000E+00  0.00000000000E+00  0.13932033131E+04  0.13932033131E+04  0.25500000000E-02 0. -1.
          2   -1    0    0  501    0  0.00000000000E+00 -0.00000000000E+00 -0.27172519771E+04  0.27172519771E+04  0.25500000000E-02 0.  1.
     200001    2    1    2    0    0 -0.18029865774E+04 -0.29863816868E+03 -0.38180275851E+03  0.19648687270E+04  0.61236460870E+03 0.  0.
    5000001    2    3    3    0    0 -0.77027349018E+03  0.13478343493E+03 -0.29187430511E+03  0.83675581880E+03  0.59007341089E+02 0.  0.
        -11    1    4    4    0    0 -0.38934204050E+03  0.71709757879E+02 -0.12612711529E+03  0.41549676664E+03  0.51100000000E-03 0. -1.
     200002    1    4    4    0    0 -0.38093144968E+03  0.63073677055E+02 -0.16574718982E+03  0.42125905216E+03  0.30000000000E+02 0.  1.
     200000    1    3    3    0    0 -0.10327130872E+04 -0.43342160361E+03 -0.89928453406E+02  0.11281129082E+04  0.10100000000E+03 0.  1.
    -200001    1    1    2    0    0  0.18029865774E+04  0.29863816868E+03 -0.94224590549E+03  0.21455865632E+04  0.61300000000E+03 0. -1.
<mgrwt>
<rscale>  0 0.38913671E+04</rscale>
<asrwt>0</asrwt>
<pdfrwt beam="1">  1        2 0.38817885E+00 0.38913671E+04</pdfrwt>
<pdfrwt beam="2">  1       -2 0.19902905E+00 0.38913671E+04</pdfrwt>
<totfact> 0.36644962E-01</totfact>
</mgrwt>
</event>
<event>
 8    1  0.7326756E-052  0.1410154E+04  0.7818608E-02  0.8946501E-01
         -2   -1    0    0    0  501 -0.00000000000E+00  0.00000000000E+00  0.17193069494E+03  0.17193069495E+03  0.25500000000E-02 0. -1.
          2   -1    0    0  501    0  0.00000000000E+00 -0.00000000000E+00 -0.28914785006E+04  0.28914785006E+04  0.25500000000E-02 0.  1.
     200001    2    1    2    0    0 -0.17201858038E+03  0.25503611021E+03 -0.17151804186E+04  0.18472033504E+04  0.61292947395E+03 0.  0.
    5000001    2    3    3    0    0  0.19538482704E+03  0.77983656817E+01 -0.35542874720E+03  0.41359344047E+03  0.80584703985E+02 0.  0.
        -11    1    4    4    0    0  0.16803713702E+03 -0.18532967630E+00 -0.30629777005E+03  0.34936347506E+03  0.51100000000E-03 0. -1.
     200002    1    4    4    0    0  0.27347690019E+02  0.79836953580E+01 -0.49130977147E+02  0.64229965409E+02  0.30000000000E+02 0.  1.
     200000    1    3    3    0    0 -0.36740340742E+03  0.24723774453E+03 -0.13597516714E+04  0.14336099100E+04  0.10100000000E+03 0.  1.
    -200001    1    1    2    0    0  0.17201858038E+03 -0.25503611021E+03 -0.10043673871E+04  0.12162058452E+04  0.61300000000E+03 0. -1.
<mgrwt>
<rscale>  0 0.14101545E+04</rscale>
<asrwt>0</asrwt>
<pdfrwt beam="1">  1        2 0.41306833E+00 0.14101545E+04</pdfrwt>
<pdfrwt beam="2">  1       -2 0.24561530E-01 0.14101545E+04</pdfrwt>
<totfact> 0.39302715E+01</totfact>
</mgrwt>
</event>
<event>
 8    1  0.7326756E-052  0.1441320E+04  0.7818608E-02  0.8924441E-01
         -2   -1    0    0    0  501 -0.00000000000E+00  0.00000000000E+00  0.97278753494E+03  0.97278753494E+03  0.25500000000E-02 0. -1.
          2   -1    0    0  501    0  0.00000000000E+00 -0.00000000000E+00 -0.53387863503E+03  0.53387863504E+03  0.25500000000E-02 0.  1.
     200001    2    1    2    0    0 -0.31268726892E+03 -0.13378644077E+03  0.46955632152E+02  0.70350460219E+03  0.61403725785E+03 0.  0.
    5000001    2    3    3    0    0 -0.33827195907E+03 -0.29585393536E+03  0.15757441291E+03  0.48133807945E+03  0.69994155200E+02 0.  0.
        -11    1    4    4    0    0 -0.14678130665E+03 -0.90835469374E+02  0.63715803451E+02  0.18399874480E+03  0.51100000000E-03 0. -1.
     200002    1    4    4    0    0 -0.19149065242E+03 -0.20501846598E+03  0.93858609459E+02  0.29733933464E+03  0.30000000000E+02 0. -1.
     200000    1    3    3    0    0  0.25584690146E+02  0.16206749458E+03 -0.11061878076E+03  0.22216652274E+03  0.10100000000E+03 0.  1.
    -200001    1    1    2    0    0  0.31268726892E+03  0.13378644077E+03  0.39195326775E+03  0.80316156780E+03  0.61300000000E+03 0.  1.
<mgrwt>
<rscale>  0 0.14413195E+04</rscale>
<asrwt>0</asrwt>
<pdfrwt beam="1">  1        2 0.76268376E-01 0.14413195E+04</pdfrwt>
<pdfrwt beam="2">  1       -2 0.13896965E+00 0.14413195E+04</pdfrwt>
<totfact> 0.22141165E+01</totfact>
</mgrwt>
</event>
<event>
 8    1  0.7326756E-052  0.1316629E+04  0.7818608E-02  0.9016481E-01
         -2   -1    0    0    0  501 -0.00000000000E+00  0.00000000000E+00  0.13906853603E+03  0.13906853605E+03  0.25500000000E-02 0. -1.
          2   -1    0    0  501    0  0.00000000000E+00 -0.00000000000E+00 -0.31162895414E+04  0.31162895414E+04  0.25500000000E-02 0.  1.
     200001    2    1    2    0    0  0.45425723857E+02  0.21598535345E+03 -0.12466633962E+04  0.14062199518E+04  0.61202267931E+03 0.  0.
    5000001    2    3    3    0    0  0.14627963072E+03  0.30137721262E+03 -0.11651442876E+04  0.12209913222E+04  0.14502635395E+03 0.  0.
        -11    1    4    4    0    0  0.11151464254E+03  0.29403631046E+03 -0.10671940350E+04  0.11125627963E+04  0.51100000000E-03 0. -1.
     200002    1    4    4    0    0  0.34764988177E+02  0.73409021591E+01 -0.97950252622E+02  0.10842852593E+03  0.30000000000E+02 0. -1.
     200000    1    3    3    0    0 -0.10085390686E+03 -0.85391859166E+02 -0.81519108642E+02  0.18522862958E+03  0.10100000000E+03 0. -1.
    -200001    1    1    2    0    0 -0.45425723857E+02 -0.21598535345E+03 -0.17305576091E+04  0.18491381257E+04  0.61300000000E+03 0.  1.
<mgrwt>
<rscale>  0 0.13166288E+04</rscale>
<asrwt>0</asrwt>
<pdfrwt beam="1">  1        2 0.44518418E+00 0.13166288E+04</pdfrwt>
<pdfrwt beam="2">  1       -2 0.19866936E-01 0.13166288E+04</pdfrwt>
<totfact> 0.43369521E+01</totfact>
</mgrwt>
</event>
<event>
 8    1  0.7326756E-052  0.1709238E+04  0.7818608E-02  0.8756113E-01
         -2   -1    0    0    0  501 -0.00000000000E+00  0.00000000000E+00  0.35752480703E+03  0.35752480704E+03  0.25500000000E-02 0. -1.
          2   -1    0    0  501    0  0.00000000000E+00 -0.00000000000E+00 -0.20428605146E+04  0.20428605146E+04  0.25500000000E-02 0.  1.
     200001    2    1    2    0    0  0.12983989957E+03  0.37194685667E+03 -0.21595411342E+03  0.76024687233E+03  0.61329948971E+03 0.  0.
    5000001    2    3    3    0    0  0.12782118684E+02  0.31785641461E+03  0.14914876651E+03  0.36008513888E+03  0.78866151325E+02 0.  0.
        -11    1    4    4    0    0  0.26906576364E+02  0.20924587023E+03  0.72499750038E+02  0.22307848801E+03  0.51100000000E-03 0. -1.
     200002    1    4    4    0    0 -0.14124457679E+02  0.10861054438E+03  0.76649016468E+02  0.13700665086E+03  0.30000000000E+02 0.  1.
     200000    1    3    3    0    0  0.11705778088E+03  0.54090442060E+02 -0.36510287993E+03  0.40016173345E+03  0.10100000000E+03 0.  1.
    -200001    1    1    2    0    0 -0.12983989957E+03 -0.37194685667E+03 -0.14693815941E+04  0.16401384493E+04  0.61300000000E+03 0.  1.
<mgrwt>
<rscale>  0 0.17092376E+04</rscale>
<asrwt>0</asrwt>
<pdfrwt beam="1">  1        2 0.29183721E+00 0.17092376E+04</pdfrwt>
<pdfrwt beam="2">  1       -2 0.51074974E-01 0.17092376E+04</pdfrwt>
<totfact> 0.26329417E+01</totfact>
</mgrwt>
</event>
<event>
 8    1  0.7326756E-052  0.1254670E+04  0.7818608E-02  0.9066305E-01
         -2   -1    0    0    0  501 -0.00000000000E+00  0.00000000000E+00  0.99313686090E+02  0.99313686123E+02  0.25500000000E-02 0. -1.
          2   -1    0    0  501    0  0.00000000000E+00 -0.00000000000E+00 -0.39626880235E+04  0.39626880235E+04  0.25500000000E-02 0.  1.
     200001    2    1    2    0    0  0.43560289273E+02  0.11768702840E+03 -0.20792085840E+04  0.21712970338E+04  0.61292310924E+03 0.  0.
    5000001    2    3    3    0    0 -0.87956605565E+00 -0.24128267970E+03 -0.92027483748E+03  0.95303491880E+03  0.56139779069E+02 0.  0.
        -11    1    4    4    0    0  0.90537832646E+01 -0.19155757738E+02 -0.12214513980E+03  0.12396914625E+03  0.51100000000E-03 0. -1.
     200002    1    4    4    0    0 -0.99333493203E+01 -0.22212692196E+03 -0.79812969768E+03  0.82906577255E+03  0.30000000000E+02 0. -1.
     200000    1    3    3    0    0  0.44439855329E+02  0.35896970810E+03 -0.11589337465E+04  0.12182621150E+04  0.10100000000E+03 0. -1.
    -200001    1    1    2    0    0 -0.43560289273E+02 -0.11768702840E+03 -0.17841657534E+04  0.18907046757E+04  0.61300000000E+03 0.  1.
<mgrwt>
<rscale>  0 0.12546699E+04</rscale>
<asrwt>0</asrwt>
<pdfrwt beam="1">  1        2 0.56609819E+00 0.12546699E+04</pdfrwt>
<pdfrwt beam="2">  1       -2 0.14187672E-01 0.12546699E+04</pdfrwt>
<totfact> 0.23593376E+01</totfact>
</mgrwt>
</event>
<event>
 8    1  0.7326756E-052  0.1366993E+04  0.7818608E-02  0.8978064E-01
          2   -1    0    0  501    0  0.00000000000E+00  0.00000000000E+00  0.16211848042E+04  0.16211848042E+04  0.25500000000E-02 0.  1.
         -2   -1    0    0    0  501 -0.00000000000E+00 -0.00000000000E+00 -0.28816411262E+03  0.28816411263E+03  0.25500000000E-02 0. -1.
     200001    2    1    2    0    0 -0.28118246004E+03  0.10142699641E+03  0.60418786973E+03  0.91119196844E+03  0.61308793006E+03 0.  0.
    5000001    2    3    3    0    0 -0.23522010228E+03  0.29096633896E+03  0.15735616660E+03  0.41329913697E+03  0.77880077857E+02 0.  0.
        -11    1    4    4    0    0 -0.12839107668E+03  0.14057947530E+03  0.11235063564E+03  0.22106452175E+03  0.51100000000E-03 0. -1.
     200002    1    4    4    0    0 -0.10682902560E+03  0.15038686366E+03  0.45005530961E+02  0.19223461522E+03  0.30000000000E+02 0. -1.
     200000    1    3    3    0    0 -0.45962357761E+02 -0.18953934255E+03  0.44683170314E+03  0.49789283147E+03  0.10100000000E+03 0.  1.
    -200001    1    1    2    0    0  0.28118246004E+03 -0.10142699641E+03  0.72883282190E+03  0.99815694844E+03  0.61300000000E+03 0. -1.
<mgrwt>
<rscale>  0 0.13669927E+04</rscale>
<asrwt>0</asrwt>
<pdfrwt beam="1">  1        2 0.23159783E+00 0.13669927E+04</pdfrwt>
<pdfrwt beam="2">  1       -2 0.41166303E-01 0.13669927E+04</pdfrwt>
<totfact> 0.68804032E+01</totfact>
</mgrwt>
</event>
<event>
 8    1  0.7326756E-052  0.1854078E+04  0.7818608E-02  0.8678059E-01
          2   -1    0    0  501    0  0.00000000000E+00  0.00000000000E+00  0.18522125896E+04  0.18522125896E+04  0.25500000000E-02 0.  1.
         -2   -1    0    0    0  501 -0.00000000000E+00 -0.00000000000E+00 -0.46398613937E+03  0.46398613938E+03  0.25500000000E-02 0. -1.
     200001    2    1    2    0    0 -0.47754642747E+02 -0.56672912621E+03  0.19407913098E+03  0.85838556247E+03  0.61294098931E+03 0.  0.
    5000001    2    3    3    0    0  0.71053598234E+02  0.10658405154E+03  0.33237255779E+02  0.14878205185E+03  0.67989778034E+02 0.  0.
        -11    1    4    4    0    0  0.19475795611E+02  0.71623508423E+02  0.60365376999E+01  0.74469277968E+02  0.51100000000E-03 0. -1.
     200002    1    4    4    0    0  0.51577802623E+02  0.34960543120E+02  0.27200718079E+02  0.74312773887E+02  0.30000000000E+02 0. -1.
     200000    1    3    3    0    0 -0.11880824098E+03 -0.67331317775E+03  0.16084187520E+03  0.70960351062E+03  0.10100000000E+03 0. -1.
    -200001    1    1    2    0    0  0.47754642747E+02  0.56672912621E+03  0.11941473193E+04  0.14578131665E+04  0.61300000000E+03 0.  1.
<mgrwt>
<rscale>  0 0.18540776E+04</rscale>
<asrwt>0</asrwt>
<pdfrwt beam="1">  1        2 0.26460179E+00 0.18540776E+04</pdfrwt>
<pdfrwt beam="2">  1       -2 0.66283736E-01 0.18540776E+04</pdfrwt>
<totfact> 0.18872765E+01</totfact>
</mgrwt>
</event>
<event>
 8    1  0.7326756E-052  0.2123640E+04  0.7818608E-02  0.8550901E-01
          2   -1    0    0  501    0  0.00000000000E+00  0.00000000000E+00  0.19303451330E+04  0.19303451330E+04  0.25500000000E-02 0.  1.
         -2   -1    0    0    0  501 -0.00000000000E+00 -0.00000000000E+00 -0.58407276562E+03  0.58407276563E+03  0.25500000000E-02 0. -1.
     200001    2    1    2    0    0  0.48272037748E+03  0.50852296149E+03  0.69083302204E+02  0.93372328125E+03  0.61274146106E+03 0.  0.
    5000001    2    3    3    0    0  0.78105421203E+02  0.39687655741E+03  0.19201016901E+03  0.48484668688E+03  0.18600254337E+03 0.  0.
        -11    1    4    4    0    0  0.90812920868E+02  0.30429108152E+03  0.21569258131E+03  0.38387932807E+03  0.51100000000E-03 0. -1.
     200002    1    4    4    0    0 -0.12707499665E+02  0.92585475891E+02 -0.23682412301E+02  0.10096735881E+03  0.30000000000E+02 0.  1.
     200000    1    3    3    0    0  0.40461495627E+03  0.11164640408E+03 -0.12292686680E+03  0.44887659436E+03  0.10100000000E+03 0.  1.
    -200001    1    1    2    0    0 -0.48272037748E+03 -0.50852296149E+03  0.12771890651E+04  0.15806946173E+04  0.61300000000E+03 0.  1.
<mgrwt>
<rscale>  0 0.21236403E+04</rscale>
<asrwt>0</asrwt>
<pdfrwt beam="1">  1        2 0.27576359E+00 0.21236403E+04</pdfrwt>
<pdfrwt beam="2">  1       -2 0.83438967E-01 0.21236403E+04</pdfrwt>
<totfact> 0.10118122E+01</totfact>
</mgrwt>
</event>
<event>
 8    1  0.7326756E-052  0.1789629E+04  0.7818608E-02  0.8711834E-01
          2   -1    0    0  501    0  0.00000000000E+00  0.00000000000E+00  0.11774173389E+04  0.11774173389E+04  0.25500000000E-02 0.  1.
         -2   -1    0    0    0  501 -0.00000000000E+00 -0.00000000000E+00 -0.68004145041E+03  0.68004145041E+03  0.25500000000E-02 0. -1.
     200001    2    1    2    0    0  0.56738385889E+03 -0.18899794352E+03 -0.20055842692E+02  0.85688432312E+03  0.61335457967E+03 0.  0.
    5000001    2    3    3    0    0  0.37388372380E+03 -0.35137474803E+02  0.26556599404E+03  0.46586491218E+03  0.74034709082E+02 0.  0.
        -11    1    4    4    0    0  0.16272458259E+03 -0.30712628875E+02  0.83751569258E+02  0.18557176699E+03  0.51100000000E-03 0. -1.
     200002    1    4    4    0    0  0.21115914121E+03 -0.44248459275E+01  0.18181442478E+03  0.28029314518E+03  0.30000000000E+02 0.  1.
     200000    1    3    3    0    0  0.19350013509E+03 -0.15386046871E+03 -0.28562183673E+03  0.39101941094E+03  0.10100000000E+03 0. -1.
    -200001    1    1    2    0    0 -0.56738385889E+03  0.18899794352E+03  0.51743173120E+03  0.10005744662E+04  0.61300000000E+03 0.  1.
<mgrwt>
<rscale>  0 0.17896286E+04</rscale>
<asrwt>0</asrwt>
<pdfrwt beam="1">  1        2 0.16820248E+00 0.17896286E+04</pdfrwt>
<pdfrwt beam="2">  1       -2 0.97148779E-01 0.17896286E+04</pdfrwt>
<totfact> 0.18458299E+01</totfact>
</mgrwt>
</event>
<event>
 8    1  0.7326756E-052  0.1591137E+04  0.7818608E-02  0.8826011E-01
         -2   -1    0    0    0  501 -0.00000000000E+00  0.00000000000E+00  0.10933243825E+04  0.10933243825E+04  0.25500000000E-02 0. -1.
          2   -1    0    0  501    0  0.00000000000E+00 -0.00000000000E+00 -0.57890353024E+03  0.57890353024E+03  0.25500000000E-02 0.  1.
     200001    2    1    2    0    0 -0.21040689297E+03 -0.21384214748E+03 -0.17277723697E+03  0.70371888415E+03  0.61267346086E+03 0.  0.
    5000001    2    3    3    0    0 -0.20091842001E+03 -0.26792374710E+03 -0.34952131239E+03  0.49287695585E+03  0.92796551828E+02 0.  0.
        -11    1    4    4    0    0 -0.16655322085E+03 -0.22356524445E+03 -0.31439133108E+03  0.42019436331E+03  0.51100000000E-03 0. -1.
     200002    1    4    4    0    0 -0.34365199163E+02 -0.44358502646E+02 -0.35129981309E+02  0.72682592533E+02  0.30000000000E+02 0.  1.
     200000    1    3    3    0    0 -0.94884729534E+01  0.54081599620E+02  0.17674407541E+03  0.21084192830E+03  0.10100000000E+03 0. -1.
    -200001    1    1    2    0    0  0.21040689297E+03  0.21384214748E+03  0.68719808927E+03  0.96850902863E+03  0.61300000000E+03 0. -1.
<mgrwt>
<rscale>  0 0.15911371E+04</rscale>
<asrwt>0</asrwt>
<pdfrwt beam="1">  1        2 0.82700506E-01 0.15911371E+04</pdfrwt>
<pdfrwt beam="2">  1       -2 0.15618919E+00 0.15911371E+04</pdfrwt>
<totfact> 0.14631951E+01</totfact>
</mgrwt>
</event>
<event>
 8    1  0.7326756E-052  0.1517667E+04  0.7818608E-02  0.8872789E-01
         -2   -1    0    0    0  501 -0.00000000000E+00  0.00000000000E+00  0.10348803710E+04  0.10348803710E+04  0.25500000000E-02 0. -1.
          2   -1    0    0  501    0  0.00000000000E+00 -0.00000000000E+00 -0.55641983027E+03  0.55641983028E+03  0.25500000000E-02 0.  1.
     200001    2    1    2    0    0  0.28091663885E+03  0.34748605328E+03  0.24704025151E+03  0.79821441435E+03  0.61356063287E+03 0.  0.
    5000001    2    3    3    0    0  0.33674292332E+03  0.22865908147E+03 -0.42457625906E+02  0.46467814302E+03  0.22009623954E+03 0.  0.
        -11    1    4    4    0    0  0.34512743694E+03  0.15101001994E+03 -0.16500377033E+02  0.37707988052E+03  0.51100000000E-03 0. -1.
     200002    1    4    4    0    0 -0.83845136178E+01  0.77649061521E+02 -0.25957248873E+02  0.87598262499E+02  0.30000000000E+02 0. -1.
     200000    1    3    3    0    0 -0.55826284470E+02  0.11882697181E+03  0.28949787741E+03  0.33353627133E+03  0.10100000000E+03 0. -1.
    -200001    1    1    2    0    0 -0.28091663885E+03 -0.34748605328E+03  0.23142028924E+03  0.79308578696E+03  0.61300000000E+03 0.  1.
<mgrwt>
<rscale>  0 0.15176666E+04</rscale>
<asrwt>0</asrwt>
<pdfrwt beam="1">  1        2 0.79488548E-01 0.15176666E+04</pdfrwt>
<pdfrwt beam="2">  1       -2 0.14784005E+00 0.15176666E+04</pdfrwt>
<totfact> 0.17843639E+01</totfact>
</mgrwt>
</event>
<event>
 8    1  0.7326756E-052  0.1321572E+04  0.7818608E-02  0.9012631E-01
          2   -1    0    0  501    0  0.00000000000E+00  0.00000000000E+00  0.41551363844E+03  0.41551363844E+03  0.25500000000E-02 0.  1.
         -2   -1    0    0    0  501 -0.00000000000E+00 -0.00000000000E+00 -0.10508389747E+04  0.10508389747E+04  0.25500000000E-02 0. -1.
     200001    2    1    2    0    0 -0.12951194348E+03  0.45365985250E+02 -0.54448461092E+03  0.83164602465E+03  0.61346573064E+03 0.  0.
    5000001    2    3    3    0    0  0.21966854343E+03 -0.53151044303E+02 -0.15898703737E+03  0.29271931650E+03  0.96583734218E+02 0.  0.
        -11    1    4    4    0    0  0.52998670446E+02 -0.35177512061E+02 -0.87133140791E+02  0.10788188285E+03  0.51100000000E-03 0. -1.
     200002    1    4    4    0    0  0.16666987299E+03 -0.17973532243E+02 -0.71853896577E+02  0.18483743364E+03  0.30000000000E+02 0. -1.
     200000    1    3    3    0    0 -0.34918048691E+03  0.98517029553E+02 -0.38549757355E+03  0.53892670816E+03  0.10100000000E+03 0.  1.
    -200001    1    1    2    0    0  0.12951194348E+03 -0.45365985250E+02 -0.90840725367E+02  0.63470658852E+03  0.61300000000E+03 0.  1.
<mgrwt>
<rscale>  0 0.13215717E+04</rscale>
<asrwt>0</asrwt>
<pdfrwt beam="1">  1        2 0.59359092E-01 0.13215717E+04</pdfrwt>
<pdfrwt beam="2">  1       -2 0.15011985E+00 0.13215717E+04</pdfrwt>
<totfact> 0.24258922E+01</totfact>
</mgrwt>
</event>
<event>
 8    1  0.7326756E-052  0.1261108E+04  0.7818608E-02  0.9060989E-01
         -2   -1    0    0    0  501 -0.00000000000E+00  0.00000000000E+00  0.67735808749E+03  0.67735808749E+03  0.25500000000E-02 0. -1.
          2   -1    0    0  501    0  0.00000000000E+00 -0.00000000000E+00 -0.58698373163E+03  0.58698373163E+03  0.25500000000E-02 0.  1.
     200001    2    1    2    0    0 -0.42128058191E+02 -0.86172615002E+02  0.15769006478E+03  0.64024174900E+03  0.61306023176E+03 0.  0.
    5000001    2    3    3    0    0 -0.22350151393E+03  0.96954834339E+02 -0.89072100396E+02  0.26939871036E+03  0.72723169934E+02 0.  0.
        -11    1    4    4    0    0 -0.18053301646E+03  0.87768206913E+02 -0.75730071575E+02  0.21454713216E+03  0.51100000000E-03 0. -1.
     200002    1    4    4    0    0 -0.42968497470E+02  0.91866274260E+01 -0.13342028821E+02  0.54851578203E+02  0.30000000000E+02 0. -1.
     200000    1    3    3    0    0  0.18137345573E+03 -0.18312744934E+03  0.24676216517E+03  0.37084303864E+03  0.10100000000E+03 0. -1.
    -200001    1    1    2    0    0  0.42128058191E+02  0.86172615002E+02 -0.67315708913E+02  0.62410007012E+03  0.61300000000E+03 0.  1.
<mgrwt>
<rscale>  0 0.12611077E+04</rscale>
<asrwt>0</asrwt>
<pdfrwt beam="1">  1        2 0.83854818E-01 0.12611077E+04</pdfrwt>
<pdfrwt beam="2">  1       -2 0.96765441E-01 0.12611077E+04</pdfrwt>
<totfact> 0.48928318E+01</totfact>
</mgrwt>
</event>
<event>
 8    1  0.7326756E-052  0.1613851E+04  0.7818608E-02  0.8812084E-01
         -2   -1    0    0    0  501 -0.00000000000E+00  0.00000000000E+00  0.33752203510E+03  0.33752203511E+03  0.25500000000E-02 0. -1.
          2   -1    0    0  501    0  0.00000000000E+00 -0.00000000000E+00 -0.19291437148E+04  0.19291437148E+04  0.25500000000E-02 0.  1.
     200001    2    1    2    0    0 -0.18238425173E+03  0.49197861601E+03 -0.79242078558E+03  0.11309729908E+04  0.61307603986E+03 0.  0.
    5000001    2    3    3    0    0  0.17339425854E+02  0.17700802236E+03  0.50663269339E+02  0.20356383305E+03  0.85082146172E+02 0.  0.
        -11    1    4    4    0    0 -0.24160232533E+02  0.72971780591E+02  0.41225202875E+02  0.87224508889E+02  0.51100000000E-03 0. -1.
     200002    1    4    4    0    0  0.41499658387E+02  0.10403624177E+03  0.94380664638E+01  0.11633932416E+03  0.30000000000E+02 0. -1.
     200000    1    3    3    0    0 -0.19972367758E+03  0.31497059364E+03 -0.84308405492E+03  0.92740915777E+03  0.10100000000E+03 0.  1.
    -200001    1    1    2    0    0  0.18238425173E+03 -0.49197861601E+03 -0.79920089408E+03  0.11356927591E+04  0.61300000000E+03 0.  1.
<mgrwt>
<rscale>  0 0.16138507E+04</rscale>
<asrwt>0</asrwt>
<pdfrwt beam="1">  1        2 0.27559195E+00 0.16138507E+04</pdfrwt>
<pdfrwt beam="2">  1       -2 0.48217434E-01 0.16138507E+04</pdfrwt>
<totfact> 0.34127765E+01</totfact>
</mgrwt>
</event>
<event>
 8    1  0.7326756E-052  0.1332299E+04  0.7818608E-02  0.9004337E-01
          2   -1    0    0  501    0  0.00000000000E+00  0.00000000000E+00  0.15955481492E+04  0.15955481492E+04  0.25500000000E-02 0.  1.
         -2   -1    0    0    0  501 -0.00000000000E+00 -0.00000000000E+00 -0.27812088234E+03  0.27812088235E+03  0.25500000000E-02 0. -1.
     200001    2    1    2    0    0  0.25215300852E+03  0.58816937316E+02  0.62059400991E+03  0.91014105593E+03  0.61333452922E+03 0.  0.
    5000001    2    3    3    0    0  0.17556261641E+03  0.31843692511E+03  0.32048951789E+03  0.49356893449E+03  0.93126013907E+02 0.  0.
        -11    1    4    4    0    0  0.61372291584E+02  0.10429933269E+03  0.16184456319E+03  0.20208555517E+03  0.51100000000E-03 0. -1.
     200002    1    4    4    0    0  0.11419032483E+03  0.21413759242E+03  0.15864495470E+03  0.29148337932E+03  0.30000000000E+02 0. -1.
     200000    1    3    3    0    0  0.76590392111E+02 -0.25961998779E+03  0.30010449203E+03  0.41657212144E+03  0.10100000000E+03 0. -1.
    -200001    1    1    2    0    0 -0.25215300852E+03 -0.58816937316E+02  0.69683325696E+03  0.96352797563E+03  0.61300000000E+03 0. -1.
<mgrwt>
<rscale>  0 0.13322992E+04</rscale>
<asrwt>0</asrwt>
<pdfrwt beam="1">  1        2 0.22793545E+00 0.13322992E+04</pdfrwt>
<pdfrwt beam="2">  1       -2 0.39731555E-01 0.13322992E+04</pdfrwt>
<totfact> 0.76262265E+01</totfact>
</mgrwt>
</event>
<event>
 8    1  0.7326756E-052  0.1428767E+04  0.7818608E-02  0.8933254E-01
          2   -1    0    0  501    0  0.00000000000E+00  0.00000000000E+00  0.15172034856E+04  0.15172034856E+04  0.25500000000E-02 0.  1.
         -2   -1    0    0    0  501 -0.00000000000E+00 -0.00000000000E+00 -0.33637156840E+03  0.33637156841E+03  0.25500000000E-02 0. -1.
     200001    2    1    2    0    0  0.20920327869E+03 -0.90027286898E+02  0.96424521796E+03  0.11646993595E+04  0.61227839538E+03 0.  0.
    5000001    2    3    3    0    0  0.12620163868E+03 -0.88465182642E+02  0.10106739268E+04  0.10259609819E+04  0.85913956608E+02 0.  0.
        -11    1    4    4    0    0  0.74668263196E+02 -0.85391965418E+02  0.75046847141E+03  0.75899279567E+03  0.51100000000E-03 0. -1.
     200002    1    4    4    0    0  0.51533375482E+02 -0.30732172246E+01  0.26020545538E+03  0.26696818623E+03  0.30000000000E+02 0. -1.
     200000    1    3    3    0    0  0.83001640014E+02 -0.15621042559E+01 -0.46428708831E+02  0.13873837760E+03  0.10100000000E+03 0. -1.
    -200001    1    1    2    0    0 -0.20920327869E+03  0.90027286898E+02  0.21658669924E+03  0.68887569451E+03  0.61300000000E+03 0. -1.
<mgrwt>
<rscale>  0 0.14287675E+04</rscale>
<asrwt>0</asrwt>
<pdfrwt beam="1">  1        2 0.21674336E+00 0.14287675E+04</pdfrwt>
<pdfrwt beam="2">  1       -2 0.48053081E-01 0.14287675E+04</pdfrwt>
<totfact> 0.57088525E+01</totfact>
</mgrwt>
</event>
<event>
 8    1  0.7326756E-052  0.1571775E+04  0.7818608E-02  0.8838078E-01
         -2   -1    0    0    0  501 -0.00000000000E+00  0.00000000000E+00  0.73180078306E+03  0.73180078306E+03  0.25500000000E-02 0. -1.
          2   -1    0    0  501    0  0.00000000000E+00 -0.00000000000E+00 -0.84397175812E+03  0.84397175812E+03  0.25500000000E-02 0.  1.
     200001    2    1    2    0    0  0.46380801394E+03  0.15278638387E+03  0.24796793500E+01  0.78370226308E+03  0.61296128382E+03 0.  0.
    5000001    2    3    3    0    0  0.22273198990E+03  0.95450472632E+02  0.28954432085E+03  0.39125842699E+03  0.10260073541E+03 0.  0.
        -11    1    4    4    0    0  0.50359232910E+02  0.31726526584E+02  0.18337270769E+02  0.62280657735E+02  0.51100000000E-03 0. -1.
     200002    1    4    4    0    0  0.17237275699E+03  0.63723946048E+02  0.27120705008E+03  0.32897776926E+03  0.30000000000E+02 0. -1.
     200000    1    3    3    0    0  0.24107602404E+03  0.57335911241E+02 -0.28706464150E+03  0.39244383609E+03  0.10100000000E+03 0.  1.
    -200001    1    1    2    0    0 -0.46380801394E+03 -0.15278638387E+03 -0.11465065441E+03  0.79207027810E+03  0.61300000000E+03 0.  1.
<mgrwt>
<rscale>  0 0.15717750E+04</rscale>
<asrwt>0</asrwt>
<pdfrwt beam="1">  1        2 0.12056739E+00 0.15717750E+04</pdfrwt>
<pdfrwt beam="2">  1       -2 0.10454297E+00 0.15717750E+04</pdfrwt>
<totfact> 0.25360830E+01</totfact>
</mgrwt>
</event>
<event>
 8    1  0.7326756E-052  0.1462828E+04  0.7818608E-02  0.8909555E-01
          2   -1    0    0  501    0  0.00000000000E+00  0.00000000000E+00  0.36283955123E+03  0.36283955124E+03  0.25500000000E-02 0.  1.
         -2   -1    0    0    0  501 -0.00000000000E+00 -0.00000000000E+00 -0.14743889059E+04  0.14743889059E+04  0.25500000000E-02 0. -1.
     200001    2    1    2    0    0  0.20670618801E+03  0.24691114113E+02 -0.12951234287E+03  0.66100450235E+03  0.61385373331E+03 0.  0.
    5000001    2    3    3    0    0  0.91282309497E+02  0.28191832118E+03 -0.10110536899E+03  0.36017820039E+03  0.17803269518E+03 0.  0.
        -11    1    4    4    0    0 -0.57675455672E+01  0.10749711733E+03  0.38972279503E+02  0.11448900989E+03  0.51100000000E-03 0. -1.
     200002    1    4    4    0    0  0.97049855064E+02  0.17442120385E+03 -0.14007764849E+03  0.24568919050E+03  0.30000000000E+02 0. -1.
     200000    1    3    3    0    0  0.11542387851E+03 -0.25722720707E+03 -0.28406973878E+02  0.30082630196E+03  0.10100000000E+03 0.  1.
    -200001    1    1    2    0    0 -0.20670618801E+03 -0.24691114113E+02 -0.98203701182E+03  0.11762239548E+04  0.61300000000E+03 0. -1.
<mgrwt>
<rscale>  0 0.14628282E+04</rscale>
<asrwt>0</asrwt>
<pdfrwt beam="1">  1        2 0.51834223E-01 0.14628282E+04</pdfrwt>
<pdfrwt beam="2">  1       -2 0.21062698E+00 0.14628282E+04</pdfrwt>
<totfact> 0.10615013E+01</totfact>
</mgrwt>
</event>
<event>
 8    1  0.7326756E-052  0.1339425E+04  0.7818608E-02  0.8998872E-01
         -2   -1    0    0    0  501 -0.00000000000E+00  0.00000000000E+00  0.33380826127E+03  0.33380826128E+03  0.25500000000E-02 0.  1.
          2   -1    0    0  501    0  0.00000000000E+00 -0.00000000000E+00 -0.13436296055E+04  0.13436296055E+04  0.25500000000E-02 0. -1.
     200001    2    1    2    0    0 -0.25770108034E+03 -0.60147385655E+02 -0.56558092754E+03  0.87547396321E+03  0.61363288688E+03 0.  0.
    5000001    2    3    3    0    0 -0.28565838590E+03 -0.25214248066E+03 -0.19535285242E+03  0.44545820182E+03  0.12285653679E+03 0.  0.
        -11    1    4    4    0    0 -0.58312577456E+02 -0.12143417545E+03 -0.47005486173E+02  0.14267491506E+03  0.51100000000E-03 0. -1.
     200002    1    4    4    0    0 -0.22734580845E+03 -0.13070830520E+03 -0.14834736625E+03  0.30278328676E+03  0.30000000000E+02 0. -1.
     200000    1    3    3    0    0  0.27957305560E+02  0.19199509500E+03 -0.37022807512E+03  0.43001576139E+03  0.10100000000E+03 0. -1.
    -200001    1    1    2    0    0  0.25770108034E+03  0.60147385655E+02 -0.44424041670E+03  0.80196390358E+03  0.61300000000E+03 0.  1.
<mgrwt>
<rscale>  0 0.13394247E+04</rscale>
<asrwt>0</asrwt>
<pdfrwt beam="1">  1        2 0.19194708E+00 0.13394247E+04</pdfrwt>
<pdfrwt beam="2">  1       -2 0.47686895E-01 0.13394247E+04</pdfrwt>
<totfact> 0.72371527E+01</totfact>
</mgrwt>
</event>
<event>
 8    1  0.7326756E-052  0.1457957E+04  0.7818608E-02  0.8912902E-01
         -2   -1    0    0    0  501 -0.00000000000E+00  0.00000000000E+00  0.33071887905E+03  0.33071887906E+03  0.25500000000E-02 0. -1.
          2   -1    0    0  501    0  0.00000000000E+00 -0.00000000000E+00 -0.16068329285E+04  0.16068329285E+04  0.25500000000E-02 0.  1.
     200001    2    1    2    0    0 -0.36000248546E+02  0.39255541895E+03 -0.60989431616E+03  0.95012408470E+03  0.61267358732E+03 0.  0.
    5000001    2    3    3    0    0 -0.61506790889E+01  0.40746617780E+03 -0.10153477624E+03  0.43075547825E+03  0.95783372023E+02 0.  0.
        -11    1    4    4    0    0 -0.22257051048E+02  0.25331763845E+03 -0.25603733402E+02  0.25557925080E+03  0.51100000000E-03 0. -1.
     200002    1    4    4    0    0  0.16106371959E+02  0.15414853935E+03 -0.75931042836E+02  0.17517622746E+03  0.30000000000E+02 0. -1.
     200000    1    3    3    0    0 -0.29849569457E+02 -0.14910758852E+02 -0.50835953993E+03  0.51936860644E+03  0.10100000000E+03 0.  1.
    -200001    1    1    2    0    0  0.36000248546E+02 -0.39255541895E+03 -0.66621973328E+03  0.98742772285E+03  0.61300000000E+03 0.  1.
<mgrwt>
<rscale>  0 0.14579575E+04</rscale>
<asrwt>0</asrwt>
<pdfrwt beam="1">  1        2 0.22954756E+00 0.14579575E+04</pdfrwt>
<pdfrwt beam="2">  1       -2 0.47245555E-01 0.14579575E+04</pdfrwt>
<totfact> 0.52867552E+01</totfact>
</mgrwt>
</event>
<event>
 8    1  0.7326756E-052  0.1915117E+04  0.7818608E-02  0.8647368E-01
         -2   -1    0    0    0  501 -0.00000000000E+00  0.00000000000E+00  0.17045844435E+03  0.17045844437E+03  0.25500000000E-02 0. -1.
          2   -1    0    0  501    0  0.00000000000E+00 -0.00000000000E+00 -0.53791298464E+04  0.53791298464E+04  0.25500000000E-02 0.  1.
     200001    2    1    2    0    0 -0.64955532539E+03  0.27873481414E+03 -0.31897147146E+04  0.33243758687E+04  0.61447517342E+03 0.  0.
    5000001    2    3    3    0    0 -0.43091777536E+03  0.42102567664E+03 -0.16518893265E+04  0.17613157317E+04  0.10267429121E+03 0.  0.
        -11    1    4    4    0    0 -0.61160589733E+02  0.86871367978E+02 -0.39090987165E+03  0.40508984196E+03  0.51100000000E-03 0. -1.
     200002    1    4    4    0    0 -0.36975718563E+03  0.33415430867E+03 -0.12609794549E+04  0.13562258897E+04  0.30000000000E+02 0. -1.
     200000    1    3    3    0    0 -0.21863755003E+03 -0.14229086251E+03 -0.15378253881E+04  0.15630601370E+04  0.10100000000E+03 0. -1.
    -200001    1    1    2    0    0  0.64955532539E+03 -0.27873481414E+03 -0.20189566874E+04  0.22252124220E+04  0.61300000000E+03 0. -1.
<mgrwt>
<rscale>  0 0.19151168E+04</rscale>
<asrwt>0</asrwt>
<pdfrwt beam="1">  1        2 0.76844701E+00 0.19151168E+04</pdfrwt>
<pdfrwt beam="2">  1       -2 0.24351210E-01 0.19151168E+04</pdfrwt>
<totfact> 0.50570584E-01</totfact>
</mgrwt>
</event>
<event>
 8    1  0.7326756E-052  0.1353581E+04  0.7818608E-02  0.8988122E-01
          2   -1    0    0  501    0  0.00000000000E+00  0.00000000000E+00  0.49863468933E+03  0.49863468933E+03  0.25500000000E-02 0.  1.
         -2   -1    0    0    0  501 -0.00000000000E+00 -0.00000000000E+00 -0.91859934163E+03  0.91859934164E+03  0.25500000000E-02 0. -1.
     200001    2    1    2    0    0  0.24347163815E+03  0.10487351334E+03 -0.94494737623E+02  0.67428278240E+03  0.61274066523E+03 0.  0.
    5000001    2    3    3    0    0 -0.71604512138E+02  0.25138082799E+03 -0.14540046287E+03  0.30886553242E+03  0.77052551372E+02 0.  0.
        -11    1    4    4    0    0 -0.79106084247E+01  0.14312312576E+03 -0.74573278875E+02  0.16157964221E+03  0.51100000000E-03 0. -1.
     200002    1    4    4    0    0 -0.63693903714E+02  0.10825770222E+03 -0.70827183998E+02  0.14728589021E+03  0.30000000000E+02 0.  1.
     200000    1    3    3    0    0  0.31507615028E+03 -0.14650731465E+03  0.50905725250E+02  0.36541724999E+03  0.10100000000E+03 0.  1.
    -200001    1    1    2    0    0 -0.24347163815E+03 -0.10487351334E+03 -0.32546991469E+03  0.74295124857E+03  0.61300000000E+03 0.  1.
<mgrwt>
<rscale>  0 0.13535812E+04</rscale>
<asrwt>0</asrwt>
<pdfrwt beam="1">  1        2 0.71233527E-01 0.13535812E+04</pdfrwt>
<pdfrwt beam="2">  1       -2 0.13122848E+00 0.13535812E+04</pdfrwt>
<totfact> 0.27921162E+01</totfact>
</mgrwt>
</event>
<event>
 8    1  0.7326756E-052  0.1344674E+04  0.7818608E-02  0.8994870E-01
         -2   -1    0    0    0  501 -0.00000000000E+00  0.00000000000E+00  0.23217194430E+03  0.23217194432E+03  0.25500000000E-02 0. -1.
          2   -1    0    0  501    0  0.00000000000E+00 -0.00000000000E+00 -0.19469921504E+04  0.19469921504E+04  0.25500000000E-02 0.  1.
     200001    2    1    2    0    0 -0.21975634059E+03 -0.12559445802E+03 -0.10360182788E+04  0.12301604732E+04  0.61310202964E+03 0.  0.
    5000001    2    3    3    0    0  0.80086840857E+02 -0.17602739941E+03 -0.78947338240E+02  0.22088588209E+03  0.71821607259E+02 0.  0.
        -11    1    4    4    0    0  0.35138334982E+02 -0.20757998747E+02 -0.24981077118E+02  0.47850301060E+02  0.51100000000E-03 0. -1.
     200002    1    4    4    0    0  0.44948505876E+02 -0.15526940066E+03 -0.53966261122E+02  0.17303558103E+03  0.30000000000E+02 0. -1.
     200000    1    3    3    0    0 -0.29984318145E+03  0.50432941390E+02 -0.95707094058E+03  0.10092745912E+04  0.10100000000E+03 0.  1.
    -200001    1    1    2    0    0  0.21975634059E+03  0.12559445802E+03 -0.67880192728E+03  0.94900362149E+03  0.61300000000E+03 0. -1.
<mgrwt>
<rscale>  0 0.13446739E+04</rscale>
<asrwt>0</asrwt>
<pdfrwt beam="1">  1        2 0.27814173E+00 0.13446739E+04</pdfrwt>
<pdfrwt beam="2">  1       -2 0.33167422E-01 0.13446739E+04</pdfrwt>
<totfact> 0.70915353E+01</totfact>
</mgrwt>
</event>
<event>
 8    1  0.7326756E-052  0.1391312E+04  0.7818608E-02  0.8960132E-01
          2   -1    0    0  501    0  0.00000000000E+00  0.00000000000E+00  0.28978377028E+04  0.28978377028E+04  0.25500000000E-02 0.  1.
         -2   -1    0    0    0  501 -0.00000000000E+00 -0.00000000000E+00 -0.16699941772E+03  0.16699941774E+03  0.25500000000E-02 0. -1.
     200001    2    1    2    0    0 -0.44208186508E+02 -0.32229661596E+03  0.12553152892E+04  0.14342646494E+04  0.61275536445E+03 0.  0.
    5000001    2    3    3    0    0 -0.23566263873E+03 -0.33841040301E+03  0.10525295891E+04  0.11372166708E+04  0.12403523774E+03 0.  0.
        -11    1    4    4    0    0 -0.62852244762E+02 -0.50910300522E+02  0.33434828004E+03  0.34399278442E+03  0.51100000000E-03 0. -1.
     200002    1    4    4    0    0 -0.17281039397E+03 -0.28750010249E+03  0.71818130908E+03  0.79322388637E+03  0.30000000000E+02 0. -1.
     200000    1    3    3    0    0  0.19145445222E+03  0.16113787055E+02  0.20278570009E+03  0.29704797857E+03  0.10100000000E+03 0. -1.
    -200001    1    1    2    0    0  0.44208186508E+02  0.32229661596E+03  0.14755229959E+04  0.16305724712E+04  0.61300000000E+03 0.  1.
<mgrwt>
<rscale>  0 0.13913119E+04</rscale>
<asrwt>0</asrwt>
<pdfrwt beam="1">  1        2 0.41397683E+00 0.13913119E+04</pdfrwt>
<pdfrwt beam="2">  1       -2 0.23857059E-01 0.13913119E+04</pdfrwt>
<totfact> 0.41158270E+01</totfact>
</mgrwt>
</event>
<event>
 8    1  0.7326756E-052  0.2241783E+04  0.7818608E-02  0.8501236E-01
         -2   -1    0    0    0  501 -0.00000000000E+00  0.00000000000E+00  0.75232850898E+03  0.75232850898E+03  0.25500000000E-02 0. -1.
          2   -1    0    0  501    0  0.00000000000E+00 -0.00000000000E+00 -0.16700124810E+04  0.16700124810E+04  0.25500000000E-02 0.  1.
     200001    2    1    2    0    0 -0.78016872960E+03 -0.15894918427E+03 -0.99518761389E+03  0.14145196247E+04  0.61362797530E+03 0.  0.
    5000001    2    3    3    0    0 -0.49081604666E+03 -0.37177837904E+03 -0.72185039050E+03  0.95198802692E+03  0.78061913672E+02 0.  0.
        -11    1    4    4    0    0 -0.30162358294E+03 -0.19497257452E+03 -0.44229533490E+03  0.56975104553E+03  0.51100000000E-03 0. -1.
     200002    1    4    4    0    0 -0.18919246372E+03 -0.17680580452E+03 -0.27955505560E+03  0.38223698140E+03  0.30000000000E+02 0. -1.
     200000    1    3    3    0    0 -0.28935268295E+03  0.21282919477E+03 -0.27333722339E+03  0.46253159780E+03  0.10100000000E+03 0. -1.
    -200001    1    1    2    0    0  0.78016872960E+03  0.15894918427E+03  0.77503641836E+02  0.10078213653E+04  0.61300000000E+03 0. -1.
<mgrwt>
<rscale>  0 0.22417832E+04</rscale>
<asrwt>0</asrwt>
<pdfrwt beam="1">  1        2 0.23857321E+00 0.22417832E+04</pdfrwt>
<pdfrwt beam="2">  1       -2 0.10747550E+00 0.22417832E+04</pdfrwt>
<totfact> 0.75669034E+00</totfact>
</mgrwt>
</event>
<event>
 8    1  0.7326756E-052  0.1863382E+04  0.7818608E-02  0.8673301E-01
         -2   -1    0    0    0  501 -0.00000000000E+00  0.00000000000E+00  0.87341214836E+03  0.87341214837E+03  0.25500000000E-02 0.  1.
          2   -1    0    0  501    0  0.00000000000E+00 -0.00000000000E+00 -0.99385838337E+03  0.99385838338E+03  0.25500000000E-02 0. -1.
     200001    2    1    2    0    0  0.97143097548E+01 -0.31417717805E+03 -0.68883156492E+03  0.97416776594E+03  0.61295370490E+03 0.  0.
    5000001    2    3    3    0    0 -0.67560463871E+02  0.96739372514E+02  0.19782300892E+02  0.14521757866E+03  0.82303604123E+02 0.  0.
        -11    1    4    4    0    0 -0.63953197219E+02  0.61048991752E+02  0.36366123705E+02  0.95600657854E+02  0.51100000000E-03 0. -1.
     200002    1    4    4    0    0 -0.36072666519E+01  0.35690380761E+02 -0.16583822813E+02  0.49616920810E+02  0.30000000000E+02 0. -1.
     200000    1    3    3    0    0  0.77274773626E+02 -0.41091655057E+03 -0.70861386581E+03  0.82895018728E+03  0.10100000000E+03 0. -1.
    -200001    1    1    2    0    0 -0.97143097548E+01  0.31417717805E+03  0.56838532991E+03  0.89310276580E+03  0.61300000000E+03 0.  1.
<mgrwt>
<rscale>  0 0.18633819E+04</rscale>
<asrwt>0</asrwt>
<pdfrwt beam="1">  1        2 0.14197977E+00 0.18633819E+04</pdfrwt>
<pdfrwt beam="2">  1       -2 0.12477316E+00 0.18633819E+04</pdfrwt>
<totfact> 0.12862729E+01</totfact>
</mgrwt>
</event>
<event>
 8    1  0.7326756E-052  0.1758322E+04  0.7818608E-02  0.8728783E-01
          2   -1    0    0  501    0  0.00000000000E+00  0.00000000000E+00  0.13369118077E+04  0.13369118077E+04  0.25500000000E-02 0.  1.
         -2   -1    0    0    0  501 -0.00000000000E+00 -0.00000000000E+00 -0.57814125865E+03  0.57814125866E+03  0.25500000000E-02 0. -1.
     200001    2    1    2    0    0  0.56154449412E+03  0.17505952926E+03  0.13146544267E+03  0.85899494573E+03  0.61205481496E+03 0.  0.
    5000001    2    3    3    0    0  0.29232279157E+03 -0.11368906117E+03  0.25448639703E+03  0.43332931544E+03  0.15694952134E+03 0.  0.
        -11    1    4    4    0    0  0.47020034793E+02 -0.10606883032E+01  0.12280651442E+03  0.13150455777E+03  0.51100000000E-03 0. -1.
     200002    1    4    4    0    0  0.24530275677E+03 -0.11262837287E+03  0.13167988261E+03  0.30182475766E+03  0.30000000000E+02 0. -1.
     200000    1    3    3    0    0  0.26922170255E+03  0.28874859043E+03 -0.12302095436E+03  0.42566563029E+03  0.10100000000E+03 0. -1.
    -200001    1    1    2    0    0 -0.56154449412E+03 -0.17505952926E+03  0.62730510640E+03  0.10560581206E+04  0.61300000000E+03 0. -1.
<mgrwt>
<rscale>  0 0.17583218E+04</rscale>
<asrwt>0</asrwt>
<pdfrwt beam="1">  1        2 0.19098740E+00 0.17583218E+04</pdfrwt>
<pdfrwt beam="2">  1       -2 0.82591609E-01 0.17583218E+04</pdfrwt>
<totfact> 0.21888308E+01</totfact>
</mgrwt>
</event>
<event>
 8    1  0.7326756E-052  0.1493339E+04  0.7818608E-02  0.8888894E-01
          2   -1    0    0  501    0  0.00000000000E+00  0.00000000000E+00  0.13628918411E+04  0.13628918411E+04  0.25500000000E-02 0.  1.
         -2   -1    0    0    0  501 -0.00000000000E+00 -0.00000000000E+00 -0.40906818652E+03  0.40906818653E+03  0.25500000000E-02 0. -1.
     200001    2    1    2    0    0  0.28788119424E+03  0.20004980487E+03  0.18906754415E+03  0.73103908210E+03  0.61300578862E+03 0.  0.
    5000001    2    3    3    0    0  0.22978198778E+03 -0.13371272032E+03  0.24925306937E+03  0.37243590523E+03  0.76828103130E+02 0.  0.
        -11    1    4    4    0    0  0.17658391454E+03 -0.85842143589E+02  0.15373540277E+03  0.24936985896E+03  0.51100000000E-03 0. -1.
     200002    1    4    4    0    0  0.53198073241E+02 -0.47870576736E+02  0.95517666601E+02  0.12306604628E+03  0.30000000000E+02 0.  1.
     200000    1    3    3    0    0  0.58099206458E+02  0.33376252519E+03 -0.60185525218E+02  0.35860317687E+03  0.10100000000E+03 0. -1.
    -200001    1    1    2    0    0 -0.28788119424E+03 -0.20004980487E+03  0.76475611043E+03  0.10409209455E+04  0.61300000000E+03 0.  1.
<mgrwt>
<rscale>  0 0.14933395E+04</rscale>
<asrwt>0</asrwt>
<pdfrwt beam="1">  1        2 0.19469883E+00 0.14933395E+04</pdfrwt>
<pdfrwt beam="2">  1       -2 0.58438312E-01 0.14933395E+04</pdfrwt>
<totfact> 0.45950237E+01</totfact>
</mgrwt>
</event>
<event>
 8    1  0.7326756E-052  0.1351664E+04  0.7818608E-02  0.8989570E-01
          2   -1    0    0  501    0  0.00000000000E+00  0.00000000000E+00  0.11140583568E+04  0.11140583568E+04  0.25500000000E-02 0.  1.
         -2   -1    0    0    0  501 -0.00000000000E+00 -0.00000000000E+00 -0.40998622410E+03  0.40998622411E+03  0.25500000000E-02 0. -1.
     200001    2    1    2    0    0 -0.12034725784E+03  0.57965532399E+02  0.68783775981E+02  0.63118190300E+03  0.61303827077E+03 0.  0.
    5000001    2    3    3    0    0 -0.26597263283E+03 -0.39026710973E+02  0.23966750276E+03  0.36657560452E+03  0.68356684871E+02 0.  0.
        -11    1    4    4    0    0 -0.21092979434E+03 -0.30531810689E+02  0.19734992450E+03  0.29046611215E+03  0.51100000000E-03 0. -1.
     200002    1    4    4    0    0 -0.55042838490E+02 -0.84949002840E+01  0.42317578260E+02  0.76109492375E+02  0.30000000000E+02 0.  1.
     200000    1    3    3    0    0  0.14562537500E+03  0.96992243373E+02 -0.17088372678E+03  0.26460629848E+03  0.10100000000E+03 0. -1.
    -200001    1    1    2    0    0  0.12034725784E+03 -0.57965532399E+02  0.63528835670E+03  0.89286267789E+03  0.61300000000E+03 0.  1.
<mgrwt>
<rscale>  0 0.13516635E+04</rscale>
<asrwt>0</asrwt>
<pdfrwt beam="1">  1        2 0.15915119E+00 0.13516635E+04</pdfrwt>
<pdfrwt beam="2">  1       -2 0.58569461E-01 0.13516635E+04</pdfrwt>
<totfact> 0.63864423E+01</totfact>
</mgrwt>
</event>
<event>
 8    1  0.7326756E-052  0.1343810E+04  0.7818608E-02  0.8995527E-01
          2   -1    0    0  501    0  0.00000000000E+00  0.00000000000E+00  0.76656637462E+03  0.76656637463E+03  0.25500000000E-02 0.  1.
         -2   -1    0    0    0  501 -0.00000000000E+00 -0.00000000000E+00 -0.58893281695E+03  0.58893281695E+03  0.25500000000E-02 0. -1.
     200001    2    1    2    0    0  0.12167003368E+02 -0.25352576998E+03  0.19461840994E+03  0.69181188778E+03  0.61343623187E+03 0.  0.
    5000001    2    3    3    0    0 -0.18939697345E+03  0.54755748955E+02 -0.77792370928E+02  0.22269125809E+03  0.68339870203E+02 0.  0.
        -11    1    4    4    0    0 -0.35710635523E+02 -0.12383821638E+02 -0.20136713603E+02  0.42826344261E+02  0.51100000000E-03 0. -1.
     200002    1    4    4    0    0 -0.15368633793E+03  0.67139570593E+02 -0.57655657325E+02  0.17986491383E+03  0.30000000000E+02 0. -1.
     200000    1    3    3    0    0  0.20156397682E+03 -0.30828151893E+03  0.27241078087E+03  0.46912062969E+03  0.10100000000E+03 0.  1.
    -200001    1    1    2    0    0 -0.12167003368E+02  0.25352576998E+03 -0.16984852264E+02  0.66368730380E+03  0.61300000000E+03 0. -1.
<mgrwt>
<rscale>  0 0.13438097E+04</rscale>
<asrwt>0</asrwt>
<pdfrwt beam="1">  1        2 0.10950948E+00 0.13438097E+04</pdfrwt>
<pdfrwt beam="2">  1       -2 0.84133260E-01 0.13438097E+04</pdfrwt>
<totfact> 0.48478082E+01</totfact>
</mgrwt>
</event>
<event>
 8    1  0.7326756E-052  0.1836326E+04  0.7818608E-02  0.8687216E-01
         -2   -1    0    0    0  501 -0.00000000000E+00  0.00000000000E+00  0.59803203613E+03  0.59803203614E+03  0.25500000000E-02 0. -1.
          2   -1    0    0  501    0  0.00000000000E+00 -0.00000000000E+00 -0.14096631761E+04  0.14096631761E+04  0.25500000000E-02 0.  1.
     200001    2    1    2    0    0  0.34779312934E+03  0.44706250685E+03  0.14578077011E+02  0.83329510323E+03  0.61101821813E+03 0.  0.
    5000001    2    3    3    0    0  0.41276488496E+03  0.32796750149E+03 -0.18992271850E+03  0.56791514035E+03  0.92300787398E+02 0.  0.
        -11    1    4    4    0    0  0.18197387364E+03  0.17608897516E+03 -0.55622871948E+02  0.25925995014E+03  0.51100000000E-03 0. -1.
     200002    1    4    4    0    0  0.23079101132E+03  0.15187852633E+03 -0.13429984655E+03  0.30865519022E+03  0.30000000000E+02 0. -1.
     200000    1    3    3    0    0 -0.64971755622E+02  0.11909500536E+03  0.20450079551E+03  0.26537996287E+03  0.10100000000E+03 0. -1.
    -200001    1    1    2    0    0 -0.34779312934E+03 -0.44706250685E+03 -0.82620921699E+03  0.11744001090E+04  0.61300000000E+03 0.  1.
<mgrwt>
<rscale>  0 0.18363265E+04</rscale>
<asrwt>0</asrwt>
<pdfrwt beam="1">  1        2 0.20138045E+00 0.18363265E+04</pdfrwt>
<pdfrwt beam="2">  1       -2 0.85433149E-01 0.18363265E+04</pdfrwt>
<totfact> 0.18388979E+01</totfact>
</mgrwt>
</event>
<event>
 8    1  0.7326756E-052  0.1314688E+04  0.7818608E-02  0.9017998E-01
          2   -1    0    0  501    0  0.00000000000E+00  0.00000000000E+00  0.19860641610E+04  0.19860641611E+04  0.25500000000E-02 0.  1.
         -2   -1    0    0    0  501 -0.00000000000E+00 -0.00000000000E+00 -0.21756642462E+03  0.21756642464E+03  0.25500000000E-02 0. -1.
     200001    2    1    2    0    0  0.45128506636E+01 -0.22795730250E+03  0.78281862654E+03  0.10207031977E+04  0.61403999720E+03 0.  0.
    5000001    2    3    3    0    0 -0.25830805541E+03 -0.18059110065E+03  0.58101928020E+03  0.67107144582E+03  0.11583300178E+03 0.  0.
        -11    1    4    4    0    0 -0.17439674318E+03 -0.79043172607E+02  0.41488117420E+03  0.45693373247E+03  0.51100000000E-03 0. -1.
     200002    1    4    4    0    0 -0.83911312227E+02 -0.10154792804E+03  0.16613810600E+03  0.21413771334E+03  0.30000000000E+02 0. -1.
     200000    1    3    3    0    0  0.26282090607E+03 -0.47366201850E+02  0.20179934634E+03  0.34963175189E+03  0.10100000000E+03 0.  1.
    -200001    1    1    2    0    0 -0.45128506636E+01  0.22795730250E+03  0.98567910988E+03  0.11829273880E+04  0.61300000000E+03 0.  1.
<mgrwt>
<rscale>  0 0.13146876E+04</rscale>
<asrwt>0</asrwt>
<pdfrwt beam="1">  1        2 0.28372346E+00 0.13146876E+04</pdfrwt>
<pdfrwt beam="2">  1       -2 0.31080917E-01 0.13146876E+04</pdfrwt>
<totfact> 0.76699154E+01</totfact>
</mgrwt>
</event>
<event>
 8    1  0.7326756E-052  0.1716401E+04  0.7818608E-02  0.8752065E-01
         -2   -1    0    0    0  501 -0.00000000000E+00  0.00000000000E+00  0.16646655143E+04  0.16646655143E+04  0.25500000000E-02 0. -1.
          2   -1    0    0  501    0  0.00000000000E+00 -0.00000000000E+00 -0.44243611317E+03  0.44243611318E+03  0.25500000000E-02 0.  1.
     200001    2    1    2    0    0 -0.27423000975E+02 -0.59574249626E+03  0.69955281610E+03  0.11047938128E+04  0.61280835784E+03 0.  0.
    5000001    2    3    3    0    0 -0.15658973160E+03 -0.64624249993E+03  0.60928339383E+03  0.91092823238E+03  0.12811821804E+03 0.  0.
        -11    1    4    4    0    0 -0.10172120273E+03 -0.44505745607E+03  0.34110001139E+03  0.56988819962E+03  0.51100000000E-03 0. -1.
     200002    1    4    4    0    0 -0.54868528878E+02 -0.20118504385E+03  0.26818338243E+03  0.34104003276E+03  0.30000000000E+02 0. -1.
     200000    1    3    3    0    0  0.12916673063E+03  0.50500003670E+02  0.90269422278E+02  0.19386558042E+03  0.10100000000E+03 0.  1.
    -200001    1    1    2    0    0  0.27423000975E+02  0.59574249626E+03  0.52267658500E+03  0.10023078147E+04  0.61300000000E+03 0.  1.
<mgrwt>
<rscale>  0 0.17164010E+04</rscale>
<asrwt>0</asrwt>
<pdfrwt beam="1">  1        2 0.63205159E-01 0.17164010E+04</pdfrwt>
<pdfrwt beam="2">  1       -2 0.23780936E+00 0.17164010E+04</pdfrwt>
<totfact> 0.56194973E+00</totfact>
</mgrwt>
</event>
<event>
 8    1  0.7326756E-052  0.2467567E+04  0.7818608E-02  0.8414632E-01
          2   -1    0    0  501    0  0.00000000000E+00  0.00000000000E+00  0.15123055478E+04  0.15123055478E+04  0.25500000000E-02 0.  1.
         -2   -1    0    0    0  501 -0.00000000000E+00 -0.00000000000E+00 -0.10065572733E+04  0.10065572733E+04  0.25500000000E-02 0. -1.
     200001    2    1    2    0    0  0.61475601982E+03 -0.84577364881E+03  0.48867080069E+03  0.13067082645E+04  0.61272286402E+03 0.  0.
    5000001    2    3    3    0    0  0.64264407220E+03 -0.87563205066E+03  0.38421594119E+03  0.11557742216E+04  0.92028637761E+02 0.  0.
        -11    1    4    4    0    0  0.22572419636E+03 -0.32142328140E+03  0.97225526049E+02  0.40461974935E+03  0.51100000000E-03 0. -1.
     200002    1    4    4    0    0  0.41691987583E+03 -0.55420876926E+03  0.28699041514E+03  0.75115447225E+03  0.30000000000E+02 0. -1.
     200000    1    3    3    0    0 -0.27888052377E+02  0.29858401858E+02  0.10445485951E+03  0.15093404288E+03  0.10100000000E+03 0.  1.
    -200001    1    1    2    0    0 -0.61475601982E+03  0.84577364881E+03  0.17077473786E+02  0.12121545566E+04  0.61300000000E+03 0.  1.
<mgrwt>
<rscale>  0 0.24675673E+04</rscale>
<asrwt>0</asrwt>
<pdfrwt beam="1">  1        2 0.21604365E+00 0.24675673E+04</pdfrwt>
<pdfrwt beam="2">  1       -2 0.14379390E+00 0.24675673E+04</pdfrwt>
<totfact> 0.43392158E+00</totfact>
</mgrwt>
</event>
<event>
 8    1  0.7326756E-052  0.1432682E+04  0.7818608E-02  0.8930496E-01
          2   -1    0    0  501    0  0.00000000000E+00  0.00000000000E+00  0.28656900383E+03  0.28656900384E+03  0.25500000000E-02 0.  1.
         -2   -1    0    0    0  501 -0.00000000000E+00 -0.00000000000E+00 -0.17906476135E+04  0.17906476135E+04  0.25500000000E-02 0. -1.
     200001    2    1    2    0    0 -0.17587561695E+03  0.62456473589E+02 -0.12161643412E+04  0.13747234361E+04  0.61316863682E+03 0.  0.
    5000001    2    3    3    0    0  0.15327506543E+03 -0.59408067368E+02 -0.80377592348E+03  0.82385471750E+03  0.75221647378E+02 0.  0.
        -11    1    4    4    0    0  0.12014758825E+03 -0.63468251797E+02 -0.59878187175E+03  0.61400601942E+03  0.51100000000E-03 0. -1.
     200002    1    4    4    0    0  0.33127477181E+02  0.40601844292E+01 -0.20499405172E+03  0.20984869807E+03  0.30000000000E+02 0. -1.
     200000    1    3    3    0    0 -0.32915068238E+03  0.12186454096E+03 -0.41238841776E+03  0.55086871862E+03  0.10100000000E+03 0.  1.
    -200001    1    1    2    0    0  0.17587561695E+03 -0.62456473589E+02 -0.28791426847E+03  0.70249318126E+03  0.61300000000E+03 0.  1.
<mgrwt>
<rscale>  0 0.14326815E+04</rscale>
<asrwt>0</asrwt>
<pdfrwt beam="1">  1        2 0.40938430E-01 0.14326815E+04</pdfrwt>
<pdfrwt beam="2">  1       -2 0.25580680E+00 0.14326815E+04</pdfrwt>
<totfact> 0.72371287E+00</totfact>
</mgrwt>
</event>
<event>
 8    1  0.7326756E-052  0.1431133E+04  0.7818608E-02  0.8931586E-01
          2   -1    0    0  501    0  0.00000000000E+00  0.00000000000E+00  0.34490720770E+03  0.34490720771E+03  0.25500000000E-02 0.  1.
         -2   -1    0    0    0  501 -0.00000000000E+00 -0.00000000000E+00 -0.14845601011E+04  0.14845601011E+04  0.25500000000E-02 0. -1.
     200001    2    1    2    0    0  0.18379441413E+03  0.12844830491E+03 -0.19112819629E+03  0.67805623769E+03  0.61069707740E+03 0.  0.
    5000001    2    3    3    0    0  0.14428227631E+03 -0.23110786442E+02  0.19347504117E+03  0.25067816447E+03  0.63682547691E+02 0.  0.
        -11    1    4    4    0    0 -0.23342512978E+01  0.13781538557E+01  0.20349086808E+02  0.20528842426E+02  0.51100000000E-03 0. -1.
     200002    1    4    4    0    0  0.14661652761E+03 -0.24488940297E+02  0.17312595436E+03  0.23014932204E+03  0.30000000000E+02 0. -1.
     200000    1    3    3    0    0  0.39512137818E+02  0.15155909135E+03 -0.38460323745E+03  0.42737807322E+03  0.10100000000E+03 0. -1.
    -200001    1    1    2    0    0 -0.18379441413E+03 -0.12844830491E+03 -0.94852469714E+03  0.11514110712E+04  0.61300000000E+03 0. -1.
<mgrwt>
<rscale>  0 0.14311331E+04</rscale>
<asrwt>0</asrwt>
<pdfrwt beam="1">  1        2 0.49272459E-01 0.14311331E+04</pdfrwt>
<pdfrwt beam="2">  1       -2 0.21208001E+00 0.14311331E+04</pdfrwt>
<totfact> 0.11019619E+01</totfact>
</mgrwt>
</event>
<event>
 8    1  0.7326756E-052  0.1984238E+04  0.7818608E-02  0.8614026E-01
          2   -1    0    0  501    0  0.00000000000E+00  0.00000000000E+00  0.44304447564E+03  0.44304447565E+03  0.25500000000E-02 0.  1.
         -2   -1    0    0    0  501 -0.00000000000E+00 -0.00000000000E+00 -0.22216726351E+04  0.22216726351E+04  0.25500000000E-02 0. -1.
     200001    2    1    2    0    0  0.54691238864E+03 -0.55064803236E+03 -0.78504693686E+03  0.12628258659E+04  0.61327323293E+03 0.  0.
    5000001    2    3    3    0    0  0.79477931940E+02  0.12241424948E+03 -0.12636399978E+03  0.20661943813E+03  0.73632476739E+02 0.  0.
        -11    1    4    4    0    0  0.21300326863E+02  0.71228140112E+02 -0.32153789494E+02  0.81000111403E+02  0.51100000000E-03 0. -1.
     200002    1    4    4    0    0  0.58177605077E+02  0.51186109370E+02 -0.94210210286E+02  0.12561932673E+03  0.30000000000E+02 0. -1.
     200000    1    3    3    0    0  0.46743445670E+03 -0.67306228184E+03 -0.65868293708E+03  0.10562064278E+04  0.10100000000E+03 0. -1.
    -200001    1    1    2    0    0 -0.54691238864E+03  0.55064803236E+03 -0.99358122263E+03  0.14018912448E+04  0.61300000000E+03 0.  1.
<mgrwt>
<rscale>  0 0.19842377E+04</rscale>
<asrwt>0</asrwt>
<pdfrwt beam="1">  1        2 0.63292069E-01 0.19842377E+04</pdfrwt>
<pdfrwt beam="2">  1       -2 0.31738180E+00 0.19842377E+04</pdfrwt>
<totfact> 0.17903632E+00</totfact>
</mgrwt>
</event>
<event>
 8    1  0.7326756E-052  0.1691615E+04  0.7818608E-02  0.8766161E-01
         -2   -1    0    0    0  501 -0.00000000000E+00  0.00000000000E+00  0.47672325619E+03  0.47672325620E+03  0.25500000000E-02 0. -1.
          2   -1    0    0  501    0  0.00000000000E+00 -0.00000000000E+00 -0.15006403791E+04  0.15006403791E+04  0.25500000000E-02 0.  1.
     200001    2    1    2    0    0  0.33391444092E+03  0.94103204555E+02  0.33083646898E+02  0.70717707643E+03  0.61534593748E+03 0.  0.
    5000001    2    3    3    0    0  0.13087032907E+03 -0.58067530519E+02  0.27282876292E+03  0.34377431828E+03  0.15246759297E+03 0.  0.
        -11    1    4    4    0    0  0.32528019004E+02 -0.18809396533E+02 -0.11167102195E+02  0.39199101903E+02  0.51100000000E-03 0. -1.
     200002    1    4    4    0    0  0.98342310063E+02 -0.39258133985E+02  0.28399586511E+03  0.30457521638E+03  0.30000000000E+02 0. -1.
     200000    1    3    3    0    0  0.20304411186E+03  0.15217073507E+03 -0.23974511602E+03  0.36340275815E+03  0.10100000000E+03 0. -1.
    -200001    1    1    2    0    0 -0.33391444092E+03 -0.94103204555E+02 -0.10570007698E+04  0.12701865589E+04  0.61300000000E+03 0.  1.
<mgrwt>
<rscale>  0 0.16916148E+04</rscale>
<asrwt>0</asrwt>
<pdfrwt beam="1">  1        2 0.21437719E+00 0.16916148E+04</pdfrwt>
<pdfrwt beam="2">  1       -2 0.68103323E-01 0.16916148E+04</pdfrwt>
<totfact> 0.27518487E+01</totfact>
</mgrwt>
</event>
<event>
 8    1  0.7326756E-052  0.1333920E+04  0.7818608E-02  0.9003090E-01
          2   -1    0    0  501    0  0.00000000000E+00  0.00000000000E+00  0.21520803911E+04  0.21520803911E+04  0.25500000000E-02 0.  1.
         -2   -1    0    0    0  501 -0.00000000000E+00 -0.00000000000E+00 -0.20670030447E+03  0.20670030448E+03  0.25500000000E-02 0. -1.
     200001    2    1    2    0    0 -0.55115794353E+02  0.18981642282E+03  0.66420627369E+03  0.92481996944E+03  0.61241650590E+03 0.  0.
    5000001    2    3    3    0    0  0.45544930000E+02  0.29951303539E+03  0.63483714734E+03  0.74253043650E+03  0.23780421876E+03 0.  0.
        -11    1    4    4    0    0  0.13836351900E+03  0.18037351814E+03  0.32598960123E+03  0.39742708708E+03  0.51100000000E-03 0. -1.
     200002    1    4    4    0    0 -0.92818589003E+02  0.11913951725E+03  0.30884754612E+03  0.34510334942E+03  0.30000000000E+02 0. -1.
     200000    1    3    3    0    0 -0.10066072435E+03 -0.10969661257E+03  0.29369126345E+02  0.18228953294E+03  0.10100000000E+03 0. -1.
    -200001    1    1    2    0    0  0.55115794353E+02 -0.18981642282E+03  0.12811738130E+04  0.14339607262E+04  0.61300000000E+03 0.  1.
<mgrwt>
<rscale>  0 0.13339200E+04</rscale>
<asrwt>0</asrwt>
<pdfrwt beam="1">  1        2 0.30744006E+00 0.13339200E+04</pdfrwt>
<pdfrwt beam="2">  1       -2 0.29528615E-01 0.13339200E+04</pdfrwt>
<totfact> 0.69255648E+01</totfact>
</mgrwt>
</event>
<event>
 8    1  0.7326756E-052  0.1448924E+04  0.7818608E-02  0.8919147E-01
         -2   -1    0    0    0  501 -0.00000000000E+00  0.00000000000E+00  0.32509519482E+03  0.32509519483E+03  0.25500000000E-02 0. -1.
          2   -1    0    0  501    0  0.00000000000E+00 -0.00000000000E+00 -0.16144349827E+04  0.16144349827E+04  0.25500000000E-02 0.  1.
     200001    2    1    2    0    0 -0.17220944926E+03  0.26611671772E+03 -0.93556997030E+03  0.11640327335E+04  0.61579772120E+03 0.  0.
    5000001    2    3    3    0    0 -0.22717579606E+03  0.34368853709E+03 -0.93435273282E+03  0.10253201958E+04  0.92389511152E+02 0.  0.
        -11    1    4    4    0    0 -0.18635238680E+03  0.28130030285E+03 -0.68992445906E+03  0.76801877038E+03  0.51100000000E-03 0. -1.
     200002    1    4    4    0    0 -0.40823409261E+02  0.62388234234E+02 -0.24442827376E+03  0.25730142543E+03  0.30000000000E+02 0.  1.
     200000    1    3    3    0    0  0.54966346807E+02 -0.77571819371E+02 -0.12172374885E+01  0.13871253768E+03  0.10100000000E+03 0. -1.
    -200001    1    1    2    0    0  0.17220944926E+03 -0.26611671772E+03 -0.35376981754E+03  0.77549744401E+03  0.61300000000E+03 0. -1.
<mgrwt>
<rscale>  0 0.14489238E+04</rscale>
<asrwt>0</asrwt>
<pdfrwt beam="1">  1        2 0.23063357E+00 0.14489238E+04</pdfrwt>
<pdfrwt beam="2">  1       -2 0.46442171E-01 0.14489238E+04</pdfrwt>
<totfact> 0.54260725E+01</totfact>
</mgrwt>
</event>
<event>
 8    1  0.7326756E-052  0.1264291E+04  0.7818608E-02  0.9058372E-01
         -2   -1    0    0    0  501 -0.00000000000E+00  0.00000000000E+00  0.44619979987E+03  0.44619979988E+03  0.25500000000E-02 0. -1.
          2   -1    0    0  501    0  0.00000000000E+00 -0.00000000000E+00 -0.89558107462E+03  0.89558107462E+03  0.25500000000E-02 0.  1.
     200001    2    1    2    0    0 -0.10578297356E+03 -0.66926241363E+02 -0.32047552064E+03  0.70298916140E+03  0.61304163190E+03 0.  0.
    5000001    2    3    3    0    0  0.18226188483E+03  0.27286769019E+02 -0.20376708020E+03  0.36288948212E+03  0.23707338703E+03 0.  0.
        -11    1    4    4    0    0 -0.11968521391E+02  0.86116776604E+02 -0.24191709797E+02  0.90247346443E+02  0.51100000000E-03 0. -1.
     200002    1    4    4    0    0  0.19423040623E+03 -0.58830007584E+02 -0.17957537040E+03  0.27264213568E+03  0.30000000000E+02 0. -1.
     200000    1    3    3    0    0 -0.28804485840E+03 -0.94213010383E+02 -0.11670844044E+03  0.34009967928E+03  0.10100000000E+03 0. -1.
    -200001    1    1    2    0    0  0.10578297356E+03  0.66926241363E+02 -0.12890575411E+03  0.63879171310E+03  0.61300000000E+03 0.  1.
<mgrwt>
<rscale>  0 0.12642913E+04</rscale>
<asrwt>0</asrwt>
<pdfrwt beam="1">  1        2 0.12794015E+00 0.12642913E+04</pdfrwt>
<pdfrwt beam="2">  1       -2 0.63742829E-01 0.12642913E+04</pdfrwt>
<totfact> 0.73306082E+01</totfact>
</mgrwt>
</event>
<event>
 8    1  0.7326756E-052  0.1805342E+04  0.7818608E-02  0.8703464E-01
          2   -1    0    0  501    0  0.00000000000E+00  0.00000000000E+00  0.26385396058E+04  0.26385396058E+04  0.25500000000E-02 0.  1.
         -2   -1    0    0    0  501 -0.00000000000E+00 -0.00000000000E+00 -0.30881288172E+03  0.30881288173E+03  0.25500000000E-02 0. -1.
     200001    2    1    2    0    0  0.17984112271E+03  0.26019465304E+03  0.21453334812E+03  0.72252527972E+03  0.61316729813E+03 0.  0.
    5000001    2    3    3    0    0  0.83241815176E+02  0.27867140685E+03  0.33813163559E+03  0.53504100488E+03  0.29554850893E+03 0.  0.
        -11    1    4    4    0    0 -0.97872040669E+02  0.16999992951E+03  0.20417209019E+03  0.28313451714E+03  0.51100000000E-03 0. -1.
     200002    1    4    4    0    0  0.18111385584E+03  0.10867147733E+03  0.13395954540E+03  0.25190648774E+03  0.30000000000E+02 0. -1.
     200000    1    3    3    0    0  0.96599307534E+02 -0.18476753809E+02 -0.12359828747E+03  0.18748427484E+03  0.10100000000E+03 0. -1.
    -200001    1    1    2    0    0 -0.17984112271E+03 -0.26019465304E+03  0.21151933760E+04  0.22248272078E+04  0.61300000000E+03 0.  1.
<mgrwt>
<rscale>  0 0.18053421E+04</rscale>
<asrwt>0</asrwt>
<pdfrwt beam="1">  1        2 0.37693423E+00 0.18053421E+04</pdfrwt>
<pdfrwt beam="2">  1       -2 0.44116126E-01 0.18053421E+04</pdfrwt>
<totfact> 0.17167176E+01</totfact>
</mgrwt>
</event>
<event>
 8    1  0.7326756E-052  0.2021231E+04  0.7818608E-02  0.8596758E-01
         -2   -1    0    0    0  501 -0.00000000000E+00  0.00000000000E+00  0.48578773758E+03  0.48578773759E+03  0.25500000000E-02 0. -1.
          2   -1    0    0  501    0  0.00000000000E+00 -0.00000000000E+00 -0.21024478272E+04  0.21024478272E+04  0.25500000000E-02 0.  1.
     200001    2    1    2    0    0  0.66272693574E+03  0.38032038850E+03 -0.11268062127E+04  0.14929838083E+04  0.61274613154E+03 0.  0.
    5000001    2    3    3    0    0  0.24272814708E+03  0.32921465468E+03 -0.20160330499E+03  0.47062760870E+03  0.11639248794E+03 0.  0.
        -11    1    4    4    0    0  0.10749348017E+03  0.80583379046E+02 -0.10346165945E+03  0.16956663656E+03  0.51100000000E-03 0. -1.
     200002    1    4    4    0    0  0.13523466690E+03  0.24863127563E+03 -0.98141645543E+02  0.30106097214E+03  0.30000000000E+02 0. -1.
     200000    1    3    3    0    0  0.41999878866E+03  0.51105733821E+02 -0.92520290771E+03  0.10223561996E+04  0.10100000000E+03 0.  1.
    -200001    1    1    2    0    0 -0.66272693574E+03 -0.38032038850E+03 -0.48985387688E+03  0.10952517564E+04  0.61300000000E+03 0. -1.
<mgrwt>
<rscale>  0 0.20212307E+04</rscale>
<asrwt>0</asrwt>
<pdfrwt beam="1">  1        2 0.30034969E+00 0.20212307E+04</pdfrwt>
<pdfrwt beam="2">  1       -2 0.69398249E-01 0.20212307E+04</pdfrwt>
<totfact> 0.12527003E+01</totfact>
</mgrwt>
</event>
<event>
 8    1  0.7326756E-052  0.2237360E+04  0.7818608E-02  0.8503037E-01
          2   -1    0    0  501    0  0.00000000000E+00  0.00000000000E+00  0.27602420316E+04  0.27602420316E+04  0.25500000000E-02 0.  1.
         -2   -1    0    0    0  501 -0.00000000000E+00 -0.00000000000E+00 -0.45338238061E+03  0.45338238062E+03  0.25500000000E-02 0. -1.
     200001    2    1    2    0    0 -0.46783066171E+03  0.19938873420E+03  0.25396455658E+02  0.79712597295E+03  0.61330534112E+03 0.  0.
    5000001    2    3    3    0    0 -0.14877434210E+03 -0.66703201644E+01 -0.25959434176E+03  0.31165916298E+03  0.86970762667E+02 0.  0.
        -11    1    4    4    0    0 -0.13603871391E+03  0.86096318209E+01 -0.21056746958E+03  0.25083723146E+03  0.51100000000E-03 0. -1.
     200002    1    4    4    0    0 -0.12735628190E+02 -0.15279951985E+02 -0.49026872179E+02  0.60821931520E+02  0.30000000000E+02 0. -1.
     200000    1    3    3    0    0 -0.31905631961E+03  0.20605905436E+03  0.28499079742E+03  0.48546680997E+03  0.10100000000E+03 0. -1.
    -200001    1    1    2    0    0  0.46783066171E+03 -0.19938873420E+03  0.22814631953E+04  0.24164984393E+04  0.61300000000E+03 0.  1.
<mgrwt>
<rscale>  0 0.22373601E+04</rscale>
<asrwt>0</asrwt>
<pdfrwt beam="1">  1        2 0.39432029E+00 0.22373601E+04</pdfrwt>
<pdfrwt beam="2">  1       -2 0.64768912E-01 0.22373601E+04</pdfrwt>
<totfact> 0.64406197E+00</totfact>
</mgrwt>
</event>
<event>
 8    1  0.7326756E-052  0.1631129E+04  0.7818608E-02  0.8801649E-01
          2   -1    0    0  501    0  0.00000000000E+00  0.00000000000E+00  0.17060354354E+04  0.17060354354E+04  0.25500000000E-02 0.  1.
         -2   -1    0    0    0  501 -0.00000000000E+00 -0.00000000000E+00 -0.38987807470E+03  0.38987807471E+03  0.25500000000E-02 0. -1.
     200001    2    1    2    0    0  0.41177613040E+03 -0.95213878910E+02  0.23009541371E+03  0.77912772001E+03  0.61275675465E+03 0.  0.
    5000001    2    3    3    0    0 -0.12526501326E+03 -0.67043380074E+02 -0.30842236059E+02  0.17291305171E+03  0.93603106620E+02 0.  0.
        -11    1    4    4    0    0 -0.95569925157E+02 -0.18501561267E+02  0.81585365168E+01  0.97685618605E+02  0.51100000000E-03 0. -1.
     200002    1    4    4    0    0 -0.29695088102E+02 -0.48541818806E+02 -0.39000772576E+02  0.75227433107E+02  0.30000000000E+02 0. -1.
     200000    1    3    3    0    0  0.53704114366E+03 -0.28170498837E+02  0.26093764977E+03  0.60621466830E+03  0.10100000000E+03 0.  1.
    -200001    1    1    2    0    0 -0.41177613040E+03  0.95213878910E+02  0.10860619470E+04  0.13167857901E+04  0.61300000000E+03 0.  1.
<mgrwt>
<rscale>  0 0.16311294E+04</rscale>
<asrwt>0</asrwt>
<pdfrwt beam="1">  1        2 0.24371935E+00 0.16311294E+04</pdfrwt>
<pdfrwt beam="2">  1       -2 0.55696867E-01 0.16311294E+04</pdfrwt>
<totfact> 0.33057430E+01</totfact>
</mgrwt>
</event>
<event>
 8    1  0.7326756E-052  0.2465136E+04  0.7818608E-02  0.8415512E-01
         -2   -1    0    0    0  501 -0.00000000000E+00  0.00000000000E+00  0.79103978034E+03  0.79103978034E+03  0.25500000000E-02 0. -1.
          2   -1    0    0  501    0  0.00000000000E+00 -0.00000000000E+00 -0.19205407960E+04  0.19205407961E+04  0.25500000000E-02 0.  1.
     200001    2    1    2    0    0  0.94316201748E+03  0.20291232356E+02 -0.11183444140E+04  0.15864762279E+04  0.61338916521E+03 0.  0.
    5000001    2    3    3    0    0  0.50049295666E+03 -0.26573144414E+03 -0.43656148853E+03  0.71883930709E+03  0.70976165529E+02 0.  0.
        -11    1    4    4    0    0  0.40592082675E+03 -0.20584887624E+03 -0.34337854062E+03  0.57013533446E+03  0.51100000000E-03 0. -1.
     200002    1    4    4    0    0  0.94572129904E+02 -0.59882567903E+02 -0.93182947915E+02  0.14870397263E+03  0.30000000000E+02 0.  1.
     200000    1    3    3    0    0  0.44266906082E+03  0.28602267650E+03 -0.68178292543E+03  0.86763692077E+03  0.10100000000E+03 0. -1.
    -200001    1    1    2    0    0 -0.94316201748E+03 -0.20291232356E+02 -0.11156601752E+02  0.11251043485E+04  0.61300000000E+03 0. -1.
<mgrwt>
<rscale>  0 0.24651362E+04</rscale>
<asrwt>0</asrwt>
<pdfrwt beam="1">  1        2 0.27436297E+00 0.24651362E+04</pdfrwt>
<pdfrwt beam="2">  1       -2 0.11300568E+00 0.24651362E+04</pdfrwt>
<totfact> 0.48819543E+00</totfact>
</mgrwt>
</event>
<event>
 8    1  0.7326756E-052  0.2046971E+04  0.7818608E-02  0.8584970E-01
         -2   -1    0    0    0  501 -0.00000000000E+00  0.00000000000E+00  0.41906915428E+03  0.41906915429E+03  0.25500000000E-02 0. -1.
          2   -1    0    0  501    0  0.00000000000E+00 -0.00000000000E+00 -0.24996418748E+04  0.24996418748E+04  0.25500000000E-02 0.  1.
     200001    2    1    2    0    0 -0.50322353619E+03  0.30737457815E+03 -0.22886524315E+03  0.88099106784E+03  0.61323152514E+03 0.  0.
    5000001    2    3    3    0    0  0.39332450693E+01  0.22951305829E+03 -0.14660780911E+03  0.35161624552E+03  0.22237000714E+03 0.  0.
        -11    1    4    4    0    0  0.70768889931E+02  0.21855064367E+03 -0.59564256770E+02  0.23731944783E+03  0.51100000000E-03 0. -1.
     200002    1    4    4    0    0 -0.66835644861E+02  0.10962414619E+02 -0.87043552340E+02  0.11429679769E+03  0.30000000000E+02 0. -1.
     200000    1    3    3    0    0 -0.50715678126E+03  0.77861519854E+02 -0.82257434037E+02  0.52937482232E+03  0.10100000000E+03 0. -1.
    -200001    1    1    2    0    0  0.50322353619E+03 -0.30737457815E+03 -0.18517074773E+04  0.20377199612E+04  0.61300000000E+03 0.  1.
<mgrwt>
<rscale>  0 0.20469712E+04</rscale>
<asrwt>0</asrwt>
<pdfrwt beam="1">  1        2 0.35709169E+00 0.20469712E+04</pdfrwt>
<pdfrwt beam="2">  1       -2 0.59867023E-01 0.20469712E+04</pdfrwt>
<totfact> 0.10661915E+01</totfact>
</mgrwt>
</event>
<event>
 8    1  0.7326756E-052  0.1525890E+04  0.7818608E-02  0.8867417E-01
         -2   -1    0    0    0  501 -0.00000000000E+00  0.00000000000E+00  0.81991669082E+03  0.81991669082E+03  0.25500000000E-02 0. -1.
          2   -1    0    0  501    0  0.00000000000E+00 -0.00000000000E+00 -0.70993162474E+03  0.70993162474E+03  0.25500000000E-02 0.  1.
     200001    2    1    2    0    0 -0.10432818801E+03  0.38957026467E+03  0.26417468439E+03  0.78005314332E+03  0.61322530982E+03 0.  0.
    5000001    2    3    3    0    0 -0.16744386708E+02  0.51259312276E+03  0.10677443106E+03  0.53967555366E+03  0.12967975980E+03 0.  0.
        -11    1    4    4    0    0 -0.52056338405E+02  0.41656609063E+03  0.63388099003E+02  0.42456474339E+03  0.51100000000E-03 0. -1.
     200002    1    4    4    0    0  0.35311951697E+02  0.96027032128E+02  0.43386332055E+02  0.11511081027E+03  0.30000000000E+02 0. -1.
     200000    1    3    3    0    0 -0.87583801305E+02 -0.12302285809E+03  0.15740025333E+03  0.24037758966E+03  0.10100000000E+03 0. -1.
    -200001    1    1    2    0    0  0.10432818801E+03 -0.38957026467E+03 -0.15418961831E+03  0.74979517224E+03  0.61300000000E+03 0.  1.
<mgrwt>
<rscale>  0 0.15258896E+04</rscale>
<asrwt>0</asrwt>
<pdfrwt beam="1">  1        2 0.10141880E+00 0.15258896E+04</pdfrwt>
<pdfrwt beam="2">  1       -2 0.11713096E+00 0.15258896E+04</pdfrwt>
<totfact> 0.24092825E+01</totfact>
</mgrwt>
</event>
<event>
 8    1  0.7326756E-052  0.1528287E+04  0.7818608E-02  0.8865857E-01
         -2   -1    0    0    0  501 -0.00000000000E+00  0.00000000000E+00  0.16842379329E+03  0.16842379331E+03  0.25500000000E-02 0. -1.
          2   -1    0    0  501    0  0.00000000000E+00 -0.00000000000E+00 -0.34669397881E+04  0.34669397881E+04  0.25500000000E-02 0.  1.
     200001    2    1    2    0    0 -0.10554600209E+03 -0.25687195598E+03 -0.78808317781E+03  0.10362935383E+04  0.61294864553E+03 0.  0.
    5000001    2    3    3    0    0 -0.20662452595E+03 -0.61656109088E+02 -0.73565936560E+03  0.78875495354E+03  0.18559230595E+03 0.  0.
        -11    1    4    4    0    0 -0.51339073178E+02 -0.46927945915E+02 -0.49842161495E+03  0.50325146675E+03  0.51100000000E-03 0. -1.
     200002    1    4    4    0    0 -0.15528545277E+03 -0.14728163173E+02 -0.23723775066E+03  0.28550348679E+03  0.30000000000E+02 0. -1.
     200000    1    3    3    0    0  0.10107852385E+03 -0.19521584689E+03 -0.52423812209E+02  0.24753858476E+03  0.10100000000E+03 0. -1.
    -200001    1    1    2    0    0  0.10554600209E+03  0.25687195598E+03 -0.25104328169E+04  0.25990700431E+04  0.61300000000E+03 0.  1.
<mgrwt>
<rscale>  0 0.15282868E+04</rscale>
<asrwt>0</asrwt>
<pdfrwt beam="1">  1        2 0.49527707E+00 0.15282868E+04</pdfrwt>
<pdfrwt beam="2">  1       -2 0.24060544E-01 0.15282868E+04</pdfrwt>
<totfact> 0.18875726E+01</totfact>
</mgrwt>
</event>
<event>
 8    1  0.7326756E-052  0.2632216E+04  0.7818608E-02  0.8357340E-01
          2   -1    0    0  501    0  0.00000000000E+00  0.00000000000E+00  0.96338306915E+03  0.96338306915E+03  0.25500000000E-02 0.  1.
         -2   -1    0    0    0  501 -0.00000000000E+00 -0.00000000000E+00 -0.17979772613E+04  0.17979772613E+04  0.25500000000E-02 0. -1.
     200001    2    1    2    0    0  0.98430901210E+03  0.46808550327E+03  0.13128873319E+02  0.12506083106E+04  0.61309094730E+03 0.  0.
    5000001    2    3    3    0    0  0.82749932778E+03  0.53339454180E+03 -0.14221137985E+03  0.99923977271E+03  0.94821791280E+02 0.  0.
        -11    1    4    4    0    0  0.23086806585E+03  0.14446126403E+03  0.74204076097E-01  0.27234009279E+03  0.51100000000E-03 0. -1.
     200002    1    4    4    0    0  0.59663126193E+03  0.38893327777E+03 -0.14228558393E+03  0.72689967992E+03  0.30000000000E+02 0. -1.
     200000    1    3    3    0    0  0.15680968432E+03 -0.65309038526E+02  0.15534025317E+03  0.25136853794E+03  0.10100000000E+03 0. -1.
    -200001    1    1    2    0    0 -0.98430901210E+03 -0.46808550327E+03 -0.84772306551E+03  0.15107520198E+04  0.61300000000E+03 0. -1.
<mgrwt>
<rscale>  0 0.26322164E+04</rscale>
<asrwt>0</asrwt>
<pdfrwt beam="1">  1        2 0.13762615E+00 0.26322164E+04</pdfrwt>
<pdfrwt beam="2">  1       -2 0.25685389E+00 0.26322164E+04</pdfrwt>
<totfact> 0.15316771E+00</totfact>
</mgrwt>
</event>
<event>
 8    1  0.7326756E-052  0.1811823E+04  0.7818608E-02  0.8700037E-01
         -2   -1    0    0    0  501 -0.00000000000E+00  0.00000000000E+00  0.42377787939E+03  0.42377787940E+03  0.25500000000E-02 0. -1.
          2   -1    0    0  501    0  0.00000000000E+00 -0.00000000000E+00 -0.19365694967E+04  0.19365694967E+04  0.25500000000E-02 0.  1.
     200001    2    1    2    0    0 -0.88251304504E+02 -0.38497999950E+03 -0.58597624345E+02  0.73355695877E+03  0.61536512528E+03 0.  0.
    5000001    2    3    3    0    0  0.51690256574E+01  0.11567789873E+03  0.11513332039E+03  0.18604519606E+03  0.89157380127E+02 0.  0.
        -11    1    4    4    0    0  0.41026258402E+02  0.65372252826E+02  0.55110988220E+02  0.94836207963E+02  0.51100000000E-03 0. -1.
     200002    1    4    4    0    0 -0.35857232745E+02  0.50305645901E+02  0.60022332175E+02  0.91208988095E+02  0.30000000000E+02 0. -1.
     200000    1    3    3    0    0 -0.93420330162E+02 -0.50065789823E+03 -0.17373094474E+03  0.54751176271E+03  0.10100000000E+03 0. -1.
    -200001    1    1    2    0    0  0.88251304504E+02  0.38497999950E+03 -0.14541939930E+04  0.16267904173E+04  0.61300000000E+03 0.  1.
<mgrwt>
<rscale>  0 0.18118226E+04</rscale>
<asrwt>0</asrwt>
<pdfrwt beam="1">  1        2 0.27665278E+00 0.18118226E+04</pdfrwt>
<pdfrwt beam="2">  1       -2 0.60539698E-01 0.18118226E+04</pdfrwt>
<totfact> 0.20793284E+01</totfact>
</mgrwt>
</event>
<event>
 8    1  0.7326756E-052  0.1359789E+04  0.7818608E-02  0.8983451E-01
          2   -1    0    0  501    0  0.00000000000E+00  0.00000000000E+00  0.39721909674E+03  0.39721909674E+03  0.25500000000E-02 0.  1.
         -2   -1    0    0    0  501 -0.00000000000E+00 -0.00000000000E+00 -0.11637319641E+04  0.11637319641E+04  0.25500000000E-02 0. -1.
     200001    2    1    2    0    0  0.22771361701E+02 -0.23848560562E+03 -0.58270023613E+03  0.87761366076E+03  0.61096010783E+03 0.  0.
    5000001    2    3    3    0    0  0.14127166607E+03  0.91349766564E+02 -0.45505533083E+03  0.49118395599E+03  0.76706329729E+02 0.  0.
        -11    1    4    4    0    0  0.12465173300E+03  0.79168849718E+02 -0.38243416411E+03  0.40995323049E+03  0.51100000000E-03 0. -1.
     200002    1    4    4    0    0  0.16619933065E+02  0.12180916846E+02 -0.72621166713E+02  0.81230725499E+02  0.30000000000E+02 0.  1.
     200000    1    3    3    0    0 -0.11850030437E+03 -0.32983537218E+03 -0.12764490531E+03  0.38642970477E+03  0.10100000000E+03 0.  1.
    -200001    1    1    2    0    0 -0.22771361701E+02  0.23848560562E+03 -0.18381263127E+03  0.68333740013E+03  0.61300000000E+03 0.  1.
<mgrwt>
<rscale>  0 0.13597890E+04</rscale>
<asrwt>0</asrwt>
<pdfrwt beam="1">  1        2 0.56745586E-01 0.13597890E+04</pdfrwt>
<pdfrwt beam="2">  1       -2 0.16624742E+00 0.13597890E+04</pdfrwt>
<totfact> 0.19300720E+01</totfact>
</mgrwt>
</event>
<event>
 8    1  0.7326756E-052  0.1808480E+04  0.7818608E-02  0.8701803E-01
          2   -1    0    0  501    0  0.00000000000E+00  0.00000000000E+00  0.12124209502E+04  0.12124209502E+04  0.25500000000E-02 0.  1.
         -2   -1    0    0    0  501 -0.00000000000E+00 -0.00000000000E+00 -0.67439480698E+03  0.67439480699E+03  0.25500000000E-02 0. -1.
     200001    2    1    2    0    0 -0.13462088339E+02 -0.64765023265E+03  0.42455240704E+03  0.98777329965E+03  0.61304102107E+03 0.  0.
    5000001    2    3    3    0    0  0.85461593551E+02 -0.10035990759E+03 -0.11582313706E+03  0.20577628982E+03  0.10748528898E+03 0.  0.
        -11    1    4    4    0    0 -0.21281386501E+02 -0.21658447854E+02 -0.59038815980E+01  0.30932856206E+02  0.51100000000E-03 0. -1.
     200002    1    4    4    0    0  0.10674298005E+03 -0.78701459738E+02 -0.10991925546E+03  0.17484343361E+03  0.30000000000E+02 0. -1.
     200000    1    3    3    0    0 -0.98923681890E+02 -0.54729032505E+03  0.54037554410E+03  0.78199700984E+03  0.10100000000E+03 0.  1.
    -200001    1    1    2    0    0  0.13462088339E+02  0.64765023265E+03  0.11347373619E+03  0.89904245755E+03  0.61300000000E+03 0.  1.
<mgrwt>
<rscale>  0 0.18084805E+04</rscale>
<asrwt>0</asrwt>
<pdfrwt beam="1">  1        2 0.17320299E+00 0.18084805E+04</pdfrwt>
<pdfrwt beam="2">  1       -2 0.96342116E-01 0.18084805E+04</pdfrwt>
<totfact> 0.17949357E+01</totfact>
</mgrwt>
</event>
<event>
 8    1  0.7326756E-052  0.1406044E+04  0.7818608E-02  0.8949455E-01
          2   -1    0    0  501    0  0.00000000000E+00  0.00000000000E+00  0.20762550189E+04  0.20762550189E+04  0.25500000000E-02 0.  1.
         -2   -1    0    0    0  501 -0.00000000000E+00 -0.00000000000E+00 -0.23804398835E+03  0.23804398836E+03  0.25500000000E-02 0. -1.
     200001    2    1    2    0    0 -0.12364647073E+03  0.10848877585E+03  0.42111040925E+03  0.76155903061E+03  0.61284575230E+03 0.  0.
    5000001    2    3    3    0    0 -0.11164187774E+03  0.28064506491E+03  0.30789591597E+03  0.53177561170E+03  0.31106244518E+03 0.  0.
        -11    1    4    4    0    0  0.59365213360E+01 -0.42901157852E+02  0.14201037561E+03  0.14846783628E+03  0.51100000000E-03 0. -1.
     200002    1    4    4    0    0 -0.11757839908E+03  0.32354622276E+03  0.16588554037E+03  0.38330777542E+03  0.30000000000E+02 0. -1.
     200000    1    3    3    0    0 -0.12004592988E+02 -0.17215628906E+03  0.11321449328E+03  0.22978341891E+03  0.10100000000E+03 0. -1.
    -200001    1    1    2    0    0  0.12364647073E+03 -0.10848877585E+03  0.14171006213E+04  0.15527399767E+04  0.61300000000E+03 0.  1.
<mgrwt>
<rscale>  0 0.14060441E+04</rscale>
<asrwt>0</asrwt>
<pdfrwt beam="1">  1        2 0.29660787E+00 0.14060441E+04</pdfrwt>
<pdfrwt beam="2">  1       -2 0.34006283E-01 0.14060441E+04</pdfrwt>
<totfact> 0.57779977E+01</totfact>
</mgrwt>
</event>
<event>
 8    1  0.7326756E-052  0.2062590E+04  0.7818608E-02  0.8577904E-01
          2   -1    0    0  501    0  0.00000000000E+00  0.00000000000E+00  0.82826104240E+03  0.82826104240E+03  0.25500000000E-02 0.  1.
         -2   -1    0    0    0  501 -0.00000000000E+00 -0.00000000000E+00 -0.12840991370E+04  0.12840991370E+04  0.25500000000E-02 0. -1.
     200001    2    1    2    0    0  0.16835158011E+03  0.62007321541E+03  0.30921673631E+03  0.94022070763E+03  0.61283516711E+03 0.  0.
    5000001    2    3    3    0    0  0.25445655253E+03  0.14881201062E+02  0.83218145250E+02  0.28071498084E+03  0.83102668421E+02 0.  0.
        -11    1    4    4    0    0  0.91322733877E+02  0.40585567227E+02  0.24532370720E+02  0.10290222157E+03  0.51100000000E-03 0. -1.
     200002    1    4    4    0    0  0.16313381865E+03 -0.25704366166E+02  0.58685774531E+02  0.17781275927E+03  0.30000000000E+02 0. -1.
     200000    1    3    3    0    0 -0.86104972418E+02  0.60519201435E+03  0.22599859106E+03  0.65950572679E+03  0.10100000000E+03 0.  1.
    -200001    1    1    2    0    0 -0.16835158011E+03 -0.62007321541E+03 -0.76505483094E+03  0.11721394718E+04  0.61300000000E+03 0. -1.
<mgrwt>
<rscale>  0 0.20625899E+04</rscale>
<asrwt>0</asrwt>
<pdfrwt beam="1">  1        2 0.11832301E+00 0.20625899E+04</pdfrwt>
<pdfrwt beam="2">  1       -2 0.18344273E+00 0.20625899E+04</pdfrwt>
<totfact> 0.57861895E+00</totfact>
</mgrwt>
</event>
<event>
 8    1  0.7326756E-052  0.1276433E+04  0.7818608E-02  0.9048465E-01
          2   -1    0    0  501    0  0.00000000000E+00  0.00000000000E+00  0.27087840283E+04  0.27087840283E+04  0.25500000000E-02 0.  1.
         -2   -1    0    0    0  501 -0.00000000000E+00 -0.00000000000E+00 -0.15037028153E+03  0.15037028155E+03  0.25500000000E-02 0. -1.
     200001    2    1    2    0    0  0.13546013882E+03  0.61279110073E+01  0.15384677587E+04  0.16614707878E+04  0.61254806626E+03 0.  0.
    5000001    2    3    3    0    0  0.28018018841E+02  0.48924314253E+01  0.15012508067E+04  0.15093805610E+04  0.15384000795E+03 0.  0.
        -11    1    4    4    0    0  0.10718934517E+02  0.72583103947E+02  0.51457437814E+03  0.51977879254E+03  0.51100000000E-03 0. -1.
     200002    1    4    4    0    0  0.17299084323E+02 -0.67690672522E+02  0.98667642860E+03  0.98960176850E+03  0.30000000000E+02 0. -1.
     200000    1    3    3    0    0  0.10744211998E+03  0.12354795819E+01  0.37216952004E+02  0.15209022675E+03  0.10100000000E+03 0. -1.
    -200001    1    1    2    0    0 -0.13546013882E+03 -0.61279110073E+01  0.10199459880E+04  0.11976835220E+04  0.61300000000E+03 0. -1.
<mgrwt>
<rscale>  0 0.12764335E+04</rscale>
<asrwt>0</asrwt>
<pdfrwt beam="1">  1        2 0.38696915E+00 0.12764335E+04</pdfrwt>
<pdfrwt beam="2">  1       -2 0.21481468E-01 0.12764335E+04</pdfrwt>
<totfact> 0.63454568E+01</totfact>
</mgrwt>
</event>
<event>
 8    1  0.7326756E-052  0.1704066E+04  0.7818608E-02  0.8759049E-01
          2   -1    0    0  501    0  0.00000000000E+00  0.00000000000E+00  0.39890789338E+04  0.39890789338E+04  0.25500000000E-02 0.  1.
         -2   -1    0    0    0  501 -0.00000000000E+00 -0.00000000000E+00 -0.18198683539E+03  0.18198683541E+03  0.25500000000E-02 0. -1.
     200001    2    1    2    0    0 -0.18048596940E+03 -0.44943191773E+03  0.27351225265E+04  0.28446224056E+04  0.61352845217E+03 0.  0.
    5000001    2    3    3    0    0  0.11667611934E+03 -0.43403248955E+03  0.13678461686E+04  0.14417011362E+04  0.74172139151E+02 0.  0.
        -11    1    4    4    0    0  0.48594603993E+02 -0.16279108683E+03  0.42171005380E+03  0.45464463371E+03  0.51100000000E-03 0. -1.
     200002    1    4    4    0    0  0.68081515351E+02 -0.27124140273E+03  0.94613611485E+03  0.98705650249E+03  0.30000000000E+02 0. -1.
     200000    1    3    3    0    0 -0.29716208875E+03 -0.15399428178E+02  0.13672763578E+04  0.14029212694E+04  0.10100000000E+03 0. -1.
    -200001    1    1    2    0    0  0.18048596940E+03  0.44943191773E+03  0.10719695720E+04  0.13264433637E+04  0.61300000000E+03 0.  1.
<mgrwt>
<rscale>  0 0.17040656E+04</rscale>
<asrwt>0</asrwt>
<pdfrwt beam="1">  1        2 0.56986849E+00 0.17040656E+04</pdfrwt>
<pdfrwt beam="2">  1       -2 0.25998116E-01 0.17040656E+04</pdfrwt>
<totfact> 0.74711031E+00</totfact>
</mgrwt>
</event>
<event>
 8    1  0.7326756E-052  0.1824403E+04  0.7818608E-02  0.8693429E-01
          2   -1    0    0  501    0  0.00000000000E+00  0.00000000000E+00  0.28444712630E+04  0.28444712630E+04  0.25500000000E-02 0.  1.
         -2   -1    0    0    0  501 -0.00000000000E+00 -0.00000000000E+00 -0.29253649813E+03  0.29253649814E+03  0.25500000000E-02 0. -1.
     200001    2    1    2    0    0  0.57355840240E+03 -0.15274825945E+03  0.72642077065E+03  0.11219217543E+04  0.61540231970E+03 0.  0.
    5000001    2    3    3    0    0  0.23316183895E+03 -0.35877949367E+03  0.46614957186E+03  0.63585510581E+03  0.62682725067E+02 0.  0.
        -11    1    4    4    0    0  0.81351916969E+02 -0.11873410224E+03  0.12237400599E+03  0.18892146191E+03  0.51100000000E-03 0. -1.
     200002    1    4    4    0    0  0.15180992198E+03 -0.24004539143E+03  0.34377556587E+03  0.44693364390E+03  0.30000000000E+02 0. -1.
     200000    1    3    3    0    0  0.34039656345E+03  0.20603123423E+03  0.26027119879E+03  0.48606664852E+03  0.10100000000E+03 0. -1.
    -200001    1    1    2    0    0 -0.57355840240E+03  0.15274825945E+03  0.18255139942E+04  0.20150860068E+04  0.61300000000E+03 0.  1.
<mgrwt>
<rscale>  0 0.18244031E+04</rscale>
<asrwt>0</asrwt>
<pdfrwt beam="1">  1        2 0.40635307E+00 0.18244031E+04</pdfrwt>
<pdfrwt beam="2">  1       -2 0.41790925E-01 0.18244031E+04</pdfrwt>
<totfact> 0.14770659E+01</totfact>
</mgrwt>
</event>
<event>
 8    1  0.7326756E-052  0.1546965E+04  0.7818608E-02  0.8853809E-01
         -2   -1    0    0    0  501 -0.00000000000E+00  0.00000000000E+00  0.25493992440E+03  0.25493992441E+03  0.25500000000E-02 0. -1.
          2   -1    0    0  501    0  0.00000000000E+00 -0.00000000000E+00 -0.23467296882E+04  0.23467296882E+04  0.25500000000E-02 0.  1.
     200001    2    1    2    0    0 -0.20288000424E+03 -0.29665360089E+03 -0.15548099897E+04  0.17110069757E+04  0.61720913126E+03 0.  0.
    5000001    2    3    3    0    0  0.39578856315E+02 -0.32113271718E+03 -0.77684276933E+03  0.88953298208E+03  0.28825601473E+03 0.  0.
        -11    1    4    4    0    0 -0.11897806722E+03 -0.19053099862E+03 -0.37179843578E+03  0.43438683079E+03  0.51100000000E-03 0. -1.
     200002    1    4    4    0    0  0.15855692353E+03 -0.13060171856E+03 -0.40504433355E+03  0.45514615129E+03  0.30000000000E+02 0. -1.
     200000    1    3    3    0    0 -0.24245886056E+03  0.24479116290E+02 -0.77796722037E+03  0.82147399360E+03  0.10100000000E+03 0. -1.
    -200001    1    1    2    0    0  0.20288000424E+03  0.29665360089E+03 -0.53697977410E+03  0.89066263694E+03  0.61300000000E+03 0. -1.
<mgrwt>
<rscale>  0 0.15469649E+04</rscale>
<asrwt>0</asrwt>
<pdfrwt beam="1">  1        2 0.33524708E+00 0.15469649E+04</pdfrwt>
<pdfrwt beam="2">  1       -2 0.36419991E-01 0.15469649E+04</pdfrwt>
<totfact> 0.36339276E+01</totfact>
</mgrwt>
</event>
<event>
 8    1  0.7326756E-052  0.1511859E+04  0.7818608E-02  0.8876605E-01
          2   -1    0    0  501    0  0.00000000000E+00  0.00000000000E+00  0.41221681600E+04  0.41221681600E+04  0.25500000000E-02 0.  1.
         -2   -1    0    0    0  501 -0.00000000000E+00 -0.00000000000E+00 -0.13862348733E+03  0.13862348736E+03  0.25500000000E-02 0. -1.
     200001    2    1    2    0    0 -0.44154554513E+03 -0.23209503204E+02  0.20381280435E+04  0.21737085129E+04  0.61281451314E+03 0.  0.
    5000001    2    3    3    0    0 -0.39977820762E+03 -0.17566677923E+03  0.82890896279E+03  0.95002574483E+03  0.15740843256E+03 0.  0.
        -11    1    4    4    0    0 -0.37235055531E+03 -0.19084239490E+03  0.71928902091E+03  0.83213127050E+03  0.51100000000E-03 0. -1.
     200002    1    4    4    0    0 -0.27427652302E+02  0.15175615668E+02  0.10961994188E+03  0.11789447433E+03  0.30000000000E+02 0. -1.
     200000    1    3    3    0    0 -0.41767337514E+02  0.15245727603E+03  0.12092190808E+04  0.12236827680E+04  0.10100000000E+03 0.  1.
    -200001    1    1    2    0    0  0.44154554513E+03  0.23209503204E+02  0.19454166291E+04  0.20870831345E+04  0.61300000000E+03 0. -1.
<mgrwt>
<rscale>  0 0.15118589E+04</rscale>
<asrwt>0</asrwt>
<pdfrwt beam="1">  1        2 0.58888125E+00 0.15118589E+04</pdfrwt>
<pdfrwt beam="2">  1       -2 0.19803352E-01 0.15118589E+04</pdfrwt>
<totfact> 0.10031304E+01</totfact>
</mgrwt>
</event>
<event>
 8    1  0.7326756E-052  0.1318952E+04  0.7818608E-02  0.9014669E-01
         -2   -1    0    0    0  501 -0.00000000000E+00  0.00000000000E+00  0.39814563149E+03  0.39814563150E+03  0.25500000000E-02 0. -1.
          2   -1    0    0  501    0  0.00000000000E+00 -0.00000000000E+00 -0.10923357267E+04  0.10923357267E+04  0.25500000000E-02 0.  1.
     200001    2    1    2    0    0  0.21873787558E+03 -0.10276468030E+03 -0.35904537709E+03  0.75122644963E+03  0.61402016098E+03 0.  0.
    5000001    2    3    3    0    0  0.14365485385E+03 -0.16572588686E+03 -0.49725001293E+03  0.55398777429E+03  0.10743878303E+03 0.  0.
        -11    1    4    4    0    0  0.46116529365E+02 -0.12676461998E+03 -0.28254419817E+03  0.31309300069E+03  0.51100000000E-03 0. -1.
     200002    1    4    4    0    0  0.97538324487E+02 -0.38961266881E+02 -0.21470581476E+03  0.24089477361E+03  0.30000000000E+02 0.  1.
     200000    1    3    3    0    0  0.75083021732E+02  0.62961206553E+02  0.13820463584E+03  0.19723867534E+03  0.10100000000E+03 0. -1.
    -200001    1    1    2    0    0 -0.21873787558E+03  0.10276468030E+03 -0.33514471810E+03  0.73925490854E+03  0.61300000000E+03 0.  1.
<mgrwt>
<rscale>  0 0.13189522E+04</rscale>
<asrwt>0</asrwt>
<pdfrwt beam="1">  1        2 0.15604796E+00 0.13189522E+04</pdfrwt>
<pdfrwt beam="2">  1       -2 0.56877948E-01 0.13189522E+04</pdfrwt>
<totfact> 0.70106940E+01</totfact>
</mgrwt>
</event>
<event>
 8    1  0.7326756E-052  0.1556531E+04  0.7818608E-02  0.8847707E-01
          2   -1    0    0  501    0  0.00000000000E+00  0.00000000000E+00  0.24025695671E+04  0.24025695671E+04  0.25500000000E-02 0.  1.
         -2   -1    0    0    0  501 -0.00000000000E+00 -0.00000000000E+00 -0.25210386022E+03  0.25210386023E+03  0.25500000000E-02 0. -1.
     200001    2    1    2    0    0 -0.19233145809E+03 -0.79598831798E+02  0.18122624400E+04  0.19242777719E+04  0.61255402043E+03 0.  0.
    5000001    2    3    3    0    0 -0.10699378302E+03 -0.56882205789E+02  0.42003036193E+02  0.14894176965E+03  0.75737314163E+02 0.  0.
        -11    1    4    4    0    0 -0.82351499248E+02 -0.31773511148E+02  0.50850023105E+02  0.10186780791E+03  0.51100000000E-03 0. -1.
     200002    1    4    4    0    0 -0.24642283770E+02 -0.25108694641E+02 -0.88469869122E+01  0.47073961734E+02  0.30000000000E+02 0. -1.
     200000    1    3    3    0    0 -0.85337675073E+02 -0.22716626009E+02  0.17702594038E+04  0.17753360022E+04  0.10100000000E+03 0.  1.
    -200001    1    1    2    0    0  0.19233145809E+03  0.79598831798E+02  0.33820326682E+03  0.73039565544E+03  0.61300000000E+03 0. -1.
<mgrwt>
<rscale>  0 0.15565308E+04</rscale>
<asrwt>0</asrwt>
<pdfrwt beam="1">  1        2 0.34322422E+00 0.15565308E+04</pdfrwt>
<pdfrwt beam="2">  1       -2 0.36014838E-01 0.15565308E+04</pdfrwt>
<totfact> 0.34697775E+01</totfact>
</mgrwt>
</event>
<event>
 8    1  0.7326756E-052  0.1346782E+04  0.7818608E-02  0.8993268E-01
         -2   -1    0    0    0  501 -0.00000000000E+00  0.00000000000E+00  0.30497332296E+03  0.30497332297E+03  0.25500000000E-02 0. -1.
          2   -1    0    0  501    0  0.00000000000E+00 -0.00000000000E+00 -0.14868682960E+04  0.14868682960E+04  0.25500000000E-02 0.  1.
     200001    2    1    2    0    0  0.14336287624E+03  0.24147687331E+03 -0.59433647751E+03  0.89749382293E+03  0.61106081455E+03 0.  0.
    5000001    2    3    3    0    0  0.16940325157E+03  0.29709143373E+03 -0.70814174940E+02  0.36079308531E+03  0.90532985127E+02 0.  0.
        -11    1    4    4    0    0  0.42297866505E+02  0.12675808177E+03 -0.58294450826E+02  0.14579082208E+03  0.51100000000E-03 0. -1.
     200002    1    4    4    0    0  0.12710538506E+03  0.17033335196E+03 -0.12519724114E+02  0.21500226323E+03  0.30000000000E+02 0. -1.
     200000    1    3    3    0    0 -0.26040375331E+02 -0.55614560420E+02 -0.52352230257E+03  0.53670073762E+03  0.10100000000E+03 0.  1.
    -200001    1    1    2    0    0 -0.14336287624E+03 -0.24147687331E+03 -0.58755849554E+03  0.89434779605E+03  0.61300000000E+03 0.  1.
<mgrwt>
<rscale>  0 0.13467816E+04</rscale>
<asrwt>0</asrwt>
<pdfrwt beam="1">  1        2 0.21240975E+00 0.13467816E+04</pdfrwt>
<pdfrwt beam="2">  1       -2 0.43567618E-01 0.13467816E+04</pdfrwt>
<totfact> 0.72531426E+01</totfact>
</mgrwt>
</event>
<event>
 8    1  0.7326756E-052  0.1356927E+04  0.7818608E-02  0.8985601E-01
          2   -1    0    0  501    0  0.00000000000E+00  0.00000000000E+00  0.51247982130E+04  0.51247982130E+04  0.25500000000E-02 0.  1.
         -2   -1    0    0    0  501 -0.00000000000E+00 -0.00000000000E+00 -0.89820707630E+02  0.89820707666E+02  0.25500000000E-02 0. -1.
     200001    2    1    2    0    0  0.11496032639E+02  0.53458980665E+02  0.36055440165E+04  0.36583287419E+04  0.61679129989E+03 0.  0.
    5000001    2    3    3    0    0 -0.10537043750E+03  0.26273666419E+03  0.25481042939E+04  0.25693683718E+04  0.16936603499E+03 0.  0.
        -11    1    4    4    0    0  0.39116157507E+02  0.44921405959E+02  0.29487782429E+03  0.30083373772E+03  0.51100000000E-03 0. -1.
     200002    1    4    4    0    0 -0.14448659500E+03  0.21781525823E+03  0.22532264696E+04  0.22685346341E+04  0.30000000000E+02 0. -1.
     200000    1    3    3    0    0  0.11686647014E+03 -0.20927768353E+03  0.10574397226E+04  0.10889603701E+04  0.10100000000E+03 0. -1.
    -200001    1    1    2    0    0 -0.11496032639E+02 -0.53458980665E+02  0.14294334889E+04  0.15562901788E+04  0.61300000000E+03 0. -1.
<mgrwt>
<rscale>  0 0.13569274E+04</rscale>
<asrwt>0</asrwt>
<pdfrwt beam="1">  1        2 0.73211445E+00 0.13569274E+04</pdfrwt>
<pdfrwt beam="2">  1       -2 0.12831522E-01 0.13569274E+04</pdfrwt>
<totfact> 0.31211598E+00</totfact>
</mgrwt>
</event>
<event>
 8    1  0.7326756E-052  0.1611249E+04  0.7818608E-02  0.8813667E-01
          2   -1    0    0  501    0  0.00000000000E+00  0.00000000000E+00  0.30267013083E+04  0.30267013083E+04  0.25500000000E-02 0.  1.
         -2   -1    0    0    0  501 -0.00000000000E+00 -0.00000000000E+00 -0.21443495420E+03  0.21443495421E+03  0.25500000000E-02 0. -1.
     200001    2    1    2    0    0 -0.31533584518E+03  0.16745116635E+02  0.22439994319E+04  0.23475964542E+04  0.61315460303E+03 0.  0.
    5000001    2    3    3    0    0  0.16214728386E+02 -0.23530006679E+03  0.10799825576E+04  0.11071977921E+04  0.62414639511E+02 0.  0.
        -11    1    4    4    0    0  0.12266510200E+02 -0.66534244066E+02  0.21528756663E+03  0.22566791808E+03  0.51100000000E-03 0. -1.
     200002    1    4    4    0    0  0.39482181862E+01 -0.16876582273E+03  0.86469499101E+03  0.88152987404E+03  0.30000000000E+02 0. -1.
     200000    1    3    3    0    0 -0.33155057357E+03  0.25204518343E+03  0.11640168742E+04  0.12403986621E+04  0.10100000000E+03 0. -1.
    -200001    1    1    2    0    0  0.31533584518E+03 -0.16745116635E+02  0.56826692222E+03  0.89353980834E+03  0.61300000000E+03 0. -1.
<mgrwt>
<rscale>  0 0.16112487E+04</rscale>
<asrwt>0</asrwt>
<pdfrwt beam="1">  1        2 0.43238587E+00 0.16112487E+04</pdfrwt>
<pdfrwt beam="2">  1       -2 0.30633567E-01 0.16112487E+04</pdfrwt>
<totfact> 0.21653226E+01</totfact>
</mgrwt>
</event>
<event>
 8    1  0.7326756E-052  0.1988226E+04  0.7818608E-02  0.8612145E-01
          2   -1    0    0  501    0  0.00000000000E+00  0.00000000000E+00  0.26561186044E+04  0.26561186044E+04  0.25500000000E-02 0.  1.
         -2   -1    0    0    0  501 -0.00000000000E+00 -0.00000000000E+00 -0.37206953371E+03  0.37206953372E+03  0.25500000000E-02 0. -1.
     200001    2    1    2    0    0 -0.73107403352E+03 -0.14982970498E+03  0.15007116739E+04  0.17846831481E+04  0.61322119012E+03 0.  0.
    5000001    2    3    3    0    0 -0.81380307714E+03 -0.14592307061E+03  0.12252035132E+04  0.14797813557E+04  0.71135228963E+02 0.  0.
        -11    1    4    4    0    0 -0.59333838870E+03 -0.87231822645E+02  0.88171972375E+03  0.10663439903E+04  0.51100000000E-03 0. -1.
     200002    1    4    4    0    0 -0.22046468844E+03 -0.58691247966E+02  0.34348378948E+03  0.41343736535E+03  0.30000000000E+02 0. -1.
     200000    1    3    3    0    0  0.82729043627E+02 -0.39066343675E+01  0.27550816070E+03  0.30490179249E+03  0.10100000000E+03 0.  1.
    -200001    1    1    2    0    0  0.73107403352E+03  0.14982970498E+03  0.78333739681E+03  0.12435049900E+04  0.61300000000E+03 0. -1.
<mgrwt>
<rscale>  0 0.19882262E+04</rscale>
<asrwt>0</asrwt>
<pdfrwt beam="1">  1        2 0.37944551E+00 0.19882262E+04</pdfrwt>
<pdfrwt beam="2">  1       -2 0.53152792E-01 0.19882262E+04</pdfrwt>
<totfact> 0.11341891E+01</totfact>
</mgrwt>
</event>
<event>
 8    1  0.7326756E-052  0.1415296E+04  0.7818608E-02  0.8942821E-01
          2   -1    0    0  501    0  0.00000000000E+00  0.00000000000E+00  0.49573137999E+03  0.49573137999E+03  0.25500000000E-02 0.  1.
         -2   -1    0    0    0  501 -0.00000000000E+00 -0.00000000000E+00 -0.10101546896E+04  0.10101546896E+04  0.25500000000E-02 0. -1.
     200001    2    1    2    0    0 -0.13038289788E+03 -0.30248662091E+03 -0.38870939032E+03  0.79872919495E+03  0.61512232999E+03 0.  0.
    5000001    2    3    3    0    0  0.19176244879E+03  0.33492732510E+02 -0.17520004232E+03  0.27676464444E+03  0.89493092945E+02 0.  0.
        -11    1    4    4    0    0  0.16925117483E+03  0.39635430381E+02 -0.12648543580E+03  0.21497788954E+03  0.51100000000E-03 0. -1.
     200002    1    4    4    0    0  0.22511273967E+02 -0.61426978703E+01 -0.48714606515E+02  0.61786754897E+02  0.30000000000E+02 0. -1.
     200000    1    3    3    0    0 -0.32214534667E+03 -0.33597935342E+03 -0.21350934800E+03  0.52196455051E+03  0.10100000000E+03 0.  1.
    -200001    1    1    2    0    0  0.13038289788E+03  0.30248662091E+03 -0.12571391932E+03  0.70715687467E+03  0.61300000000E+03 0.  1.
<mgrwt>
<rscale>  0 0.14152956E+04</rscale>
<asrwt>0</asrwt>
<pdfrwt beam="1">  1        2 0.70818769E-01 0.14152956E+04</pdfrwt>
<pdfrwt beam="2">  1       -2 0.14430781E+00 0.14152956E+04</pdfrwt>
<totfact> 0.21897295E+01</totfact>
</mgrwt>
</event>
<event>
 8    1  0.7326756E-052  0.2436165E+04  0.7818608E-02  0.8426087E-01
          2   -1    0    0  501    0  0.00000000000E+00  0.00000000000E+00  0.17928000676E+04  0.17928000676E+04  0.25500000000E-02 0.  1.
         -2   -1    0    0    0  501 -0.00000000000E+00 -0.00000000000E+00 -0.82760201800E+03  0.82760201801E+03  0.25500000000E-02 0. -1.
     200001    2    1    2    0    0 -0.34591316984E+01 -0.39989646050E+03 -0.56468912914E+03  0.92445016283E+03  0.61302948238E+03 0.  0.
    5000001    2    3    3    0    0  0.56534078865E+02 -0.34882750636E+03 -0.61156765668E+03  0.78804701135E+03  0.34946582399E+03 0.  0.
        -11    1    4    4    0    0  0.14697240826E+03 -0.25668039315E+03 -0.58108918185E+03  0.65203554373E+03  0.51100000000E-03 0. -1.
     200002    1    4    4    0    0 -0.90438329391E+02 -0.92147113214E+02 -0.30478474822E+02  0.13601146762E+03  0.30000000000E+02 0. -1.
     200000    1    3    3    0    0 -0.59993210563E+02 -0.51068954138E+02  0.46878527532E+02  0.13640315148E+03  0.10100000000E+03 0.  1.
    -200001    1    1    2    0    0  0.34591316984E+01  0.39989646050E+03  0.15298871788E+04  0.16959519228E+04  0.61300000000E+03 0.  1.
<mgrwt>
<rscale>  0 0.24361650E+04</rscale>
<asrwt>0</asrwt>
<pdfrwt beam="1">  1        2 0.25611429E+00 0.24361650E+04</pdfrwt>
<pdfrwt beam="2">  1       -2 0.11822886E+00 0.24361650E+04</pdfrwt>
<totfact> 0.51008780E+00</totfact>
</mgrwt>
</event>
<event>
 8    1  0.7326756E-052  0.1282100E+04  0.7818608E-02  0.9043881E-01
          2   -1    0    0  501    0  0.00000000000E+00  0.00000000000E+00  0.14522500130E+04  0.14522500130E+04  0.25500000000E-02 0.  1.
         -2   -1    0    0    0  501 -0.00000000000E+00 -0.00000000000E+00 -0.28297142555E+03  0.28297142556E+03  0.25500000000E-02 0. -1.
     200001    2    1    2    0    0  0.18105032419E+03  0.51093771964E+02  0.59492507144E+03  0.87438419798E+03  0.61255374591E+03 0.  0.
    5000001    2    3    3    0    0 -0.17794254498E+03 -0.36900492584E+02  0.50466471246E+02  0.20861018374E+03  0.89141171040E+02 0.  0.
        -11    1    4    4    0    0 -0.15974423832E+03 -0.15552506850E+02  0.32385061229E+02  0.16373421859E+03  0.51100000000E-03 0. -1.
     200002    1    4    4    0    0 -0.18198306656E+02 -0.21347985733E+02  0.18081410017E+02  0.44875965151E+02  0.30000000000E+02 0.  1.
     200000    1    3    3    0    0  0.35899286917E+03  0.87994264548E+02  0.54445860019E+03  0.66577401423E+03  0.10100000000E+03 0.  1.
    -200001    1    1    2    0    0 -0.18105032419E+03 -0.51093771964E+02  0.57435351602E+03  0.86083724059E+03  0.61300000000E+03 0. -1.
<mgrwt>
<rscale>  0 0.12821002E+04</rscale>
<asrwt>0</asrwt>
<pdfrwt beam="1">  1        2 0.20746429E+00 0.12821002E+04</pdfrwt>
<pdfrwt beam="2">  1       -2 0.40424489E-01 0.12821002E+04</pdfrwt>
<totfact> 0.88127601E+01</totfact>
</mgrwt>
</event>
<event>
 8    1  0.7326756E-052  0.1342847E+04  0.7818608E-02  0.8996261E-01
          2   -1    0    0  501    0  0.00000000000E+00  0.00000000000E+00  0.92051108543E+03  0.92051108543E+03  0.25500000000E-02 0.  1.
         -2   -1    0    0    0  501 -0.00000000000E+00 -0.00000000000E+00 -0.48973820127E+03  0.48973820127E+03  0.25500000000E-02 0. -1.
     200001    2    1    2    0    0  0.17386222083E+03 -0.15347005620E+03  0.36597141396E+03  0.75165277857E+03  0.61421958103E+03 0.  0.
    5000001    2    3    3    0    0 -0.12557667202E+03 -0.22978528853E+03  0.32479260272E+03  0.42395724956E+03  0.75357383816E+02 0.  0.
        -11    1    4    4    0    0  0.67091870427E+01 -0.25207866212E+02  0.21666815877E+02  0.33910184610E+02  0.51100000000E-03 0. -1.
     200002    1    4    4    0    0 -0.13228585906E+03 -0.20457742231E+03  0.30312578684E+03  0.39004706495E+03  0.30000000000E+02 0. -1.
     200000    1    3    3    0    0  0.29943889285E+03  0.76315232328E+02  0.41178811237E+02  0.32769552901E+03  0.10100000000E+03 0.  1.
    -200001    1    1    2    0    0 -0.17386222083E+03  0.15347005620E+03  0.64801470201E+02  0.65859650813E+03  0.61300000000E+03 0. -1.
<mgrwt>
<rscale>  0 0.13428469E+04</rscale>
<asrwt>0</asrwt>
<pdfrwt beam="1">  1        2 0.13150158E+00 0.13428469E+04</pdfrwt>
<pdfrwt beam="2">  1       -2 0.69962601E-01 0.13428469E+04</pdfrwt>
<totfact> 0.57435040E+01</totfact>
</mgrwt>
</event>
<event>
 8    1  0.7326756E-052  0.1524105E+04  0.7818608E-02  0.8868579E-01
          2   -1    0    0  501    0  0.00000000000E+00  0.00000000000E+00  0.24173917327E+04  0.24173917327E+04  0.25500000000E-02 0.  1.
         -2   -1    0    0    0  501 -0.00000000000E+00 -0.00000000000E+00 -0.24022765227E+03  0.24022765229E+03  0.25500000000E-02 0. -1.
     200001    2    1    2    0    0 -0.38298825713E+02 -0.44502345145E+03  0.95284351522E+03  0.12173963055E+04  0.61207052507E+03 0.  0.
    5000001    2    3    3    0    0 -0.17748234142E+03 -0.47310948267E+03  0.89940976681E+03  0.10351408757E+04  0.85124261460E+02 0.  0.
        -11    1    4    4    0    0 -0.23800334628E+02 -0.15386219565E+03  0.30662157977E+03  0.34388489988E+03  0.51100000000E-03 0. -1.
     200002    1    4    4    0    0 -0.15368200679E+03 -0.31924728702E+03  0.59278818703E+03  0.69125597586E+03  0.30000000000E+02 0.  1.
     200000    1    3    3    0    0  0.13918351571E+03  0.28086031216E+02  0.53433748414E+02  0.18225542973E+03  0.10100000000E+03 0. -1.
    -200001    1    1    2    0    0  0.38298825713E+02  0.44502345145E+03  0.12243205652E+04  0.14402230795E+04  0.61300000000E+03 0.  1.
<mgrwt>
<rscale>  0 0.15241054E+04</rscale>
<asrwt>0</asrwt>
<pdfrwt beam="1">  1        2 0.34534169E+00 0.15241054E+04</pdfrwt>
<pdfrwt beam="2">  1       -2 0.34318235E-01 0.15241054E+04</pdfrwt>
<totfact> 0.37477740E+01</totfact>
</mgrwt>
</event>
<event>
 8    1  0.7326756E-052  0.1617862E+04  0.7818608E-02  0.8809649E-01
          2   -1    0    0  501    0  0.00000000000E+00  0.00000000000E+00  0.18040071806E+04  0.18040071806E+04  0.25500000000E-02 0.  1.
         -2   -1    0    0    0  501 -0.00000000000E+00 -0.00000000000E+00 -0.36273110510E+03  0.36273110511E+03  0.25500000000E-02 0. -1.
     200001    2    1    2    0    0 -0.31969019003E+03 -0.26237550044E+03  0.11596162043E+04  0.13754456699E+04  0.61326856165E+03 0.  0.
    5000001    2    3    3    0    0  0.13065952414E+03  0.64236336581E+02  0.22210685696E+03  0.28063293088E+03  0.90692710843E+02 0.  0.
        -11    1    4    4    0    0  0.44143140905E+02  0.47203421715E+02  0.14838016637E+03  0.16184391766E+03  0.51100000000E-03 0. -1.
     200002    1    4    4    0    0  0.86516383239E+02  0.17032914866E+02  0.73726690590E+02  0.11878901322E+03  0.30000000000E+02 0. -1.
     200000    1    3    3    0    0 -0.45034971417E+03 -0.32661183702E+03  0.93750934738E+03  0.10948127390E+04  0.10100000000E+03 0.  1.
    -200001    1    1    2    0    0  0.31969019003E+03  0.26237550044E+03  0.28165987120E+03  0.79129261584E+03  0.61300000000E+03 0. -1.
<mgrwt>
<rscale>  0 0.16178622E+04</rscale>
<asrwt>0</asrwt>
<pdfrwt beam="1">  1        2 0.25771532E+00 0.16178622E+04</pdfrwt>
<pdfrwt beam="2">  1       -2 0.51818729E-01 0.16178622E+04</pdfrwt>
<totfact> 0.34176643E+01</totfact>
</mgrwt>
</event>
<event>
 8    1  0.7326756E-052  0.1457390E+04  0.7818608E-02  0.8913293E-01
          2   -1    0    0  501    0  0.00000000000E+00  0.00000000000E+00  0.60513199505E+03  0.60513199506E+03  0.25500000000E-02 0.  1.
         -2   -1    0    0    0  501 -0.00000000000E+00 -0.00000000000E+00 -0.87748871640E+03  0.87748871640E+03  0.25500000000E-02 0. -1.
     200001    2    1    2    0    0  0.18486974908E+03 -0.29849062243E+03  0.38637466770E+02  0.71076589295E+03  0.61678345061E+03 0.  0.
    5000001    2    3    3    0    0 -0.94925845386E+02 -0.17209458898E+03  0.24771241783E+03  0.32583100610E+03  0.78593504277E+02 0.  0.
        -11    1    4    4    0    0 -0.71369988306E+02 -0.11941546354E+03  0.12536077880E+03  0.18726733037E+03  0.51100000000E-03 0. -1.
     200002    1    4    4    0    0 -0.23555857079E+02 -0.52679125441E+02  0.12235163902E+03  0.13856367573E+03  0.30000000000E+02 0.  1.
     200000    1    3    3    0    0  0.27979559446E+03 -0.12639603345E+03 -0.20907495106E+03  0.38493488685E+03  0.10100000000E+03 0.  1.
    -200001    1    1    2    0    0 -0.18486974908E+03  0.29849062243E+03 -0.31099418811E+03  0.77185481850E+03  0.61300000000E+03 0. -1.
<mgrwt>
<rscale>  0 0.14573901E+04</rscale>
<asrwt>0</asrwt>
<pdfrwt beam="1">  1        2 0.86447428E-01 0.14573901E+04</pdfrwt>
<pdfrwt beam="2">  1       -2 0.12535553E+00 0.14573901E+04</pdfrwt>
<totfact> 0.24825599E+01</totfact>
</mgrwt>
</event>
<event>
 8    1  0.7326756E-052  0.1559347E+04  0.7818608E-02  0.8845920E-01
         -2   -1    0    0    0  501 -0.00000000000E+00  0.00000000000E+00  0.53267949870E+03  0.53267949870E+03  0.25500000000E-02 0. -1.
          2   -1    0    0  501    0  0.00000000000E+00 -0.00000000000E+00 -0.11411938128E+04  0.11411938128E+04  0.25500000000E-02 0.  1.
     200001    2    1    2    0    0  0.43162472873E+03  0.85271583653E+02 -0.51880644011E+03  0.91401302695E+03  0.61048222062E+03 0.  0.
    5000001    2    3    3    0    0 -0.37466848642E+02  0.23038393553E+03 -0.18352626326E+03  0.31092240388E+03  0.92251446788E+02 0.  0.
        -11    1    4    4    0    0 -0.30386194522E+02  0.46151236364E+02 -0.80385137079E+02  0.97545003454E+02  0.51100000000E-03 0. -1.
     200002    1    4    4    0    0 -0.70806541193E+01  0.18423269917E+03 -0.10314112618E+03  0.21337740043E+03  0.30000000000E+02 0. -1.
     200000    1    3    3    0    0  0.46909157737E+03 -0.14511235188E+03 -0.33528017686E+03  0.60309062306E+03  0.10100000000E+03 0.  1.
    -200001    1    1    2    0    0 -0.43162472873E+03 -0.85271583653E+02 -0.89707874017E+02  0.75986028459E+03  0.61300000000E+03 0. -1.
<mgrwt>
<rscale>  0 0.15593467E+04</rscale>
<asrwt>0</asrwt>
<pdfrwt beam="1">  1        2 0.16302769E+00 0.15593467E+04</pdfrwt>
<pdfrwt beam="2">  1       -2 0.76097072E-01 0.15593467E+04</pdfrwt>
<totfact> 0.34440246E+01</totfact>
</mgrwt>
</event>
<event>
 8    1  0.7326756E-052  0.1552360E+04  0.7818608E-02  0.8850361E-01
         -2   -1    0    0    0  501 -0.00000000000E+00  0.00000000000E+00  0.86383468126E+03  0.86383468126E+03  0.25500000000E-02 0. -1.
          2   -1    0    0  501    0  0.00000000000E+00 -0.00000000000E+00 -0.69742021848E+03  0.69742021848E+03  0.25500000000E-02 0.  1.
     200001    2    1    2    0    0  0.35754408728E+02  0.36329016838E+03 -0.22454067869E+03  0.74769909537E+03  0.61268041967E+03 0.  0.
    5000001    2    3    3    0    0  0.76248227492E+02  0.48884616898E+03 -0.27743664094E+03  0.57333441584E+03  0.83407994383E+02 0.  0.
        -11    1    4    4    0    0  0.45042129808E+02  0.12697772568E+03 -0.49818584080E+02  0.14364549278E+03  0.51100000000E-03 0. -1.
     200002    1    4    4    0    0  0.31206097684E+02  0.36186844330E+03 -0.22761805687E+03  0.42968892306E+03  0.30000000000E+02 0. -1.
     200000    1    3    3    0    0 -0.40493818764E+02 -0.12555600060E+03  0.52895962257E+02  0.17436467953E+03  0.10100000000E+03 0. -1.
    -200001    1    1    2    0    0 -0.35754408728E+02 -0.36329016838E+03  0.39095514147E+03  0.81355580437E+03  0.61300000000E+03 0. -1.
<mgrwt>
<rscale>  0 0.15523605E+04</rscale>
<asrwt>0</asrwt>
<pdfrwt beam="1">  1        2 0.99631459E-01 0.15523605E+04</pdfrwt>
<pdfrwt beam="2">  1       -2 0.12340496E+00 0.15523605E+04</pdfrwt>
<totfact> 0.21591941E+01</totfact>
</mgrwt>
</event>
<event>
 8    1  0.7326756E-052  0.1836170E+04  0.7818608E-02  0.8687298E-01
         -2   -1    0    0    0  501 -0.00000000000E+00  0.00000000000E+00  0.39961439292E+03  0.39961439293E+03  0.25500000000E-02 0.  1.
          2   -1    0    0  501    0  0.00000000000E+00 -0.00000000000E+00 -0.21092330990E+04  0.21092330990E+04  0.25500000000E-02 0. -1.
     200001    2    1    2    0    0 -0.11518740326E+03 -0.30018814624E+03 -0.30852727011E+02  0.69297159488E+03  0.61308782367E+03 0.  0.
    5000001    2    3    3    0    0  0.18457688465E+03 -0.24685979132E+03 -0.14882553279E+03  0.35118054080E+03  0.78551576114E+02 0.  0.
        -11    1    4    4    0    0  0.14654436609E+03 -0.15166462835E+03 -0.90643089864E+02  0.22955082328E+03  0.51100000000E-03 0. -1.
     200002    1    4    4    0    0  0.38032518554E+02 -0.95195162964E+02 -0.58182442927E+02  0.12162971752E+03  0.30000000000E+02 0. -1.
     200000    1    3    3    0    0 -0.29976428791E+03 -0.53328354917E+02  0.11797280578E+03  0.34179105408E+03  0.10100000000E+03 0.  1.
    -200001    1    1    2    0    0  0.11518740326E+03  0.30018814624E+03 -0.16787659790E+04  0.18158758970E+04  0.61300000000E+03 0. -1.
<mgrwt>
<rscale>  0 0.18361698E+04</rscale>
<asrwt>0</asrwt>
<pdfrwt beam="1">  1        2 0.30131901E+00 0.18361698E+04</pdfrwt>
<pdfrwt beam="2">  1       -2 0.57087771E-01 0.18361698E+04</pdfrwt>
<totfact> 0.19133630E+01</totfact>
</mgrwt>
</event>
<event>
 8    1  0.7326756E-052  0.1334719E+04  0.7818608E-02  0.9002477E-01
          2   -1    0    0  501    0  0.00000000000E+00  0.00000000000E+00  0.12512639587E+04  0.12512639587E+04  0.25500000000E-02 0.  1.
         -2   -1    0    0    0  501 -0.00000000000E+00 -0.00000000000E+00 -0.35593521137E+03  0.35593521138E+03  0.25500000000E-02 0. -1.
     200001    2    1    2    0    0  0.31858872499E+02 -0.23452849170E+02  0.76378750876E+03  0.97899767265E+03  0.61114651323E+03 0.  0.
    5000001    2    3    3    0    0  0.50648638507E+02  0.27806594190E+03  0.33810501250E+03  0.44732745128E+03  0.76817293357E+02 0.  0.
        -11    1    4    4    0    0  0.55079730032E+02  0.12924208973E+03  0.14914704413E+03  0.20489542501E+03  0.51100000000E-03 0. -1.
     200002    1    4    4    0    0 -0.44310915251E+01  0.14882385218E+03  0.18895796837E+03  0.24243202627E+03  0.30000000000E+02 0. -1.
     200000    1    3    3    0    0 -0.18789766008E+02 -0.30151879107E+03  0.42568249625E+03  0.53167022137E+03  0.10100000000E+03 0. -1.
    -200001    1    1    2    0    0 -0.31858872499E+02  0.23452849170E+02  0.13154123854E+03  0.62820149739E+03  0.61300000000E+03 0. -1.
<mgrwt>
<rscale>  0 0.13347193E+04</rscale>
<asrwt>0</asrwt>
<pdfrwt beam="1">  1        2 0.17875199E+00 0.13347193E+04</pdfrwt>
<pdfrwt beam="2">  1       -2 0.50847887E-01 0.13347193E+04</pdfrwt>
<totfact> 0.71500112E+01</totfact>
</mgrwt>
</event>
<event>
 8    1  0.7326756E-052  0.1305988E+04  0.7818608E-02  0.9024830E-01
          2   -1    0    0  501    0  0.00000000000E+00  0.00000000000E+00  0.14054814460E+04  0.14054814460E+04  0.25500000000E-02 0.  1.
         -2   -1    0    0    0  501 -0.00000000000E+00 -0.00000000000E+00 -0.30338445890E+03  0.30338445891E+03  0.25500000000E-02 0. -1.
     200001    2    1    2    0    0 -0.90728176734E+02  0.20457883678E+03  0.52404410366E+03  0.83708712644E+03  0.61319534584E+03 0.  0.
    5000001    2    3    3    0    0 -0.19703949131E+03  0.33055373557E+03  0.50993873499E+03  0.64325283598E+03  0.75142293807E+02 0.  0.
        -11    1    4    4    0    0 -0.62577665464E+02  0.15243373243E+03  0.18280545031E+03  0.24610940588E+03  0.51100000000E-03 0. -1.
     200002    1    4    4    0    0 -0.13446182585E+03  0.17812000314E+03  0.32713328469E+03  0.39714343011E+03  0.30000000000E+02 0. -1.
     200000    1    3    3    0    0  0.10631131458E+03 -0.12597489879E+03  0.14105368663E+02  0.19383429046E+03  0.10100000000E+03 0. -1.
    -200001    1    1    2    0    0  0.90728176734E+02 -0.20457883678E+03  0.57805288342E+03  0.87177877844E+03  0.61300000000E+03 0.  1.
<mgrwt>
<rscale>  0 0.13059881E+04</rscale>
<asrwt>0</asrwt>
<pdfrwt beam="1">  1        2 0.20078306E+00 0.13059881E+04</pdfrwt>
<pdfrwt beam="2">  1       -2 0.43340638E-01 0.13059881E+04</pdfrwt>
<totfact> 0.81275647E+01</totfact>
</mgrwt>
</event>
<event>
 8    1  0.7326756E-052  0.1288341E+04  0.7818608E-02  0.9038862E-01
          2   -1    0    0  501    0  0.00000000000E+00  0.00000000000E+00  0.31275045317E+03  0.31275045318E+03  0.25500000000E-02 0.  1.
         -2   -1    0    0    0  501 -0.00000000000E+00 -0.00000000000E+00 -0.13267952026E+04  0.13267952026E+04  0.25500000000E-02 0. -1.
     200001    2    1    2    0    0 -0.11979782440E+03 -0.64539174304E+02 -0.32560804205E+03  0.70775655741E+03  0.61349973412E+03 0.  0.
    5000001    2    3    3    0    0 -0.32140836328E+03 -0.17062357156E+03 -0.14791860906E+03  0.40169244105E+03  0.84030727345E+02 0.  0.
        -11    1    4    4    0    0 -0.20895401589E+03 -0.83086615921E+02 -0.64834474207E+02  0.23402708294E+03  0.51100000000E-03 0. -1.
     200002    1    4    4    0    0 -0.11245434738E+03 -0.87536955636E+02 -0.83084134850E+02  0.16766535811E+03  0.30000000000E+02 0. -1.
     200000    1    3    3    0    0  0.20161053888E+03  0.10608439725E+03 -0.17768943299E+03  0.30606411636E+03  0.10100000000E+03 0.  1.
    -200001    1    1    2    0    0  0.11979782440E+03  0.64539174304E+02 -0.68843670737E+03  0.93178909835E+03  0.61300000000E+03 0.  1.
<mgrwt>
<rscale>  0 0.12883413E+04</rscale>
<asrwt>0</asrwt>
<pdfrwt beam="1">  1        2 0.44678637E-01 0.12883413E+04</pdfrwt>
<pdfrwt beam="2">  1       -2 0.18954217E+00 0.12883413E+04</pdfrwt>
<totfact> 0.17441701E+01</totfact>
</mgrwt>
</event>
<event>
 8    1  0.7326756E-052  0.1528915E+04  0.7818608E-02  0.8865449E-01
          2   -1    0    0  501    0  0.00000000000E+00  0.00000000000E+00  0.26490645229E+04  0.26490645229E+04  0.25500000000E-02 0.  1.
         -2   -1    0    0    0  501 -0.00000000000E+00 -0.00000000000E+00 -0.22060444338E+03  0.22060444339E+03  0.25500000000E-02 0. -1.
     200001    2    1    2    0    0  0.23095437386E+03 -0.39023299056E+03  0.11041716089E+04  0.13415555336E+04  0.61233536411E+03 0.  0.
    5000001    2    3    3    0    0  0.39879374789E+03 -0.31733292815E+03  0.95096460571E+03  0.10824071969E+04  0.86804481493E+02 0.  0.
        -11    1    4    4    0    0  0.11535806836E+02 -0.30793483851E+02  0.82748218435E+02  0.89042580496E+02  0.51100000000E-03 0. -1.
     200002    1    4    4    0    0  0.38725794105E+03 -0.28653944430E+03  0.86821638728E+03  0.99336461643E+03  0.30000000000E+02 0. -1.
     200000    1    3    3    0    0 -0.16783937403E+03 -0.72900062409E+02  0.15320700316E+03  0.25914833665E+03  0.10100000000E+03 0.  1.
    -200001    1    1    2    0    0 -0.23095437386E+03  0.39023299056E+03  0.13242884706E+04  0.15281134327E+04  0.61300000000E+03 0.  1.
<mgrwt>
<rscale>  0 0.15289152E+04</rscale>
<asrwt>0</asrwt>
<pdfrwt beam="1">  1        2 0.37843777E+00 0.15289152E+04</pdfrwt>
<pdfrwt beam="2">  1       -2 0.31514922E-01 0.15289152E+04</pdfrwt>
<totfact> 0.33224072E+01</totfact>
</mgrwt>
</event>
<event>
 8    1  0.7326756E-052  0.1335171E+04  0.7818608E-02  0.9002130E-01
         -2   -1    0    0    0  501 -0.00000000000E+00  0.00000000000E+00  0.70346308876E+03  0.70346308876E+03  0.25500000000E-02 0. -1.
          2   -1    0    0  501    0  0.00000000000E+00 -0.00000000000E+00 -0.63353802922E+03  0.63353802922E+03  0.25500000000E-02 0.  1.
     200001    2    1    2    0    0  0.16738381598E+03  0.16573094154E+03 -0.85098121947E+02  0.66225281408E+03  0.61306852191E+03 0.  0.
    5000001    2    3    3    0    0  0.35489224740E+03 -0.17170758256E+02  0.17246293220E+02  0.36344213328E+03  0.74494344812E+02 0.  0.
        -11    1    4    4    0    0  0.29944620398E+02  0.17798539937E+02  0.16853584169E+01  0.34875618244E+02  0.51100000000E-03 0. -1.
     200002    1    4    4    0    0  0.32494762700E+03 -0.34969298193E+02  0.15560934803E+02  0.32856651503E+03  0.30000000000E+02 0. -1.
     200000    1    3    3    0    0 -0.18750843142E+03  0.18290169980E+03 -0.10234441517E+03  0.29881068080E+03  0.10100000000E+03 0.  1.
    -200001    1    1    2    0    0 -0.16738381598E+03 -0.16573094154E+03  0.15502318149E+03  0.67474830391E+03  0.61300000000E+03 0. -1.
<mgrwt>
<rscale>  0 0.13351713E+04</rscale>
<asrwt>0</asrwt>
<pdfrwt beam="1">  1        2 0.90505432E-01 0.13351713E+04</pdfrwt>
<pdfrwt beam="2">  1       -2 0.10049473E+00 0.13351713E+04</pdfrwt>
<totfact> 0.40650353E+01</totfact>
</mgrwt>
</event>
<event>
 8    1  0.7326756E-052  0.1439118E+04  0.7818608E-02  0.8925979E-01
          2   -1    0    0  501    0  0.00000000000E+00  0.00000000000E+00  0.16168896861E+04  0.16168896861E+04  0.25500000000E-02 0.  1.
         -2   -1    0    0    0  501 -0.00000000000E+00 -0.00000000000E+00 -0.32022312073E+03  0.32022312074E+03  0.25500000000E-02 0. -1.
     200001    2    1    2    0    0 -0.23023290710E+03 -0.27909145888E+03  0.50237855643E+03  0.87054744314E+03  0.61202075362E+03 0.  0.
    5000001    2    3    3    0    0 -0.19468355644E+03  0.55368455501E+02  0.36539790988E+02  0.28716596756E+03  0.20040405082E+03 0.  0.
        -11    1    4    4    0    0 -0.15019957970E+03  0.28974213121E+02 -0.67474411470E+02  0.16718915926E+03  0.51100000000E-03 0. -1.
     200002    1    4    4    0    0 -0.44483976739E+02  0.26394242380E+02  0.10401420246E+03  0.11997680830E+03  0.30000000000E+02 0. -1.
     200000    1    3    3    0    0 -0.35549350652E+02 -0.33445991438E+03  0.46583876544E+03  0.58338147558E+03  0.10100000000E+03 0.  1.
    -200001    1    1    2    0    0  0.23023290710E+03  0.27909145888E+03  0.79428800897E+03  0.10665653637E+04  0.61300000000E+03 0.  1.
<mgrwt>
<rscale>  0 0.14391184E+04</rscale>
<asrwt>0</asrwt>
<pdfrwt beam="1">  1        2 0.23098424E+00 0.14391184E+04</pdfrwt>
<pdfrwt beam="2">  1       -2 0.45746160E-01 0.14391184E+04</pdfrwt>
<totfact> 0.55805034E+01</totfact>
</mgrwt>
</event>
<event>
 8    1  0.7326756E-052  0.1521268E+04  0.7818608E-02  0.8870432E-01
         -2   -1    0    0    0  501 -0.00000000000E+00  0.00000000000E+00  0.40684040527E+03  0.40684040528E+03  0.25500000000E-02 0. -1.
          2   -1    0    0  501    0  0.00000000000E+00 -0.00000000000E+00 -0.14220912005E+04  0.14220912005E+04  0.25500000000E-02 0.  1.
     200001    2    1    2    0    0  0.30696826424E+02 -0.17150678234E+03 -0.10076937377E+04  0.11916067431E+04  0.61165602220E+03 0.  0.
    5000001    2    3    3    0    0 -0.14045447151E+03  0.72179347202E+02 -0.54818392350E+02  0.18818852499E+03  0.86443901276E+02 0.  0.
        -11    1    4    4    0    0 -0.84514171463E+02  0.47883364955E+01 -0.42731700803E+02  0.94823897822E+02  0.51100000000E-03 0. -1.
     200002    1    4    4    0    0 -0.55940300051E+02  0.67391010706E+02 -0.12086691548E+02  0.93364627169E+02  0.30000000000E+02 0. -1.
     200000    1    3    3    0    0  0.17115129794E+03 -0.24368612954E+03 -0.95287534537E+03  0.10034182181E+04  0.10100000000E+03 0.  1.
    -200001    1    1    2    0    0 -0.30696826424E+02  0.17150678234E+03 -0.75570575153E+01  0.63732486273E+03  0.61300000000E+03 0. -1.
<mgrwt>
<rscale>  0 0.15212681E+04</rscale>
<asrwt>0</asrwt>
<pdfrwt beam="1">  1        2 0.20315588E+00 0.15212681E+04</pdfrwt>
<pdfrwt beam="2">  1       -2 0.58120059E-01 0.15212681E+04</pdfrwt>
<totfact> 0.43075916E+01</totfact>
</mgrwt>
</event>
<event>
 8    1  0.7326756E-052  0.1545049E+04  0.7818608E-02  0.8855036E-01
         -2   -1    0    0    0  501 -0.00000000000E+00  0.00000000000E+00  0.17333125948E+03  0.17333125950E+03  0.25500000000E-02 0. -1.
          2   -1    0    0  501    0  0.00000000000E+00 -0.00000000000E+00 -0.34430862659E+04  0.34430862659E+04  0.25500000000E-02 0.  1.
     200001    2    1    2    0    0  0.76305367886E+01 -0.14495346904E+03 -0.26811882516E+04  0.27542983004E+04  0.61344841161E+03 0.  0.
    5000001    2    3    3    0    0  0.10836097256E+03 -0.11233511945E+03 -0.25547886639E+04  0.25609374119E+04  0.84226071418E+02 0.  0.
        -11    1    4    4    0    0  0.68155124516E+02 -0.41869643420E+02 -0.16744688697E+04  0.16763782938E+04  0.51100000000E-03 0. -1.
     200002    1    4    4    0    0  0.40205848042E+02 -0.70465476034E+02 -0.88031979413E+03  0.88455911812E+03  0.30000000000E+02 0.  1.
     200000    1    3    3    0    0 -0.10073043577E+03 -0.32618349582E+02 -0.12639958770E+03  0.19336088847E+03  0.10100000000E+03 0. -1.
    -200001    1    1    2    0    0 -0.76305367886E+01  0.14495346904E+03 -0.58856675485E+03  0.86211922504E+03  0.61300000000E+03 0. -1.
<mgrwt>
<rscale>  0 0.15450495E+04</rscale>
<asrwt>0</asrwt>
<pdfrwt beam="1">  1        2 0.49186942E+00 0.15450495E+04</pdfrwt>
<pdfrwt beam="2">  1       -2 0.24761611E-01 0.15450495E+04</pdfrwt>
<totfact> 0.18494661E+01</totfact>
</mgrwt>
</event>
<event>
 8    1  0.7326756E-052  0.1644682E+04  0.7818608E-02  0.8793559E-01
          2   -1    0    0  501    0  0.00000000000E+00  0.00000000000E+00  0.13382320544E+04  0.13382320544E+04  0.25500000000E-02 0.  1.
         -2   -1    0    0    0  501 -0.00000000000E+00 -0.00000000000E+00 -0.50532680694E+03  0.50532680695E+03  0.25500000000E-02 0. -1.
     200001    2    1    2    0    0 -0.17310598608E+03 -0.45286057030E+03  0.70294046894E+03  0.10512784677E+04  0.61319877299E+03 0.  0.
    5000001    2    3    3    0    0 -0.19608921132E+03 -0.66278935272E+02 -0.24380699477E+02  0.22111542875E+03  0.73849429712E+02 0.  0.
        -11    1    4    4    0    0 -0.29146576419E+02 -0.22692866567E+01 -0.27012014668E+02  0.39803536470E+02  0.51100000000E-03 0. -1.
     200002    1    4    4    0    0 -0.16694263490E+03 -0.64009648615E+02  0.26313151909E+01  0.18131189228E+03  0.30000000000E+02 0. -1.
     200000    1    3    3    0    0  0.22983225244E+02 -0.38658163503E+03  0.72732116841E+03  0.83016303893E+03  0.10100000000E+03 0.  1.
    -200001    1    1    2    0    0  0.17310598608E+03  0.45286057030E+03  0.12996477853E+03  0.79228039368E+03  0.61300000000E+03 0. -1.
<mgrwt>
<rscale>  0 0.16446818E+04</rscale>
<asrwt>0</asrwt>
<pdfrwt beam="1">  1        2 0.19117600E+00 0.16446818E+04</pdfrwt>
<pdfrwt beam="2">  1       -2 0.72189545E-01 0.16446818E+04</pdfrwt>
<totfact> 0.29762593E+01</totfact>
</mgrwt>
</event>
<event>
 8    1  0.7326756E-052  0.1744925E+04  0.7818608E-02  0.8736149E-01
          2   -1    0    0  501    0  0.00000000000E+00  0.00000000000E+00  0.51320588620E+03  0.51320588621E+03  0.25500000000E-02 0.  1.
         -2   -1    0    0    0  501 -0.00000000000E+00 -0.00000000000E+00 -0.14832073411E+04  0.14832073411E+04  0.25500000000E-02 0. -1.
     200001    2    1    2    0    0 -0.18390685437E+03  0.41125101859E+03 -0.97379468370E+03  0.12356685132E+04  0.61290411741E+03 0.  0.
    5000001    2    3    3    0    0  0.11862588330E+01 -0.12197971276E+03 -0.64637792485E+02  0.16079097308E+03  0.82433217037E+02 0.  0.
        -11    1    4    4    0    0 -0.57577071952E+00 -0.11478767374E+03 -0.41019332439E+02  0.12189801963E+03  0.51100000000E-03 0. -1.
     200002    1    4    4    0    0  0.17620295525E+01 -0.71920390215E+01 -0.23618460046E+02  0.38892953454E+02  0.30000000000E+02 0.  1.
     200000    1    3    3    0    0 -0.18509311320E+03  0.53323073136E+03 -0.90915689121E+03  0.10748775401E+04  0.10100000000E+03 0. -1.
    -200001    1    1    2    0    0  0.18390685437E+03 -0.41125101859E+03  0.37932288476E+01  0.76074471406E+03  0.61300000000E+03 0.  1.
<mgrwt>
<rscale>  0 0.17449249E+04</rscale>
<asrwt>0</asrwt>
<pdfrwt beam="1">  1        2 0.73315127E-01 0.17449249E+04</pdfrwt>
<pdfrwt beam="2">  1       -2 0.21188676E+00 0.17449249E+04</pdfrwt>
<totfact> 0.68926784E+00</totfact>
</mgrwt>
</event>
<event>
 8    1  0.7326756E-052  0.1378195E+04  0.7818608E-02  0.8969755E-01
          2   -1    0    0  501    0  0.00000000000E+00  0.00000000000E+00  0.15838831609E+04  0.15838831609E+04  0.25500000000E-02 0.  1.
         -2   -1    0    0    0  501 -0.00000000000E+00 -0.00000000000E+00 -0.29980462141E+03  0.29980462142E+03  0.25500000000E-02 0. -1.
     200001    2    1    2    0    0  0.21773635235E+02  0.20512729498E+03  0.32316290834E+03  0.72537903742E+03  0.61578339070E+03 0.  0.
    5000001    2    3    3    0    0  0.15761497849E+03  0.33028367805E+03  0.34820424905E+03  0.51337653861E+03  0.91539510098E+02 0.  0.
        -11    1    4    4    0    0  0.11755680936E+03  0.28189364437E+03  0.30390530760E+03  0.43086200361E+03  0.51100000000E-03 0. -1.
     200002    1    4    4    0    0  0.40058169126E+02  0.48390033681E+02  0.44298941445E+02  0.82514535001E+02  0.30000000000E+02 0. -1.
     200000    1    3    3    0    0 -0.13584134325E+03 -0.12515638307E+03 -0.25041340704E+02  0.21200249881E+03  0.10100000000E+03 0.  1.
    -200001    1    1    2    0    0 -0.21773635235E+02 -0.20512729498E+03  0.96091563116E+03  0.11583087449E+04  0.61300000000E+03 0.  1.
<mgrwt>
<rscale>  0 0.13781952E+04</rscale>
<asrwt>0</asrwt>
<pdfrwt beam="1">  1        2 0.22626902E+00 0.13781952E+04</pdfrwt>
<pdfrwt beam="2">  1       -2 0.42829233E-01 0.13781952E+04</pdfrwt>
<totfact> 0.66514601E+01</totfact>
</mgrwt>
</event>
<event>
 8    1  0.7326756E-052  0.1578981E+04  0.7818608E-02  0.8833566E-01
         -2   -1    0    0    0  501 -0.00000000000E+00  0.00000000000E+00  0.16285030532E+03  0.16285030534E+03  0.25500000000E-02 0. -1.
          2   -1    0    0  501    0  0.00000000000E+00 -0.00000000000E+00 -0.38274119844E+04  0.38274119844E+04  0.25500000000E-02 0.  1.
     200001    2    1    2    0    0 -0.24252322345E+03 -0.30584171640E+03 -0.10382145224E+04  0.12652255823E+04  0.60872794435E+03 0.  0.
    5000001    2    3    3    0    0 -0.32132293664E+03 -0.26970636536E+03 -0.10327238719E+04  0.11320103218E+04  0.19732921710E+03 0.  0.
        -11    1    4    4    0    0 -0.18275688328E+02  0.27153424714E+02 -0.13104803616E+03  0.13507367263E+03  0.51100000000E-03 0. -1.
     200002    1    4    4    0    0 -0.30304724831E+03 -0.29685979008E+03 -0.90167583576E+03  0.99693664918E+03  0.30000000000E+02 0. -1.
     200000    1    3    3    0    0  0.78799713185E+02 -0.36135351040E+02 -0.54906504931E+01  0.13321526052E+03  0.10100000000E+03 0. -1.
    -200001    1    1    2    0    0  0.24252322345E+03  0.30584171640E+03 -0.26263471567E+04  0.27250367074E+04  0.61300000000E+03 0. -1.
<mgrwt>
<rscale>  0 0.15789810E+04</rscale>
<asrwt>0</asrwt>
<pdfrwt beam="1">  1        2 0.54677308E+00 0.15789810E+04</pdfrwt>
<pdfrwt beam="2">  1       -2 0.23264332E-01 0.15789810E+04</pdfrwt>
<totfact> 0.11856467E+01</totfact>
</mgrwt>
</event>
<event>
 8    1  0.7326756E-052  0.1509496E+04  0.7818608E-02  0.8878163E-01
          2   -1    0    0  501    0  0.00000000000E+00  0.00000000000E+00  0.30459476143E+04  0.30459476143E+04  0.25500000000E-02 0.  1.
         -2   -1    0    0    0  501 -0.00000000000E+00 -0.00000000000E+00 -0.18701720613E+03  0.18701720615E+03  0.25500000000E-02 0. -1.
     200001    2    1    2    0    0  0.28863839955E+03 -0.29123646719E+03  0.17689201294E+04  0.19169016710E+04  0.61424977544E+03 0.  0.
    5000001    2    3    3    0    0 -0.94618936507E+02  0.66990459366E+02  0.79633855201E+03  0.80724918432E+03  0.63684310249E+02 0.  0.
        -11    1    4    4    0    0 -0.36850787425E+02  0.24330183987E+01  0.15205080084E+03  0.15647155060E+03  0.51100000000E-03 0. -1.
     200002    1    4    4    0    0 -0.57768149082E+02  0.64557440968E+02  0.64428775117E+03  0.65077763371E+03  0.30000000000E+02 0. -1.
     200000    1    3    3    0    0  0.38325733606E+03 -0.35822692656E+03  0.97258157736E+03  0.11096524867E+04  0.10100000000E+03 0. -1.
    -200001    1    1    2    0    0 -0.28863839955E+03  0.29123646719E+03  0.10900102788E+04  0.13160631495E+04  0.61300000000E+03 0.  1.
<mgrwt>
<rscale>  0 0.15094961E+04</rscale>
<asrwt>0</asrwt>
<pdfrwt beam="1">  1        2 0.43513535E+00 0.15094961E+04</pdfrwt>
<pdfrwt beam="2">  1       -2 0.26716745E-01 0.15094961E+04</pdfrwt>
<totfact> 0.27451600E+01</totfact>
</mgrwt>
</event>
<event>
 8    1  0.7326756E-052  0.1229184E+04  0.7818608E-02  0.9087689E-01
          2   -1    0    0  501    0  0.00000000000E+00  0.00000000000E+00  0.26050298516E+03  0.26050298518E+03  0.25500000000E-02 0.  1.
         -2   -1    0    0    0  501 -0.00000000000E+00 -0.00000000000E+00 -0.14499760635E+04  0.14499760635E+04  0.25500000000E-02 0. -1.
     200001    2    1    2    0    0 -0.92696917566E+01 -0.52428594729E+01 -0.65579322324E+03  0.89764659209E+03  0.61285498927E+03 0.  0.
    5000001    2    3    3    0    0  0.38367944049E+02 -0.37996114291E+02 -0.73952512075E+03  0.75427940370E+03  0.13829031348E+03 0.  0.
        -11    1    4    4    0    0  0.16871278677E+02  0.40551680163E+02 -0.10455121529E+03  0.11340209622E+03  0.51100000000E-03 0. -1.
     200002    1    4    4    0    0  0.21496665372E+02 -0.78547794453E+02 -0.63497390545E+03  0.64087730748E+03  0.30000000000E+02 0. -1.
     200000    1    3    3    0    0 -0.47637635805E+02  0.32753254818E+02  0.83731897502E+02  0.14336718839E+03  0.10100000000E+03 0.  1.
    -200001    1    1    2    0    0  0.92696917566E+01  0.52428594729E+01 -0.53367985510E+03  0.81283245660E+03  0.61300000000E+03 0.  1.
<mgrwt>
<rscale>  0 0.12291836E+04</rscale>
<asrwt>0</asrwt>
<pdfrwt beam="1">  1        2 0.37214713E-01 0.12291836E+04</pdfrwt>
<pdfrwt beam="2">  1       -2 0.20713943E+00 0.12291836E+04</pdfrwt>
<totfact> 0.16448283E+01</totfact>
</mgrwt>
</event>
<event>
 8    1  0.7326756E-052  0.1364432E+04  0.7818608E-02  0.8979975E-01
          2   -1    0    0  501    0  0.00000000000E+00  0.00000000000E+00  0.64598874744E+03  0.64598874744E+03  0.25500000000E-02 0.  1.
         -2   -1    0    0    0  501 -0.00000000000E+00 -0.00000000000E+00 -0.72047456062E+03  0.72047456062E+03  0.25500000000E-02 0. -1.
     200001    2    1    2    0    0 -0.17624484770E+03 -0.23730519628E+03  0.13768277595E+02  0.68021715174E+03  0.61247841230E+03 0.  0.
    5000001    2    3    3    0    0  0.17834056510E+03 -0.17402925980E+03 -0.11340265711E+03  0.28511196861E+03  0.79606102637E+02 0.  0.
        -11    1    4    4    0    0  0.13102354465E+03 -0.14371586999E+03 -0.64806846571E+02  0.20499109225E+03  0.51100000000E-03 0. -1.
     200002    1    4    4    0    0  0.47317020450E+02 -0.30313389810E+02 -0.48595810543E+02  0.80120876358E+02  0.30000000000E+02 0. -1.
     200000    1    3    3    0    0 -0.35458541280E+03 -0.63275936482E+02  0.12717093471E+03  0.39510518314E+03  0.10100000000E+03 0.  1.
    -200001    1    1    2    0    0  0.17624484770E+03  0.23730519628E+03 -0.88254090772E+02  0.68624615632E+03  0.61300000000E+03 0. -1.
<mgrwt>
<rscale>  0 0.13644317E+04</rscale>
<asrwt>0</asrwt>
<pdfrwt beam="1">  1        2 0.92284108E-01 0.13644317E+04</pdfrwt>
<pdfrwt beam="2">  1       -2 0.10292494E+00 0.13644317E+04</pdfrwt>
<totfact> 0.37429871E+01</totfact>
</mgrwt>
</event>
<event>
 8    1  0.7326756E-052  0.1481125E+04  0.7818608E-02  0.8897103E-01
         -2   -1    0    0    0  501 -0.00000000000E+00  0.00000000000E+00  0.91503438383E+03  0.91503438383E+03  0.25500000000E-02 0. -1.
          2   -1    0    0  501    0  0.00000000000E+00 -0.00000000000E+00 -0.59935729845E+03  0.59935729845E+03  0.25500000000E-02 0.  1.
     200001    2    1    2    0    0 -0.33314509179E+03 -0.18198287285E+03 -0.14375138296E+02  0.72141823472E+03  0.61329781232E+03 0.  0.
    5000001    2    3    3    0    0 -0.57771028194E+02  0.33613577441E+02  0.25438590891E+03  0.26892933455E+03  0.56066318242E+02 0.  0.
        -11    1    4    4    0    0 -0.42555671498E+02  0.16261054709E+02  0.17720236796E+03  0.18296471323E+03  0.51100000000E-03 0. -1.
     200002    1    4    4    0    0 -0.15215356697E+02  0.17352522733E+02  0.77183540957E+02  0.85964621324E+02  0.30000000000E+02 0.  1.
     200000    1    3    3    0    0 -0.27537406359E+03 -0.21559645029E+03 -0.26876104721E+03  0.45248890017E+03  0.10100000000E+03 0.  1.
    -200001    1    1    2    0    0  0.33314509179E+03  0.18198287285E+03  0.33005222368E+03  0.79297344757E+03  0.61300000000E+03 0. -1.
<mgrwt>
<rscale>  0 0.14811246E+04</rscale>
<asrwt>0</asrwt>
<pdfrwt beam="1">  1        2 0.85622472E-01 0.14811246E+04</pdfrwt>
<pdfrwt beam="2">  1       -2 0.13071920E+00 0.14811246E+04</pdfrwt>
<totfact> 0.22549164E+01</totfact>
</mgrwt>
</event>
<event>
 8    1  0.7326756E-052  0.1291907E+04  0.7818608E-02  0.9036008E-01
         -2   -1    0    0    0  501 -0.00000000000E+00  0.00000000000E+00  0.12235002897E+03  0.12235002900E+03  0.25500000000E-02 0. -1.
          2   -1    0    0  501    0  0.00000000000E+00 -0.00000000000E+00 -0.34103441113E+04  0.34103441113E+04  0.25500000000E-02 0.  1.
     200001    2    1    2    0    0  0.62986175788E+02  0.18403639055E+03 -0.14516412382E+04  0.15869815666E+04  0.61107410093E+03 0.  0.
    5000001    2    3    3    0    0  0.17682000547E+03  0.13168434243E+03 -0.13639083046E+04  0.14036868712E+04  0.24796146608E+03 0.  0.
        -11    1    4    4    0    0  0.21111062289E+03  0.21159168559E+02 -0.85715092873E+03  0.88301932036E+03  0.51100000000E-03 0. -1.
     200002    1    4    4    0    0 -0.34290617420E+02  0.11052517387E+03 -0.50675737582E+03  0.52066755080E+03  0.30000000000E+02 0. -1.
     200000    1    3    3    0    0 -0.11383382968E+03  0.52352048116E+02 -0.87732933639E+02  0.18329469541E+03  0.10100000000E+03 0. -1.
    -200001    1    1    2    0    0 -0.62986175788E+02 -0.18403639055E+03 -0.18363528442E+04  0.19457125738E+04  0.61300000000E+03 0.  1.
<mgrwt>
<rscale>  0 0.12919067E+04</rscale>
<asrwt>0</asrwt>
<pdfrwt beam="1">  1        2 0.48719195E+00 0.12919067E+04</pdfrwt>
<pdfrwt beam="2">  1       -2 0.17478578E-01 0.12919067E+04</pdfrwt>
<totfact> 0.36708205E+01</totfact>
</mgrwt>
</event>
<event>
 8    1  0.7326756E-052  0.1673463E+04  0.7818608E-02  0.8776646E-01
         -2   -1    0    0    0  501 -0.00000000000E+00  0.00000000000E+00  0.28838322191E+03  0.28838322192E+03  0.25500000000E-02 0. -1.
          2   -1    0    0  501    0  0.00000000000E+00 -0.00000000000E+00 -0.24277414874E+04  0.24277414874E+04  0.25500000000E-02 0.  1.
     200001    2    1    2    0    0  0.84168781035E+01 -0.56040164609E+03 -0.90427907053E+03  0.12277328031E+04  0.61276940974E+03 0.  0.
    5000001    2    3    3    0    0  0.13936819983E+03 -0.43684237924E+03 -0.39999284160E+03  0.68282846120E+03  0.30984782501E+03 0.  0.
        -11    1    4    4    0    0  0.27407039879E+02  0.31098820088E+02 -0.11629984954E+03  0.12346634136E+03  0.51100000000E-03 0. -1.
     200002    1    4    4    0    0  0.11196115995E+03 -0.46794119933E+03 -0.28369299207E+03  0.55936211984E+03  0.30000000000E+02 0. -1.
     200000    1    3    3    0    0 -0.13095132173E+03 -0.12355926685E+03 -0.50428622893E+03  0.54490434186E+03  0.10100000000E+03 0.  1.
    -200001    1    1    2    0    0 -0.84168781035E+01  0.56040164609E+03 -0.12350791949E+04  0.14883919062E+04  0.61300000000E+03 0.  1.
<mgrwt>
<rscale>  0 0.16734634E+04</rscale>
<asrwt>0</asrwt>
<pdfrwt beam="1">  1        2 0.34682020E+00 0.16734634E+04</pdfrwt>
<pdfrwt beam="2">  1       -2 0.41197605E-01 0.16734634E+04</pdfrwt>
<totfact> 0.25679918E+01</totfact>
</mgrwt>
</event>
<event>
 8    1  0.7326756E-052  0.1584429E+04  0.7818608E-02  0.8830171E-01
          2   -1    0    0  501    0  0.00000000000E+00  0.00000000000E+00  0.24506890880E+04  0.24506890880E+04  0.25500000000E-02 0.  1.
         -2   -1    0    0    0  501 -0.00000000000E+00 -0.00000000000E+00 -0.25609272221E+03  0.25609272222E+03  0.25500000000E-02 0. -1.
     200001    2    1    2    0    0  0.36117263936E+03  0.66343156631E+02  0.16808427759E+04  0.18266915643E+04  0.61377727557E+03 0.  0.
    5000001    2    3    3    0    0  0.47873213159E+03  0.60870747051E+01  0.86153241291E+03  0.99067631295E+03  0.99899710952E+02 0.  0.
        -11    1    4    4    0    0  0.17144621837E+03  0.41754552680E+02  0.35398481410E+03  0.39552812425E+03  0.51100000000E-03 0. -1.
     200002    1    4    4    0    0  0.30728591322E+03 -0.35667477975E+02  0.50754759882E+03  0.59514818870E+03  0.30000000000E+02 0. -1.
     200000    1    3    3    0    0 -0.11755949223E+03  0.60256081926E+02  0.81931036295E+03  0.83601525134E+03  0.10100000000E+03 0. -1.
    -200001    1    1    2    0    0 -0.36117263936E+03 -0.66343156631E+02  0.51375358997E+03  0.88009024597E+03  0.61300000000E+03 0. -1.
<mgrwt>
<rscale>  0 0.15844288E+04</rscale>
<asrwt>0</asrwt>
<pdfrwt beam="1">  1        2 0.35009845E+00 0.15844288E+04</pdfrwt>
<pdfrwt beam="2">  1       -2 0.36584674E-01 0.15844288E+04</pdfrwt>
<totfact> 0.31700110E+01</totfact>
</mgrwt>
</event>
<event>
 8    1  0.7326756E-052  0.1260330E+04  0.7818608E-02  0.9061630E-01
          2   -1    0    0  501    0  0.00000000000E+00  0.00000000000E+00  0.14528891766E+04  0.14528891766E+04  0.25500000000E-02 0.  1.
         -2   -1    0    0    0  501 -0.00000000000E+00 -0.00000000000E+00 -0.27332272475E+03  0.27332272477E+03  0.25500000000E-02 0. -1.
     200001    2    1    2    0    0 -0.52459552180E+02  0.37676807129E+01  0.40350908234E+03  0.73585830754E+03  0.61310820351E+03 0.  0.
    5000001    2    3    3    0    0 -0.31675076877E+03 -0.12014544320E+02  0.18618101055E+03  0.37874289681E+03  0.91145018561E+02 0.  0.
        -11    1    4    4    0    0 -0.90232393947E+02  0.26121012203E+02  0.82183060867E+02  0.12481285066E+03  0.51100000000E-03 0. -1.
     200002    1    4    4    0    0 -0.22651837482E+03 -0.38135556522E+02  0.10399794968E+03  0.25393004615E+03  0.30000000000E+02 0. -1.
     200000    1    3    3    0    0  0.26429121659E+03  0.15782225032E+02  0.21732807179E+03  0.35711541073E+03  0.10100000000E+03 0. -1.
    -200001    1    1    2    0    0  0.52459552180E+02 -0.37676807129E+01  0.77605736950E+03  0.99035359381E+03  0.61300000000E+03 0.  1.
<mgrwt>
<rscale>  0 0.12603295E+04</rscale>
<asrwt>0</asrwt>
<pdfrwt beam="1">  1        2 0.20755560E+00 0.12603295E+04</pdfrwt>
<pdfrwt beam="2">  1       -2 0.39046102E-01 0.12603295E+04</pdfrwt>
<totfact> 0.94369040E+01</totfact>
</mgrwt>
</event>
<event>
 8    1  0.7326756E-052  0.2235059E+04  0.7818608E-02  0.8503976E-01
         -2   -1    0    0    0  501 -0.00000000000E+00  0.00000000000E+00  0.47190897951E+03  0.47190897951E+03  0.25500000000E-02 0. -1.
          2   -1    0    0  501    0  0.00000000000E+00 -0.00000000000E+00 -0.26464260901E+04  0.26464260901E+04  0.25500000000E-02 0.  1.
     200001    2    1    2    0    0 -0.80318579919E+02  0.71124016917E+03 -0.25027239041E+03  0.97571975283E+03  0.61406767879E+03 0.  0.
    5000001    2    3    3    0    0  0.17219236226E+03  0.21499689419E+03 -0.17738472929E+03  0.40516495702E+03  0.23836825728E+03 0.  0.
        -11    1    4    4    0    0  0.22224043549E+03  0.13952418405E+03 -0.94867058646E+02  0.27902969003E+03  0.51100000000E-03 0. -1.
     200002    1    4    4    0    0 -0.50048073233E+02  0.75472710141E+02 -0.82517670642E+02  0.12613526699E+03  0.30000000000E+02 0. -1.
     200000    1    3    3    0    0 -0.25251094217E+03  0.49624327498E+03 -0.72887661121E+02  0.57055479581E+03  0.10100000000E+03 0. -1.
    -200001    1    1    2    0    0  0.80318579919E+02 -0.71124016917E+03 -0.19242447201E+04  0.21426153167E+04  0.61300000000E+03 0. -1.
<mgrwt>
<rscale>  0 0.22350590E+04</rscale>
<asrwt>0</asrwt>
<pdfrwt beam="1">  1        2 0.37806086E+00 0.22350590E+04</pdfrwt>
<pdfrwt beam="2">  1       -2 0.67415570E-01 0.22350590E+04</pdfrwt>
<totfact> 0.68049114E+00</totfact>
</mgrwt>
</event>
<event>
 8    1  0.7326756E-052  0.1302656E+04  0.7818608E-02  0.9027462E-01
          2   -1    0    0  501    0  0.00000000000E+00  0.00000000000E+00  0.42583399503E+03  0.42583399504E+03  0.25500000000E-02 0.  1.
         -2   -1    0    0    0  501 -0.00000000000E+00 -0.00000000000E+00 -0.99622833730E+03  0.99622833730E+03  0.25500000000E-02 0. -1.
     200001    2    1    2    0    0 -0.19302849973E+03 -0.98305990805E+02 -0.32567835492E+03  0.72738328127E+03  0.61326664467E+03 0.  0.
    5000001    2    3    3    0    0  0.71910917816E+02 -0.28935788304E+03 -0.14116810688E+03  0.33887491311E+03  0.77515209834E+02 0.  0.
        -11    1    4    4    0    0  0.21277010238E+02 -0.18394134225E+02 -0.91598941232E+00  0.28140617893E+02  0.51100000000E-03 0. -1.
     200002    1    4    4    0    0  0.50633907578E+02 -0.27096374882E+03 -0.14025211747E+03  0.31073429522E+03  0.30000000000E+02 0. -1.
     200000    1    3    3    0    0 -0.26493941754E+03  0.19105189224E+03 -0.18451024804E+03  0.38850836816E+03  0.10100000000E+03 0. -1.
    -200001    1    1    2    0    0  0.19302849973E+03  0.98305990805E+02 -0.24471598735E+03  0.69467905107E+03  0.61300000000E+03 0.  1.
<mgrwt>
<rscale>  0 0.13026556E+04</rscale>
<asrwt>0</asrwt>
<pdfrwt beam="1">  1        2 0.60833429E-01 0.13026556E+04</pdfrwt>
<pdfrwt beam="2">  1       -2 0.14231833E+00 0.13026556E+04</pdfrwt>
<totfact> 0.27196303E+01</totfact>
</mgrwt>
</event>
<event>
 8    1  0.7326756E-052  0.1469758E+04  0.7818608E-02  0.8904816E-01
          2   -1    0    0  501    0  0.00000000000E+00  0.00000000000E+00  0.22698803365E+04  0.22698803365E+04  0.25500000000E-02 0.  1.
         -2   -1    0    0    0  501 -0.00000000000E+00 -0.00000000000E+00 -0.23791880542E+03  0.23791880544E+03  0.25500000000E-02 0. -1.
     200001    2    1    2    0    0  0.33500855257E+03  0.17608478934E+03  0.12689170857E+04  0.14583981657E+04  0.61117759773E+03 0.  0.
    5000001    2    3    3    0    0  0.36703262766E+03  0.25305242172E+03  0.11962570609E+04  0.13086315572E+04  0.28764060701E+03 0.  0.
        -11    1    4    4    0    0  0.38755394144E+03  0.18775925264E+03  0.11280519307E+04  0.12074571432E+04  0.51100000000E-03 0. -1.
     200002    1    4    4    0    0 -0.20521313786E+02  0.65293169082E+02  0.68205130265E+02  0.10117441397E+03  0.30000000000E+02 0. -1.
     200000    1    3    3    0    0 -0.32024075091E+02 -0.76967632386E+02  0.72660024821E+02  0.14976660852E+03  0.10100000000E+03 0. -1.
    -200001    1    1    2    0    0 -0.33500855257E+03 -0.17608478934E+03  0.76304444535E+03  0.10494009762E+04  0.61300000000E+03 0. -1.
<mgrwt>
<rscale>  0 0.14697581E+04</rscale>
<asrwt>0</asrwt>
<pdfrwt beam="1">  1        2 0.32426862E+00 0.14697581E+04</pdfrwt>
<pdfrwt beam="2">  1       -2 0.33988400E-01 0.14697581E+04</pdfrwt>
<totfact> 0.45740089E+01</totfact>
</mgrwt>
</event>
<event>
 8    1  0.7326756E-052  0.3088773E+04  0.7818608E-02  0.8218826E-01
          2   -1    0    0  501    0  0.00000000000E+00  0.00000000000E+00  0.26181523114E+04  0.26181523114E+04  0.25500000000E-02 0.  1.
         -2   -1    0    0    0  501 -0.00000000000E+00 -0.00000000000E+00 -0.91099752275E+03  0.91099752275E+03  0.25500000000E-02 0. -1.
     200001    2    1    2    0    0  0.45535451843E+03  0.21587812147E+03 -0.66023081454E+03  0.10323048860E+04  0.61302328541E+03 0.  0.
    5000001    2    3    3    0    0  0.52167700643E+03  0.19035939102E+03 -0.38575689432E+03  0.73132845688E+03  0.27865630001E+03 0.  0.
        -11    1    4    4    0    0  0.16792592202E+03  0.39484522155E+02  0.17364109963E+02  0.17337720464E+03  0.51100000000E-03 0. -1.
     200002    1    4    4    0    0  0.35375108442E+03  0.15087486887E+03 -0.40312100428E+03  0.55795125224E+03  0.30000000000E+02 0. -1.
     200000    1    3    3    0    0 -0.66322488002E+02  0.25518730447E+02 -0.27447392023E+03  0.30097642915E+03  0.10100000000E+03 0. -1.
    -200001    1    1    2    0    0 -0.45535451843E+03 -0.21587812147E+03  0.23673856032E+04  0.24968449482E+04  0.61300000000E+03 0.  1.
<mgrwt>
<rscale>  0 0.30887734E+04</rscale>
<asrwt>0</asrwt>
<pdfrwt beam="1">  1        2 0.37402177E+00 0.30887734E+04</pdfrwt>
<pdfrwt beam="2">  1       -2 0.13014250E+00 0.30887734E+04</pdfrwt>
<totfact> 0.14149578E+00</totfact>
</mgrwt>
</event>
<event>
 8    1  0.7326756E-052  0.1895834E+04  0.7818608E-02  0.8656933E-01
         -2   -1    0    0    0  501 -0.00000000000E+00  0.00000000000E+00  0.45437637472E+03  0.45437637473E+03  0.25500000000E-02 0. -1.
          2   -1    0    0  501    0  0.00000000000E+00 -0.00000000000E+00 -0.19775374163E+04  0.19775374163E+04  0.25500000000E-02 0.  1.
     200001    2    1    2    0    0  0.71973255087E+03  0.52311807268E+02 -0.70291516965E+03  0.11791872605E+04  0.61289590438E+03 0.  0.
    5000001    2    3    3    0    0  0.26924937669E+03  0.30014800811E+03 -0.26567076182E+03  0.49673466517E+03  0.11653463125E+03 0.  0.
        -11    1    4    4    0    0  0.10760825831E+03  0.49719989582E+02 -0.95370232910E+02  0.15214169693E+03  0.51100000000E-03 0. -1.
     200002    1    4    4    0    0  0.16164111838E+03  0.25042801853E+03 -0.17030052891E+03  0.34459296824E+03  0.30000000000E+02 0. -1.
     200000    1    3    3    0    0  0.45048317418E+03 -0.24783620084E+03 -0.43724440783E+03  0.68245259531E+03  0.10100000000E+03 0.  1.
    -200001    1    1    2    0    0 -0.71973255087E+03 -0.52311807268E+02 -0.82024587197E+03  0.12527265306E+04  0.61300000000E+03 0.  1.
<mgrwt>
<rscale>  0 0.18958336E+04</rscale>
<asrwt>0</asrwt>
<pdfrwt beam="1">  1        2 0.28250534E+00 0.18958336E+04</pdfrwt>
<pdfrwt beam="2">  1       -2 0.64910911E-01 0.18958336E+04</pdfrwt>
<totfact> 0.16957562E+01</totfact>
</mgrwt>
</event>
<event>
 8    1  0.7326756E-052  0.1512004E+04  0.7818608E-02  0.8876510E-01
          2   -1    0    0  501    0  0.00000000000E+00  0.00000000000E+00  0.21043526458E+03  0.21043526460E+03  0.25500000000E-02 0.  1.
         -2   -1    0    0    0  501 -0.00000000000E+00 -0.00000000000E+00 -0.27159832889E+04  0.27159832889E+04  0.25500000000E-02 0. -1.
     200001    2    1    2    0    0 -0.18814204195E+03 -0.19307583329E+03 -0.19330616062E+04  0.20454047033E+04  0.61178224998E+03 0.  0.
    5000001    2    3    3    0    0 -0.39493792376E+03 -0.74753503342E+02 -0.12268049943E+04  0.12932317761E+04  0.76379858496E+02 0.  0.
        -11    1    4    4    0    0 -0.24495227476E+02 -0.10268051609E+02 -0.40778158963E+02  0.48665257644E+02  0.51100000000E-03 0. -1.
     200002    1    4    4    0    0 -0.37044269629E+03 -0.64485451733E+02 -0.11860268353E+04  0.12445665184E+04  0.30000000000E+02 0. -1.
     200000    1    3    3    0    0  0.20679588181E+03 -0.11832232995E+03 -0.70625661195E+03  0.75217292721E+03  0.10100000000E+03 0.  1.
    -200001    1    1    2    0    0  0.18814204195E+03  0.19307583329E+03 -0.57248641806E+03  0.88101385018E+03  0.61300000000E+03 0.  1.
<mgrwt>
<rscale>  0 0.15120035E+04</rscale>
<asrwt>0</asrwt>
<pdfrwt beam="1">  1        2 0.30062182E-01 0.15120035E+04</pdfrwt>
<pdfrwt beam="2">  1       -2 0.38799759E+00 0.15120035E+04</pdfrwt>
<totfact> 0.15408192E+00</totfact>
</mgrwt>
</event>
<event>
 8    1  0.7326756E-052  0.1820512E+04  0.7818608E-02  0.8695467E-01
         -2   -1    0    0    0  501 -0.00000000000E+00  0.00000000000E+00  0.43317972618E+03  0.43317972619E+03  0.25500000000E-02 0. -1.
          2   -1    0    0  501    0  0.00000000000E+00 -0.00000000000E+00 -0.19127526129E+04  0.19127526129E+04  0.25500000000E-02 0.  1.
     200001    2    1    2    0    0  0.49407339345E+03 -0.16058090205E+03 -0.12902600418E+04  0.15204003304E+04  0.61396371630E+03 0.  0.
    5000001    2    3    3    0    0  0.22086719646E+03 -0.29955556388E+02 -0.39740420989E+03  0.57219299885E+03  0.34611424134E+03 0.  0.
        -11    1    4    4    0    0  0.53479894928E+00  0.37533482122E+02 -0.32733101680E+03  0.32947631607E+03  0.51100000000E-03 0. -1.
     200002    1    4    4    0    0  0.22033239751E+03 -0.67489038509E+02 -0.70073193094E+02  0.24271668278E+03  0.30000000000E+02 0. -1.
     200000    1    3    3    0    0  0.27320619700E+03 -0.13062534566E+03 -0.89285583188E+03  0.94820733151E+03  0.10100000000E+03 0.  1.
    -200001    1    1    2    0    0 -0.49407339345E+03  0.16058090205E+03 -0.18931284497E+03  0.82553200876E+03  0.61300000000E+03 0. -1.
<mgrwt>
<rscale>  0 0.18205116E+04</rscale>
<asrwt>0</asrwt>
<pdfrwt beam="1">  1        2 0.27325037E+00 0.18205116E+04</pdfrwt>
<pdfrwt beam="2">  1       -2 0.61882819E-01 0.18205116E+04</pdfrwt>
<totfact> 0.20402065E+01</totfact>
</mgrwt>
</event>
<event>
 8    1  0.7326756E-052  0.1307092E+04  0.7818608E-02  0.9023960E-01
         -2   -1    0    0    0  501 -0.00000000000E+00  0.00000000000E+00  0.17710393381E+03  0.17710393383E+03  0.25500000000E-02 0. -1.
          2   -1    0    0  501    0  0.00000000000E+00 -0.00000000000E+00 -0.24117062670E+04  0.24117062670E+04  0.25500000000E-02 0.  1.
     200001    2    1    2    0    0  0.10083242813E+03  0.22296858964E+02 -0.15186713350E+04  0.16406590933E+04  0.61215627769E+03 0.  0.
    5000001    2    3    3    0    0  0.14693946934E+01  0.94508482243E+02 -0.21463171804E+02  0.13502938624E+03  0.94011994280E+02 0.  0.
        -11    1    4    4    0    0  0.79832926525E+01 -0.14958893541E+02 -0.12344977596E+02  0.20973791495E+02  0.51100000000E-03 0. -1.
     200002    1    4    4    0    0 -0.65138979592E+01  0.10946737578E+03 -0.91181942075E+01  0.11405559475E+03  0.30000000000E+02 0. -1.
     200000    1    3    3    0    0  0.99363033441E+02 -0.72211623279E+02 -0.14972081632E+04  0.15056297071E+04  0.10100000000E+03 0.  1.
    -200001    1    1    2    0    0 -0.10083242813E+03 -0.22296858964E+02 -0.71593099825E+03  0.94815110755E+03  0.61300000000E+03 0. -1.
<mgrwt>
<rscale>  0 0.13070924E+04</rscale>
<asrwt>0</asrwt>
<pdfrwt beam="1">  1        2 0.34452945E+00 0.13070924E+04</pdfrwt>
<pdfrwt beam="2">  1       -2 0.25300563E-01 0.13070924E+04</pdfrwt>
<totfact> 0.67673609E+01</totfact>
</mgrwt>
</event>
<event>
 8    1  0.7326756E-052  0.1520777E+04  0.7818608E-02  0.8870753E-01
         -2   -1    0    0    0  501 -0.00000000000E+00  0.00000000000E+00  0.11286404937E+03  0.11286404940E+03  0.25500000000E-02 0. -1.
          2   -1    0    0  501    0  0.00000000000E+00 -0.00000000000E+00 -0.51228937722E+04  0.51228937722E+04  0.25500000000E-02 0.  1.
     200001    2    1    2    0    0  0.15087402346E+03  0.42273305980E+03 -0.24970722371E+04  0.26104596412E+04  0.61454338364E+03 0.  0.
    5000001    2    3    3    0    0 -0.66372131429E+02  0.14543825232E+03 -0.19011340789E+04  0.19108657658E+04  0.10742273541E+03 0.  0.
        -11    1    4    4    0    0 -0.17714903162E+02 -0.13288957195E+02 -0.15035087152E+03  0.15197301979E+03  0.51100000000E-03 0. -1.
     200002    1    4    4    0    0 -0.48657228267E+02  0.15872720951E+03 -0.17507832073E+04  0.17588927460E+04  0.30000000000E+02 0. -1.
     200000    1    3    3    0    0  0.21724615489E+03  0.27729480748E+03 -0.59593815825E+03  0.69959387542E+03  0.10100000000E+03 0. -1.
    -200001    1    1    2    0    0 -0.15087402346E+03 -0.42273305980E+03 -0.25129574857E+04  0.26252981804E+04  0.61300000000E+03 0.  1.
<mgrwt>
<rscale>  0 0.15207768E+04</rscale>
<asrwt>0</asrwt>
<pdfrwt beam="1">  1        2 0.73184182E+00 0.15207768E+04</pdfrwt>
<pdfrwt beam="2">  1       -2 0.16123439E-01 0.15207768E+04</pdfrwt>
<totfact> 0.20820073E+00</totfact>
</mgrwt>
</event>
<event>
 8    1  0.7326756E-052  0.1256463E+04  0.7818608E-02  0.9064821E-01
          2   -1    0    0  501    0  0.00000000000E+00  0.00000000000E+00  0.49864543368E+03  0.49864543369E+03  0.25500000000E-02 0.  1.
         -2   -1    0    0    0  501 -0.00000000000E+00 -0.00000000000E+00 -0.79149397491E+03  0.79149397492E+03  0.25500000000E-02 0. -1.
     200001    2    1    2    0    0 -0.41059276432E+02 -0.10622138084E+03 -0.20267748666E+03  0.66016427813E+03  0.61787528240E+03 0.  0.
    5000001    2    3    3    0    0 -0.36115918462E+02  0.90564015534E+02 -0.36572135854E+03  0.38533117756E+03  0.72262049688E+02 0.  0.
        -11    1    4    4    0    0 -0.39709378806E+02  0.73567082772E+02 -0.29425754142E+03  0.30590268243E+03  0.51100000000E-03 0. -1.
     200002    1    4    4    0    0  0.35934603441E+01  0.16996932762E+02 -0.71463817122E+02  0.79428495127E+02  0.30000000000E+02 0. -1.
     200000    1    3    3    0    0 -0.49433579703E+01 -0.19678539638E+03  0.16304387188E+03  0.27483310058E+03  0.10100000000E+03 0.  1.
    -200001    1    1    2    0    0  0.41059276432E+02  0.10622138084E+03 -0.90171054571E+02  0.62997513047E+03  0.61300000000E+03 0.  1.
<mgrwt>
<rscale>  0 0.12564631E+04</rscale>
<asrwt>0</asrwt>
<pdfrwt beam="1">  1        2 0.71235062E-01 0.12564631E+04</pdfrwt>
<pdfrwt beam="2">  1       -2 0.11307057E+00 0.12564631E+04</pdfrwt>
<totfact> 0.40734204E+01</totfact>
</mgrwt>
</event>
<event>
 8    1  0.7326756E-052  0.1855371E+04  0.7818608E-02  0.8677396E-01
          2   -1    0    0  501    0  0.00000000000E+00  0.00000000000E+00  0.19638627783E+04  0.19638627783E+04  0.25500000000E-02 0.  1.
         -2   -1    0    0    0  501 -0.00000000000E+00 -0.00000000000E+00 -0.43821813037E+03  0.43821813038E+03  0.25500000000E-02 0. -1.
     200001    2    1    2    0    0 -0.94383805071E+02  0.67369925626E+03  0.95867078115E+03  0.13250445322E+04  0.61148536798E+03 0.  0.
    5000001    2    3    3    0    0  0.10307979279E+03  0.50133765696E+03  0.45087625631E+03  0.74473713711E+03  0.29896340064E+03 0.  0.
        -11    1    4    4    0    0  0.12503384161E+03  0.50242751099E+03  0.31995574126E+03  0.60863662535E+03  0.51100000000E-03 0. -1.
     200002    1    4    4    0    0 -0.21954048823E+02 -0.10898540327E+01  0.13092051505E+03  0.13610051176E+03  0.30000000000E+02 0. -1.
     200000    1    3    3    0    0 -0.19746359786E+03  0.17236159930E+03  0.50779452484E+03  0.58030739514E+03  0.10100000000E+03 0.  1.
    -200001    1    1    2    0    0  0.94383805071E+02 -0.67369925626E+03  0.56697386676E+03  0.10770363764E+04  0.61300000000E+03 0.  1.
<mgrwt>
<rscale>  0 0.18553709E+04</rscale>
<asrwt>0</asrwt>
<pdfrwt beam="1">  1        2 0.28055183E+00 0.18553709E+04</pdfrwt>
<pdfrwt beam="2">  1       -2 0.62602589E-01 0.18553709E+04</pdfrwt>
<totfact> 0.18683029E+01</totfact>
</mgrwt>
</event>
<event>
 8    1  0.7326756E-052  0.1851127E+04  0.7818608E-02  0.8679573E-01
         -2   -1    0    0    0  501 -0.00000000000E+00  0.00000000000E+00  0.23572631752E+03  0.23572631753E+03  0.25500000000E-02 0. -1.
          2   -1    0    0  501    0  0.00000000000E+00 -0.00000000000E+00 -0.36341638486E+04  0.36341638486E+04  0.25500000000E-02 0.  1.
     200001    2    1    2    0    0 -0.59612415599E+03  0.96403388831E+02 -0.98793819900E+03  0.13104109901E+04  0.61359388451E+03 0.  0.
    5000001    2    3    3    0    0 -0.62676878938E+03 -0.24234926786E+02 -0.53029326100E+03  0.82550627156E+03  0.82602752408E+02 0.  0.
        -11    1    4    4    0    0 -0.91648848571E+02  0.21282007047E+02 -0.65752160881E+02  0.11478580892E+03  0.51100000000E-03 0. -1.
     200002    1    4    4    0    0 -0.53511994081E+03 -0.45516933833E+02 -0.46454110012E+03  0.71072046264E+03  0.30000000000E+02 0. -1.
     200000    1    3    3    0    0  0.30644633391E+02  0.12063831562E+03 -0.45764493800E+03  0.48490471850E+03  0.10100000000E+03 0.  1.
    -200001    1    1    2    0    0  0.59612415599E+03 -0.96403388831E+02 -0.24104993321E+04  0.25594791761E+04  0.61300000000E+03 0.  1.
<mgrwt>
<rscale>  0 0.18511273E+04</rscale>
<asrwt>0</asrwt>
<pdfrwt beam="1">  1        2 0.51916623E+00 0.18511273E+04</pdfrwt>
<pdfrwt beam="2">  1       -2 0.33675190E-01 0.18511273E+04</pdfrwt>
<totfact> 0.77585878E+00</totfact>
</mgrwt>
</event>
<event>
 8    1  0.7326756E-052  0.1387380E+04  0.7818608E-02  0.8963005E-01
          2   -1    0    0  501    0  0.00000000000E+00  0.00000000000E+00  0.19339625182E+04  0.19339625182E+04  0.25500000000E-02 0.  1.
         -2   -1    0    0    0  501 -0.00000000000E+00 -0.00000000000E+00 -0.24881845594E+03  0.24881845595E+03  0.25500000000E-02 0. -1.
     200001    2    1    2    0    0  0.23544694702E+02  0.28850567307E+03  0.61387111213E+03  0.91503312474E+03  0.61372469481E+03 0.  0.
    5000001    2    3    3    0    0  0.62543422667E+02 -0.13122825921E+03  0.21151057577E+02  0.18072015484E+03  0.10526096806E+03 0.  0.
        -11    1    4    4    0    0  0.15090842165E+01  0.51839794844E+00  0.32018164390E+02  0.32057899538E+02  0.51100000000E-03 0. -1.
     200002    1    4    4    0    0  0.61034338450E+02 -0.13174665716E+03 -0.10867106813E+02  0.14866225530E+03  0.30000000000E+02 0. -1.
     200000    1    3    3    0    0 -0.38998727964E+02  0.41973393228E+03  0.59272005455E+03  0.73431296989E+03  0.10100000000E+03 0.  1.
    -200001    1    1    2    0    0 -0.23544694702E+02 -0.28850567307E+03  0.10712729502E+04  0.12677478495E+04  0.61300000000E+03 0.  1.
<mgrwt>
<rscale>  0 0.13873796E+04</rscale>
<asrwt>0</asrwt>
<pdfrwt beam="1">  1        2 0.27628035E+00 0.13873796E+04</pdfrwt>
<pdfrwt beam="2">  1       -2 0.35545494E-01 0.13873796E+04</pdfrwt>
<totfact> 0.62919608E+01</totfact>
</mgrwt>
</event>
<event>
 8    1  0.7326756E-052  0.1384974E+04  0.7818608E-02  0.8964768E-01
          2   -1    0    0  501    0  0.00000000000E+00  0.00000000000E+00  0.27841738379E+04  0.27841738379E+04  0.25500000000E-02 0.  1.
         -2   -1    0    0    0  501 -0.00000000000E+00 -0.00000000000E+00 -0.17223716049E+03  0.17223716051E+03  0.25500000000E-02 0. -1.
     200001    2    1    2    0    0 -0.32939030380E+01  0.26695761016E+03  0.92300624429E+03  0.11399495418E+04  0.61340624012E+03 0.  0.
    5000001    2    3    3    0    0 -0.15429599283E+03  0.21562792172E+03  0.10474845646E+03  0.30019768834E+03  0.94041261821E+02 0.  0.
        -11    1    4    4    0    0  0.12937307053E+01  0.54861049675E+02  0.29193409859E+02  0.62158375864E+02  0.51100000000E-03 0. -1.
     200002    1    4    4    0    0 -0.15558972353E+03  0.16076687204E+03  0.75555046598E+02  0.23803931247E+03  0.30000000000E+02 0. -1.
     200000    1    3    3    0    0  0.15100208979E+03  0.51329688440E+02  0.81825778783E+03  0.83975185346E+03  0.10100000000E+03 0.  1.
    -200001    1    1    2    0    0  0.32939030380E+01 -0.26695761016E+03  0.16889304331E+04  0.18164614566E+04  0.61300000000E+03 0.  1.
<mgrwt>
<rscale>  0 0.13849739E+04</rscale>
<asrwt>0</asrwt>
<pdfrwt beam="1">  1        2 0.39773910E+00 0.13849739E+04</pdfrwt>
<pdfrwt beam="2">  1       -2 0.24605310E-01 0.13849739E+04</pdfrwt>
<totfact> 0.44908810E+01</totfact>
</mgrwt>
</event>
<event>
 8    1  0.7326756E-052  0.1747621E+04  0.7818608E-02  0.8734661E-01
         -2   -1    0    0    0  501 -0.00000000000E+00  0.00000000000E+00  0.10690012485E+04  0.10690012485E+04  0.25500000000E-02 0. -1.
          2   -1    0    0  501    0  0.00000000000E+00 -0.00000000000E+00 -0.71425974534E+03  0.71425974535E+03  0.25500000000E-02 0.  1.
     200001    2    1    2    0    0  0.38183340605E+03  0.45815973333E+03  0.36027791434E+03  0.92797931914E+03  0.61289342464E+03 0.  0.
    5000001    2    3    3    0    0  0.20978021378E+03 -0.51184125974E+02  0.29887275882E+03  0.37752036417E+03  0.81050271784E+02 0.  0.
        -11    1    4    4    0    0  0.12179695970E+03 -0.59312773215E+02  0.15300624314E+03  0.20436099163E+03  0.51100000000E-03 0. -1.
     200002    1    4    4    0    0  0.87983254079E+02  0.81286472407E+01  0.14586651568E+03  0.17315937254E+03  0.30000000000E+02 0. -1.
     200000    1    3    3    0    0  0.17205319227E+03  0.50934385930E+03  0.61405155524E+02  0.55045895496E+03  0.10100000000E+03 0.  1.
    -200001    1    1    2    0    0 -0.38183340605E+03 -0.45815973333E+03 -0.55364112067E+01  0.85528167469E+03  0.61300000000E+03 0.  1.
<mgrwt>
<rscale>  0 0.17476207E+04</rscale>
<asrwt>0</asrwt>
<pdfrwt beam="1">  1        2 0.10203711E+00 0.17476207E+04</pdfrwt>
<pdfrwt beam="2">  1       -2 0.15271446E+00 0.17476207E+04</pdfrwt>
<totfact> 0.11914926E+01</totfact>
</mgrwt>
</event>
<event>
 8    1  0.7326756E-052  0.2428863E+04  0.7818608E-02  0.8428776E-01
         -2   -1    0    0    0  501 -0.00000000000E+00  0.00000000000E+00  0.10830872839E+04  0.10830872839E+04  0.25500000000E-02 0.  1.
          2   -1    0    0  501    0  0.00000000000E+00 -0.00000000000E+00 -0.13617041031E+04  0.13617041031E+04  0.25500000000E-02 0. -1.
     200001    2    1    2    0    0 -0.86565093526E+03  0.52251350434E+03 -0.41748790051E+03  0.12542343405E+04  0.61354358424E+03 0.  0.
    5000001    2    3    3    0    0 -0.19382485415E+03 -0.13883139706E+02 -0.32165863878E+03  0.38334060961E+03  0.75663250155E+02 0.  0.
        -11    1    4    4    0    0 -0.20194386929E+02  0.17773003168E+02 -0.65636133654E+02  0.70935146058E+02  0.51100000000E-03 0. -1.
     200002    1    4    4    0    0 -0.17363046722E+03 -0.31656142874E+02 -0.25602250513E+03  0.31240546356E+03  0.30000000000E+02 0. -1.
     200000    1    3    3    0    0 -0.67182608112E+03  0.53639664405E+03 -0.95829261735E+02  0.87089373084E+03  0.10100000000E+03 0. -1.
    -200001    1    1    2    0    0  0.86565093526E+03 -0.52251350434E+03  0.13887108130E+03  0.11905570466E+04  0.61300000000E+03 0.  1.
<mgrwt>
<rscale>  0 0.24288634E+04</rscale>
<asrwt>0</asrwt>
<pdfrwt beam="1">  1        2 0.19452916E+00 0.24288634E+04</pdfrwt>
<pdfrwt beam="2">  1       -2 0.15472676E+00 0.24288634E+04</pdfrwt>
<totfact> 0.43204340E+00</totfact>
</mgrwt>
</event>
<event>
 8    1  0.7326756E-052  0.2573902E+04  0.7818608E-02  0.8377120E-01
         -2   -1    0    0    0  501 -0.00000000000E+00  0.00000000000E+00  0.15452235298E+04  0.15452235298E+04  0.25500000000E-02 0. -1.
          2   -1    0    0  501    0  0.00000000000E+00 -0.00000000000E+00 -0.10718468607E+04  0.10718468607E+04  0.25500000000E-02 0.  1.
     200001    2    1    2    0    0 -0.89999497861E+03 -0.55176762998E+02 -0.45889645442E+03  0.11825190273E+04  0.61215182538E+03 0.  0.
    5000001    2    3    3    0    0 -0.34605243188E+03 -0.34704584419E+01 -0.48971277027E+03  0.61623594230E+03  0.14199932931E+03 0.  0.
        -11    1    4    4    0    0 -0.32961369161E+03  0.23356726803E+02 -0.42690828536E+03  0.53985313419E+03  0.51100000000E-03 0. -1.
     200002    1    4    4    0    0 -0.16438740262E+02 -0.26827185245E+02 -0.62804484914E+02  0.76382808110E+02  0.30000000000E+02 0. -1.
     200000    1    3    3    0    0 -0.55394254674E+03 -0.51706304556E+02  0.30816315857E+02  0.56628308498E+03  0.10100000000E+03 0. -1.
    -200001    1    1    2    0    0  0.89999497861E+03  0.55176762998E+02  0.93227312359E+03  0.14345513632E+04  0.61300000000E+03 0. -1.
<mgrwt>
<rscale>  0 0.25739021E+04</rscale>
<asrwt>0</asrwt>
<pdfrwt beam="1">  1        2 0.15312098E+00 0.25739021E+04</pdfrwt>
<pdfrwt beam="2">  1       -2 0.22074622E+00 0.25739021E+04</pdfrwt>
<totfact> 0.22129267E+00</totfact>
</mgrwt>
</event>
<event>
 8    1  0.7326756E-052  0.1259931E+04  0.7818608E-02  0.9061958E-01
          2   -1    0    0  501    0  0.00000000000E+00  0.00000000000E+00  0.94244905096E+03  0.94244905097E+03  0.25500000000E-02 0.  1.
         -2   -1    0    0    0  501 -0.00000000000E+00 -0.00000000000E+00 -0.42109090305E+03  0.42109090306E+03  0.25500000000E-02 0. -1.
     200001    2    1    2    0    0  0.54448725297E+02  0.12978984693E+03  0.29941757328E+03  0.69657917053E+03  0.61299395558E+03 0.  0.
    5000001    2    3    3    0    0 -0.82007613069E+02 -0.20255484933E+03  0.32700771285E+02  0.23787209420E+03  0.88091300179E+02 0.  0.
        -11    1    4    4    0    0 -0.35296823634E+02 -0.12298315419E+03 -0.16635975600E+02  0.12902510476E+03  0.51100000000E-03 0. -1.
     200002    1    4    4    0    0 -0.46710789434E+02 -0.79571695138E+02  0.49336746885E+02  0.10884698944E+03  0.30000000000E+02 0. -1.
     200000    1    3    3    0    0  0.13645633837E+03  0.33234469626E+03  0.26671680200E+03  0.45870707633E+03  0.10100000000E+03 0. -1.
    -200001    1    1    2    0    0 -0.54448725297E+02 -0.12978984693E+03  0.22194057463E+03  0.66696078349E+03  0.61300000000E+03 0. -1.
<mgrwt>
<rscale>  0 0.12599313E+04</rscale>
<asrwt>0</asrwt>
<pdfrwt beam="1">  1        2 0.13463558E+00 0.12599313E+04</pdfrwt>
<pdfrwt beam="2">  1       -2 0.60155844E-01 0.12599313E+04</pdfrwt>
<totfact> 0.77345138E+01</totfact>
</mgrwt>
</event>
<event>
 8    1  0.7326756E-052  0.1968691E+04  0.7818608E-02  0.8621400E-01
          2   -1    0    0  501    0  0.00000000000E+00  0.00000000000E+00  0.10501230664E+04  0.10501230664E+04  0.25500000000E-02 0. -1.
         -2   -1    0    0    0  501 -0.00000000000E+00 -0.00000000000E+00 -0.92268793661E+03  0.92268793661E+03  0.25500000000E-02 0.  1.
     200001    2    1    2    0    0  0.28642762898E+03  0.42701794644E+03 -0.51077630819E+03  0.94935218470E+03  0.61318188196E+03 0.  0.
    5000001    2    3    3    0    0  0.32217902781E+03  0.10518735989E+03 -0.70920543220E+02  0.39389995189E+03  0.18778642658E+03 0.  0.
        -11    1    4    4    0    0  0.32214663026E+03  0.55975254646E+02 -0.42775422559E+02  0.32975963563E+03  0.51100000000E-03 0. -1.
     200002    1    4    4    0    0  0.32397555062E-01  0.49212105247E+02 -0.28145120661E+02  0.64140316257E+02  0.30000000000E+02 0. -1.
     200000    1    3    3    0    0 -0.35751398830E+02  0.32183058655E+03 -0.43985576497E+03  0.55545223281E+03  0.10100000000E+03 0.  1.
    -200001    1    1    2    0    0 -0.28642762898E+03 -0.42701794644E+03  0.63821143801E+03  0.10234588183E+04  0.61300000000E+03 0. -1.
<mgrwt>
<rscale>  0 0.19686908E+04</rscale>
<asrwt>0</asrwt>
<pdfrwt beam="1">  1        2 0.15001758E+00 0.19686908E+04</pdfrwt>
<pdfrwt beam="2">  1       -2 0.13181256E+00 0.19686908E+04</pdfrwt>
<totfact> 0.10259617E+01</totfact>
</mgrwt>
</event>
<event>
 8    1  0.7326756E-052  0.1382058E+04  0.7818608E-02  0.8966909E-01
         -2   -1    0    0    0  501 -0.00000000000E+00  0.00000000000E+00  0.12782372212E+03  0.12782372214E+03  0.25500000000E-02 0. -1.
          2   -1    0    0  501    0  0.00000000000E+00 -0.00000000000E+00 -0.37357765216E+04  0.37357765216E+04  0.25500000000E-02 0.  1.
     200001    2    1    2    0    0 -0.49562806690E+01 -0.31019172033E+03 -0.19798664773E+04  0.20964903036E+04  0.61575714132E+03 0.  0.
    5000001    2    3    3    0    0  0.71315284948E+02 -0.33148440674E+03 -0.18181767440E+04  0.18900555680E+04  0.38932710649E+03 0.  0.
        -11    1    4    4    0    0 -0.23792180975E+02  0.66194712386E+01  0.11134849133E+02  0.27090037662E+02  0.51100000000E-03 0. -1.
     200002    1    4    4    0    0  0.95107465923E+02 -0.33810387798E+03 -0.18293115931E+04  0.18629655303E+04  0.30000000000E+02 0. -1.
     200000    1    3    3    0    0 -0.76271565617E+02  0.21292686410E+02 -0.16168973327E+03  0.20643473560E+03  0.10100000000E+03 0. -1.
    -200001    1    1    2    0    0  0.49562806690E+01  0.31019172033E+03 -0.16280863222E+04  0.17671099402E+04  0.61300000000E+03 0. -1.
<mgrwt>
<rscale>  0 0.13820577E+04</rscale>
<asrwt>0</asrwt>
<pdfrwt beam="1">  1        2 0.53368229E+00 0.13820577E+04</pdfrwt>
<pdfrwt beam="2">  1       -2 0.18260534E-01 0.13820577E+04</pdfrwt>
<totfact> 0.21262767E+01</totfact>
</mgrwt>
</event>
<event>
 8    1  0.7326756E-052  0.1323538E+04  0.7818608E-02  0.9011105E-01
         -2   -1    0    0    0  501 -0.00000000000E+00  0.00000000000E+00  0.86432423802E+03  0.86432423802E+03  0.25500000000E-02 0. -1.
          2   -1    0    0  501    0  0.00000000000E+00 -0.00000000000E+00 -0.50668263254E+03  0.50668263254E+03  0.25500000000E-02 0.  1.
     200001    2    1    2    0    0 -0.94472021778E+02  0.19140023324E+03  0.31778533068E+03  0.72068653809E+03  0.61060835043E+03 0.  0.
    5000001    2    3    3    0    0 -0.16605902427E+03  0.31863659578E+03  0.13665275177E+02  0.36854480663E+03  0.80831027678E+02 0.  0.
        -11    1    4    4    0    0 -0.11766814723E+03  0.15875601878E+03  0.20652559606E+02  0.19868516449E+03  0.51100000000E-03 0. -1.
     200002    1    4    4    0    0 -0.48390877041E+02  0.15988057700E+03 -0.69872844290E+01  0.16985964214E+03  0.30000000000E+02 0.  1.
     200000    1    3    3    0    0  0.71587002491E+02 -0.12723636254E+03  0.30412005550E+03  0.35214173146E+03  0.10100000000E+03 0. -1.
    -200001    1    1    2    0    0  0.94472021778E+02 -0.19140023324E+03  0.39856274802E+02  0.65032033247E+03  0.61300000000E+03 0.  1.
<mgrwt>
<rscale>  0 0.13235378E+04</rscale>
<asrwt>0</asrwt>
<pdfrwt beam="1">  1        2 0.72383234E-01 0.13235378E+04</pdfrwt>
<pdfrwt beam="2">  1       -2 0.12347489E+00 0.13235378E+04</pdfrwt>
<totfact> 0.32032789E+01</totfact>
</mgrwt>
</event>
<event>
 8    1  0.7326756E-052  0.1255109E+04  0.7818608E-02  0.9065941E-01
         -2   -1    0    0    0  501 -0.00000000000E+00  0.00000000000E+00  0.24076865793E+03  0.24076865794E+03  0.25500000000E-02 0. -1.
          2   -1    0    0  501    0  0.00000000000E+00 -0.00000000000E+00 -0.16356981384E+04  0.16356981384E+04  0.25500000000E-02 0.  1.
     200001    2    1    2    0    0 -0.36455487101E+02  0.12385221544E+03 -0.64499976533E+03  0.89931176695E+03  0.61324430946E+03 0.  0.
    5000001    2    3    3    0    0 -0.57701797565E+02  0.24897772063E+03 -0.67923486035E+03  0.73353830861E+03  0.10676634246E+03 0.  0.
        -11    1    4    4    0    0 -0.79731931750E+02  0.19931058167E+03 -0.51360167286E+03  0.55665839369E+03  0.51100000000E-03 0. -1.
     200002    1    4    4    0    0  0.22030134185E+02  0.49667138961E+02 -0.16563318749E+03  0.17687991492E+03  0.30000000000E+02 0. -1.
     200000    1    3    3    0    0  0.21246310464E+02 -0.12512550519E+03  0.34235095016E+02  0.16577345833E+03  0.10100000000E+03 0. -1.
    -200001    1    1    2    0    0  0.36455487101E+02 -0.12385221544E+03 -0.74992971510E+03  0.97715502936E+03  0.61300000000E+03 0.  1.
<mgrwt>
<rscale>  0 0.12551093E+04</rscale>
<asrwt>0</asrwt>
<pdfrwt beam="1">  1        2 0.23367116E+00 0.12551093E+04</pdfrwt>
<pdfrwt beam="2">  1       -2 0.34395524E-01 0.12551093E+04</pdfrwt>
<totfact> 0.96468905E+01</totfact>
</mgrwt>
</event>
<event>
 8    1  0.7326756E-052  0.1385802E+04  0.7818608E-02  0.8964161E-01
          2   -1    0    0  501    0  0.00000000000E+00  0.00000000000E+00  0.15268359100E+04  0.15268359100E+04  0.25500000000E-02 0.  1.
         -2   -1    0    0    0  501 -0.00000000000E+00 -0.00000000000E+00 -0.31444862906E+03  0.31444862907E+03  0.25500000000E-02 0. -1.
     200001    2    1    2    0    0 -0.11692875902E+03 -0.11741020511E+03  0.97428857797E+03  0.11631123756E+04  0.61329819346E+03 0.  0.
    5000001    2    3    3    0    0  0.79737524897E+02  0.18503173981E+03  0.18876802910E+03  0.29282949629E+03  0.97575240068E+02 0.  0.
        -11    1    4    4    0    0  0.55688814890E+02  0.15468186782E+03  0.17870295026E+03  0.24282188692E+03  0.51100000000E-03 0. -1.
     200002    1    4    4    0    0  0.24048710008E+02  0.30349871992E+02  0.10065078839E+02  0.50007609371E+02  0.30000000000E+02 0.  1.
     200000    1    3    3    0    0 -0.19666628392E+03 -0.30244194492E+03  0.78552054887E+03  0.87028287928E+03  0.10100000000E+03 0. -1.
    -200001    1    1    2    0    0  0.11692875902E+03  0.11741020511E+03  0.23809870292E+03  0.67817216345E+03  0.61300000000E+03 0. -1.
<mgrwt>
<rscale>  0 0.13858015E+04</rscale>
<asrwt>0</asrwt>
<pdfrwt beam="1">  1        2 0.21811941E+00 0.13858015E+04</pdfrwt>
<pdfrwt beam="2">  1       -2 0.44921233E-01 0.13858015E+04</pdfrwt>
<totfact> 0.64806159E+01</totfact>
</mgrwt>
</event>
<event>
 8    1  0.7326756E-052  0.1834691E+04  0.7818608E-02  0.8688065E-01
          2   -1    0    0  501    0  0.00000000000E+00  0.00000000000E+00  0.14208170896E+04  0.14208170896E+04  0.25500000000E-02 0.  1.
         -2   -1    0    0    0  501 -0.00000000000E+00 -0.00000000000E+00 -0.59228111878E+03  0.59228111879E+03  0.25500000000E-02 0. -1.
     200001    2    1    2    0    0 -0.47405960712E+02  0.67880093679E+03  0.46958955778E+03  0.10294165707E+04  0.61332380223E+03 0.  0.
    5000001    2    3    3    0    0  0.26763164779E+03  0.34825884960E+03  0.22671216464E+03  0.50244674778E+03  0.90240808608E+02 0.  0.
        -11    1    4    4    0    0  0.16342840138E+03  0.18413814073E+03  0.86796386583E+02  0.26105422804E+03  0.51100000000E-03 0. -1.
     200002    1    4    4    0    0  0.10420324641E+03  0.16412070887E+03  0.13991577805E+03  0.24139251975E+03  0.30000000000E+02 0. -1.
     200000    1    3    3    0    0 -0.31503760850E+03  0.33054208719E+03  0.24287739314E+03  0.52696982293E+03  0.10100000000E+03 0.  1.
    -200001    1    1    2    0    0  0.47405960712E+02 -0.67880093679E+03  0.35894641306E+03  0.98368163770E+03  0.61300000000E+03 0. -1.
<mgrwt>
<rscale>  0 0.18346914E+04</rscale>
<asrwt>0</asrwt>
<pdfrwt beam="1">  1        2 0.20297387E+00 0.18346914E+04</pdfrwt>
<pdfrwt beam="2">  1       -2 0.84611590E-01 0.18346914E+04</pdfrwt>
<totfact> 0.18541216E+01</totfact>
</mgrwt>
</event>
<event>
 8    1  0.7326756E-052  0.2059151E+04  0.7818608E-02  0.8579454E-01
          2   -1    0    0  501    0  0.00000000000E+00  0.00000000000E+00  0.26878431321E+04  0.26878431321E+04  0.25500000000E-02 0.  1.
         -2   -1    0    0    0  501 -0.00000000000E+00 -0.00000000000E+00 -0.39437780494E+03  0.39437780495E+03  0.25500000000E-02 0. -1.
     200001    2    1    2    0    0  0.43729801161E+03 -0.66369166493E+03  0.81242400369E+03  0.12930958495E+04  0.61672355006E+03 0.  0.
    5000001    2    3    3    0    0  0.97292803987E+02 -0.58813377228E+03  0.67837894300E+03  0.90646732670E+03  0.78216368295E+02 0.  0.
        -11    1    4    4    0    0  0.79555106927E+02 -0.50164505896E+03  0.56789442894E+03  0.76189294697E+03  0.51100000000E-03 0. -1.
     200002    1    4    4    0    0  0.17737697060E+02 -0.86488713322E+02  0.11048451406E+03  0.14457437974E+03  0.30000000000E+02 0.  1.
     200000    1    3    3    0    0  0.34000520763E+03 -0.75557892644E+02  0.13404506069E+03  0.38662852281E+03  0.10100000000E+03 0.  1.
    -200001    1    1    2    0    0 -0.43729801161E+03  0.66369166493E+03  0.14810413235E+04  0.17891250875E+04  0.61300000000E+03 0.  1.
<mgrwt>
<rscale>  0 0.20591510E+04</rscale>
<asrwt>0</asrwt>
<pdfrwt beam="1">  1        2 0.38397759E+00 0.20591510E+04</pdfrwt>
<pdfrwt beam="2">  1       -2 0.56339687E-01 0.20591510E+04</pdfrwt>
<totfact> 0.96078025E+00</totfact>
</mgrwt>
</event>
<event>
 8    1  0.7326756E-052  0.1874041E+04  0.7818608E-02  0.8667887E-01
          2   -1    0    0  501    0  0.00000000000E+00  0.00000000000E+00  0.11948149727E+04  0.11948149727E+04  0.25500000000E-02 0.  1.
         -2   -1    0    0    0  501 -0.00000000000E+00 -0.00000000000E+00 -0.73484767930E+03  0.73484767930E+03  0.25500000000E-02 0. -1.
     200001    2    1    2    0    0 -0.32365571271E+03 -0.61796997589E+03  0.35823507590E+03  0.99544728304E+03  0.61314191852E+03 0.  0.
    5000001    2    3    3    0    0 -0.76751322851E+02 -0.25610355546E+03 -0.15156498692E+03  0.31573691236E+03  0.72374414605E+02 0.  0.
        -11    1    4    4    0    0 -0.34048756687E+02 -0.12413695248E+03 -0.38691934046E+02  0.13441118467E+03  0.51100000000E-03 0. -1.
     200002    1    4    4    0    0 -0.42702566163E+02 -0.13196660297E+03 -0.11287305287E+03  0.18132572769E+03  0.30000000000E+02 0. -1.
     200000    1    3    3    0    0 -0.24690438986E+03 -0.36186642044E+03  0.50980006282E+03  0.67971037069E+03  0.10100000000E+03 0.  1.
    -200001    1    1    2    0    0  0.32365571271E+03  0.61796997589E+03  0.10173221748E+03  0.93421536893E+03  0.61300000000E+03 0. -1.
<mgrwt>
<rscale>  0 0.18740406E+04</rscale>
<asrwt>0</asrwt>
<pdfrwt beam="1">  1        2 0.17068785E+00 0.18740406E+04</pdfrwt>
<pdfrwt beam="2">  1       -2 0.10497824E+00 0.18740406E+04</pdfrwt>
<totfact> 0.14905909E+01</totfact>
</mgrwt>
</event>
<event>
 8    1  0.7326756E-052  0.1418864E+04  0.7818608E-02  0.8940276E-01
          2   -1    0    0  501    0  0.00000000000E+00  0.00000000000E+00  0.23757882734E+04  0.23757882734E+04  0.25500000000E-02 0.  1.
         -2   -1    0    0    0  501 -0.00000000000E+00 -0.00000000000E+00 -0.21184291172E+03  0.21184291173E+03  0.25500000000E-02 0. -1.
     200001    2    1    2    0    0  0.27524344553E+03  0.51547318120E+02  0.14827486177E+04  0.16293963056E+04  0.61479490655E+03 0.  0.
    5000001    2    3    3    0    0 -0.10187220025E+01  0.31350156781E+02 -0.15122801628E+02  0.10278289699E+03  0.96704470732E+02 0.  0.
        -11    1    4    4    0    0  0.34379080539E+01 -0.30935219686E+02 -0.12239697480E+02  0.33445735505E+02  0.51100000000E-03 0. -1.
     200002    1    4    4    0    0 -0.44566300563E+01  0.62285376467E+02 -0.28831041480E+01  0.69337161484E+02  0.30000000000E+02 0. -1.
     200000    1    3    3    0    0  0.27626216754E+03  0.20197161339E+02  0.14978714193E+04  0.15266134086E+04  0.10100000000E+03 0.  1.
    -200001    1    1    2    0    0 -0.27524344553E+03 -0.51547318120E+02  0.68119674397E+03  0.95823487951E+03  0.61300000000E+03 0.  1.
<mgrwt>
<rscale>  0 0.14188642E+04</rscale>
<asrwt>0</asrwt>
<pdfrwt beam="1">  1        2 0.33939833E+00 0.14188642E+04</pdfrwt>
<pdfrwt beam="2">  1       -2 0.30263273E-01 0.14188642E+04</pdfrwt>
<totfact> 0.50361399E+01</totfact>
</mgrwt>
</event>
<event>
 8    1  0.7326756E-052  0.1493540E+04  0.7818608E-02  0.8888760E-01
         -2   -1    0    0    0  501 -0.00000000000E+00  0.00000000000E+00  0.14904734741E+04  0.14904734741E+04  0.25500000000E-02 0. -1.
          2   -1    0    0  501    0  0.00000000000E+00 -0.00000000000E+00 -0.37415325089E+03  0.37415325090E+03  0.25500000000E-02 0.  1.
     200001    2    1    2    0    0  0.20497929214E+03 -0.25524447521E+03  0.21402827353E+03  0.72573866430E+03  0.61132827079E+03 0.  0.
    5000001    2    3    3    0    0  0.23510110344E+03 -0.40336322578E+03  0.23372223761E+03  0.54288533508E+03  0.14874132559E+03 0.  0.
        -11    1    4    4    0    0  0.17766308590E+03 -0.20104702939E+03  0.18210879216E+03  0.32426484900E+03  0.51100000000E-03 0. -1.
     200002    1    4    4    0    0  0.57438017544E+02 -0.20231619639E+03  0.51613445459E+02  0.21862048608E+03  0.30000000000E+02 0. -1.
     200000    1    3    3    0    0 -0.30121811303E+02  0.14811875057E+03 -0.19693964085E+02  0.18285332922E+03  0.10100000000E+03 0.  1.
    -200001    1    1    2    0    0 -0.20497929214E+03  0.25524447521E+03  0.90229194967E+03  0.11388880607E+04  0.61300000000E+03 0. -1.
<mgrwt>
<rscale>  0 0.14935401E+04</rscale>
<asrwt>0</asrwt>
<pdfrwt beam="1">  1        2 0.53450464E-01 0.14935401E+04</pdfrwt>
<pdfrwt beam="2">  1       -2 0.21292478E+00 0.14935401E+04</pdfrwt>
<totfact> 0.98920993E+00</totfact>
</mgrwt>
</event>
<event>
 8    1  0.7326756E-052  0.2914322E+04  0.7818608E-02  0.8268629E-01
         -2   -1    0    0    0  501 -0.00000000000E+00  0.00000000000E+00  0.16168571712E+04  0.16168571712E+04  0.25500000000E-02 0.  1.
          2   -1    0    0  501    0  0.00000000000E+00 -0.00000000000E+00 -0.13132381962E+04  0.13132381962E+04  0.25500000000E-02 0. -1.
     200001    2    1    2    0    0  0.69002676043E+03  0.80976943460E+02 -0.97883030850E+03  0.13479640959E+04  0.61335490168E+03 0.  0.
    5000001    2    3    3    0    0  0.65107752790E+03  0.26116130090E+03 -0.73807216619E+03  0.10283566359E+04  0.14373474059E+03 0.  0.
        -11    1    4    4    0    0  0.32860846088E+02 -0.17574812346E+02 -0.38493249683E+02  0.53576482770E+02  0.51100000000E-03 0. -1.
     200002    1    4    4    0    0  0.61821668181E+03  0.27873611325E+03 -0.69957891651E+03  0.97478015312E+03  0.30000000000E+02 0. -1.
     200000    1    3    3    0    0  0.38949232532E+02 -0.18018435744E+03 -0.24075814230E+03  0.31960745997E+03  0.10100000000E+03 0. -1.
    -200001    1    1    2    0    0 -0.69002676043E+03 -0.80976943460E+02  0.12824492835E+04  0.15821312715E+04  0.61300000000E+03 0.  1.
<mgrwt>
<rscale>  0 0.29143223E+04</rscale>
<asrwt>0</asrwt>
<pdfrwt beam="1">  1        2 0.18760546E+00 0.29143223E+04</pdfrwt>
<pdfrwt beam="2">  1       -2 0.23097960E+00 0.29143223E+04</pdfrwt>
<totfact> 0.13508434E+00</totfact>
</mgrwt>
</event>
<event>
 8    1  0.7326756E-052  0.1426586E+04  0.7818608E-02  0.8934796E-01
          2   -1    0    0  501    0  0.00000000000E+00  0.00000000000E+00  0.14863088877E+04  0.14863088877E+04  0.25500000000E-02 0.  1.
         -2   -1    0    0    0  501 -0.00000000000E+00 -0.00000000000E+00 -0.34231565602E+03  0.34231565603E+03  0.25500000000E-02 0. -1.
     200001    2    1    2    0    0 -0.20737193185E+03 -0.15932873627E+03  0.24580690087E+03  0.71018972256E+03  0.61282921373E+03 0.  0.
    5000001    2    3    3    0    0  0.60838937523E+02 -0.23147031504E+03 -0.34643538479E+02  0.30276497274E+03  0.18217181697E+03 0.  0.
        -11    1    4    4    0    0 -0.13034606902E+02 -0.20532962255E+03 -0.61373459682E+02  0.21470178487E+03  0.51100000000E-03 0. -1.
     200002    1    4    4    0    0  0.73873544425E+02 -0.26140692486E+02  0.26729921203E+02  0.88063187866E+02  0.30000000000E+02 0. -1.
     200000    1    3    3    0    0 -0.26821086937E+03  0.72141578767E+02  0.28045043935E+03  0.40742474982E+03  0.10100000000E+03 0.  1.
    -200001    1    1    2    0    0  0.20737193185E+03  0.15932873627E+03  0.89818633079E+03  0.11184348211E+04  0.61300000000E+03 0.  1.
<mgrwt>
<rscale>  0 0.14265859E+04</rscale>
<asrwt>0</asrwt>
<pdfrwt beam="1">  1        2 0.21232984E+00 0.14265859E+04</pdfrwt>
<pdfrwt beam="2">  1       -2 0.48902238E-01 0.14265859E+04</pdfrwt>
<totfact> 0.57232443E+01</totfact>
</mgrwt>
</event>
<event>
 8    1  0.7326756E-052  0.1523341E+04  0.7818608E-02  0.8869078E-01
         -2   -1    0    0    0  501 -0.00000000000E+00  0.00000000000E+00  0.25701307659E+03  0.25701307661E+03  0.25500000000E-02 0. -1.
          2   -1    0    0  501    0  0.00000000000E+00 -0.00000000000E+00 -0.22572459257E+04  0.22572459257E+04  0.25500000000E-02 0.  1.
     200001    2    1    2    0    0 -0.16923115939E+03 -0.14793881760E+03 -0.34891864829E+03  0.73855275721E+03  0.61089350381E+03 0.  0.
    5000001    2    3    3    0    0 -0.19178598213E+03  0.52144564841E+02  0.97693007112E+02  0.23834774854E+03  0.88118142345E+02 0.  0.
        -11    1    4    4    0    0 -0.41664621912E+02 -0.19025210472E+02  0.58967208723E+01  0.46180847436E+02  0.51100000000E-03 0. -1.
     200002    1    4    4    0    0 -0.15012136022E+03  0.71169775312E+02  0.91796286240E+02  0.19216690110E+03  0.30000000000E+02 0. -1.
     200000    1    3    3    0    0  0.22554822746E+02 -0.20008338244E+03 -0.44661165540E+03  0.50020500867E+03  0.10100000000E+03 0.  1.
    -200001    1    1    2    0    0  0.16923115939E+03  0.14793881760E+03 -0.16513142008E+04  0.17757062451E+04  0.61300000000E+03 0.  1.
<mgrwt>
<rscale>  0 0.15233407E+04</rscale>
<asrwt>0</asrwt>
<pdfrwt beam="1">  1        2 0.32246369E+00 0.15233407E+04</pdfrwt>
<pdfrwt beam="2">  1       -2 0.36716155E-01 0.15233407E+04</pdfrwt>
<totfact> 0.39885180E+01</totfact>
</mgrwt>
</event>
<event>
 8    1  0.7326756E-052  0.1491176E+04  0.7818608E-02  0.8890342E-01
          2   -1    0    0  501    0  0.00000000000E+00  0.00000000000E+00  0.67851329868E+03  0.67851329869E+03  0.25500000000E-02 0.  1.
         -2   -1    0    0    0  501 -0.00000000000E+00 -0.00000000000E+00 -0.81929363559E+03  0.81929363560E+03  0.25500000000E-02 0. -1.
     200001    2    1    2    0    0 -0.13826113023E+03 -0.35994803250E+03  0.10732198860E+03  0.73229893945E+03  0.61324138906E+03 0.  0.
    5000001    2    3    3    0    0  0.23727081986E+02 -0.27692510161E+03 -0.20753476823E+03  0.35484859136E+03  0.74808799268E+02 0.  0.
        -11    1    4    4    0    0 -0.83449881194E+01 -0.23592356962E+02 -0.97962867354E+00  0.25043917551E+02  0.51100000000E-03 0. -1.
     200002    1    4    4    0    0  0.32072070105E+02 -0.25333274465E+03 -0.20655513955E+03  0.32980467381E+03  0.30000000000E+02 0. -1.
     200000    1    3    3    0    0 -0.16198821222E+03 -0.83022930888E+02  0.31485675683E+03  0.37745034809E+03  0.10100000000E+03 0.  1.
    -200001    1    1    2    0    0  0.13826113023E+03  0.35994803250E+03 -0.24810232551E+03  0.76550799483E+03  0.61300000000E+03 0.  1.
<mgrwt>
<rscale>  0 0.14911762E+04</rscale>
<asrwt>0</asrwt>
<pdfrwt beam="1">  1        2 0.96930472E-01 0.14911762E+04</pdfrwt>
<pdfrwt beam="2">  1       -2 0.11704195E+00 0.14911762E+04</pdfrwt>
<totfact> 0.25589198E+01</totfact>
</mgrwt>
</event>
<event>
 8    1  0.7326756E-052  0.2043632E+04  0.7818608E-02  0.8586488E-01
         -2   -1    0    0    0  501 -0.00000000000E+00  0.00000000000E+00  0.36295782841E+03  0.36295782842E+03  0.25500000000E-02 0. -1.
          2   -1    0    0  501    0  0.00000000000E+00 -0.00000000000E+00 -0.28766657957E+04  0.28766657957E+04  0.25500000000E-02 0.  1.
     200001    2    1    2    0    0 -0.26610848399E+03 -0.67259183685E+03 -0.18598843436E+04  0.20879084531E+04  0.61400198117E+03 0.  0.
    5000001    2    3    3    0    0 -0.39629337897E+03 -0.42009631864E+03 -0.82353489425E+03  0.10085923388E+04  0.74292830135E+02 0.  0.
        -11    1    4    4    0    0 -0.18298083421E+03 -0.17313062558E+03 -0.40617193714E+03  0.47794543802E+03  0.51100000000E-03 0. -1.
     200002    1    4    4    0    0 -0.21331254475E+03 -0.24696569306E+03 -0.41736295711E+03  0.53064690074E+03  0.30000000000E+02 0. -1.
     200000    1    3    3    0    0  0.13018489498E+03 -0.25249551821E+03 -0.10363494493E+04  0.10793161144E+04  0.10100000000E+03 0.  1.
    -200001    1    1    2    0    0  0.26610848399E+03  0.67259183685E+03 -0.65382362376E+03  0.11517151711E+04  0.61300000000E+03 0. -1.
<mgrwt>
<rscale>  0 0.20436324E+04</rscale>
<asrwt>0</asrwt>
<pdfrwt beam="1">  1        2 0.41095224E+00 0.20436324E+04</pdfrwt>
<pdfrwt beam="2">  1       -2 0.51851120E-01 0.20436324E+04</pdfrwt>
<totfact> 0.90209276E+00</totfact>
</mgrwt>
</event>
<event>
 8    1  0.7326756E-052  0.1293259E+04  0.7818608E-02  0.9034928E-01
         -2   -1    0    0    0  501 -0.00000000000E+00  0.00000000000E+00  0.15423568367E+03  0.15423568369E+03  0.25500000000E-02 0. -1.
          2   -1    0    0  501    0  0.00000000000E+00 -0.00000000000E+00 -0.27109806295E+04  0.27109806295E+04  0.25500000000E-02 0.  1.
     200001    2    1    2    0    0  0.13034830111E+03  0.26311913683E+02 -0.94065634041E+03  0.11316666667E+04  0.61494072663E+03 0.  0.
    5000001    2    3    3    0    0  0.15025297086E+03  0.29043823162E+03 -0.58129936801E+03  0.67395787133E+03  0.96850066806E+02 0.  0.
        -11    1    4    4    0    0  0.14104557047E+03  0.20765022867E+03 -0.40091558755E+03  0.47301773619E+03  0.51100000000E-03 0. -1.
     200002    1    4    4    0    0  0.92074003896E+01  0.82788002955E+02 -0.18038378046E+03  0.20094013514E+03  0.30000000000E+02 0. -1.
     200000    1    3    3    0    0 -0.19904669752E+02 -0.26412631794E+03 -0.35935697240E+03  0.45770879532E+03  0.10100000000E+03 0. -1.
    -200001    1    1    2    0    0 -0.13034830111E+03 -0.26311913683E+02 -0.16160886054E+04  0.17335496465E+04  0.61300000000E+03 0.  1.
<mgrwt>
<rscale>  0 0.12932594E+04</rscale>
<asrwt>0</asrwt>
<pdfrwt beam="1">  1        2 0.38728292E+00 0.12932594E+04</pdfrwt>
<pdfrwt beam="2">  1       -2 0.22033671E-01 0.12932594E+04</pdfrwt>
<totfact> 0.60405851E+01</totfact>
</mgrwt>
</event>
<event>
 8    1  0.7326756E-052  0.1334380E+04  0.7818608E-02  0.9002737E-01
         -2   -1    0    0    0  501 -0.00000000000E+00  0.00000000000E+00  0.21788109301E+03  0.21788109302E+03  0.25500000000E-02 0. -1.
          2   -1    0    0  501    0  0.00000000000E+00 -0.00000000000E+00 -0.20430511599E+04  0.20430511599E+04  0.25500000000E-02 0.  1.
     200001    2    1    2    0    0 -0.18530419358E+03  0.64632232111E+02 -0.12102135725E+04  0.13707325789E+04  0.61300566252E+03 0.  0.
    5000001    2    3    3    0    0 -0.44895810992E+02  0.14387769868E+03 -0.11522216717E+04  0.11718395966E+04  0.15125089502E+03 0.  0.
        -11    1    4    4    0    0 -0.49488112176E+02  0.13218324505E+03 -0.11079540324E+04  0.11169080631E+04  0.51100000000E-03 0. -1.
     200002    1    4    4    0    0  0.45923011833E+01  0.11694453629E+02 -0.44267639324E+02  0.54931533450E+02  0.30000000000E+02 0. -1.
     200000    1    3    3    0    0 -0.14040838258E+03 -0.79245466565E+02 -0.57991900739E+02  0.19889298234E+03  0.10100000000E+03 0. -1.
    -200001    1    1    2    0    0  0.18530419358E+03 -0.64632232111E+02 -0.61495649440E+03  0.89019967400E+03  0.61300000000E+03 0. -1.
<mgrwt>
<rscale>  0 0.13343796E+04</rscale>
<asrwt>0</asrwt>
<pdfrwt beam="1">  1        2 0.29186444E+00 0.13343796E+04</pdfrwt>
<pdfrwt beam="2">  1       -2 0.31125872E-01 0.13343796E+04</pdfrwt>
<totfact> 0.71406458E+01</totfact>
</mgrwt>
</event>
<event>
 8    1  0.7326756E-052  0.1614906E+04  0.7818608E-02  0.8811442E-01
         -2   -1    0    0    0  501 -0.00000000000E+00  0.00000000000E+00  0.33488061792E+03  0.33488061793E+03  0.25500000000E-02 0. -1.
          2   -1    0    0  501    0  0.00000000000E+00 -0.00000000000E+00 -0.19469047696E+04  0.19469047696E+04  0.25500000000E-02 0.  1.
     200001    2    1    2    0    0 -0.52135779004E+03  0.72158904884E+02 -0.79057368434E+03  0.11295828346E+04  0.61149797793E+03 0.  0.
    5000001    2    3    3    0    0 -0.91116479021E+02  0.28216403276E+03 -0.40472305595E+03  0.50645247352E+03  0.69098493363E+02 0.  0.
        -11    1    4    4    0    0 -0.11714975789E+02  0.12123979667E+03 -0.14549620038E+03  0.18975108242E+03  0.51100000000E-03 0. -1.
     200002    1    4    4    0    0 -0.79401503233E+02  0.16092423609E+03 -0.25922685557E+03  0.31670139110E+03  0.30000000000E+02 0. -1.
     200000    1    3    3    0    0 -0.43024131102E+03 -0.21000512787E+03 -0.38585062839E+03  0.62313036105E+03  0.10100000000E+03 0. -1.
    -200001    1    1    2    0    0  0.52135779004E+03 -0.72158904884E+02 -0.82145046738E+03  0.11522025530E+04  0.61300000000E+03 0. -1.
<mgrwt>
<rscale>  0 0.16149064E+04</rscale>
<asrwt>0</asrwt>
<pdfrwt beam="1">  1        2 0.27812925E+00 0.16149064E+04</pdfrwt>
<pdfrwt beam="2">  1       -2 0.47840089E-01 0.16149064E+04</pdfrwt>
<totfact> 0.33949501E+01</totfact>
</mgrwt>
</event>
<event>
 8    1  0.7326756E-052  0.1395620E+04  0.7818608E-02  0.8956995E-01
         -2   -1    0    0    0  501 -0.00000000000E+00  0.00000000000E+00  0.36563534292E+03  0.36563534293E+03  0.25500000000E-02 0. -1.
          2   -1    0    0  501    0  0.00000000000E+00 -0.00000000000E+00 -0.13317616929E+04  0.13317616929E+04  0.25500000000E-02 0.  1.
     200001    2    1    2    0    0  0.31840258266E+03  0.18299330836E+02 -0.60155274476E+03  0.91611732680E+03  0.61293570755E+03 0.  0.
    5000001    2    3    3    0    0  0.30133664963E+03  0.18217502746E+03 -0.18080136708E+03  0.45310629904E+03  0.22051001531E+03 0.  0.
        -11    1    4    4    0    0  0.18716480525E+03 -0.20421330918E+01 -0.13170949483E+03  0.22887163577E+03  0.51100000000E-03 0. -1.
     200002    1    4    4    0    0  0.11417184437E+03  0.18421716055E+03 -0.49091872251E+02  0.22423466327E+03  0.30000000000E+02 0. -1.
     200000    1    3    3    0    0  0.17065933035E+02 -0.16387569662E+03 -0.42075137768E+03  0.46301102776E+03  0.10100000000E+03 0.  1.
    -200001    1    1    2    0    0 -0.31840258266E+03 -0.18299330836E+02 -0.36457360527E+03  0.78127970907E+03  0.61300000000E+03 0. -1.
<mgrwt>
<rscale>  0 0.13956205E+04</rscale>
<asrwt>0</asrwt>
<pdfrwt beam="1">  1        2 0.19025167E+00 0.13956205E+04</pdfrwt>
<pdfrwt beam="2">  1       -2 0.52233621E-01 0.13956205E+04</pdfrwt>
<totfact> 0.60781985E+01</totfact>
</mgrwt>
</event>
<event>
 8    1  0.7326756E-052  0.2279392E+04  0.7818608E-02  0.8486091E-01
         -2   -1    0    0    0  501 -0.00000000000E+00  0.00000000000E+00  0.69299036329E+03  0.69299036330E+03  0.25500000000E-02 0. -1.
          2   -1    0    0  501    0  0.00000000000E+00 -0.00000000000E+00 -0.18743512341E+04  0.18743512341E+04  0.25500000000E-02 0.  1.
     200001    2    1    2    0    0 -0.68070183762E+03  0.59379208714E+03 -0.95907987345E+03  0.14532851014E+04  0.61339982709E+03 0.  0.
    5000001    2    3    3    0    0 -0.39787680745E+03  0.66897639516E+03 -0.65844570855E+03  0.10217476419E+04  0.67691368954E+02 0.  0.
        -11    1    4    4    0    0 -0.25157480273E+03  0.45352680589E+03 -0.41975260707E+03  0.66720963435E+03  0.51100000000E-03 0. -1.
     200002    1    4    4    0    0 -0.14630200472E+03  0.21544958927E+03 -0.23869310148E+03  0.35453800755E+03  0.30000000000E+02 0.  1.
     200000    1    3    3    0    0 -0.28282503017E+03 -0.75184308026E+02 -0.30063416490E+03  0.43153745952E+03  0.10100000000E+03 0.  1.
    -200001    1    1    2    0    0  0.68070183762E+03 -0.59379208714E+03 -0.22228099739E+03  0.11140564960E+04  0.61300000000E+03 0. -1.
<mgrwt>
<rscale>  0 0.22793923E+04</rscale>
<asrwt>0</asrwt>
<pdfrwt beam="1">  1        2 0.26776446E+00 0.22793923E+04</pdfrwt>
<pdfrwt beam="2">  1       -2 0.98998624E-01 0.22793923E+04</pdfrwt>
<totfact> 0.71926602E+00</totfact>
</mgrwt>
</event>
<event>
 8    1  0.7326756E-052  0.1696654E+04  0.7818608E-02  0.8763275E-01
         -2   -1    0    0    0  501 -0.00000000000E+00  0.00000000000E+00  0.20577395656E+03  0.20577395658E+03  0.25500000000E-02 0. -1.
          2   -1    0    0  501    0  0.00000000000E+00 -0.00000000000E+00 -0.34973284321E+04  0.34973284321E+04  0.25500000000E-02 0.  1.
     200001    2    1    2    0    0  0.51601266898E+03 -0.57140475231E+02 -0.10483314649E+04  0.13203828114E+04  0.61227265162E+03 0.  0.
    5000001    2    3    3    0    0  0.58935595005E+03 -0.69523390318E+02 -0.83358535300E+03  0.10716872826E+04  0.31855164939E+03 0.  0.
        -11    1    4    4    0    0  0.22736679852E+03  0.12707467699E+03 -0.32842576301E+03  0.41917432699E+03  0.51100000000E-03 0. -1.
     200002    1    4    4    0    0  0.36198915153E+03 -0.19659806731E+03 -0.50515958999E+03  0.65251295563E+03  0.30000000000E+02 0. -1.
     200000    1    3    3    0    0 -0.73343281074E+02  0.12382915086E+02 -0.21474611193E+03  0.24869552882E+03  0.10100000000E+03 0.  1.
    -200001    1    1    2    0    0 -0.51601266898E+03  0.57140475231E+02 -0.22432230106E+04  0.23827195773E+04  0.61300000000E+03 0.  1.
<mgrwt>
<rscale>  0 0.16966545E+04</rscale>
<asrwt>0</asrwt>
<pdfrwt beam="1">  1        2 0.49961831E+00 0.16966545E+04</pdfrwt>
<pdfrwt beam="2">  1       -2 0.29396282E-01 0.16966545E+04</pdfrwt>
<totfact> 0.12343732E+01</totfact>
</mgrwt>
</event>
<event>
 8    1  0.7326756E-052  0.1283639E+04  0.7818608E-02  0.9042641E-01
         -2   -1    0    0    0  501 -0.00000000000E+00  0.00000000000E+00  0.43035883507E+03  0.43035883508E+03  0.25500000000E-02 0. -1.
          2   -1    0    0  501    0  0.00000000000E+00 -0.00000000000E+00 -0.95718336062E+03  0.95718336063E+03  0.25500000000E-02 0.  1.
     200001    2    1    2    0    0  0.16265264263E+02  0.18870195544E+03 -0.24531366285E+03  0.68690651818E+03  0.61301613741E+03 0.  0.
    5000001    2    3    3    0    0 -0.12258248096E+03  0.27007285145E+03 -0.35494001574E+03  0.46754641169E+03  0.68201338612E+02 0.  0.
        -11    1    4    4    0    0 -0.42604843644E+02  0.53771575397E+02 -0.11120813520E+03  0.13066676838E+03  0.51100000000E-03 0. -1.
     200002    1    4    4    0    0 -0.79977637312E+02  0.21630127605E+03 -0.24373188053E+03  0.33687964332E+03  0.30000000000E+02 0. -1.
     200000    1    3    3    0    0  0.13884774522E+03 -0.81370896010E+02  0.10962635288E+03  0.21936010648E+03  0.10100000000E+03 0. -1.
    -200001    1    1    2    0    0 -0.16265264263E+02 -0.18870195544E+03 -0.28151086270E+03  0.70063567753E+03  0.61300000000E+03 0.  1.
<mgrwt>
<rscale>  0 0.12836391E+04</rscale>
<asrwt>0</asrwt>
<pdfrwt beam="1">  1        2 0.13674048E+00 0.12836391E+04</pdfrwt>
<pdfrwt beam="2">  1       -2 0.61479834E-01 0.12836391E+04</pdfrwt>
<totfact> 0.72167612E+01</totfact>
</mgrwt>
</event>
<event>
 8    1  0.7326756E-052  0.1761475E+04  0.7818608E-02  0.8727059E-01
         -2   -1    0    0    0  501 -0.00000000000E+00  0.00000000000E+00  0.32841726638E+03  0.32841726639E+03  0.25500000000E-02 0. -1.
          2   -1    0    0  501    0  0.00000000000E+00 -0.00000000000E+00 -0.23619299227E+04  0.23619299227E+04  0.25500000000E-02 0.  1.
     200001    2    1    2    0    0 -0.51316697816E+02  0.57160114499E+03 -0.61040619809E+03  0.10379664025E+04  0.61271302713E+03 0.  0.
    5000001    2    3    3    0    0 -0.30911259859E+03  0.36064357323E+03 -0.41931865158E+03  0.64088042444E+03  0.96359749611E+02 0.  0.
        -11    1    4    4    0    0  0.23825044526E+01  0.23580585707E+02 -0.12259891226E+02  0.26683801882E+02  0.51100000000E-03 0. -1.
     200002    1    4    4    0    0 -0.31149510305E+03  0.33706298752E+03 -0.40705876035E+03  0.61419662255E+03  0.30000000000E+02 0. -1.
     200000    1    3    3    0    0  0.25779590078E+03  0.21095757176E+03 -0.19108754651E+03  0.39708597806E+03  0.10100000000E+03 0. -1.
    -200001    1    1    2    0    0  0.51316697816E+02 -0.57160114499E+03 -0.14231064582E+04  0.16523807866E+04  0.61300000000E+03 0.  1.
<mgrwt>
<rscale>  0 0.17614750E+04</rscale>
<asrwt>0</asrwt>
<pdfrwt beam="1">  1        2 0.33741855E+00 0.17614750E+04</pdfrwt>
<pdfrwt beam="2">  1       -2 0.46916754E-01 0.17614750E+04</pdfrwt>
<totfact> 0.21305771E+01</totfact>
</mgrwt>
</event>
<event>
 8    1  0.7326756E-052  0.1282843E+04  0.7818608E-02  0.9043283E-01
         -2   -1    0    0    0  501 -0.00000000000E+00  0.00000000000E+00  0.27921655561E+03  0.27921655562E+03  0.25500000000E-02 0. -1.
          2   -1    0    0  501    0  0.00000000000E+00 -0.00000000000E+00 -0.14734854935E+04  0.14734854935E+04  0.25500000000E-02 0.  1.
     200001    2    1    2    0    0 -0.92727907126E+02 -0.63549142792E+02 -0.80446153222E+03  0.10176130941E+04  0.61297723786E+03 0.  0.
    5000001    2    3    3    0    0  0.12307658510E+03  0.41589530025E+02 -0.12985624684E+03  0.29448170184E+03  0.23017231169E+03 0.  0.
        -11    1    4    4    0    0 -0.25589032887E+01  0.11527187584E+03 -0.63671120255E+02  0.13171243260E+03  0.51100000000E-03 0. -1.
     200002    1    4    4    0    0  0.12563548839E+03 -0.73682345818E+02 -0.66185126582E+02  0.16276926924E+03  0.30000000000E+02 0. -1.
     200000    1    3    3    0    0 -0.21580449223E+03 -0.10513867282E+03 -0.67460528539E+03  0.72313139225E+03  0.10100000000E+03 0.  1.
    -200001    1    1    2    0    0  0.92727907126E+02  0.63549142792E+02 -0.38980740568E+03  0.73508895505E+03  0.61300000000E+03 0. -1.
<mgrwt>
<rscale>  0 0.12828430E+04</rscale>
<asrwt>0</asrwt>
<pdfrwt beam="1">  1        2 0.21049792E+00 0.12828430E+04</pdfrwt>
<pdfrwt beam="2">  1       -2 0.39888080E-01 0.12828430E+04</pdfrwt>
<totfact> 0.88120180E+01</totfact>
</mgrwt>
</event>
<event>
 8    1  0.7326756E-052  0.1726078E+04  0.7818608E-02  0.8746629E-01
         -2   -1    0    0    0  501 -0.00000000000E+00  0.00000000000E+00  0.67067052935E+03  0.67067052936E+03  0.25500000000E-02 0.  1.
          2   -1    0    0  501    0  0.00000000000E+00 -0.00000000000E+00 -0.11105849741E+04  0.11105849741E+04  0.25500000000E-02 0. -1.
     200001    2    1    2    0    0 -0.32298644903E+03  0.46429853768E+03  0.10347397833E+02  0.83341685409E+03  0.61203202996E+03 0.  0.
    5000001    2    3    3    0    0 -0.32369424082E+03  0.33280150108E+03 -0.24279525631E+03  0.53080460227E+03  0.85259536921E+02 0.  0.
        -11    1    4    4    0    0 -0.66620767088E+02  0.11814567355E+03 -0.75602367365E+02  0.15528182359E+03  0.51100000000E-03 0. -1.
     200002    1    4    4    0    0 -0.25707347374E+03  0.21465582754E+03 -0.16719288895E+03  0.37552277868E+03  0.30000000000E+02 0. -1.
     200000    1    3    3    0    0  0.70779179555E+00  0.13149703660E+03  0.25314265415E+03  0.30261225182E+03  0.10100000000E+03 0.  1.
    -200001    1    1    2    0    0  0.32298644903E+03 -0.46429853768E+03 -0.45026184258E+03  0.94783864936E+03  0.61300000000E+03 0.  1.
<mgrwt>
<rscale>  0 0.17260783E+04</rscale>
<asrwt>0</asrwt>
<pdfrwt beam="1">  1        2 0.15865500E+00 0.17260783E+04</pdfrwt>
<pdfrwt beam="2">  1       -2 0.95810076E-01 0.17260783E+04</pdfrwt>
<totfact> 0.20957176E+01</totfact>
</mgrwt>
</event>
<event>
 8    1  0.7326756E-052  0.1974335E+04  0.7818608E-02  0.8618715E-01
         -2   -1    0    0    0  501 -0.00000000000E+00  0.00000000000E+00  0.63161203246E+03  0.63161203247E+03  0.25500000000E-02 0. -1.
          2   -1    0    0  501    0  0.00000000000E+00 -0.00000000000E+00 -0.15428764035E+04  0.15428764035E+04  0.25500000000E-02 0.  1.
     200001    2    1    2    0    0 -0.66731984693E+03  0.37891087846E+03 -0.56514954081E+03  0.11331173649E+04  0.61292065336E+03 0.  0.
    5000001    2    3    3    0    0 -0.43444860178E+03  0.21392210760E+03 -0.64746276412E+03  0.81938694235E+03  0.13296117724E+03 0.  0.
        -11    1    4    4    0    0 -0.15406701120E+03  0.14337179462E+03 -0.24596883086E+03  0.32371713144E+03  0.51100000000E-03 0. -1.
     200002    1    4    4    0    0 -0.28038159058E+03  0.70550312980E+02 -0.40149393326E+03  0.49566981091E+03  0.30000000000E+02 0. -1.
     200000    1    3    3    0    0 -0.23287124515E+03  0.16498877086E+03  0.82313223311E+02  0.31373042259E+03  0.10100000000E+03 0.  1.
    -200001    1    1    2    0    0  0.66731984693E+03 -0.37891087846E+03 -0.34611483025E+03  0.10413710711E+04  0.61300000000E+03 0. -1.
<mgrwt>
<rscale>  0 0.19743346E+04</rscale>
<asrwt>0</asrwt>
<pdfrwt beam="1">  1        2 0.22041091E+00 0.19743346E+04</pdfrwt>
<pdfrwt beam="2">  1       -2 0.90230290E-01 0.19743346E+04</pdfrwt>
<totfact> 0.13620843E+01</totfact>
</mgrwt>
</event>
<event>
 8    1  0.7326756E-052  0.1803817E+04  0.7818608E-02  0.8704272E-01
         -2   -1    0    0    0  501 -0.00000000000E+00  0.00000000000E+00  0.83933035324E+03  0.83933035324E+03  0.25500000000E-02 0. -1.
          2   -1    0    0  501    0  0.00000000000E+00 -0.00000000000E+00 -0.96915234883E+03  0.96915234883E+03  0.25500000000E-02 0.  1.
     200001    2    1    2    0    0  0.27803810147E+02 -0.58658088759E+03 -0.36876228513E+03  0.92660308926E+03  0.61461977884E+03 0.  0.
    5000001    2    3    3    0    0  0.69902772932E+02 -0.65017796378E+03 -0.15237249233E+03  0.67591911850E+03  0.77662707238E+02 0.  0.
        -11    1    4    4    0    0  0.55229178993E+02 -0.35940368833E+03 -0.11188335716E+03  0.38044600012E+03  0.51100000000E-03 0. -1.
     200002    1    4    4    0    0  0.14673593939E+02 -0.29077427545E+03 -0.40489135170E+02  0.29547311838E+03  0.30000000000E+02 0. -1.
     200000    1    3    3    0    0 -0.42098962784E+02  0.63597076181E+02 -0.21638979279E+03  0.25068397075E+03  0.10100000000E+03 0.  1.
    -200001    1    1    2    0    0 -0.27803810147E+02  0.58658088759E+03  0.23894028954E+03  0.88187961282E+03  0.61300000000E+03 0.  1.
<mgrwt>
<rscale>  0 0.18038170E+04</rscale>
<asrwt>0</asrwt>
<pdfrwt beam="1">  1        2 0.13845033E+00 0.18038170E+04</pdfrwt>
<pdfrwt beam="2">  1       -2 0.11990434E+00 0.18038170E+04</pdfrwt>
<totfact> 0.14789621E+01</totfact>
</mgrwt>
</event>
<event>
 8    1  0.7326756E-052  0.1707161E+04  0.7818608E-02  0.8757291E-01
         -2   -1    0    0    0  501 -0.00000000000E+00  0.00000000000E+00  0.32446948417E+03  0.32446948418E+03  0.25500000000E-02 0. -1.
          2   -1    0    0  501    0  0.00000000000E+00 -0.00000000000E+00 -0.22455096876E+04  0.22455096876E+04  0.25500000000E-02 0.  1.
     200001    2    1    2    0    0  0.18510662507E+03  0.31628406304E+03 -0.16642289095E+04  0.18110186248E+04  0.61305018147E+03 0.  0.
    5000001    2    3    3    0    0  0.20725206584E+03  0.40314775943E+03 -0.69900345756E+03  0.83639208332E+03  0.73921232581E+02 0.  0.
        -11    1    4    4    0    0  0.21009187331E+02  0.96749616667E+02 -0.16680489230E+03  0.19397357132E+03  0.51100000000E-03 0. -1.
     200002    1    4    4    0    0  0.18624287851E+03  0.30639814276E+03 -0.53219856526E+03  0.64241851200E+03  0.30000000000E+02 0. -1.
     200000    1    3    3    0    0 -0.22145440774E+02 -0.86863696393E+02 -0.96522545195E+03  0.97462654149E+03  0.10100000000E+03 0.  1.
    -200001    1    1    2    0    0 -0.18510662507E+03 -0.31628406304E+03 -0.25681129393E+03  0.75896054697E+03  0.61300000000E+03 0. -1.
<mgrwt>
<rscale>  0 0.17071606E+04</rscale>
<asrwt>0</asrwt>
<pdfrwt beam="1">  1        2 0.32078709E+00 0.17071606E+04</pdfrwt>
<pdfrwt beam="2">  1       -2 0.46352784E-01 0.17071606E+04</pdfrwt>
<totfact> 0.25201643E+01</totfact>
</mgrwt>
</event>
<event>
 8    1  0.7326756E-052  0.1314973E+04  0.7818608E-02  0.9017775E-01
          2   -1    0    0  501    0  0.00000000000E+00  0.00000000000E+00  0.82838279559E+03  0.82838279560E+03  0.25500000000E-02 0.  1.
         -2   -1    0    0    0  501 -0.00000000000E+00 -0.00000000000E+00 -0.52184649875E+03  0.52184649875E+03  0.25500000000E-02 0. -1.
     200001    2    1    2    0    0 -0.64176471567E+02  0.60892829114E+02  0.37975466150E+03  0.72656553473E+03  0.61307203263E+03 0.  0.
    5000001    2    3    3    0    0 -0.29480941702E+03  0.60588297935E+02  0.35054411274E+03  0.47309777657E+03  0.10176834974E+03 0.  0.
        -11    1    4    4    0    0 -0.17267612304E+03  0.66260795749E+02  0.25521133662E+03  0.31518306246E+03  0.51100000000E-03 0. -1.
     200002    1    4    4    0    0 -0.12213329398E+03 -0.56724978147E+01  0.95332776114E+02  0.15791471411E+03  0.30000000000E+02 0. -1.
     200000    1    3    3    0    0  0.23063294545E+03  0.30453117950E+00  0.29210548759E+02  0.25346775816E+03  0.10100000000E+03 0. -1.
    -200001    1    1    2    0    0  0.64176471567E+02 -0.60892829114E+02 -0.73218364652E+02  0.62366375962E+03  0.61300000000E+03 0. -1.
<mgrwt>
<rscale>  0 0.13149732E+04</rscale>
<asrwt>0</asrwt>
<pdfrwt beam="1">  1        2 0.11834040E+00 0.13149732E+04</pdfrwt>
<pdfrwt beam="2">  1       -2 0.74549500E-01 0.13149732E+04</pdfrwt>
<totfact> 0.57642757E+01</totfact>
</mgrwt>
</event>
<event>
 8    1  0.7326756E-052  0.1568413E+04  0.7818608E-02  0.8840191E-01
          2   -1    0    0  501    0  0.00000000000E+00  0.00000000000E+00  0.23627864832E+04  0.23627864832E+04  0.25500000000E-02 0.  1.
         -2   -1    0    0    0  501 -0.00000000000E+00 -0.00000000000E+00 -0.26027744662E+03  0.26027744663E+03  0.25500000000E-02 0. -1.
     200001    2    1    2    0    0 -0.42833816348E+02  0.26999327590E+03  0.17280457594E+04  0.18544789633E+04  0.61499510064E+03 0.  0.
    5000001    2    3    3    0    0  0.43126618503E+02  0.34525063668E+03  0.16393961631E+04  0.16780912720E+04  0.85513918679E+02 0.  0.
        -11    1    4    4    0    0  0.45094998261E+02  0.23484006168E+03  0.97387156471E+03  0.10028006970E+04  0.51100000000E-03 0. -1.
     200002    1    4    4    0    0 -0.19683797578E+01  0.11041057501E+03  0.66552459836E+03  0.67529057495E+03  0.30000000000E+02 0. -1.
     200000    1    3    3    0    0 -0.85960434851E+02 -0.75257360781E+02  0.88649596344E+02  0.17638769130E+03  0.10100000000E+03 0. -1.
    -200001    1    1    2    0    0  0.42833816348E+02 -0.26999327590E+03  0.37446327718E+03  0.76858496655E+03  0.61300000000E+03 0. -1.
<mgrwt>
<rscale>  0 0.15684133E+04</rscale>
<asrwt>0</asrwt>
<pdfrwt beam="1">  1        2 0.33754089E+00 0.15684133E+04</pdfrwt>
<pdfrwt beam="2">  1       -2 0.37182497E-01 0.15684133E+04</pdfrwt>
<totfact> 0.34193032E+01</totfact>
</mgrwt>
</event>
<event>
 8    1  0.7326756E-052  0.1364188E+04  0.7818608E-02  0.8980157E-01
          2   -1    0    0  501    0  0.00000000000E+00  0.00000000000E+00  0.33314553048E+04  0.33314553048E+04  0.25500000000E-02 0.  1.
         -2   -1    0    0    0  501 -0.00000000000E+00 -0.00000000000E+00 -0.13965426551E+03  0.13965426553E+03  0.25500000000E-02 0. -1.
     200001    2    1    2    0    0  0.17602880340E+03  0.12390534902E+03  0.10718213013E+04  0.12538090123E+04  0.61391975230E+03 0.  0.
    5000001    2    3    3    0    0  0.13239790229E+02  0.33851057717E+03  0.65832767047E+03  0.75008919980E+03  0.12030703662E+03 0.  0.
        -11    1    4    4    0    0  0.56058509710E+02  0.25094469732E+03  0.48664256387E+03  0.55039693186E+03  0.51100000000E-03 0. -1.
     200002    1    4    4    0    0 -0.42818719481E+02  0.87565879849E+02  0.17168510660E+03  0.19969226795E+03  0.30000000000E+02 0. -1.
     200000    1    3    3    0    0  0.16278901317E+03 -0.21460522815E+03  0.41349363083E+03  0.50371981249E+03  0.10100000000E+03 0.  1.
    -200001    1    1    2    0    0 -0.17602880340E+03 -0.12390534902E+03  0.21199797380E+04  0.22173005581E+04  0.61300000000E+03 0.  1.
<mgrwt>
<rscale>  0 0.13641876E+04</rscale>
<asrwt>0</asrwt>
<pdfrwt beam="1">  1        2 0.47592221E+00 0.13641876E+04</pdfrwt>
<pdfrwt beam="2">  1       -2 0.19950608E-01 0.13641876E+04</pdfrwt>
<totfact> 0.32224421E+01</totfact>
</mgrwt>
</event>
<event>
 8    1  0.7326756E-052  0.1895257E+04  0.7818608E-02  0.8657221E-01
          2   -1    0    0  501    0  0.00000000000E+00  0.00000000000E+00  0.15291735139E+04  0.15291735139E+04  0.25500000000E-02 0.  1.
         -2   -1    0    0    0  501 -0.00000000000E+00 -0.00000000000E+00 -0.58724516747E+03  0.58724516747E+03  0.25500000000E-02 0. -1.
     200001    2    1    2    0    0  0.22247499072E+03 -0.37670620673E+01 -0.29777933865E+03  0.71564980082E+03  0.61153314762E+03 0.  0.
    5000001    2    3    3    0    0  0.13023711057E+03 -0.27065004635E+03 -0.42350538421E+02  0.32172185586E+03  0.10722980868E+03 0.  0.
        -11    1    4    4    0    0  0.82549429609E+02 -0.13850771501E+03  0.24822462133E+02  0.16314089025E+03  0.51100000000E-03 0. -1.
     200002    1    4    4    0    0  0.47687680966E+02 -0.13214233135E+03 -0.67173000554E+02  0.15858096561E+03  0.30000000000E+02 0. -1.
     200000    1    3    3    0    0  0.92237880144E+02  0.26688298429E+03 -0.25542880023E+03  0.39392794497E+03  0.10100000000E+03 0. -1.
    -200001    1    1    2    0    0 -0.22247499072E+03  0.37670620673E+01  0.12397076851E+04  0.14007688806E+04  0.61300000000E+03 0.  1.
<mgrwt>
<rscale>  0 0.18952570E+04</rscale>
<asrwt>0</asrwt>
<pdfrwt beam="1">  1        2 0.21845336E+00 0.18952570E+04</pdfrwt>
<pdfrwt beam="2">  1       -2 0.83892166E-01 0.18952570E+04</pdfrwt>
<totfact> 0.16464528E+01</totfact>
</mgrwt>
</event>
<event>
 8    1  0.7326756E-052  0.1302756E+04  0.7818608E-02  0.9027382E-01
          2   -1    0    0  501    0  0.00000000000E+00  0.00000000000E+00  0.32993396323E+04  0.32993396323E+04  0.25500000000E-02 0.  1.
         -2   -1    0    0    0  501 -0.00000000000E+00 -0.00000000000E+00 -0.12859954790E+03  0.12859954792E+03  0.25500000000E-02 0. -1.
     200001    2    1    2    0    0  0.96608480270E+02 -0.56243845740E+02  0.10925893440E+04  0.12583825277E+04  0.61423004061E+03 0.  0.
    5000001    2    3    3    0    0  0.16041763913E+03 -0.29553359890E+03  0.72708105334E+03  0.80547138272E+03  0.84043817308E+02 0.  0.
        -11    1    4    4    0    0 -0.80697676378E-01 -0.42828828054E+02  0.12997525330E+03  0.13684985019E+03  0.51100000000E-03 0. -1.
     200002    1    4    4    0    0  0.16049833681E+03 -0.25270477084E+03  0.59710580003E+03  0.66862153253E+03  0.30000000000E+02 0. -1.
     200000    1    3    3    0    0 -0.63809158863E+02  0.23928975316E+03  0.36550829068E+03  0.45291114502E+03  0.10100000000E+03 0.  1.
    -200001    1    1    2    0    0 -0.96608480270E+02  0.56243845740E+02  0.20781507404E+04  0.21695566525E+04  0.61300000000E+03 0.  1.
<mgrwt>
<rscale>  0 0.13027564E+04</rscale>
<asrwt>0</asrwt>
<pdfrwt beam="1">  1        2 0.47133425E+00 0.13027564E+04</pdfrwt>
<pdfrwt beam="2">  1       -2 0.18371363E-01 0.13027564E+04</pdfrwt>
<totfact> 0.39096849E+01</totfact>
</mgrwt>
</event>
<event>
 8    1  0.7326756E-052  0.1371080E+04  0.7818608E-02  0.8975022E-01
          2   -1    0    0  501    0  0.00000000000E+00  0.00000000000E+00  0.10804032139E+04  0.10804032139E+04  0.25500000000E-02 0.  1.
         -2   -1    0    0    0  501 -0.00000000000E+00 -0.00000000000E+00 -0.43499075059E+03  0.43499075059E+03  0.25500000000E-02 0. -1.
     200001    2    1    2    0    0  0.45505035182E+02 -0.10157892512E+03  0.63935856828E+03  0.89234128942E+03  0.61245784485E+03 0.  0.
    5000001    2    3    3    0    0  0.13521564968E+03  0.35533248176E+02  0.67748376863E+03  0.69612132784E+03  0.77812355502E+02 0.  0.
        -11    1    4    4    0    0  0.11859016320E+03  0.14431999267E+02  0.52359039557E+03  0.53704637765E+03  0.51100000000E-03 0. -1.
     200002    1    4    4    0    0  0.16625486481E+02  0.21101248909E+02  0.15389337306E+03  0.15907495019E+03  0.30000000000E+02 0. -1.
     200000    1    3    3    0    0 -0.89710614501E+02 -0.13711217330E+03 -0.38125200352E+02  0.19621996158E+03  0.10100000000E+03 0. -1.
    -200001    1    1    2    0    0 -0.45505035182E+02  0.10157892512E+03  0.60538950175E+01  0.62305267506E+03  0.61300000000E+03 0.  1.
<mgrwt>
<rscale>  0 0.13710805E+04</rscale>
<asrwt>0</asrwt>
<pdfrwt beam="1">  1        2 0.15434332E+00 0.13710805E+04</pdfrwt>
<pdfrwt beam="2">  1       -2 0.62141536E-01 0.13710805E+04</pdfrwt>
<totfact> 0.58913330E+01</totfact>
</mgrwt>
</event>
<event>
 8    1  0.7326756E-052  0.1291205E+04  0.7818608E-02  0.9036568E-01
          2   -1    0    0  501    0  0.00000000000E+00  0.00000000000E+00  0.12652356973E+04  0.12652356973E+04  0.25500000000E-02 0.  1.
         -2   -1    0    0    0  501 -0.00000000000E+00 -0.00000000000E+00 -0.32942707835E+03  0.32942707836E+03  0.25500000000E-02 0. -1.
     200001    2    1    2    0    0  0.89277787623E+02  0.10855755213E+03  0.28739292216E+03  0.69135375804E+03  0.61287850473E+03 0.  0.
    5000001    2    3    3    0    0  0.15513872991E+03 -0.11443574220E+03  0.36927068834E+03  0.42495435559E+03  0.84034507537E+02 0.  0.
        -11    1    4    4    0    0  0.73836338111E+02 -0.39672202874E+02  0.22934171747E+03  0.24417885223E+03  0.51100000000E-03 0. -1.
     200002    1    4    4    0    0  0.81302391794E+02 -0.74763539327E+02  0.13992897087E+03  0.18077550336E+03  0.30000000000E+02 0. -1.
     200000    1    3    3    0    0 -0.65860942283E+02  0.22299329433E+03 -0.81877766176E+02  0.26639940245E+03  0.10100000000E+03 0. -1.
    -200001    1    1    2    0    0 -0.89277787623E+02 -0.10855755213E+03  0.64841569681E+03  0.90330901764E+03  0.61300000000E+03 0. -1.
<mgrwt>
<rscale>  0 0.12912055E+04</rscale>
<asrwt>0</asrwt>
<pdfrwt beam="1">  1        2 0.18074796E+00 0.12912055E+04</pdfrwt>
<pdfrwt beam="2">  1       -2 0.47061011E-01 0.12912055E+04</pdfrwt>
<totfact> 0.82411647E+01</totfact>
</mgrwt>
</event>
<event>
 8    1  0.7326756E-052  0.1719958E+04  0.7818608E-02  0.8750063E-01
          2   -1    0    0  501    0  0.00000000000E+00  0.00000000000E+00  0.22154339077E+04  0.22154339077E+04  0.25500000000E-02 0. -1.
         -2   -1    0    0    0  501 -0.00000000000E+00 -0.00000000000E+00 -0.33382350084E+03  0.33382350085E+03  0.25500000000E-02 0.  1.
     200001    2    1    2    0    0  0.41599597876E+03  0.31724176922E+03  0.49582427495E+03  0.94617687474E+03  0.61295511433E+03 0.  0.
    5000001    2    3    3    0    0  0.50088520294E+03  0.23243167286E+03  0.16654994213E+03  0.58145572224E+03  0.73765877141E+02 0.  0.
        -11    1    4    4    0    0  0.14006555575E+03  0.43431458151E+02  0.22442650203E+02  0.14835202733E+03  0.51100000000E-03 0. -1.
     200002    1    4    4    0    0  0.36081964719E+03  0.18900021470E+03  0.14410729193E+03  0.43310369491E+03  0.30000000000E+02 0. -1.
     200000    1    3    3    0    0 -0.84889224179E+02  0.84810096362E+02  0.32927433282E+03  0.36472115250E+03  0.10100000000E+03 0. -1.
    -200001    1    1    2    0    0 -0.41599597876E+03 -0.31724176922E+03  0.13857861319E+04  0.16030805338E+04  0.61300000000E+03 0. -1.
<mgrwt>
<rscale>  0 0.17199580E+04</rscale>
<asrwt>0</asrwt>
<pdfrwt beam="1">  1        2 0.31649055E+00 0.17199580E+04</pdfrwt>
<pdfrwt beam="2">  1       -2 0.47689072E-01 0.17199580E+04</pdfrwt>
<totfact> 0.24641712E+01</totfact>
</mgrwt>
</event>
<event>
 8    1  0.7326756E-052  0.1333789E+04  0.7818608E-02  0.9003191E-01
         -2   -1    0    0    0  501 -0.00000000000E+00  0.00000000000E+00  0.33407251996E+03  0.33407251997E+03  0.25500000000E-02 0. -1.
          2   -1    0    0  501    0  0.00000000000E+00 -0.00000000000E+00 -0.13312931278E+04  0.13312931278E+04  0.25500000000E-02 0.  1.
     200001    2    1    2    0    0  0.17642473104E+03 -0.17480161626E+03 -0.60456458329E+03  0.89619138637E+03  0.61317157050E+03 0.  0.
    5000001    2    3    3    0    0 -0.25246158179E+02  0.20070974880E+03 -0.26870234141E+03  0.34420915987E+03  0.73193071388E+02 0.  0.
        -11    1    4    4    0    0  0.15558564214E+02  0.64517173453E+02 -0.57269246702E+02  0.87660146069E+02  0.51100000000E-03 0. -1.
     200002    1    4    4    0    0 -0.40804722393E+02  0.13619257535E+03 -0.21143309470E+03  0.25654901381E+03  0.30000000000E+02 0. -1.
     200000    1    3    3    0    0  0.20167088922E+03 -0.37551136506E+03 -0.33586224189E+03  0.55198222650E+03  0.10100000000E+03 0.  1.
    -200001    1    1    2    0    0 -0.17642473104E+03  0.17480161626E+03 -0.39265602454E+03  0.76917426139E+03  0.61300000000E+03 0. -1.
<mgrwt>
<rscale>  0 0.13337893E+04</rscale>
<asrwt>0</asrwt>
<pdfrwt beam="1">  1        2 0.19018473E+00 0.13337893E+04</pdfrwt>
<pdfrwt beam="2">  1       -2 0.47724646E-01 0.13337893E+04</pdfrwt>
<totfact> 0.73420742E+01</totfact>
</mgrwt>
</event>
<event>
 8    1  0.7326756E-052  0.1672186E+04  0.7818608E-02  0.8777389E-01
         -2   -1    0    0    0  501 -0.00000000000E+00  0.00000000000E+00  0.32154115591E+03  0.32154115592E+03  0.25500000000E-02 0. -1.
          2   -1    0    0  501    0  0.00000000000E+00 -0.00000000000E+00 -0.21740656601E+04  0.21740656601E+04  0.25500000000E-02 0.  1.
     200001    2    1    2    0    0  0.25695187496E+03  0.35098285770E+03 -0.37903244764E+03  0.84147227702E+03  0.61253307191E+03 0.  0.
    5000001    2    3    3    0    0  0.36463702868E+03  0.78353109146E+02 -0.37124058051E+03  0.53133555665E+03  0.73474708203E+02 0.  0.
        -11    1    4    4    0    0  0.21429066648E+03  0.34438023978E+02 -0.17734382212E+03  0.28028074940E+03  0.51100000000E-03 0. -1.
     200002    1    4    4    0    0  0.15034636220E+03  0.43915085168E+02 -0.19389675839E+03  0.25105480726E+03  0.30000000000E+02 0. -1.
     200000    1    3    3    0    0 -0.10768515372E+03  0.27262974855E+03 -0.77918671300E+01  0.31013672037E+03  0.10100000000E+03 0. -1.
    -200001    1    1    2    0    0 -0.25695187496E+03 -0.35098285770E+03 -0.14734920566E+04  0.16541345390E+04  0.61300000000E+03 0.  1.
<mgrwt>
<rscale>  0 0.16721861E+04</rscale>
<asrwt>0</asrwt>
<pdfrwt beam="1">  1        2 0.31058080E+00 0.16721861E+04</pdfrwt>
<pdfrwt beam="2">  1       -2 0.45934452E-01 0.16721861E+04</pdfrwt>
<totfact> 0.28020158E+01</totfact>
</mgrwt>
</event>
<event>
 8    1  0.7326756E-052  0.1746721E+04  0.7818608E-02  0.8735157E-01
          2   -1    0    0  501    0  0.00000000000E+00  0.00000000000E+00  0.40516062068E+04  0.40516062068E+04  0.25500000000E-02 0.  1.
         -2   -1    0    0    0  501 -0.00000000000E+00 -0.00000000000E+00 -0.18826076908E+03  0.18826076910E+03  0.25500000000E-02 0. -1.
     200001    2    1    2    0    0 -0.39312345550E+03  0.48118315849E+03  0.20019772186E+04  0.21840109667E+04  0.61311323237E+03 0.  0.
    5000001    2    3    3    0    0  0.56807624752E+02  0.27038077443E+03  0.10570644193E+04  0.11116598953E+04  0.20510891464E+03 0.  0.
        -11    1    4    4    0    0  0.10437284864E+03  0.22354108292E+03  0.95314115724E+03  0.98455186400E+03  0.51100000000E-03 0. -1.
     200002    1    4    4    0    0 -0.47565223890E+02  0.46839691506E+02  0.10392326207E+03  0.12710803131E+03  0.30000000000E+02 0. -1.
     200000    1    3    3    0    0 -0.44993108025E+03  0.21080238406E+03  0.94491279930E+03  0.10723510714E+04  0.10100000000E+03 0. -1.
    -200001    1    1    2    0    0  0.39312345550E+03 -0.48118315849E+03  0.18613682191E+04  0.20558560091E+04  0.61300000000E+03 0.  1.
<mgrwt>
<rscale>  0 0.17467209E+04</rscale>
<asrwt>0</asrwt>
<pdfrwt beam="1">  1        2 0.57880085E+00 0.17467209E+04</pdfrwt>
<pdfrwt beam="2">  1       -2 0.26894397E-01 0.17467209E+04</pdfrwt>
<totfact> 0.63334573E+00</totfact>
</mgrwt>
</event>
<event>
 8    1  0.7326756E-052  0.1293540E+04  0.7818608E-02  0.9034704E-01
          2   -1    0    0  501    0  0.00000000000E+00  0.00000000000E+00  0.14127179502E+04  0.14127179502E+04  0.25500000000E-02 0.  1.
         -2   -1    0    0    0  501 -0.00000000000E+00 -0.00000000000E+00 -0.29610390741E+03  0.29610390743E+03  0.25500000000E-02 0. -1.
     200001    2    1    2    0    0 -0.12200882995E+03 -0.11911497790E+03  0.40071227826E+03  0.75103332720E+03  0.61188740473E+03 0.  0.
    5000001    2    3    3    0    0 -0.89418843148E+02 -0.33395576702E+03  0.36571851297E+03  0.50886760808E+03  0.75326144113E+02 0.  0.
        -11    1    4    4    0    0 -0.42051647756E+01 -0.10304325339E+03  0.79727411845E+02  0.13035357947E+03  0.51100000000E-03 0. -1.
     200002    1    4    4    0    0 -0.85213678372E+02 -0.23091251362E+03  0.28599110113E+03  0.37851402861E+03  0.30000000000E+02 0. -1.
     200000    1    3    3    0    0 -0.32589986806E+02  0.21484078911E+03  0.34993765282E+02  0.24216571912E+03  0.10100000000E+03 0.  1.
    -200001    1    1    2    0    0  0.12200882995E+03  0.11911497790E+03  0.71590176449E+03  0.95778853039E+03  0.61300000000E+03 0.  1.
<mgrwt>
<rscale>  0 0.12935398E+04</rscale>
<asrwt>0</asrwt>
<pdfrwt beam="1">  1        2 0.20181685E+00 0.12935398E+04</pdfrwt>
<pdfrwt beam="2">  1       -2 0.42300557E-01 0.12935398E+04</pdfrwt>
<totfact> 0.84586031E+01</totfact>
</mgrwt>
</event>
<event>
 8    1  0.7326756E-052  0.1292466E+04  0.7818608E-02  0.9035561E-01
          2   -1    0    0  501    0  0.00000000000E+00  0.00000000000E+00  0.53252399407E+03  0.53252399407E+03  0.25500000000E-02 0.  1.
         -2   -1    0    0    0  501 -0.00000000000E+00 -0.00000000000E+00 -0.78422224044E+03  0.78422224044E+03  0.25500000000E-02 0. -1.
     200001    2    1    2    0    0 -0.14783846073E+02  0.45305881991E+02 -0.32675059418E+03  0.69733277005E+03  0.61419529170E+03 0.  0.
    5000001    2    3    3    0    0  0.24117493126E+03 -0.90429428574E+02 -0.29621874998E+02  0.27021985057E+03  0.76147771761E+02 0.  0.
        -11    1    4    4    0    0  0.14458888454E+03 -0.23544936700E+02 -0.26856793395E+02  0.14893487479E+03  0.51100000000E-03 0. -1.
     200002    1    4    4    0    0  0.96586046716E+02 -0.66884491873E+02 -0.27650816032E+01  0.12128497578E+03  0.30000000000E+02 0. -1.
     200000    1    3    3    0    0 -0.25595877733E+03  0.13573531056E+03 -0.29712871918E+03  0.42711291948E+03  0.10100000000E+03 0. -1.
    -200001    1    1    2    0    0  0.14783846073E+02 -0.45305881991E+02  0.75052347804E+02  0.61941346446E+03  0.61300000000E+03 0.  1.
<mgrwt>
<rscale>  0 0.12924661E+04</rscale>
<asrwt>0</asrwt>
<pdfrwt beam="1">  1        2 0.76074857E-01 0.12924661E+04</pdfrwt>
<pdfrwt beam="2">  1       -2 0.11203175E+00 0.12924661E+04</pdfrwt>
<totfact> 0.38525183E+01</totfact>
</mgrwt>
</event>
<event>
 8    1  0.7326756E-052  0.2103480E+04  0.7818608E-02  0.8559712E-01
         -2   -1    0    0    0  501 -0.00000000000E+00  0.00000000000E+00  0.40417266366E+03  0.40417266367E+03  0.25500000000E-02 0. -1.
          2   -1    0    0  501    0  0.00000000000E+00 -0.00000000000E+00 -0.27368416954E+04  0.27368416954E+04  0.25500000000E-02 0.  1.
     200001    2    1    2    0    0  0.57739810683E+03 -0.44675262126E+03 -0.18305159310E+04  0.20635621722E+04  0.61198348569E+03 0.  0.
    5000001    2    3    3    0    0  0.39157327477E+03 -0.46365930571E+02 -0.13162899369E+04  0.13783835508E+04  0.10882364674E+03 0.  0.
        -11    1    4    4    0    0  0.11312675250E+03 -0.13487067419E+02 -0.23845411855E+03  0.26427245367E+03  0.51100000000E-03 0. -1.
     200002    1    4    4    0    0  0.27844652227E+03 -0.32878863152E+02 -0.10778358184E+04  0.11141110971E+04  0.30000000000E+02 0. -1.
     200000    1    3    3    0    0  0.18582483206E+03 -0.40038669069E+03 -0.51422599405E+03  0.68517862142E+03  0.10100000000E+03 0. -1.
    -200001    1    1    2    0    0 -0.57739810683E+03  0.44675262126E+03 -0.50215310079E+03  0.10774521869E+04  0.61300000000E+03 0. -1.
<mgrwt>
<rscale>  0 0.21034796E+04</rscale>
<asrwt>0</asrwt>
<pdfrwt beam="1">  1        2 0.39097738E+00 0.21034796E+04</pdfrwt>
<pdfrwt beam="2">  1       -2 0.57738953E-01 0.21034796E+04</pdfrwt>
<totfact> 0.85569775E+00</totfact>
</mgrwt>
</event>
<event>
 8    1  0.7326756E-052  0.1318124E+04  0.7818608E-02  0.9015315E-01
          2   -1    0    0  501    0  0.00000000000E+00  0.00000000000E+00  0.51748595085E+03  0.51748595086E+03  0.25500000000E-02 0.  1.
         -2   -1    0    0    0  501 -0.00000000000E+00 -0.00000000000E+00 -0.83937085945E+03  0.83937085946E+03  0.25500000000E-02 0. -1.
     200001    2    1    2    0    0 -0.12736460143E+03 -0.86663552251E+02  0.25116774291E+02  0.63580793478E+03  0.61635100762E+03 0.  0.
    5000001    2    3    3    0    0 -0.20592869844E+03 -0.25620574753E+03 -0.66024776114E+02  0.40467019331E+03  0.22660688512E+03 0.  0.
        -11    1    4    4    0    0  0.40532734274E+02 -0.40134629795E+02  0.26327619528E+02  0.62823837886E+02  0.51100000000E-03 0. -1.
     200002    1    4    4    0    0 -0.24646143272E+03 -0.21607111774E+03 -0.92352395642E+02  0.34184635543E+03  0.30000000000E+02 0. -1.
     200000    1    3    3    0    0  0.78564097007E+02  0.16954219528E+03  0.91141550405E+02  0.23113774147E+03  0.10100000000E+03 0.  1.
    -200001    1    1    2    0    0  0.12736460143E+03  0.86663552251E+02 -0.34700168289E+03  0.72104887554E+03  0.61300000000E+03 0. -1.
<mgrwt>
<rscale>  0 0.13181239E+04</rscale>
<asrwt>0</asrwt>
<pdfrwt beam="1">  1        2 0.73926565E-01 0.13181239E+04</pdfrwt>
<pdfrwt beam="2">  1       -2 0.11991012E+00 0.13181239E+04</pdfrwt>
<totfact> 0.33648968E+01</totfact>
</mgrwt>
</event>
<event>
 8    1  0.7326756E-052  0.1302012E+04  0.7818608E-02  0.9027971E-01
          2   -1    0    0  501    0  0.00000000000E+00  0.00000000000E+00  0.15607803907E+04  0.15607803907E+04  0.25500000000E-02 0.  1.
         -2   -1    0    0    0  501 -0.00000000000E+00 -0.00000000000E+00 -0.27153658879E+03  0.27153658880E+03  0.25500000000E-02 0. -1.
     200001    2    1    2    0    0 -0.53585829701E+02 -0.59390836413E+02  0.34720890769E+03  0.70555282737E+03  0.60897623437E+03 0.  0.
    5000001    2    3    3    0    0 -0.88866810442E+02 -0.23456847271E+03  0.41222859622E+03  0.49023791437E+03  0.86493460780E+02 0.  0.
        -11    1    4    4    0    0 -0.32045469940E+02 -0.13141858144E+02  0.59262776749E+02  0.68641804226E+02  0.51100000000E-03 0. -1.
     200002    1    4    4    0    0 -0.56821340502E+02 -0.22142661457E+03  0.35296581947E+03  0.42159611015E+03  0.30000000000E+02 0. -1.
     200000    1    3    3    0    0  0.35280980741E+02  0.17517763630E+03 -0.65019688528E+02  0.21531491299E+03  0.10100000000E+03 0. -1.
    -200001    1    1    2    0    0  0.53585829701E+02  0.59390836413E+02  0.94203489417E+03  0.11267641521E+04  0.61300000000E+03 0.  1.
<mgrwt>
<rscale>  0 0.13020123E+04</rscale>
<asrwt>0</asrwt>
<pdfrwt beam="1">  1        2 0.22296863E+00 0.13020123E+04</pdfrwt>
<pdfrwt beam="2">  1       -2 0.38790941E-01 0.13020123E+04</pdfrwt>
<totfact> 0.83521348E+01</totfact>
</mgrwt>
</event>
<event>
 8    1  0.7326756E-052  0.1936030E+04  0.7818608E-02  0.8637127E-01
         -2   -1    0    0    0  501 -0.00000000000E+00  0.00000000000E+00  0.82778538994E+03  0.82778538994E+03  0.25500000000E-02 0. -1.
          2   -1    0    0  501    0  0.00000000000E+00 -0.00000000000E+00 -0.11320005167E+04  0.11320005167E+04  0.25500000000E-02 0.  1.
     200001    2    1    2    0    0  0.73326232772E+03 -0.80070084107E+02 -0.20391642018E+02  0.95958111257E+03  0.61342907733E+03 0.  0.
    5000001    2    3    3    0    0  0.74780864944E+03 -0.12516560862E+03  0.10662526114E+02  0.84377712661E+03  0.37008369886E+03 0.  0.
        -11    1    4    4    0    0  0.16485983116E+02 -0.55160556823E+02  0.87238085616E+02  0.10452252509E+03  0.51100000000E-03 0. -1.
     200002    1    4    4    0    0  0.73132266632E+03 -0.70005051801E+02 -0.76575559502E+02  0.73925460152E+03  0.30000000000E+02 0. -1.
     200000    1    3    3    0    0 -0.14546321719E+02  0.45095524516E+02 -0.31054168132E+02  0.11580398596E+03  0.10100000000E+03 0.  1.
    -200001    1    1    2    0    0 -0.73326232772E+03  0.80070084107E+02 -0.28382348477E+03  0.10002047941E+04  0.61300000000E+03 0. -1.
<mgrwt>
<rscale>  0 0.19360305E+04</rscale>
<asrwt>0</asrwt>
<pdfrwt beam="1">  1        2 0.16171436E+00 0.19360305E+04</pdfrwt>
<pdfrwt beam="2">  1       -2 0.11825506E+00 0.19360305E+04</pdfrwt>
<totfact> 0.12076920E+01</totfact>
</mgrwt>
</event>
<event>
 8    1  0.7326756E-052  0.1534360E+04  0.7818608E-02  0.8861920E-01
          2   -1    0    0  501    0  0.00000000000E+00  0.00000000000E+00  0.18691588049E+04  0.18691588049E+04  0.25500000000E-02 0.  1.
         -2   -1    0    0    0  501 -0.00000000000E+00 -0.00000000000E+00 -0.31488254323E+03  0.31488254324E+03  0.25500000000E-02 0. -1.
     200001    2    1    2    0    0 -0.10454279307E+03 -0.43104523753E+03  0.60033658410E+03  0.96646215120E+03  0.61393475477E+03 0.  0.
    5000001    2    3    3    0    0 -0.23438676411E+03 -0.47145299952E+03  0.59119928613E+03  0.79682508491E+03  0.90600960616E+02 0.  0.
        -11    1    4    4    0    0 -0.19790435373E+03 -0.38837569472E+03  0.45161443643E+03  0.62766026851E+03  0.51100000000E-03 0. -1.
     200002    1    4    4    0    0 -0.36482410381E+02 -0.83077304807E+02  0.13958484970E+03  0.16916481639E+03  0.30000000000E+02 0. -1.
     200000    1    3    3    0    0  0.12984397104E+03  0.40407761999E+02  0.91372979657E+01  0.16963706629E+03  0.10100000000E+03 0. -1.
    -200001    1    1    2    0    0  0.10454279307E+03  0.43104523753E+03  0.95393967757E+03  0.12175791969E+04  0.61300000000E+03 0.  1.
<mgrwt>
<rscale>  0 0.15343604E+04</rscale>
<asrwt>0</asrwt>
<pdfrwt beam="1">  1        2 0.26702268E+00 0.15343604E+04</pdfrwt>
<pdfrwt beam="2">  1       -2 0.44983221E-01 0.15343604E+04</pdfrwt>
<totfact> 0.42392386E+01</totfact>
</mgrwt>
</event>
<event>
 8    1  0.7326756E-052  0.2078501E+04  0.7818608E-02  0.8570773E-01
          2   -1    0    0  501    0  0.00000000000E+00  0.00000000000E+00  0.10480177190E+04  0.10480177190E+04  0.25500000000E-02 0.  1.
         -2   -1    0    0    0  501 -0.00000000000E+00 -0.00000000000E+00 -0.10305569800E+04  0.10305569800E+04  0.25500000000E-02 0. -1.
     200001    2    1    2    0    0 -0.58021381498E+03 -0.51397750552E+03  0.33076580482E+03  0.10418731934E+04  0.61259512429E+03 0.  0.
    5000001    2    3    3    0    0 -0.96021110394E+02 -0.41677006280E+03 -0.78347533095E+01  0.43463090237E+03  0.76975964118E+02 0.  0.
        -11    1    4    4    0    0 -0.32320226428E+02 -0.75783403086E+02 -0.24793956473E+02  0.86037558645E+02  0.51100000000E-03 0. -1.
     200002    1    4    4    0    0 -0.63700883967E+02 -0.34098665971E+03  0.16959203164E+02  0.34859334373E+03  0.30000000000E+02 0. -1.
     200000    1    3    3    0    0 -0.48419270459E+03 -0.97207442720E+02  0.33860055813E+03  0.60724229107E+03  0.10100000000E+03 0. -1.
    -200001    1    1    2    0    0  0.58021381498E+03  0.51397750552E+03 -0.31330506578E+03  0.10367015055E+04  0.61300000000E+03 0. -1.
<mgrwt>
<rscale>  0 0.20785014E+04</rscale>
<asrwt>0</asrwt>
<pdfrwt beam="1">  1        2 0.14971682E+00 0.20785014E+04</pdfrwt>
<pdfrwt beam="2">  1       -2 0.14722242E+00 0.20785014E+04</pdfrwt>
<totfact> 0.76595246E+00</totfact>
</mgrwt>
</event>
<event>
 8    1  0.7326756E-052  0.1596409E+04  0.7818608E-02  0.8822757E-01
         -2   -1    0    0    0  501 -0.00000000000E+00  0.00000000000E+00  0.63769948053E+03  0.63769948053E+03  0.25500000000E-02 0. -1.
          2   -1    0    0  501    0  0.00000000000E+00 -0.00000000000E+00 -0.99910710328E+03  0.99910710328E+03  0.25500000000E-02 0.  1.
     200001    2    1    2    0    0  0.40120325375E+03  0.27876843085E+03 -0.29065458005E+02  0.78539821920E+03  0.61427166060E+03 0.  0.
    5000001    2    3    3    0    0  0.28973358103E+02 -0.15526542735E+03 -0.15133456325E+02  0.20459223959E+03  0.12915941541E+03 0.  0.
        -11    1    4    4    0    0 -0.38668109475E+02 -0.16230545238E+02  0.14415741301E+02  0.44344863136E+02  0.51100000000E-03 0. -1.
     200002    1    4    4    0    0  0.67641467577E+02 -0.13903488211E+03 -0.29549197626E+02  0.16024737645E+03  0.30000000000E+02 0. -1.
     200000    1    3    3    0    0  0.37222989565E+03  0.43403385820E+03 -0.13932001680E+02  0.58080597961E+03  0.10100000000E+03 0. -1.
    -200001    1    1    2    0    0 -0.40120325375E+03 -0.27876843085E+03 -0.33234216475E+03  0.85140836461E+03  0.61300000000E+03 0.  1.
<mgrwt>
<rscale>  0 0.15964086E+04</rscale>
<asrwt>0</asrwt>
<pdfrwt beam="1">  1        2 0.14272959E+00 0.15964086E+04</pdfrwt>
<pdfrwt beam="2">  1       -2 0.91099925E-01 0.15964086E+04</pdfrwt>
<totfact> 0.27785496E+01</totfact>
</mgrwt>
</event>
<event>
 8    1  0.7326756E-052  0.1407905E+04  0.7818608E-02  0.8948116E-01
         -2   -1    0    0    0  501 -0.00000000000E+00  0.00000000000E+00  0.15438068335E+04  0.15438068335E+04  0.25500000000E-02 0. -1.
          2   -1    0    0  501    0  0.00000000000E+00 -0.00000000000E+00 -0.32099173380E+03  0.32099173381E+03  0.25500000000E-02 0.  1.
     200001    2    1    2    0    0  0.20797670132E+03  0.20945612583E+03  0.83898514181E+03  0.10836323792E+04  0.61906129587E+03 0.  0.
    5000001    2    3    3    0    0  0.19504374156E+03 -0.16411761752E+03  0.37799962031E+03  0.48160808214E+03  0.15519657961E+03 0.  0.
        -11    1    4    4    0    0  0.15202421305E+03 -0.80566250867E+02  0.13291060018E+03  0.21741092376E+03  0.51100000000E-03 0. -1.
     200002    1    4    4    0    0  0.43019528514E+02 -0.83551366655E+02  0.24508902013E+03  0.26419715837E+03  0.30000000000E+02 0. -1.
     200000    1    3    3    0    0  0.12932959758E+02  0.37357374336E+03  0.46098552150E+03  0.60202429702E+03  0.10100000000E+03 0.  1.
    -200001    1    1    2    0    0 -0.20797670132E+03 -0.20945612583E+03  0.38382995790E+03  0.78116618816E+03  0.61300000000E+03 0.  1.
<mgrwt>
<rscale>  0 0.14079052E+04</rscale>
<asrwt>0</asrwt>
<pdfrwt beam="1">  1        2 0.45855962E-01 0.14079052E+04</pdfrwt>
<pdfrwt beam="2">  1       -2 0.22054384E+00 0.14079052E+04</pdfrwt>
<totfact> 0.10564199E+01</totfact>
</mgrwt>
</event>
<event>
 8    1  0.7326756E-052  0.1342474E+04  0.7818608E-02  0.8996545E-01
          2   -1    0    0  501    0  0.00000000000E+00  0.00000000000E+00  0.51602951902E+03  0.51602951903E+03  0.25500000000E-02 0.  1.
         -2   -1    0    0    0  501 -0.00000000000E+00 -0.00000000000E+00 -0.87312680960E+03  0.87312680960E+03  0.25500000000E-02 0. -1.
     200001    2    1    2    0    0  0.76149063214E+02  0.23496073076E+03 -0.29994530274E+03  0.72580078705E+03  0.61303700787E+03 0.  0.
    5000001    2    3    3    0    0  0.27293786495E+03 -0.17022284278E+02 -0.26643882395E+03  0.38883646182E+03  0.73615968682E+02 0.  0.
        -11    1    4    4    0    0  0.20221549041E+03 -0.11074692823E+02 -0.16365433899E+03  0.26037760283E+03  0.51100000000E-03 0. -1.
     200002    1    4    4    0    0  0.70722374540E+02 -0.59475914556E+01 -0.10278448496E+03  0.12845885899E+03  0.30000000000E+02 0. -1.
     200000    1    3    3    0    0 -0.19678880174E+03  0.25198301504E+03 -0.33506478783E+02  0.33696432523E+03  0.10100000000E+03 0. -1.
    -200001    1    1    2    0    0 -0.76149063214E+02 -0.23496073076E+03 -0.57151987842E+02  0.66335554158E+03  0.61300000000E+03 0.  1.
<mgrwt>
<rscale>  0 0.13424741E+04</rscale>
<asrwt>0</asrwt>
<pdfrwt beam="1">  1        2 0.73718503E-01 0.13424741E+04</pdfrwt>
<pdfrwt beam="2">  1       -2 0.12473240E+00 0.13424741E+04</pdfrwt>
<totfact> 0.30538282E+01</totfact>
</mgrwt>
</event>
<event>
 8    1  0.7326756E-052  0.1604398E+04  0.7818608E-02  0.8817850E-01
         -2   -1    0    0    0  501 -0.00000000000E+00  0.00000000000E+00  0.64739771706E+03  0.64739771707E+03  0.25500000000E-02 0. -1.
          2   -1    0    0  501    0  0.00000000000E+00 -0.00000000000E+00 -0.99401572688E+03  0.99401572689E+03  0.25500000000E-02 0.  1.
     200001    2    1    2    0    0  0.19316738246E+03  0.42896222162E+03  0.47820025850E+02  0.77384639224E+03  0.61255959603E+03 0.  0.
    5000001    2    3    3    0    0  0.12232944142E+03 -0.67585368526E+02  0.18248827812E+03  0.24477734066E+03  0.84152840551E+02 0.  0.
        -11    1    4    4    0    0  0.65317516698E+02 -0.29692112999E+02  0.35889485356E+02  0.80225025530E+02  0.51100000000E-03 0. -1.
     200002    1    4    4    0    0  0.57011924723E+02 -0.37893255527E+02  0.14659879276E+03  0.16455231513E+03  0.30000000000E+02 0. -1.
     200000    1    3    3    0    0  0.70837941043E+02  0.49654759015E+03 -0.13466825227E+03  0.52906905158E+03  0.10100000000E+03 0.  1.
    -200001    1    1    2    0    0 -0.19316738246E+03 -0.42896222162E+03 -0.39443803567E+03  0.86756705171E+03  0.61300000000E+03 0.  1.
<mgrwt>
<rscale>  0 0.16043983E+04</rscale>
<asrwt>0</asrwt>
<pdfrwt beam="1">  1        2 0.14200225E+00 0.16043983E+04</pdfrwt>
<pdfrwt beam="2">  1       -2 0.92485388E-01 0.16043983E+04</pdfrwt>
<totfact> 0.27009575E+01</totfact>
</mgrwt>
</event>
<event>
 8    1  0.7326756E-052  0.1315828E+04  0.7818608E-02  0.9017107E-01
         -2   -1    0    0    0  501 -0.00000000000E+00  0.00000000000E+00  0.59972381195E+03  0.59972381195E+03  0.25500000000E-02 0. -1.
          2   -1    0    0  501    0  0.00000000000E+00 -0.00000000000E+00 -0.72175052292E+03  0.72175052292E+03  0.25500000000E-02 0.  1.
     200001    2    1    2    0    0  0.45644687447E+02 -0.20104703273E+03 -0.18039801681E+03  0.67210575217E+03  0.61374208815E+03 0.  0.
    5000001    2    3    3    0    0 -0.91362869662E+02 -0.33750383703E+03  0.45508465702E+02  0.35805755684E+03  0.62275031866E+02 0.  0.
        -11    1    4    4    0    0 -0.45508190466E+02 -0.12727149014E+03 -0.40377807324E+01  0.13522326455E+03  0.51100000000E-03 0. -1.
     200002    1    4    4    0    0 -0.45854679196E+02 -0.21023234689E+03  0.49546246434E+02  0.22283429229E+03  0.30000000000E+02 0. -1.
     200000    1    3    3    0    0  0.13700755711E+03  0.13645680431E+03 -0.22590648251E+03  0.31404819533E+03  0.10100000000E+03 0.  1.
    -200001    1    1    2    0    0 -0.45644687447E+02  0.20104703273E+03  0.58371305840E+02  0.64936858271E+03  0.61300000000E+03 0.  1.
<mgrwt>
<rscale>  0 0.13158282E+04</rscale>
<asrwt>0</asrwt>
<pdfrwt beam="1">  1        2 0.10310722E+00 0.13158282E+04</pdfrwt>
<pdfrwt beam="2">  1       -2 0.85674831E-01 0.13158282E+04</pdfrwt>
<totfact> 0.50283837E+01</totfact>
</mgrwt>
</event>
<event>
 8    1  0.7326756E-052  0.1319533E+04  0.7818608E-02  0.9014217E-01
         -2   -1    0    0    0  501 -0.00000000000E+00  0.00000000000E+00  0.54782982441E+03  0.54782982441E+03  0.25500000000E-02 0. -1.
          2   -1    0    0  501    0  0.00000000000E+00 -0.00000000000E+00 -0.79457512104E+03  0.79457512105E+03  0.25500000000E-02 0.  1.
     200001    2    1    2    0    0 -0.32064160279E+02 -0.59572135472E+02  0.11470036187E+03  0.62757005980E+03  0.61327893919E+03 0.  0.
    5000001    2    3    3    0    0 -0.21451371521E+03 -0.67685528635E+02 -0.11027523375E+03  0.32070089246E+03  0.20022729696E+03 0.  0.
        -11    1    4    4    0    0 -0.17564539237E+03 -0.11372836165E+03 -0.13497086703E+03  0.24900317077E+03  0.51100000000E-03 0. -1.
     200002    1    4    4    0    0 -0.38868322832E+02  0.46042833017E+02  0.24695633280E+02  0.71697721687E+02  0.30000000000E+02 0. -1.
     200000    1    3    3    0    0  0.18244955493E+03  0.81133931631E+01  0.22497559562E+03  0.30686916734E+03  0.10100000000E+03 0. -1.
    -200001    1    1    2    0    0  0.32064160279E+02  0.59572135472E+02 -0.36144565850E+03  0.71483488565E+03  0.61300000000E+03 0.  1.
<mgrwt>
<rscale>  0 0.13195332E+04</rscale>
<asrwt>0</asrwt>
<pdfrwt beam="1">  1        2 0.11351073E+00 0.13195332E+04</pdfrwt>
<pdfrwt beam="2">  1       -2 0.78261404E-01 0.13195332E+04</pdfrwt>
<totfact> 0.54597001E+01</totfact>
</mgrwt>
</event>
<event>
 8    1  0.7326756E-052  0.1338105E+04  0.7818608E-02  0.8999882E-01
          2   -1    0    0  501    0  0.00000000000E+00  0.00000000000E+00  0.31445286404E+04  0.31445286404E+04  0.25500000000E-02 0.  1.
         -2   -1    0    0    0  501 -0.00000000000E+00 -0.00000000000E+00 -0.14235237312E+03  0.14235237314E+03  0.25500000000E-02 0. -1.
     200001    2    1    2    0    0  0.85636970420E+02  0.17314077662E+03  0.19582543244E+04  0.20609717828E+04  0.61280769514E+03 0.  0.
    5000001    2    3    3    0    0  0.26768787754E+03  0.28961600474E+03  0.11726288933E+04  0.12399252984E+04  0.82595364417E+02 0.  0.
        -11    1    4    4    0    0  0.11522530537E+03  0.74757298501E+02  0.42750424730E+03  0.44902717751E+03  0.51100000000E-03 0. -1.
     200002    1    4    4    0    0  0.15246257218E+03  0.21485870624E+03  0.74512464596E+03  0.79089812086E+03  0.30000000000E+02 0. -1.
     200000    1    3    3    0    0 -0.18205090712E+03 -0.11647522812E+03  0.78562543110E+03  0.82104648440E+03  0.10100000000E+03 0.  1.
    -200001    1    1    2    0    0 -0.85636970420E+02 -0.17314077662E+03  0.10439219429E+04  0.12259092308E+04  0.61300000000E+03 0. -1.
<mgrwt>
<rscale>  0 0.13381048E+04</rscale>
<asrwt>0</asrwt>
<pdfrwt beam="1">  1        2 0.44921842E+00 0.13381048E+04</pdfrwt>
<pdfrwt beam="2">  1       -2 0.20336052E-01 0.13381048E+04</pdfrwt>
<totfact> 0.40039862E+01</totfact>
</mgrwt>
</event>
<event>
 8    1  0.7326756E-052  0.1240384E+04  0.7818608E-02  0.9078225E-01
         -2   -1    0    0    0  501 -0.00000000000E+00  0.00000000000E+00  0.21187551560E+03  0.21187551562E+03  0.25500000000E-02 0. -1.
          2   -1    0    0  501    0  0.00000000000E+00 -0.00000000000E+00 -0.18153952998E+04  0.18153952998E+04  0.25500000000E-02 0.  1.
     200001    2    1    2    0    0  0.58707290331E+02 -0.66812554342E+02 -0.72850603524E+03  0.95520340884E+03  0.61137717126E+03 0.  0.
    5000001    2    3    3    0    0  0.54904688564E+02 -0.14446963072E+03  0.23994675873E+02  0.19198430432E+03  0.11133835641E+03 0.  0.
        -11    1    4    4    0    0  0.37388549053E+01  0.60159289359E+00  0.34686148999E+02  0.34892261071E+02  0.51100000000E-03 0. -1.
     200002    1    4    4    0    0  0.51165833658E+02 -0.14507122361E+03 -0.10691473126E+02  0.15709204325E+03  0.30000000000E+02 0. -1.
     200000    1    3    3    0    0  0.38026017674E+01  0.77657076376E+02 -0.75250071111E+03  0.76321910452E+03  0.10100000000E+03 0.  1.
    -200001    1    1    2    0    0 -0.58707290331E+02  0.66812554342E+02 -0.87501374895E+03  0.10720674066E+04  0.61300000000E+03 0. -1.
<mgrwt>
<rscale>  0 0.12403835E+04</rscale>
<asrwt>0</asrwt>
<pdfrwt beam="1">  1        2 0.25934218E+00 0.12403835E+04</pdfrwt>
<pdfrwt beam="2">  1       -2 0.30267932E-01 0.12403835E+04</pdfrwt>
<totfact> 0.99159312E+01</totfact>
</mgrwt>
</event>
<event>
 8    1  0.7326756E-052  0.1643135E+04  0.7818608E-02  0.8794478E-01
         -2   -1    0    0    0  501 -0.00000000000E+00  0.00000000000E+00  0.59998707500E+03  0.59998707501E+03  0.25500000000E-02 0. -1.
          2   -1    0    0  501    0  0.00000000000E+00 -0.00000000000E+00 -0.11249799486E+04  0.11249799486E+04  0.25500000000E-02 0.  1.
     200001    2    1    2    0    0 -0.45348635355E+03  0.12603331612E+03  0.30748462562E+02  0.77304701524E+03  0.61247199952E+03 0.  0.
    5000001    2    3    3    0    0 -0.50653109754E+03  0.23654534136E+03 -0.53569510147E+02  0.59322161906E+03  0.19108831887E+03 0.  0.
        -11    1    4    4    0    0 -0.15028062982E+03  0.15442280275E+03 -0.68476533057E+02  0.22609667243E+03  0.51100000000E-03 0. -1.
     200002    1    4    4    0    0 -0.35625046773E+03  0.82122538614E+02  0.14907022910E+02  0.36712494663E+03  0.30000000000E+02 0. -1.
     200000    1    3    3    0    0  0.53044743997E+02 -0.11051202524E+03  0.84317972710E+02  0.17982539618E+03  0.10100000000E+03 0. -1.
    -200001    1    1    2    0    0  0.45348635355E+03 -0.12603331612E+03 -0.55574133615E+03  0.95192000837E+03  0.61300000000E+03 0.  1.
<mgrwt>
<rscale>  0 0.16431353E+04</rscale>
<asrwt>0</asrwt>
<pdfrwt beam="1">  1        2 0.16071142E+00 0.16431353E+04</pdfrwt>
<pdfrwt beam="2">  1       -2 0.85712440E-01 0.16431353E+04</pdfrwt>
<totfact> 0.26754974E+01</totfact>
</mgrwt>
</event>
<event>
 8    1  0.7326756E-052  0.2309953E+04  0.7818608E-02  0.8474007E-01
         -2   -1    0    0    0  501 -0.00000000000E+00  0.00000000000E+00  0.61508150602E+03  0.61508150603E+03  0.25500000000E-02 0. -1.
          2   -1    0    0  501    0  0.00000000000E+00 -0.00000000000E+00 -0.21687702198E+04  0.21687702198E+04  0.25500000000E-02 0.  1.
     200001    2    1    2    0    0 -0.11171907014E+02  0.60914437297E+03  0.14675316374E+03  0.87637872277E+03  0.61263487986E+03 0.  0.
    5000001    2    3    3    0    0 -0.11189628532E+03  0.37130103851E+03 -0.19135651455E+03  0.43907561658E+03  0.76058145837E+02 0.  0.
        -11    1    4    4    0    0 -0.18182456758E+01  0.39184083107E+02 -0.14865143880E+00  0.39226527807E+02  0.51100000000E-03 0. -1.
     200002    1    4    4    0    0 -0.11007803964E+03  0.33211695540E+03 -0.19120786311E+03  0.39984908877E+03  0.30000000000E+02 0. -1.
     200000    1    3    3    0    0  0.10072437831E+03  0.23784333446E+03  0.33810967828E+03  0.43730310619E+03  0.10100000000E+03 0. -1.
    -200001    1    1    2    0    0  0.11171907014E+02 -0.60914437297E+03 -0.17004418776E+04  0.19074730031E+04  0.61300000000E+03 0.  1.
<mgrwt>
<rscale>  0 0.23099528E+04</rscale>
<asrwt>0</asrwt>
<pdfrwt beam="1">  1        2 0.30982431E+00 0.23099528E+04</pdfrwt>
<pdfrwt beam="2">  1       -2 0.87868787E-01 0.23099528E+04</pdfrwt>
<totfact> 0.66741271E+00</totfact>
</mgrwt>
</event>
<event>
 8    1  0.7326756E-052  0.2667619E+04  0.7818608E-02  0.8345589E-01
          2   -1    0    0  501    0  0.00000000000E+00  0.00000000000E+00  0.12255870560E+04  0.12255870560E+04  0.25500000000E-02 0.  1.
         -2   -1    0    0    0  501 -0.00000000000E+00 -0.00000000000E+00 -0.14515882574E+04  0.14515882574E+04  0.25500000000E-02 0. -1.
     200001    2    1    2    0    0  0.16937136698E+03  0.77186972586E+03  0.77202195336E+03  0.12642744850E+04  0.61473778417E+03 0.  0.
    5000001    2    3    3    0    0 -0.47712980595E+02  0.43479035108E+03  0.92087930508E+02  0.46849851508E+03  0.14032638304E+03 0.  0.
        -11    1    4    4    0    0 -0.91010158437E+02  0.32078179956E+03  0.74751534449E+02  0.34171860320E+03  0.51100000000E-03 0. -1.
     200002    1    4    4    0    0  0.43297177842E+02  0.11400855152E+03  0.17336396059E+02  0.12677991188E+03  0.30000000000E+02 0. -1.
     200000    1    3    3    0    0  0.21708434757E+03  0.33707937478E+03  0.67993402285E+03  0.79577596991E+03  0.10100000000E+03 0. -1.
    -200001    1    1    2    0    0 -0.16937136698E+03 -0.77186972586E+03 -0.99802315470E+03  0.14129008284E+04  0.61300000000E+03 0. -1.
<mgrwt>
<rscale>  0 0.26676190E+04</rscale>
<asrwt>0</asrwt>
<pdfrwt beam="1">  1        2 0.17508387E+00 0.26676190E+04</pdfrwt>
<pdfrwt beam="2">  1       -2 0.20736975E+00 0.26676190E+04</pdfrwt>
<totfact> 0.21779934E+00</totfact>
</mgrwt>
</event>
<event>
 8    1  0.7326756E-052  0.1277053E+04  0.7818608E-02  0.9047963E-01
          2   -1    0    0  501    0  0.00000000000E+00  0.00000000000E+00  0.73581982145E+03  0.73581982146E+03  0.25500000000E-02 0.  1.
         -2   -1    0    0    0  501 -0.00000000000E+00 -0.00000000000E+00 -0.55409786491E+03  0.55409786492E+03  0.25500000000E-02 0. -1.
     200001    2    1    2    0    0  0.10710068674E+03 -0.95302436452E+02  0.19512735603E+03  0.66023378454E+03  0.61423192174E+03 0.  0.
    5000001    2    3    3    0    0  0.22562595812E+03 -0.27625546874E+03  0.58052571601E+02  0.38494714052E+03  0.13262745920E+03 0.  0.
        -11    1    4    4    0    0  0.19788876973E+03 -0.22641914479E+03  0.88797266177E+02  0.31354513039E+03  0.51100000000E-03 0. -1.
     200002    1    4    4    0    0  0.27737188395E+02 -0.49836323958E+02 -0.30744694576E+02  0.71402010128E+02  0.30000000000E+02 0. -1.
     200000    1    3    3    0    0 -0.11852527138E+03  0.18095303229E+03  0.13707478443E+03  0.27528664402E+03  0.10100000000E+03 0.  1.
    -200001    1    1    2    0    0 -0.10710068674E+03  0.95302436452E+02 -0.13405399485E+02  0.62968390183E+03  0.61300000000E+03 0. -1.
<mgrwt>
<rscale>  0 0.12770532E+04</rscale>
<asrwt>0</asrwt>
<pdfrwt beam="1">  1        2 0.10511712E+00 0.12770532E+04</pdfrwt>
<pdfrwt beam="2">  1       -2 0.79156838E-01 0.12770532E+04</pdfrwt>
<totfact> 0.58861805E+01</totfact>
</mgrwt>
</event>
<event>
 8    1  0.7326756E-052  0.1646464E+04  0.7818608E-02  0.8792501E-01
          2   -1    0    0  501    0  0.00000000000E+00  0.00000000000E+00  0.11324063755E+04  0.11324063755E+04  0.25500000000E-02 0.  1.
         -2   -1    0    0    0  501 -0.00000000000E+00 -0.00000000000E+00 -0.59846970613E+03  0.59846970613E+03  0.25500000000E-02 0. -1.
     200001    2    1    2    0    0  0.52149532481E+03 -0.33831380951E+02  0.86012753506E+02  0.80918916594E+03  0.61178997734E+03 0.  0.
    5000001    2    3    3    0    0 -0.13553282424E+02  0.77562024410E+02  0.20866621817E+03  0.24004034950E+03  0.88759335775E+02 0.  0.
        -11    1    4    4    0    0  0.30437215678E+02  0.29948761420E+02  0.48199446887E+02  0.64393626155E+02  0.51100000000E-03 0. -1.
     200002    1    4    4    0    0 -0.43990498102E+02  0.47613262990E+02  0.16046677128E+03  0.17564672335E+03  0.30000000000E+02 0. -1.
     200000    1    3    3    0    0  0.53504860723E+03 -0.11139340536E+03 -0.12265346467E+03  0.56914881644E+03  0.10100000000E+03 0. -1.
    -200001    1    1    2    0    0 -0.52149532481E+03  0.33831380951E+02  0.44792391584E+03  0.92168691567E+03  0.61300000000E+03 0.  1.
<mgrwt>
<rscale>  0 0.16464640E+04</rscale>
<asrwt>0</asrwt>
<pdfrwt beam="1">  1        2 0.16177234E+00 0.16464640E+04</pdfrwt>
<pdfrwt beam="2">  1       -2 0.85495672E-01 0.16464640E+04</pdfrwt>
<totfact> 0.26635369E+01</totfact>
</mgrwt>
</event>
<event>
 8    1  0.7326756E-052  0.1908127E+04  0.7818608E-02  0.8650821E-01
         -2   -1    0    0    0  501 -0.00000000000E+00  0.00000000000E+00  0.44949543601E+03  0.44949543602E+03  0.25500000000E-02 0. -1.
          2   -1    0    0  501    0  0.00000000000E+00 -0.00000000000E+00 -0.20250207655E+04  0.20250207655E+04  0.25500000000E-02 0.  1.
     200001    2    1    2    0    0  0.12226723329E+03  0.71563849036E+03 -0.67470556313E+03  0.11651908116E+04  0.61266165646E+03 0.  0.
    5000001    2    3    3    0    0  0.52971135682E+01 -0.35629481114E+02  0.54456178708E+02  0.10690756991E+03  0.84653610486E+02 0.  0.
        -11    1    4    4    0    0  0.26350650363E+02  0.89198319071E+01  0.35738450685E+00  0.27821716333E+02  0.51100000000E-03 0. -1.
     200002    1    4    4    0    0 -0.21053536794E+02 -0.44549313021E+02  0.54098794202E+02  0.79085853579E+02  0.30000000000E+02 0. -1.
     200000    1    3    3    0    0  0.11697011972E+03  0.75126797148E+03 -0.72916174184E+03  0.10582832417E+04  0.10100000000E+03 0.  1.
    -200001    1    1    2    0    0 -0.12226723329E+03 -0.71563849036E+03 -0.90081976633E+03  0.13093253899E+04  0.61300000000E+03 0. -1.
<mgrwt>
<rscale>  0 0.19081275E+04</rscale>
<asrwt>0</asrwt>
<pdfrwt beam="1">  1        2 0.28928868E+00 0.19081275E+04</pdfrwt>
<pdfrwt beam="2">  1       -2 0.64213635E-01 0.19081275E+04</pdfrwt>
<totfact> 0.16388772E+01</totfact>
</mgrwt>
</event>
<event>
 8    1  0.7326756E-052  0.1253423E+04  0.7818608E-02  0.9067339E-01
          2   -1    0    0  501    0  0.00000000000E+00  0.00000000000E+00  0.92961690879E+03  0.92961690880E+03  0.25500000000E-02 0.  1.
         -2   -1    0    0    0  501 -0.00000000000E+00 -0.00000000000E+00 -0.42250464368E+03  0.42250464369E+03  0.25500000000E-02 0. -1.
     200001    2    1    2    0    0  0.10289486211E+03  0.46202701548E+02  0.32440017665E+03  0.70260269244E+03  0.61293802830E+03 0.  0.
    5000001    2    3    3    0    0 -0.86857086589E+01 -0.25219893245E+03  0.75345251155E+02  0.28580164295E+03  0.11102220127E+03 0.  0.
        -11    1    4    4    0    0  0.22627020766E+02 -0.36101119691E+01  0.10821721732E+02  0.25340178347E+02  0.51100000000E-03 0. -1.
     200002    1    4    4    0    0 -0.31312729425E+02 -0.24858882048E+03  0.64523529423E+02  0.26046146460E+03  0.30000000000E+02 0. -1.
     200000    1    3    3    0    0  0.11158057077E+03  0.29840163400E+03  0.24905492549E+03  0.41680104949E+03  0.10100000000E+03 0.  1.
    -200001    1    1    2    0    0 -0.10289486211E+03 -0.46202701548E+02  0.18271208846E+03  0.64951886004E+03  0.61300000000E+03 0. -1.
<mgrwt>
<rscale>  0 0.12534232E+04</rscale>
<asrwt>0</asrwt>
<pdfrwt beam="1">  1        2 0.13280241E+00 0.12534232E+04</pdfrwt>
<pdfrwt beam="2">  1       -2 0.60357806E-01 0.12534232E+04</pdfrwt>
<totfact> 0.78300417E+01</totfact>
</mgrwt>
</event>
<event>
 8    1  0.7326756E-052  0.1435268E+04  0.7818608E-02  0.8928678E-01
         -2   -1    0    0    0  501 -0.00000000000E+00  0.00000000000E+00  0.18140703214E+04  0.18140703214E+04  0.25500000000E-02 0. -1.
          2   -1    0    0  501    0  0.00000000000E+00 -0.00000000000E+00 -0.28389119877E+03  0.28389119878E+03  0.25500000000E-02 0.  1.
     200001    2    1    2    0    0  0.25403973718E+03 -0.26201442662E+03  0.87663136819E+03  0.11304485150E+04  0.61338694280E+03 0.  0.
    5000001    2    3    3    0    0 -0.17950160937E+03 -0.68496933419E+02  0.41129198300E+03  0.45802836158E+03  0.60960865116E+02 0.  0.
        -11    1    4    4    0    0  0.12300445426E+00  0.31512358286E+01  0.22921852001E+02  0.23137776833E+02  0.51100000000E-03 0. -1.
     200002    1    4    4    0    0 -0.17962461383E+03 -0.71648169247E+02  0.38837013100E+03  0.43489058475E+03  0.30000000000E+02 0. -1.
     200000    1    3    3    0    0  0.43354134655E+03 -0.19351749320E+03  0.46533938519E+03  0.67242015344E+03  0.10100000000E+03 0. -1.
    -200001    1    1    2    0    0 -0.25403973718E+03  0.26201442662E+03  0.65354775448E+03  0.96751300519E+03  0.61300000000E+03 0. -1.
<mgrwt>
<rscale>  0 0.14352681E+04</rscale>
<asrwt>0</asrwt>
<pdfrwt beam="1">  1        2 0.40555884E-01 0.14352681E+04</pdfrwt>
<pdfrwt beam="2">  1       -2 0.25915291E+00 0.14352681E+04</pdfrwt>
<totfact> 0.69761447E+00</totfact>
</mgrwt>
</event>
<event>
 8    1  0.7326756E-052  0.1482709E+04  0.7818608E-02  0.8896033E-01
          2   -1    0    0  501    0  0.00000000000E+00  0.00000000000E+00  0.36331264426E+04  0.36331264426E+04  0.25500000000E-02 0.  1.
         -2   -1    0    0    0  501 -0.00000000000E+00 -0.00000000000E+00 -0.15127642979E+03  0.15127642981E+03  0.25500000000E-02 0. -1.
     200001    2    1    2    0    0 -0.12485245845E+03  0.36598575156E+03  0.13335768399E+04  0.15171621855E+04  0.61140837629E+03 0.  0.
    5000001    2    3    3    0    0 -0.70374672399E+02  0.43953259458E+03  0.12988036022E+04  0.13764953972E+04  0.98525555213E+02 0.  0.
        -11    1    4    4    0    0  0.17652213648E+02  0.15969879847E+03  0.48415957501E+03  0.51012331935E+03  0.51100000000E-03 0. -1.
     200002    1    4    4    0    0 -0.88026886047E+02  0.27983379612E+03  0.81464402722E+03  0.86637207781E+03  0.30000000000E+02 0. -1.
     200000    1    3    3    0    0 -0.54477786048E+02 -0.73546843028E+02  0.34773237660E+02  0.14066678837E+03  0.10100000000E+03 0. -1.
    -200001    1    1    2    0    0  0.12485245845E+03 -0.36598575156E+03  0.21482731729E+04  0.22672406869E+04  0.61300000000E+03 0.  1.
<mgrwt>
<rscale>  0 0.14827089E+04</rscale>
<asrwt>0</asrwt>
<pdfrwt beam="1">  1        2 0.51901800E+00 0.14827089E+04</pdfrwt>
<pdfrwt beam="2">  1       -2 0.21610921E-01 0.14827089E+04</pdfrwt>
<totfact> 0.18169558E+01</totfact>
</mgrwt>
</event>
<event>
 8    1  0.7326756E-052  0.1727522E+04  0.7818608E-02  0.8745822E-01
         -2   -1    0    0    0  501 -0.00000000000E+00  0.00000000000E+00  0.31393477890E+03  0.31393477891E+03  0.25500000000E-02 0. -1.
          2   -1    0    0  501    0  0.00000000000E+00 -0.00000000000E+00 -0.23765534315E+04  0.23765534315E+04  0.25500000000E-02 0.  1.
     200001    2    1    2    0    0  0.28241056643E+02 -0.49135222143E+03 -0.15893659092E+04  0.17729034885E+04  0.61227299745E+03 0.  0.
    5000001    2    3    3    0    0 -0.13964708411E+03  0.67489056574E+02 -0.53982682633E+03  0.56782121400E+03  0.83377741597E+02 0.  0.
        -11    1    4    4    0    0 -0.11314992632E+03  0.55874933859E+02 -0.31820589890E+03  0.34231550966E+03  0.51100000000E-03 0. -1.
     200002    1    4    4    0    0 -0.26497157788E+02  0.11614122715E+02 -0.22162092743E+03  0.22550570434E+03  0.30000000000E+02 0. -1.
     200000    1    3    3    0    0  0.16788814075E+03 -0.55884127800E+03 -0.10495390828E+04  0.12050822745E+04  0.10100000000E+03 0.  1.
    -200001    1    1    2    0    0 -0.28241056643E+02  0.49135222143E+03 -0.47325274344E+03  0.91758472195E+03  0.61300000000E+03 0. -1.
<mgrwt>
<rscale>  0 0.17275217E+04</rscale>
<asrwt>0</asrwt>
<pdfrwt beam="1">  1        2 0.33950762E+00 0.17275217E+04</pdfrwt>
<pdfrwt beam="2">  1       -2 0.44847827E-01 0.17275217E+04</pdfrwt>
<totfact> 0.22980447E+01</totfact>
</mgrwt>
</event>
<event>
 8    1  0.7326756E-052  0.1472741E+04  0.7818608E-02  0.8902785E-01
         -2   -1    0    0    0  501 -0.00000000000E+00  0.00000000000E+00  0.29999787633E+03  0.29999787634E+03  0.25500000000E-02 0. -1.
          2   -1    0    0  501    0  0.00000000000E+00 -0.00000000000E+00 -0.18074848108E+04  0.18074848108E+04  0.25500000000E-02 0.  1.
     200001    2    1    2    0    0 -0.21253120449E+03 -0.34634347833E+03 -0.71225742724E+03  0.10243011294E+04  0.61380684520E+03 0.  0.
    5000001    2    3    3    0    0  0.13993591829E+03 -0.31868260241E+02 -0.42582845867E+03  0.46272273821E+03  0.11038482236E+03 0.  0.
        -11    1    4    4    0    0  0.11340288028E+03 -0.33915105526E+02 -0.39438104586E+03  0.41176067924E+03  0.51100000000E-03 0. -1.
     200002    1    4    4    0    0  0.26533038015E+02  0.20468452850E+01 -0.31447412812E+02  0.50962058971E+02  0.30000000000E+02 0. -1.
     200000    1    3    3    0    0 -0.35246712279E+03 -0.31447521808E+03 -0.28642896857E+03  0.56157839120E+03  0.10100000000E+03 0. -1.
    -200001    1    1    2    0    0  0.21253120449E+03  0.34634347833E+03 -0.79522950728E+03  0.10831815578E+04  0.61300000000E+03 0.  1.
<mgrwt>
<rscale>  0 0.14727411E+04</rscale>
<asrwt>0</asrwt>
<pdfrwt beam="1">  1        2 0.25821211E+00 0.14727411E+04</pdfrwt>
<pdfrwt beam="2">  1       -2 0.42856841E-01 0.14727411E+04</pdfrwt>
<totfact> 0.50461968E+01</totfact>
</mgrwt>
</event>
<event>
 8    1  0.7326756E-052  0.1894711E+04  0.7818608E-02  0.8657493E-01
          2   -1    0    0  501    0  0.00000000000E+00  0.00000000000E+00  0.13066813991E+04  0.13066813991E+04  0.25500000000E-02 0.  1.
         -2   -1    0    0    0  501 -0.00000000000E+00 -0.00000000000E+00 -0.68684111793E+03  0.68684111793E+03  0.25500000000E-02 0. -1.
     200001    2    1    2    0    0 -0.22986445810E+03  0.65508082852E+03  0.10395886785E+03  0.93339460324E+03  0.61518247550E+03 0.  0.
    5000001    2    3    3    0    0 -0.36080513603E+03  0.42691404880E+03 -0.11165741406E+03  0.57857504130E+03  0.99225747956E+02 0.  0.
        -11    1    4    4    0    0 -0.23127152301E+03  0.23822690774E+03 -0.10281745411E+03  0.34757733786E+03  0.51100000000E-03 0. -1.
     200002    1    4    4    0    0 -0.12953361302E+03  0.18868714106E+03 -0.88399599554E+01  0.23099770344E+03  0.30000000000E+02 0. -1.
     200000    1    3    3    0    0  0.13094067793E+03  0.22816677973E+03  0.21561628192E+03  0.35481956194E+03  0.10100000000E+03 0.  1.
    -200001    1    1    2    0    0  0.22986445810E+03 -0.65508082852E+03  0.51588141332E+03  0.10601279138E+04  0.61300000000E+03 0. -1.
<mgrwt>
<rscale>  0 0.18947111E+04</rscale>
<asrwt>0</asrwt>
<pdfrwt beam="1">  1        2 0.18666877E+00 0.18947111E+04</pdfrwt>
<pdfrwt beam="2">  1       -2 0.98120159E-01 0.18947111E+04</pdfrwt>
<totfact> 0.15122699E+01</totfact>
</mgrwt>
</event>
<event>
 8    1  0.7326756E-052  0.1347925E+04  0.7818608E-02  0.8992400E-01
          2   -1    0    0  501    0  0.00000000000E+00  0.00000000000E+00  0.25758018474E+04  0.25758018474E+04  0.25500000000E-02 0.  1.
         -2   -1    0    0    0  501 -0.00000000000E+00 -0.00000000000E+00 -0.17634339710E+03  0.17634339712E+03  0.25500000000E-02 0. -1.
     200001    2    1    2    0    0 -0.18219635280E+03 -0.19863079502E+03  0.13593000361E+04  0.15150728010E+04  0.61245350901E+03 0.  0.
    5000001    2    3    3    0    0 -0.12261029837E+03 -0.24764024733E+03  0.13549447627E+04  0.13879020784E+04  0.11848160951E+03 0.  0.
        -11    1    4    4    0    0 -0.28618581140E+02 -0.16564585196E+03  0.88147295319E+03  0.89735842263E+03  0.51100000000E-03 0. -1.
     200002    1    4    4    0    0 -0.93991717227E+02 -0.81994395369E+02  0.47347180952E+03  0.49054365574E+03  0.30000000000E+02 0. -1.
     200000    1    3    3    0    0 -0.59586054432E+02  0.49009452312E+02  0.43552733597E+01  0.12717072267E+03  0.10100000000E+03 0. -1.
    -200001    1    1    2    0    0  0.18219635280E+03  0.19863079502E+03  0.10401584142E+04  0.12370724435E+04  0.61300000000E+03 0.  1.
<mgrwt>
<rscale>  0 0.13479253E+04</rscale>
<asrwt>0</asrwt>
<pdfrwt beam="1">  1        2 0.36797168E+00 0.13479253E+04</pdfrwt>
<pdfrwt beam="2">  1       -2 0.25191915E-01 0.13479253E+04</pdfrwt>
<totfact> 0.55766861E+01</totfact>
</mgrwt>
</event>
<event>
 8    1  0.7326756E-052  0.1431060E+04  0.7818608E-02  0.8931637E-01
         -2   -1    0    0    0  501 -0.00000000000E+00  0.00000000000E+00  0.23983740149E+03  0.23983740150E+03  0.25500000000E-02 0. -1.
          2   -1    0    0  501    0  0.00000000000E+00 -0.00000000000E+00 -0.21347104684E+04  0.21347104684E+04  0.25500000000E-02 0.  1.
     200001    2    1    2    0    0 -0.14479623770E+03  0.31115935656E+03 -0.72116696466E+03  0.10066512693E+04  0.61276332409E+03 0.  0.
    5000001    2    3    3    0    0  0.18304835489E+03  0.32815076121E+02 -0.12929240259E+03  0.26808907649E+03  0.14342837279E+03 0.  0.
        -11    1    4    4    0    0  0.16560111183E+03  0.49000756860E+02 -0.49610187179E+02  0.17968297940E+03  0.51100000000E-03 0. -1.
     200002    1    4    4    0    0  0.17447243055E+02 -0.16185680739E+02 -0.79682215408E+02  0.88406097095E+02  0.30000000000E+02 0. -1.
     200000    1    3    3    0    0 -0.32784459259E+03  0.27834428044E+03 -0.59187456207E+03  0.73856219276E+03  0.10100000000E+03 0.  1.
    -200001    1    1    2    0    0  0.14479623770E+03 -0.31115935656E+03 -0.11737061023E+04  0.13678966007E+04  0.61300000000E+03 0.  1.
<mgrwt>
<rscale>  0 0.14310603E+04</rscale>
<asrwt>0</asrwt>
<pdfrwt beam="1">  1        2 0.30495863E+00 0.14310603E+04</pdfrwt>
<pdfrwt beam="2">  1       -2 0.34262487E-01 0.14310603E+04</pdfrwt>
<totfact> 0.53050231E+01</totfact>
</mgrwt>
</event>
<event>
 8    1  0.7326756E-052  0.2672651E+04  0.7818608E-02  0.8343934E-01
         -2   -1    0    0    0  501 -0.00000000000E+00  0.00000000000E+00  0.10341204888E+04  0.10341204888E+04  0.25500000000E-02 0. -1.
          2   -1    0    0  501    0  0.00000000000E+00 -0.00000000000E+00 -0.17268451252E+04  0.17268451252E+04  0.25500000000E-02 0.  1.
     200001    2    1    2    0    0  0.70297558525E+03  0.10966011265E+03  0.63555187808E+03  0.11342242354E+04  0.61346427180E+03 0.  0.
    5000001    2    3    3    0    0  0.78810006520E+03  0.56218923022E+02  0.51930208925E+03  0.95032983304E+03  0.95863713601E+02 0.  0.
        -11    1    4    4    0    0  0.44084712424E+03  0.67682830973E+02  0.31667985637E+03  0.54700391588E+03  0.51100000000E-03 0. -1.
     200002    1    4    4    0    0  0.34725294096E+03 -0.11463907951E+02  0.20262223288E+03  0.40332591715E+03  0.30000000000E+02 0.  1.
     200000    1    3    3    0    0 -0.85124479948E+02  0.53441189628E+02  0.11624978883E+03  0.18389440241E+03  0.10100000000E+03 0. -1.
    -200001    1    1    2    0    0 -0.70297558525E+03 -0.10966011265E+03 -0.13282765144E+04  0.16267413785E+04  0.61300000000E+03 0.  1.
<mgrwt>
<rscale>  0 0.26726511E+04</rscale>
<asrwt>0</asrwt>
<pdfrwt beam="1">  1        2 0.24669216E+00 0.26726511E+04</pdfrwt>
<pdfrwt beam="2">  1       -2 0.14773150E+00 0.26726511E+04</pdfrwt>
<totfact> 0.30677414E+00</totfact>
</mgrwt>
</event>
<event>
 8    1  0.7326756E-052  0.1835002E+04  0.7818608E-02  0.8687904E-01
          2   -1    0    0  501    0  0.00000000000E+00  0.00000000000E+00  0.26617958877E+04  0.26617958877E+04  0.25500000000E-02 0.  1.
         -2   -1    0    0    0  501 -0.00000000000E+00 -0.00000000000E+00 -0.31625562052E+03  0.31625562053E+03  0.25500000000E-02 0. -1.
     200001    2    1    2    0    0  0.66530674907E+03  0.97902228707E+02  0.98540113162E+03  0.13416024914E+04  0.61372953153E+03 0.  0.
    5000001    2    3    3    0    0  0.27578239353E+03  0.15884162685E+03  0.83535439713E+03  0.90783082753E+03  0.15828218982E+03 0.  0.
        -11    1    4    4    0    0 -0.29020664845E+01  0.56485719868E+02  0.15124179418E+03  0.16147178963E+03  0.51100000000E-03 0. -1.
     200002    1    4    4    0    0  0.27868446002E+03  0.10235590698E+03  0.68411260295E+03  0.74635903790E+03  0.30000000000E+02 0. -1.
     200000    1    3    3    0    0  0.38952435554E+03 -0.60939398141E+02  0.15004673449E+03  0.43377166382E+03  0.10100000000E+03 0. -1.
    -200001    1    1    2    0    0 -0.66530674907E+03 -0.97902228707E+02  0.13601391355E+04  0.16364490169E+04  0.61300000000E+03 0.  1.
<mgrwt>
<rscale>  0 0.18350018E+04</rscale>
<asrwt>0</asrwt>
<pdfrwt beam="1">  1        2 0.38025657E+00 0.18350018E+04</pdfrwt>
<pdfrwt beam="2">  1       -2 0.45179372E-01 0.18350018E+04</pdfrwt>
<totfact> 0.15868930E+01</totfact>
</mgrwt>
</event>
<event>
 8    1  0.7326756E-052  0.2699788E+04  0.7818608E-02  0.8335074E-01
         -2   -1    0    0    0  501 -0.00000000000E+00  0.00000000000E+00  0.75132855302E+03  0.75132855303E+03  0.25500000000E-02 0. -1.
          2   -1    0    0  501    0  0.00000000000E+00 -0.00000000000E+00 -0.24253214268E+04  0.24253214268E+04  0.25500000000E-02 0.  1.
     200001    2    1    2    0    0  0.16943852804E+03  0.11847086796E+04 -0.97693963426E+03  0.16620885618E+04  0.61309319686E+03 0.  0.
    5000001    2    3    3    0    0  0.23667787416E+03  0.11856139178E+04 -0.88169567335E+03  0.15078343521E+04  0.18568897306E+03 0.  0.
        -11    1    4    4    0    0 -0.59865758516E+01  0.26316847076E+03 -0.25262492917E+03  0.36484632097E+03  0.51100000000E-03 0. -1.
     200002    1    4    4    0    0  0.24266445002E+03  0.92244544705E+03 -0.62907074418E+03  0.11429880311E+04  0.30000000000E+02 0. -1.
     200000    1    3    3    0    0 -0.67239346123E+02 -0.90523823758E+00 -0.95243960914E+02  0.15425420971E+03  0.10100000000E+03 0. -1.
    -200001    1    1    2    0    0 -0.16943852804E+03 -0.11847086796E+04 -0.69705323952E+03  0.15145614180E+04  0.61300000000E+03 0.  1.
<mgrwt>
<rscale>  0 0.26997876E+04</rscale>
<asrwt>0</asrwt>
<pdfrwt beam="1">  1        2 0.34647449E+00 0.26997876E+04</pdfrwt>
<pdfrwt beam="2">  1       -2 0.10733265E+00 0.26997876E+04</pdfrwt>
<totfact> 0.29708036E+00</totfact>
</mgrwt>
</event>
<event>
 8    1  0.7326756E-052  0.1988659E+04  0.7818608E-02  0.8611941E-01
         -2   -1    0    0    0  501 -0.00000000000E+00  0.00000000000E+00  0.21539453952E+04  0.21539453952E+04  0.25500000000E-02 0. -1.
          2   -1    0    0  501    0  0.00000000000E+00 -0.00000000000E+00 -0.45901410513E+03  0.45901410514E+03  0.25500000000E-02 0.  1.
     200001    2    1    2    0    0 -0.19702969030E+03  0.30001052885E+03 -0.65281041996E+02  0.71481739021E+03  0.61471560141E+03 0.  0.
    5000001    2    3    3    0    0  0.93419249318E+02  0.24800991780E+03  0.55720375391E+02  0.38029236411E+03  0.26698585449E+03 0.  0.
        -11    1    4    4    0    0 -0.72085592773E+02 -0.51190814799E+01  0.11306005469E+02  0.73146178578E+02  0.51100000000E-03 0. -1.
     200002    1    4    4    0    0  0.16550484209E+03  0.25312899928E+03  0.44414369921E+02  0.30714618553E+03  0.30000000000E+02 0. -1.
     200000    1    3    3    0    0 -0.29044893962E+03  0.52000611052E+02 -0.12100141739E+03  0.33452502610E+03  0.10100000000E+03 0.  1.
    -200001    1    1    2    0    0  0.19702969030E+03 -0.30001052885E+03  0.17602123321E+04  0.18981421102E+04  0.61300000000E+03 0. -1.
<mgrwt>
<rscale>  0 0.19886592E+04</rscale>
<asrwt>0</asrwt>
<pdfrwt beam="1">  1        2 0.65573442E-01 0.19886592E+04</pdfrwt>
<pdfrwt beam="2">  1       -2 0.30770649E+00 0.19886592E+04</pdfrwt>
<totfact> 0.19714684E+00</totfact>
</mgrwt>
</event>
<event>
 8    1  0.7326756E-052  0.1845694E+04  0.7818608E-02  0.8682371E-01
          2   -1    0    0  501    0  0.00000000000E+00  0.00000000000E+00  0.24995614081E+04  0.24995614081E+04  0.25500000000E-02 0.  1.
         -2   -1    0    0    0  501 -0.00000000000E+00 -0.00000000000E+00 -0.34071824480E+03  0.34071824481E+03  0.25500000000E-02 0. -1.
     200001    2    1    2    0    0 -0.21971421752E+03 -0.86969225580E+01  0.71480606114E+02  0.65368380114E+03  0.61142706923E+03 0.  0.
    5000001    2    3    3    0    0 -0.23459385876E+03  0.21666055470E+03 -0.54097545498E+02  0.37623422295E+03  0.19144077820E+03 0.  0.
        -11    1    4    4    0    0 -0.25668094492E+03  0.20911780943E+03 -0.63411748562E+02  0.33710000825E+03  0.51100000000E-03 0. -1.
     200002    1    4    4    0    0  0.22087086161E+02  0.75427452719E+01  0.93142030640E+01  0.39134214698E+02  0.30000000000E+02 0. -1.
     200000    1    3    3    0    0  0.14879641243E+02 -0.22535747726E+03  0.12557815161E+03  0.27744957820E+03  0.10100000000E+03 0. -1.
    -200001    1    1    2    0    0  0.21971421752E+03  0.86969225580E+01  0.20873625572E+04  0.21865958518E+04  0.61300000000E+03 0.  1.
<mgrwt>
<rscale>  0 0.18456936E+04</rscale>
<asrwt>0</asrwt>
<pdfrwt beam="1">  1        2 0.35708022E+00 0.18456936E+04</pdfrwt>
<pdfrwt beam="2">  1       -2 0.48674033E-01 0.18456936E+04</pdfrwt>
<totfact> 0.16638244E+01</totfact>
</mgrwt>
</event>
<event>
 8    1  0.7326756E-052  0.1422949E+04  0.7818608E-02  0.8937373E-01
          2   -1    0    0  501    0  0.00000000000E+00  0.00000000000E+00  0.88343191306E+03  0.88343191307E+03  0.25500000000E-02 0.  1.
         -2   -1    0    0    0  501 -0.00000000000E+00 -0.00000000000E+00 -0.57298774091E+03  0.57298774091E+03  0.25500000000E-02 0. -1.
     200001    2    1    2    0    0  0.25303617891E+03 -0.10116947815E+03 -0.87000396027E+02  0.67668011033E+03  0.61324084312E+03 0.  0.
    5000001    2    3    3    0    0  0.31453443591E+03  0.13198559573E+03  0.91905758014E+02  0.35989668898E+03  0.68752087453E+02 0.  0.
        -11    1    4    4    0    0  0.21599507158E+02  0.27904534499E+02  0.14333678452E+02  0.38087479482E+02  0.51100000000E-03 0. -1.
     200002    1    4    4    0    0  0.29293492875E+03  0.10408106123E+03  0.77572079562E+02  0.32180920950E+03  0.30000000000E+02 0. -1.
     200000    1    3    3    0    0 -0.61498257000E+02 -0.23315507388E+03 -0.17890615404E+03  0.31678342135E+03  0.10100000000E+03 0. -1.
    -200001    1    1    2    0    0 -0.25303617891E+03  0.10116947815E+03  0.39744456818E+03  0.77973954365E+03  0.61300000000E+03 0.  1.
<mgrwt>
<rscale>  0 0.14229486E+04</rscale>
<asrwt>0</asrwt>
<pdfrwt beam="1">  1        2 0.12620456E+00 0.14229486E+04</pdfrwt>
<pdfrwt beam="2">  1       -2 0.81855391E-01 0.14229486E+04</pdfrwt>
<totfact> 0.42610254E+01</totfact>
</mgrwt>
</event>
<event>
 8    1  0.7326756E-052  0.2480781E+04  0.7818608E-02  0.8409864E-01
          2   -1    0    0  501    0  0.00000000000E+00  0.00000000000E+00  0.19430298697E+04  0.19430298697E+04  0.25500000000E-02 0.  1.
         -2   -1    0    0    0  501 -0.00000000000E+00 -0.00000000000E+00 -0.79184001691E+03  0.79184001692E+03  0.25500000000E-02 0. -1.
     200001    2    1    2    0    0 -0.11473252234E+01 -0.32044814332E+03  0.17107053213E+04  0.18451986617E+04  0.61282711729E+03 0.  0.
    5000001    2    3    3    0    0 -0.22158715880E+03 -0.29228405144E+03  0.14056521624E+04  0.14545001001E+04  0.71984051213E+02 0.  0.
        -11    1    4    4    0    0 -0.18343471103E+01 -0.22024935245E+02  0.12717958095E+03  0.12908566308E+03  0.51100000000E-03 0. -1.
     200002    1    4    4    0    0 -0.21975281169E+03 -0.27025911620E+03  0.12784725815E+04  0.13254144370E+04  0.30000000000E+02 0. -1.
     200000    1    3    3    0    0  0.22043983357E+03 -0.28164091878E+02  0.30505315891E+03  0.39069856163E+03  0.10100000000E+03 0.  1.
    -200001    1    1    2    0    0  0.11473252234E+01  0.32044814332E+03 -0.55951546856E+03  0.88967122493E+03  0.61300000000E+03 0. -1.
<mgrwt>
<rscale>  0 0.24807812E+04</rscale>
<asrwt>0</asrwt>
<pdfrwt beam="1">  1        2 0.27757570E+00 0.24807812E+04</pdfrwt>
<pdfrwt beam="2">  1       -2 0.11312000E+00 0.24807812E+04</pdfrwt>
<totfact> 0.47356923E+00</totfact>
</mgrwt>
</event>
<event>
 8    1  0.7326756E-052  0.1326812E+04  0.7818608E-02  0.9008569E-01
         -2   -1    0    0    0  501 -0.00000000000E+00  0.00000000000E+00  0.32264989338E+03  0.32264989339E+03  0.25500000000E-02 0. -1.
          2   -1    0    0  501    0  0.00000000000E+00 -0.00000000000E+00 -0.13640415138E+04  0.13640415138E+04  0.25500000000E-02 0.  1.
     200001    2    1    2    0    0 -0.33734703552E+02 -0.76234044799E+02 -0.82481321481E+03  0.10312336545E+04  0.61333217016E+03 0.  0.
    5000001    2    3    3    0    0  0.19368517805E+03 -0.22585868476E+03 -0.31593898605E+03  0.44534858371E+03  0.99959113794E+02 0.  0.
        -11    1    4    4    0    0  0.14396843638E+03 -0.11509208789E+03 -0.22423408425E+03  0.29026543698E+03  0.51100000000E-03 0. -1.
     200002    1    4    4    0    0  0.49716741663E+02 -0.11076659687E+03 -0.91704901808E+02  0.15508314673E+03  0.30000000000E+02 0. -1.
     200000    1    3    3    0    0 -0.22741988160E+03  0.14962463996E+03 -0.50887422875E+03  0.58588507074E+03  0.10100000000E+03 0.  1.
    -200001    1    1    2    0    0  0.33734703552E+02  0.76234044799E+02 -0.21657840557E+03  0.65545775270E+03  0.61300000000E+03 0. -1.
<mgrwt>
<rscale>  0 0.13268125E+04</rscale>
<asrwt>0</asrwt>
<pdfrwt beam="1">  1        2 0.19486307E+00 0.13268125E+04</pdfrwt>
<pdfrwt beam="2">  1       -2 0.46092843E-01 0.13268125E+04</pdfrwt>
<totfact> 0.75597418E+01</totfact>
</mgrwt>
</event>
<event>
 8    1  0.7326756E-052  0.1616705E+04  0.7818608E-02  0.8810351E-01
          2   -1    0    0  501    0  0.00000000000E+00  0.00000000000E+00  0.80619517036E+03  0.80619517037E+03  0.25500000000E-02 0.  1.
         -2   -1    0    0    0  501 -0.00000000000E+00 -0.00000000000E+00 -0.81051559136E+03  0.81051559136E+03  0.25500000000E-02 0. -1.
     200001    2    1    2    0    0  0.16789330177E+03  0.25364240932E+03  0.43012370203E+03  0.80613483770E+03  0.61018386156E+03 0.  0.
    5000001    2    3    3    0    0  0.36964899400E+03  0.93863885556E+02  0.16704586252E+03  0.42449955939E+03  0.82732991964E+02 0.  0.
        -11    1    4    4    0    0  0.70068951047E+02 -0.74554285046E-01  0.57442040436E+02  0.90604919673E+02  0.51100000000E-03 0. -1.
     200002    1    4    4    0    0  0.29958004296E+03  0.93938439841E+02  0.10960382208E+03  0.33389463972E+03  0.30000000000E+02 0.  1.
     200000    1    3    3    0    0 -0.20175569223E+03  0.15977852376E+03  0.26307783952E+03  0.38163527831E+03  0.10100000000E+03 0.  1.
    -200001    1    1    2    0    0 -0.16789330177E+03 -0.25364240932E+03 -0.43444412303E+03  0.81057592403E+03  0.61300000000E+03 0. -1.
<mgrwt>
<rscale>  0 0.16167050E+04</rscale>
<asrwt>0</asrwt>
<pdfrwt beam="1">  1        2 0.11517074E+00 0.16167050E+04</pdfrwt>
<pdfrwt beam="2">  1       -2 0.11578794E+00 0.16167050E+04</pdfrwt>
<totfact> 0.20950684E+01</totfact>
</mgrwt>
</event>
<event>
 8    1  0.7326756E-052  0.1402174E+04  0.7818608E-02  0.8952246E-01
         -2   -1    0    0    0  501 -0.00000000000E+00  0.00000000000E+00  0.26398722818E+03  0.26398722819E+03  0.25500000000E-02 0. -1.
          2   -1    0    0  501    0  0.00000000000E+00 -0.00000000000E+00 -0.18619201377E+04  0.18619201377E+04  0.25500000000E-02 0.  1.
     200001    2    1    2    0    0  0.24216109384E+03 -0.10874056193E+03 -0.11199980806E+04  0.13045321740E+04  0.61395601406E+03 0.  0.
    5000001    2    3    3    0    0  0.23793673189E+03  0.91372798148E+02 -0.10246926964E+04  0.10609191235E+04  0.10291446894E+03 0.  0.
        -11    1    4    4    0    0 -0.73430825729E+01 -0.37867392198E+01 -0.59169328656E+02  0.59743365401E+02  0.51100000000E-03 0. -1.
     200002    1    4    4    0    0  0.24527981446E+03  0.95159537368E+02 -0.96552336771E+03  0.10011757581E+04  0.30000000000E+02 0. -1.
     200000    1    3    3    0    0  0.42243619573E+01 -0.20011336008E+03 -0.95305384247E+02  0.24361305052E+03  0.10100000000E+03 0. -1.
    -200001    1    1    2    0    0 -0.24216109384E+03  0.10874056193E+03 -0.47793482887E+03  0.82137519188E+03  0.61300000000E+03 0. -1.
<mgrwt>
<rscale>  0 0.14021742E+04</rscale>
<asrwt>0</asrwt>
<pdfrwt beam="1">  1        2 0.26598859E+00 0.14021742E+04</pdfrwt>
<pdfrwt beam="2">  1       -2 0.37712462E-01 0.14021742E+04</pdfrwt>
<totfact> 0.61077926E+01</totfact>
</mgrwt>
</event>
<event>
 8    1  0.7326756E-052  0.1348036E+04  0.7818608E-02  0.8992316E-01
         -2   -1    0    0    0  501 -0.00000000000E+00  0.00000000000E+00  0.20071583111E+03  0.20071583113E+03  0.25500000000E-02 0. -1.
          2   -1    0    0  501    0  0.00000000000E+00 -0.00000000000E+00 -0.22633996506E+04  0.22633996506E+04  0.25500000000E-02 0.  1.
     200001    2    1    2    0    0  0.17606492399E+03  0.21927720892E+03 -0.11100829887E+04  0.12969399617E+04  0.60884125235E+03 0.  0.
    5000001    2    3    3    0    0 -0.67112531506E+01  0.38230552607E+03 -0.52391352034E+03  0.65368184182E+03  0.81314311997E+02 0.  0.
        -11    1    4    4    0    0  0.16914154200E+02  0.24533667342E+03 -0.29329209817E+03  0.38274851637E+03  0.51100000000E-03 0. -1.
     200002    1    4    4    0    0 -0.23625407350E+02  0.13696885265E+03 -0.23062142218E+03  0.27093332544E+03  0.30000000000E+02 0. -1.
     200000    1    3    3    0    0  0.18277617714E+03 -0.16302831715E+03 -0.58616946836E+03  0.64325811986E+03  0.10100000000E+03 0. -1.
    -200001    1    1    2    0    0 -0.17606492399E+03 -0.21927720892E+03 -0.95260083075E+03  0.11671755200E+04  0.61300000000E+03 0. -1.
<mgrwt>
<rscale>  0 0.13480358E+04</rscale>
<asrwt>0</asrwt>
<pdfrwt beam="1">  1        2 0.32334279E+00 0.13480358E+04</pdfrwt>
<pdfrwt beam="2">  1       -2 0.28673692E-01 0.13480358E+04</pdfrwt>
<totfact> 0.64017530E+01</totfact>
</mgrwt>
</event>
<event>
 8    1  0.7326756E-052  0.1826754E+04  0.7818608E-02  0.8692200E-01
         -2   -1    0    0    0  501 -0.00000000000E+00  0.00000000000E+00  0.26268738228E+03  0.26268738229E+03  0.25500000000E-02 0. -1.
          2   -1    0    0  501    0  0.00000000000E+00 -0.00000000000E+00 -0.31758572639E+04  0.31758572639E+04  0.25500000000E-02 0.  1.
     200001    2    1    2    0    0 -0.44188611135E+03  0.16669770891E+03 -0.23697661004E+04  0.24929717346E+04  0.61324158188E+03 0.  0.
    5000001    2    3    3    0    0 -0.49891003593E+03  0.16287667942E+03 -0.11399860091E+04  0.12577282764E+04  0.82899214044E+02 0.  0.
        -11    1    4    4    0    0 -0.42933628389E+03  0.14393211979E+03 -0.95411849060E+03  0.10561194032E+04  0.51100000000E-03 0. -1.
     200002    1    4    4    0    0 -0.69573752039E+02  0.18944559632E+02 -0.18586751847E+03  0.20160887315E+03  0.30000000000E+02 0.  1.
     200000    1    3    3    0    0  0.57023924576E+02  0.38210294952E+01 -0.12297800913E+04  0.12352434583E+04  0.10100000000E+03 0.  1.
    -200001    1    1    2    0    0  0.44188611135E+03 -0.16669770891E+03 -0.54340378126E+03  0.94557291154E+03  0.61300000000E+03 0. -1.
<mgrwt>
<rscale>  0 0.18267541E+04</rscale>
<asrwt>0</asrwt>
<pdfrwt beam="1">  1        2 0.45369387E+00 0.18267541E+04</pdfrwt>
<pdfrwt beam="2">  1       -2 0.37526771E-01 0.18267541E+04</pdfrwt>
<totfact> 0.11887835E+01</totfact>
</mgrwt>
</event>
<event>
 8    1  0.7326756E-052  0.1298972E+04  0.7818608E-02  0.9030380E-01
         -2   -1    0    0    0  501 -0.00000000000E+00  0.00000000000E+00  0.14030304523E+04  0.14030304523E+04  0.25500000000E-02 0. -1.
          2   -1    0    0  501    0  0.00000000000E+00 -0.00000000000E+00 -0.30065803868E+03  0.30065803869E+03  0.25500000000E-02 0.  1.
     200001    2    1    2    0    0  0.13667208577E+03  0.19150531705E+02  0.33678578848E+03  0.71326540841E+03  0.61341411267E+03 0.  0.
    5000001    2    3    3    0    0  0.58022035928E+02  0.69427954169E+02  0.49153700273E+03  0.50623259010E+03  0.80473677385E+02 0.  0.
        -11    1    4    4    0    0 -0.11248525181E+02  0.87736402141E+01  0.18372750076E+02  0.23260783026E+02  0.51100000000E-03 0. -1.
     200002    1    4    4    0    0  0.69270561109E+02  0.60654313955E+02  0.47316425265E+03  0.48297180707E+03  0.30000000000E+02 0. -1.
     200000    1    3    3    0    0  0.78650049840E+02 -0.50277422464E+02 -0.15475121425E+03  0.20703281832E+03  0.10100000000E+03 0.  1.
    -200001    1    1    2    0    0 -0.13667208577E+03 -0.19150531705E+02  0.76558662513E+03  0.99042308256E+03  0.61300000000E+03 0. -1.
<mgrwt>
<rscale>  0 0.12989725E+04</rscale>
<asrwt>0</asrwt>
<pdfrwt beam="1">  1        2 0.42951148E-01 0.12989725E+04</pdfrwt>
<pdfrwt beam="2">  1       -2 0.20043292E+00 0.12989725E+04</pdfrwt>
<totfact> 0.15419994E+01</totfact>
</mgrwt>
</event>
<event>
 8    1  0.7326756E-052  0.1356474E+04  0.7818608E-02  0.8985942E-01
          2   -1    0    0  501    0  0.00000000000E+00  0.00000000000E+00  0.94010115379E+03  0.94010115379E+03  0.25500000000E-02 0.  1.
         -2   -1    0    0    0  501 -0.00000000000E+00 -0.00000000000E+00 -0.48931470042E+03  0.48931470043E+03  0.25500000000E-02 0. -1.
     200001    2    1    2    0    0  0.29969262767E+02 -0.11848441485E+03 -0.52186814136E+02  0.62711427682E+03  0.61287204158E+03 0.  0.
    5000001    2    3    3    0    0  0.15919805511E+03  0.11564530401E+03  0.32715848915E+02  0.32890919937E+03  0.26152070199E+03 0.  0.
        -11    1    4    4    0    0  0.12627328763E+03  0.15745392830E+02  0.13044247093E+03  0.18223089417E+03  0.51100000000E-03 0. -1.
     200002    1    4    4    0    0  0.32924767477E+02  0.99899911180E+02 -0.97726622017E+02  0.14667830521E+03  0.30000000000E+02 0. -1.
     200000    1    3    3    0    0 -0.12922879234E+03 -0.23412971886E+03 -0.84902663051E+02  0.29820507745E+03  0.10100000000E+03 0.  1.
    -200001    1    1    2    0    0 -0.29969262767E+02  0.11848441485E+03  0.50297326750E+03  0.80230157740E+03  0.61300000000E+03 0.  1.
<mgrwt>
<rscale>  0 0.13564738E+04</rscale>
<asrwt>0</asrwt>
<pdfrwt beam="1">  1        2 0.13430016E+00 0.13564738E+04</pdfrwt>
<pdfrwt beam="2">  1       -2 0.69902101E-01 0.13564738E+04</pdfrwt>
<totfact> 0.55846105E+01</totfact>
</mgrwt>
</event>
<event>
 8    1  0.7326756E-052  0.1422256E+04  0.7818608E-02  0.8937864E-01
         -2   -1    0    0    0  501 -0.00000000000E+00  0.00000000000E+00  0.15769449529E+03  0.15769449531E+03  0.25500000000E-02 0. -1.
          2   -1    0    0  501    0  0.00000000000E+00 -0.00000000000E+00 -0.32068520514E+04  0.32068520514E+04  0.25500000000E-02 0.  1.
     200001    2    1    2    0    0 -0.12255007043E+03  0.32824209081E+03 -0.13228866050E+04  0.14994616193E+04  0.61285788567E+03 0.  0.
    5000001    2    3    3    0    0 -0.71094968712E+02  0.93637928167E+02  0.45707698071E+01  0.14667530113E+03  0.87579654356E+02 0.  0.
        -11    1    4    4    0    0 -0.28259618450E+02  0.36395005760E+02  0.40382800830E+02  0.61269675063E+02  0.51100000000E-03 0. -1.
     200002    1    4    4    0    0 -0.42835350262E+02  0.57242922407E+02 -0.35812031023E+02  0.85405626066E+02  0.30000000000E+02 0. -1.
     200000    1    3    3    0    0 -0.51455101722E+02  0.23460416264E+03 -0.13274573748E+04  0.13527863181E+04  0.10100000000E+03 0.  1.
    -200001    1    1    2    0    0  0.12255007043E+03 -0.32824209081E+03 -0.17262709512E+04  0.18650849275E+04  0.61300000000E+03 0. -1.
<mgrwt>
<rscale>  0 0.14222558E+04</rscale>
<asrwt>0</asrwt>
<pdfrwt beam="1">  1        2 0.45812168E+00 0.14222558E+04</pdfrwt>
<pdfrwt beam="2">  1       -2 0.22527787E-01 0.14222558E+04</pdfrwt>
<totfact> 0.30523998E+01</totfact>
</mgrwt>
</event>
<event>
 8    1  0.7326756E-052  0.1266388E+04  0.7818608E-02  0.9056653E-01
          2   -1    0    0  501    0  0.00000000000E+00  0.00000000000E+00  0.84219383610E+03  0.84219383611E+03  0.25500000000E-02 0.  1.
         -2   -1    0    0    0  501 -0.00000000000E+00 -0.00000000000E+00 -0.47605959427E+03  0.47605959427E+03  0.25500000000E-02 0. -1.
     200001    2    1    2    0    0  0.12663827575E+02  0.20210709886E+02  0.19261969050E+02  0.61351360679E+03  0.61274715581E+03 0.  0.
    5000001    2    3    3    0    0 -0.24666878194E+03 -0.12303536601E+03 -0.45048162388E+02  0.29396762634E+03  0.91675728117E+02 0.  0.
        -11    1    4    4    0    0 -0.22212160121E+03 -0.99094388882E+02 -0.26084403323E+02  0.24461827350E+03  0.51100000000E-03 0. -1.
     200002    1    4    4    0    0 -0.24547180731E+02 -0.23940977128E+02 -0.18963759065E+02  0.49349352838E+02  0.30000000000E+02 0. -1.
     200000    1    3    3    0    0  0.25933260952E+03  0.14324607590E+03  0.64310131438E+02  0.31954598046E+03  0.10100000000E+03 0. -1.
    -200001    1    1    2    0    0 -0.12663827575E+02 -0.20210709886E+02  0.34687227279E+03  0.70473982359E+03  0.61300000000E+03 0.  1.
<mgrwt>
<rscale>  0 0.12663877E+04</rscale>
<asrwt>0</asrwt>
<pdfrwt beam="1">  1        2 0.12031341E+00 0.12663877E+04</pdfrwt>
<pdfrwt beam="2">  1       -2 0.68008513E-01 0.12663877E+04</pdfrwt>
<totfact> 0.69205083E+01</totfact>
</mgrwt>
</event>
<event>
 8    1  0.7326756E-052  0.1322206E+04  0.7818608E-02  0.9012139E-01
          2   -1    0    0  501    0  0.00000000000E+00  0.00000000000E+00  0.14511187784E+04  0.14511187784E+04  0.25500000000E-02 0. -1.
         -2   -1    0    0    0  501 -0.00000000000E+00 -0.00000000000E+00 -0.30118613376E+03  0.30118613377E+03  0.25500000000E-02 0.  1.
     200001    2    1    2    0    0 -0.64099788432E+02 -0.79916089631E+02  0.87261316409E+03  0.10717386343E+04  0.61373821930E+03 0.  0.
    5000001    2    3    3    0    0 -0.15912981848E+03  0.25476461868E+01 -0.81089595948E+01  0.17635970139E+03  0.75552626795E+02 0.  0.
        -11    1    4    4    0    0 -0.18132680042E+02  0.18629188508E+02  0.14174975255E+02  0.29610313638E+02  0.51100000000E-03 0. -1.
     200002    1    4    4    0    0 -0.14099713844E+03 -0.16081542322E+02 -0.22283934850E+02  0.14674938775E+03  0.30000000000E+02 0. -1.
     200000    1    3    3    0    0  0.95030030051E+02 -0.82463735818E+02  0.88072212369E+03  0.89537893290E+03  0.10100000000E+03 0.  1.
    -200001    1    1    2    0    0  0.64099788432E+02  0.79916089631E+02  0.27731948050E+03  0.68056627783E+03  0.61300000000E+03 0.  1.
<mgrwt>
<rscale>  0 0.13222055E+04</rscale>
<asrwt>0</asrwt>
<pdfrwt beam="1">  1        2 0.20730268E+00 0.13222055E+04</pdfrwt>
<pdfrwt beam="2">  1       -2 0.43026591E-01 0.13222055E+04</pdfrwt>
<totfact> 0.77831061E+01</totfact>
</mgrwt>
</event>
<event>
 8    1  0.7326756E-052  0.2007655E+04  0.7818608E-02  0.8603050E-01
          2   -1    0    0  501    0  0.00000000000E+00  0.00000000000E+00  0.20981548458E+04  0.20981548458E+04  0.25500000000E-02 0.  1.
         -2   -1    0    0    0  501 -0.00000000000E+00 -0.00000000000E+00 -0.48026464343E+03  0.48026464344E+03  0.25500000000E-02 0. -1.
     200001    2    1    2    0    0  0.66171634470E+03 -0.33957241195E+03  0.11706608285E+04  0.15158936982E+04  0.61180796412E+03 0.  0.
    5000001    2    3    3    0    0  0.21801009665E+03 -0.37027421030E+03  0.61205718709E+03  0.79474401664E+03  0.26902166948E+03 0.  0.
        -11    1    4    4    0    0 -0.93889416845E+01  0.28975323357E+02  0.10722908978E+03  0.11147106927E+03  0.51100000000E-03 0. -1.
     200002    1    4    4    0    0  0.22739903834E+03 -0.39924953366E+03  0.50482809731E+03  0.68327294736E+03  0.30000000000E+02 0. -1.
     200000    1    3    3    0    0  0.44370624805E+03  0.30701798356E+02  0.55860364143E+03  0.72114968155E+03  0.10100000000E+03 0. -1.
    -200001    1    1    2    0    0 -0.66171634470E+03  0.33957241195E+03  0.44722937383E+03  0.10625257910E+04  0.61300000000E+03 0. -1.
<mgrwt>
<rscale>  0 0.20076549E+04</rscale>
<asrwt>0</asrwt>
<pdfrwt beam="1">  1        2 0.29973641E+00 0.20076549E+04</pdfrwt>
<pdfrwt beam="2">  1       -2 0.68609234E-01 0.20076549E+04</pdfrwt>
<totfact> 0.12922342E+01</totfact>
</mgrwt>
</event>
<event>
 8    1  0.7326756E-052  0.1546150E+04  0.7818608E-02  0.8854331E-01
         -2   -1    0    0    0  501 -0.00000000000E+00  0.00000000000E+00  0.67665381747E+03  0.67665381748E+03  0.25500000000E-02 0. -1.
          2   -1    0    0  501    0  0.00000000000E+00 -0.00000000000E+00 -0.88323581961E+03  0.88323581961E+03  0.25500000000E-02 0.  1.
     200001    2    1    2    0    0  0.80606145266E+02  0.23449414044E+03  0.30083594565E+03  0.72638689186E+03  0.61290357962E+03 0.  0.
    5000001    2    3    3    0    0 -0.47260832216E+02 -0.80343859480E+02  0.34782306958E+03  0.36878135507E+03  0.79561787911E+02 0.  0.
        -11    1    4    4    0    0  0.10369362831E+02 -0.48087629870E+02  0.16191877095E+03  0.16922657066E+03  0.51100000000E-03 0. -1.
     200002    1    4    4    0    0 -0.57630195047E+02 -0.32256229610E+02  0.18590429863E+03  0.19955478441E+03  0.30000000000E+02 0.  1.
     200000    1    3    3    0    0  0.12786697748E+03  0.31483799992E+03 -0.46987123930E+02  0.35760553679E+03  0.10100000000E+03 0.  1.
    -200001    1    1    2    0    0 -0.80606145266E+02 -0.23449414044E+03 -0.50741794779E+03  0.83350274523E+03  0.61300000000E+03 0.  1.
<mgrwt>
<rscale>  0 0.15461499E+04</rscale>
<asrwt>0</asrwt>
<pdfrwt beam="1">  1        2 0.12617655E+00 0.15461499E+04</pdfrwt>
<pdfrwt beam="2">  1       -2 0.96664831E-01 0.15461499E+04</pdfrwt>
<totfact> 0.28805714E+01</totfact>
</mgrwt>
</event>
<event>
 8    1  0.7326756E-052  0.1262710E+04  0.7818608E-02  0.9059670E-01
          2   -1    0    0  501    0  0.00000000000E+00  0.00000000000E+00  0.24223032147E+04  0.24223032147E+04  0.25500000000E-02 0.  1.
         -2   -1    0    0    0  501 -0.00000000000E+00 -0.00000000000E+00 -0.16455798114E+03  0.16455798116E+03  0.25500000000E-02 0. -1.
     200001    2    1    2    0    0 -0.13032280362E+03  0.25257491194E+02  0.12768933986E+04  0.14226183964E+04  0.61299622865E+03 0.  0.
    5000001    2    3    3    0    0 -0.34408533793E+03 -0.81203994633E+01  0.52191118655E+03  0.63078025310E+03  0.83855711723E+02 0.  0.
        -11    1    4    4    0    0 -0.27675507196E+02  0.17928980530E+02  0.30205428881E+02  0.44718564105E+02  0.51100000000E-03 0. -1.
     200002    1    4    4    0    0 -0.31640983073E+03 -0.26049379993E+02  0.49170575767E+03  0.58606168900E+03  0.30000000000E+02 0. -1.
     200000    1    3    3    0    0  0.21376253431E+03  0.33377890658E+02  0.75498221201E+03  0.79183814325E+03  0.10100000000E+03 0.  1.
    -200001    1    1    2    0    0  0.13032280362E+03 -0.25257491194E+02  0.98085183497E+03  0.11642427995E+04  0.61300000000E+03 0. -1.
<mgrwt>
<rscale>  0 0.12627103E+04</rscale>
<asrwt>0</asrwt>
<pdfrwt beam="1">  1        2 0.34604331E+00 0.12627103E+04</pdfrwt>
<pdfrwt beam="2">  1       -2 0.23508284E-01 0.12627103E+04</pdfrwt>
<totfact> 0.76567607E+01</totfact>
</mgrwt>
</event>
<event>
 8    1  0.7326756E-052  0.1247201E+04  0.7818608E-02  0.9072516E-01
          2   -1    0    0  501    0  0.00000000000E+00  0.00000000000E+00  0.76455484302E+03  0.76455484303E+03  0.25500000000E-02 0.  1.
         -2   -1    0    0    0  501 -0.00000000000E+00 -0.00000000000E+00 -0.50863302026E+03  0.50863302027E+03  0.25500000000E-02 0. -1.
     200001    2    1    2    0    0 -0.46692172024E+02  0.30561407902E+02  0.23027111028E+03  0.65711877818E+03  0.61291610015E+03 0.  0.
    5000001    2    3    3    0    0  0.11720099178E+03  0.36197987765E+02  0.38225748181E+03  0.41177494331E+03  0.91604883833E+02 0.  0.
        -11    1    4    4    0    0  0.58162960628E+02  0.48531339375E+02  0.12790454738E+03  0.14865326815E+03  0.51100000000E-03 0. -1.
     200002    1    4    4    0    0  0.59038031156E+02 -0.12333351611E+02  0.25435293443E+03  0.26312167516E+03  0.30000000000E+02 0. -1.
     200000    1    3    3    0    0 -0.16389316381E+03 -0.56365798623E+01 -0.15198637153E+03  0.24534383487E+03  0.10100000000E+03 0. -1.
    -200001    1    1    2    0    0  0.46692172024E+02 -0.30561407902E+02  0.25650712483E+02  0.61606908511E+03  0.61300000000E+03 0. -1.
<mgrwt>
<rscale>  0 0.12472014E+04</rscale>
<asrwt>0</asrwt>
<pdfrwt beam="1">  1        2 0.10922212E+00 0.12472014E+04</pdfrwt>
<pdfrwt beam="2">  1       -2 0.72661860E-01 0.12472014E+04</pdfrwt>
<totfact> 0.67966354E+01</totfact>
</mgrwt>
</event>
<event>
 8    1  0.7326756E-052  0.1288574E+04  0.7818608E-02  0.9038675E-01
         -2   -1    0    0    0  501 -0.00000000000E+00  0.00000000000E+00  0.72263724191E+03  0.72263724192E+03  0.25500000000E-02 0. -1.
          2   -1    0    0  501    0  0.00000000000E+00 -0.00000000000E+00 -0.57443169104E+03  0.57443169104E+03  0.25500000000E-02 0.  1.
     200001    2    1    2    0    0 -0.13410789762E+03 -0.37653418772E+02 -0.70341798849E+02  0.63153557375E+03  0.61195302442E+03 0.  0.
    5000001    2    3    3    0    0  0.21590191728E+03 -0.10230614867E+03  0.10771599245E+02  0.25276489200E+03  0.81816119034E+02 0.  0.
        -11    1    4    4    0    0  0.10886439493E+03 -0.52411480224E+02 -0.29613925630E+02  0.12440017819E+03  0.51100000000E-03 0. -1.
     200002    1    4    4    0    0  0.10703752235E+03 -0.49894668450E+02  0.40385524875E+02  0.12836471380E+03  0.30000000000E+02 0. -1.
     200000    1    3    3    0    0 -0.35000981490E+03  0.64652729901E+02 -0.81113398095E+02  0.37877068176E+03  0.10100000000E+03 0. -1.
    -200001    1    1    2    0    0  0.13410789762E+03  0.37653418772E+02  0.21854734973E+03  0.66553335921E+03  0.61300000000E+03 0. -1.
<mgrwt>
<rscale>  0 0.12885740E+04</rscale>
<asrwt>0</asrwt>
<pdfrwt beam="1">  1        2 0.82061670E-01 0.12885740E+04</pdfrwt>
<pdfrwt beam="2">  1       -2 0.10323389E+00 0.12885740E+04</pdfrwt>
<totfact> 0.42970656E+01</totfact>
</mgrwt>
</event>
<event>
 8    1  0.7326756E-052  0.1288517E+04  0.7818608E-02  0.9038721E-01
         -2   -1    0    0    0  501 -0.00000000000E+00  0.00000000000E+00  0.14464318060E+03  0.14464318062E+03  0.25500000000E-02 0. -1.
          2   -1    0    0  501    0  0.00000000000E+00 -0.00000000000E+00 -0.28696079623E+04  0.28696079623E+04  0.25500000000E-02 0.  1.
     200001    2    1    2    0    0 -0.20033105521E+02 -0.18623884082E+03 -0.12141517888E+04  0.13730896241E+04  0.61328975092E+03 0.  0.
    5000001    2    3    3    0    0 -0.25252810864E+03  0.62749424333E+02 -0.68394966977E+03  0.73483860012E+03  0.67027468577E+02 0.  0.
        -11    1    4    4    0    0 -0.74583933361E+02  0.14711667781E+02 -0.27418747113E+03  0.28453113293E+03  0.51100000000E-03 0. -1.
     200002    1    4    4    0    0 -0.17794417528E+03  0.48037756552E+02 -0.40976219864E+03  0.45030746719E+03  0.30000000000E+02 0. -1.
     200000    1    3    3    0    0  0.23249500312E+03 -0.24898826516E+03 -0.53020211901E+03  0.63825102402E+03  0.10100000000E+03 0.  1.
    -200001    1    1    2    0    0  0.20033105521E+02  0.18623884082E+03 -0.15108129929E+04  0.16411615188E+04  0.61300000000E+03 0.  1.
<mgrwt>
<rscale>  0 0.12885173E+04</rscale>
<asrwt>0</asrwt>
<pdfrwt beam="1">  1        2 0.40994396E+00 0.12885173E+04</pdfrwt>
<pdfrwt beam="2">  1       -2 0.20663313E-01 0.12885173E+04</pdfrwt>
<totfact> 0.55598870E+01</totfact>
</mgrwt>
</event>
<event>
 8    1  0.7326756E-052  0.1880864E+04  0.7818608E-02  0.8664441E-01
          2   -1    0    0  501    0  0.00000000000E+00  0.00000000000E+00  0.20371330804E+04  0.20371330805E+04  0.25500000000E-02 0.  1.
         -2   -1    0    0    0  501 -0.00000000000E+00 -0.00000000000E+00 -0.43414548580E+03  0.43414548580E+03  0.25500000000E-02 0. -1.
     200001    2    1    2    0    0 -0.10666808735E+03 -0.70457937144E+03  0.76736194136E+03  0.12135626190E+04  0.61325338130E+03 0.  0.
    5000001    2    3    3    0    0 -0.40247107797E+02 -0.58893804950E+03  0.77309655058E+03  0.10461752013E+04  0.38514467339E+03 0.  0.
        -11    1    4    4    0    0  0.15383068904E+03 -0.14763826499E+03  0.16510997015E+03  0.26967061468E+03  0.51100000000E-03 0. -1.
     200002    1    4    4    0    0 -0.19407779684E+03 -0.44129978451E+03  0.60798658044E+03  0.77650458661E+03  0.30000000000E+02 0. -1.
     200000    1    3    3    0    0 -0.66420979548E+02 -0.11564132194E+03 -0.57346092264E+01  0.16738741771E+03  0.10100000000E+03 0. -1.
    -200001    1    1    2    0    0  0.10666808735E+03  0.70457937144E+03  0.83562565330E+03  0.12577159473E+04  0.61300000000E+03 0. -1.
<mgrwt>
<rscale>  0 0.18808638E+04</rscale>
<asrwt>0</asrwt>
<pdfrwt beam="1">  1        2 0.29101901E+00 0.18808638E+04</pdfrwt>
<pdfrwt beam="2">  1       -2 0.62020784E-01 0.18808638E+04</pdfrwt>
<totfact> 0.17436955E+01</totfact>
</mgrwt>
</event>
<event>
 8    1  0.7326756E-052  0.1498812E+04  0.7818608E-02  0.8885244E-01
          2   -1    0    0  501    0  0.00000000000E+00  0.00000000000E+00  0.11600434178E+04  0.11600434178E+04  0.25500000000E-02 0.  1.
         -2   -1    0    0    0  501 -0.00000000000E+00 -0.00000000000E+00 -0.48412762282E+03  0.48412762282E+03  0.25500000000E-02 0. -1.
     200001    2    1    2    0    0 -0.99855180961E+02 -0.39271446911E+03  0.49944006426E+03  0.88845390113E+03  0.61295533706E+03 0.  0.
    5000001    2    3    3    0    0  0.15146695644E+03 -0.37126859383E+03  0.12734661368E+03  0.42771831722E+03  0.77092095650E+02 0.  0.
        -11    1    4    4    0    0  0.71352859092E+02 -0.20186339743E+03  0.36035999513E+02  0.21711438226E+03  0.51100000000E-03 0. -1.
     200002    1    4    4    0    0  0.80114097351E+02 -0.16940519641E+03  0.91310614172E+02  0.21060393497E+03  0.30000000000E+02 0. -1.
     200000    1    3    3    0    0 -0.25132213740E+03 -0.21445875272E+02  0.37209345057E+03  0.46073558390E+03  0.10100000000E+03 0.  1.
    -200001    1    1    2    0    0  0.99855180961E+02  0.39271446911E+03  0.17647573074E+03  0.75571713951E+03  0.61300000000E+03 0. -1.
<mgrwt>
<rscale>  0 0.14988116E+04</rscale>
<asrwt>0</asrwt>
<pdfrwt beam="1">  1        2 0.16572049E+00 0.14988116E+04</pdfrwt>
<pdfrwt beam="2">  1       -2 0.69161089E-01 0.14988116E+04</pdfrwt>
<totfact> 0.41629180E+01</totfact>
</mgrwt>
</event>
<event>
 8    1  0.7326756E-052  0.1318236E+04  0.7818608E-02  0.9015228E-01
          2   -1    0    0  501    0  0.00000000000E+00  0.00000000000E+00  0.12883607643E+04  0.12883607643E+04  0.25500000000E-02 0.  1.
         -2   -1    0    0    0  501 -0.00000000000E+00 -0.00000000000E+00 -0.33720093910E+03  0.33720093911E+03  0.25500000000E-02 0. -1.
     200001    2    1    2    0    0 -0.23723959795E+03  0.14600699560E+02  0.41692467376E+03  0.77840646127E+03  0.61285775518E+03 0.  0.
    5000001    2    3    3    0    0 -0.25581660290E+03 -0.12206201882E+03 -0.32398848867E+02  0.29766283760E+03  0.84924723844E+02 0.  0.
        -11    1    4    4    0    0 -0.20602643410E+03 -0.76988365382E+02 -0.40574741910E+02  0.22365243042E+03  0.51100000000E-03 0. -1.
     200002    1    4    4    0    0 -0.49790168809E+02 -0.45073653436E+02  0.81758930432E+01  0.74010407181E+02  0.30000000000E+02 0.  1.
     200000    1    3    3    0    0  0.18577004957E+02  0.13666271838E+03  0.44932352263E+03  0.48074362367E+03  0.10100000000E+03 0.  1.
    -200001    1    1    2    0    0  0.23723959795E+03 -0.14600699560E+02  0.53423515142E+03  0.84715524213E+03  0.61300000000E+03 0. -1.
<mgrwt>
<rscale>  0 0.13182359E+04</rscale>
<asrwt>0</asrwt>
<pdfrwt beam="1">  1        2 0.18405154E+00 0.13182359E+04</pdfrwt>
<pdfrwt beam="2">  1       -2 0.48171563E-01 0.13182359E+04</pdfrwt>
<totfact> 0.76179702E+01</totfact>
</mgrwt>
</event>
<event>
 8    1  0.7326756E-052  0.2052096E+04  0.7818608E-02  0.8582644E-01
          2   -1    0    0  501    0  0.00000000000E+00  0.00000000000E+00  0.11782934339E+04  0.11782934339E+04  0.25500000000E-02 0.  1.
         -2   -1    0    0    0  501 -0.00000000000E+00 -0.00000000000E+00 -0.89347385576E+03  0.89347385576E+03  0.25500000000E-02 0. -1.
     200001    2    1    2    0    0 -0.28695132956E+03  0.10283180599E+03  0.91410904806E+03  0.11418803702E+04  0.61268261144E+03 0.  0.
    5000001    2    3    3    0    0 -0.34783770602E+03 -0.11251537881E+03  0.74430673763E+03  0.84335836861E+03  0.15365558244E+03 0.  0.
        -11    1    4    4    0    0 -0.28972419066E+03 -0.75523227299E+02  0.68520196275E+03  0.74776038561E+03  0.51100000000E-03 0. -1.
     200002    1    4    4    0    0 -0.58113515355E+02 -0.36992151511E+02  0.59104774879E+02  0.95597983001E+02  0.30000000000E+02 0. -1.
     200000    1    3    3    0    0  0.60886376458E+02  0.21534718480E+03  0.16980231042E+03  0.29852200164E+03  0.10100000000E+03 0. -1.
    -200001    1    1    2    0    0  0.28695132956E+03 -0.10283180599E+03 -0.62928946994E+03  0.92988691938E+03  0.61300000000E+03 0. -1.
<mgrwt>
<rscale>  0 0.20520959E+04</rscale>
<asrwt>0</asrwt>
<pdfrwt beam="1">  1        2 0.16832763E+00 0.20520959E+04</pdfrwt>
<pdfrwt beam="2">  1       -2 0.12763912E+00 0.20520959E+04</pdfrwt>
<totfact> 0.92953672E+00</totfact>
</mgrwt>
</event>
<event>
 8    1  0.7326756E-052  0.1624651E+04  0.7818608E-02  0.8805545E-01
          2   -1    0    0  501    0  0.00000000000E+00  0.00000000000E+00  0.15870641039E+04  0.15870641039E+04  0.25500000000E-02 0. -1.
         -2   -1    0    0    0  501 -0.00000000000E+00 -0.00000000000E+00 -0.41578204815E+03  0.41578204816E+03  0.25500000000E-02 0.  1.
     200001    2    1    2    0    0  0.24680969808E+02 -0.53030949695E+03  0.64451255280E+03  0.10358443826E+04  0.61297621611E+03 0.  0.
    5000001    2    3    3    0    0 -0.13323299491E+03  0.20074928428E+01  0.12278492900E+02  0.18836629775E+03  0.13257465738E+03 0.  0.
        -11    1    4    4    0    0 -0.58574908413E+02  0.44884897500E+02  0.50591318226E+02  0.89471534017E+02  0.51100000000E-03 0. -1.
     200002    1    4    4    0    0 -0.74658086497E+02 -0.42877404658E+02 -0.38312825326E+02  0.98894763734E+02  0.30000000000E+02 0. -1.
     200000    1    3    3    0    0  0.15791396472E+03 -0.53231698980E+03  0.63223405990E+03  0.84747808489E+03  0.10100000000E+03 0. -1.
    -200001    1    1    2    0    0 -0.24680969808E+02  0.53030949695E+03  0.52676950296E+03  0.96700176943E+03  0.61300000000E+03 0.  1.
<mgrwt>
<rscale>  0 0.16246511E+04</rscale>
<asrwt>0</asrwt>
<pdfrwt beam="1">  1        2 0.22672344E+00 0.16246511E+04</pdfrwt>
<pdfrwt beam="2">  1       -2 0.59397437E-01 0.16246511E+04</pdfrwt>
<totfact> 0.33355312E+01</totfact>
</mgrwt>
</event>
<event>
 8    1  0.7326756E-052  0.1608731E+04  0.7818608E-02  0.8815202E-01
          2   -1    0    0  501    0  0.00000000000E+00  0.00000000000E+00  0.23219287372E+04  0.23219287372E+04  0.25500000000E-02 0. -1.
         -2   -1    0    0    0  501 -0.00000000000E+00 -0.00000000000E+00 -0.27864933689E+03  0.27864933690E+03  0.25500000000E-02 0.  1.
     200001    2    1    2    0    0 -0.37965403836E+03 -0.20307164554E+03  0.54872698648E+03  0.92880320895E+03  0.61335048153E+03 0.  0.
    5000001    2    3    3    0    0  0.58267038516E+02  0.72610321817E+02 -0.40464332913E+02  0.13815611476E+03  0.93714690394E+02 0.  0.
        -11    1    4    4    0    0 -0.12023077529E+02  0.41422420714E+02 -0.34797216000E+02  0.55418567039E+02  0.51100000000E-03 0. -1.
     200002    1    4    4    0    0  0.70290116044E+02  0.31187901103E+02 -0.56671169133E+01  0.82737547721E+02  0.30000000000E+02 0. -1.
     200000    1    3    3    0    0 -0.43792107688E+03 -0.27568196735E+03  0.58919131940E+03  0.79064709419E+03  0.10100000000E+03 0.  1.
    -200001    1    1    2    0    0  0.37965403836E+03  0.20307164554E+03  0.14945524138E+04  0.16717748651E+04  0.61300000000E+03 0. -1.
<mgrwt>
<rscale>  0 0.16087311E+04</rscale>
<asrwt>0</asrwt>
<pdfrwt beam="1">  1        2 0.33170412E+00 0.16087311E+04</pdfrwt>
<pdfrwt beam="2">  1       -2 0.39807047E-01 0.16087311E+04</pdfrwt>
<totfact> 0.31350500E+01</totfact>
</mgrwt>
</event>
<event>
 8    1  0.7326756E-052  0.1508846E+04  0.7818608E-02  0.8878592E-01
         -2   -1    0    0    0  501 -0.00000000000E+00  0.00000000000E+00  0.49406501125E+03  0.49406501125E+03  0.25500000000E-02 0. -1.
          2   -1    0    0  501    0  0.00000000000E+00 -0.00000000000E+00 -0.11519817954E+04  0.11519817954E+04  0.25500000000E-02 0.  1.
     200001    2    1    2    0    0  0.76483386216E+02  0.38598532390E+03 -0.11137328850E+03  0.73538047299E+03  0.61118413922E+03 0.  0.
    5000001    2    3    3    0    0  0.17185778631E+03 -0.71440300276E+02  0.92040425004E+02  0.21584932216E+03  0.58997244202E+02 0.  0.
        -11    1    4    4    0    0 -0.31243844115E+01 -0.15887864601E+01  0.51062877773E+01  0.61935608088E+01  0.51100000000E-03 0. -1.
     200002    1    4    4    0    0  0.17498217072E+03 -0.69851513815E+02  0.86934137227E+02  0.20965576135E+03  0.30000000000E+02 0. -1.
     200000    1    3    3    0    0 -0.95374400090E+02  0.45742562417E+03 -0.20341371351E+03  0.51953115083E+03  0.10100000000E+03 0. -1.
    -200001    1    1    2    0    0 -0.76483386216E+02 -0.38598532390E+03 -0.54654349564E+03  0.91066633366E+03  0.61300000000E+03 0.  1.
<mgrwt>
<rscale>  0 0.15088458E+04</rscale>
<asrwt>0</asrwt>
<pdfrwt beam="1">  1        2 0.16456883E+00 0.15088458E+04</pdfrwt>
<pdfrwt beam="2">  1       -2 0.70580716E-01 0.15088458E+04</pdfrwt>
<totfact> 0.40224368E+01</totfact>
</mgrwt>
</event>
<event>
 8    1  0.7326756E-052  0.1586547E+04  0.7818608E-02  0.8828855E-01
          2   -1    0    0  501    0  0.00000000000E+00  0.00000000000E+00  0.25416473540E+04  0.25416473540E+04  0.25500000000E-02 0.  1.
         -2   -1    0    0    0  501 -0.00000000000E+00 -0.00000000000E+00 -0.24758861551E+03  0.24758861553E+03  0.25500000000E-02 0. -1.
     200001    2    1    2    0    0  0.15820122780E+03 -0.16323906375E+03  0.35649474448E+03  0.74434040953E+03  0.61260062195E+03 0.  0.
    5000001    2    3    3    0    0 -0.44323428591E+02 -0.11193747063E+03  0.44577295685E+03  0.49570475420E+03  0.18031946823E+03 0.  0.
        -11    1    4    4    0    0  0.16885782205E+02 -0.14119720357E+03  0.27779683703E+03  0.31207829562E+03  0.51100000000E-03 0. -1.
     200002    1    4    4    0    0 -0.61209210795E+02  0.29259732937E+02  0.16797611982E+03  0.18362645857E+03  0.30000000000E+02 0. -1.
     200000    1    3    3    0    0  0.20252465639E+03 -0.51301593123E+02 -0.89278212368E+02  0.24863565534E+03  0.10100000000E+03 0. -1.
    -200001    1    1    2    0    0 -0.15820122780E+03  0.16323906375E+03  0.19375639940E+04  0.20448955600E+04  0.61300000000E+03 0.  1.
<mgrwt>
<rscale>  0 0.15865471E+04</rscale>
<asrwt>0</asrwt>
<pdfrwt beam="1">  1        2 0.36309247E+00 0.15865471E+04</pdfrwt>
<pdfrwt beam="2">  1       -2 0.35369803E-01 0.15865471E+04</pdfrwt>
<totfact> 0.30291877E+01</totfact>
</mgrwt>
</event>
<event>
 8    1  0.7326756E-052  0.1300259E+04  0.7818608E-02  0.9029360E-01
          2   -1    0    0  501    0  0.00000000000E+00  0.00000000000E+00  0.29218762914E+04  0.29218762914E+04  0.25500000000E-02 0.  1.
         -2   -1    0    0    0  501 -0.00000000000E+00 -0.00000000000E+00 -0.14465637906E+03  0.14465637908E+03  0.25500000000E-02 0. -1.
     200001    2    1    2    0    0  0.21143716571E+03  0.25937818458E+02  0.12819643452E+04  0.14365214262E+04  0.61219505067E+03 0.  0.
    5000001    2    3    3    0    0  0.20840610321E+03 -0.10373468869E+03  0.36592452167E+03  0.50584742057E+03  0.26035911323E+03 0.  0.
        -11    1    4    4    0    0  0.24452425678E+03 -0.86703259458E+02  0.37407790038E+03  0.45524042319E+03  0.51100000000E-03 0. -1.
     200002    1    4    4    0    0 -0.36118153578E+02 -0.17031429236E+02 -0.81533787016E+01  0.50606997381E+02  0.30000000000E+02 0. -1.
     200000    1    3    3    0    0  0.30310625046E+01  0.12967250715E+03  0.91603982351E+03  0.93067400560E+03  0.10100000000E+03 0.  1.
    -200001    1    1    2    0    0 -0.21143716571E+03 -0.25937818458E+02  0.14952555671E+04  0.16300112443E+04  0.61300000000E+03 0.  1.
<mgrwt>
<rscale>  0 0.13002585E+04</rscale>
<asrwt>0</asrwt>
<pdfrwt beam="1">  1        2 0.41741089E+00 0.13002585E+04</pdfrwt>
<pdfrwt beam="2">  1       -2 0.20665197E-01 0.13002585E+04</pdfrwt>
<totfact> 0.51994104E+01</totfact>
</mgrwt>
</event>
<event>
 8    1  0.7326756E-052  0.1575476E+04  0.7818608E-02  0.8835757E-01
         -2   -1    0    0    0  501 -0.00000000000E+00  0.00000000000E+00  0.31506961741E+03  0.31506961742E+03  0.25500000000E-02 0. -1.
          2   -1    0    0  501    0  0.00000000000E+00 -0.00000000000E+00 -0.19695045506E+04  0.19695045506E+04  0.25500000000E-02 0.  1.
     200001    2    1    2    0    0  0.31981732784E+03 -0.17512432944E+03 -0.13125940562E+04  0.14936406442E+04  0.61246025483E+03 0.  0.
    5000001    2    3    3    0    0  0.20846175870E+03 -0.16663204238E+03 -0.14396832748E+03  0.31535405959E+03  0.86595387824E+02 0.  0.
        -11    1    4    4    0    0  0.73270588202E+02 -0.17877461216E+02 -0.23032016934E+02  0.78858458768E+02  0.51100000000E-03 0. -1.
     200002    1    4    4    0    0  0.13519117050E+03 -0.14875458116E+03 -0.12093631055E+03  0.23649560082E+03  0.30000000000E+02 0. -1.
     200000    1    3    3    0    0  0.11135556914E+03 -0.84922870629E+01 -0.11686257287E+04  0.11782865846E+04  0.10100000000E+03 0.  1.
    -200001    1    1    2    0    0 -0.31981732784E+03  0.17512432944E+03 -0.34184087707E+03  0.79093352387E+03  0.61300000000E+03 0.  1.
<mgrwt>
<rscale>  0 0.15754759E+04</rscale>
<asrwt>0</asrwt>
<pdfrwt beam="1">  1        2 0.28135779E+00 0.15754759E+04</pdfrwt>
<pdfrwt beam="2">  1       -2 0.45009946E-01 0.15754759E+04</pdfrwt>
<totfact> 0.37476152E+01</totfact>
</mgrwt>
</event>
<event>
 8    1  0.7326756E-052  0.1605644E+04  0.7818608E-02  0.8817088E-01
          2   -1    0    0  501    0  0.00000000000E+00  0.00000000000E+00  0.11203601589E+04  0.11203601589E+04  0.25500000000E-02 0.  1.
         -2   -1    0    0    0  501 -0.00000000000E+00 -0.00000000000E+00 -0.57528245470E+03  0.57528245471E+03  0.25500000000E-02 0. -1.
     200001    2    1    2    0    0  0.44348604115E+02 -0.13079771331E+03  0.79999566212E+03  0.10175371603E+04  0.61344435172E+03 0.  0.
    5000001    2    3    3    0    0 -0.41742085908E+02  0.19824118615E+03  0.34614896882E+03  0.44146769808E+03  0.18447940322E+03 0.  0.
        -11    1    4    4    0    0  0.13070260946E+02  0.19494702038E+03  0.18696577795E+03  0.27042813204E+03  0.51100000000E-03 0. -1.
     200002    1    4    4    0    0 -0.54812346854E+02  0.32941657726E+01  0.15918319087E+03  0.17103956604E+03  0.30000000000E+02 0.  1.
     200000    1    3    3    0    0  0.86090690023E+02 -0.32903889945E+03  0.45384669330E+03  0.57606946220E+03  0.10100000000E+03 0. -1.
    -200001    1    1    2    0    0 -0.44348604115E+02  0.13079771331E+03 -0.25491795796E+03  0.67810545329E+03  0.61300000000E+03 0. -1.
<mgrwt>
<rscale>  0 0.16056445E+04</rscale>
<asrwt>0</asrwt>
<pdfrwt beam="1">  1        2 0.16005145E+00 0.16056445E+04</pdfrwt>
<pdfrwt beam="2">  1       -2 0.82183206E-01 0.16056445E+04</pdfrwt>
<totfact> 0.29703547E+01</totfact>
</mgrwt>
</event>
<event>
 8    1  0.7326756E-052  0.1453790E+04  0.7818608E-02  0.8915777E-01
         -2   -1    0    0    0  501 -0.00000000000E+00  0.00000000000E+00  0.18446954722E+03  0.18446954724E+03  0.25500000000E-02 0. -1.
          2   -1    0    0  501    0  0.00000000000E+00 -0.00000000000E+00 -0.28643017343E+04  0.28643017343E+04  0.25500000000E-02 0.  1.
     200001    2    1    2    0    0  0.27820827419E+03  0.11844166645E+03 -0.81867412244E+03  0.10660694346E+04  0.61224868194E+03 0.  0.
    5000001    2    3    3    0    0  0.30082358278E+03  0.32555487203E+03 -0.52462466462E+03  0.69180560289E+03  0.82964756381E+02 0.  0.
        -11    1    4    4    0    0  0.34586741772E+02  0.26924713319E+02 -0.23078851080E+02  0.49536009742E+02  0.51100000000E-03 0. -1.
     200002    1    4    4    0    0  0.26623684101E+03  0.29863015871E+03 -0.50154581354E+03  0.64226959315E+03  0.30000000000E+02 0.  1.
     200000    1    3    3    0    0 -0.22615308600E+02 -0.20711320558E+03 -0.29404945782E+03  0.37426383174E+03  0.10100000000E+03 0. -1.
    -200001    1    1    2    0    0 -0.27820827419E+03 -0.11844166645E+03 -0.18611580647E+04  0.19827018469E+04  0.61300000000E+03 0.  1.
<mgrwt>
<rscale>  0 0.14537901E+04</rscale>
<asrwt>0</asrwt>
<pdfrwt beam="1">  1        2 0.40918593E+00 0.14537901E+04</pdfrwt>
<pdfrwt beam="2">  1       -2 0.26352794E-01 0.14537901E+04</pdfrwt>
<totfact> 0.35651677E+01</totfact>
</mgrwt>
</event>
<event>
 8    1  0.7326756E-052  0.1487391E+04  0.7818608E-02  0.8892881E-01
          2   -1    0    0  501    0  0.00000000000E+00  0.00000000000E+00  0.59836456539E+03  0.59836456539E+03  0.25500000000E-02 0.  1.
         -2   -1    0    0    0  501 -0.00000000000E+00 -0.00000000000E+00 -0.92432436673E+03  0.92432436674E+03  0.25500000000E-02 0. -1.
     200001    2    1    2    0    0  0.28374867396E+03 -0.25004326949E+03  0.27573435979E+02  0.72032386778E+03  0.61243059487E+03 0.  0.
    5000001    2    3    3    0    0  0.17477081204E+03  0.17165734423E+03  0.71201874768E+02  0.27108893741E+03  0.91697461505E+02 0.  0.
        -11    1    4    4    0    0  0.61624970035E+02  0.19528037277E+02 -0.43799006692E+01  0.64793245804E+02  0.51100000000E-03 0. -1.
     200002    1    4    4    0    0  0.11314584200E+03  0.15212930695E+03  0.75581775437E+02  0.20629569160E+03  0.30000000000E+02 0. -1.
     200000    1    3    3    0    0  0.10897786192E+03 -0.42170061372E+03 -0.43628438789E+02  0.44923493038E+03  0.10100000000E+03 0. -1.
    -200001    1    1    2    0    0 -0.28374867396E+03  0.25004326949E+03 -0.35353323733E+03  0.80236506435E+03  0.61300000000E+03 0.  1.
<mgrwt>
<rscale>  0 0.14873909E+04</rscale>
<asrwt>0</asrwt>
<pdfrwt beam="1">  1        2 0.85480652E-01 0.14873909E+04</pdfrwt>
<pdfrwt beam="2">  1       -2 0.13204634E+00 0.14873909E+04</pdfrwt>
<totfact> 0.22010826E+01</totfact>
</mgrwt>
</event>
<event>
 8    1  0.7326756E-052  0.1420922E+04  0.7818608E-02  0.8938812E-01
          2   -1    0    0  501    0  0.00000000000E+00  0.00000000000E+00  0.15489000578E+04  0.15489000578E+04  0.25500000000E-02 0.  1.
         -2   -1    0    0    0  501 -0.00000000000E+00 -0.00000000000E+00 -0.32587957828E+03  0.32587957829E+03  0.25500000000E-02 0. -1.
     200001    2    1    2    0    0  0.62301683857E+02  0.27302906659E+03  0.91171996503E+03  0.11324162606E+04  0.61049727396E+03 0.  0.
    5000001    2    3    3    0    0  0.17804376135E+03  0.31732341713E+03  0.89679932416E+03  0.97184900512E+03  0.88587408404E+02 0.  0.
        -11    1    4    4    0    0  0.85665113024E+01  0.74989244972E+02  0.22223192147E+03  0.23469937984E+03  0.51100000000E-03 0. -1.
     200002    1    4    4    0    0  0.16947725005E+03  0.24233417215E+03  0.67456740269E+03  0.73714962528E+03  0.30000000000E+02 0. -1.
     200000    1    3    3    0    0 -0.11574207749E+03 -0.44294350532E+02  0.14920640867E+02  0.16056725543E+03  0.10100000000E+03 0. -1.
    -200001    1    1    2    0    0 -0.62301683857E+02 -0.27302906659E+03  0.31130051448E+03  0.74236337553E+03  0.61300000000E+03 0. -1.
<mgrwt>
<rscale>  0 0.14209221E+04</rscale>
<asrwt>0</asrwt>
<pdfrwt beam="1">  1        2 0.22127144E+00 0.14209221E+04</pdfrwt>
<pdfrwt beam="2">  1       -2 0.46554225E-01 0.14209221E+04</pdfrwt>
<totfact> 0.58581875E+01</totfact>
</mgrwt>
</event>
<event>
 8    1  0.7326756E-052  0.1476215E+04  0.7818608E-02  0.8900426E-01
          2   -1    0    0  501    0  0.00000000000E+00  0.00000000000E+00  0.19518188441E+03  0.19518188442E+03  0.25500000000E-02 0.  1.
         -2   -1    0    0    0  501 -0.00000000000E+00 -0.00000000000E+00 -0.27912564323E+04  0.27912564323E+04  0.25500000000E-02 0. -1.
     200001    2    1    2    0    0 -0.22883521308E+03  0.28963256829E+03 -0.92993167739E+03  0.11731392117E+04  0.61256028770E+03 0.  0.
    5000001    2    3    3    0    0 -0.82148774992E+02  0.11858563425E+03  0.43198107878E+02  0.16916882183E+03  0.77078141341E+02 0.  0.
        -11    1    4    4    0    0 -0.26643356725E+02  0.70941724869E+02 -0.60529881029E+01  0.76021282876E+02  0.51100000000E-03 0. -1.
     200002    1    4    4    0    0 -0.55505418268E+02  0.47643909382E+02  0.49251095981E+02  0.93147538956E+02  0.30000000000E+02 0. -1.
     200000    1    3    3    0    0 -0.14668643809E+03  0.17104693404E+03 -0.97312978526E+03  0.10039703899E+04  0.10100000000E+03 0. -1.
    -200001    1    1    2    0    0  0.22883521308E+03 -0.28963256829E+03 -0.16661428705E+04  0.18132991050E+04  0.61300000000E+03 0. -1.
<mgrwt>
<rscale>  0 0.14762150E+04</rscale>
<asrwt>0</asrwt>
<pdfrwt beam="1">  1        2 0.27883128E-01 0.14762150E+04</pdfrwt>
<pdfrwt beam="2">  1       -2 0.39875089E+00 0.14762150E+04</pdfrwt>
<totfact> 0.14339431E+00</totfact>
</mgrwt>
</event>
<event>
 8    1  0.7326756E-052  0.1390096E+04  0.7818608E-02  0.8961019E-01
         -2   -1    0    0    0  501 -0.00000000000E+00  0.00000000000E+00  0.12083224389E+03  0.12083224392E+03  0.25500000000E-02 0. -1.
          2   -1    0    0  501    0  0.00000000000E+00 -0.00000000000E+00 -0.39980381738E+04  0.39980381738E+04  0.25500000000E-02 0.  1.
     200001    2    1    2    0    0  0.22787444800E+03 -0.48500408657E+02 -0.12589470188E+04  0.14197357824E+04  0.61353324451E+03 0.  0.
    5000001    2    3    3    0    0  0.27962099533E+00 -0.14928953856E+03 -0.10885271907E+04  0.11016135233E+04  0.79833984910E+02 0.  0.
        -11    1    4    4    0    0 -0.23062413955E+01 -0.12924514474E+03 -0.93436952494E+03  0.94326880332E+03  0.51100000000E-03 0. -1.
     200002    1    4    4    0    0  0.25858623909E+01 -0.20044393819E+02 -0.15415766581E+03  0.15834471995E+03  0.30000000000E+02 0.  1.
     200000    1    3    3    0    0  0.22759482701E+03  0.10078912990E+03 -0.17041982803E+03  0.31812225916E+03  0.10100000000E+03 0. -1.
    -200001    1    1    2    0    0 -0.22787444800E+03  0.48500408657E+02 -0.26182589111E+04  0.26991346353E+04  0.61300000000E+03 0.  1.
<mgrwt>
<rscale>  0 0.13900963E+04</rscale>
<asrwt>0</asrwt>
<pdfrwt beam="1">  1        2 0.57114823E+00 0.13900963E+04</pdfrwt>
<pdfrwt beam="2">  1       -2 0.17261752E-01 0.13900963E+04</pdfrwt>
<totfact> 0.15738045E+01</totfact>
</mgrwt>
</event>
<event>
 8    1  0.7326756E-052  0.1663297E+04  0.7818608E-02  0.8782579E-01
         -2   -1    0    0    0  501 -0.00000000000E+00  0.00000000000E+00  0.12858629725E+04  0.12858629725E+04  0.25500000000E-02 0. -1.
          2   -1    0    0  501    0  0.00000000000E+00 -0.00000000000E+00 -0.53787966858E+03  0.53787966858E+03  0.25500000000E-02 0.  1.
     200001    2    1    2    0    0 -0.53253605896E+03  0.45864045663E+02  0.18367664930E+03  0.83383902697E+03  0.61306789723E+03 0.  0.
    5000001    2    3    3    0    0 -0.91896624272E+02 -0.50883334124E+02 -0.19080468523E+03  0.23889328422E+03  0.98129863427E+02 0.  0.
        -11    1    4    4    0    0 -0.80132562102E+02 -0.31567652797E+02 -0.65858373705E+02  0.10842079874E+03  0.51100000000E-03 0. -1.
     200002    1    4    4    0    0 -0.11764062170E+02 -0.19315681327E+02 -0.12494631152E+03  0.13047248548E+03  0.30000000000E+02 0. -1.
     200000    1    3    3    0    0 -0.44063943469E+03  0.96747379787E+02  0.37448133453E+03  0.59494574275E+03  0.10100000000E+03 0. -1.
    -200001    1    1    2    0    0  0.53253605896E+03 -0.45864045663E+02  0.56430665462E+03  0.98990361411E+03  0.61300000000E+03 0. -1.
<mgrwt>
<rscale>  0 0.16632974E+04</rscale>
<asrwt>0</asrwt>
<pdfrwt beam="1">  1        2 0.76839953E-01 0.16632974E+04</pdfrwt>
<pdfrwt beam="2">  1       -2 0.18369471E+00 0.16632974E+04</pdfrwt>
<totfact> 0.10086281E+01</totfact>
</mgrwt>
</event>
<event>
 8    1  0.7326756E-052  0.1828292E+04  0.7818608E-02  0.8691397E-01
         -2   -1    0    0    0  501 -0.00000000000E+00  0.00000000000E+00  0.21260353078E+04  0.21260353078E+04  0.25500000000E-02 0. -1.
          2   -1    0    0  501    0  0.00000000000E+00 -0.00000000000E+00 -0.39306152831E+03  0.39306152832E+03  0.25500000000E-02 0.  1.
     200001    2    1    2    0    0 -0.19662603923E+03  0.10512090839E+03 -0.11269158394E+02  0.65687648636E+03  0.61777626995E+03 0.  0.
    5000001    2    3    3    0    0  0.11528151944E+03 -0.14497824614E+03  0.11314218273E+03  0.22616185455E+03  0.63557142487E+02 0.  0.
        -11    1    4    4    0    0  0.40722201647E+02 -0.16325305521E+02  0.20591693456E+02  0.48464741276E+02  0.51100000000E-03 0. -1.
     200002    1    4    4    0    0  0.74559317792E+02 -0.12865294062E+03  0.92550489274E+02  0.17769711327E+03  0.30000000000E+02 0. -1.
     200000    1    3    3    0    0 -0.31190755867E+03  0.25009915454E+03 -0.12441134112E+03  0.43071463181E+03  0.10100000000E+03 0.  1.
    -200001    1    1    2    0    0  0.19662603923E+03 -0.10512090839E+03  0.17442429378E+04  0.18622203497E+04  0.61300000000E+03 0. -1.
<mgrwt>
<rscale>  0 0.18282918E+04</rscale>
<asrwt>0</asrwt>
<pdfrwt beam="1">  1        2 0.56151647E-01 0.18282918E+04</pdfrwt>
<pdfrwt beam="2">  1       -2 0.30371933E+00 0.18282918E+04</pdfrwt>
<totfact> 0.25168745E+00</totfact>
</mgrwt>
</event>
<event>
 8    1  0.7326756E-052  0.1913711E+04  0.7818608E-02  0.8648062E-01
          2   -1    0    0  501    0  0.00000000000E+00  0.00000000000E+00  0.58018889580E+04  0.58018889580E+04  0.25500000000E-02 0.  1.
         -2   -1    0    0    0  501 -0.00000000000E+00 -0.00000000000E+00 -0.15780588588E+03  0.15780588590E+03  0.25500000000E-02 0. -1.
     200001    2    1    2    0    0  0.28665630661E+02 -0.73243241087E+02  0.50964104797E+04  0.51339221395E+04  0.61446762881E+03 0.  0.
    5000001    2    3    3    0    0 -0.20781816016E+02 -0.32364100597E+01  0.84840073826E+02  0.12060138987E+03  0.83093314321E+02 0.  0.
        -11    1    4    4    0    0 -0.23460266372E+02  0.21834752711E+01 -0.63589403359E+01  0.24404667278E+02  0.51100000000E-03 0. -1.
     200002    1    4    4    0    0  0.26784503558E+01 -0.54198853308E+01  0.91199014162E+02  0.96196722592E+02  0.30000000000E+02 0. -1.
     200000    1    3    3    0    0  0.49447446677E+02 -0.70006831028E+02  0.50115704058E+04  0.50133207497E+04  0.10100000000E+03 0.  1.
    -200001    1    1    2    0    0 -0.28665630661E+02  0.73243241087E+02  0.54767259249E+03  0.82577270439E+03  0.61300000000E+03 0. -1.
<mgrwt>
<rscale>  0 0.19137108E+04</rscale>
<asrwt>0</asrwt>
<pdfrwt beam="1">  1        2 0.82884128E+00 0.19137108E+04</pdfrwt>
<pdfrwt beam="2">  1       -2 0.22543698E-01 0.19137108E+04</pdfrwt>
<totfact> 0.15896582E-01</totfact>
</mgrwt>
</event>
<event>
 8    1  0.7326756E-052  0.1745831E+04  0.7818608E-02  0.8735649E-01
          2   -1    0    0  501    0  0.00000000000E+00  0.00000000000E+00  0.10356605658E+04  0.10356605659E+04  0.25500000000E-02 0.  1.
         -2   -1    0    0    0  501 -0.00000000000E+00 -0.00000000000E+00 -0.73574427061E+03  0.73574427062E+03  0.25500000000E-02 0. -1.
     200001    2    1    2    0    0  0.54315732019E+03  0.54139274337E+02  0.45156069305E+03  0.93670970716E+03  0.61283528005E+03 0.  0.
    5000001    2    3    3    0    0  0.48473040557E+03  0.72943350826E+02  0.57840894455E+03  0.76333503613E+03  0.88539097259E+02 0.  0.
        -11    1    4    4    0    0  0.21182357506E+03  0.55166506030E+02  0.30540777874E+03  0.37574789640E+03  0.51100000000E-03 0. -1.
     200002    1    4    4    0    0  0.27290683051E+03  0.17776844795E+02  0.27300116581E+03  0.38758713973E+03  0.30000000000E+02 0. -1.
     200000    1    3    3    0    0  0.58426914626E+02 -0.18804076488E+02 -0.12684825150E+03  0.17337467103E+03  0.10100000000E+03 0. -1.
    -200001    1    1    2    0    0 -0.54315732019E+03 -0.54139274337E+02 -0.15164439782E+03  0.83469512931E+03  0.61300000000E+03 0. -1.
<mgrwt>
<rscale>  0 0.17458308E+04</rscale>
<asrwt>0</asrwt>
<pdfrwt beam="1">  1        2 0.14795151E+00 0.17458308E+04</pdfrwt>
<pdfrwt beam="2">  1       -2 0.10510632E+00 0.17458308E+04</pdfrwt>
<totfact> 0.18623639E+01</totfact>
</mgrwt>
</event>
<event>
 8    1  0.7326756E-052  0.1347103E+04  0.7818608E-02  0.8993024E-01
          2   -1    0    0  501    0  0.00000000000E+00  0.00000000000E+00  0.15259873970E+04  0.15259873970E+04  0.25500000000E-02 0.  1.
         -2   -1    0    0    0  501 -0.00000000000E+00 -0.00000000000E+00 -0.29729724477E+03  0.29729724479E+03  0.25500000000E-02 0. -1.
     200001    2    1    2    0    0 -0.26105516646E+03  0.56466969530E+02  0.72603051121E+03  0.98675966708E+03  0.61256511392E+03 0.  0.
    5000001    2    3    3    0    0 -0.33113838915E+03  0.80646141852E+02  0.12832310566E+03  0.37606216986E+03  0.93805667140E+02 0.  0.
        -11    1    4    4    0    0 -0.19990155112E+03  0.69909604009E+01  0.74218997904E+02  0.21334939259E+03  0.51100000000E-03 0. -1.
     200002    1    4    4    0    0 -0.13123683803E+03  0.73655181452E+02  0.54104107760E+02  0.16271277727E+03  0.30000000000E+02 0. -1.
     200000    1    3    3    0    0  0.70083222688E+02 -0.24179172323E+02  0.59770740554E+03  0.61069749723E+03  0.10100000000E+03 0.  1.
    -200001    1    1    2    0    0  0.26105516646E+03 -0.56466969530E+02  0.50265964100E+03  0.83652497468E+03  0.61300000000E+03 0. -1.
<mgrwt>
<rscale>  0 0.13471033E+04</rscale>
<asrwt>0</asrwt>
<pdfrwt beam="1">  1        2 0.21799820E+00 0.13471033E+04</pdfrwt>
<pdfrwt beam="2">  1       -2 0.42471035E-01 0.13471033E+04</pdfrwt>
<totfact> 0.72720395E+01</totfact>
</mgrwt>
</event>
<event>
 8    1  0.7326756E-052  0.1385482E+04  0.7818608E-02  0.8964395E-01
          2   -1    0    0  501    0  0.00000000000E+00  0.00000000000E+00  0.26363586411E+04  0.26363586411E+04  0.25500000000E-02 0.  1.
         -2   -1    0    0    0  501 -0.00000000000E+00 -0.00000000000E+00 -0.18202754872E+03  0.18202754874E+03  0.25500000000E-02 0. -1.
     200001    2    1    2    0    0  0.20654955331E+03  0.17172488204E+03  0.15899263767E+04  0.17251722741E+04  0.61335254044E+03 0.  0.
    5000001    2    3    3    0    0  0.35871389826E+03  0.42636044221E+02  0.55759404903E+03  0.66889155824E+03  0.77532574409E+02 0.  0.
        -11    1    4    4    0    0  0.26116153347E+03  0.35956461791E+02  0.35770245203E+03  0.44435262787E+03  0.51100000000E-03 0. -1.
     200002    1    4    4    0    0  0.97552364790E+02  0.66795824299E+01  0.19989159700E+03  0.22453893037E+03  0.30000000000E+02 0.  1.
     200000    1    3    3    0    0 -0.15216434495E+03  0.12908883782E+03  0.10323323277E+04  0.10562807159E+04  0.10100000000E+03 0.  1.
    -200001    1    1    2    0    0 -0.20654955331E+03 -0.17172488204E+03  0.86440471563E+03  0.10932139157E+04  0.61300000000E+03 0.  1.
<mgrwt>
<rscale>  0 0.13854817E+04</rscale>
<asrwt>0</asrwt>
<pdfrwt beam="1">  1        2 0.37662267E+00 0.13854817E+04</pdfrwt>
<pdfrwt beam="2">  1       -2 0.26003935E-01 0.13854817E+04</pdfrwt>
<totfact> 0.48741364E+01</totfact>
</mgrwt>
</event>
<event>
 8    1  0.7326756E-052  0.1287591E+04  0.7818608E-02  0.9039464E-01
          2   -1    0    0  501    0  0.00000000000E+00  0.00000000000E+00  0.38825179299E+04  0.38825179299E+04  0.25500000000E-02 0.  1.
         -2   -1    0    0    0  501 -0.00000000000E+00 -0.00000000000E+00 -0.10675354847E+03  0.10675354850E+03  0.25500000000E-02 0. -1.
     200001    2    1    2    0    0 -0.43593128450E+02  0.96819191297E+02  0.13757735428E+04  0.15099571897E+04  0.61314236275E+03 0.  0.
    5000001    2    3    3    0    0  0.21901807946E+03  0.21503259908E+03  0.65228799318E+03  0.72473658579E+03  0.74535595058E+02 0.  0.
        -11    1    4    4    0    0  0.99374640125E+02  0.10246971347E+03  0.23079591042E+03  0.27137080452E+03  0.51100000000E-03 0. -1.
     200002    1    4    4    0    0  0.11964343933E+03  0.11256288561E+03  0.42149208277E+03  0.45336578127E+03  0.30000000000E+02 0. -1.
     200000    1    3    3    0    0 -0.26261120791E+03 -0.11821340779E+03  0.72348554961E+03  0.78522060390E+03  0.10100000000E+03 0. -1.
    -200001    1    1    2    0    0  0.43593128450E+02 -0.96819191297E+02  0.23999908386E+04  0.24793142887E+04  0.61300000000E+03 0.  1.
<mgrwt>
<rscale>  0 0.12875909E+04</rscale>
<asrwt>0</asrwt>
<pdfrwt beam="1">  1        2 0.55464536E+00 0.12875909E+04</pdfrwt>
<pdfrwt beam="2">  1       -2 0.15250508E-01 0.12875909E+04</pdfrwt>
<totfact> 0.23516637E+01</totfact>
</mgrwt>
</event>
<event>
 8    1  0.7326756E-052  0.1295990E+04  0.7818608E-02  0.9032751E-01
          2   -1    0    0  501    0  0.00000000000E+00  0.00000000000E+00  0.11829788681E+04  0.11829788682E+04  0.25500000000E-02 0.  1.
         -2   -1    0    0    0  501 -0.00000000000E+00 -0.00000000000E+00 -0.35494914328E+03  0.35494914329E+03  0.25500000000E-02 0. -1.
     200001    2    1    2    0    0 -0.16729349688E+02  0.11634447688E+03  0.20810762340E+03  0.65821878657E+03  0.61329216499E+03 0.  0.
    5000001    2    3    3    0    0 -0.26206209545E+03  0.79677646848E+02  0.25527777139E+03  0.38626541662E+03  0.94916606715E+02 0.  0.
        -11    1    4    4    0    0 -0.21671253152E+03  0.73452983071E+02  0.23472469333E+03  0.32780381892E+03  0.51100000000E-03 0. -1.
     200002    1    4    4    0    0 -0.45349563923E+02  0.62246637771E+01  0.20553078063E+02  0.58461597695E+02  0.30000000000E+02 0.  1.
     200000    1    3    3    0    0  0.24533274576E+03  0.36666830028E+02 -0.47170147995E+02  0.27195336995E+03  0.10100000000E+03 0. -1.
    -200001    1    1    2    0    0  0.16729349688E+02 -0.11634447688E+03  0.61992210147E+03  0.87970922488E+03  0.61300000000E+03 0.  1.
<mgrwt>
<rscale>  0 0.12959897E+04</rscale>
<asrwt>0</asrwt>
<pdfrwt beam="1">  1        2 0.16899698E+00 0.12959897E+04</pdfrwt>
<pdfrwt beam="2">  1       -2 0.50707020E-01 0.12959897E+04</pdfrwt>
<totfact> 0.78827791E+01</totfact>
</mgrwt>
</event>
<event>
 8    1  0.7326756E-052  0.1424229E+04  0.7818608E-02  0.8936465E-01
          2   -1    0    0  501    0  0.00000000000E+00  0.00000000000E+00  0.29398238918E+04  0.29398238918E+04  0.25500000000E-02 0.  1.
         -2   -1    0    0    0  501 -0.00000000000E+00 -0.00000000000E+00 -0.17249571796E+03  0.17249571798E+03  0.25500000000E-02 0. -1.
     200001    2    1    2    0    0  0.12711612204E+03  0.21818692670E+03  0.81567397923E+03  0.10511337524E+04  0.61302045765E+03 0.  0.
    5000001    2    3    3    0    0  0.28327621253E+03  0.14676807240E+02  0.15494117067E+03  0.33519298184E+03  0.88807361494E+02 0.  0.
        -11    1    4    4    0    0  0.11365229869E+02  0.15479849521E+02 -0.28055094310E+01  0.19407861155E+02  0.51100000000E-03 0. -1.
     200002    1    4    4    0    0  0.27191098266E+03 -0.80304228073E+00  0.15774668010E+03  0.31578512069E+03  0.30000000000E+02 0. -1.
     200000    1    3    3    0    0 -0.15616009048E+03  0.20351011946E+03  0.66073280856E+03  0.71594077052E+03  0.10100000000E+03 0.  1.
    -200001    1    1    2    0    0 -0.12711612204E+03 -0.21818692670E+03  0.19516541946E+04  0.20611858574E+04  0.61300000000E+03 0.  1.
<mgrwt>
<rscale>  0 0.14242290E+04</rscale>
<asrwt>0</asrwt>
<pdfrwt beam="1">  1        2 0.41997486E+00 0.14242290E+04</pdfrwt>
<pdfrwt beam="2">  1       -2 0.24642245E-01 0.14242290E+04</pdfrwt>
<totfact> 0.36706214E+01</totfact>
</mgrwt>
</event>
<event>
 8    1  0.7326756E-052  0.1938319E+04  0.7818608E-02  0.8636014E-01
          2   -1    0    0  501    0  0.00000000000E+00  0.00000000000E+00  0.11985846772E+04  0.11985846772E+04  0.25500000000E-02 0.  1.
         -2   -1    0    0    0  501 -0.00000000000E+00 -0.00000000000E+00 -0.78364918783E+03  0.78364918783E+03  0.25500000000E-02 0. -1.
     200001    2    1    2    0    0 -0.54422898459E+02 -0.53233777945E+03 -0.33095806491E+03  0.87838987350E+03  0.61293569469E+03 0.  0.
    5000001    2    3    3    0    0 -0.98167821808E+02 -0.13167628309E+03 -0.32059796915E+03  0.46275591847E+03  0.29048996108E+03 0.  0.
        -11    1    4    4    0    0 -0.71244664430E+02  0.82684890804E+02 -0.66195413843E+02  0.12764962276E+03  0.51100000000E-03 0. -1.
     200002    1    4    4    0    0 -0.26923157378E+02 -0.21436117389E+03 -0.25440255531E+03  0.33510629571E+03  0.30000000000E+02 0. -1.
     200000    1    3    3    0    0  0.43744923348E+02 -0.40066149637E+03 -0.10360095754E+02  0.41563395503E+03  0.10100000000E+03 0. -1.
    -200001    1    1    2    0    0  0.54422898459E+02  0.53233777945E+03  0.74589355424E+03  0.11038439915E+04  0.61300000000E+03 0.  1.
<mgrwt>
<rscale>  0 0.19383188E+04</rscale>
<asrwt>0</asrwt>
<pdfrwt beam="1">  1        2 0.17122638E+00 0.19383188E+04</pdfrwt>
<pdfrwt beam="2">  1       -2 0.11194988E+00 0.19383188E+04</pdfrwt>
<totfact> 0.12635092E+01</totfact>
</mgrwt>
</event>
<event>
 8    1  0.7326756E-052  0.1281499E+04  0.7818608E-02  0.9044367E-01
         -2   -1    0    0    0  501 -0.00000000000E+00  0.00000000000E+00  0.75952826433E+03  0.75952826434E+03  0.25500000000E-02 0. -1.
          2   -1    0    0  501    0  0.00000000000E+00 -0.00000000000E+00 -0.54054605436E+03  0.54054605437E+03  0.25500000000E-02 0.  1.
     200001    2    1    2    0    0 -0.87183444417E+02 -0.10027017389E+03 -0.23195641724E+02  0.62770970586E+03  0.61304679779E+03 0.  0.
    5000001    2    3    3    0    0  0.52821883594E+02 -0.48907531712E+02 -0.28179672231E+03  0.31256667205E+03  0.11448333384E+03 0.  0.
        -11    1    4    4    0    0 -0.30952996467E+02 -0.14273825298E+02 -0.39732407414E+02  0.52349730449E+02  0.51100000000E-03 0. -1.
     200002    1    4    4    0    0  0.83774880061E+02 -0.34633706414E+02 -0.24206431489E+03  0.26021694160E+03  0.30000000000E+02 0.  1.
     200000    1    3    3    0    0 -0.14000532801E+03 -0.51362642174E+02  0.25860108058E+03  0.31514303381E+03  0.10100000000E+03 0. -1.
    -200001    1    1    2    0    0  0.87183444417E+02  0.10027017389E+03  0.24217785169E+03  0.67236461284E+03  0.61300000000E+03 0. -1.
<mgrwt>
<rscale>  0 0.12814991E+04</rscale>
<asrwt>0</asrwt>
<pdfrwt beam="1">  1        2 0.77220865E-01 0.12814991E+04</pdfrwt>
<pdfrwt beam="2">  1       -2 0.10850404E+00 0.12814991E+04</pdfrwt>
<totfact> 0.40947680E+01</totfact>
</mgrwt>
</event>
<event>
 8    1  0.7326756E-052  0.2206726E+04  0.7818608E-02  0.8515634E-01
         -2   -1    0    0    0  501 -0.00000000000E+00  0.00000000000E+00  0.12357251899E+04  0.12357251900E+04  0.25500000000E-02 0. -1.
          2   -1    0    0  501    0  0.00000000000E+00 -0.00000000000E+00 -0.98517892334E+03  0.98517892335E+03  0.25500000000E-02 0.  1.
     200001    2    1    2    0    0  0.45067353191E+03 -0.34995297575E+03 -0.60111929647E+03  0.10264682846E+04  0.60557329289E+03 0.  0.
    5000001    2    3    3    0    0 -0.93590909821E+02 -0.23436898438E+03 -0.17404177453E+03  0.31782193319E+03  0.83857991228E+02 0.  0.
        -11    1    4    4    0    0 -0.71338029699E+02 -0.15692175646E+03 -0.15009569980E+03  0.22856568253E+03  0.51100000000E-03 0. -1.
     200002    1    4    4    0    0 -0.22252880122E+02 -0.77447227923E+02 -0.23946074729E+02  0.89256250658E+02  0.30000000000E+02 0.  1.
     200000    1    3    3    0    0  0.54426444173E+03 -0.11558399137E+03 -0.42707752194E+03  0.70864635139E+03  0.10100000000E+03 0. -1.
    -200001    1    1    2    0    0 -0.45067353191E+03  0.34995297575E+03  0.85166556308E+03  0.11944358287E+04  0.61300000000E+03 0. -1.
<mgrwt>
<rscale>  0 0.22067265E+04</rscale>
<asrwt>0</asrwt>
<pdfrwt beam="1">  1        2 0.14073985E+00 0.22067265E+04</pdfrwt>
<pdfrwt beam="2">  1       -2 0.17653217E+00 0.22067265E+04</pdfrwt>
<totfact> 0.50450828E+00</totfact>
</mgrwt>
</event>
<event>
 8    1  0.7326756E-052  0.1603228E+04  0.7818608E-02  0.8818567E-01
          2   -1    0    0  501    0  0.00000000000E+00  0.00000000000E+00  0.68378387683E+03  0.68378387683E+03  0.25500000000E-02 0.  1.
         -2   -1    0    0    0  501 -0.00000000000E+00 -0.00000000000E+00 -0.93974896900E+03  0.93974896900E+03  0.25500000000E-02 0. -1.
     200001    2    1    2    0    0 -0.15263919834E+03  0.14035297010E+03  0.35094924059E+03  0.73633969415E+03  0.61321537377E+03 0.  0.
    5000001    2    3    3    0    0 -0.18881459043E+03 -0.14830596115E+03  0.30757056244E+03  0.42534878222E+03  0.16934086330E+03 0.  0.
        -11    1    4    4    0    0 -0.12265634671E+03 -0.17520329377E+03  0.20019650710E+03  0.29294950929E+03  0.51100000000E-03 0. -1.
     200002    1    4    4    0    0 -0.66158243724E+02  0.26897332614E+02  0.10737405533E+03  0.13239927293E+03  0.30000000000E+02 0. -1.
     200000    1    3    3    0    0  0.36175392090E+02  0.28865893125E+03  0.43378678152E+02  0.31099091193E+03  0.10100000000E+03 0.  1.
    -200001    1    1    2    0    0  0.15263919834E+03 -0.14035297010E+03 -0.60691433276E+03  0.88719315168E+03  0.61300000000E+03 0. -1.
<mgrwt>
<rscale>  0 0.16032282E+04</rscale>
<asrwt>0</asrwt>
<pdfrwt beam="1">  1        2 0.97683411E-01 0.16032282E+04</pdfrwt>
<pdfrwt beam="2">  1       -2 0.13424985E+00 0.16032282E+04</pdfrwt>
<totfact> 0.17810644E+01</totfact>
</mgrwt>
</event>
<event>
 8    1  0.7326756E-052  0.1434648E+04  0.7818608E-02  0.8929114E-01
          2   -1    0    0  501    0  0.00000000000E+00  0.00000000000E+00  0.44562363508E+03  0.44562363508E+03  0.25500000000E-02 0.  1.
         -2   -1    0    0    0  501 -0.00000000000E+00 -0.00000000000E+00 -0.11546821239E+04  0.11546821239E+04  0.25500000000E-02 0. -1.
     200001    2    1    2    0    0  0.45763579002E+02 -0.54685423596E+02 -0.76249610566E+03  0.98086296125E+03  0.61286787881E+03 0.  0.
    5000001    2    3    3    0    0 -0.16246533193E+03  0.54715862352E+01 -0.70610248860E+03  0.73518149018E+03  0.12444346815E+03 0.  0.
        -11    1    4    4    0    0 -0.72101032480E+02 -0.56021996798E+02 -0.32457082866E+03  0.33716946159E+03  0.51100000000E-03 0. -1.
     200002    1    4    4    0    0 -0.90364299452E+02  0.61493583033E+02 -0.38153165994E+03  0.39801202859E+03  0.30000000000E+02 0. -1.
     200000    1    3    3    0    0  0.20822891093E+03 -0.60157009831E+02 -0.56393617067E+02  0.24568147107E+03  0.10100000000E+03 0.  1.
    -200001    1    1    2    0    0 -0.45763579002E+02  0.54685423596E+02  0.53437616883E+02  0.61944279769E+03  0.61300000000E+03 0.  1.
<mgrwt>
<rscale>  0 0.14346479E+04</rscale>
<asrwt>0</asrwt>
<pdfrwt beam="1">  1        2 0.63660520E-01 0.14346479E+04</pdfrwt>
<pdfrwt beam="2">  1       -2 0.16495459E+00 0.14346479E+04</pdfrwt>
<totfact> 0.17236358E+01</totfact>
</mgrwt>
</event>
<event>
 8    1  0.7326756E-052  0.1317659E+04  0.7818608E-02  0.9015678E-01
          2   -1    0    0  501    0  0.00000000000E+00  0.00000000000E+00  0.39076810102E+03  0.39076810103E+03  0.25500000000E-02 0.  1.
         -2   -1    0    0    0  501 -0.00000000000E+00 -0.00000000000E+00 -0.11107765472E+04  0.11107765472E+04  0.25500000000E-02 0. -1.
     200001    2    1    2    0    0  0.69480038823E+02 -0.19076604922E+03 -0.51917856143E+03  0.82528966383E+03  0.60855360424E+03 0.  0.
    5000001    2    3    3    0    0  0.19388681241E+02  0.46139647043E+01  0.51526105547E+02  0.21162256282E+03  0.20428401776E+03 0.  0.
        -11    1    4    4    0    0  0.61923909995E+02 -0.75711572509E+02  0.61264609739E+02  0.11541302027E+03  0.51100000000E-03 0. -1.
     200002    1    4    4    0    0 -0.42535228754E+02  0.80325537213E+02 -0.97385041920E+01  0.96209542550E+02  0.30000000000E+02 0. -1.
     200000    1    3    3    0    0  0.50091357582E+02 -0.19538001393E+03 -0.57070466698E+03  0.61366710101E+03  0.10100000000E+03 0. -1.
    -200001    1    1    2    0    0 -0.69480038823E+02  0.19076604922E+03 -0.20082988476E+03  0.67625498441E+03  0.61300000000E+03 0.  1.
<mgrwt>
<rscale>  0 0.13176586E+04</rscale>
<asrwt>0</asrwt>
<pdfrwt beam="1">  1        2 0.55824015E-01 0.13176586E+04</pdfrwt>
<pdfrwt beam="2">  1       -2 0.15868236E+00 0.13176586E+04</pdfrwt>
<totfact> 0.22399115E+01</totfact>
</mgrwt>
</event>
<event>
 8    1  0.7326756E-052  0.1602382E+04  0.7818608E-02  0.8819086E-01
         -2   -1    0    0    0  501 -0.00000000000E+00  0.00000000000E+00  0.15774762234E+03  0.15774762236E+03  0.25500000000E-02 0. -1.
          2   -1    0    0  501    0  0.00000000000E+00 -0.00000000000E+00 -0.40692031819E+04  0.40692031819E+04  0.25500000000E-02 0.  1.
     200001    2    1    2    0    0  0.37453151397E+03  0.30986865927E+03 -0.14993525007E+04  0.16911466699E+04  0.61288391807E+03 0.  0.
    5000001    2    3    3    0    0 -0.40399079123E+01  0.78041900788E+02 -0.10363775602E+04  0.10418341389E+04  0.72339938230E+02 0.  0.
        -11    1    4    4    0    0 -0.19481301680E+02 -0.20025230304E+01 -0.20198375030E+03  0.20293094047E+03  0.51100000000E-03 0. -1.
     200002    1    4    4    0    0  0.15441393767E+02  0.80044423819E+02 -0.83439380985E+03  0.83890319843E+03  0.30000000000E+02 0. -1.
     200000    1    3    3    0    0  0.37857142188E+03  0.23182675848E+03 -0.46297494051E+03  0.64931253103E+03  0.10100000000E+03 0. -1.
    -200001    1    1    2    0    0 -0.37453151397E+03 -0.30986865927E+03 -0.24121030589E+04  0.25358041343E+04  0.61300000000E+03 0.  1.
<mgrwt>
<rscale>  0 0.16023821E+04</rscale>
<asrwt>0</asrwt>
<pdfrwt beam="1">  1        2 0.58131468E+00 0.16023821E+04</pdfrwt>
<pdfrwt beam="2">  1       -2 0.22535377E-01 0.16023821E+04</pdfrwt>
<totfact> 0.86064482E+00</totfact>
</mgrwt>
</event>
<event>
 8    1  0.7326756E-052  0.1879706E+04  0.7818608E-02  0.8665024E-01
          2   -1    0    0  501    0  0.00000000000E+00  0.00000000000E+00  0.20874972917E+04  0.20874972917E+04  0.25500000000E-02 0.  1.
         -2   -1    0    0    0  501 -0.00000000000E+00 -0.00000000000E+00 -0.42314979014E+03  0.42314979015E+03  0.25500000000E-02 0. -1.
     200001    2    1    2    0    0  0.43521825220E+03 -0.41654136403E+03  0.13404093051E+04  0.15921556066E+04  0.61265058185E+03 0.  0.
    5000001    2    3    3    0    0  0.39241542418E+03 -0.37249101051E+03  0.56331384439E+03  0.80612070229E+03  0.19942086485E+03 0.  0.
        -11    1    4    4    0    0  0.64658110553E+02 -0.18296299786E+03  0.15390230219E+03  0.24767326958E+03  0.51100000000E-03 0. -1.
     200002    1    4    4    0    0  0.32775731363E+03 -0.18952801266E+03  0.40941154220E+03  0.55844743271E+03  0.30000000000E+02 0. -1.
     200000    1    3    3    0    0  0.42802828015E+02 -0.44050353514E+02  0.77709546070E+03  0.78603490430E+03  0.10100000000E+03 0. -1.
    -200001    1    1    2    0    0 -0.43521825220E+03  0.41654136403E+03  0.32393819646E+03  0.91849147526E+03  0.61300000000E+03 0. -1.
<mgrwt>
<rscale>  0 0.18797064E+04</rscale>
<asrwt>0</asrwt>
<pdfrwt beam="1">  1        2 0.29821389E+00 0.18797064E+04</pdfrwt>
<pdfrwt beam="2">  1       -2 0.60449972E-01 0.18797064E+04</pdfrwt>
<totfact> 0.17346111E+01</totfact>
</mgrwt>
</event>
<event>
 8    1  0.7326756E-052  0.1961788E+04  0.7818608E-02  0.8624697E-01
          2   -1    0    0  501    0  0.00000000000E+00  0.00000000000E+00  0.97303370812E+03  0.97303370812E+03  0.25500000000E-02 0.  1.
         -2   -1    0    0    0  501 -0.00000000000E+00 -0.00000000000E+00 -0.98881823348E+03  0.98881823348E+03  0.25500000000E-02 0. -1.
     200001    2    1    2    0    0 -0.59448345995E+03 -0.39689177501E+03  0.26639493104E+03  0.97883214991E+03  0.61336160068E+03 0.  0.
    5000001    2    3    3    0    0 -0.35459013898E+03 -0.16619271297E+03 -0.13529405059E+03  0.44748866341E+03  0.16907820455E+03 0.  0.
        -11    1    4    4    0    0 -0.17430478093E+03 -0.31200714449E+02 -0.13094852971E+03  0.22023432673E+03  0.51100000000E-03 0. -1.
     200002    1    4    4    0    0 -0.18028535805E+03 -0.13499199852E+03 -0.43455208883E+01  0.22725433669E+03  0.30000000000E+02 0. -1.
     200000    1    3    3    0    0 -0.23989332098E+03 -0.23069906205E+03  0.40168898164E+03  0.53134348650E+03  0.10100000000E+03 0.  1.
    -200001    1    1    2    0    0  0.59448345995E+03  0.39689177501E+03 -0.28217945640E+03  0.98301979169E+03  0.61300000000E+03 0. -1.
<mgrwt>
<rscale>  0 0.19617884E+04</rscale>
<asrwt>0</asrwt>
<pdfrwt beam="1">  1        2 0.13900481E+00 0.19617884E+04</pdfrwt>
<pdfrwt beam="2">  1       -2 0.14125975E+00 0.19617884E+04</pdfrwt>
<totfact> 0.95811776E+00</totfact>
</mgrwt>
</event>
<event>
 8    1  0.7326756E-052  0.1288928E+04  0.7818608E-02  0.9038391E-01
         -2   -1    0    0    0  501 -0.00000000000E+00  0.00000000000E+00  0.28479726760E+03  0.28479726761E+03  0.25500000000E-02 0. -1.
          2   -1    0    0  501    0  0.00000000000E+00 -0.00000000000E+00 -0.14583497820E+04  0.14583497820E+04  0.25500000000E-02 0.  1.
     200001    2    1    2    0    0 -0.16256187413E+03  0.83236748104E+02 -0.48348224750E+03  0.80223223284E+03  0.61356886541E+03 0.  0.
    5000001    2    3    3    0    0 -0.10874958393E+03  0.31846466188E+03 -0.14593484812E+03  0.37518752695E+03  0.78882745990E+02 0.  0.
        -11    1    4    4    0    0 -0.89977906247E+02  0.19165971407E+03 -0.11060649728E+03  0.23887918882E+03  0.51100000000E-03 0. -1.
     200002    1    4    4    0    0 -0.18771677678E+02  0.12680494781E+03 -0.35328350840E+02  0.13630833813E+03  0.30000000000E+02 0. -1.
     200000    1    3    3    0    0 -0.53812290204E+02 -0.23522791377E+03 -0.33754739938E+03  0.42704470589E+03  0.10100000000E+03 0.  1.
    -200001    1    1    2    0    0  0.16256187413E+03 -0.83236748104E+02 -0.69007026689E+03  0.94091481676E+03  0.61300000000E+03 0.  1.
<mgrwt>
<rscale>  0 0.12889283E+04</rscale>
<asrwt>0</asrwt>
<pdfrwt beam="1">  1        2 0.20833568E+00 0.12889283E+04</pdfrwt>
<pdfrwt beam="2">  1       -2 0.40685325E-01 0.12889283E+04</pdfrwt>
<totfact> 0.86330957E+01</totfact>
</mgrwt>
</event>
<event>
 8    1  0.7326756E-052  0.1622117E+04  0.7818608E-02  0.8807075E-01
          2   -1    0    0  501    0  0.00000000000E+00  0.00000000000E+00  0.27065185936E+04  0.27065185936E+04  0.25500000000E-02 0.  1.
         -2   -1    0    0    0  501 -0.00000000000E+00 -0.00000000000E+00 -0.24304859801E+03  0.24304859803E+03  0.25500000000E-02 0. -1.
     200001    2    1    2    0    0  0.26379812998E+03 -0.14043310926E+03  0.43290709439E+03  0.80754347391E+03  0.61270465832E+03 0.  0.
    5000001    2    3    3    0    0  0.37242425413E+03 -0.33282056219E+02  0.67149471334E+02  0.39856838685E+03  0.12058269845E+03 0.  0.
        -11    1    4    4    0    0  0.21295356633E+03 -0.45715972287E+02 -0.10897612067E+02  0.21807780603E+03  0.51100000000E-03 0. -1.
     200002    1    4    4    0    0  0.15947068780E+03  0.12433916068E+02  0.78047083401E+02  0.18049058081E+03  0.30000000000E+02 0. -1.
     200000    1    3    3    0    0 -0.10862612415E+03 -0.10715105304E+03  0.36575762306E+03  0.40897508707E+03  0.10100000000E+03 0.  1.
    -200001    1    1    2    0    0 -0.26379812998E+03  0.14043310926E+03  0.20305629012E+04  0.21420237177E+04  0.61300000000E+03 0. -1.
<mgrwt>
<rscale>  0 0.16221166E+04</rscale>
<asrwt>0</asrwt>
<pdfrwt beam="1">  1        2 0.38664551E+00 0.16221166E+04</pdfrwt>
<pdfrwt beam="2">  1       -2 0.34721229E-01 0.16221166E+04</pdfrwt>
<totfact> 0.25567017E+01</totfact>
</mgrwt>
</event>
<event>
 8    1  0.7326756E-052  0.1898867E+04  0.7818608E-02  0.8655421E-01
         -2   -1    0    0    0  501 -0.00000000000E+00  0.00000000000E+00  0.51524798323E+03  0.51524798323E+03  0.25500000000E-02 0. -1.
          2   -1    0    0  501    0  0.00000000000E+00 -0.00000000000E+00 -0.17494950511E+04  0.17494950511E+04  0.25500000000E-02 0.  1.
     200001    2    1    2    0    0  0.17678219900E+03 -0.70580981761E+03 -0.58601286878E+03  0.11134845832E+04  0.60581960192E+03 0.  0.
    5000001    2    3    3    0    0  0.15623780063E+03 -0.63817095521E+02  0.60447906807E+02  0.19659349810E+03  0.80698091865E+02 0.  0.
        -11    1    4    4    0    0  0.21303740153E+02  0.20265950020E+01 -0.14773190966E+02  0.26003915155E+02  0.51100000000E-03 0. -1.
     200002    1    4    4    0    0  0.13493406048E+03 -0.65843690523E+02  0.75221097773E+02  0.17058958294E+03  0.30000000000E+02 0. -1.
     200000    1    3    3    0    0  0.20544398373E+02 -0.64199272209E+03 -0.64646077558E+03  0.91689108507E+03  0.10100000000E+03 0.  1.
    -200001    1    1    2    0    0 -0.17678219900E+03  0.70580981761E+03 -0.64823419912E+03  0.11512584512E+04  0.61300000000E+03 0. -1.
<mgrwt>
<rscale>  0 0.18988668E+04</rscale>
<asrwt>0</asrwt>
<pdfrwt beam="1">  1        2 0.24992786E+00 0.18988668E+04</pdfrwt>
<pdfrwt beam="2">  1       -2 0.73606856E-01 0.18988668E+04</pdfrwt>
<totfact> 0.16910640E+01</totfact>
</mgrwt>
</event>
<event>
 8    1  0.7326756E-052  0.1670673E+04  0.7818608E-02  0.8778270E-01
          2   -1    0    0  501    0  0.00000000000E+00  0.00000000000E+00  0.20560346050E+04  0.20560346050E+04  0.25500000000E-02 0.  1.
         -2   -1    0    0    0  501 -0.00000000000E+00 -0.00000000000E+00 -0.33938469098E+03  0.33938469099E+03  0.25500000000E-02 0. -1.
     200001    2    1    2    0    0 -0.25571064653E+03 -0.17950966070E+03  0.15380770651E+04  0.16845965928E+04  0.61202366711E+03 0.  0.
    5000001    2    3    3    0    0  0.10331568617E+03  0.12069014776E+03  0.49959799805E+03  0.54106714177E+03  0.13384785943E+03 0.  0.
        -11    1    4    4    0    0  0.28673913157E+02  0.10839835497E+03  0.18690712802E+03  0.21796025133E+03  0.51100000000E-03 0. -1.
     200002    1    4    4    0    0  0.74641773011E+02  0.12291792785E+02  0.31269087003E+03  0.32310689043E+03  0.30000000000E+02 0. -1.
     200000    1    3    3    0    0 -0.35902633270E+03 -0.30019980845E+03  0.10384790671E+04  0.11435294510E+04  0.10100000000E+03 0.  1.
    -200001    1    1    2    0    0  0.25571064653E+03  0.17950966070E+03  0.17857284888E+03  0.71082270320E+03  0.61300000000E+03 0. -1.
<mgrwt>
<rscale>  0 0.16706725E+04</rscale>
<asrwt>0</asrwt>
<pdfrwt beam="1">  1        2 0.29371922E+00 0.16706725E+04</pdfrwt>
<pdfrwt beam="2">  1       -2 0.48483528E-01 0.16706725E+04</pdfrwt>
<totfact> 0.28909789E+01</totfact>
</mgrwt>
</event>
<event>
 8    1  0.7326756E-052  0.1418355E+04  0.7818608E-02  0.8940639E-01
         -2   -1    0    0    0  501 -0.00000000000E+00  0.00000000000E+00  0.24711921187E+03  0.24711921188E+03  0.25500000000E-02 0. -1.
          2   -1    0    0  501    0  0.00000000000E+00 -0.00000000000E+00 -0.20351820121E+04  0.20351820121E+04  0.25500000000E-02 0.  1.
     200001    2    1    2    0    0 -0.18641399045E+02  0.35030317960E+03 -0.79131910706E+03  0.10606929360E+04  0.61304466062E+03 0.  0.
    5000001    2    3    3    0    0 -0.52704310653E+02 -0.98453080894E+02  0.83252027786E+01  0.13755996318E+03  0.79891682725E+02 0.  0.
        -11    1    4    4    0    0 -0.17032139708E+02 -0.83897163752E+02 -0.82216297501E+01  0.86002459643E+02  0.51100000000E-03 0. -1.
     200002    1    4    4    0    0 -0.35672170945E+02 -0.14555917142E+02  0.16546832529E+02  0.51557503533E+02  0.30000000000E+02 0. -1.
     200000    1    3    3    0    0  0.34062911608E+02  0.44875626049E+03 -0.79964430984E+03  0.92313297284E+03  0.10100000000E+03 0.  1.
    -200001    1    1    2    0    0  0.18641399045E+02 -0.35030317960E+03 -0.99674369321E+03  0.12216082880E+04  0.61300000000E+03 0. -1.
<mgrwt>
<rscale>  0 0.14183548E+04</rscale>
<asrwt>0</asrwt>
<pdfrwt beam="1">  1        2 0.29074028E+00 0.14183548E+04</pdfrwt>
<pdfrwt beam="2">  1       -2 0.35302746E-01 0.14183548E+04</pdfrwt>
<totfact> 0.56425496E+01</totfact>
</mgrwt>
</event>
<event>
 8    1  0.7326756E-052  0.3096422E+04  0.7818608E-02  0.8216720E-01
          2   -1    0    0  501    0  0.00000000000E+00  0.00000000000E+00  0.17930133468E+04  0.17930133468E+04  0.25500000000E-02 0.  1.
         -2   -1    0    0    0  501 -0.00000000000E+00 -0.00000000000E+00 -0.13368322010E+04  0.13368322010E+04  0.25500000000E-02 0. -1.
     200001    2    1    2    0    0 -0.21014096258E+03  0.13742257356E+04  0.52897929301E+03  0.16087524649E+04  0.61287013683E+03 0.  0.
    5000001    2    3    3    0    0  0.18686573920E+03  0.61488010373E+03  0.31684047542E+03  0.72025711450E+03  0.73389901740E+02 0.  0.
        -11    1    4    4    0    0  0.87029964395E+02  0.34539955557E+03  0.14898546269E+03  0.38609809088E+03  0.51100000000E-03 0. -1.
     200002    1    4    4    0    0  0.99835774802E+02  0.26948054816E+03  0.16785501273E+03  0.33415902362E+03  0.30000000000E+02 0. -1.
     200000    1    3    3    0    0 -0.39700670178E+03  0.75934563183E+03  0.21213881759E+03  0.88849535044E+03  0.10100000000E+03 0. -1.
    -200001    1    1    2    0    0  0.21014096258E+03 -0.13742257356E+04 -0.72798147256E+02  0.15210930828E+04  0.61300000000E+03 0.  1.
<mgrwt>
<rscale>  0 0.30964224E+04</rscale>
<asrwt>0</asrwt>
<pdfrwt beam="1">  1        2 0.25614476E+00 0.30964224E+04</pdfrwt>
<pdfrwt beam="2">  1       -2 0.19097603E+00 0.30964224E+04</pdfrwt>
<totfact> 0.13418557E+00</totfact>
</mgrwt>
</event>
<event>
 8    1  0.7326756E-052  0.1795605E+04  0.7818608E-02  0.8708640E-01
         -2   -1    0    0    0  501 -0.00000000000E+00  0.00000000000E+00  0.45833976786E+03  0.45833976787E+03  0.25500000000E-02 0. -1.
          2   -1    0    0  501    0  0.00000000000E+00 -0.00000000000E+00 -0.17586285372E+04  0.17586285372E+04  0.25500000000E-02 0.  1.
     200001    2    1    2    0    0  0.39213606054E+03 -0.30752069351E+03 -0.12137705945E+03  0.79783424282E+03  0.61111980948E+03 0.  0.
    5000001    2    3    3    0    0  0.12197113943E+03 -0.22192718237E+03  0.21882584508E+03  0.34368190054E+03  0.78127236947E+02 0.  0.
        -11    1    4    4    0    0  0.11095406855E+03 -0.18556566617E+03  0.18586441602E+03  0.28511577111E+03  0.51100000000E-03 0. -1.
     200002    1    4    4    0    0  0.11017070880E+02 -0.36361516204E+02  0.32961429059E+02  0.58566129435E+02  0.30000000000E+02 0.  1.
     200000    1    3    3    0    0  0.27016492110E+03 -0.85593511141E+02 -0.34020290453E+03  0.45415234228E+03  0.10100000000E+03 0.  1.
    -200001    1    1    2    0    0 -0.39213606054E+03  0.30752069351E+03 -0.11789117099E+04  0.14191340622E+04  0.61300000000E+03 0.  1.
<mgrwt>
<rscale>  0 0.17956051E+04</rscale>
<asrwt>0</asrwt>
<pdfrwt beam="1">  1        2 0.25123264E+00 0.17956051E+04</pdfrwt>
<pdfrwt beam="2">  1       -2 0.65477111E-01 0.17956051E+04</pdfrwt>
<totfact> 0.21762571E+01</totfact>
</mgrwt>
</event>
<event>
 8    1  0.7326756E-052  0.1561910E+04  0.7818608E-02  0.8844296E-01
          2   -1    0    0  501    0  0.00000000000E+00  0.00000000000E+00  0.22112120478E+04  0.22112120478E+04  0.25500000000E-02 0.  1.
         -2   -1    0    0    0  501 -0.00000000000E+00 -0.00000000000E+00 -0.27581750565E+03  0.27581750566E+03  0.25500000000E-02 0. -1.
     200001    2    1    2    0    0 -0.25035322486E+03  0.26326092519E+03  0.14740340331E+04  0.16381446548E+04  0.61543360921E+03 0.  0.
    5000001    2    3    3    0    0  0.44826760837E+02  0.20230747016E+03  0.11937984144E+04  0.12143763813E+04  0.81348572180E+02 0.  0.
        -11    1    4    4    0    0 -0.56697246624E+01  0.75032097946E+02  0.28201199409E+03  0.29187793050E+03  0.51100000000E-03 0. -1.
     200002    1    4    4    0    0  0.50496485499E+02  0.12727537222E+03  0.91178642034E+03  0.92249845081E+03  0.30000000000E+02 0. -1.
     200000    1    3    3    0    0 -0.29517998570E+03  0.60953455027E+02  0.28023561864E+03  0.42376827346E+03  0.10100000000E+03 0.  1.
    -200001    1    1    2    0    0  0.25035322486E+03 -0.26326092519E+03  0.46136050913E+03  0.84888489875E+03  0.61300000000E+03 0. -1.
<mgrwt>
<rscale>  0 0.15619104E+04</rscale>
<asrwt>0</asrwt>
<pdfrwt beam="1">  1        2 0.31588741E+00 0.15619104E+04</pdfrwt>
<pdfrwt beam="2">  1       -2 0.39402504E-01 0.15619104E+04</pdfrwt>
<totfact> 0.36630339E+01</totfact>
</mgrwt>
</event>
<event>
 8    1  0.7326756E-052  0.1722140E+04  0.7818608E-02  0.8748837E-01
          2   -1    0    0  501    0  0.00000000000E+00  0.00000000000E+00  0.16382772837E+04  0.16382772837E+04  0.25500000000E-02 0.  1.
         -2   -1    0    0    0  501 -0.00000000000E+00 -0.00000000000E+00 -0.45257401001E+03  0.45257401002E+03  0.25500000000E-02 0. -1.
     200001    2    1    2    0    0 -0.33046548452E+03 -0.49129845762E+03  0.44539710206E+03  0.96195633019E+03  0.61351429629E+03 0.  0.
    5000001    2    3    3    0    0 -0.70434917741E+02 -0.46273884456E+02  0.41927823845E+03  0.43607995554E+03  0.85259230393E+02 0.  0.
        -11    1    4    4    0    0 -0.43973841936E+02  0.80814390322E+01  0.24775850267E+03  0.25176037035E+03  0.51100000000E-03 0. -1.
     200002    1    4    4    0    0 -0.26461075805E+02 -0.54355323488E+02  0.17151973578E+03  0.18431958519E+03  0.30000000000E+02 0. -1.
     200000    1    3    3    0    0 -0.26003056678E+03 -0.44502457317E+03  0.26118863613E+02  0.52587637465E+03  0.10100000000E+03 0. -1.
    -200001    1    1    2    0    0  0.33046548452E+03  0.49129845762E+03  0.74030617159E+03  0.11288949635E+04  0.61300000000E+03 0.  1.
<mgrwt>
<rscale>  0 0.17221402E+04</rscale>
<asrwt>0</asrwt>
<pdfrwt beam="1">  1        2 0.23403962E+00 0.17221402E+04</pdfrwt>
<pdfrwt beam="2">  1       -2 0.64653428E-01 0.17221402E+04</pdfrwt>
<totfact> 0.25983442E+01</totfact>
</mgrwt>
</event>
<event>
 8    1  0.7326756E-052  0.1545846E+04  0.7818608E-02  0.8854525E-01
         -2   -1    0    0    0  501 -0.00000000000E+00  0.00000000000E+00  0.14904773702E+04  0.14904773702E+04  0.25500000000E-02 0.  1.
          2   -1    0    0  501    0  0.00000000000E+00 -0.00000000000E+00 -0.40081798327E+03  0.40081798328E+03  0.25500000000E-02 0. -1.
     200001    2    1    2    0    0  0.17112102760E+03 -0.27319810492E+03  0.12496496286E+03  0.70372474823E+03  0.61293773641E+03 0.  0.
    5000001    2    3    3    0    0  0.24191503561E+03 -0.15618549346E+03 -0.16459880235E+03  0.36793922601E+03  0.15927873516E+03 0.  0.
        -11    1    4    4    0    0  0.27270370613E+02  0.95929795139E+00 -0.84063084421E+02  0.88380968135E+02  0.51100000000E-03 0. -1.
     200002    1    4    4    0    0  0.21464466500E+03 -0.15714479141E+03 -0.80535717933E+02  0.27955825787E+03  0.30000000000E+02 0. -1.
     200000    1    3    3    0    0 -0.70794008015E+02 -0.11701261146E+03  0.28956376521E+03  0.33578552223E+03  0.10100000000E+03 0.  1.
    -200001    1    1    2    0    0 -0.17112102760E+03  0.27319810492E+03  0.96469442409E+03  0.11875706053E+04  0.61300000000E+03 0.  1.
<mgrwt>
<rscale>  0 0.15458462E+04</rscale>
<asrwt>0</asrwt>
<pdfrwt beam="1">  1        2 0.57259711E-01 0.15458462E+04</pdfrwt>
<pdfrwt beam="2">  1       -2 0.21292534E+00 0.15458462E+04</pdfrwt>
<totfact> 0.91221324E+00</totfact>
</mgrwt>
</event>
<event>
 8    1  0.7326756E-052  0.1421462E+04  0.7818608E-02  0.8938428E-01
         -2   -1    0    0    0  501 -0.00000000000E+00  0.00000000000E+00  0.11197241802E+04  0.11197241802E+04  0.25500000000E-02 0. -1.
          2   -1    0    0  501    0  0.00000000000E+00 -0.00000000000E+00 -0.45112775643E+03  0.45112775643E+03  0.25500000000E-02 0.  1.
     200001    2    1    2    0    0  0.28953678380E+03 -0.20488178012E+03  0.24751570872E+03  0.74690651271E+03  0.60893121094E+03 0.  0.
    5000001    2    3    3    0    0 -0.89290408028E+02  0.90582392505E+02  0.14786893281E+03  0.24596779537E+03  0.14985655899E+03 0.  0.
        -11    1    4    4    0    0 -0.11786599563E+01 -0.34686517201E+02  0.52932939226E+02  0.63296443583E+02  0.51100000000E-03 0. -1.
     200002    1    4    4    0    0 -0.88111748072E+02  0.12526890971E+03  0.94935993583E+02  0.18267135179E+03  0.30000000000E+02 0. -1.
     200000    1    3    3    0    0  0.37882719183E+03 -0.29546417263E+03  0.99646775909E+02  0.50093871733E+03  0.10100000000E+03 0. -1.
    -200001    1    1    2    0    0 -0.28953678380E+03  0.20488178012E+03  0.42108071502E+03  0.82394542390E+03  0.61300000000E+03 0.  1.
<mgrwt>
<rscale>  0 0.14214621E+04</rscale>
<asrwt>0</asrwt>
<pdfrwt beam="1">  1        2 0.64446822E-01 0.14214621E+04</pdfrwt>
<pdfrwt beam="2">  1       -2 0.15996060E+00 0.14214621E+04</pdfrwt>
<totfact> 0.18510232E+01</totfact>
</mgrwt>
</event>
<event>
 8    1  0.7326756E-052  0.1392686E+04  0.7818608E-02  0.8959130E-01
         -2   -1    0    0    0  501 -0.00000000000E+00  0.00000000000E+00  0.19220877228E+03  0.19220877230E+03  0.25500000000E-02 0. -1.
          2   -1    0    0  501    0  0.00000000000E+00 -0.00000000000E+00 -0.25227428145E+04  0.25227428145E+04  0.25500000000E-02 0.  1.
     200001    2    1    2    0    0 -0.17589710701E+03 -0.24631896075E+03 -0.14201596102E+04  0.15764598524E+04  0.61380740083E+03 0.  0.
    5000001    2    3    3    0    0  0.59816381278E+02 -0.28148876042E+03 -0.28488061740E+03  0.41204705846E+03  0.76235756065E+02 0.  0.
        -11    1    4    4    0    0  0.34003709497E+02 -0.89223408659E+02 -0.13363430333E+03  0.16424127355E+03  0.51100000000E-03 0. -1.
     200002    1    4    4    0    0  0.25812671781E+02 -0.19226535176E+03 -0.15124631407E+03  0.24780578490E+03  0.30000000000E+02 0. -1.
     200000    1    3    3    0    0 -0.23571348829E+03  0.35169799663E+02 -0.11352789928E+04  0.11644127940E+04  0.10100000000E+03 0. -1.
    -200001    1    1    2    0    0  0.17589710701E+03  0.24631896075E+03 -0.91037443207E+03  0.11384917344E+04  0.61300000000E+03 0. -1.
<mgrwt>
<rscale>  0 0.13926856E+04</rscale>
<asrwt>0</asrwt>
<pdfrwt beam="1">  1        2 0.36039181E+00 0.13926856E+04</pdfrwt>
<pdfrwt beam="2">  1       -2 0.27458397E-01 0.13926856E+04</pdfrwt>
<totfact> 0.50632166E+01</totfact>
</mgrwt>
</event>
<event>
 8    1  0.7326756E-052  0.1384736E+04  0.7818608E-02  0.8964942E-01
         -2   -1    0    0    0  501 -0.00000000000E+00  0.00000000000E+00  0.81868129637E+03  0.81868129637E+03  0.25500000000E-02 0. -1.
          2   -1    0    0  501    0  0.00000000000E+00 -0.00000000000E+00 -0.58554347414E+03  0.58554347415E+03  0.25500000000E-02 0.  1.
     200001    2    1    2    0    0  0.27663762214E+03  0.16473338541E+03  0.11791719047E+03  0.70229154276E+03  0.61289761378E+03 0.  0.
    5000001    2    3    3    0    0  0.32798731163E+03  0.30143535810E+03  0.21429361305E+03  0.50026769571E+03  0.76857420461E+02 0.  0.
        -11    1    4    4    0    0  0.10841487555E+03  0.14211995129E+03  0.94612188227E+02  0.20224572172E+03  0.51100000000E-03 0. -1.
     200002    1    4    4    0    0  0.21957243608E+03  0.15931540681E+03  0.11968142482E+03  0.29802197399E+03  0.30000000000E+02 0. -1.
     200000    1    3    3    0    0 -0.51349689491E+02 -0.13670197269E+03 -0.96376422580E+02  0.20202384705E+03  0.10100000000E+03 0.  1.
    -200001    1    1    2    0    0 -0.27663762214E+03 -0.16473338541E+03  0.11522063176E+03  0.70193322776E+03  0.61300000000E+03 0. -1.
<mgrwt>
<rscale>  0 0.13847361E+04</rscale>
<asrwt>0</asrwt>
<pdfrwt beam="1">  1        2 0.83649068E-01 0.13847361E+04</pdfrwt>
<pdfrwt beam="2">  1       -2 0.11695447E+00 0.13847361E+04</pdfrwt>
<totfact> 0.30840339E+01</totfact>
</mgrwt>
</event>
<event>
 8    1  0.7326756E-052  0.2628857E+04  0.7818608E-02  0.8358465E-01
         -2   -1    0    0    0  501 -0.00000000000E+00  0.00000000000E+00  0.17034799437E+04  0.17034799437E+04  0.25500000000E-02 0. -1.
          2   -1    0    0  501    0  0.00000000000E+00 -0.00000000000E+00 -0.10142308076E+04  0.10142308076E+04  0.25500000000E-02 0.  1.
     200001    2    1    2    0    0  0.13488483607E+02 -0.14293398938E+02 -0.85884939040E+03  0.10525488109E+04  0.60815333872E+03 0.  0.
    5000001    2    3    3    0    0 -0.26259444932E+03  0.74749107680E+02 -0.52279939550E+03  0.59726763080E+03  0.94160187712E+02 0.  0.
        -11    1    4    4    0    0  0.42968839787E+00  0.12655646303E+01 -0.53107118498E+02  0.53123933602E+02  0.51100000000E-03 0. -1.
     200002    1    4    4    0    0 -0.26302413772E+03  0.73483543049E+02 -0.46969227700E+03  0.54414369720E+03  0.30000000000E+02 0. -1.
     200000    1    3    3    0    0  0.27608293293E+03 -0.89042506618E+02 -0.33604999490E+03  0.45528118005E+03  0.10100000000E+03 0.  1.
    -200001    1    1    2    0    0 -0.13488483607E+02  0.14293398938E+02  0.15480985265E+04  0.16651619405E+04  0.61300000000E+03 0. -1.
<mgrwt>
<rscale>  0 0.26288567E+04</rscale>
<asrwt>0</asrwt>
<pdfrwt beam="1">  1        2 0.14489012E+00 0.26288567E+04</pdfrwt>
<pdfrwt beam="2">  1       -2 0.24335428E+00 0.26288567E+04</pdfrwt>
<totfact> 0.17247140E+00</totfact>
</mgrwt>
</event>
<event>
 8    1  0.7326756E-052  0.1320103E+04  0.7818608E-02  0.9013773E-01
         -2   -1    0    0    0  501 -0.00000000000E+00  0.00000000000E+00  0.62807260251E+03  0.62807260251E+03  0.25500000000E-02 0. -1.
          2   -1    0    0  501    0  0.00000000000E+00 -0.00000000000E+00 -0.69365862651E+03  0.69365862651E+03  0.25500000000E-02 0.  1.
     200001    2    1    2    0    0 -0.12501287308E+03  0.20084073695E+03  0.33922193230E+02  0.65717415446E+03  0.61217802480E+03 0.  0.
    5000001    2    3    3    0    0  0.15784161600E+03 -0.98589580556E+02 -0.85406442527E+02  0.21660009673E+03  0.70621953672E+02 0.  0.
        -11    1    4    4    0    0  0.13282313841E+03 -0.82955452268E+02 -0.61788207202E+02  0.16834897002E+03  0.51100000000E-03 0. -1.
     200002    1    4    4    0    0  0.25018477593E+02 -0.15634128288E+02 -0.23618235325E+02  0.48251126705E+02  0.30000000000E+02 0. -1.
     200000    1    3    3    0    0 -0.28285448909E+03  0.29943031751E+03  0.11932863576E+03  0.44057405773E+03  0.10100000000E+03 0. -1.
    -200001    1    1    2    0    0  0.12501287308E+03 -0.20084073695E+03 -0.99508217230E+02  0.66455707456E+03  0.61300000000E+03 0.  1.
<mgrwt>
<rscale>  0 0.13201030E+04</rscale>
<asrwt>0</asrwt>
<pdfrwt beam="1">  1        2 0.99094090E-01 0.13201030E+04</pdfrwt>
<pdfrwt beam="2">  1       -2 0.89724657E-01 0.13201030E+04</pdfrwt>
<totfact> 0.47499187E+01</totfact>
</mgrwt>
</event>
<event>
 8    1  0.7326756E-052  0.1362818E+04  0.7818608E-02  0.8981181E-01
         -2   -1    0    0    0  501 -0.00000000000E+00  0.00000000000E+00  0.21208300508E+03  0.21208300509E+03  0.25500000000E-02 0. -1.
          2   -1    0    0  501    0  0.00000000000E+00 -0.00000000000E+00 -0.21893243027E+04  0.21893243027E+04  0.25500000000E-02 0.  1.
     200001    2    1    2    0    0  0.18499716449E+03 -0.23185093244E+03 -0.98346963905E+03  0.11966957593E+04  0.61391318896E+03 0.  0.
    5000001    2    3    3    0    0 -0.12543384731E+03 -0.25205876518E+02 -0.16402210588E+02  0.15530726144E+03  0.86500443240E+02 0.  0.
        -11    1    4    4    0    0 -0.12018385948E+03 -0.15739464469E+02 -0.45902300816E+01  0.12129699515E+03  0.51100000000E-03 0. -1.
     200002    1    4    4    0    0 -0.52499878353E+01 -0.94664120490E+01 -0.11811980506E+02  0.34010266286E+02  0.30000000000E+02 0. -1.
     200000    1    3    3    0    0  0.31043101180E+03 -0.20664505593E+03 -0.96706742846E+03  0.10413884978E+04  0.10100000000E+03 0.  1.
    -200001    1    1    2    0    0 -0.18499716449E+03  0.23185093244E+03 -0.99377165854E+03  0.12047115485E+04  0.61300000000E+03 0. -1.
<mgrwt>
<rscale>  0 0.13628184E+04</rscale>
<asrwt>0</asrwt>
<pdfrwt beam="1">  1        2 0.31276060E+00 0.13628184E+04</pdfrwt>
<pdfrwt beam="2">  1       -2 0.30297573E-01 0.13628184E+04</pdfrwt>
<totfact> 0.63028774E+01</totfact>
</mgrwt>
</event>
<event>
 8    1  0.7326756E-052  0.2247598E+04  0.7818608E-02  0.8498874E-01
         -2   -1    0    0    0  501 -0.00000000000E+00  0.00000000000E+00  0.81271657702E+03  0.81271657703E+03  0.25500000000E-02 0. -1.
          2   -1    0    0  501    0  0.00000000000E+00 -0.00000000000E+00 -0.15539542518E+04  0.15539542518E+04  0.25500000000E-02 0.  1.
     200001    2    1    2    0    0  0.15478393200E+03 -0.72347016956E+03 -0.98422858319E+03  0.13756205105E+04  0.61339932593E+03 0.  0.
    5000001    2    3    3    0    0 -0.16044327798E+03 -0.87788188459E+02 -0.40591006554E+03  0.45468995780E+03  0.92364305525E+02 0.  0.
        -11    1    4    4    0    0 -0.14347556171E+03 -0.56986036333E+02 -0.34714131561E+03  0.37992069982E+03  0.51100000000E-03 0. -1.
     200002    1    4    4    0    0 -0.16967716267E+02 -0.30802152126E+02 -0.58768749932E+02  0.74769257984E+02  0.30000000000E+02 0.  1.
     200000    1    3    3    0    0  0.31522720998E+03 -0.63568198110E+03 -0.57831851765E+03  0.92093055269E+03  0.10100000000E+03 0.  1.
    -200001    1    1    2    0    0 -0.15478393200E+03  0.72347016956E+03  0.24299090844E+03  0.99105031832E+03  0.61300000000E+03 0. -1.
<mgrwt>
<rscale>  0 0.22475982E+04</rscale>
<asrwt>0</asrwt>
<pdfrwt beam="1">  1        2 0.22199346E+00 0.22475982E+04</pdfrwt>
<pdfrwt beam="2">  1       -2 0.11610237E+00 0.22475982E+04</pdfrwt>
<totfact> 0.72151953E+00</totfact>
</mgrwt>
</event>
<event>
 8    1  0.7326756E-052  0.1380713E+04  0.7818608E-02  0.8967899E-01
         -2   -1    0    0    0  501 -0.00000000000E+00  0.00000000000E+00  0.32063642344E+03  0.32063642345E+03  0.25500000000E-02 0. -1.
          2   -1    0    0  501    0  0.00000000000E+00 -0.00000000000E+00 -0.14863948896E+04  0.14863948896E+04  0.25500000000E-02 0.  1.
     200001    2    1    2    0    0 -0.24811526402E+03  0.48902998087E+02 -0.83710903534E+03  0.10669420375E+04  0.61127824009E+03 0.  0.
    5000001    2    3    3    0    0  0.14047051448E+03 -0.11431097873E+03 -0.36183905839E+03  0.42373113856E+03  0.12578397479E+03 0.  0.
        -11    1    4    4    0    0  0.15231598774E+03 -0.78477879217E+02 -0.29777055048E+03  0.34354947006E+03  0.51100000000E-03 0. -1.
     200002    1    4    4    0    0 -0.11845473261E+02 -0.35833099514E+02 -0.64068507912E+02  0.80181668501E+02  0.30000000000E+02 0. -1.
     200000    1    3    3    0    0 -0.38858577850E+03  0.16321397682E+03 -0.47526997695E+03  0.64321089890E+03  0.10100000000E+03 0.  1.
    -200001    1    1    2    0    0  0.24811526402E+03 -0.48902998087E+02 -0.32864943082E+03  0.74008927558E+03  0.61300000000E+03 0. -1.
<mgrwt>
<rscale>  0 0.13807134E+04</rscale>
<asrwt>0</asrwt>
<pdfrwt beam="1">  1        2 0.21234212E+00 0.13807134E+04</pdfrwt>
<pdfrwt beam="2">  1       -2 0.45805204E-01 0.13807134E+04</pdfrwt>
<totfact> 0.65514927E+01</totfact>
</mgrwt>
</event>
<event>
 8    1  0.7326756E-052  0.1399634E+04  0.7818608E-02  0.8954084E-01
          2   -1    0    0  501    0  0.00000000000E+00  0.00000000000E+00  0.51209026458E+03  0.51209026458E+03  0.25500000000E-02 0.  1.
         -2   -1    0    0    0  501 -0.00000000000E+00 -0.00000000000E+00 -0.95636181566E+03  0.95636181567E+03  0.25500000000E-02 0. -1.
     200001    2    1    2    0    0 -0.30909763419E+03  0.72949224107E+02 -0.10434966030E+03  0.69892051586E+03  0.61378994707E+03 0.  0.
    5000001    2    3    3    0    0 -0.35267281442E+03 -0.43559076085E+01 -0.29443806106E+03  0.46609122254E+03  0.78423006584E+02 0.  0.
        -11    1    4    4    0    0 -0.22960124386E+03  0.10317276314E+02 -0.15545689598E+03  0.27747076221E+03  0.51100000000E-03 0. -1.
     200002    1    4    4    0    0 -0.12307157055E+03 -0.14673183923E+02 -0.13898116508E+03  0.18862046032E+03  0.30000000000E+02 0. -1.
     200000    1    3    3    0    0  0.43575180231E+02  0.77305131716E+02  0.19008840077E+03  0.23282929332E+03  0.10100000000E+03 0.  1.
    -200001    1    1    2    0    0  0.30909763419E+03 -0.72949224107E+02 -0.33992189079E+03  0.76953156439E+03  0.61300000000E+03 0.  1.
<mgrwt>
<rscale>  0 0.13996336E+04</rscale>
<asrwt>0</asrwt>
<pdfrwt beam="1">  1        2 0.73155752E-01 0.13996336E+04</pdfrwt>
<pdfrwt beam="2">  1       -2 0.13662312E+00 0.13996336E+04</pdfrwt>
<totfact> 0.24353133E+01</totfact>
</mgrwt>
</event>
<event>
 8    1  0.7326756E-052  0.1431647E+04  0.7818608E-02  0.8931224E-01
         -2   -1    0    0    0  501 -0.00000000000E+00  0.00000000000E+00  0.53516053298E+03  0.53516053299E+03  0.25500000000E-02 0. -1.
          2   -1    0    0  501    0  0.00000000000E+00 -0.00000000000E+00 -0.95747547096E+03  0.95747547096E+03  0.25500000000E-02 0.  1.
     200001    2    1    2    0    0 -0.18081684799E+03 -0.28631523188E+03 -0.61310492502E+02  0.70475000067E+03  0.61501418067E+03 0.  0.
    5000001    2    3    3    0    0 -0.33214209887E+03 -0.36326617467E+03 -0.19344988969E+01  0.49848006158E+03  0.78727009369E+02 0.  0.
        -11    1    4    4    0    0 -0.73875067649E+02 -0.76628632791E+02 -0.29662319662E+02  0.11049581979E+03  0.51100000000E-03 0. -1.
     200002    1    4    4    0    0 -0.25826703122E+03 -0.28663754188E+03  0.27727820765E+02  0.38798424179E+03  0.30000000000E+02 0. -1.
     200000    1    3    3    0    0  0.15132525089E+03  0.76950942791E+02 -0.59375993605E+02  0.20626993908E+03  0.10100000000E+03 0. -1.
    -200001    1    1    2    0    0  0.18081684799E+03  0.28631523188E+03 -0.36100444547E+03  0.78788600329E+03  0.61300000000E+03 0. -1.
<mgrwt>
<rscale>  0 0.14316467E+04</rscale>
<asrwt>0</asrwt>
<pdfrwt beam="1">  1        2 0.13678221E+00 0.14316467E+04</pdfrwt>
<pdfrwt beam="2">  1       -2 0.76451505E-01 0.14316467E+04</pdfrwt>
<totfact> 0.44452087E+01</totfact>
</mgrwt>
</event>
<event>
 8    1  0.7326756E-052  0.2397271E+04  0.7818608E-02  0.8440526E-01
         -2   -1    0    0    0  501 -0.00000000000E+00  0.00000000000E+00  0.11398381919E+04  0.11398381919E+04  0.25500000000E-02 0. -1.
          2   -1    0    0  501    0  0.00000000000E+00 -0.00000000000E+00 -0.12604658636E+04  0.12604658636E+04  0.25500000000E-02 0.  1.
     200001    2    1    2    0    0  0.37801211971E+03  0.89622255277E+02  0.89488551903E+03  0.11521208350E+04  0.61289233561E+03 0.  0.
    5000001    2    3    3    0    0  0.74106474682E+02  0.28522771806E+03  0.53282058148E+03  0.63066886490E+03  0.16431318985E+03 0.  0.
        -11    1    4    4    0    0  0.65075111224E+02  0.28357993358E+03  0.52176697502E+03  0.59740532727E+03  0.51100000000E-03 0. -1.
     200002    1    4    4    0    0  0.90313634582E+01  0.16477844807E+01  0.11053606464E+02  0.33263537627E+02  0.30000000000E+02 0. -1.
     200000    1    3    3    0    0  0.30390564503E+03 -0.19560546279E+03  0.36206493755E+03  0.52145197014E+03  0.10100000000E+03 0. -1.
    -200001    1    1    2    0    0 -0.37801211971E+03 -0.89622255277E+02 -0.10155131908E+04  0.12481832205E+04  0.61300000000E+03 0.  1.
<mgrwt>
<rscale>  0 0.23972711E+04</rscale>
<asrwt>0</asrwt>
<pdfrwt beam="1">  1        2 0.18006655E+00 0.23972711E+04</pdfrwt>
<pdfrwt beam="2">  1       -2 0.16283403E+00 0.23972711E+04</pdfrwt>
<totfact> 0.42886639E+00</totfact>
</mgrwt>
</event>
<event>
 8    1  0.7326756E-052  0.1660703E+04  0.7818608E-02  0.8784099E-01
         -2   -1    0    0    0  501 -0.00000000000E+00  0.00000000000E+00  0.25938459935E+03  0.25938459936E+03  0.25500000000E-02 0. -1.
          2   -1    0    0  501    0  0.00000000000E+00 -0.00000000000E+00 -0.26581531802E+04  0.26581531802E+04  0.25500000000E-02 0.  1.
     200001    2    1    2    0    0 -0.23512246461E+02 -0.42303394531E+03 -0.18430750164E+04  0.19879814971E+04  0.61289017972E+03 0.  0.
    5000001    2    3    3    0    0 -0.10079319024E+03  0.11785862341E+03 -0.64052391740E+03  0.66326746732E+03  0.74852669527E+02 0.  0.
        -11    1    4    4    0    0 -0.88066921626E+02  0.90998576049E+02 -0.41759443066E+03  0.43637327146E+03  0.51100000000E-03 0. -1.
     200002    1    4    4    0    0 -0.12726268615E+02  0.26860047364E+02 -0.22292948674E+03  0.22689419586E+03  0.30000000000E+02 0. -1.
     200000    1    3    3    0    0  0.77280943780E+02 -0.54089256872E+03 -0.12025510990E+04  0.13247140298E+04  0.10100000000E+03 0. -1.
    -200001    1    1    2    0    0  0.23512246461E+02  0.42303394531E+03 -0.55569356454E+03  0.92955628247E+03  0.61300000000E+03 0. -1.
<mgrwt>
<rscale>  0 0.16607035E+04</rscale>
<asrwt>0</asrwt>
<pdfrwt beam="1">  1        2 0.37973615E+00 0.16607035E+04</pdfrwt>
<pdfrwt beam="2">  1       -2 0.37054944E-01 0.16607035E+04</pdfrwt>
<totfact> 0.23875854E+01</totfact>
</mgrwt>
</event>
<event>
 8    1  0.7326756E-052  0.1427242E+04  0.7818608E-02  0.8934332E-01
          2   -1    0    0  501    0  0.00000000000E+00  0.00000000000E+00  0.21897923932E+04  0.21897923932E+04  0.25500000000E-02 0.  1.
         -2   -1    0    0    0  501 -0.00000000000E+00 -0.00000000000E+00 -0.23255860950E+03  0.23255860952E+03  0.25500000000E-02 0. -1.
     200001    2    1    2    0    0  0.16263567792E+03  0.31406895548E+03  0.82888772996E+03  0.10904262715E+04  0.61390953101E+03 0.  0.
    5000001    2    3    3    0    0 -0.56976273404E+02  0.17695566683E+03  0.78058093598E+03  0.80835534176E+03  0.97837401752E+02 0.  0.
        -11    1    4    4    0    0 -0.59396774937E+02  0.14504260426E+03  0.69174669676E+03  0.70928049910E+03  0.51100000000E-03 0. -1.
     200002    1    4    4    0    0  0.24205015331E+01  0.31913062576E+02  0.88834239217E+02  0.99074842659E+02  0.30000000000E+02 0.  1.
     200000    1    3    3    0    0  0.21961195132E+03  0.13711328865E+03  0.48306793987E+02  0.28207092979E+03  0.10100000000E+03 0. -1.
    -200001    1    1    2    0    0 -0.16263567792E+03 -0.31406895548E+03  0.11283460537E+04  0.13319247312E+04  0.61300000000E+03 0.  1.
<mgrwt>
<rscale>  0 0.14272422E+04</rscale>
<asrwt>0</asrwt>
<pdfrwt beam="1">  1        2 0.31282748E+00 0.14272422E+04</pdfrwt>
<pdfrwt beam="2">  1       -2 0.33222659E-01 0.14272422E+04</pdfrwt>
<totfact> 0.52707828E+01</totfact>
</mgrwt>
</event>
<event>
 8    1  0.7326756E-052  0.1280411E+04  0.7818608E-02  0.9045245E-01
          2   -1    0    0  501    0  0.00000000000E+00  0.00000000000E+00  0.28373386487E+04  0.28373386487E+04  0.25500000000E-02 0.  1.
         -2   -1    0    0    0  501 -0.00000000000E+00 -0.00000000000E+00 -0.14445333836E+03  0.14445333838E+03  0.25500000000E-02 0. -1.
     200001    2    1    2    0    0 -0.69054852362E+02  0.15855528414E+03  0.15092319665E+04  0.16376518943E+04  0.61173053489E+03 0.  0.
    5000001    2    3    3    0    0 -0.29295773632E+03  0.31514658608E+02  0.44894452959E+03  0.54189541089E+03  0.72677621872E+02 0.  0.
        -11    1    4    4    0    0 -0.99704954611E+02  0.28637975933E+02  0.20004339422E+03  0.22534101094E+03  0.51100000000E-03 0. -1.
     200002    1    4    4    0    0 -0.19325278171E+03  0.28766826744E+01  0.24890113536E+03  0.31655439995E+03  0.30000000000E+02 0. -1.
     200000    1    3    3    0    0  0.22390288396E+03  0.12704062553E+03  0.10602874369E+04  0.10957564834E+04  0.10100000000E+03 0.  1.
    -200001    1    1    2    0    0  0.69054852362E+02 -0.15855528414E+03  0.11836533439E+04  0.13441400929E+04  0.61300000000E+03 0. -1.
<mgrwt>
<rscale>  0 0.12804109E+04</rscale>
<asrwt>0</asrwt>
<pdfrwt beam="1">  1        2 0.40533407E+00 0.12804109E+04</pdfrwt>
<pdfrwt beam="2">  1       -2 0.20636192E-01 0.12804109E+04</pdfrwt>
<totfact> 0.58067465E+01</totfact>
</mgrwt>
</event>
<event>
 8    1  0.7326756E-052  0.1493198E+04  0.7818608E-02  0.8888989E-01
          2   -1    0    0  501    0  0.00000000000E+00  0.00000000000E+00  0.62354763615E+03  0.62354763616E+03  0.25500000000E-02 0.  1.
         -2   -1    0    0    0  501 -0.00000000000E+00 -0.00000000000E+00 -0.89393284398E+03  0.89393284399E+03  0.25500000000E-02 0. -1.
     200001    2    1    2    0    0  0.35577968603E+03  0.16374295771E+03 -0.31087330380E+03  0.78892078657E+03  0.61021541711E+03 0.  0.
    5000001    2    3    3    0    0  0.22214691537E+03  0.36417776172E+03 -0.78887000794E+02  0.43956355846E+03  0.70839740887E+02 0.  0.
        -11    1    4    4    0    0  0.17137966623E+03  0.29038077846E+03 -0.50614780039E+02  0.34096017722E+03  0.51100000000E-03 0. -1.
     200002    1    4    4    0    0  0.50767249141E+02  0.73796983264E+02 -0.28272220755E+02  0.98603381233E+02  0.30000000000E+02 0.  1.
     200000    1    3    3    0    0  0.13363277066E+03 -0.20043480401E+03 -0.23198630300E+03  0.34935722811E+03  0.10100000000E+03 0. -1.
    -200001    1    1    2    0    0 -0.35577968603E+03 -0.16374295771E+03  0.40488095969E+02  0.72855969358E+03  0.61300000000E+03 0.  1.
<mgrwt>
<rscale>  0 0.14931975E+04</rscale>
<asrwt>0</asrwt>
<pdfrwt beam="1">  1        2 0.89078234E-01 0.14931975E+04</pdfrwt>
<pdfrwt beam="2">  1       -2 0.12770469E+00 0.14931975E+04</pdfrwt>
<totfact> 0.22798485E+01</totfact>
</mgrwt>
</event>
<event>
 8    1  0.7326756E-052  0.1545774E+04  0.7818608E-02  0.8854572E-01
          2   -1    0    0  501    0  0.00000000000E+00  0.00000000000E+00  0.42611392906E+04  0.42611392906E+04  0.25500000000E-02 0.  1.
         -2   -1    0    0    0  501 -0.00000000000E+00 -0.00000000000E+00 -0.14018649662E+03  0.14018649664E+03  0.25500000000E-02 0. -1.
     200001    2    1    2    0    0  0.24197281941E+03  0.40372438115E+03  0.20576558365E+04  0.21980310825E+04  0.61306514892E+03 0.  0.
    5000001    2    3    3    0    0  0.25855395639E+03  0.14404402135E+03  0.17651325255E+04  0.17937048394E+04  0.11868188514E+03 0.  0.
        -11    1    4    4    0    0  0.77662226413E+02  0.12863590471E+02  0.25616785325E+03  0.26799041477E+03  0.51100000000E-03 0. -1.
     200002    1    4    4    0    0  0.18089172998E+03  0.13118043088E+03  0.15089646723E+04  0.15257144247E+04  0.30000000000E+02 0. -1.
     200000    1    3    3    0    0 -0.16581136981E+02  0.25968035980E+03  0.29252331101E+03  0.40432624309E+03  0.10100000000E+03 0. -1.
    -200001    1    1    2    0    0 -0.24197281941E+03 -0.40372438115E+03  0.20632969575E+04  0.22032947047E+04  0.61300000000E+03 0. -1.
<mgrwt>
<rscale>  0 0.15457738E+04</rscale>
<asrwt>0</asrwt>
<pdfrwt beam="1">  1        2 0.60873426E+00 0.15457738E+04</pdfrwt>
<pdfrwt beam="2">  1       -2 0.20026640E-01 0.15457738E+04</pdfrwt>
<totfact> 0.77857206E+00</totfact>
</mgrwt>
</event>
<event>
 8    1  0.7326756E-052  0.1658419E+04  0.7818608E-02  0.8785441E-01
          2   -1    0    0  501    0  0.00000000000E+00  0.00000000000E+00  0.13275208220E+04  0.13275208220E+04  0.25500000000E-02 0.  1.
         -2   -1    0    0    0  501 -0.00000000000E+00 -0.00000000000E+00 -0.51794941395E+03  0.51794941395E+03  0.25500000000E-02 0. -1.
     200001    2    1    2    0    0 -0.83347452323E+02 -0.21563140579E+03  0.97013355926E+03  0.11709386167E+04  0.61359141153E+03 0.  0.
    5000001    2    3    3    0    0 -0.25680338485E+03  0.19307642678E+02  0.72232265844E+03  0.77483943772E+03  0.11092956238E+03 0.  0.
        -11    1    4    4    0    0 -0.15782353254E+03 -0.16675969916E+02  0.53302392106E+03  0.55614823188E+03  0.51100000000E-03 0. -1.
     200002    1    4    4    0    0 -0.98979852311E+02  0.35983612594E+02  0.18929873738E+03  0.21869120585E+03  0.30000000000E+02 0. -1.
     200000    1    3    3    0    0  0.17345593253E+03 -0.23493904847E+03  0.24781090081E+03  0.39609917898E+03  0.10100000000E+03 0. -1.
    -200001    1    1    2    0    0  0.83347452323E+02  0.21563140579E+03 -0.16056215121E+03  0.67453161925E+03  0.61300000000E+03 0. -1.
<mgrwt>
<rscale>  0 0.16584193E+04</rscale>
<asrwt>0</asrwt>
<pdfrwt beam="1">  1        2 0.18964583E+00 0.16584193E+04</pdfrwt>
<pdfrwt beam="2">  1       -2 0.73992774E-01 0.16584193E+04</pdfrwt>
<totfact> 0.28542858E+01</totfact>
</mgrwt>
</event>
<event>
 8    1  0.7326756E-052  0.1480377E+04  0.7818608E-02  0.8897608E-01
         -2   -1    0    0    0  501 -0.00000000000E+00  0.00000000000E+00  0.35837142218E+03  0.35837142219E+03  0.25500000000E-02 0. -1.
          2   -1    0    0  501    0  0.00000000000E+00 -0.00000000000E+00 -0.15288017436E+04  0.15288017436E+04  0.25500000000E-02 0.  1.
     200001    2    1    2    0    0  0.21144308882E+02 -0.43794237146E+02 -0.11104486237E+04  0.12693286699E+04  0.61297154046E+03 0.  0.
    5000001    2    3    3    0    0 -0.13990265763E+03 -0.12118375559E+03 -0.81158136140E+02  0.21977392111E+03  0.86346262825E+02 0.  0.
        -11    1    4    4    0    0 -0.61782170929E+02 -0.42304729491E+02  0.65230546752E+01  0.75161672577E+02  0.51100000000E-03 0. -1.
     200002    1    4    4    0    0 -0.78120486705E+02 -0.78879026103E+02 -0.87681190815E+02  0.14461224853E+03  0.30000000000E+02 0. -1.
     200000    1    3    3    0    0  0.16104696652E+03  0.77389518448E+02 -0.10292904876E+04  0.10495547488E+04  0.10100000000E+03 0.  1.
    -200001    1    1    2    0    0 -0.21144308882E+02  0.43794237146E+02 -0.59981697712E+02  0.61784449586E+03  0.61300000000E+03 0. -1.
<mgrwt>
<rscale>  0 0.14803768E+04</rscale>
<asrwt>0</asrwt>
<pdfrwt beam="1">  1        2 0.21840025E+00 0.14803768E+04</pdfrwt>
<pdfrwt beam="2">  1       -2 0.51195918E-01 0.14803768E+04</pdfrwt>
<totfact> 0.49289189E+01</totfact>
</mgrwt>
</event>
<event>
 8    1  0.7326756E-052  0.1900337E+04  0.7818608E-02  0.8654689E-01
         -2   -1    0    0    0  501 -0.00000000000E+00  0.00000000000E+00  0.23057963014E+03  0.23057963015E+03  0.25500000000E-02 0.  1.
          2   -1    0    0  501    0  0.00000000000E+00 -0.00000000000E+00 -0.39154383379E+04  0.39154383379E+04  0.25500000000E-02 0. -1.
     200001    2    1    2    0    0  0.45780793354E+03 -0.42201904007E+03 -0.10326772247E+04  0.13536133066E+04  0.61494598072E+03 0.  0.
    5000001    2    3    3    0    0  0.57583474659E+03 -0.30198616353E+03 -0.71240753571E+03  0.97796467592E+03  0.16158314288E+03 0.  0.
        -11    1    4    4    0    0 -0.98298889382E+01 -0.21076239351E+01 -0.19608289056E+02  0.22035285229E+02  0.51100000000E-03 0. -1.
     200002    1    4    4    0    0  0.58566463553E+03 -0.29987853959E+03 -0.69279924666E+03  0.95592939069E+03  0.30000000000E+02 0. -1.
     200000    1    3    3    0    0 -0.11802681306E+03 -0.12003287654E+03 -0.32026968894E+03  0.37564863064E+03  0.10100000000E+03 0.  1.
    -200001    1    1    2    0    0 -0.45780793354E+03  0.42201904007E+03 -0.26521814832E+04  0.27924046615E+04  0.61300000000E+03 0.  1.
<mgrwt>
<rscale>  0 0.19003372E+04</rscale>
<asrwt>0</asrwt>
<pdfrwt beam="1">  1        2 0.55934829E+00 0.19003372E+04</pdfrwt>
<pdfrwt beam="2">  1       -2 0.32939950E-01 0.19003372E+04</pdfrwt>
<totfact> 0.52941885E+00</totfact>
</mgrwt>
</event>
<event>
 8    1  0.7326756E-052  0.1482850E+04  0.7818608E-02  0.8895938E-01
         -2   -1    0    0    0  501 -0.00000000000E+00  0.00000000000E+00  0.75557517696E+03  0.75557517696E+03  0.25500000000E-02 0. -1.
          2   -1    0    0  501    0  0.00000000000E+00 -0.00000000000E+00 -0.72754012112E+03  0.72754012112E+03  0.25500000000E-02 0.  1.
     200001    2    1    2    0    0  0.55010895266E+02  0.14630935603E+03 -0.37334531931E+03  0.73391049844E+03  0.61221341540E+03 0.  0.
    5000001    2    3    3    0    0 -0.64482085882E+01  0.59393844880E+02 -0.49950892770E+03  0.54039103273E+03  0.19734257320E+03 0.  0.
        -11    1    4    4    0    0 -0.59638099694E+02  0.29033095356E+02 -0.43524155555E+02  0.79334580594E+02  0.51100000000E-03 0. -1.
     200002    1    4    4    0    0  0.53189891105E+02  0.30360749525E+02 -0.45598477215E+03  0.46105645214E+03  0.30000000000E+02 0. -1.
     200000    1    3    3    0    0  0.61459103854E+02  0.86915511154E+02  0.12616360839E+03  0.19351946571E+03  0.10100000000E+03 0. -1.
    -200001    1    1    2    0    0 -0.55010895266E+02 -0.14630935603E+03  0.40138037515E+03  0.74920479965E+03  0.61300000000E+03 0. -1.
<mgrwt>
<rscale>  0 0.14828503E+04</rscale>
<asrwt>0</asrwt>
<pdfrwt beam="1">  1        2 0.10393430E+00 0.14828503E+04</pdfrwt>
<pdfrwt beam="2">  1       -2 0.10793931E+00 0.14828503E+04</pdfrwt>
<totfact> 0.28600511E+01</totfact>
</mgrwt>
</event>
<event>
 8    1  0.7326756E-052  0.1715460E+04  0.7818608E-02  0.8752595E-01
         -2   -1    0    0    0  501 -0.00000000000E+00  0.00000000000E+00  0.54559161295E+03  0.54559161295E+03  0.25500000000E-02 0. -1.
          2   -1    0    0  501    0  0.00000000000E+00 -0.00000000000E+00 -0.13484466318E+04  0.13484466318E+04  0.25500000000E-02 0.  1.
     200001    2    1    2    0    0 -0.31835011731E+01  0.13440591931E+02  0.26096500399E+03  0.66616495113E+03  0.61276604395E+03 0.  0.
    5000001    2    3    3    0    0 -0.23119094403E+03 -0.88366562115E+02 -0.36210842915E+02  0.26508319563E+03  0.87749493213E+02 0.  0.
        -11    1    4    4    0    0 -0.15706320489E+03 -0.37668011370E+02 -0.50718944355E+02  0.16929306167E+03  0.51100000000E-03 0. -1.
     200002    1    4    4    0    0 -0.74127739137E+02 -0.50698550745E+02  0.14508101441E+02  0.95790133963E+02  0.30000000000E+02 0. -1.
     200000    1    3    3    0    0  0.22800744286E+03  0.10180715405E+03  0.29717584691E+03  0.40108175550E+03  0.10100000000E+03 0. -1.
    -200001    1    1    2    0    0  0.31835011731E+01 -0.13440591931E+02 -0.10638200229E+04  0.12278732936E+04  0.61300000000E+03 0.  1.
<mgrwt>
<rscale>  0 0.17154605E+04</rscale>
<asrwt>0</asrwt>
<pdfrwt beam="1">  1        2 0.19263523E+00 0.17154605E+04</pdfrwt>
<pdfrwt beam="2">  1       -2 0.77941660E-01 0.17154605E+04</pdfrwt>
<totfact> 0.24656238E+01</totfact>
</mgrwt>
</event>
<event>
 8    1  0.7326756E-052  0.1407761E+04  0.7818608E-02  0.8948220E-01
         -2   -1    0    0    0  501 -0.00000000000E+00  0.00000000000E+00  0.62319024622E+03  0.62319024623E+03  0.25500000000E-02 0. -1.
          2   -1    0    0  501    0  0.00000000000E+00 -0.00000000000E+00 -0.79501862150E+03  0.79501862150E+03  0.25500000000E-02 0.  1.
     200001    2    1    2    0    0  0.14018627546E+03 -0.29988708577E+03  0.14637003834E+02  0.69701347559E+03  0.61321210623E+03 0.  0.
    5000001    2    3    3    0    0 -0.89639201954E+02 -0.36064960883E+03  0.14936042997E+03  0.40570052390E+03  0.64661040639E+02 0.  0.
        -11    1    4    4    0    0 -0.75466557839E+02 -0.21974863668E+03  0.87356781406E+02  0.24822544578E+03  0.51100000000E-03 0. -1.
     200002    1    4    4    0    0 -0.14172644115E+02 -0.14090097214E+03  0.62003648560E+02  0.15747507811E+03  0.30000000000E+02 0.  1.
     200000    1    3    3    0    0  0.22982547741E+03  0.60762523055E+02 -0.13472342613E+03  0.29131295169E+03  0.10100000000E+03 0.  1.
    -200001    1    1    2    0    0 -0.14018627546E+03  0.29988708577E+03 -0.18646537911E+03  0.72119539214E+03  0.61300000000E+03 0.  1.
<mgrwt>
<rscale>  0 0.14077611E+04</rscale>
<asrwt>0</asrwt>
<pdfrwt beam="1">  1        2 0.11357409E+00 0.14077611E+04</pdfrwt>
<pdfrwt beam="2">  1       -2 0.89027179E-01 0.14077611E+04</pdfrwt>
<totfact> 0.40470259E+01</totfact>
</mgrwt>
</event>
<event>
 8    1  0.7326756E-052  0.1464469E+04  0.7818608E-02  0.8908431E-01
         -2   -1    0    0    0  501 -0.00000000000E+00  0.00000000000E+00  0.27760576975E+03  0.27760576976E+03  0.25500000000E-02 0. -1.
          2   -1    0    0  501    0  0.00000000000E+00 -0.00000000000E+00 -0.19313976726E+04  0.19313976726E+04  0.25500000000E-02 0.  1.
     200001    2    1    2    0    0 -0.21210863510E+03 -0.31123831033E+03 -0.63087672560E+03  0.95841005570E+03  0.61537389696E+03 0.  0.
    5000001    2    3    3    0    0 -0.20694110617E+03  0.83529512889E+02 -0.48635571194E+02  0.24772440121E+03  0.95917460480E+02 0.  0.
        -11    1    4    4    0    0 -0.18548528652E+02  0.36209490592E+02  0.11331297789E+02  0.42232374240E+02  0.51100000000E-03 0. -1.
     200002    1    4    4    0    0 -0.18839257752E+03  0.47320022297E+02 -0.59966868983E+02  0.20549202697E+03  0.30000000000E+02 0. -1.
     200000    1    3    3    0    0 -0.51675289318E+01 -0.39476782322E+03 -0.58224115441E+03  0.71068565449E+03  0.10100000000E+03 0.  1.
    -200001    1    1    2    0    0  0.21210863510E+03  0.31123831033E+03 -0.10229151772E+04  0.12505933866E+04  0.61300000000E+03 0.  1.
<mgrwt>
<rscale>  0 0.14644687E+04</rscale>
<asrwt>0</asrwt>
<pdfrwt beam="1">  1        2 0.27591395E+00 0.14644687E+04</pdfrwt>
<pdfrwt beam="2">  1       -2 0.39657968E-01 0.14644687E+04</pdfrwt>
<totfact> 0.50773966E+01</totfact>
</mgrwt>
</event>
<event>
 8    1  0.7326756E-052  0.1350440E+04  0.7818608E-02  0.8990495E-01
          2   -1    0    0  501    0  0.00000000000E+00  0.00000000000E+00  0.19311407628E+04  0.19311407628E+04  0.25500000000E-02 0.  1.
         -2   -1    0    0    0  501 -0.00000000000E+00 -0.00000000000E+00 -0.23608945840E+03  0.23608945841E+03  0.25500000000E-02 0. -1.
     200001    2    1    2    0    0  0.16282201227E+03 -0.16457391596E+03  0.61004544416E+03  0.89971205635E+03  0.61946005433E+03 0.  0.
    5000001    2    3    3    0    0 -0.16564750947E+03 -0.61943742232E+02  0.98422360332E+01  0.20051961481E+03  0.93995328163E+02 0.  0.
        -11    1    4    4    0    0 -0.48639444167E+01  0.48182797744E+01 -0.20195801822E+02  0.21324731810E+02  0.51100000000E-03 0. -1.
     200002    1    4    4    0    0 -0.16078356506E+03 -0.66762022006E+02  0.30038037855E+02  0.17919488300E+03  0.30000000000E+02 0. -1.
     200000    1    3    3    0    0  0.32846952174E+03 -0.10263017373E+03  0.60020320812E+03  0.69919244154E+03  0.10100000000E+03 0.  1.
    -200001    1    1    2    0    0 -0.16282201227E+03  0.16457391596E+03  0.10850058602E+04  0.12675181649E+04  0.61300000000E+03 0. -1.
<mgrwt>
<rscale>  0 0.13504399E+04</rscale>
<asrwt>0</asrwt>
<pdfrwt beam="1">  1        2 0.27587725E+00 0.13504399E+04</pdfrwt>
<pdfrwt beam="2">  1       -2 0.33727065E-01 0.13504399E+04</pdfrwt>
<totfact> 0.69971106E+01</totfact>
</mgrwt>
</event>
<event>
 8    1  0.7326756E-052  0.1384681E+04  0.7818608E-02  0.8964983E-01
         -2   -1    0    0    0  501 -0.00000000000E+00  0.00000000000E+00  0.83551555466E+03  0.83551555466E+03  0.25500000000E-02 0. -1.
          2   -1    0    0  501    0  0.00000000000E+00 -0.00000000000E+00 -0.57369980524E+03  0.57369980525E+03  0.25500000000E-02 0.  1.
     200001    2    1    2    0    0 -0.26830702409E+03 -0.17606629219E+03  0.15039260692E+03  0.70837863491E+03  0.61334684784E+03 0.  0.
    5000001    2    3    3    0    0  0.18341792063E+02 -0.31938571683E+03  0.17191861811E+03  0.37167049655E+03  0.78989172062E+02 0.  0.
        -11    1    4    4    0    0 -0.16785600805E+02 -0.89920787523E+02  0.75159760322E+02  0.11839127500E+03  0.51100000000E-03 0. -1.
     200002    1    4    4    0    0  0.35127392868E+02 -0.22946492930E+03  0.96758857784E+02  0.25327922155E+03  0.30000000000E+02 0. -1.
     200000    1    3    3    0    0 -0.28664881615E+03  0.14331942464E+03 -0.21526011186E+02  0.33670813836E+03  0.10100000000E+03 0.  1.
    -200001    1    1    2    0    0  0.26830702409E+03  0.17606629219E+03  0.11142314250E+03  0.70083672500E+03  0.61300000000E+03 0. -1.
<mgrwt>
<rscale>  0 0.13846806E+04</rscale>
<asrwt>0</asrwt>
<pdfrwt beam="1">  1        2 0.81957115E-01 0.13846806E+04</pdfrwt>
<pdfrwt beam="2">  1       -2 0.11935936E+00 0.13846806E+04</pdfrwt>
<totfact> 0.30045107E+01</totfact>
</mgrwt>
</event>
<event>
 8    1  0.7326756E-052  0.1523755E+04  0.7818608E-02  0.8868808E-01
          2   -1    0    0  501    0  0.00000000000E+00  0.00000000000E+00  0.22353191600E+04  0.22353191600E+04  0.25500000000E-02 0.  1.
         -2   -1    0    0    0  501 -0.00000000000E+00 -0.00000000000E+00 -0.25967552763E+03  0.25967552764E+03  0.25500000000E-02 0. -1.
     200001    2    1    2    0    0  0.70291881176E+02 -0.35682972556E+03  0.14284278232E+04  0.15963943630E+04  0.61302570469E+03 0.  0.
    5000001    2    3    3    0    0  0.30910938965E+03 -0.12854082583E+03  0.54220516611E+03  0.64521550391E+03  0.10121880089E+03 0.  0.
        -11    1    4    4    0    0  0.21975363843E+03 -0.13023234291E+03  0.39912307792E+03  0.47386850083E+03  0.51100000000E-03 0. -1.
     200002    1    4    4    0    0  0.89355751221E+02  0.16915170766E+01  0.14308208818E+03  0.17134700308E+03  0.30000000000E+02 0. -1.
     200000    1    3    3    0    0 -0.23881750848E+03 -0.22828889972E+03  0.88622265706E+03  0.95117885909E+03  0.10100000000E+03 0. -1.
    -200001    1    1    2    0    0 -0.70291881176E+02  0.35682972556E+03  0.54721580920E+03  0.89860032463E+03  0.61300000000E+03 0. -1.
<mgrwt>
<rscale>  0 0.15237555E+04</rscale>
<asrwt>0</asrwt>
<pdfrwt beam="1">  1        2 0.31933131E+00 0.15237555E+04</pdfrwt>
<pdfrwt beam="2">  1       -2 0.37096503E-01 0.15237555E+04</pdfrwt>
<totfact> 0.40133024E+01</totfact>
</mgrwt>
</event>
<event>
 8    1  0.7326756E-052  0.1570957E+04  0.7818608E-02  0.8838592E-01
         -2   -1    0    0    0  501 -0.00000000000E+00  0.00000000000E+00  0.31773757354E+03  0.31773757355E+03  0.25500000000E-02 0. -1.
          2   -1    0    0  501    0  0.00000000000E+00 -0.00000000000E+00 -0.19417797513E+04  0.19417797513E+04  0.25500000000E-02 0.  1.
     200001    2    1    2    0    0 -0.33911351205E+02 -0.29629646607E+03 -0.25100760909E+03  0.72656771632E+03  0.61315108336E+03 0.  0.
    5000001    2    3    3    0    0 -0.83574235472E+02 -0.14991469864E+03 -0.43117604569E+03  0.46858382253E+03  0.64799279733E+02 0.  0.
        -11    1    4    4    0    0 -0.44191004183E+02 -0.90603016367E+02 -0.18650067630E+03  0.21200059832E+03  0.51100000000E-03 0. -1.
     200002    1    4    4    0    0 -0.39383231289E+02 -0.59311682277E+02 -0.24467536939E+03  0.25658322421E+03  0.30000000000E+02 0. -1.
     200000    1    3    3    0    0  0.49662884267E+02 -0.14638176743E+03  0.18016843660E+03  0.25798389379E+03  0.10100000000E+03 0. -1.
    -200001    1    1    2    0    0  0.33911351205E+02  0.29629646607E+03 -0.13730345687E+04  0.15329496086E+04  0.61300000000E+03 0.  1.
<mgrwt>
<rscale>  0 0.15709569E+04</rscale>
<asrwt>0</asrwt>
<pdfrwt beam="1">  1        2 0.27739710E+00 0.15709569E+04</pdfrwt>
<pdfrwt beam="2">  1       -2 0.45391083E-01 0.15709569E+04</pdfrwt>
<totfact> 0.38093058E+01</totfact>
</mgrwt>
</event>
<event>
 8    1  0.7326756E-052  0.2210667E+04  0.7818608E-02  0.8514001E-01
          2   -1    0    0  501    0  0.00000000000E+00  0.00000000000E+00  0.27489128204E+04  0.27489128204E+04  0.25500000000E-02 0.  1.
         -2   -1    0    0    0  501 -0.00000000000E+00 -0.00000000000E+00 -0.44445297794E+03  0.44445297795E+03  0.25500000000E-02 0. -1.
     200001    2    1    2    0    0  0.27445714819E+03 -0.62933901540E+03  0.26741304251E+03  0.95803070318E+03  0.61230610843E+03 0.  0.
    5000001    2    3    3    0    0  0.18936821428E+03 -0.63296131273E+03  0.18917666246E+02  0.67659829613E+03  0.14466178565E+03 0.  0.
        -11    1    4    4    0    0  0.15485384230E+03 -0.56333392089E+03 -0.20177578788E+02  0.58457844092E+03  0.51100000000E-03 0. -1.
     200002    1    4    4    0    0  0.34514371989E+02 -0.69627391845E+02  0.39095245034E+02  0.92019855212E+02  0.30000000000E+02 0.  1.
     200000    1    3    3    0    0  0.85088933905E+02  0.36222973351E+01  0.24849537627E+03  0.28143240705E+03  0.10100000000E+03 0.  1.
    -200001    1    1    2    0    0 -0.27445714819E+03  0.62933901540E+03  0.20370467999E+04  0.22353350951E+04  0.61300000000E+03 0.  1.
<mgrwt>
<rscale>  0 0.22106673E+04</rscale>
<asrwt>0</asrwt>
<pdfrwt beam="1">  1        2 0.39270183E+00 0.22106673E+04</pdfrwt>
<pdfrwt beam="2">  1       -2 0.63493283E-01 0.22106673E+04</pdfrwt>
<totfact> 0.68318378E+00</totfact>
</mgrwt>
</event>
<event>
 8    1  0.7326756E-052  0.1248104E+04  0.7818608E-02  0.9071763E-01
         -2   -1    0    0    0  501 -0.00000000000E+00  0.00000000000E+00  0.37298978047E+03  0.37298978047E+03  0.25500000000E-02 0. -1.
          2   -1    0    0  501    0  0.00000000000E+00 -0.00000000000E+00 -0.10441053412E+04  0.10441053412E+04  0.25500000000E-02 0.  1.
     200001    2    1    2    0    0 -0.79780969805E+02  0.32088647597E+01 -0.43082385889E+03  0.75385730465E+03  0.61344627999E+03 0.  0.
    5000001    2    3    3    0    0 -0.11931847883E+03 -0.26604081646E+03 -0.25954181878E+03  0.41681555246E+03  0.14614593275E+03 0.  0.
        -11    1    4    4    0    0 -0.58192983990E+02 -0.23650433113E+03 -0.23551185883E+03  0.33880164946E+03  0.51100000000E-03 0. -1.
     200002    1    4    4    0    0 -0.61125494842E+02 -0.29536485336E+02 -0.24029959950E+02  0.78013902997E+02  0.30000000000E+02 0. -1.
     200000    1    3    3    0    0  0.39537509027E+02  0.26924968122E+03 -0.17128204011E+03  0.33704175220E+03  0.10100000000E+03 0.  1.
    -200001    1    1    2    0    0  0.79780969805E+02 -0.32088647597E+01 -0.24029170185E+03  0.66323781703E+03  0.61300000000E+03 0. -1.
<mgrwt>
<rscale>  0 0.12481036E+04</rscale>
<asrwt>0</asrwt>
<pdfrwt beam="1">  1        2 0.14915790E+00 0.12481036E+04</pdfrwt>
<pdfrwt beam="2">  1       -2 0.53284255E-01 0.12481036E+04</pdfrwt>
<totfact> 0.86226327E+01</totfact>
</mgrwt>
</event>
<event>
 8    1  0.7326756E-052  0.1343352E+04  0.7818608E-02  0.8995876E-01
          2   -1    0    0  501    0  0.00000000000E+00  0.00000000000E+00  0.10788105539E+04  0.10788105539E+04  0.25500000000E-02 0.  1.
         -2   -1    0    0    0  501 -0.00000000000E+00 -0.00000000000E+00 -0.41819091665E+03  0.41819091666E+03  0.25500000000E-02 0. -1.
     200001    2    1    2    0    0  0.10866085626E+03  0.22098721143E+03  0.18592570509E+03  0.68352383810E+03  0.60991305949E+03 0.  0.
    5000001    2    3    3    0    0 -0.17840510315E+03  0.34578073823E+02  0.25341450704E+03  0.32032833975E+03  0.73261919472E+02 0.  0.
        -11    1    4    4    0    0 -0.10164309055E+03  0.20926046411E+02  0.18595778721E+03  0.21295425776E+03  0.51100000000E-03 0. -1.
     200002    1    4    4    0    0 -0.76762012601E+02  0.13652027411E+02  0.67456719833E+02  0.10737408198E+03  0.30000000000E+02 0. -1.
     200000    1    3    3    0    0  0.28706595941E+03  0.18640913761E+03 -0.67488801951E+02  0.36319549835E+03  0.10100000000E+03 0. -1.
    -200001    1    1    2    0    0 -0.10866085626E+03 -0.22098721143E+03  0.47469393217E+03  0.81347763247E+03  0.61300000000E+03 0.  1.
<mgrwt>
<rscale>  0 0.13433522E+04</rscale>
<asrwt>0</asrwt>
<pdfrwt beam="1">  1        2 0.15411579E+00 0.13433522E+04</pdfrwt>
<pdfrwt beam="2">  1       -2 0.59741560E-01 0.13433522E+04</pdfrwt>
<totfact> 0.64308062E+01</totfact>
</mgrwt>
</event>
<event>
 8    1  0.7326756E-052  0.1694793E+04  0.7818608E-02  0.8764339E-01
         -2   -1    0    0    0  501 -0.00000000000E+00  0.00000000000E+00  0.24953145681E+03  0.24953145682E+03  0.25500000000E-02 0. -1.
          2   -1    0    0  501    0  0.00000000000E+00 -0.00000000000E+00 -0.28777182867E+04  0.28777182867E+04  0.25500000000E-02 0.  1.
     200001    2    1    2    0    0  0.95257403291E+02 -0.45467021202E+03 -0.65970892947E+03  0.10138465120E+04  0.61389730711E+03 0.  0.
    5000001    2    3    3    0    0  0.11345850628E+03 -0.23107016354E+02 -0.53001681250E+03  0.55167866671E+03  0.10012373804E+03 0.  0.
        -11    1    4    4    0    0  0.16500694550E+02  0.14257418184E+01 -0.28319979510E+03  0.28368367878E+03  0.51100000000E-03 0. -1.
     200002    1    4    4    0    0  0.96957811727E+02 -0.24532758172E+02 -0.24681701740E+03  0.26799498793E+03  0.30000000000E+02 0. -1.
     200000    1    3    3    0    0 -0.18201102986E+02 -0.43156319567E+03 -0.12969211696E+03  0.46216784528E+03  0.10100000000E+03 0. -1.
    -200001    1    1    2    0    0 -0.95257403291E+02  0.45467021202E+03 -0.19684779005E+04  0.21134032316E+04  0.61300000000E+03 0.  1.
<mgrwt>
<rscale>  0 0.16947935E+04</rscale>
<asrwt>0</asrwt>
<pdfrwt beam="1">  1        2 0.41110259E+00 0.16947935E+04</pdfrwt>
<pdfrwt beam="2">  1       -2 0.35647353E-01 0.16947935E+04</pdfrwt>
<totfact> 0.19510319E+01</totfact>
</mgrwt>
</event>
<event>
 8    1  0.7326756E-052  0.1369965E+04  0.7818608E-02  0.8975851E-01
          2   -1    0    0  501    0  0.00000000000E+00  0.00000000000E+00  0.15213490281E+04  0.15213490281E+04  0.25500000000E-02 0.  1.
         -2   -1    0    0    0  501 -0.00000000000E+00 -0.00000000000E+00 -0.30841133064E+03  0.30841133065E+03  0.25500000000E-02 0. -1.
     200001    2    1    2    0    0 -0.22638074791E+03 -0.20780542822E+03  0.60105951106E+03  0.91074172237E+03  0.61134819048E+03 0.  0.
    5000001    2    3    3    0    0  0.11972007259E+03 -0.24877861500E+03  0.12691111916E+03  0.31368035406E+03  0.77879633374E+02 0.  0.
        -11    1    4    4    0    0  0.22530978520E+02 -0.99885242989E+02  0.20895549531E+02  0.10450517093E+03  0.51100000000E-03 0. -1.
     200002    1    4    4    0    0  0.97189094068E+02 -0.14889337201E+03  0.10601556963E+03  0.20917518313E+03  0.30000000000E+02 0. -1.
     200000    1    3    3    0    0 -0.34610082049E+03  0.40973186775E+02  0.47414839191E+03  0.59706136831E+03  0.10100000000E+03 0. -1.
    -200001    1    1    2    0    0  0.22638074791E+03  0.20780542822E+03  0.61187818640E+03  0.91901863638E+03  0.61300000000E+03 0. -1.
<mgrwt>
<rscale>  0 0.13699654E+04</rscale>
<asrwt>0</asrwt>
<pdfrwt beam="1">  1        2 0.21733558E+00 0.13699654E+04</pdfrwt>
<pdfrwt beam="2">  1       -2 0.44058761E-01 0.13699654E+04</pdfrwt>
<totfact> 0.67889237E+01</totfact>
</mgrwt>
</event>
<event>
 8    1  0.7326756E-052  0.1351993E+04  0.7818608E-02  0.8989321E-01
         -2   -1    0    0    0  501 -0.00000000000E+00  0.00000000000E+00  0.24608729452E+03  0.24608729453E+03  0.25500000000E-02 0. -1.
          2   -1    0    0  501    0  0.00000000000E+00 -0.00000000000E+00 -0.18569469285E+04  0.18569469285E+04  0.25500000000E-02 0.  1.
     200001    2    1    2    0    0 -0.16707131814E+03 -0.10520480068E+03 -0.11251361755E+04  0.12963886047E+04  0.61295279233E+03 0.  0.
    5000001    2    3    3    0    0 -0.80350980927E+02 -0.30056966084E+03 -0.95067421859E+03  0.10025760456E+04  0.67667246520E+02 0.  0.
        -11    1    4    4    0    0 -0.58401861130E+02 -0.13559612287E+03 -0.39259609499E+03  0.41943864834E+03  0.51100000000E-03 0. -1.
     200002    1    4    4    0    0 -0.21949119797E+02 -0.16497353796E+03 -0.55807812360E+03  0.58313739730E+03  0.30000000000E+02 0.  1.
     200000    1    3    3    0    0 -0.86720337216E+02  0.19536486016E+03 -0.17446195692E+03  0.29381255910E+03  0.10100000000E+03 0.  1.
    -200001    1    1    2    0    0  0.16707131814E+03  0.10520480068E+03 -0.48572345851E+03  0.80664561834E+03  0.61300000000E+03 0. -1.
<mgrwt>
<rscale>  0 0.13519927E+04</rscale>
<asrwt>0</asrwt>
<pdfrwt beam="1">  1        2 0.26527812E+00 0.13519927E+04</pdfrwt>
<pdfrwt beam="2">  1       -2 0.35155329E-01 0.13519927E+04</pdfrwt>
<totfact> 0.70583168E+01</totfact>
</mgrwt>
</event>
<event>
 8    1  0.7326756E-052  0.1457724E+04  0.7818608E-02  0.8913063E-01
          2   -1    0    0  501    0  0.00000000000E+00  0.00000000000E+00  0.95705412969E+03  0.95705412969E+03  0.25500000000E-02 0.  1.
         -2   -1    0    0    0  501 -0.00000000000E+00 -0.00000000000E+00 -0.55507806815E+03  0.55507806815E+03  0.25500000000E-02 0. -1.
     200001    2    1    2    0    0 -0.11467117563E+03  0.30217734041E+02  0.59185558954E+03  0.85953291412E+03  0.61191600863E+03 0.  0.
    5000001    2    3    3    0    0 -0.32675543126E+02 -0.27117713319E+03  0.30207260908E+03  0.42165470559E+03  0.10927076874E+03 0.  0.
        -11    1    4    4    0    0 -0.19632771242E+01 -0.19498286681E+02  0.82853308043E+02  0.85139346336E+02  0.51100000000E-03 0. -1.
     200002    1    4    4    0    0 -0.30712266002E+02 -0.25167884651E+03  0.21921930104E+03  0.33651535925E+03  0.30000000000E+02 0. -1.
     200000    1    3    3    0    0 -0.81995632508E+02  0.30139486723E+03  0.28978298046E+03  0.43787820853E+03  0.10100000000E+03 0.  1.
    -200001    1    1    2    0    0  0.11467117563E+03 -0.30217734041E+02 -0.18987952800E+03  0.65259928373E+03  0.61300000000E+03 0. -1.
<mgrwt>
<rscale>  0 0.14577239E+04</rscale>
<asrwt>0</asrwt>
<pdfrwt beam="1">  1        2 0.13672202E+00 0.14577239E+04</pdfrwt>
<pdfrwt beam="2">  1       -2 0.79296867E-01 0.14577239E+04</pdfrwt>
<totfact> 0.40913817E+01</totfact>
</mgrwt>
</event>
<event>
 8    1  0.7326756E-052  0.1294836E+04  0.7818608E-02  0.9033671E-01
          2   -1    0    0  501    0  0.00000000000E+00  0.00000000000E+00  0.10954523109E+04  0.10954523109E+04  0.25500000000E-02 0.  1.
         -2   -1    0    0    0  501 -0.00000000000E+00 -0.00000000000E+00 -0.38262723745E+03  0.38262723746E+03  0.25500000000E-02 0. -1.
     200001    2    1    2    0    0  0.26298058883E+02 -0.30649114567E+02  0.58744420062E+03  0.85108647072E+03  0.61451325102E+03 0.  0.
    5000001    2    3    3    0    0  0.24135929002E+03 -0.11905637759E+03  0.86037761316E+02  0.28923542759E+03  0.61853926914E+02 0.  0.
        -11    1    4    4    0    0  0.16385583887E+03 -0.79162043072E+02  0.73252965277E+02  0.19616666872E+03  0.51100000000E-03 0. -1.
     200002    1    4    4    0    0  0.77503451150E+02 -0.39894334518E+02  0.12784796039E+02  0.93068758865E+02  0.30000000000E+02 0.  1.
     200000    1    3    3    0    0 -0.21506123114E+03  0.88407263024E+02  0.50140643931E+03  0.56185104314E+03  0.10100000000E+03 0.  1.
    -200001    1    1    2    0    0 -0.26298058883E+02  0.30649114567E+02  0.12538087282E+03  0.62699307763E+03  0.61300000000E+03 0. -1.
<mgrwt>
<rscale>  0 0.12948357E+04</rscale>
<asrwt>0</asrwt>
<pdfrwt beam="1">  1        2 0.15649319E+00 0.12948357E+04</pdfrwt>
<pdfrwt beam="2">  1       -2 0.54661033E-01 0.12948357E+04</pdfrwt>
<totfact> 0.75960718E+01</totfact>
</mgrwt>
</event>
<event>
 8    1  0.7326756E-052  0.1531599E+04  0.7818608E-02  0.8863708E-01
         -2   -1    0    0    0  501 -0.00000000000E+00  0.00000000000E+00  0.12951581940E+04  0.12951581940E+04  0.25500000000E-02 0. -1.
          2   -1    0    0  501    0  0.00000000000E+00 -0.00000000000E+00 -0.45280107459E+03  0.45280107460E+03  0.25500000000E-02 0.  1.
     200001    2    1    2    0    0  0.29240428443E+03 -0.10591611759E+03  0.36951313945E+02  0.68910800378E+03  0.61382892710E+03 0.  0.
    5000001    2    3    3    0    0  0.34952331387E+03 -0.22373378698E+03  0.18998300375E+03  0.46380091372E+03  0.82428098866E+02 0.  0.
        -11    1    4    4    0    0  0.28104251499E+03 -0.19537052938E+03  0.14214606640E+03  0.37062115857E+03  0.51100000000E-03 0. -1.
     200002    1    4    4    0    0  0.68480798878E+02 -0.28363257602E+02  0.47836937342E+02  0.93179755157E+02  0.30000000000E+02 0.  1.
     200000    1    3    3    0    0 -0.57119029437E+02  0.11781766939E+03 -0.15303168980E+03  0.22530709005E+03  0.10100000000E+03 0.  1.
    -200001    1    1    2    0    0 -0.29240428443E+03  0.10591611759E+03  0.80540580543E+03  0.10588512648E+04  0.61300000000E+03 0. -1.
<mgrwt>
<rscale>  0 0.15315992E+04</rscale>
<asrwt>0</asrwt>
<pdfrwt beam="1">  1        2 0.64685869E-01 0.15315992E+04</pdfrwt>
<pdfrwt beam="2">  1       -2 0.18502260E+00 0.15315992E+04</pdfrwt>
<totfact> 0.12152028E+01</totfact>
</mgrwt>
</event>
<event>
 8    1  0.7326756E-052  0.1789296E+04  0.7818608E-02  0.8712013E-01
          2   -1    0    0  501    0  0.00000000000E+00  0.00000000000E+00  0.75652228521E+03  0.75652228521E+03  0.25500000000E-02 0.  1.
         -2   -1    0    0    0  501 -0.00000000000E+00 -0.00000000000E+00 -0.10579923960E+04  0.10579923960E+04  0.25500000000E-02 0. -1.
     200001    2    1    2    0    0  0.69970949062E+02  0.39500443003E+03  0.37037491387E+03  0.82049799594E+03  0.61246628565E+03 0.  0.
    5000001    2    3    3    0    0 -0.19662465626E+03  0.18361670775E+03 -0.30152403010E+02  0.28535211165E+03  0.90223663191E+02 0.  0.
        -11    1    4    4    0    0 -0.62376155210E+02  0.11844087222E+02 -0.23059233705E+01  0.63532546177E+02  0.51100000000E-03 0. -1.
     200002    1    4    4    0    0 -0.13424850105E+03  0.17177262052E+03 -0.27846479640E+02  0.22181956547E+03  0.30000000000E+02 0. -1.
     200000    1    3    3    0    0  0.26659560533E+03  0.21138772228E+03  0.40052731688E+03  0.53514588429E+03  0.10100000000E+03 0. -1.
    -200001    1    1    2    0    0 -0.69970949062E+02 -0.39500443003E+03 -0.67184502465E+03  0.99401668527E+03  0.61300000000E+03 0. -1.
<mgrwt>
<rscale>  0 0.17892958E+04</rscale>
<asrwt>0</asrwt>
<pdfrwt beam="1">  1        2 0.10807461E+00 0.17892958E+04</pdfrwt>
<pdfrwt beam="2">  1       -2 0.15114177E+00 0.17892958E+04</pdfrwt>
<totfact> 0.11358979E+01</totfact>
</mgrwt>
</event>
<event>
 8    1  0.7326756E-052  0.1679642E+04  0.7818608E-02  0.8773061E-01
         -2   -1    0    0    0  501 -0.00000000000E+00  0.00000000000E+00  0.87619637212E+03  0.87619637212E+03  0.25500000000E-02 0. -1.
          2   -1    0    0  501    0  0.00000000000E+00 -0.00000000000E+00 -0.80495577050E+03  0.80495577050E+03  0.25500000000E-02 0.  1.
     200001    2    1    2    0    0 -0.42923379268E+02  0.53821655200E+03 -0.16008071410E+03  0.83215389502E+03  0.61264573502E+03 0.  0.
    5000001    2    3    3    0    0  0.24923798010E+03  0.17207137047E+03 -0.42410380123E+02  0.33872926921E+03  0.14563910948E+03 0.  0.
        -11    1    4    4    0    0  0.22903171549E+03  0.15745794261E+03 -0.75021378469E+02  0.28788320134E+03  0.51100000000E-03 0. -1.
     200002    1    4    4    0    0  0.20206264617E+02  0.14613427868E+02  0.32610998346E+02  0.50846067861E+02  0.30000000000E+02 0. -1.
     200000    1    3    3    0    0 -0.29216135937E+03  0.36614518152E+03 -0.11767033398E+03  0.49342462582E+03  0.10100000000E+03 0. -1.
    -200001    1    1    2    0    0  0.42923379268E+02 -0.53821655200E+03  0.23132131573E+03  0.84899824761E+03  0.61300000000E+03 0.  1.
<mgrwt>
<rscale>  0 0.16796420E+04</rscale>
<asrwt>0</asrwt>
<pdfrwt beam="1">  1        2 0.11499368E+00 0.16796420E+04</pdfrwt>
<pdfrwt beam="2">  1       -2 0.12517091E+00 0.16796420E+04</pdfrwt>
<totfact> 0.17216506E+01</totfact>
</mgrwt>
</event>
<event>
 8    1  0.7326756E-052  0.1727589E+04  0.7818608E-02  0.8745784E-01
          2   -1    0    0  501    0  0.00000000000E+00  0.00000000000E+00  0.44285218003E+04  0.44285218003E+04  0.25500000000E-02 0.  1.
         -2   -1    0    0    0  501 -0.00000000000E+00 -0.00000000000E+00 -0.16848524027E+03  0.16848524029E+03  0.25500000000E-02 0. -1.
     200001    2    1    2    0    0  0.27870364793E+03  0.39013233606E+03  0.11328101044E+04  0.13744004453E+04  0.61305700266E+03 0.  0.
    5000001    2    3    3    0    0  0.41337529684E+03  0.37213768512E+03  0.92069484373E+03  0.11030074751E+04  0.24409199528E+03 0.  0.
        -11    1    4    4    0    0  0.34878409592E+03  0.39718285760E+03  0.84026032345E+03  0.99269430294E+03  0.51100000000E-03 0. -1.
     200002    1    4    4    0    0  0.64591200918E+02 -0.25045172481E+02  0.80434520284E+02  0.11031317217E+03  0.30000000000E+02 0. -1.
     200000    1    3    3    0    0 -0.13467164890E+03  0.17994650940E+02  0.21211526068E+03  0.27139297024E+03  0.10100000000E+03 0. -1.
    -200001    1    1    2    0    0 -0.27870364793E+03 -0.39013233606E+03  0.31272264556E+04  0.32226065952E+04  0.61300000000E+03 0.  1.
<mgrwt>
<rscale>  0 0.17275886E+04</rscale>
<asrwt>0</asrwt>
<pdfrwt beam="1">  1        2 0.63264608E+00 0.17275886E+04</pdfrwt>
<pdfrwt beam="2">  1       -2 0.24069316E-01 0.17275886E+04</pdfrwt>
<totfact> 0.41147155E+00</totfact>
</mgrwt>
</event>
<event>
 8    1  0.7326756E-052  0.1274495E+04  0.7818608E-02  0.9050039E-01
         -2   -1    0    0    0  501 -0.00000000000E+00  0.00000000000E+00  0.97613722481E+02  0.97613722515E+02  0.25500000000E-02 0. -1.
          2   -1    0    0  501    0  0.00000000000E+00 -0.00000000000E+00 -0.41601183965E+04  0.41601183965E+04  0.25500000000E-02 0.  1.
     200001    2    1    2    0    0  0.24169580286E+02 -0.14682396775E+03 -0.17085103000E+04  0.18206847335E+04  0.61134606209E+03 0.  0.
    5000001    2    3    3    0    0  0.10969495513E+03 -0.87619701088E+02 -0.16560048403E+04  0.16664849987E+04  0.12292283995E+03 0.  0.
        -11    1    4    4    0    0 -0.12729991098E+02 -0.38242834251E+02 -0.18914951558E+03  0.19339624167E+03  0.51100000000E-03 0. -1.
     200002    1    4    4    0    0  0.12242494623E+03 -0.49376866837E+02 -0.14668553247E+04  0.14730887570E+04  0.30000000000E+02 0. -1.
     200000    1    3    3    0    0 -0.85525374847E+02 -0.59204266662E+02 -0.52505459723E+02  0.15419973487E+03  0.10100000000E+03 0. -1.
    -200001    1    1    2    0    0 -0.24169580286E+02  0.14682396775E+03 -0.23539943740E+04  0.24370473855E+04  0.61300000000E+03 0.  1.
<mgrwt>
<rscale>  0 0.12744954E+04</rscale>
<asrwt>0</asrwt>
<pdfrwt beam="1">  1        2 0.59430252E+00 0.12744954E+04</pdfrwt>
<pdfrwt beam="2">  1       -2 0.13944820E-01 0.12744954E+04</pdfrwt>
<totfact> 0.17706605E+01</totfact>
</mgrwt>
</event>
<event>
 8    1  0.7326756E-052  0.1517365E+04  0.7818608E-02  0.8872987E-01
         -2   -1    0    0    0  501 -0.00000000000E+00  0.00000000000E+00  0.58657543400E+03  0.58657543400E+03  0.25500000000E-02 0. -1.
          2   -1    0    0  501    0  0.00000000000E+00 -0.00000000000E+00 -0.98128761655E+03  0.98128761656E+03  0.25500000000E-02 0.  1.
     200001    2    1    2    0    0 -0.47254228153E+02 -0.15736769057E+03  0.23237404739E+03  0.67567266062E+03  0.61281179354E+03 0.  0.
    5000001    2    3    3    0    0 -0.31757026675E+02  0.22342426409E+03  0.84949569397E+02  0.25474790166E+03  0.82177573175E+02 0.  0.
        -11    1    4    4    0    0 -0.40527169583E+02  0.15878730792E+03  0.35809290150E+02  0.16774434683E+03  0.51100000000E-03 0. -1.
     200002    1    4    4    0    0  0.87701429077E+01  0.64636956170E+02  0.49140279247E+02  0.87003554836E+02  0.30000000000E+02 0.  1.
     200000    1    3    3    0    0 -0.15497201478E+02 -0.38079195467E+03  0.14742447799E+03  0.42092475896E+03  0.10100000000E+03 0.  1.
    -200001    1    1    2    0    0  0.47254228153E+02  0.15736769057E+03 -0.62708622994E+03  0.89219038994E+03  0.61300000000E+03 0.  1.
<mgrwt>
<rscale>  0 0.15173651E+04</rscale>
<asrwt>0</asrwt>
<pdfrwt beam="1">  1        2 0.14018395E+00 0.15173651E+04</pdfrwt>
<pdfrwt beam="2">  1       -2 0.83796491E-01 0.15173651E+04</pdfrwt>
<totfact> 0.34723170E+01</totfact>
</mgrwt>
</event>
<event>
 8    1  0.7326756E-052  0.1751166E+04  0.7818608E-02  0.8732709E-01
          2   -1    0    0  501    0  0.00000000000E+00  0.00000000000E+00  0.15134583419E+04  0.15134583419E+04  0.25500000000E-02 0.  1.
         -2   -1    0    0    0  501 -0.00000000000E+00 -0.00000000000E+00 -0.50655209947E+03  0.50655209948E+03  0.25500000000E-02 0. -1.
     200001    2    1    2    0    0 -0.56045133888E+03 -0.17473396648E+03  0.25490669354E+03  0.88603073090E+03  0.61272781183E+03 0.  0.
    5000001    2    3    3    0    0 -0.61724012888E+03 -0.13661371918E+03  0.35417909387E+03  0.72875985186E+03  0.77455833732E+02 0.  0.
        -11    1    4    4    0    0 -0.31983605639E+03 -0.10348193781E+03  0.18626715003E+03  0.38431636135E+03  0.51100000000E-03 0. -1.
     200002    1    4    4    0    0 -0.29740407249E+03 -0.33131781368E+02  0.16791194384E+03  0.34444349051E+03  0.30000000000E+02 0.  1.
     200000    1    3    3    0    0  0.56788790000E+02 -0.38120247307E+02 -0.99272400337E+02  0.15727087904E+03  0.10100000000E+03 0.  1.
    -200001    1    1    2    0    0  0.56045133888E+03  0.17473396648E+03  0.75199954893E+03  0.11339797105E+04  0.61300000000E+03 0.  1.
<mgrwt>
<rscale>  0 0.17511659E+04</rscale>
<asrwt>0</asrwt>
<pdfrwt beam="1">  1        2 0.21620834E+00 0.17511659E+04</pdfrwt>
<pdfrwt beam="2">  1       -2 0.72364584E-01 0.17511659E+04</pdfrwt>
<totfact> 0.23617463E+01</totfact>
</mgrwt>
</event>
<event>
 8    1  0.7326756E-052  0.1456267E+04  0.7818608E-02  0.8914067E-01
          2   -1    0    0  501    0  0.00000000000E+00  0.00000000000E+00  0.22068434298E+04  0.22068434298E+04  0.25500000000E-02 0.  1.
         -2   -1    0    0    0  501 -0.00000000000E+00 -0.00000000000E+00 -0.24024299625E+03  0.24024299627E+03  0.25500000000E-02 0. -1.
     200001    2    1    2    0    0 -0.36190766513E+02  0.39062758202E+03  0.10246615725E+04  0.12567429893E+04  0.61283923151E+03 0.  0.
    5000001    2    3    3    0    0  0.21592099158E+03  0.11709871089E+02  0.16398413774E+03  0.27791429292E+03  0.59887904385E+02 0.  0.
        -11    1    4    4    0    0  0.16493431159E+02 -0.11329640841E+02  0.24465824808E+02  0.31606496434E+02  0.51100000000E-03 0. -1.
     200002    1    4    4    0    0  0.19942756042E+03  0.23039511930E+02  0.13951831293E+03  0.24630779648E+03  0.30000000000E+02 0. -1.
     200000    1    3    3    0    0 -0.25211175809E+03  0.37891771093E+03  0.86067743474E+03  0.97882869640E+03  0.10100000000E+03 0.  1.
    -200001    1    1    2    0    0  0.36190766513E+02 -0.39062758202E+03  0.94193886108E+03  0.11903434368E+04  0.61300000000E+03 0. -1.
<mgrwt>
<rscale>  0 0.14562674E+04</rscale>
<asrwt>0</asrwt>
<pdfrwt beam="1">  1        2 0.31526334E+00 0.14562674E+04</pdfrwt>
<pdfrwt beam="2">  1       -2 0.34320429E-01 0.14562674E+04</pdfrwt>
<totfact> 0.48448724E+01</totfact>
</mgrwt>
</event>
<event>
 8    1  0.7326756E-052  0.1445966E+04  0.7818608E-02  0.8921202E-01
         -2   -1    0    0    0  501 -0.00000000000E+00  0.00000000000E+00  0.57413368936E+03  0.57413368937E+03  0.25500000000E-02 0. -1.
          2   -1    0    0  501    0  0.00000000000E+00 -0.00000000000E+00 -0.91042273631E+03  0.91042273632E+03  0.25500000000E-02 0.  1.
     200001    2    1    2    0    0  0.12391485046E+03  0.30435090789E+03 -0.37057632614E+03  0.78818800106E+03  0.61313061106E+03 0.  0.
    5000001    2    3    3    0    0  0.53124297355E+01  0.18057834910E+03  0.13499938712E+03  0.24487043062E+03  0.95393559520E+02 0.  0.
        -11    1    4    4    0    0  0.32987723826E+02  0.59722919188E+02  0.15257044124E+02  0.69912762749E+02  0.51100000000E-03 0. -1.
     200002    1    4    4    0    0 -0.27675294091E+02  0.12085542992E+03  0.11974234299E+03  0.17495766787E+03  0.30000000000E+02 0. -1.
     200000    1    3    3    0    0  0.11860242072E+03  0.12377255878E+03 -0.50557571326E+03  0.54331757044E+03  0.10100000000E+03 0.  1.
    -200001    1    1    2    0    0 -0.12391485046E+03 -0.30435090789E+03  0.34287279188E+02  0.69636842462E+03  0.61300000000E+03 0.  1.
<mgrwt>
<rscale>  0 0.14459659E+04</rscale>
<asrwt>0</asrwt>
<pdfrwt beam="1">  1        2 0.13006039E+00 0.14459659E+04</pdfrwt>
<pdfrwt beam="2">  1       -2 0.82019099E-01 0.14459659E+04</pdfrwt>
<totfact> 0.40656511E+01</totfact>
</mgrwt>
</event>
<event>
 8    1  0.7326756E-052  0.1861693E+04  0.7818608E-02  0.8674163E-01
          2   -1    0    0  501    0  0.00000000000E+00  0.00000000000E+00  0.19361718460E+04  0.19361718460E+04  0.25500000000E-02 0.  1.
         -2   -1    0    0    0  501 -0.00000000000E+00 -0.00000000000E+00 -0.44751991097E+03  0.44751991098E+03  0.25500000000E-02 0. -1.
     200001    2    1    2    0    0  0.19298032900E+03  0.38781919481E+03  0.14493518928E+04  0.16320544584E+04  0.61264648109E+03 0.  0.
    5000001    2    3    3    0    0  0.31276962647E+03  0.47059147522E+03  0.11754154445E+04  0.13057985712E+04  0.65017426381E+02 0.  0.
        -11    1    4    4    0    0  0.11019292775E+03  0.20801506543E+03  0.51065515217E+03  0.56230012734E+03  0.51100000000E-03 0. -1.
     200002    1    4    4    0    0  0.20257669872E+03  0.26257640979E+03  0.66476029232E+03  0.74349844390E+03  0.30000000000E+02 0.  1.
     200000    1    3    3    0    0 -0.11978929747E+03 -0.82772280414E+02  0.27393644834E+03  0.32625588718E+03  0.10100000000E+03 0. -1.
    -200001    1    1    2    0    0 -0.19298032900E+03 -0.38781919481E+03  0.39300042197E+02  0.75163729854E+03  0.61300000000E+03 0. -1.
<mgrwt>
<rscale>  0 0.18616933E+04</rscale>
<asrwt>0</asrwt>
<pdfrwt beam="1">  1        2 0.27659598E+00 0.18616933E+04</pdfrwt>
<pdfrwt beam="2">  1       -2 0.63931415E-01 0.18616933E+04</pdfrwt>
<totfact> 0.18450453E+01</totfact>
</mgrwt>
</event>
<event>
 8    1  0.7326756E-052  0.1496007E+04  0.7818608E-02  0.8887112E-01
         -2   -1    0    0    0  501 -0.00000000000E+00  0.00000000000E+00  0.55925893268E+03  0.55925893269E+03  0.25500000000E-02 0. -1.
          2   -1    0    0  501    0  0.00000000000E+00 -0.00000000000E+00 -0.10004480438E+04  0.10004480438E+04  0.25500000000E-02 0.  1.
     200001    2    1    2    0    0  0.26176322148E+03  0.17376302489E+03 -0.51809627528E+03  0.86659999714E+03  0.61956293598E+03 0.  0.
    5000001    2    3    3    0    0  0.24408746228E+03  0.23422530989E+03 -0.61583870941E+03  0.71257823309E+03  0.11861803080E+03 0.  0.
        -11    1    4    4    0    0  0.18913755316E+03  0.21877847986E+03 -0.54362871868E+03  0.61576718087E+03  0.51100000000E-03 0. -1.
     200002    1    4    4    0    0  0.54949909126E+02  0.15446830035E+02 -0.72209990730E+02  0.96811052222E+02  0.30000000000E+02 0. -1.
     200000    1    3    3    0    0  0.17675759195E+02 -0.60462285000E+02  0.97742434132E+02  0.15402176405E+03  0.10100000000E+03 0. -1.
    -200001    1    1    2    0    0 -0.26176322148E+03 -0.17376302489E+03  0.76907164153E+02  0.69310697936E+03  0.61300000000E+03 0. -1.
<mgrwt>
<rscale>  0 0.14960074E+04</rscale>
<asrwt>0</asrwt>
<pdfrwt beam="1">  1        2 0.14292115E+00 0.14960074E+04</pdfrwt>
<pdfrwt beam="2">  1       -2 0.79894134E-01 0.14960074E+04</pdfrwt>
<totfact> 0.37686409E+01</totfact>
</mgrwt>
</event>
<event>
 8    1  0.7326756E-052  0.1322161E+04  0.7818608E-02  0.9012173E-01
          2   -1    0    0  501    0  0.00000000000E+00  0.00000000000E+00  0.29062486979E+04  0.29062486979E+04  0.25500000000E-02 0.  1.
         -2   -1    0    0    0  501 -0.00000000000E+00 -0.00000000000E+00 -0.15037517604E+03  0.15037517606E+03  0.25500000000E-02 0. -1.
     200001    2    1    2    0    0  0.94685708221E+02 -0.11214898882E+03  0.18427580210E+04  0.19470781575E+04  0.61140285277E+03 0.  0.
    5000001    2    3    3    0    0  0.53988769182E+02 -0.33995093062E+03  0.12790300712E+04  0.13293887801E+04  0.11346886456E+03 0.  0.
        -11    1    4    4    0    0  0.63226437521E+02 -0.12657427220E+03  0.39995720891E+03  0.42424568088E+03  0.51100000000E-03 0. -1.
     200002    1    4    4    0    0 -0.92376683387E+01 -0.21337665842E+03  0.87907286230E+03  0.90514309925E+03  0.30000000000E+02 0. -1.
     200000    1    3    3    0    0  0.40696939039E+02  0.22780194180E+03  0.56372794978E+03  0.61768937735E+03  0.10100000000E+03 0.  1.
    -200001    1    1    2    0    0 -0.94685708221E+02  0.11214898882E+03  0.91311550091E+03  0.11095457165E+04  0.61300000000E+03 0. -1.
<mgrwt>
<rscale>  0 0.13221614E+04</rscale>
<asrwt>0</asrwt>
<pdfrwt beam="1">  1        2 0.41517838E+00 0.13221614E+04</pdfrwt>
<pdfrwt beam="2">  1       -2 0.21482168E-01 0.13221614E+04</pdfrwt>
<totfact> 0.49417614E+01</totfact>
</mgrwt>
</event>
<event>
 8    1  0.7326756E-052  0.2583728E+04  0.7818608E-02  0.8373750E-01
          2   -1    0    0  501    0  0.00000000000E+00  0.00000000000E+00  0.20322011153E+04  0.20322011153E+04  0.25500000000E-02 0.  1.
         -2   -1    0    0    0  501 -0.00000000000E+00 -0.00000000000E+00 -0.82123379722E+03  0.82123379722E+03  0.25500000000E-02 0. -1.
     200001    2    1    2    0    0 -0.80285082513E+03  0.40502610571E+03 -0.16447317984E+03  0.10995189633E+04  0.61096229833E+03 0.  0.
    5000001    2    3    3    0    0 -0.23718993911E+03  0.29467731257E+03 -0.30925855064E+03  0.49676453756E+03  0.89668103995E+02 0.  0.
        -11    1    4    4    0    0 -0.92438924916E+02  0.17736617805E+03 -0.16229260323E+03  0.25757058260E+03  0.51100000000E-03 0. -1.
     200002    1    4    4    0    0 -0.14475101419E+03  0.11731113452E+03 -0.14696594740E+03  0.23919395496E+03  0.30000000000E+02 0. -1.
     200000    1    3    3    0    0 -0.56566088602E+03  0.11034879314E+03  0.14478537079E+03  0.60275442572E+03  0.10100000000E+03 0.  1.
    -200001    1    1    2    0    0  0.80285082513E+03 -0.40502610571E+03  0.13754404980E+04  0.17539159493E+04  0.61300000000E+03 0.  1.
<mgrwt>
<rscale>  0 0.25837277E+04</rscale>
<asrwt>0</asrwt>
<pdfrwt beam="1">  1        2 0.29031445E+00 0.25837277E+04</pdfrwt>
<pdfrwt beam="2">  1       -2 0.11731911E+00 0.25837277E+04</pdfrwt>
<totfact> 0.38652123E+00</totfact>
</mgrwt>
</event>
<event>
 8    1  0.7326756E-052  0.1471358E+04  0.7818608E-02  0.8903726E-01
          2   -1    0    0  501    0  0.00000000000E+00  0.00000000000E+00  0.48200859427E+03  0.48200859428E+03  0.25500000000E-02 0.  1.
         -2   -1    0    0    0  501 -0.00000000000E+00 -0.00000000000E+00 -0.11228500770E+04  0.11228500770E+04  0.25500000000E-02 0. -1.
     200001    2    1    2    0    0 -0.11467708953E+02  0.28937741345E+03 -0.63258955833E+03  0.92684105347E+03  0.61236753124E+03 0.  0.
    5000001    2    3    3    0    0  0.60067031928E+02  0.45361812069E+03 -0.40061664021E+03  0.61683353129E+03  0.10301681980E+03 0.  0.
        -11    1    4    4    0    0  0.52444510815E+01  0.33275664814E+03 -0.29184182795E+03  0.44263545236E+03  0.51100000000E-03 0. -1.
     200002    1    4    4    0    0  0.54822580847E+02  0.12086147256E+03 -0.10877481226E+03  0.17419807893E+03  0.30000000000E+02 0. -1.
     200000    1    3    3    0    0 -0.71534740881E+02 -0.16424070724E+03 -0.23197291811E+03  0.31000752218E+03  0.10100000000E+03 0.  1.
    -200001    1    1    2    0    0  0.11467708953E+02 -0.28937741345E+03 -0.82519243677E+01  0.67801761778E+03  0.61300000000E+03 0.  1.
<mgrwt>
<rscale>  0 0.14713577E+04</rscale>
<asrwt>0</asrwt>
<pdfrwt beam="1">  1        2 0.68858371E-01 0.14713577E+04</pdfrwt>
<pdfrwt beam="2">  1       -2 0.16040715E+00 0.14713577E+04</pdfrwt>
<totfact> 0.16977037E+01</totfact>
</mgrwt>
</event>
<event>
 8    1  0.7326756E-052  0.1846738E+04  0.7818608E-02  0.8681832E-01
         -2   -1    0    0    0  501 -0.00000000000E+00  0.00000000000E+00  0.15732938769E+04  0.15732938769E+04  0.25500000000E-02 0. -1.
          2   -1    0    0  501    0  0.00000000000E+00 -0.00000000000E+00 -0.54192669618E+03  0.54192669619E+03  0.25500000000E-02 0.  1.
     200001    2    1    2    0    0  0.37702144095E+03  0.34250266282E+03  0.10489866207E+04  0.13180175339E+04  0.61428336152E+03 0.  0.
    5000001    2    3    3    0    0 -0.50894757307E+02 -0.68828116568E+02  0.71575163185E+01  0.11472448332E+03  0.76045322545E+02 0.  0.
        -11    1    4    4    0    0 -0.89218930559E+01  0.11493568696E+02  0.12399997988E+02  0.19117066915E+02  0.51100000000E-03 0. -1.
     200002    1    4    4    0    0 -0.41972864251E+02 -0.80321685264E+02 -0.52424816694E+01  0.95607416403E+02  0.30000000000E+02 0. -1.
     200000    1    3    3    0    0  0.42791619825E+03  0.41133077939E+03  0.10418291044E+04  0.12032930506E+04  0.10100000000E+03 0. -1.
    -200001    1    1    2    0    0 -0.37702144095E+03 -0.34250266282E+03 -0.17619440040E+02  0.79720303916E+03  0.61300000000E+03 0.  1.
<mgrwt>
<rscale>  0 0.18467376E+04</rscale>
<asrwt>0</asrwt>
<pdfrwt beam="1">  1        2 0.77418099E-01 0.18467376E+04</pdfrwt>
<pdfrwt beam="2">  1       -2 0.22475627E+00 0.18467376E+04</pdfrwt>
<totfact> 0.53189579E+00</totfact>
</mgrwt>
</event>
<event>
 8    1  0.7326756E-052  0.1875138E+04  0.7818608E-02  0.8667331E-01
          2   -1    0    0  501    0  0.00000000000E+00  0.00000000000E+00  0.19153426270E+04  0.19153426270E+04  0.25500000000E-02 0.  1.
         -2   -1    0    0    0  501 -0.00000000000E+00 -0.00000000000E+00 -0.45894456475E+03  0.45894456476E+03  0.25500000000E-02 0. -1.
     200001    2    1    2    0    0 -0.60485928774E+03  0.28222782193E+03  0.10329710675E+04  0.13740038712E+04  0.61265823296E+03 0.  0.
    5000001    2    3    3    0    0 -0.42523029043E+03  0.43640062031E+03  0.88300837817E+03  0.10761353824E+04  0.84245261190E+02 0.  0.
        -11    1    4    4    0    0 -0.11790044766E+03  0.15539704959E+03  0.32805503679E+03  0.38166590854E+03  0.51100000000E-03 0. -1.
     200002    1    4    4    0    0 -0.30732984277E+03  0.28100357073E+03  0.55495334139E+03  0.69446947387E+03  0.30000000000E+02 0. -1.
     200000    1    3    3    0    0 -0.17962899731E+03 -0.15417279838E+03  0.14996268929E+03  0.29786848879E+03  0.10100000000E+03 0. -1.
    -200001    1    1    2    0    0  0.60485928774E+03 -0.28222782193E+03  0.42342699475E+03  0.10002833205E+04  0.61300000000E+03 0.  1.
<mgrwt>
<rscale>  0 0.18751385E+04</rscale>
<asrwt>0</asrwt>
<pdfrwt beam="1">  1        2 0.27362038E+00 0.18751385E+04</pdfrwt>
<pdfrwt beam="2">  1       -2 0.65563509E-01 0.18751385E+04</pdfrwt>
<totfact> 0.17896873E+01</totfact>
</mgrwt>
</event>
<event>
 8    1  0.7326756E-052  0.1734522E+04  0.7818608E-02  0.8741917E-01
          2   -1    0    0  501    0  0.00000000000E+00  0.00000000000E+00  0.20560526760E+04  0.20560526760E+04  0.25500000000E-02 0.  1.
         -2   -1    0    0    0  501 -0.00000000000E+00 -0.00000000000E+00 -0.36581810915E+03  0.36581810916E+03  0.25500000000E-02 0. -1.
     200001    2    1    2    0    0 -0.63539497135E-01  0.58857696911E+03  0.10866250925E+04  0.13795002896E+04  0.61306125681E+03 0.  0.
    5000001    2    3    3    0    0 -0.14173096760E+03  0.90351734628E+02  0.20330022723E+02  0.18975904865E+03  0.85697628861E+02 0.  0.
        -11    1    4    4    0    0 -0.72762423492E+02  0.22263364502E+01  0.89631311176E+01  0.73346196672E+02  0.51100000000E-03 0. -1.
     200002    1    4    4    0    0 -0.68968544108E+02  0.88125398178E+02  0.11366891605E+02  0.11641285198E+03  0.30000000000E+02 0. -1.
     200000    1    3    3    0    0  0.14166742810E+03  0.49822523448E+03  0.10662950698E+04  0.11897412409E+04  0.10100000000E+03 0.  1.
    -200001    1    1    2    0    0  0.63539497135E-01 -0.58857696911E+03  0.60360947433E+03  0.10423704956E+04  0.61300000000E+03 0. -1.
<mgrwt>
<rscale>  0 0.17345216E+04</rscale>
<asrwt>0</asrwt>
<pdfrwt beam="1">  1        2 0.29372181E+00 0.17345216E+04</pdfrwt>
<pdfrwt beam="2">  1       -2 0.52259729E-01 0.17345216E+04</pdfrwt>
<totfact> 0.24679998E+01</totfact>
</mgrwt>
</event>
<event>
 8    1  0.7326756E-052  0.1252801E+04  0.7818608E-02  0.9067855E-01
         -2   -1    0    0    0  501 -0.00000000000E+00  0.00000000000E+00  0.50786320917E+03  0.50786320917E+03  0.25500000000E-02 0. -1.
          2   -1    0    0  501    0  0.00000000000E+00 -0.00000000000E+00 -0.77260492545E+03  0.77260492546E+03  0.25500000000E-02 0.  1.
     200001    2    1    2    0    0 -0.66118762459E+01  0.21298623181E+02 -0.31192245073E+02  0.62410565569E+03  0.62292661289E+03 0.  0.
    5000001    2    3    3    0    0  0.17939344918E+03 -0.19686603944E+03 -0.12644982588E+03  0.30556396642E+03  0.80259155324E+02 0.  0.
        -11    1    4    4    0    0  0.83263489901E+02 -0.48304878161E+02 -0.63728046394E+02  0.11544450572E+03  0.51100000000E-03 0. -1.
     200002    1    4    4    0    0  0.96129959281E+02 -0.14856116128E+03 -0.62721779484E+02  0.19011946069E+03  0.30000000000E+02 0. -1.
     200000    1    3    3    0    0 -0.18600532543E+03  0.21816466262E+03  0.95257580805E+02  0.31854168927E+03  0.10100000000E+03 0. -1.
    -200001    1    1    2    0    0  0.66118762459E+01 -0.21298623181E+02 -0.23354947122E+03  0.65636247894E+03  0.61300000000E+03 0.  1.
<mgrwt>
<rscale>  0 0.12528010E+04</rscale>
<asrwt>0</asrwt>
<pdfrwt beam="1">  1        2 0.11037213E+00 0.12528010E+04</pdfrwt>
<pdfrwt beam="2">  1       -2 0.72551887E-01 0.12528010E+04</pdfrwt>
<totfact> 0.67263349E+01</totfact>
</mgrwt>
</event>
<event>
 8    1  0.7326756E-052  0.1269429E+04  0.7818608E-02  0.9054166E-01
          2   -1    0    0  501    0  0.00000000000E+00  0.00000000000E+00  0.92336607102E+03  0.92336607103E+03  0.25500000000E-02 0.  1.
         -2   -1    0    0    0  501 -0.00000000000E+00 -0.00000000000E+00 -0.43629747424E+03  0.43629747425E+03  0.25500000000E-02 0. -1.
     200001    2    1    2    0    0 -0.11050768260E+03  0.12377951476E+03  0.20338824468E+03  0.66412285030E+03  0.61004841286E+03 0.  0.
    5000001    2    3    3    0    0  0.12760701153E+03  0.25104110418E+03 -0.10752112412E+02  0.30502507499E+03  0.11670262666E+03 0.  0.
        -11    1    4    4    0    0  0.12409989802E+03  0.20304405450E+03 -0.39860364667E+02  0.24128100097E+03  0.51100000000E-03 0. -1.
     200002    1    4    4    0    0  0.35071135054E+01  0.47997049686E+02  0.29108252255E+02  0.63744074023E+02  0.30000000000E+02 0.  1.
     200000    1    3    3    0    0 -0.23811469413E+03 -0.12726158942E+03  0.21414035709E+03  0.35909777531E+03  0.10100000000E+03 0.  1.
    -200001    1    1    2    0    0  0.11050768260E+03 -0.12377951476E+03  0.28368035211E+03  0.69554069497E+03  0.61300000000E+03 0. -1.
<mgrwt>
<rscale>  0 0.12694287E+04</rscale>
<asrwt>0</asrwt>
<pdfrwt beam="1">  1        2 0.13190944E+00 0.12694287E+04</pdfrwt>
<pdfrwt beam="2">  1       -2 0.62328212E-01 0.12694287E+04</pdfrwt>
<totfact> 0.73741595E+01</totfact>
</mgrwt>
</event>
<event>
 8    1  0.7326756E-052  0.1327186E+04  0.7818608E-02  0.9008280E-01
         -2   -1    0    0    0  501 -0.00000000000E+00  0.00000000000E+00  0.18070239885E+03  0.18070239886E+03  0.25500000000E-02 0. -1.
          2   -1    0    0  501    0  0.00000000000E+00 -0.00000000000E+00 -0.24369101161E+04  0.24369101161E+04  0.25500000000E-02 0.  1.
     200001    2    1    2    0    0 -0.90547263248E+02  0.14388998078E+03 -0.15003748076E+04  0.16297079038E+04  0.61312327880E+03 0.  0.
    5000001    2    3    3    0    0  0.16008452902E+03  0.98797618959E+02 -0.16805702891E+03  0.26951627032E+03  0.94909583612E+02 0.  0.
        -11    1    4    4    0    0 -0.21846104476E+01  0.27895883117E+02 -0.40487526777E+02  0.49215776358E+02  0.51100000000E-03 0. -1.
     200002    1    4    4    0    0  0.16226913946E+03  0.70901735841E+02 -0.12756950213E+03  0.22030049397E+03  0.30000000000E+02 0. -1.
     200000    1    3    3    0    0 -0.25063179226E+03  0.45092361825E+02 -0.13323177787E+04  0.13601916335E+04  0.10100000000E+03 0.  1.
    -200001    1    1    2    0    0  0.90547263248E+02 -0.14388998078E+03 -0.75583290971E+03  0.98790461121E+03  0.61300000000E+03 0. -1.
<mgrwt>
<rscale>  0 0.13271858E+04</rscale>
<asrwt>0</asrwt>
<pdfrwt beam="1">  1        2 0.34813000E+00 0.13271858E+04</pdfrwt>
<pdfrwt beam="2">  1       -2 0.25814630E-01 0.13271858E+04</pdfrwt>
<totfact> 0.63199050E+01</totfact>
</mgrwt>
</event>
<event>
 8    1  0.7326756E-052  0.1245429E+04  0.7818608E-02  0.9073996E-01
         -2   -1    0    0    0  501 -0.00000000000E+00  0.00000000000E+00  0.25177670925E+03  0.25177670926E+03  0.25500000000E-02 0. -1.
          2   -1    0    0  501    0  0.00000000000E+00 -0.00000000000E+00 -0.15401473708E+04  0.15401473708E+04  0.25500000000E-02 0.  1.
     200001    2    1    2    0    0 -0.66622726570E+02  0.49580629748E+02 -0.53807866345E+03  0.81950240766E+03  0.61250201759E+03 0.  0.
    5000001    2    3    3    0    0 -0.22829191583E+03  0.42816778376E+02 -0.54008508723E+03  0.62874679915E+03  0.22289046783E+03 0.  0.
        -11    1    4    4    0    0 -0.73968501375E+02 -0.37343481456E+02 -0.28571246166E+02  0.87648108426E+02  0.51100000000E-03 0. -1.
     200002    1    4    4    0    0 -0.15432341446E+03  0.80160259832E+02 -0.51151384106E+03  0.54109869072E+03  0.30000000000E+02 0. -1.
     200000    1    3    3    0    0  0.16166918926E+03  0.67638513721E+01  0.20064237709E+01  0.19075560851E+03  0.10100000000E+03 0. -1.
    -200001    1    1    2    0    0  0.66622726570E+02 -0.49580629748E+02 -0.75029199806E+03  0.97242167237E+03  0.61300000000E+03 0.  1.
<mgrwt>
<rscale>  0 0.12454288E+04</rscale>
<asrwt>0</asrwt>
<pdfrwt beam="1">  1        2 0.22002105E+00 0.12454288E+04</pdfrwt>
<pdfrwt beam="2">  1       -2 0.35968102E-01 0.12454288E+04</pdfrwt>
<totfact> 0.99483616E+01</totfact>
</mgrwt>
</event>
<event>
 8    1  0.7326756E-052  0.1795440E+04  0.7818608E-02  0.8708728E-01
         -2   -1    0    0    0  501 -0.00000000000E+00  0.00000000000E+00  0.10638588012E+04  0.10638588012E+04  0.25500000000E-02 0.  1.
          2   -1    0    0  501    0  0.00000000000E+00 -0.00000000000E+00 -0.75752635196E+03  0.75752635196E+03  0.25500000000E-02 0. -1.
     200001    2    1    2    0    0 -0.38424800571E+03  0.16971492937E+03  0.66403060891E+03  0.99666298148E+03  0.61314823815E+03 0.  0.
    5000001    2    3    3    0    0  0.13074932759E+03  0.15314126478E+03  0.24450439421E+03  0.32457654026E+03  0.70851238875E+02 0.  0.
        -11    1    4    4    0    0  0.11320788528E+03  0.10786586444E+03  0.17704580235E+03  0.23621237506E+03  0.51100000000E-03 0. -1.
     200002    1    4    4    0    0  0.17541442306E+02  0.45275400342E+02  0.67458591864E+02  0.88364165195E+02  0.30000000000E+02 0.  1.
     200000    1    3    3    0    0 -0.51499733330E+03  0.16573664592E+02  0.41952621469E+03  0.67208644123E+03  0.10100000000E+03 0.  1.
    -200001    1    1    2    0    0  0.38424800571E+03 -0.16971492937E+03 -0.35769815962E+03  0.82472217173E+03  0.61300000000E+03 0. -1.
<mgrwt>
<rscale>  0 0.17954399E+04</rscale>
<asrwt>0</asrwt>
<pdfrwt beam="1">  1        2 0.10821805E+00 0.17954399E+04</pdfrwt>
<pdfrwt beam="2">  1       -2 0.15197983E+00 0.17954399E+04</pdfrwt>
<totfact> 0.11168861E+01</totfact>
</mgrwt>
</event>
<event>
 8    1  0.7326756E-052  0.1365995E+04  0.7818608E-02  0.8978807E-01
          2   -1    0    0  501    0  0.00000000000E+00  0.00000000000E+00  0.21363481986E+04  0.21363481986E+04  0.25500000000E-02 0.  1.
         -2   -1    0    0    0  501 -0.00000000000E+00 -0.00000000000E+00 -0.21835664454E+03  0.21835664456E+03  0.25500000000E-02 0. -1.
     200001    2    1    2    0    0  0.18109643210E+03 -0.23744645950E+03  0.10222984160E+04  0.12289997591E+04  0.61332668092E+03 0.  0.
    5000001    2    3    3    0    0  0.31031134045E+03 -0.29445322750E+02  0.22710049300E+03  0.39084601291E+03  0.63449324949E+02 0.  0.
        -11    1    4    4    0    0  0.22682618420E+03 -0.21162602270E+02  0.17807017802E+03  0.28914868472E+03  0.51100000000E-03 0. -1.
     200002    1    4    4    0    0  0.83485156255E+02 -0.82827204798E+01  0.49030314979E+02  0.10169732819E+03  0.30000000000E+02 0.  1.
     200000    1    3    3    0    0 -0.12921490835E+03 -0.20800113675E+03  0.79519792302E+03  0.83815374616E+03  0.10100000000E+03 0.  1.
    -200001    1    1    2    0    0 -0.18109643210E+03  0.23744645950E+03  0.89569313808E+03  0.11257050841E+04  0.61300000000E+03 0.  1.
<mgrwt>
<rscale>  0 0.13659954E+04</rscale>
<asrwt>0</asrwt>
<pdfrwt beam="1">  1        2 0.30519260E+00 0.13659954E+04</pdfrwt>
<pdfrwt beam="2">  1       -2 0.31193807E-01 0.13659954E+04</pdfrwt>
<totfact> 0.63534057E+01</totfact>
</mgrwt>
</event>
<event>
 8    1  0.7326756E-052  0.1581320E+04  0.7818608E-02  0.8832107E-01
          2   -1    0    0  501    0  0.00000000000E+00  0.00000000000E+00  0.18679053998E+04  0.18679053998E+04  0.25500000000E-02 0. -1.
         -2   -1    0    0    0  501 -0.00000000000E+00 -0.00000000000E+00 -0.33467621125E+03  0.33467621126E+03  0.25500000000E-02 0.  1.
     200001    2    1    2    0    0 -0.33289521801E+03 -0.35778318639E+03  0.67049887177E+03  0.10368626766E+04  0.62184197228E+03 0.  0.
    5000001    2    3    3    0    0 -0.28380120618E+03 -0.15754797461E+03  0.32685707502E+02  0.35899027377E+03  0.14980377917E+03 0.  0.
        -11    1    4    4    0    0 -0.10973283700E+03  0.14369155910E+02  0.28616911657E+01  0.11070662778E+03  0.51100000000E-03 0. -1.
     200002    1    4    4    0    0 -0.17406836919E+03 -0.17191713052E+03  0.29824016337E+02  0.24828364600E+03  0.30000000000E+02 0. -1.
     200000    1    3    3    0    0 -0.49094011828E+02 -0.20023521178E+03  0.63781316427E+03  0.67787240285E+03  0.10100000000E+03 0. -1.
    -200001    1    1    2    0    0  0.33289521801E+03  0.35778318639E+03  0.86273031679E+03  0.11657189345E+04  0.61300000000E+03 0. -1.
<mgrwt>
<rscale>  0 0.15813203E+04</rscale>
<asrwt>0</asrwt>
<pdfrwt beam="1">  1        2 0.26684363E+00 0.15813203E+04</pdfrwt>
<pdfrwt beam="2">  1       -2 0.47810888E-01 0.15813203E+04</pdfrwt>
<totfact> 0.37426178E+01</totfact>
</mgrwt>
</event>
<event>
 8    1  0.7326756E-052  0.1557694E+04  0.7818608E-02  0.8846968E-01
          2   -1    0    0  501    0  0.00000000000E+00  0.00000000000E+00  0.11208065220E+04  0.11208065220E+04  0.25500000000E-02 0.  1.
         -2   -1    0    0    0  501 -0.00000000000E+00 -0.00000000000E+00 -0.54121968083E+03  0.54121968084E+03  0.25500000000E-02 0. -1.
     200001    2    1    2    0    0 -0.11300286420E+03 -0.42111674353E+03  0.50292995971E+03  0.90588188033E+03  0.61447089250E+03 0.  0.
    5000001    2    3    3    0    0 -0.34158874812E+03 -0.29162306189E+03  0.38221544666E+03  0.59962526640E+03  0.10832787904E+03 0.  0.
        -11    1    4    4    0    0 -0.29587832498E+03 -0.27654745400E+03  0.34224565953E+03  0.53024010502E+03  0.51100000000E-03 0. -1.
     200002    1    4    4    0    0 -0.45710423143E+02 -0.15075607890E+02  0.39969787134E+02  0.69385161387E+02  0.30000000000E+02 0.  1.
     200000    1    3    3    0    0  0.22858588392E+03 -0.12949368164E+03  0.12071451305E+03  0.30625661392E+03  0.10100000000E+03 0. -1.
    -200001    1    1    2    0    0  0.11300286420E+03  0.42111674353E+03  0.76656881460E+02  0.75614432252E+03  0.61300000000E+03 0. -1.
<mgrwt>
<rscale>  0 0.15576939E+04</rscale>
<asrwt>0</asrwt>
<pdfrwt beam="1">  1        2 0.16011522E+00 0.15576939E+04</pdfrwt>
<pdfrwt beam="2">  1       -2 0.77317097E-01 0.15576939E+04</pdfrwt>
<totfact> 0.34170476E+01</totfact>
</mgrwt>
</event>
<event>
 8    1  0.7326756E-052  0.1328592E+04  0.7818608E-02  0.9007194E-01
          2   -1    0    0  501    0  0.00000000000E+00  0.00000000000E+00  0.41260234688E+03  0.41260234688E+03  0.25500000000E-02 0.  1.
         -2   -1    0    0    0  501 -0.00000000000E+00 -0.00000000000E+00 -0.10695259328E+04  0.10695259328E+04  0.25500000000E-02 0. -1.
     200001    2    1    2    0    0 -0.24121974041E+03  0.55658179606E+02 -0.39707670966E+03  0.77179441786E+03  0.61376861599E+03 0.  0.
    5000001    2    3    3    0    0  0.61433742067E+02 -0.33813910760E+02 -0.41083769942E+03  0.44013985322E+03  0.14148494584E+03 0.  0.
        -11    1    4    4    0    0  0.23260908446E+01  0.27557721038E+02 -0.10251457168E+02  0.29494593771E+02  0.51100000000E-03 0. -1.
     200002    1    4    4    0    0  0.59107651222E+02 -0.61371631797E+02 -0.40058624225E+03  0.41064525945E+03  0.30000000000E+02 0. -1.
     200000    1    3    3    0    0 -0.30265348248E+03  0.89472090366E+02  0.13760989764E+02  0.33165456465E+03  0.10100000000E+03 0.  1.
    -200001    1    1    2    0    0  0.24121974041E+03 -0.55658179606E+02 -0.25984687624E+03  0.71033386179E+03  0.61300000000E+03 0. -1.
<mgrwt>
<rscale>  0 0.13285916E+04</rscale>
<asrwt>0</asrwt>
<pdfrwt beam="1">  1        2 0.58943193E-01 0.13285916E+04</pdfrwt>
<pdfrwt beam="2">  1       -2 0.15278942E+00 0.13285916E+04</pdfrwt>
<totfact> 0.23319074E+01</totfact>
</mgrwt>
</event>
<event>
 8    1  0.7326756E-052  0.1664488E+04  0.7818608E-02  0.8781881E-01
          2   -1    0    0  501    0  0.00000000000E+00  0.00000000000E+00  0.24261605067E+04  0.24261605067E+04  0.25500000000E-02 0.  1.
         -2   -1    0    0    0  501 -0.00000000000E+00 -0.00000000000E+00 -0.28548397005E+03  0.28548397007E+03  0.25500000000E-02 0. -1.
     200001    2    1    2    0    0 -0.20864227373E+03 -0.52039434777E+03  0.11505293631E+04  0.14191653470E+04  0.61316440797E+03 0.  0.
    5000001    2    3    3    0    0 -0.79977731897E+02 -0.48739786034E+03  0.11411322551E+04  0.12520347449E+04  0.14647548298E+03 0.  0.
        -11    1    4    4    0    0 -0.69157244358E+02 -0.29286069598E+03  0.83848378578E+03  0.89084520019E+03  0.51100000000E-03 0. -1.
     200002    1    4    4    0    0 -0.10820487539E+02 -0.19453716437E+03  0.30264846929E+03  0.36118954475E+03  0.30000000000E+02 0. -1.
     200000    1    3    3    0    0 -0.12866454183E+03 -0.32996487428E+02  0.93971080334E+01  0.16713060207E+03  0.10100000000E+03 0. -1.
    -200001    1    1    2    0    0  0.20864227373E+03  0.52039434777E+03  0.99014717353E+03  0.12924791297E+04  0.61300000000E+03 0. -1.
<mgrwt>
<rscale>  0 0.16644878E+04</rscale>
<asrwt>0</asrwt>
<pdfrwt beam="1">  1        2 0.34659434E+00 0.16644878E+04</pdfrwt>
<pdfrwt beam="2">  1       -2 0.40783427E-01 0.16644878E+04</pdfrwt>
<totfact> 0.26263893E+01</totfact>
</mgrwt>
</event>
<event>
 8    1  0.7326756E-052  0.1457961E+04  0.7818608E-02  0.8912900E-01
          2   -1    0    0  501    0  0.00000000000E+00  0.00000000000E+00  0.29203179964E+04  0.29203179964E+04  0.25500000000E-02 0.  1.
         -2   -1    0    0    0  501 -0.00000000000E+00 -0.00000000000E+00 -0.18197069496E+03  0.18197069498E+03  0.25500000000E-02 0. -1.
     200001    2    1    2    0    0 -0.31015008655E+03  0.17378975559E+03  0.17236849020E+04  0.18646680952E+04  0.61603693756E+03 0.  0.
    5000001    2    3    3    0    0 -0.24376038906E+03 -0.70907520561E+02  0.14579320774E+04  0.14837351448E+04  0.10703753504E+03 0.  0.
        -11    1    4    4    0    0 -0.13582513940E+03 -0.56561421484E+02  0.10572858100E+04  0.10674740966E+04  0.51100000000E-03 0. -1.
     200002    1    4    4    0    0 -0.10793524966E+03 -0.14346099076E+02  0.40064626739E+03  0.41626104820E+03  0.30000000000E+02 0. -1.
     200000    1    3    3    0    0 -0.66389697489E+02  0.24469727615E+03  0.26575282462E+03  0.38093295038E+03  0.10100000000E+03 0. -1.
    -200001    1    1    2    0    0  0.31015008655E+03 -0.17378975559E+03  0.10146623995E+04  0.12376205962E+04  0.61300000000E+03 0. -1.
<mgrwt>
<rscale>  0 0.14579606E+04</rscale>
<asrwt>0</asrwt>
<pdfrwt beam="1">  1        2 0.41718827E+00 0.14579606E+04</pdfrwt>
<pdfrwt beam="2">  1       -2 0.25995815E-01 0.14579606E+04</pdfrwt>
<totfact> 0.34042727E+01</totfact>
</mgrwt>
</event>
<event>
 8    1  0.7326756E-052  0.1426807E+04  0.7818608E-02  0.8934639E-01
         -2   -1    0    0    0  501 -0.00000000000E+00  0.00000000000E+00  0.47009121789E+03  0.47009121790E+03  0.25500000000E-02 0.  1.
          2   -1    0    0  501    0  0.00000000000E+00 -0.00000000000E+00 -0.10826510170E+04  0.10826510170E+04  0.25500000000E-02 0. -1.
     200001    2    1    2    0    0 -0.14802259646E+03  0.27944234763E+03 -0.51609442780E+03  0.85627020922E+03  0.60567854352E+03 0.  0.
    5000001    2    3    3    0    0 -0.24174033479E+03  0.67597807792E+02 -0.30586779253E+02  0.30893137419E+03  0.17746884180E+03 0.  0.
        -11    1    4    4    0    0 -0.15898192917E+02  0.36505956202E+02  0.51218517047E+02  0.64875063506E+02  0.51100000000E-03 0. -1.
     200002    1    4    4    0    0 -0.22584214187E+03  0.31091851590E+02 -0.81805296300E+02  0.24405631068E+03  0.30000000000E+02 0. -1.
     200000    1    3    3    0    0  0.93717738330E+02  0.21184453984E+03 -0.48550764854E+03  0.54733883503E+03  0.10100000000E+03 0. -1.
    -200001    1    1    2    0    0  0.14802259646E+03 -0.27944234763E+03 -0.96465371321E+02  0.69647202569E+03  0.61300000000E+03 0.  1.
<mgrwt>
<rscale>  0 0.14268073E+04</rscale>
<asrwt>0</asrwt>
<pdfrwt beam="1">  1        2 0.15466443E+00 0.14268073E+04</pdfrwt>
<pdfrwt beam="2">  1       -2 0.67155888E-01 0.14268073E+04</pdfrwt>
<totfact> 0.49525282E+01</totfact>
</mgrwt>
</event>
<event>
 8    1  0.7326756E-052  0.1555276E+04  0.7818608E-02  0.8848505E-01
          2   -1    0    0  501    0  0.00000000000E+00  0.00000000000E+00  0.19883667084E+03  0.19883667086E+03  0.25500000000E-02 0.  1.
         -2   -1    0    0    0  501 -0.00000000000E+00 -0.00000000000E+00 -0.30412940739E+04  0.30412940739E+04  0.25500000000E-02 0. -1.
     200001    2    1    2    0    0  0.37301730164E+03  0.29122250414E+03 -0.12748724456E+04  0.14916902816E+04  0.61309680275E+03 0.  0.
    5000001    2    3    3    0    0 -0.46364391574E+02 -0.17957161456E+02 -0.71819976017E+03  0.72256184702E+03  0.61746342517E+02 0.  0.
        -11    1    4    4    0    0 -0.36481025220E+01  0.11753990547E+02 -0.43901940647E+02  0.45594356434E+02  0.51100000000E-03 0. -1.
     200002    1    4    4    0    0 -0.42716289052E+02 -0.29711152002E+02 -0.67429781952E+03  0.67696749059E+03  0.30000000000E+02 0. -1.
     200000    1    3    3    0    0  0.41938169321E+03  0.30917966559E+03 -0.55667268539E+03  0.76912843458E+03  0.10100000000E+03 0.  1.
    -200001    1    1    2    0    0 -0.37301730164E+03 -0.29122250414E+03 -0.15675849575E+04  0.17484404631E+04  0.61300000000E+03 0. -1.
<mgrwt>
<rscale>  0 0.15552759E+04</rscale>
<asrwt>0</asrwt>
<pdfrwt beam="1">  1        2 0.28405240E-01 0.15552759E+04</pdfrwt>
<pdfrwt beam="2">  1       -2 0.43447056E+00 0.15552759E+04</pdfrwt>
<totfact> 0.81025868E-01</totfact>
</mgrwt>
</event>
<event>
 8    1  0.7326756E-052  0.1602303E+04  0.7818608E-02  0.8819134E-01
         -2   -1    0    0    0  501 -0.00000000000E+00  0.00000000000E+00  0.31523624057E+03  0.31523624058E+03  0.25500000000E-02 0. -1.
          2   -1    0    0  501    0  0.00000000000E+00 -0.00000000000E+00 -0.20360727519E+04  0.20360727519E+04  0.25500000000E-02 0.  1.
     200001    2    1    2    0    0  0.80822292790E+02  0.34931094772E+03 -0.31752813210E+03  0.77854270710E+03  0.61380310433E+03 0.  0.
    5000001    2    3    3    0    0 -0.14638071733E+03 -0.14529056322E+02 -0.24935556064E+02  0.24956995553E+03  0.20006242242E+03 0.  0.
        -11    1    4    4    0    0 -0.97980436089E+02 -0.63664203925E+02  0.63894367848E+02  0.13317577468E+03  0.51100000000E-03 0. -1.
     200002    1    4    4    0    0 -0.48400281240E+02  0.49135147602E+02 -0.88829923912E+02  0.11639418085E+03  0.30000000000E+02 0. -1.
     200000    1    3    3    0    0  0.22720301012E+03  0.36384000404E+03 -0.29259257604E+03  0.52897275157E+03  0.10100000000E+03 0.  1.
    -200001    1    1    2    0    0 -0.80822292790E+02 -0.34931094772E+03 -0.14033083792E+04  0.15727662854E+04  0.61300000000E+03 0.  1.
<mgrwt>
<rscale>  0 0.16023032E+04</rscale>
<asrwt>0</asrwt>
<pdfrwt beam="1">  1        2 0.29086753E+00 0.16023032E+04</pdfrwt>
<pdfrwt beam="2">  1       -2 0.45033750E-01 0.16023032E+04</pdfrwt>
<totfact> 0.34526671E+01</totfact>
</mgrwt>
</event>
<event>
 8    1  0.7326756E-052  0.1337198E+04  0.7818608E-02  0.9000576E-01
          2   -1    0    0  501    0  0.00000000000E+00  0.00000000000E+00  0.29106406538E+04  0.29106406538E+04  0.25500000000E-02 0.  1.
         -2   -1    0    0    0  501 -0.00000000000E+00 -0.00000000000E+00 -0.15358278368E+03  0.15358278370E+03  0.25500000000E-02 0. -1.
     200001    2    1    2    0    0  0.12460605228E+03  0.23182632677E+03  0.12876544900E+04  0.14504745699E+04  0.61363855678E+03 0.  0.
    5000001    2    3    3    0    0 -0.14112103309E+03  0.30460667966E+03  0.75345616254E+03  0.84098567198E+03  0.16389123328E+03 0.  0.
        -11    1    4    4    0    0 -0.15782593750E+03  0.18078920660E+03  0.55372183110E+03  0.60349120127E+03  0.51100000000E-03 0. -1.
     200002    1    4    4    0    0  0.16704904417E+02  0.12381747305E+03  0.19973433144E+03  0.23749447072E+03  0.30000000000E+02 0. -1.
     200000    1    3    3    0    0  0.26572708537E+03 -0.72780352884E+02  0.53419832743E+03  0.60948889792E+03  0.10100000000E+03 0. -1.
    -200001    1    1    2    0    0 -0.12460605228E+03 -0.23182632677E+03  0.14694033802E+04  0.16137488676E+04  0.61300000000E+03 0. -1.
<mgrwt>
<rscale>  0 0.13371975E+04</rscale>
<asrwt>0</asrwt>
<pdfrwt beam="1">  1        2 0.41580576E+00 0.13371975E+04</pdfrwt>
<pdfrwt beam="2">  1       -2 0.21940400E-01 0.13371975E+04</pdfrwt>
<totfact> 0.47272511E+01</totfact>
</mgrwt>
</event>
<event>
 8    1  0.7326756E-052  0.1361147E+04  0.7818608E-02  0.8982433E-01
          2   -1    0    0  501    0  0.00000000000E+00  0.00000000000E+00  0.12178638100E+04  0.12178638100E+04  0.25500000000E-02 0.  1.
         -2   -1    0    0    0  501 -0.00000000000E+00 -0.00000000000E+00 -0.38032194362E+03  0.38032194363E+03  0.25500000000E-02 0. -1.
     200001    2    1    2    0    0  0.18451927927E+03  0.74727632936E+02  0.16216416715E+03  0.66462503242E+03  0.61302335442E+03 0.  0.
    5000001    2    3    3    0    0  0.31531430833E+03 -0.14159741331E+03  0.16862460016E+03  0.39232629490E+03  0.77541765500E+02 0.  0.
        -11    1    4    4    0    0  0.26237724481E+02 -0.19105490994E+02  0.40514887259E+02  0.51912369065E+02  0.51100000000E-03 0. -1.
     200002    1    4    4    0    0  0.28907658385E+03 -0.12249192232E+03  0.12810971290E+03  0.34041392584E+03  0.30000000000E+02 0. -1.
     200000    1    3    3    0    0 -0.13079502906E+03  0.21632504624E+03 -0.64604330160E+01  0.27229873752E+03  0.10100000000E+03 0. -1.
    -200001    1    1    2    0    0 -0.18451927927E+03 -0.74727632936E+02  0.67537769922E+03  0.93356072119E+03  0.61300000000E+03 0.  1.
<mgrwt>
<rscale>  0 0.13611471E+04</rscale>
<asrwt>0</asrwt>
<pdfrwt beam="1">  1        2 0.17398055E+00 0.13611471E+04</pdfrwt>
<pdfrwt beam="2">  1       -2 0.54331705E-01 0.13611471E+04</pdfrwt>
<totfact> 0.65030903E+01</totfact>
</mgrwt>
</event>
<event>
 8    1  0.7326756E-052  0.1287656E+04  0.7818608E-02  0.9039412E-01
         -2   -1    0    0    0  501 -0.00000000000E+00  0.00000000000E+00  0.36437623126E+03  0.36437623127E+03  0.25500000000E-02 0. -1.
          2   -1    0    0  501    0  0.00000000000E+00 -0.00000000000E+00 -0.11375997146E+04  0.11375997146E+04  0.25500000000E-02 0.  1.
     200001    2    1    2    0    0 -0.22311554090E+02  0.18264521348E+03 -0.30075506675E+03  0.70645568584E+03  0.61218375217E+03 0.  0.
    5000001    2    3    3    0    0 -0.41999961265E+02 -0.93192010258E+02 -0.36063046822E+03  0.40602287958E+03  0.15604966073E+03 0.  0.
        -11    1    4    4    0    0 -0.40420271140E+02  0.19003695911E+02 -0.21579150661E+03  0.22036540814E+03  0.51100000000E-03 0. -1.
     200002    1    4    4    0    0 -0.15796901250E+01 -0.11219570617E+03 -0.14483896160E+03  0.18565747144E+03  0.30000000000E+02 0. -1.
     200000    1    3    3    0    0  0.19688407175E+02  0.27583722374E+03  0.59875401465E+02  0.30043280626E+03  0.10100000000E+03 0. -1.
    -200001    1    1    2    0    0  0.22311554090E+02 -0.18264521348E+03 -0.47246841660E+03  0.79552026004E+03  0.61300000000E+03 0.  1.
<mgrwt>
<rscale>  0 0.12876557E+04</rscale>
<asrwt>0</asrwt>
<pdfrwt beam="1">  1        2 0.16251424E+00 0.12876557E+04</pdfrwt>
<pdfrwt beam="2">  1       -2 0.52053748E-01 0.12876557E+04</pdfrwt>
<totfact> 0.79404085E+01</totfact>
</mgrwt>
</event>
<event>
 8    1  0.7326756E-052  0.1276051E+04  0.7818608E-02  0.9048775E-01
         -2   -1    0    0    0  501 -0.00000000000E+00  0.00000000000E+00  0.29347691778E+03  0.29347691779E+03  0.25500000000E-02 0. -1.
          2   -1    0    0  501    0  0.00000000000E+00 -0.00000000000E+00 -0.13870820946E+04  0.13870820946E+04  0.25500000000E-02 0.  1.
     200001    2    1    2    0    0 -0.50489535306E+02  0.16811021677E+03 -0.57865537214E+03  0.86095390049E+03  0.61285344162E+03 0.  0.
    5000001    2    3    3    0    0  0.94761532387E+02  0.25396051266E+03 -0.49147360635E+02  0.29611066540E+03  0.10858348445E+03 0.  0.
        -11    1    4    4    0    0  0.63412795111E+02  0.45254048751E+02 -0.23689233590E+02  0.81426600693E+02  0.51100000000E-03 0. -1.
     200002    1    4    4    0    0  0.31348737276E+02  0.20870646391E+03 -0.25458127045E+02  0.21468406471E+03  0.30000000000E+02 0. -1.
     200000    1    3    3    0    0 -0.14525106769E+03 -0.85850295895E+02 -0.52950801151E+03  0.56484323509E+03  0.10100000000E+03 0.  1.
    -200001    1    1    2    0    0  0.50489535306E+02 -0.16811021677E+03 -0.51494980472E+03  0.81960511195E+03  0.61300000000E+03 0. -1.
<mgrwt>
<rscale>  0 0.12760511E+04</rscale>
<asrwt>0</asrwt>
<pdfrwt beam="1">  1        2 0.19815458E+00 0.12760511E+04</pdfrwt>
<pdfrwt beam="2">  1       -2 0.41925275E-01 0.12760511E+04</pdfrwt>
<totfact> 0.88988675E+01</totfact>
</mgrwt>
</event>
<event>
 8    1  0.7326756E-052  0.2054724E+04  0.7818608E-02  0.8581454E-01
          2   -1    0    0  501    0  0.00000000000E+00  0.00000000000E+00  0.64975171304E+03  0.64975171304E+03  0.25500000000E-02 0.  1.
         -2   -1    0    0    0  501 -0.00000000000E+00 -0.00000000000E+00 -0.16244239799E+04  0.16244239799E+04  0.25500000000E-02 0. -1.
     200001    2    1    2    0    0 -0.30309751757E+03 -0.63447885705E+03 -0.96423022165E+03  0.13412718600E+04  0.61224076700E+03 0.  0.
    5000001    2    3    3    0    0 -0.47050241822E+03 -0.47325060697E+03 -0.71393925504E+03  0.98509000001E+03  0.12391281492E+03 0.  0.
        -11    1    4    4    0    0 -0.20937962193E+03 -0.13100620168E+03 -0.24763394743E+03  0.34974994335E+03  0.51100000000E-03 0. -1.
     200002    1    4    4    0    0 -0.26112279629E+03 -0.34224440529E+03 -0.46630530761E+03  0.63534005666E+03  0.30000000000E+02 0. -1.
     200000    1    3    3    0    0  0.16740490065E+03 -0.16122825008E+03 -0.25029096662E+03  0.35618185995E+03  0.10100000000E+03 0. -1.
    -200001    1    1    2    0    0  0.30309751757E+03  0.63447885705E+03 -0.10442045160E+02  0.93290383293E+03  0.61300000000E+03 0. -1.
<mgrwt>
<rscale>  0 0.20547236E+04</rscale>
<asrwt>0</asrwt>
<pdfrwt beam="1">  1        2 0.92821674E-01 0.20547236E+04</pdfrwt>
<pdfrwt beam="2">  1       -2 0.23206057E+00 0.20547236E+04</pdfrwt>
<totfact> 0.37977839E+00</totfact>
</mgrwt>
</event>
<event>
 8    1  0.7326756E-052  0.1450354E+04  0.7818608E-02  0.8918155E-01
          2   -1    0    0  501    0  0.00000000000E+00  0.00000000000E+00  0.12756234867E+04  0.12756234867E+04  0.25500000000E-02 0. -1.
         -2   -1    0    0    0  501 -0.00000000000E+00 -0.00000000000E+00 -0.41225483354E+03  0.41225483355E+03  0.25500000000E-02 0.  1.
     200001    2    1    2    0    0 -0.36707321631E+03 -0.32823166375E+01  0.59148933279E+03  0.92339098575E+03  0.60666115916E+03 0.  0.
    5000001    2    3    3    0    0 -0.40816706379E+03  0.20143636224E+03  0.48119072940E+03  0.66655402639E+03  0.74651135571E+02 0.  0.
        -11    1    4    4    0    0 -0.51671951245E+02  0.33177962676E+02  0.10011637525E+03  0.11744810065E+03  0.51100000000E-03 0. -1.
     200002    1    4    4    0    0 -0.35649511255E+03  0.16825839957E+03  0.38107435415E+03  0.54910592574E+03  0.30000000000E+02 0. -1.
     200000    1    3    3    0    0  0.41093847481E+02 -0.20471867888E+03  0.11029860339E+03  0.25683695936E+03  0.10100000000E+03 0. -1.
    -200001    1    1    2    0    0  0.36707321631E+03  0.32823166375E+01  0.27187932034E+03  0.76448733447E+03  0.61300000000E+03 0.  1.
<mgrwt>
<rscale>  0 0.14503544E+04</rscale>
<asrwt>0</asrwt>
<pdfrwt beam="1">  1        2 0.18223193E+00 0.14503544E+04</pdfrwt>
<pdfrwt beam="2">  1       -2 0.58893546E-01 0.14503544E+04</pdfrwt>
<totfact> 0.50667427E+01</totfact>
</mgrwt>
</event>
<event>
 8    1  0.7326756E-052  0.1800813E+04  0.7818608E-02  0.8705867E-01
         -2   -1    0    0    0  501 -0.00000000000E+00  0.00000000000E+00  0.48499012550E+03  0.48499012551E+03  0.25500000000E-02 0. -1.
          2   -1    0    0  501    0  0.00000000000E+00 -0.00000000000E+00 -0.16716464917E+04  0.16716464917E+04  0.25500000000E-02 0.  1.
     200001    2    1    2    0    0  0.65781868304E+03 -0.30993052417E+02 -0.63326475029E+03  0.11003708980E+04  0.61327471831E+03 0.  0.
    5000001    2    3    3    0    0  0.37328404135E+03 -0.30692901030E+03 -0.36524240550E+03  0.61135393255E+03  0.82493776581E+02 0.  0.
        -11    1    4    4    0    0  0.24344697460E+03 -0.16188041646E+03 -0.23656781743E+03  0.37607981988E+03  0.51100000000E-03 0. -1.
     200002    1    4    4    0    0  0.12983706675E+03 -0.14504859384E+03 -0.12867458807E+03  0.23527411267E+03  0.30000000000E+02 0. -1.
     200000    1    3    3    0    0  0.28453464169E+03  0.27593595789E+03 -0.26802234480E+03  0.48901696544E+03  0.10100000000E+03 0. -1.
    -200001    1    1    2    0    0 -0.65781868304E+03  0.30993052417E+02 -0.55339161590E+03  0.10562657192E+04  0.61300000000E+03 0. -1.
<mgrwt>
<rscale>  0 0.18008132E+04</rscale>
<asrwt>0</asrwt>
<pdfrwt beam="1">  1        2 0.23880664E+00 0.18008132E+04</pdfrwt>
<pdfrwt beam="2">  1       -2 0.69284304E-01 0.18008132E+04</pdfrwt>
<totfact> 0.21361641E+01</totfact>
</mgrwt>
</event>
<event>
 8    1  0.7326756E-052  0.1285113E+04  0.7818608E-02  0.9041455E-01
          2   -1    0    0  501    0  0.00000000000E+00  0.00000000000E+00  0.37916569013E+04  0.37916569013E+04  0.25500000000E-02 0.  1.
         -2   -1    0    0    0  501 -0.00000000000E+00 -0.00000000000E+00 -0.10889133143E+03  0.10889133146E+03  0.25500000000E-02 0. -1.
     200001    2    1    2    0    0 -0.13794511364E+03 -0.12073176452E+03  0.20255934567E+04  0.21241492275E+04  0.61267942298E+03 0.  0.
    5000001    2    3    3    0    0 -0.77899472021E+02  0.21849296459E+03  0.11870923761E+04  0.12120286443E+04  0.77573333545E+02 0.  0.
        -11    1    4    4    0    0  0.21677285798E+01  0.39460516523E+02  0.11164018879E+03  0.11842872610E+03  0.51100000000E-03 0. -1.
     200002    1    4    4    0    0 -0.80067200601E+02  0.17903244807E+03  0.10754521873E+04  0.10935999182E+04  0.30000000000E+02 0. -1.
     200000    1    3    3    0    0 -0.60045641621E+02 -0.33922472911E+03  0.83850108067E+03  0.91212058315E+03  0.10100000000E+03 0. -1.
    -200001    1    1    2    0    0  0.13794511364E+03  0.12073176452E+03  0.16571721131E+04  0.17763990052E+04  0.61300000000E+03 0.  1.
<mgrwt>
<rscale>  0 0.12851126E+04</rscale>
<asrwt>0</asrwt>
<pdfrwt beam="1">  1        2 0.54166516E+00 0.12851126E+04</pdfrwt>
<pdfrwt beam="2">  1       -2 0.15555908E-01 0.12851126E+04</pdfrwt>
<totfact> 0.26065490E+01</totfact>
</mgrwt>
</event>
<event>
 8    1  0.7326756E-052  0.1501823E+04  0.7818608E-02  0.8883241E-01
         -2   -1    0    0    0  501 -0.00000000000E+00  0.00000000000E+00  0.10998922634E+04  0.10998922634E+04  0.25500000000E-02 0. -1.
          2   -1    0    0  501    0  0.00000000000E+00 -0.00000000000E+00 -0.51265771931E+03  0.51265771932E+03  0.25500000000E-02 0.  1.
     200001    2    1    2    0    0 -0.40651769418E+03  0.14482401841E+03  0.25035829632E+03  0.79067089286E+03  0.61339265751E+03 0.  0.
    5000001    2    3    3    0    0 -0.30917336361E+03 -0.11888737969E+03  0.33623960475E+03  0.47987156962E+03  0.86586798712E+02 0.  0.
        -11    1    4    4    0    0 -0.13483775238E+03 -0.90430333610E+02  0.17672958901E+03  0.23998377515E+03  0.51100000000E-03 0. -1.
     200002    1    4    4    0    0 -0.17433561122E+03 -0.28457046084E+02  0.15951001575E+03  0.23988779447E+03  0.30000000000E+02 0. -1.
     200000    1    3    3    0    0 -0.97344330576E+02  0.26371139811E+03 -0.85881308430E+02  0.31079932324E+03  0.10100000000E+03 0.  1.
    -200001    1    1    2    0    0  0.40651769418E+03 -0.14482401841E+03  0.33687624772E+03  0.82187908981E+03  0.61300000000E+03 0.  1.
<mgrwt>
<rscale>  0 0.15018232E+04</rscale>
<asrwt>0</asrwt>
<pdfrwt beam="1">  1        2 0.73236818E-01 0.15018232E+04</pdfrwt>
<pdfrwt beam="2">  1       -2 0.15712746E+00 0.15018232E+04</pdfrwt>
<totfact> 0.16694992E+01</totfact>
</mgrwt>
</event>
<event>
 8    1  0.7326756E-052  0.1763691E+04  0.7818608E-02  0.8725850E-01
         -2   -1    0    0    0  501 -0.00000000000E+00  0.00000000000E+00  0.59453378884E+03  0.59453378884E+03  0.25500000000E-02 0. -1.
          2   -1    0    0  501    0  0.00000000000E+00 -0.00000000000E+00 -0.13080018085E+04  0.13080018085E+04  0.25500000000E-02 0.  1.
     200001    2    1    2    0    0 -0.49309758593E+03  0.23500850555E+03 -0.70179137246E+03  0.10813903172E+04  0.61523951501E+03 0.  0.
    5000001    2    3    3    0    0 -0.56697974692E+03  0.76736543633E+02 -0.57261868327E+03  0.84181742379E+03  0.23110579400E+03 0.  0.
        -11    1    4    4    0    0 -0.20204491225E+03  0.68033579355E+02 -0.35977044860E+03  0.41819312545E+03  0.51100000000E-03 0. -1.
     200002    1    4    4    0    0 -0.36493483467E+03  0.87029642779E+01 -0.21284823467E+03  0.42362429834E+03  0.30000000000E+02 0. -1.
     200000    1    3    3    0    0  0.73882160993E+02  0.15827196192E+03 -0.12917268919E+03  0.23957289345E+03  0.10100000000E+03 0. -1.
    -200001    1    1    2    0    0  0.49309758593E+03 -0.23500850555E+03 -0.11676647191E+02  0.82114528009E+03  0.61300000000E+03 0. -1.
<mgrwt>
<rscale>  0 0.17636908E+04</rscale>
<asrwt>0</asrwt>
<pdfrwt beam="1">  1        2 0.18685740E+00 0.17636908E+04</pdfrwt>
<pdfrwt beam="2">  1       -2 0.84933399E-01 0.17636908E+04</pdfrwt>
<totfact> 0.21301914E+01</totfact>
</mgrwt>
</event>
<event>
 8    1  0.7326756E-052  0.1261813E+04  0.7818608E-02  0.9060409E-01
         -2   -1    0    0    0  501 -0.00000000000E+00  0.00000000000E+00  0.41172409360E+03  0.41172409361E+03  0.25500000000E-02 0. -1.
          2   -1    0    0  501    0  0.00000000000E+00 -0.00000000000E+00 -0.96677051229E+03  0.96677051229E+03  0.25500000000E-02 0.  1.
     200001    2    1    2    0    0 -0.13806270298E+03 -0.65880382317E+02 -0.28643675452E+03  0.69196588370E+03  0.61103947101E+03 0.  0.
    5000001    2    3    3    0    0 -0.33269090585E+03 -0.61479501536E+02 -0.21772072116E+03  0.46213464486E+03  0.22738326591E+03 0.  0.
        -11    1    4    4    0    0 -0.30569898713E+03  0.23499585566E+02 -0.20092687290E+03  0.36657292522E+03  0.51100000000E-03 0. -1.
     200002    1    4    4    0    0 -0.26991918721E+02 -0.84979087102E+02 -0.16793848257E+02  0.95561719638E+02  0.30000000000E+02 0. -1.
     200000    1    3    3    0    0  0.19462820287E+03 -0.44008807806E+01 -0.68716033363E+02  0.22983123883E+03  0.10100000000E+03 0. -1.
    -200001    1    1    2    0    0  0.13806270298E+03  0.65880382317E+02 -0.26860966416E+03  0.68652872220E+03  0.61300000000E+03 0.  1.
<mgrwt>
<rscale>  0 0.12618125E+04</rscale>
<asrwt>0</asrwt>
<pdfrwt beam="1">  1        2 0.13811007E+00 0.12618125E+04</pdfrwt>
<pdfrwt beam="2">  1       -2 0.58817728E-01 0.12618125E+04</pdfrwt>
<totfact> 0.78264589E+01</totfact>
</mgrwt>
</event>
<event>
 8    1  0.7326756E-052  0.1248615E+04  0.7818608E-02  0.9071337E-01
          2   -1    0    0  501    0  0.00000000000E+00  0.00000000000E+00  0.78001734572E+03  0.78001734572E+03  0.25500000000E-02 0.  1.
         -2   -1    0    0    0  501 -0.00000000000E+00 -0.00000000000E+00 -0.49968108436E+03  0.49968108437E+03  0.25500000000E-02 0. -1.
     200001    2    1    2    0    0 -0.12550426546E+02  0.11286195411E+02  0.26290590527E+03  0.66621843145E+03  0.61191714469E+03 0.  0.
    5000001    2    3    3    0    0  0.95981850198E+02 -0.25062525199E+03  0.15030644241E+03  0.34488293635E+03  0.15597012742E+03 0.  0.
        -11    1    4    4    0    0  0.12840170516E+03 -0.13678242189E+03  0.79760207961E+02  0.20385808691E+03  0.51100000000E-03 0. -1.
     200002    1    4    4    0    0 -0.32419854963E+02 -0.11384283011E+03  0.70546234451E+02  0.14102484943E+03  0.30000000000E+02 0. -1.
     200000    1    3    3    0    0 -0.10853227674E+03  0.26191144741E+03  0.11259946286E+03  0.32133549510E+03  0.10100000000E+03 0.  1.
    -200001    1    1    2    0    0  0.12550426546E+02 -0.11286195411E+02  0.17430356087E+02  0.61347999864E+03  0.61300000000E+03 0. -1.
<mgrwt>
<rscale>  0 0.12486151E+04</rscale>
<asrwt>0</asrwt>
<pdfrwt beam="1">  1        2 0.11143105E+00 0.12486151E+04</pdfrwt>
<pdfrwt beam="2">  1       -2 0.71383011E-01 0.12486151E+04</pdfrwt>
<totfact> 0.68879230E+01</totfact>
</mgrwt>
</event>
<event>
 8    1  0.7326756E-052  0.2198210E+04  0.7818608E-02  0.8519173E-01
          2   -1    0    0  501    0  0.00000000000E+00  0.00000000000E+00  0.10942672449E+04  0.10942672449E+04  0.25500000000E-02 0.  1.
         -2   -1    0    0    0  501 -0.00000000000E+00 -0.00000000000E+00 -0.11039645018E+04  0.11039645018E+04  0.25500000000E-02 0. -1.
     200001    2    1    2    0    0  0.29759119288E+03  0.60431443840E+03 -0.61980568878E+03  0.11019846226E+04  0.61355892788E+03 0.  0.
    5000001    2    3    3    0    0  0.25081921650E+03 -0.27649292885E+02 -0.20271076910E+03  0.33665139615E+03  0.92562108110E+02 0.  0.
        -11    1    4    4    0    0  0.12715120369E+03 -0.47849208944E+02 -0.13314859670E+03  0.19022493054E+03  0.51100000000E-03 0. -1.
     200002    1    4    4    0    0  0.12366801281E+03  0.20199916059E+02 -0.69562172402E+02  0.14642646561E+03  0.30000000000E+02 0.  1.
     200000    1    3    3    0    0  0.46771976379E+02  0.63196373128E+03 -0.41709491968E+03  0.76533322641E+03  0.10100000000E+03 0.  1.
    -200001    1    1    2    0    0 -0.29759119288E+03 -0.60431443840E+03  0.61010843187E+03  0.10962471241E+04  0.61300000000E+03 0. -1.
<mgrwt>
<rscale>  0 0.21982104E+04</rscale>
<asrwt>0</asrwt>
<pdfrwt beam="1">  1        2 0.15632389E+00 0.21982104E+04</pdfrwt>
<pdfrwt beam="2">  1       -2 0.15770921E+00 0.21982104E+04</pdfrwt>
<totfact> 0.59239974E+00</totfact>
</mgrwt>
</event>
<event>
 8    1  0.7326756E-052  0.1325761E+04  0.7818608E-02  0.9009382E-01
          2   -1    0    0  501    0  0.00000000000E+00  0.00000000000E+00  0.15042860884E+04  0.15042860884E+04  0.25500000000E-02 0.  1.
         -2   -1    0    0    0  501 -0.00000000000E+00 -0.00000000000E+00 -0.29210575267E+03  0.29210575269E+03  0.25500000000E-02 0. -1.
     200001    2    1    2    0    0  0.35057577394E+02 -0.22797595354E+03  0.74738674458E+03  0.99327033626E+03  0.61220662018E+03 0.  0.
    5000001    2    3    3    0    0 -0.71140853774E+02  0.16971040349E+03  0.25127587753E+03  0.34076781691E+03  0.13827688268E+03 0.  0.
        -11    1    4    4    0    0 -0.41212142370E+02  0.18089806359E+03  0.21402872315E+03  0.28325049765E+03  0.51100000000E-03 0. -1.
     200002    1    4    4    0    0 -0.29928711404E+02 -0.11187660096E+02  0.37247154386E+02  0.57517319257E+02  0.30000000000E+02 0. -1.
     200000    1    3    3    0    0  0.10619843117E+03 -0.39768635704E+03  0.49611086705E+03  0.65250251935E+03  0.10100000000E+03 0. -1.
    -200001    1    1    2    0    0 -0.35057577394E+02  0.22797595354E+03  0.46479359112E+03  0.80312150480E+03  0.61300000000E+03 0.  1.
<mgrwt>
<rscale>  0 0.13257611E+04</rscale>
<asrwt>0</asrwt>
<pdfrwt beam="1">  1        2 0.21489801E+00 0.13257611E+04</pdfrwt>
<pdfrwt beam="2">  1       -2 0.41729393E-01 0.13257611E+04</pdfrwt>
<totfact> 0.77432360E+01</totfact>
</mgrwt>
</event>
<event>
 8    1  0.7326756E-052  0.1596061E+04  0.7818608E-02  0.8822971E-01
          2   -1    0    0  501    0  0.00000000000E+00  0.00000000000E+00  0.70207703394E+03  0.70207703395E+03  0.25500000000E-02 0.  1.
         -2   -1    0    0    0  501 -0.00000000000E+00 -0.00000000000E+00 -0.90709811268E+03  0.90709811269E+03  0.25500000000E-02 0. -1.
     200001    2    1    2    0    0  0.20194736863E+03 -0.21091236939E+03 -0.52561240675E+03  0.85829928016E+03  0.61248876311E+03 0.  0.
    5000001    2    3    3    0    0  0.19721965637E+03 -0.39864800351E+02 -0.17953421825E+03  0.45923696085E+03  0.37172739410E+03 0.  0.
        -11    1    4    4    0    0  0.20280833175E+03 -0.17807011496E+03 -0.66126763551E+02  0.27787215429E+03  0.51100000000E-03 0. -1.
     200002    1    4    4    0    0 -0.55886753778E+01  0.13820531461E+03 -0.11340745470E+03  0.18136480657E+03  0.30000000000E+02 0. -1.
     200000    1    3    3    0    0  0.47277122605E+01 -0.17104756904E+03 -0.34607818850E+03  0.39906231931E+03  0.10100000000E+03 0. -1.
    -200001    1    1    2    0    0 -0.20194736863E+03  0.21091236939E+03  0.32059132801E+03  0.75087586647E+03  0.61300000000E+03 0.  1.
<mgrwt>
<rscale>  0 0.15960611E+04</rscale>
<asrwt>0</asrwt>
<pdfrwt beam="1">  1        2 0.10029672E+00 0.15960611E+04</pdfrwt>
<pdfrwt beam="2">  1       -2 0.12958544E+00 0.15960611E+04</pdfrwt>
<totfact> 0.18873155E+01</totfact>
</mgrwt>
</event>
<event>
 8    1  0.7326756E-052  0.2191191E+04  0.7818608E-02  0.8522103E-01
          2   -1    0    0  501    0  0.00000000000E+00  0.00000000000E+00  0.71081013114E+03  0.71081013114E+03  0.25500000000E-02 0. -1.
         -2   -1    0    0    0  501 -0.00000000000E+00 -0.00000000000E+00 -0.16886786181E+04  0.16886786181E+04  0.25500000000E-02 0.  1.
     200001    2    1    2    0    0 -0.68030498787E+02 -0.85070534284E+03 -0.14963407304E+03  0.10615541568E+04  0.61333444626E+03 0.  0.
    5000001    2    3    3    0    0  0.22078674582E+03 -0.20891510037E+03 -0.16018672733E+03  0.35048279992E+03  0.69181638733E+02 0.  0.
        -11    1    4    4    0    0  0.13922413665E+03 -0.12969109645E+03 -0.12529214733E+03  0.22781848675E+03  0.51100000000E-03 0. -1.
     200002    1    4    4    0    0  0.81562609171E+02 -0.79224003919E+02 -0.34894579994E+02  0.12266431317E+03  0.30000000000E+02 0. -1.
     200000    1    3    3    0    0 -0.28881724460E+03 -0.64179024247E+03  0.10552654287E+02  0.71107135691E+03  0.10100000000E+03 0.  1.
    -200001    1    1    2    0    0  0.68030498787E+02  0.85070534284E+03 -0.82823441387E+03  0.13379345924E+04  0.61300000000E+03 0. -1.
<mgrwt>
<rscale>  0 0.21911913E+04</rscale>
<asrwt>0</asrwt>
<pdfrwt beam="1">  1        2 0.10154430E+00 0.21911913E+04</pdfrwt>
<pdfrwt beam="2">  1       -2 0.24123980E+00 0.21911913E+04</pdfrwt>
<totfact> 0.29508421E+00</totfact>
</mgrwt>
</event>
<event>
 8    1  0.7326756E-052  0.2002544E+04  0.7818608E-02  0.8605432E-01
         -2   -1    0    0    0  501 -0.00000000000E+00  0.00000000000E+00  0.32420142774E+03  0.32420142775E+03  0.25500000000E-02 0. -1.
          2   -1    0    0  501    0  0.00000000000E+00 -0.00000000000E+00 -0.30923527589E+04  0.30923527589E+04  0.25500000000E-02 0.  1.
     200001    2    1    2    0    0  0.68021423722E+03  0.26840985822E+02 -0.69476323185E+03  0.11498122390E+04  0.61315608904E+03 0.  0.
    5000001    2    3    3    0    0  0.40927470857E+03  0.30217002359E+03 -0.43164095726E+03  0.67164005386E+03  0.77291239764E+02 0.  0.
        -11    1    4    4    0    0  0.14371237825E+03  0.14417702028E+03 -0.18616043021E+03  0.27585497389E+03  0.51100000000E-03 0. -1.
     200002    1    4    4    0    0  0.26556233031E+03  0.15799300331E+03 -0.24548052704E+03  0.39578507998E+03  0.30000000000E+02 0. -1.
     200000    1    3    3    0    0  0.27093952865E+03 -0.27532903777E+03 -0.26312227459E+03  0.47817218511E+03  0.10100000000E+03 0.  1.
    -200001    1    1    2    0    0 -0.68021423722E+03 -0.26840985822E+02 -0.20733880993E+04  0.22667419477E+04  0.61300000000E+03 0.  1.
<mgrwt>
<rscale>  0 0.20025436E+04</rscale>
<asrwt>0</asrwt>
<pdfrwt beam="1">  1        2 0.44176466E+00 0.20025436E+04</pdfrwt>
<pdfrwt beam="2">  1       -2 0.46314491E-01 0.20025436E+04</pdfrwt>
<totfact> 0.86298531E+00</totfact>
</mgrwt>
</event>
<event>
 8    1  0.7326756E-052  0.1639669E+04  0.7818608E-02  0.8796542E-01
          2   -1    0    0  501    0  0.00000000000E+00  0.00000000000E+00  0.13376433067E+04  0.13376433067E+04  0.25500000000E-02 0.  1.
         -2   -1    0    0    0  501 -0.00000000000E+00 -0.00000000000E+00 -0.50247198977E+03  0.50247198978E+03  0.25500000000E-02 0. -1.
     200001    2    1    2    0    0 -0.65131984169E+02 -0.43453783278E+03  0.56794160944E+02  0.75627707033E+03  0.61291445318E+03 0.  0.
    5000001    2    3    3    0    0 -0.55122149487E+02 -0.55464116332E+02 -0.23876301336E+03  0.26500105567E+03  0.84279673674E+02 0.  0.
        -11    1    4    4    0    0 -0.47502168289E+02 -0.58215244677E+02 -0.20849922868E+03  0.22162445503E+03  0.51100000000E-03 0. -1.
     200002    1    4    4    0    0 -0.76199811978E+01  0.27511283449E+01 -0.30263784683E+02  0.43376600650E+02  0.30000000000E+02 0.  1.
     200000    1    3    3    0    0 -0.10009834682E+02 -0.37907371645E+03  0.29555717431E+03  0.49127601465E+03  0.10100000000E+03 0.  1.
    -200001    1    1    2    0    0  0.65131984169E+02  0.43453783278E+03  0.77837715595E+03  0.10838382261E+04  0.61300000000E+03 0.  1.
<mgrwt>
<rscale>  0 0.16396686E+04</rscale>
<asrwt>0</asrwt>
<pdfrwt beam="1">  1        2 0.19109190E+00 0.16396686E+04</pdfrwt>
<pdfrwt beam="2">  1       -2 0.71781714E-01 0.16396686E+04</pdfrwt>
<totfact> 0.30169175E+01</totfact>
</mgrwt>
</event>
<event>
 8    1  0.7326756E-052  0.1265801E+04  0.7818608E-02  0.9057134E-01
         -2   -1    0    0    0  501 -0.00000000000E+00  0.00000000000E+00  0.22905180040E+03  0.22905180042E+03  0.25500000000E-02 0. -1.
          2   -1    0    0  501    0  0.00000000000E+00 -0.00000000000E+00 -0.17487876025E+04  0.17487876025E+04  0.25500000000E-02 0.  1.
     200001    2    1    2    0    0 -0.16817178116E+02 -0.67785047190E+02 -0.98083892051E+03  0.11586590326E+04  0.61283614107E+03 0.  0.
    5000001    2    3    3    0    0  0.12115858093E+03 -0.28030040247E+03 -0.57298565921E+03  0.66800093470E+03  0.15705083807E+03 0.  0.
        -11    1    4    4    0    0 -0.27136289801E+02 -0.57918656290E+02 -0.55046749614E+02  0.84386572474E+02  0.51100000000E-03 0. -1.
     200002    1    4    4    0    0  0.14829487073E+03 -0.22238174618E+03 -0.51793890960E+03  0.58361436223E+03  0.30000000000E+02 0. -1.
     200000    1    3    3    0    0 -0.13797575905E+03  0.21251535528E+03 -0.40785326129E+03  0.49065809793E+03  0.10100000000E+03 0.  1.
    -200001    1    1    2    0    0  0.16817178116E+02  0.67785047190E+02 -0.53889688163E+03  0.81918037033E+03  0.61300000000E+03 0. -1.
<mgrwt>
<rscale>  0 0.12658009E+04</rscale>
<asrwt>0</asrwt>
<pdfrwt beam="1">  1        2 0.24982679E+00 0.12658009E+04</pdfrwt>
<pdfrwt beam="2">  1       -2 0.32721687E-01 0.12658009E+04</pdfrwt>
<totfact> 0.92552438E+01</totfact>
</mgrwt>
</event>
<event>
 8    1  0.7326756E-052  0.1685266E+04  0.7818608E-02  0.8769812E-01
          2   -1    0    0  501    0  0.00000000000E+00  0.00000000000E+00  0.70933593053E+03  0.70933593053E+03  0.25500000000E-02 0.  1.
         -2   -1    0    0    0  501 -0.00000000000E+00 -0.00000000000E+00 -0.10009794193E+04  0.10009794193E+04  0.25500000000E-02 0. -1.
     200001    2    1    2    0    0 -0.37820395164E+02  0.55128618203E+03  0.29205074679E+02  0.82484392880E+03  0.61169251565E+03 0.  0.
    5000001    2    3    3    0    0 -0.29580800887E+01  0.46406512482E+03  0.27359209075E+03  0.54422157143E+03  0.77196479060E+02 0.  0.
        -11    1    4    4    0    0  0.24807327806E+01  0.38401020539E+03  0.21138503233E+03  0.43835330930E+03  0.51100000000E-03 0. -1.
     200002    1    4    4    0    0 -0.54388128693E+01  0.80054919433E+02  0.62207058411E+02  0.10586826213E+03  0.30000000000E+02 0.  1.
     200000    1    3    3    0    0 -0.34862315075E+02  0.87221057204E+02 -0.24438701607E+03  0.28062235737E+03  0.10100000000E+03 0. -1.
    -200001    1    1    2    0    0  0.37820395164E+02 -0.55128618203E+03 -0.32084856344E+03  0.88547142102E+03  0.61300000000E+03 0.  1.
<mgrwt>
<rscale>  0 0.16852664E+04</rscale>
<asrwt>0</asrwt>
<pdfrwt beam="1">  1        2 0.10133370E+00 0.16852664E+04</pdfrwt>
<pdfrwt beam="2">  1       -2 0.14299706E+00 0.16852664E+04</pdfrwt>
<totfact> 0.14366505E+01</totfact>
</mgrwt>
</event>
<event>
 8    1  0.7326756E-052  0.1367584E+04  0.7818608E-02  0.8977623E-01
          2   -1    0    0  501    0  0.00000000000E+00  0.00000000000E+00  0.21681759857E+04  0.21681759857E+04  0.25500000000E-02 0.  1.
         -2   -1    0    0    0  501 -0.00000000000E+00 -0.00000000000E+00 -0.21565203526E+03  0.21565203528E+03  0.25500000000E-02 0. -1.
     200001    2    1    2    0    0 -0.89489541750E+02  0.17875393470E+03  0.57843112563E+03  0.86598038750E+03  0.61268108930E+03 0.  0.
    5000001    2    3    3    0    0 -0.21993721178E+03  0.22667008403E+03  0.32400092250E+03  0.55898155975E+03  0.32822565749E+03 0.  0.
        -11    1    4    4    0    0 -0.30267658296E+03  0.15098625294E+03  0.22324724725E+03  0.40527681386E+03  0.51100000000E-03 0. -1.
     200002    1    4    4    0    0  0.82739371177E+02  0.75683831088E+02  0.10075367525E+03  0.15370474589E+03  0.30000000000E+02 0. -1.
     200000    1    3    3    0    0  0.13044767003E+03 -0.47916149324E+02  0.25443020312E+03  0.30699882776E+03  0.10100000000E+03 0.  1.
    -200001    1    1    2    0    0  0.89489541750E+02 -0.17875393470E+03  0.13740928248E+04  0.15178476334E+04  0.61300000000E+03 0.  1.
<mgrwt>
<rscale>  0 0.13675841E+04</rscale>
<asrwt>0</asrwt>
<pdfrwt beam="1">  1        2 0.30973943E+00 0.13675841E+04</pdfrwt>
<pdfrwt beam="2">  1       -2 0.30807434E-01 0.13675841E+04</pdfrwt>
<totfact> 0.62621266E+01</totfact>
</mgrwt>
</event>
<event>
 8    1  0.7326756E-052  0.1377974E+04  0.7818608E-02  0.8969918E-01
          2   -1    0    0  501    0  0.00000000000E+00  0.00000000000E+00  0.99092384453E+03  0.99092384454E+03  0.25500000000E-02 0.  1.
         -2   -1    0    0    0  501 -0.00000000000E+00 -0.00000000000E+00 -0.47905081339E+03  0.47905081340E+03  0.25500000000E-02 0. -1.
     200001    2    1    2    0    0 -0.10478476106E+03  0.20658029279E+03  0.29364722970E+02  0.65619426312E+03  0.61324820463E+03 0.  0.
    5000001    2    3    3    0    0  0.95017437808E+02  0.13599138933E+01  0.24980072972E+03  0.28092188783E+03  0.86524792078E+02 0.  0.
        -11    1    4    4    0    0  0.51842267759E+01 -0.23393935110E+02  0.20259126983E+02  0.31378091618E+02  0.51100000000E-03 0. -1.
     200002    1    4    4    0    0  0.89833211032E+02  0.24753849003E+02  0.22954160273E+03  0.24954379622E+03  0.30000000000E+02 0. -1.
     200000    1    3    3    0    0 -0.19980219887E+03  0.20522037889E+03 -0.22043600675E+03  0.37527237529E+03  0.10100000000E+03 0. -1.
    -200001    1    1    2    0    0  0.10478476106E+03 -0.20658029279E+03  0.48250830817E+03  0.81378039481E+03  0.61300000000E+03 0.  1.
<mgrwt>
<rscale>  0 0.13779737E+04</rscale>
<asrwt>0</asrwt>
<pdfrwt beam="1">  1        2 0.14156055E+00 0.13779737E+04</pdfrwt>
<pdfrwt beam="2">  1       -2 0.68435831E-01 0.13779737E+04</pdfrwt>
<totfact> 0.54244537E+01</totfact>
</mgrwt>
</event>
<event>
 8    1  0.7326756E-052  0.1297224E+04  0.7818608E-02  0.9031770E-01
         -2   -1    0    0    0  501 -0.00000000000E+00  0.00000000000E+00  0.11700004683E+04  0.11700004683E+04  0.25500000000E-02 0.  1.
          2   -1    0    0  501    0  0.00000000000E+00 -0.00000000000E+00 -0.35957017168E+03  0.35957017169E+03  0.25500000000E-02 0. -1.
     200001    2    1    2    0    0  0.26147208249E+02 -0.92724270004E+02  0.18277175486E+03  0.64695763772E+03  0.61308009581E+03 0.  0.
    5000001    2    3    3    0    0  0.55065827700E+02 -0.25848139100E+03 -0.97112671417E+02  0.30512726782E+03  0.11758785541E+03 0.  0.
        -11    1    4    4    0    0 -0.27726882091E+02 -0.13092399139E+03 -0.36701585669E+02  0.13876915328E+03  0.51100000000E-03 0. -1.
     200002    1    4    4    0    0  0.82792709791E+02 -0.12755739962E+03 -0.60411085748E+02  0.16635811454E+03  0.30000000000E+02 0. -1.
     200000    1    3    3    0    0 -0.28918619452E+02  0.16575712100E+03  0.27988442628E+03  0.34183036990E+03  0.10100000000E+03 0.  1.
    -200001    1    1    2    0    0 -0.26147208249E+02  0.92724270004E+02  0.62765854175E+03  0.88261300227E+03  0.61300000000E+03 0.  1.
<mgrwt>
<rscale>  0 0.12972236E+04</rscale>
<asrwt>0</asrwt>
<pdfrwt beam="1">  1        2 0.51367167E-01 0.12972236E+04</pdfrwt>
<pdfrwt beam="2">  1       -2 0.16714292E+00 0.12972236E+04</pdfrwt>
<totfact> 0.21348043E+01</totfact>
</mgrwt>
</event>
<event>
 8    1  0.7326756E-052  0.1445672E+04  0.7818608E-02  0.8921406E-01
         -2   -1    0    0    0  501 -0.00000000000E+00  0.00000000000E+00  0.20411018314E+03  0.20411018315E+03  0.25500000000E-02 0. -1.
          2   -1    0    0  501    0  0.00000000000E+00 -0.00000000000E+00 -0.25598529797E+04  0.25598529797E+04  0.25500000000E-02 0.  1.
     200001    2    1    2    0    0 -0.32778355284E+03 -0.17596367071E+03 -0.10020933635E+04  0.12321207889E+04  0.61280115732E+03 0.  0.
    5000001    2    3    3    0    0 -0.72625370756E+02 -0.82943786826E+02  0.51420640359E+02  0.13948583021E+03  0.68250262447E+02 0.  0.
        -11    1    4    4    0    0  0.77512168921E+01 -0.21424764707E+02  0.17066477370E+02  0.28466937948E+02  0.51100000000E-03 0. -1.
     200002    1    4    4    0    0 -0.80376587648E+02 -0.61519022119E+02  0.34354162988E+02  0.11101889226E+03  0.30000000000E+02 0. -1.
     200000    1    3    3    0    0 -0.25515818209E+03 -0.93019883886E+02 -0.10535140039E+04  0.10926349587E+04  0.10100000000E+03 0.  1.
    -200001    1    1    2    0    0  0.32778355284E+03  0.17596367071E+03 -0.13536494330E+04  0.15318423739E+04  0.61300000000E+03 0. -1.
<mgrwt>
<rscale>  0 0.14456722E+04</rscale>
<asrwt>0</asrwt>
<pdfrwt beam="1">  1        2 0.36569326E+00 0.14456722E+04</pdfrwt>
<pdfrwt beam="2">  1       -2 0.29158599E-01 0.14456722E+04</pdfrwt>
<totfact> 0.43131755E+01</totfact>
</mgrwt>
</event>
<event>
 8    1  0.7326756E-052  0.1337767E+04  0.7818608E-02  0.9000141E-01
          2   -1    0    0  501    0  0.00000000000E+00  0.00000000000E+00  0.12652588314E+04  0.12652588314E+04  0.25500000000E-02 0.  1.
         -2   -1    0    0    0  501 -0.00000000000E+00 -0.00000000000E+00 -0.35360734840E+03  0.35360734841E+03  0.25500000000E-02 0. -1.
     200001    2    1    2    0    0  0.15126414888E+03  0.14482026778E+02  0.72288690584E+03  0.95970638324E+03  0.61268286377E+03 0.  0.
    5000001    2    3    3    0    0 -0.17560108650E+03 -0.13489856401E+03  0.18481093732E+03  0.30481540689E+03  0.98610271120E+02 0.  0.
        -11    1    4    4    0    0 -0.16778201699E+02  0.13343902395E+02  0.72499258328E+01  0.22630271944E+02  0.51100000000E-03 0. -1.
     200002    1    4    4    0    0 -0.15882288481E+03 -0.14824246641E+03  0.17756101149E+03  0.28218513495E+03  0.30000000000E+02 0. -1.
     200000    1    3    3    0    0  0.32686523538E+03  0.14938059079E+03  0.53807596852E+03  0.65489097635E+03  0.10100000000E+03 0. -1.
    -200001    1    1    2    0    0 -0.15126414888E+03 -0.14482026778E+02  0.18876457718E+03  0.65915979658E+03  0.61300000000E+03 0. -1.
<mgrwt>
<rscale>  0 0.13377665E+04</rscale>
<asrwt>0</asrwt>
<pdfrwt beam="1">  1        2 0.18075126E+00 0.13377665E+04</pdfrwt>
<pdfrwt beam="2">  1       -2 0.50515335E-01 0.13377665E+04</pdfrwt>
<totfact> 0.71153015E+01</totfact>
</mgrwt>
</event>
<event>
 8    1  0.7326756E-052  0.1455181E+04  0.7818608E-02  0.8914816E-01
          2   -1    0    0  501    0  0.00000000000E+00  0.00000000000E+00  0.13173978021E+04  0.13173978021E+04  0.25500000000E-02 0.  1.
         -2   -1    0    0    0  501 -0.00000000000E+00 -0.00000000000E+00 -0.40184385508E+03  0.40184385509E+03  0.25500000000E-02 0. -1.
     200001    2    1    2    0    0  0.15288657205E+03  0.19954825888E+03  0.10301486510E+03  0.67082257535E+03  0.61334904714E+03 0.  0.
    5000001    2    3    3    0    0  0.23085613409E+03 -0.12517407822E+03 -0.63623828648E+02  0.28417893701E+03  0.88014613350E+02 0.  0.
        -11    1    4    4    0    0  0.16714991744E+03 -0.10041789262E+03 -0.74515004390E+02  0.20874705732E+03  0.51100000000E-03 0. -1.
     200002    1    4    4    0    0  0.63706216645E+02 -0.24756185603E+02  0.10891175741E+02  0.75431879692E+02  0.30000000000E+02 0. -1.
     200000    1    3    3    0    0 -0.77969562033E+02  0.32472233710E+03  0.16663869375E+03  0.38664363834E+03  0.10100000000E+03 0. -1.
    -200001    1    1    2    0    0 -0.15288657205E+03 -0.19954825888E+03  0.81253908189E+03  0.10484190818E+04  0.61300000000E+03 0.  1.
<mgrwt>
<rscale>  0 0.14551814E+04</rscale>
<asrwt>0</asrwt>
<pdfrwt beam="1">  1        2 0.18819968E+00 0.14551814E+04</pdfrwt>
<pdfrwt beam="2">  1       -2 0.57406266E-01 0.14551814E+04</pdfrwt>
<totfact> 0.50665880E+01</totfact>
</mgrwt>
</event>
<event>
 8    1  0.7326756E-052  0.1598080E+04  0.7818608E-02  0.8821728E-01
         -2   -1    0    0    0  501 -0.00000000000E+00  0.00000000000E+00  0.30000657574E+03  0.30000657575E+03  0.25500000000E-02 0. -1.
          2   -1    0    0  501    0  0.00000000000E+00 -0.00000000000E+00 -0.21281694464E+04  0.21281694464E+04  0.25500000000E-02 0.  1.
     200001    2    1    2    0    0 -0.43543382377E+03 -0.55990040555E+02 -0.13150606984E+04  0.15161560998E+04  0.61368328889E+03 0.  0.
    5000001    2    3    3    0    0 -0.30680212131E+03 -0.31470550788E+03 -0.82650846483E+03  0.93964582860E+03  0.81553310456E+02 0.  0.
        -11    1    4    4    0    0 -0.26140917383E+03 -0.25318809506E+03 -0.64930619991E+03  0.74433695923E+03  0.51100000000E-03 0. -1.
     200002    1    4    4    0    0 -0.45392947481E+02 -0.61517412822E+02 -0.17720226493E+03  0.19530886938E+03  0.30000000000E+02 0. -1.
     200000    1    3    3    0    0 -0.12863170246E+03  0.25871546732E+03 -0.48855223356E+03  0.57651027122E+03  0.10100000000E+03 0.  1.
    -200001    1    1    2    0    0  0.43543382377E+03  0.55990040555E+02 -0.51310217225E+03  0.91201992231E+03  0.61300000000E+03 0. -1.
<mgrwt>
<rscale>  0 0.15980799E+04</rscale>
<asrwt>0</asrwt>
<pdfrwt beam="1">  1        2 0.30402420E+00 0.15980799E+04</pdfrwt>
<pdfrwt beam="2">  1       -2 0.42858084E-01 0.15980799E+04</pdfrwt>
<totfact> 0.34172626E+01</totfact>
</mgrwt>
</event>
<event>
 8    1  0.7326756E-052  0.1386567E+04  0.7818608E-02  0.8963600E-01
          2   -1    0    0  501    0  0.00000000000E+00  0.00000000000E+00  0.34848910552E+03  0.34848910553E+03  0.25500000000E-02 0.  1.
         -2   -1    0    0    0  501 -0.00000000000E+00 -0.00000000000E+00 -0.13792161057E+04  0.13792161057E+04  0.25500000000E-02 0. -1.
     200001    2    1    2    0    0 -0.15114302845E+03 -0.44223530236E+02 -0.16265455111E+03  0.65340603852E+03  0.61292985936E+03 0.  0.
    5000001    2    3    3    0    0 -0.48004740914E+02  0.24709711538E+03 -0.17569524442E+03  0.32801967648E+03  0.11561422780E+03 0.  0.
        -11    1    4    4    0    0  0.84802843161E+01 -0.93896721112E+01 -0.84516816427E+01  0.15215521262E+02  0.51100000000E-03 0. -1.
     200002    1    4    4    0    0 -0.56485025230E+02  0.25648678749E+03 -0.16724356278E+03  0.31280415522E+03  0.30000000000E+02 0. -1.
     200000    1    3    3    0    0 -0.10313828753E+03 -0.29132064561E+03  0.13040693310E+02  0.32538636204E+03  0.10100000000E+03 0. -1.
    -200001    1    1    2    0    0  0.15114302845E+03  0.44223530236E+02 -0.86807244910E+03  0.10742991727E+04  0.61300000000E+03 0. -1.
<mgrwt>
<rscale>  0 0.13865667E+04</rscale>
<asrwt>0</asrwt>
<pdfrwt beam="1">  1        2 0.49784159E-01 0.13865667E+04</pdfrwt>
<pdfrwt beam="2">  1       -2 0.19703087E+00 0.13865667E+04</pdfrwt>
<totfact> 0.13688355E+01</totfact>
</mgrwt>
</event>
<event>
 8    1  0.7326756E-052  0.1512891E+04  0.7818608E-02  0.8875926E-01
         -2   -1    0    0    0  501 -0.00000000000E+00  0.00000000000E+00  0.20982038842E+03  0.20982038844E+03  0.25500000000E-02 0. -1.
          2   -1    0    0  501    0  0.00000000000E+00 -0.00000000000E+00 -0.27271397301E+04  0.27271397301E+04  0.25500000000E-02 0.  1.
     200001    2    1    2    0    0  0.31605865288E+02 -0.42565878707E+02 -0.40467972839E+03  0.73654517576E+03  0.61312505137E+03 0.  0.
    5000001    2    3    3    0    0  0.21164957063E+03 -0.17752659124E+03 -0.39714096857E+03  0.48979031226E+03  0.76566113392E+02 0.  0.
        -11    1    4    4    0    0  0.29405474677E+02 -0.62474509997E+02 -0.93904116294E+02  0.11655783714E+03  0.51100000000E-03 0. -1.
     200002    1    4    4    0    0  0.18224409595E+03 -0.11505208124E+03 -0.30323685228E+03  0.37323247512E+03  0.30000000000E+02 0. -1.
     200000    1    3    3    0    0 -0.18004370534E+03  0.13496071253E+03 -0.75387598119E+01  0.24675486350E+03  0.10100000000E+03 0. -1.
    -200001    1    1    2    0    0 -0.31605865288E+02  0.42565878707E+02 -0.21126396133E+04  0.22004149428E+04  0.61300000000E+03 0.  1.
<mgrwt>
<rscale>  0 0.15128906E+04</rscale>
<asrwt>0</asrwt>
<pdfrwt beam="1">  1        2 0.38959137E+00 0.15128906E+04</pdfrwt>
<pdfrwt beam="2">  1       -2 0.29974343E-01 0.15128906E+04</pdfrwt>
<totfact> 0.33188118E+01</totfact>
</mgrwt>
</event>
<event>
 8    1  0.7326756E-052  0.1351435E+04  0.7818608E-02  0.8989742E-01
          2   -1    0    0  501    0  0.00000000000E+00  0.00000000000E+00  0.12605075009E+04  0.12605075009E+04  0.25500000000E-02 0.  1.
         -2   -1    0    0    0  501 -0.00000000000E+00 -0.00000000000E+00 -0.36223056532E+03  0.36223056533E+03  0.25500000000E-02 0. -1.
     200001    2    1    2    0    0 -0.11299049599E+02 -0.22230711950E+03  0.66132326864E+03  0.92886187831E+03  0.61309689237E+03 0.  0.
    5000001    2    3    3    0    0  0.98943370592E+02 -0.13588854249E+03 -0.48870224728E+02  0.19797381596E+03  0.92465379348E+02 0.  0.
        -11    1    4    4    0    0 -0.12390911327E+02 -0.33264817713E+02 -0.20614344182E+02  0.41049165245E+02  0.51100000000E-03 0. -1.
     200002    1    4    4    0    0  0.11133428192E+03 -0.10262372478E+03 -0.28255880546E+02  0.15692465072E+03  0.30000000000E+02 0. -1.
     200000    1    3    3    0    0 -0.11024242019E+03 -0.86418577010E+02  0.71019349337E+03  0.73088806235E+03  0.10100000000E+03 0.  1.
    -200001    1    1    2    0    0  0.11299049599E+02  0.22230711950E+03  0.23695366695E+03  0.69387618793E+03  0.61300000000E+03 0. -1.
<mgrwt>
<rscale>  0 0.13514353E+04</rscale>
<asrwt>0</asrwt>
<pdfrwt beam="1">  1        2 0.18007250E+00 0.13514353E+04</pdfrwt>
<pdfrwt beam="2">  1       -2 0.51747224E-01 0.13514353E+04</pdfrwt>
<totfact> 0.68079920E+01</totfact>
</mgrwt>
</event>
<event>
 8    1  0.7326756E-052  0.1702123E+04  0.7818608E-02  0.8760154E-01
          2   -1    0    0  501    0  0.00000000000E+00  0.00000000000E+00  0.13615995622E+04  0.13615995622E+04  0.25500000000E-02 0.  1.
         -2   -1    0    0    0  501 -0.00000000000E+00 -0.00000000000E+00 -0.53195206138E+03  0.53195206139E+03  0.25500000000E-02 0. -1.
     200001    2    1    2    0    0  0.15769378178E+02  0.16272305574E+03 -0.21659369462E+03  0.66998425511E+03  0.61256722683E+03 0.  0.
    5000001    2    3    3    0    0  0.38351528543E+02  0.10257009915E+03  0.19969465617E+03  0.23682686719E+03  0.64942623461E+02 0.  0.
        -11    1    4    4    0    0  0.36437861199E+02  0.74352298744E+02  0.15686487053E+03  0.17737691412E+03  0.51100000000E-03 0. -1.
     200002    1    4    4    0    0  0.19136673443E+01  0.28217800402E+02  0.42829785640E+02  0.59449953071E+02  0.30000000000E+02 0.  1.
     200000    1    3    3    0    0 -0.22582150365E+02  0.60152956590E+02 -0.41628835079E+03  0.43315738792E+03  0.10100000000E+03 0. -1.
    -200001    1    1    2    0    0 -0.15769378178E+02 -0.16272305574E+03  0.10462411954E+04  0.12235673684E+04  0.61300000000E+03 0.  1.
<mgrwt>
<rscale>  0 0.17021230E+04</rscale>
<asrwt>0</asrwt>
<pdfrwt beam="1">  1        2 0.19451422E+00 0.17021230E+04</pdfrwt>
<pdfrwt beam="2">  1       -2 0.75993152E-01 0.17021230E+04</pdfrwt>
<totfact> 0.25684987E+01</totfact>
</mgrwt>
</event>
<event>
 8    1  0.7326756E-052  0.1442653E+04  0.7818608E-02  0.8923510E-01
          2   -1    0    0  501    0  0.00000000000E+00  0.00000000000E+00  0.94692001130E+03  0.94692001130E+03  0.25500000000E-02 0.  1.
         -2   -1    0    0    0  501 -0.00000000000E+00 -0.00000000000E+00 -0.54947788609E+03  0.54947788610E+03  0.25500000000E-02 0. -1.
     200001    2    1    2    0    0  0.33056886528E+03 -0.12126484866E+03  0.50434285032E+02  0.70889273592E+03  0.61319194036E+03 0.  0.
    5000001    2    3    3    0    0  0.36097513294E+03 -0.26662604398E+03 -0.10577247955E+03  0.47086758699E+03  0.95582284543E+02 0.  0.
        -11    1    4    4    0    0  0.31855156984E+03 -0.22217610870E+03 -0.10564286980E+03  0.40248943075E+03  0.51100000000E-03 0. -1.
     200002    1    4    4    0    0  0.42423563101E+02 -0.44449935285E+02 -0.12960975717E+00  0.68378156247E+02  0.30000000000E+02 0.  1.
     200000    1    3    3    0    0 -0.30406267663E+02  0.14536119533E+03  0.15620676459E+03  0.23802514893E+03  0.10100000000E+03 0.  1.
    -200001    1    1    2    0    0 -0.33056886528E+03  0.12126484866E+03  0.34700784017E+03  0.78750516148E+03  0.61300000000E+03 0.  1.
<mgrwt>
<rscale>  0 0.14426526E+04</rscale>
<asrwt>0</asrwt>
<pdfrwt beam="1">  1        2 0.13527429E+00 0.14426526E+04</pdfrwt>
<pdfrwt beam="2">  1       -2 0.78496840E-01 0.14426526E+04</pdfrwt>
<totfact> 0.42525373E+01</totfact>
</mgrwt>
</event>
<event>
 8    1  0.7326756E-052  0.1399590E+04  0.7818608E-02  0.8954115E-01
          2   -1    0    0  501    0  0.00000000000E+00  0.00000000000E+00  0.62686420705E+03  0.62686420705E+03  0.25500000000E-02 0.  1.
         -2   -1    0    0    0  501 -0.00000000000E+00 -0.00000000000E+00 -0.78121100428E+03  0.78121100428E+03  0.25500000000E-02 0. -1.
     200001    2    1    2    0    0  0.15006593970E+02  0.32811913968E+03 -0.15392555751E+03  0.71262101074E+03  0.61339078898E+03 0.  0.
    5000001    2    3    3    0    0 -0.27850717960E+03  0.10830498989E+03 -0.80412615604E+02  0.32522747910E+03  0.10005250866E+03 0.  0.
        -11    1    4    4    0    0 -0.12586309136E+03  0.17533298425E+02  0.21472344849E+01  0.12709659687E+03  0.51100000000E-03 0. -1.
     200002    1    4    4    0    0 -0.15264408824E+03  0.90771691463E+02 -0.82559850089E+02  0.19813088223E+03  0.30000000000E+02 0. -1.
     200000    1    3    3    0    0  0.29351377357E+03  0.21981414979E+03 -0.73512941908E+02  0.38739353164E+03  0.10100000000E+03 0. -1.
    -200001    1    1    2    0    0 -0.15006593970E+02 -0.32811913968E+03 -0.42123971924E+00  0.69545420060E+03  0.61300000000E+03 0.  1.
<mgrwt>
<rscale>  0 0.13995902E+04</rscale>
<asrwt>0</asrwt>
<pdfrwt beam="1">  1        2 0.89552030E-01 0.13995902E+04</pdfrwt>
<pdfrwt beam="2">  1       -2 0.11160157E+00 0.13995902E+04</pdfrwt>
<totfact> 0.31848240E+01</totfact>
</mgrwt>
</event>
<event>
 8    1  0.7326756E-052  0.1977613E+04  0.7818608E-02  0.8617160E-01
          2   -1    0    0  501    0  0.00000000000E+00  0.00000000000E+00  0.16968001733E+04  0.16968001733E+04  0.25500000000E-02 0.  1.
         -2   -1    0    0    0  501 -0.00000000000E+00 -0.00000000000E+00 -0.57622462425E+03  0.57622462425E+03  0.25500000000E-02 0. -1.
     200001    2    1    2    0    0 -0.50480463681E+03  0.53464328452E+03  0.27615698772E+03  0.99651280399E+03  0.61327312318E+03 0.  0.
    5000001    2    3    3    0    0 -0.26951387244E+03  0.67422799961E+02 -0.58831109954E+02  0.36716810466E+03  0.23273967472E+03 0.  0.
        -11    1    4    4    0    0 -0.25462527572E+03  0.70827358645E+01 -0.11375299500E+03  0.27896942494E+03  0.51100000000E-03 0. -1.
     200002    1    4    4    0    0 -0.14888596720E+02  0.60340064097E+02  0.54921885042E+02  0.88198679718E+02  0.30000000000E+02 0. -1.
     200000    1    3    3    0    0 -0.23529076437E+03  0.46722048456E+03  0.33498809768E+03  0.62934469933E+03  0.10100000000E+03 0.  1.
    -200001    1    1    2    0    0  0.50480463681E+03 -0.53464328452E+03  0.84441856135E+03  0.12765119936E+04  0.61300000000E+03 0.  1.
<mgrwt>
<rscale>  0 0.19776127E+04</rscale>
<asrwt>0</asrwt>
<pdfrwt beam="1">  1        2 0.24240003E+00 0.19776127E+04</pdfrwt>
<pdfrwt beam="2">  1       -2 0.82317801E-01 0.19776127E+04</pdfrwt>
<totfact> 0.13942366E+01</totfact>
</mgrwt>
</event>
<event>
 8    1  0.7326756E-052  0.1299927E+04  0.7818608E-02  0.9029623E-01
          2   -1    0    0  501    0  0.00000000000E+00  0.00000000000E+00  0.18887513173E+04  0.18887513173E+04  0.25500000000E-02 0.  1.
         -2   -1    0    0    0  501 -0.00000000000E+00 -0.00000000000E+00 -0.22366766538E+03  0.22366766540E+03  0.25500000000E-02 0. -1.
     200001    2    1    2    0    0 -0.19285377060E+02  0.33757963690E+02  0.49181032665E+03  0.78808865319E+03  0.61456879355E+03 0.  0.
    5000001    2    3    3    0    0 -0.15393577714E+03 -0.18170983960E+03  0.33243593877E+03  0.47161069185E+03  0.23492190617E+03 0.  0.
        -11    1    4    4    0    0 -0.10903461008E+03 -0.23434396191E+03  0.26922957733E+03  0.37321602858E+03  0.51100000000E-03 0. -1.
     200002    1    4    4    0    0 -0.44901167055E+02  0.52634122312E+02  0.63206361443E+02  0.98394663277E+02  0.30000000000E+02 0. -1.
     200000    1    3    3    0    0  0.13465040008E+03  0.21546780329E+03  0.15937438789E+03  0.31647796133E+03  0.10100000000E+03 0.  1.
    -200001    1    1    2    0    0  0.19285377060E+02 -0.33757963690E+02  0.11732733252E+04  0.13243303295E+04  0.61300000000E+03 0.  1.
<mgrwt>
<rscale>  0 0.12999271E+04</rscale>
<asrwt>0</asrwt>
<pdfrwt beam="1">  1        2 0.26982161E+00 0.12999271E+04</pdfrwt>
<pdfrwt beam="2">  1       -2 0.31952524E-01 0.12999271E+04</pdfrwt>
<totfact> 0.81784631E+01</totfact>
</mgrwt>
</event>
<event>
 8    1  0.7326756E-052  0.1587402E+04  0.7818608E-02  0.8828325E-01
         -2   -1    0    0    0  501 -0.00000000000E+00  0.00000000000E+00  0.16344453420E+03  0.16344453422E+03  0.25500000000E-02 0. -1.
          2   -1    0    0  501    0  0.00000000000E+00 -0.00000000000E+00 -0.38542825343E+04  0.38542825343E+04  0.25500000000E-02 0.  1.
     200001    2    1    2    0    0 -0.49544097282E+03  0.74925916516E+02 -0.17088963228E+04  0.18834971224E+04  0.61331812112E+03 0.  0.
    5000001    2    3    3    0    0 -0.40904401268E+03 -0.21252211018E+03 -0.89573609533E+03  0.10108452111E+04  0.83559779762E+02 0.  0.
        -11    1    4    4    0    0 -0.22648150853E+03 -0.12628348920E+03 -0.57347265161E+03  0.62937451131E+03  0.51100000000E-03 0. -1.
     200002    1    4    4    0    0 -0.18256250415E+03 -0.86238620976E+02 -0.32226344372E+03  0.38147069983E+03  0.30000000000E+02 0. -1.
     200000    1    3    3    0    0 -0.86396960139E+02  0.28744802669E+03 -0.81316022744E+03  0.87265191128E+03  0.10100000000E+03 0.  1.
    -200001    1    1    2    0    0  0.49544097282E+03 -0.74925916516E+02 -0.19819416773E+04  0.21342299461E+04  0.61300000000E+03 0. -1.
<mgrwt>
<rscale>  0 0.15874022E+04</rscale>
<asrwt>0</asrwt>
<pdfrwt beam="1">  1        2 0.55061174E+00 0.15874022E+04</pdfrwt>
<pdfrwt beam="2">  1       -2 0.23349221E-01 0.15874022E+04</pdfrwt>
<totfact> 0.11301534E+01</totfact>
</mgrwt>
</event>
<event>
 8    1  0.7326756E-052  0.1402894E+04  0.7818608E-02  0.8951726E-01
         -2   -1    0    0    0  501 -0.00000000000E+00  0.00000000000E+00  0.29277825316E+03  0.29277825317E+03  0.25500000000E-02 0. -1.
          2   -1    0    0  501    0  0.00000000000E+00 -0.00000000000E+00 -0.16805483373E+04  0.16805483373E+04  0.25500000000E-02 0.  1.
     200001    2    1    2    0    0  0.22963709487E+03  0.46333475419E+02 -0.10430457373E+04  0.12320548039E+04  0.61248236161E+03 0.  0.
    5000001    2    3    3    0    0  0.28335151145E+03  0.22104040984E+03 -0.34632049446E+03  0.50470700843E+03  0.75128807042E+02 0.  0.
        -11    1    4    4    0    0  0.16494129181E+03  0.15019744056E+03 -0.24207185185E+03  0.32918639455E+03  0.51100000000E-03 0. -1.
     200002    1    4    4    0    0  0.11841021963E+03  0.70842969286E+02 -0.10424864261E+03  0.17552061388E+03  0.30000000000E+02 0.  1.
     200000    1    3    3    0    0 -0.53714416578E+02 -0.17470693442E+03 -0.69672524287E+03  0.72734779545E+03  0.10100000000E+03 0.  1.
    -200001    1    1    2    0    0 -0.22963709487E+03 -0.46333475419E+02 -0.34472434676E+03  0.74127178655E+03  0.61300000000E+03 0. -1.
<mgrwt>
<rscale>  0 0.14028942E+04</rscale>
<asrwt>0</asrwt>
<pdfrwt beam="1">  1        2 0.24007833E+00 0.14028942E+04</pdfrwt>
<pdfrwt beam="2">  1       -2 0.41825466E-01 0.14028942E+04</pdfrwt>
<totfact> 0.61931643E+01</totfact>
</mgrwt>
</event>
<event>
 8    1  0.7326756E-052  0.1431065E+04  0.7818608E-02  0.8931634E-01
         -2   -1    0    0    0  501 -0.00000000000E+00  0.00000000000E+00  0.16611329198E+03  0.16611329200E+03  0.25500000000E-02 0. -1.
          2   -1    0    0  501    0  0.00000000000E+00 -0.00000000000E+00 -0.30821547819E+04  0.30821547819E+04  0.25500000000E-02 0.  1.
     200001    2    1    2    0    0 -0.10300529647E+02  0.36863816304E+03 -0.14436847786E+04  0.16113186301E+04  0.61328769073E+03 0.  0.
    5000001    2    3    3    0    0 -0.70784750851E+02 -0.14849561431E+03 -0.43785637803E+03  0.47422696445E+03  0.78176579708E+02 0.  0.
        -11    1    4    4    0    0 -0.70837449292E+02 -0.94447667731E+02 -0.32110072712E+03  0.34211691440E+03  0.51100000000E-03 0. -1.
     200002    1    4    4    0    0  0.52698441832E-01 -0.54047946577E+02 -0.11675565091E+03  0.13211005005E+03  0.30000000000E+02 0. -1.
     200000    1    3    3    0    0  0.60484221203E+02  0.51713377735E+03 -0.10058284006E+04  0.11370916657E+04  0.10100000000E+03 0.  1.
    -200001    1    1    2    0    0  0.10300529647E+02 -0.36863816304E+03 -0.14723567113E+04  0.16369494437E+04  0.61300000000E+03 0. -1.
<mgrwt>
<rscale>  0 0.14310652E+04</rscale>
<asrwt>0</asrwt>
<pdfrwt beam="1">  1        2 0.44030779E+00 0.14310652E+04</pdfrwt>
<pdfrwt beam="2">  1       -2 0.23730472E-01 0.14310652E+04</pdfrwt>
<totfact> 0.32712361E+01</totfact>
</mgrwt>
</event>
<event>
 8    1  0.7326756E-052  0.1598399E+04  0.7818608E-02  0.8821532E-01
          2   -1    0    0  501    0  0.00000000000E+00  0.00000000000E+00  0.59216430578E+03  0.59216430579E+03  0.25500000000E-02 0.  1.
         -2   -1    0    0    0  501 -0.00000000000E+00 -0.00000000000E+00 -0.10786198207E+04  0.10786198207E+04  0.25500000000E-02 0. -1.
     200001    2    1    2    0    0  0.50693169666E+03  0.34220832660E+02 -0.15331985933E+03  0.80770870947E+03  0.60888058733E+03 0.  0.
    5000001    2    3    3    0    0  0.30760847870E+03 -0.17470012666E+03  0.13544475194E+03  0.38703815763E+03  0.79436416136E+02 0.  0.
        -11    1    4    4    0    0  0.11947665905E+03 -0.65753930619E+02  0.16368140073E+02  0.13735416797E+03  0.51100000000E-03 0. -1.
     200002    1    4    4    0    0  0.18813181965E+03 -0.10894619605E+03  0.11907661187E+03  0.24968398966E+03  0.30000000000E+02 0. -1.
     200000    1    3    3    0    0  0.19932321795E+03  0.20892095932E+03 -0.28876461127E+03  0.42067055184E+03  0.10100000000E+03 0. -1.
    -200001    1    1    2    0    0 -0.50693169666E+03 -0.34220832660E+02 -0.33313565560E+03  0.86307541704E+03  0.61300000000E+03 0. -1.
<mgrwt>
<rscale>  0 0.15983994E+04</rscale>
<asrwt>0</asrwt>
<pdfrwt beam="1">  1        2 0.84594901E-01 0.15983994E+04</pdfrwt>
<pdfrwt beam="2">  1       -2 0.15408855E+00 0.15983994E+04</pdfrwt>
<totfact> 0.14766224E+01</totfact>
</mgrwt>
</event>
<event>
 8    1  0.7326756E-052  0.1493554E+04  0.7818608E-02  0.8888751E-01
         -2   -1    0    0    0  501 -0.00000000000E+00  0.00000000000E+00  0.37693205949E+03  0.37693205950E+03  0.25500000000E-02 0. -1.
          2   -1    0    0  501    0  0.00000000000E+00 -0.00000000000E+00 -0.14795137891E+04  0.14795137891E+04  0.25500000000E-02 0.  1.
     200001    2    1    2    0    0 -0.16072509870E+03  0.39308013561E+03 -0.62356981407E+03  0.97012425597E+03  0.60988294667E+03 0.  0.
    5000001    2    3    3    0    0 -0.38166408915E+02  0.18431094706E+03 -0.19622659118E+03  0.46869785392E+03  0.38176642493E+03 0.  0.
        -11    1    4    4    0    0  0.92689881882E+02  0.13346120750E+03  0.61455983853E+02  0.17372433929E+03  0.51100000000E-03 0. -1.
     200002    1    4    4    0    0 -0.13085629080E+03  0.50849739564E+02 -0.25768257503E+03  0.29497351462E+03  0.30000000000E+02 0. -1.
     200000    1    3    3    0    0 -0.12255868978E+03  0.20876918855E+03 -0.42734322289E+03  0.50142640205E+03  0.10100000000E+03 0.  1.
    -200001    1    1    2    0    0  0.16072509870E+03 -0.39308013561E+03 -0.47901191556E+03  0.88632159266E+03  0.61300000000E+03 0. -1.
<mgrwt>
<rscale>  0 0.14935544E+04</rscale>
<asrwt>0</asrwt>
<pdfrwt beam="1">  1        2 0.21135911E+00 0.14935544E+04</pdfrwt>
<pdfrwt beam="2">  1       -2 0.53847438E-01 0.14935544E+04</pdfrwt>
<totfact> 0.47142964E+01</totfact>
</mgrwt>
</event>
<event>
 8    1  0.7326756E-052  0.1513746E+04  0.7818608E-02  0.8875363E-01
         -2   -1    0    0    0  501 -0.00000000000E+00  0.00000000000E+00  0.55281471615E+03  0.55281471616E+03  0.25500000000E-02 0. -1.
          2   -1    0    0  501    0  0.00000000000E+00 -0.00000000000E+00 -0.10362548333E+04  0.10362548333E+04  0.25500000000E-02 0.  1.
     200001    2    1    2    0    0 -0.32063479167E+02  0.17252511906E+03  0.18607075532E+03  0.66451192997E+03  0.61331948908E+03 0.  0.
    5000001    2    3    3    0    0 -0.43859351397E+02  0.15956095783E+03 -0.17164280695E+03  0.29240011248E+03  0.16927265176E+03 0.  0.
        -11    1    4    4    0    0 -0.98155145583E+02  0.13908202589E+03 -0.11068008856E+03  0.20304759180E+03  0.51100000000E-03 0. -1.
     200002    1    4    4    0    0  0.54295794185E+02  0.20478931944E+02 -0.60962718387E+02  0.89352520686E+02  0.30000000000E+02 0. -1.
     200000    1    3    3    0    0  0.11795872230E+02  0.12964161229E+02  0.35771356228E+03  0.37211181749E+03  0.10100000000E+03 0. -1.
    -200001    1    1    2    0    0  0.32063479167E+02 -0.17252511906E+03 -0.66951087251E+03  0.92455761952E+03  0.61300000000E+03 0.  1.
<mgrwt>
<rscale>  0 0.15137462E+04</rscale>
<asrwt>0</asrwt>
<pdfrwt beam="1">  1        2 0.14803640E+00 0.15137462E+04</pdfrwt>
<pdfrwt beam="2">  1       -2 0.78973532E-01 0.15137462E+04</pdfrwt>
<totfact> 0.36724461E+01</totfact>
</mgrwt>
</event>
<event>
 8    1  0.7326756E-052  0.2337439E+04  0.7818608E-02  0.8463304E-01
          2   -1    0    0  501    0  0.00000000000E+00  0.00000000000E+00  0.13417954457E+04  0.13417954457E+04  0.25500000000E-02 0.  1.
         -2   -1    0    0    0  501 -0.00000000000E+00 -0.00000000000E+00 -0.10179680966E+04  0.10179680966E+04  0.25500000000E-02 0. -1.
     200001    2    1    2    0    0 -0.30272617416E+02  0.98176843930E+03  0.26244261833E+01  0.11582120381E+04  0.61372839085E+03 0.  0.
    5000001    2    3    3    0    0  0.25443717203E+03  0.30754435775E+03 -0.82887312839E+02  0.41447079687E+03  0.74792568713E+02 0.  0.
        -11    1    4    4    0    0  0.21511032468E+03  0.24691947068E+03 -0.59803375811E+02  0.33289355738E+03  0.51100000000E-03 0. -1.
     200002    1    4    4    0    0  0.39326847353E+02  0.60624887069E+02 -0.23083937028E+02  0.81577239495E+02  0.30000000000E+02 0.  1.
     200000    1    3    3    0    0 -0.28470978944E+03  0.67422408155E+03  0.85511739022E+02  0.74374124119E+03  0.10100000000E+03 0.  1.
    -200001    1    1    2    0    0  0.30272617416E+02 -0.98176843930E+03  0.32120292292E+03  0.12015515043E+04  0.61300000000E+03 0. -1.
<mgrwt>
<rscale>  0 0.23374387E+04</rscale>
<asrwt>0</asrwt>
<pdfrwt beam="1">  1        2 0.19168506E+00 0.23374387E+04</pdfrwt>
<pdfrwt beam="2">  1       -2 0.14542401E+00 0.23374387E+04</pdfrwt>
<totfact> 0.52605604E+00</totfact>
</mgrwt>
</event>
<event>
 8    1  0.7326756E-052  0.2136057E+04  0.7818608E-02  0.8545524E-01
          2   -1    0    0  501    0  0.00000000000E+00  0.00000000000E+00  0.10003108448E+04  0.10003108448E+04  0.25500000000E-02 0.  1.
         -2   -1    0    0    0  501 -0.00000000000E+00 -0.00000000000E+00 -0.11403299690E+04  0.11403299690E+04  0.25500000000E-02 0. -1.
     200001    2    1    2    0    0  0.46040684575E+03  0.61955714052E+03  0.33661157342E+03  0.10457566483E+04  0.62005975691E+03 0.  0.
    5000001    2    3    3    0    0  0.43952242687E+03  0.58372374699E+03  0.47106032492E+03  0.87255832896E+03  0.74477051564E+02 0.  0.
        -11    1    4    4    0    0  0.37032717487E+03  0.48118048815E+03  0.38905182131E+03  0.72113674035E+03  0.51100000000E-03 0. -1.
     200002    1    4    4    0    0  0.69195251995E+02  0.10254325884E+03  0.82008503614E+02  0.15142158861E+03  0.30000000000E+02 0. -1.
     200000    1    3    3    0    0  0.20884418888E+02  0.35833393534E+02 -0.13444875150E+03  0.17319831935E+03  0.10100000000E+03 0. -1.
    -200001    1    1    2    0    0 -0.46040684575E+03 -0.61955714052E+03 -0.47663069766E+03  0.10948841655E+04  0.61300000000E+03 0. -1.
<mgrwt>
<rscale>  0 0.21360566E+04</rscale>
<asrwt>0</asrwt>
<pdfrwt beam="1">  1        2 0.14290155E+00 0.21360566E+04</pdfrwt>
<pdfrwt beam="2">  1       -2 0.16290428E+00 0.21360566E+04</pdfrwt>
<totfact> 0.62113504E+00</totfact>
</mgrwt>
</event>
<event>
 8    1  0.7326756E-052  0.1402365E+04  0.7818608E-02  0.8952109E-01
         -2   -1    0    0    0  501 -0.00000000000E+00  0.00000000000E+00  0.11824147129E+03  0.11824147132E+03  0.25500000000E-02 0. -1.
          2   -1    0    0  501    0  0.00000000000E+00 -0.00000000000E+00 -0.41580721712E+04  0.41580721712E+04  0.25500000000E-02 0.  1.
     200001    2    1    2    0    0 -0.38271873243E+02 -0.10683136015E+03 -0.10408329092E+04  0.12132050214E+04  0.61290749985E+03 0.  0.
    5000001    2    3    3    0    0 -0.26736500921E+03  0.50199625429E+01 -0.79459059293E+03  0.84465290618E+03  0.10273788672E+03 0.  0.
        -11    1    4    4    0    0 -0.16742295438E+03 -0.16560614500E+02 -0.36282808268E+03  0.39993614138E+03  0.51100000000E-03 0. -1.
     200002    1    4    4    0    0 -0.99942054834E+02  0.21580577042E+02 -0.43176251025E+03  0.44471676480E+03  0.30000000000E+02 0. -1.
     200000    1    3    3    0    0  0.22909313597E+03 -0.11185132270E+03 -0.24624231624E+03  0.36855211523E+03  0.10100000000E+03 0. -1.
    -200001    1    1    2    0    0  0.38271873243E+02  0.10683136015E+03 -0.29989977907E+04  0.30631086211E+04  0.61300000000E+03 0.  1.
<mgrwt>
<rscale>  0 0.14023645E+04</rscale>
<asrwt>0</asrwt>
<pdfrwt beam="1">  1        2 0.59401022E+00 0.14023645E+04</pdfrwt>
<pdfrwt beam="2">  1       -2 0.16891641E-01 0.14023645E+04</pdfrwt>
<totfact> 0.12629165E+01</totfact>
</mgrwt>
</event>
<event>
 8    1  0.7326756E-052  0.1694470E+04  0.7818608E-02  0.8764525E-01
          2   -1    0    0  501    0  0.00000000000E+00  0.00000000000E+00  0.43684999697E+04  0.43684999697E+04  0.25500000000E-02 0. -1.
         -2   -1    0    0    0  501 -0.00000000000E+00 -0.00000000000E+00 -0.16431426370E+03  0.16431426372E+03  0.25500000000E-02 0.  1.
     200001    2    1    2    0    0 -0.19804037035E+03  0.35118472433E+02  0.63321786283E+03  0.90403570168E+03  0.61307617204E+03 0.  0.
    5000001    2    3    3    0    0 -0.27557189953E+03 -0.21592550793E+03  0.28844688124E+03  0.45894891482E+03  0.69776832324E+02 0.  0.
        -11    1    4    4    0    0 -0.16370942354E+03 -0.11678273649E+03  0.19511290270E+03  0.28019284020E+03  0.51100000000E-03 0. -1.
     200002    1    4    4    0    0 -0.11186247599E+03 -0.99142771443E+02  0.93333978548E+02  0.17875607463E+03  0.30000000000E+02 0. -1.
     200000    1    3    3    0    0  0.77531529186E+02  0.25104398037E+03  0.34477098158E+03  0.44508678686E+03  0.10100000000E+03 0.  1.
    -200001    1    1    2    0    0  0.19804037035E+03 -0.35118472433E+02  0.35709678432E+04  0.36287785317E+04  0.61300000000E+03 0. -1.
<mgrwt>
<rscale>  0 0.16944697E+04</rscale>
<asrwt>0</asrwt>
<pdfrwt beam="1">  1        2 0.62407137E+00 0.16944697E+04</pdfrwt>
<pdfrwt beam="2">  1       -2 0.23473468E-01 0.16944697E+04</pdfrwt>
<totfact> 0.48032693E+00</totfact>
</mgrwt>
</event>
<event>
 8    1  0.7326756E-052  0.1410652E+04  0.7818608E-02  0.8946144E-01
         -2   -1    0    0    0  501 -0.00000000000E+00  0.00000000000E+00  0.32137068424E+03  0.32137068425E+03  0.25500000000E-02 0. -1.
          2   -1    0    0  501    0  0.00000000000E+00 -0.00000000000E+00 -0.15480090897E+04  0.15480090897E+04  0.25500000000E-02 0.  1.
     200001    2    1    2    0    0 -0.25342310791E+03 -0.18530429164E+03 -0.41218922864E+03  0.80276952942E+03  0.61317045349E+03 0.  0.
    5000001    2    3    3    0    0 -0.16441246953E+03 -0.39151852406E+03 -0.23027942382E+03  0.49660065366E+03  0.11517543731E+03 0.  0.
        -11    1    4    4    0    0 -0.52128928740E+02 -0.24828217148E+03 -0.11084797753E+03  0.27685508124E+03  0.51100000000E-03 0. -1.
     200002    1    4    4    0    0 -0.11228354079E+03 -0.14323635258E+03 -0.11943144629E+03  0.21974557241E+03  0.30000000000E+02 0. -1.
     200000    1    3    3    0    0 -0.89010638383E+02  0.20621423242E+03 -0.18190980482E+03  0.30616887576E+03  0.10100000000E+03 0.  1.
    -200001    1    1    2    0    0  0.25342310791E+03  0.18530429164E+03 -0.81444917684E+03  0.10666102446E+04  0.61300000000E+03 0. -1.
<mgrwt>
<rscale>  0 0.14106520E+04</rscale>
<asrwt>0</asrwt>
<pdfrwt beam="1">  1        2 0.22114415E+00 0.14106520E+04</pdfrwt>
<pdfrwt beam="2">  1       -2 0.45910099E-01 0.14106520E+04</pdfrwt>
<totfact> 0.60354270E+01</totfact>
</mgrwt>
</event>
<event>
 8    1  0.7326756E-052  0.1549105E+04  0.7818608E-02  0.8852439E-01
         -2   -1    0    0    0  501 -0.00000000000E+00  0.00000000000E+00  0.40868929261E+03  0.40868929262E+03  0.25500000000E-02 0. -1.
          2   -1    0    0  501    0  0.00000000000E+00 -0.00000000000E+00 -0.14679409119E+04  0.14679409119E+04  0.25500000000E-02 0.  1.
     200001    2    1    2    0    0 -0.85534961699E+02 -0.45608870053E+03 -0.64452084117E+03  0.10030721064E+04  0.61270988530E+03 0.  0.
    5000001    2    3    3    0    0  0.15068719420E+03 -0.28666823666E+03 -0.60556021127E+03  0.69287357128E+03  0.92115731001E+02 0.  0.
        -11    1    4    4    0    0  0.29570287429E+02 -0.46497232053E+02 -0.47927844114E+02  0.73030628704E+02  0.51100000000E-03 0. -1.
     200002    1    4    4    0    0  0.12111690678E+03 -0.24017100460E+03 -0.55763236716E+03  0.61984294258E+03  0.30000000000E+02 0. -1.
     200000    1    3    3    0    0 -0.23622215590E+03 -0.16942046387E+03 -0.38960629898E+02  0.31019853514E+03  0.10100000000E+03 0.  1.
    -200001    1    1    2    0    0  0.85534961699E+02  0.45608870053E+03 -0.41473077809E+03  0.87355809808E+03  0.61300000000E+03 0. -1.
<mgrwt>
<rscale>  0 0.15491052E+04</rscale>
<asrwt>0</asrwt>
<pdfrwt beam="1">  1        2 0.20970584E+00 0.15491052E+04</pdfrwt>
<pdfrwt beam="2">  1       -2 0.58384185E-01 0.15491052E+04</pdfrwt>
<totfact> 0.40230887E+01</totfact>
</mgrwt>
</event>
<event>
 8    1  0.7326756E-052  0.1461030E+04  0.7818608E-02  0.8910789E-01
          2   -1    0    0  501    0  0.00000000000E+00  0.00000000000E+00  0.20767919564E+04  0.20767919564E+04  0.25500000000E-02 0.  1.
         -2   -1    0    0    0  501 -0.00000000000E+00 -0.00000000000E+00 -0.25695996216E+03  0.25695996217E+03  0.25500000000E-02 0. -1.
     200001    2    1    2    0    0 -0.16278841802E+02  0.15195755091E+03  0.32545434656E+03  0.71131866822E+03  0.61375696989E+03 0.  0.
    5000001    2    3    3    0    0 -0.62332164483E+02  0.17353365078E+03  0.44422183978E+03  0.54732734509E+03  0.26121820968E+03 0.  0.
        -11    1    4    4    0    0  0.97227974802E+02  0.28586170662E+02  0.12402778637E+03  0.16016660086E+03  0.51100000000E-03 0. -1.
     200002    1    4    4    0    0 -0.15956013928E+03  0.14494748011E+03  0.32019405340E+03  0.38716074423E+03  0.30000000000E+02 0. -1.
     200000    1    3    3    0    0  0.46053322680E+02 -0.21576099862E+02 -0.11876749322E+03  0.16399132312E+03  0.10100000000E+03 0. -1.
    -200001    1    1    2    0    0  0.16278841802E+02 -0.15195755091E+03  0.14943776477E+04  0.16224332503E+04  0.61300000000E+03 0.  1.
<mgrwt>
<rscale>  0 0.14610303E+04</rscale>
<asrwt>0</asrwt>
<pdfrwt beam="1">  1        2 0.29668455E+00 0.14610303E+04</pdfrwt>
<pdfrwt beam="2">  1       -2 0.36708568E-01 0.14610303E+04</pdfrwt>
<totfact> 0.49672242E+01</totfact>
</mgrwt>
</event>
<event>
 8    1  0.7326756E-052  0.1510101E+04  0.7818608E-02  0.8877763E-01
         -2   -1    0    0    0  501 -0.00000000000E+00  0.00000000000E+00  0.44599669361E+03  0.44599669361E+03  0.25500000000E-02 0.  1.
          2   -1    0    0  501    0  0.00000000000E+00 -0.00000000000E+00 -0.12782635148E+04  0.12782635148E+04  0.25500000000E-02 0. -1.
     200001    2    1    2    0    0  0.11368344920E+03  0.36185689812E+03 -0.15920295819E+03  0.73803087150E+03  0.61276393827E+03 0.  0.
    5000001    2    3    3    0    0  0.21247619789E+03 -0.60359118827E+02 -0.17866164014E+03  0.29237852665E+03  0.69107621108E+02 0.  0.
        -11    1    4    4    0    0  0.72322079168E+01 -0.17922075933E+02 -0.19935554459E+02  0.27765661688E+02  0.51100000000E-03 0. -1.
     200002    1    4    4    0    0  0.20524398998E+03 -0.42437042894E+02 -0.15872608568E+03  0.26461286497E+03  0.30000000000E+02 0. -1.
     200000    1    3    3    0    0 -0.98792748689E+02  0.42221601695E+03  0.19458681945E+02  0.44565234484E+03  0.10100000000E+03 0.  1.
    -200001    1    1    2    0    0 -0.11368344920E+03 -0.36185689812E+03 -0.67306386303E+03  0.98622933695E+03  0.61300000000E+03 0. -1.
<mgrwt>
<rscale>  0 0.15101011E+04</rscale>
<asrwt>0</asrwt>
<pdfrwt beam="1">  1        2 0.18260907E+00 0.15101011E+04</pdfrwt>
<pdfrwt beam="2">  1       -2 0.63713814E-01 0.15101011E+04</pdfrwt>
<totfact> 0.42544738E+01</totfact>
</mgrwt>
</event>
<event>
 8    1  0.7326756E-052  0.1582126E+04  0.7818608E-02  0.8831605E-01
         -2   -1    0    0    0  501 -0.00000000000E+00  0.00000000000E+00  0.15777857885E+03  0.15777857887E+03  0.25500000000E-02 0. -1.
          2   -1    0    0  501    0  0.00000000000E+00 -0.00000000000E+00 -0.39661941045E+04  0.39661941045E+04  0.25500000000E-02 0.  1.
     200001    2    1    2    0    0 -0.18805015883E+03  0.15170556695E+03 -0.30448126035E+04  0.31153915691E+04  0.61351723484E+03 0.  0.
    5000001    2    3    3    0    0 -0.17042120969E+02 -0.71131130255E+02 -0.23931369529E+04  0.23986056205E+04  0.14441044171E+03 0.  0.
        -11    1    4    4    0    0  0.55865137091E+02 -0.59274817270E+02 -0.10977825973E+04  0.11008001855E+04  0.51100000000E-03 0. -1.
     200002    1    4    4    0    0 -0.72907258060E+02 -0.11856312985E+02 -0.12953543556E+04  0.12978054350E+04  0.30000000000E+02 0. -1.
     200000    1    3    3    0    0 -0.17100803786E+03  0.22283669720E+03 -0.65167565057E+03  0.71678594865E+03  0.10100000000E+03 0. -1.
    -200001    1    1    2    0    0  0.18805015883E+03 -0.15170556695E+03 -0.76360292220E+03  0.10085811143E+04  0.61300000000E+03 0. -1.
<mgrwt>
<rscale>  0 0.15821257E+04</rscale>
<asrwt>0</asrwt>
<pdfrwt beam="1">  1        2 0.56659910E+00 0.15821257E+04</pdfrwt>
<pdfrwt beam="2">  1       -2 0.22539799E-01 0.15821257E+04</pdfrwt>
<totfact> 0.10143639E+01</totfact>
</mgrwt>
</event>
<event>
 8    1  0.7326756E-052  0.1382328E+04  0.7818608E-02  0.8966711E-01
          2   -1    0    0  501    0  0.00000000000E+00  0.00000000000E+00  0.13098204076E+04  0.13098204076E+04  0.25500000000E-02 0.  1.
         -2   -1    0    0    0  501 -0.00000000000E+00 -0.00000000000E+00 -0.36471208983E+03  0.36471208984E+03  0.25500000000E-02 0. -1.
     200001    2    1    2    0    0 -0.60739195468E+02  0.13914139772E+03  0.14562792187E+03  0.65571579073E+03  0.62105243592E+03 0.  0.
    5000001    2    3    3    0    0  0.16726266304E+03  0.22823140106E+02  0.28053701708E+03  0.34925821046E+03  0.12158365618E+03 0.  0.
        -11    1    4    4    0    0  0.16635093766E+03  0.10141611154E+02  0.18842985416E+03  0.25155774024E+03  0.51100000000E-03 0. -1.
     200002    1    4    4    0    0  0.91172538029E+00  0.12681528952E+02  0.92107162918E+02  0.97700470216E+02  0.30000000000E+02 0. -1.
     200000    1    3    3    0    0 -0.22800185851E+03  0.11631825761E+03 -0.13490909521E+03  0.30645758027E+03  0.10100000000E+03 0. -1.
    -200001    1    1    2    0    0  0.60739195468E+02 -0.13914139772E+03  0.79948039589E+03  0.10188167067E+04  0.61300000000E+03 0.  1.
<mgrwt>
<rscale>  0 0.13823275E+04</rscale>
<asrwt>0</asrwt>
<pdfrwt beam="1">  1        2 0.18711720E+00 0.13823275E+04</pdfrwt>
<pdfrwt beam="2">  1       -2 0.52101727E-01 0.13823275E+04</pdfrwt>
<totfact> 0.62884325E+01</totfact>
</mgrwt>
</event>
<event>
 8    1  0.7326756E-052  0.1762991E+04  0.7818608E-02  0.8726232E-01
         -2   -1    0    0    0  501 -0.00000000000E+00  0.00000000000E+00  0.29923948804E+03  0.29923948805E+03  0.25500000000E-02 0. -1.
          2   -1    0    0  501    0  0.00000000000E+00 -0.00000000000E+00 -0.25966957080E+04  0.25966957080E+04  0.25500000000E-02 0.  1.
     200001    2    1    2    0    0 -0.10470440956E+03  0.41639311527E+03 -0.19136956010E+04  0.20548719092E+04  0.61312435117E+03 0.  0.
    5000001    2    3    3    0    0 -0.86209653693E+02  0.52776376000E+03 -0.16816156525E+04  0.17777301061E+04  0.21569987655E+03 0.  0.
        -11    1    4    4    0    0  0.56878395075E+01  0.27029640575E+03 -0.11230087415E+04  0.11550935599E+04  0.51100000000E-03 0. -1.
     200002    1    4    4    0    0 -0.91897493201E+02  0.25746735425E+03 -0.55860691093E+03  0.62263654623E+03  0.30000000000E+02 0. -1.
     200000    1    3    3    0    0 -0.18494755869E+02 -0.11137064473E+03 -0.23207994855E+03  0.27714180309E+03  0.10100000000E+03 0.  1.
    -200001    1    1    2    0    0  0.10470440956E+03 -0.41639311527E+03 -0.38376061891E+03  0.84106328683E+03  0.61300000000E+03 0. -1.
<mgrwt>
<rscale>  0 0.17629905E+04</rscale>
<asrwt>0</asrwt>
<pdfrwt beam="1">  1        2 0.37095652E+00 0.17629905E+04</pdfrwt>
<pdfrwt beam="2">  1       -2 0.42748500E-01 0.17629905E+04</pdfrwt>
<totfact> 0.19305130E+01</totfact>
</mgrwt>
</event>
<event>
 8    1  0.7326756E-052  0.1295613E+04  0.7818608E-02  0.9033051E-01
          2   -1    0    0  501    0  0.00000000000E+00  0.00000000000E+00  0.18569895719E+04  0.18569895719E+04  0.25500000000E-02 0.  1.
         -2   -1    0    0    0  501 -0.00000000000E+00 -0.00000000000E+00 -0.22598582288E+03  0.22598582289E+03  0.25500000000E-02 0. -1.
     200001    2    1    2    0    0 -0.60346187807E+02  0.91178629935E+02  0.11192040344E+04  0.12769585508E+04  0.60502087965E+03 0.  0.
    5000001    2    3    3    0    0  0.10692847060E+03  0.52285265006E+02  0.10587738199E+04  0.10687607698E+04  0.84143535552E+02 0.  0.
        -11    1    4    4    0    0  0.49273895150E+02  0.13000267669E+01  0.19842939051E+03  0.20445984895E+03  0.51100000000E-03 0. -1.
     200002    1    4    4    0    0  0.57654575454E+02  0.50985238239E+02  0.86034442940E+03  0.86430092086E+03  0.30000000000E+02 0. -1.
     200000    1    3    3    0    0 -0.16727465841E+03  0.38893364929E+02  0.60430214525E+02  0.20819778099E+03  0.10100000000E+03 0. -1.
    -200001    1    1    2    0    0  0.60346187807E+02 -0.91178629935E+02  0.51179971455E+03  0.80601684396E+03  0.61300000000E+03 0. -1.
<mgrwt>
<rscale>  0 0.12956131E+04</rscale>
<asrwt>0</asrwt>
<pdfrwt beam="1">  1        2 0.26528422E+00 0.12956131E+04</pdfrwt>
<pdfrwt beam="2">  1       -2 0.32283689E-01 0.12956131E+04</pdfrwt>
<totfact> 0.83311555E+01</totfact>
</mgrwt>
</event>
<event>
 8    1  0.7326756E-052  0.1597218E+04  0.7818608E-02  0.8822259E-01
         -2   -1    0    0    0  501 -0.00000000000E+00  0.00000000000E+00  0.33806948052E+03  0.33806948053E+03  0.25500000000E-02 0. -1.
          2   -1    0    0  501    0  0.00000000000E+00 -0.00000000000E+00 -0.18865241157E+04  0.18865241157E+04  0.25500000000E-02 0.  1.
     200001    2    1    2    0    0 -0.26504277339E+03  0.42777532444E+03 -0.63204621264E+03  0.10126477242E+04  0.61051912206E+03 0.  0.
    5000001    2    3    3    0    0  0.17651799462E+03  0.20054432868E+03 -0.28695080009E+03  0.39953951100E+03  0.76905324811E+02 0.  0.
        -11    1    4    4    0    0  0.83820885775E+02  0.46909264119E+02 -0.96192140739E+02  0.13593876523E+03  0.51100000000E-03 0. -1.
     200002    1    4    4    0    0  0.92697108849E+02  0.15363506456E+03 -0.19075865935E+03  0.26360074577E+03  0.30000000000E+02 0. -1.
     200000    1    3    3    0    0 -0.44156076801E+03  0.22723099576E+03 -0.34509541255E+03  0.61310821316E+03  0.10100000000E+03 0. -1.
    -200001    1    1    2    0    0  0.26504277339E+03 -0.42777532444E+03 -0.91640842250E+03  0.12119458720E+04  0.61300000000E+03 0.  1.
<mgrwt>
<rscale>  0 0.15972179E+04</rscale>
<asrwt>0</asrwt>
<pdfrwt beam="1">  1        2 0.26950344E+00 0.15972179E+04</pdfrwt>
<pdfrwt beam="2">  1       -2 0.48295641E-01 0.15972179E+04</pdfrwt>
<totfact> 0.35825106E+01</totfact>
</mgrwt>
</event>
<event>
 8    1  0.7326756E-052  0.1432945E+04  0.7818608E-02  0.8930311E-01
         -2   -1    0    0    0  501 -0.00000000000E+00  0.00000000000E+00  0.22115114795E+03  0.22115114797E+03  0.25500000000E-02 0. -1.
          2   -1    0    0  501    0  0.00000000000E+00 -0.00000000000E+00 -0.23211843552E+04  0.23211843552E+04  0.25500000000E-02 0.  1.
     200001    2    1    2    0    0  0.73758803215E+02 -0.28216644245E+03 -0.64189131817E+03  0.93391856998E+03  0.61247136154E+03 0.  0.
    5000001    2    3    3    0    0 -0.18165347608E+03 -0.33135257842E+03 -0.27464014044E+03  0.47269288127E+03  0.72241516208E+02 0.  0.
        -11    1    4    4    0    0 -0.32636675304E+02 -0.10831591803E+03 -0.10179118678E+03  0.15218060448E+03  0.51100000000E-03 0. -1.
     200002    1    4    4    0    0 -0.14901680077E+03 -0.22303666038E+03 -0.17284895366E+03  0.32051227678E+03  0.30000000000E+02 0. -1.
     200000    1    3    3    0    0  0.25541227929E+03  0.49186135963E+02 -0.36725117773E+03  0.46122568871E+03  0.10100000000E+03 0. -1.
    -200001    1    1    2    0    0 -0.73758803215E+02  0.28216644245E+03 -0.14581418891E+04  0.16084169332E+04  0.61300000000E+03 0.  1.
<mgrwt>
<rscale>  0 0.14329446E+04</rscale>
<asrwt>0</asrwt>
<pdfrwt beam="1">  1        2 0.33159775E+00 0.14329446E+04</pdfrwt>
<pdfrwt beam="2">  1       -2 0.31593023E-01 0.14329446E+04</pdfrwt>
<totfact> 0.49544295E+01</totfact>
</mgrwt>
</event>
<event>
 8    1  0.7326756E-052  0.1611906E+04  0.7818608E-02  0.8813267E-01
         -2   -1    0    0    0  501 -0.00000000000E+00  0.00000000000E+00  0.22425673354E+03  0.22425673355E+03  0.25500000000E-02 0. -1.
          2   -1    0    0  501    0  0.00000000000E+00 -0.00000000000E+00 -0.28965012065E+04  0.28965012065E+04  0.25500000000E-02 0.  1.
     200001    2    1    2    0    0 -0.12999636328E+03  0.40717062534E+03 -0.19199117964E+04  0.20603521550E+04  0.61343518349E+03 0.  0.
    5000001    2    3    3    0    0 -0.21512728090E+03  0.43215360183E+01 -0.26037274901E+03  0.34751663707E+03  0.81703255468E+02 0.  0.
        -11    1    4    4    0    0 -0.18102671415E+03  0.17787468202E+02 -0.21836574977E+03  0.28420180494E+03  0.51100000000E-03 0. -1.
     200002    1    4    4    0    0 -0.34100566753E+02 -0.13465932184E+02 -0.42006999242E+02  0.63314832131E+02  0.30000000000E+02 0.  1.
     200000    1    3    3    0    0  0.85130917623E+02  0.40284908932E+03 -0.16595390473E+04  0.17128355180E+04  0.10100000000E+03 0.  1.
    -200001    1    1    2    0    0  0.12999636328E+03 -0.40717062534E+03 -0.75233267659E+03  0.10604057850E+04  0.61300000000E+03 0. -1.
<mgrwt>
<rscale>  0 0.16119056E+04</rscale>
<asrwt>0</asrwt>
<pdfrwt beam="1">  1        2 0.41378586E+00 0.16119056E+04</pdfrwt>
<pdfrwt beam="2">  1       -2 0.32036678E-01 0.16119056E+04</pdfrwt>
<totfact> 0.23505952E+01</totfact>
</mgrwt>
</event>
<event>
 8    1  0.7326756E-052  0.1556736E+04  0.7818608E-02  0.8847577E-01
          2   -1    0    0  501    0  0.00000000000E+00  0.00000000000E+00  0.21251937363E+04  0.21251937363E+04  0.25500000000E-02 0.  1.
         -2   -1    0    0    0  501 -0.00000000000E+00 -0.00000000000E+00 -0.28508306966E+03  0.28508306967E+03  0.25500000000E-02 0. -1.
     200001    2    1    2    0    0 -0.34824095666E+03 -0.53256800643E+02  0.41568531725E+03  0.82003637550E+03  0.61282731944E+03 0.  0.
    5000001    2    3    3    0    0 -0.43419909763E+03 -0.42078987640E+01  0.67162859154E+02  0.44392003635E+03  0.63305499206E+02 0.  0.
        -11    1    4    4    0    0 -0.23426926421E+03  0.45112209713E+01  0.14172950220E+02  0.23474094612E+03  0.51100000000E-03 0. -1.
     200002    1    4    4    0    0 -0.19992983342E+03 -0.87191197353E+01  0.52989908934E+02  0.20917909023E+03  0.30000000000E+02 0. -1.
     200000    1    3    3    0    0  0.85958140970E+02 -0.49048901879E+02  0.34852245810E+03  0.37611633915E+03  0.10100000000E+03 0.  1.
    -200001    1    1    2    0    0  0.34824095666E+03  0.53256800643E+02  0.14244253494E+04  0.15902404305E+04  0.61300000000E+03 0.  1.
<mgrwt>
<rscale>  0 0.15567360E+04</rscale>
<asrwt>0</asrwt>
<pdfrwt beam="1">  1        2 0.30359911E+00 0.15567360E+04</pdfrwt>
<pdfrwt beam="2">  1       -2 0.40726152E-01 0.15567360E+04</pdfrwt>
<totfact> 0.38044639E+01</totfact>
</mgrwt>
</event>
<event>
 8    1  0.7326756E-052  0.1274678E+04  0.7818608E-02  0.9049890E-01
         -2   -1    0    0    0  501 -0.00000000000E+00  0.00000000000E+00  0.17082616086E+03  0.17082616088E+03  0.25500000000E-02 0. -1.
          2   -1    0    0  501    0  0.00000000000E+00 -0.00000000000E+00 -0.23778613775E+04  0.23778613775E+04  0.25500000000E-02 0.  1.
     200001    2    1    2    0    0  0.13184183809E+03 -0.11395360540E+03 -0.10543920921E+04  0.12315987536E+04  0.61214794904E+03 0.  0.
    5000001    2    3    3    0    0  0.29605738036E+03 -0.14214944621E+02 -0.26151019426E+03  0.40954203494E+03  0.10716837015E+03 0.  0.
        -11    1    4    4    0    0  0.21180550172E+03 -0.42897442525E+02 -0.21460447124E+03  0.30456007652E+03  0.51100000000E-03 0. -1.
     200002    1    4    4    0    0  0.84251878639E+02  0.28682497905E+02 -0.46905723022E+02  0.10498195841E+03  0.30000000000E+02 0. -1.
     200000    1    3    3    0    0 -0.16421554226E+03 -0.99738660776E+02 -0.79288189785E+03  0.82205671868E+03  0.10100000000E+03 0.  1.
    -200001    1    1    2    0    0 -0.13184183809E+03  0.11395360540E+03 -0.11526431245E+04  0.13170887848E+04  0.61300000000E+03 0. -1.
<mgrwt>
<rscale>  0 0.12746779E+04</rscale>
<asrwt>0</asrwt>
<pdfrwt beam="1">  1        2 0.33969446E+00 0.12746779E+04</pdfrwt>
<pdfrwt beam="2">  1       -2 0.24403739E-01 0.12746779E+04</pdfrwt>
<totfact> 0.75422204E+01</totfact>
</mgrwt>
</event>
<event>
 8    1  0.7326756E-052  0.2033622E+04  0.7818608E-02  0.8591061E-01
         -2   -1    0    0    0  501 -0.00000000000E+00  0.00000000000E+00  0.77355740573E+03  0.77355740574E+03  0.25500000000E-02 0. -1.
          2   -1    0    0  501    0  0.00000000000E+00 -0.00000000000E+00 -0.13365586885E+04  0.13365586885E+04  0.25500000000E-02 0.  1.
     200001    2    1    2    0    0  0.26685132481E+03 -0.62101179495E+03 -0.74677609582E+03  0.11793059842E+04  0.61337002547E+03 0.  0.
    5000001    2    3    3    0    0 -0.67063300689E+02 -0.47719907595E+03 -0.23051086098E+03  0.53984381336E+03  0.77972055316E+02 0.  0.
        -11    1    4    4    0    0 -0.31644896504E+02 -0.31921914751E+03 -0.17884473372E+03  0.36727061193E+03  0.51100000000E-03 0. -1.
     200002    1    4    4    0    0 -0.35418404186E+02 -0.15797992845E+03 -0.51666127258E+02  0.17257320143E+03  0.30000000000E+02 0. -1.
     200000    1    3    3    0    0  0.33391462550E+03 -0.14381271899E+03 -0.51626523484E+03  0.63946217087E+03  0.10100000000E+03 0.  1.
    -200001    1    1    2    0    0 -0.26685132481E+03  0.62101179495E+03  0.18377481304E+03  0.93081011002E+03  0.61300000000E+03 0. -1.
<mgrwt>
<rscale>  0 0.20336223E+04</rscale>
<asrwt>0</asrwt>
<pdfrwt beam="1">  1        2 0.19093696E+00 0.20336223E+04</pdfrwt>
<pdfrwt beam="2">  1       -2 0.11050820E+00 0.20336223E+04</pdfrwt>
<totfact> 0.10834217E+01</totfact>
</mgrwt>
</event>
<event>
 8    1  0.7326756E-052  0.1468670E+04  0.7818608E-02  0.8905558E-01
          2   -1    0    0  501    0  0.00000000000E+00  0.00000000000E+00  0.15170124019E+04  0.15170124019E+04  0.25500000000E-02 0.  1.
         -2   -1    0    0    0  501 -0.00000000000E+00 -0.00000000000E+00 -0.35546702995E+03  0.35546702996E+03  0.25500000000E-02 0. -1.
     200001    2    1    2    0    0  0.21636565659E+03  0.33837746957E+03  0.52346785272E+03  0.90076685615E+03  0.61322828297E+03 0.  0.
    5000001    2    3    3    0    0  0.94989389228E+02  0.33529607579E+02  0.75898674480E+01  0.28109314125E+03  0.26231379933E+03 0.  0.
        -11    1    4    4    0    0 -0.80858365390E+02  0.59224105080E+02 -0.55830683055E+01  0.10038296931E+03  0.51100000000E-03 0. -1.
     200002    1    4    4    0    0  0.17584775462E+03 -0.25694497501E+02  0.13172935754E+02  0.18071017194E+03  0.30000000000E+02 0. -1.
     200000    1    3    3    0    0  0.12137626736E+03  0.30484786200E+03  0.51587798528E+03  0.61967371490E+03  0.10100000000E+03 0.  1.
    -200001    1    1    2    0    0 -0.21636565659E+03 -0.33837746957E+03  0.63807751925E+03  0.97171257573E+03  0.61300000000E+03 0. -1.
<mgrwt>
<rscale>  0 0.14686700E+04</rscale>
<asrwt>0</asrwt>
<pdfrwt beam="1">  1        2 0.21671606E+00 0.14686700E+04</pdfrwt>
<pdfrwt beam="2">  1       -2 0.50781003E-01 0.14686700E+04</pdfrwt>
<totfact> 0.50887753E+01</totfact>
</mgrwt>
</event>
<event>
 8    1  0.7326756E-052  0.1673787E+04  0.7818608E-02  0.8776457E-01
          2   -1    0    0  501    0  0.00000000000E+00  0.00000000000E+00  0.13887709049E+04  0.13887709049E+04  0.25500000000E-02 0.  1.
         -2   -1    0    0    0  501 -0.00000000000E+00 -0.00000000000E+00 -0.50432432921E+03  0.50432432922E+03  0.25500000000E-02 0. -1.
     200001    2    1    2    0    0 -0.13214873612E+03 -0.35220292384E+03 -0.43240616778E+02  0.71926274389E+03  0.61152183591E+03 0.  0.
    5000001    2    3    3    0    0 -0.30259418595E+03 -0.29258978912E+03 -0.13087892564E+03  0.49456995278E+03  0.22427242129E+03 0.  0.
        -11    1    4    4    0    0 -0.11279153770E+03  0.72084770418E+01 -0.71007109459E+02  0.13347622527E+03  0.51100000000E-03 0. -1.
     200002    1    4    4    0    0 -0.18980264825E+03 -0.29979826616E+03 -0.59871816179E+02  0.36109372751E+03  0.30000000000E+02 0. -1.
     200000    1    3    3    0    0  0.17044544982E+03 -0.59613134723E+02  0.87638308860E+02  0.22469279111E+03  0.10100000000E+03 0. -1.
    -200001    1    1    2    0    0  0.13214873612E+03  0.35220292384E+03  0.92768719243E+03  0.11738324902E+04  0.61300000000E+03 0. -1.
<mgrwt>
<rscale>  0 0.16737873E+04</rscale>
<asrwt>0</asrwt>
<pdfrwt beam="1">  1        2 0.19839585E+00 0.16737873E+04</pdfrwt>
<pdfrwt beam="2">  1       -2 0.72046331E-01 0.16737873E+04</pdfrwt>
<totfact> 0.27989576E+01</totfact>
</mgrwt>
</event>
<event>
 8    1  0.7326756E-052  0.1672204E+04  0.7818608E-02  0.8777378E-01
         -2   -1    0    0    0  501 -0.00000000000E+00  0.00000000000E+00  0.22690463132E+03  0.22690463133E+03  0.25500000000E-02 0. -1.
          2   -1    0    0  501    0  0.00000000000E+00 -0.00000000000E+00 -0.30808830501E+04  0.30808830501E+04  0.25500000000E-02 0.  1.
     200001    2    1    2    0    0  0.52987708366E+03 -0.19009958708E+02 -0.10229945631E+04  0.13054385655E+04  0.61361296421E+03 0.  0.
    5000001    2    3    3    0    0 -0.11640554533E+03 -0.82340851927E+02 -0.21154565345E+03  0.26124396125E+03  0.56272345946E+02 0.  0.
        -11    1    4    4    0    0 -0.16898684985E+02 -0.28920576914E+02 -0.70700992996E+02  0.78234236330E+02  0.51100000000E-03 0. -1.
     200002    1    4    4    0    0 -0.99506860345E+02 -0.53420275013E+02 -0.14084466045E+03  0.18300972492E+03  0.30000000000E+02 0. -1.
     200000    1    3    3    0    0  0.64628262899E+03  0.63330893219E+02 -0.81144890970E+03  0.10441946043E+04  0.10100000000E+03 0.  1.
    -200001    1    1    2    0    0 -0.52987708366E+03  0.19009958708E+02 -0.18309838556E+04  0.20023491159E+04  0.61300000000E+03 0. -1.
<mgrwt>
<rscale>  0 0.16722041E+04</rscale>
<asrwt>0</asrwt>
<pdfrwt beam="1">  1        2 0.44012612E+00 0.16722041E+04</pdfrwt>
<pdfrwt beam="2">  1       -2 0.32414949E-01 0.16722041E+04</pdfrwt>
<totfact> 0.18056066E+01</totfact>
</mgrwt>
</event>
<event>
 8    1  0.7326756E-052  0.1554489E+04  0.7818608E-02  0.8849006E-01
         -2   -1    0    0    0  501 -0.00000000000E+00  0.00000000000E+00  0.99839592677E+03  0.99839592678E+03  0.25500000000E-02 0. -1.
          2   -1    0    0  501    0  0.00000000000E+00 -0.00000000000E+00 -0.60507936921E+03  0.60507936921E+03  0.25500000000E-02 0.  1.
     200001    2    1    2    0    0 -0.14495184608E+03 -0.20096579067E+03  0.61744376664E+03  0.90533469944E+03  0.61399985858E+03 0.  0.
    5000001    2    3    3    0    0  0.10773379667E+02 -0.30634198916E+03  0.61416814221E+03  0.69187224640E+03  0.86736488296E+02 0.  0.
        -11    1    4    4    0    0  0.21550034030E+02 -0.23026352958E+03  0.39538321330E+03  0.45805412604E+03  0.51100000000E-03 0. -1.
     200002    1    4    4    0    0 -0.10776654363E+02 -0.76078459580E+02  0.21878492892E+03  0.23381812037E+03  0.30000000000E+02 0.  1.
     200000    1    3    3    0    0 -0.15572522574E+03  0.10537619849E+03  0.32756244306E+01  0.21346245304E+03  0.10100000000E+03 0. -1.
    -200001    1    1    2    0    0  0.14495184608E+03  0.20096579067E+03 -0.22412720908E+03  0.69814059655E+03  0.61300000000E+03 0.  1.
<mgrwt>
<rscale>  0 0.15544887E+04</rscale>
<asrwt>0</asrwt>
<pdfrwt beam="1">  1        2 0.86439912E-01 0.15544887E+04</pdfrwt>
<pdfrwt beam="2">  1       -2 0.14262799E+00 0.15544887E+04</pdfrwt>
<totfact> 0.17716044E+01</totfact>
</mgrwt>
</event>
<event>
 8    1  0.7326756E-052  0.1560203E+04  0.7818608E-02  0.8845377E-01
         -2   -1    0    0    0  501 -0.00000000000E+00  0.00000000000E+00  0.12946034637E+04  0.12946034637E+04  0.25500000000E-02 0. -1.
          2   -1    0    0  501    0  0.00000000000E+00 -0.00000000000E+00 -0.47007346005E+03  0.47007346006E+03  0.25500000000E-02 0.  1.
     200001    2    1    2    0    0 -0.26120831898E+03  0.39659417424E+03  0.50624339060E+03  0.92646925676E+03  0.61363359446E+03 0.  0.
    5000001    2    3    3    0    0 -0.17628099941E+03  0.23285910085E+03 -0.68519178455E+02  0.31444406557E+03  0.94243519431E+02 0.  0.
        -11    1    4    4    0    0 -0.11622804419E+03  0.20084878268E+03 -0.44431271542E+02  0.23626961220E+03  0.51100000000E-03 0. -1.
     200002    1    4    4    0    0 -0.60052955215E+02  0.32010318174E+02 -0.24087906913E+02  0.78174453366E+02  0.30000000000E+02 0.  1.
     200000    1    3    3    0    0 -0.84927319578E+02  0.16373507339E+03  0.57476256905E+03  0.61202519119E+03  0.10100000000E+03 0.  1.
    -200001    1    1    2    0    0  0.26120831898E+03 -0.39659417424E+03  0.31828661302E+03  0.83820766698E+03  0.61300000000E+03 0. -1.
<mgrwt>
<rscale>  0 0.15602035E+04</rscale>
<asrwt>0</asrwt>
<pdfrwt beam="1">  1        2 0.67153351E-01 0.15602035E+04</pdfrwt>
<pdfrwt beam="2">  1       -2 0.18494335E+00 0.15602035E+04</pdfrwt>
<totfact> 0.11636175E+01</totfact>
</mgrwt>
</event>
<event>
 8    1  0.7326756E-052  0.1478904E+04  0.7818608E-02  0.8898604E-01
          2   -1    0    0  501    0  0.00000000000E+00  0.00000000000E+00  0.14797377217E+04  0.14797377217E+04  0.25500000000E-02 0.  1.
         -2   -1    0    0    0  501 -0.00000000000E+00 -0.00000000000E+00 -0.36951756512E+03  0.36951756513E+03  0.25500000000E-02 0. -1.
     200001    2    1    2    0    0  0.34470714506E+03 -0.22620654346E+03  0.52438726352E+03  0.90640768793E+03  0.61367782952E+03 0.  0.
    5000001    2    3    3    0    0 -0.11813286495E+03 -0.38002701661E+02  0.17220372042E+03  0.28683056686E+03  0.19291986326E+03 0.  0.
        -11    1    4    4    0    0 -0.81392411432E+02  0.72574803871E+02  0.80271674867E+02  0.13540815552E+03  0.51100000000E-03 0. -1.
     200002    1    4    4    0    0 -0.36740453522E+02 -0.11057750553E+03  0.91932045554E+02  0.15142241133E+03  0.30000000000E+02 0. -1.
     200000    1    3    3    0    0  0.46284001001E+03 -0.18820384180E+03  0.35218354310E+03  0.61957712108E+03  0.10100000000E+03 0.  1.
    -200001    1    1    2    0    0 -0.34470714506E+03  0.22620654346E+03  0.58583289307E+03  0.94284759890E+03  0.61300000000E+03 0.  1.
<mgrwt>
<rscale>  0 0.14789038E+04</rscale>
<asrwt>0</asrwt>
<pdfrwt beam="1">  1        2 0.21139110E+00 0.14789038E+04</pdfrwt>
<pdfrwt beam="2">  1       -2 0.52788224E-01 0.14789038E+04</pdfrwt>
<totfact> 0.49156319E+01</totfact>
</mgrwt>
</event>
<event>
 8    1  0.7326756E-052  0.2170110E+04  0.7818608E-02  0.8530973E-01
          2   -1    0    0  501    0  0.00000000000E+00  0.00000000000E+00  0.14222660936E+04  0.14222660936E+04  0.25500000000E-02 0.  1.
         -2   -1    0    0    0  501 -0.00000000000E+00 -0.00000000000E+00 -0.82779447382E+03  0.82779447382E+03  0.25500000000E-02 0. -1.
     200001    2    1    2    0    0 -0.20145091540E+03  0.49189186588E+03 -0.45013037245E+03  0.92737299993E+03  0.61226076941E+03 0.  0.
    5000001    2    3    3    0    0 -0.28542900091E+03  0.52577455637E+02 -0.34633155926E+03  0.45724039787E+03  0.69922307603E+02 0.  0.
        -11    1    4    4    0    0 -0.79424084032E+02  0.10362475681E+02 -0.57004875544E+02  0.98311351647E+02  0.51100000000E-03 0. -1.
     200002    1    4    4    0    0 -0.20600491688E+03  0.42214979956E+02 -0.28932668372E+03  0.35892904623E+03  0.30000000000E+02 0. -1.
     200000    1    3    3    0    0  0.83978085514E+02  0.43931441025E+03 -0.10379881319E+03  0.47013260206E+03  0.10100000000E+03 0.  1.
    -200001    1    1    2    0    0  0.20145091540E+03 -0.49189186588E+03  0.10446019923E+04  0.13226875675E+04  0.61300000000E+03 0.  1.
<mgrwt>
<rscale>  0 0.21701097E+04</rscale>
<asrwt>0</asrwt>
<pdfrwt beam="1">  1        2 0.20318087E+00 0.21701097E+04</pdfrwt>
<pdfrwt beam="2">  1       -2 0.11825635E+00 0.21701097E+04</pdfrwt>
<totfact> 0.81593168E+00</totfact>
</mgrwt>
</event>
<event>
 8    1  0.7326756E-052  0.1338278E+04  0.7818608E-02  0.8999749E-01
         -2   -1    0    0    0  501 -0.00000000000E+00  0.00000000000E+00  0.98947311371E+03  0.98947311372E+03  0.25500000000E-02 0. -1.
          2   -1    0    0  501    0  0.00000000000E+00 -0.00000000000E+00 -0.45251082770E+03  0.45251082771E+03  0.25500000000E-02 0.  1.
     200001    2    1    2    0    0  0.29221291569E+02  0.21778340432E+03  0.10169392297E+03  0.65871448400E+03  0.61260070387E+03 0.  0.
    5000001    2    3    3    0    0  0.17116902440E+03 -0.14331484827E+03 -0.15769550173E+02  0.24093490766E+03  0.89235477094E+02 0.  0.
        -11    1    4    4    0    0  0.15583458583E+03 -0.11685744519E+03 -0.27010775869E+02  0.19664603391E+03  0.51100000000E-03 0. -1.
     200002    1    4    4    0    0  0.15334438565E+02 -0.26457403075E+02  0.11241225697E+02  0.44288873758E+02  0.30000000000E+02 0.  1.
     200000    1    3    3    0    0 -0.14194773283E+03  0.36109825259E+03  0.11746347315E+03  0.41777957633E+03  0.10100000000E+03 0. -1.
    -200001    1    1    2    0    0 -0.29221291569E+02 -0.21778340432E+03  0.43526836304E+03  0.78326945743E+03  0.61300000000E+03 0. -1.
<mgrwt>
<rscale>  0 0.13382784E+04</rscale>
<asrwt>0</asrwt>
<pdfrwt beam="1">  1        2 0.64644404E-01 0.13382784E+04</pdfrwt>
<pdfrwt beam="2">  1       -2 0.14135330E+00 0.13382784E+04</pdfrwt>
<totfact> 0.25785373E+01</totfact>
</mgrwt>
</event>
<event>
 8    1  0.7326756E-052  0.1267010E+04  0.7818608E-02  0.9056143E-01
         -2   -1    0    0    0  501 -0.00000000000E+00  0.00000000000E+00  0.22297928854E+03  0.22297928855E+03  0.25500000000E-02 0. -1.
          2   -1    0    0  501    0  0.00000000000E+00 -0.00000000000E+00 -0.17998478332E+04  0.17998478332E+04  0.25500000000E-02 0.  1.
     200001    2    1    2    0    0  0.14283531562E+03  0.31655413104E+02 -0.68895783046E+03  0.93399360419E+03  0.61341435258E+03 0.  0.
    5000001    2    3    3    0    0  0.21972792399E+03 -0.12371133085E+03 -0.60210480146E+02  0.27401214318E+03  0.88727102554E+02 0.  0.
        -11    1    4    4    0    0  0.24224303537E+02  0.11138435425E+02 -0.14325899398E+02  0.30267358976E+02  0.51100000000E-03 0. -1.
     200002    1    4    4    0    0  0.19550362045E+03 -0.13484976628E+03 -0.45884580748E+02  0.24374478420E+03  0.30000000000E+02 0. -1.
     200000    1    3    3    0    0 -0.76892608368E+02  0.15536674396E+03 -0.62874735031E+03  0.65998146101E+03  0.10100000000E+03 0.  1.
    -200001    1    1    2    0    0 -0.14283531562E+03 -0.31655413104E+02 -0.88791071415E+03  0.10888335175E+04  0.61300000000E+03 0.  1.
<mgrwt>
<rscale>  0 0.12670103E+04</rscale>
<asrwt>0</asrwt>
<pdfrwt beam="1">  1        2 0.25712111E+00 0.12670103E+04</pdfrwt>
<pdfrwt beam="2">  1       -2 0.31854185E-01 0.12670103E+04</pdfrwt>
<totfact> 0.91616581E+01</totfact>
</mgrwt>
</event>
<event>
 8    1  0.7326756E-052  0.1467632E+04  0.7818608E-02  0.8906267E-01
         -2   -1    0    0    0  501 -0.00000000000E+00  0.00000000000E+00  0.26206191084E+03  0.26206191085E+03  0.25500000000E-02 0. -1.
          2   -1    0    0  501    0  0.00000000000E+00 -0.00000000000E+00 -0.20548042299E+04  0.20548042299E+04  0.25500000000E-02 0.  1.
     200001    2    1    2    0    0  0.18786854142E+03  0.31755922694E+03 -0.63733389788E+03  0.95786795414E+03  0.61251781093E+03 0.  0.
    5000001    2    3    3    0    0  0.85501991239E+02  0.19260886172E+03 -0.71733412305E+03  0.75124622152E+03  0.73443019629E+02 0.  0.
        -11    1    4    4    0    0  0.23944141689E+02  0.86899324615E+02 -0.21031428543E+03  0.22881633070E+03  0.51100000000E-03 0. -1.
     200002    1    4    4    0    0  0.61557849550E+02  0.10570953711E+03 -0.50701983763E+03  0.52242989082E+03  0.30000000000E+02 0. -1.
     200000    1    3    3    0    0  0.10236655018E+03  0.12495036521E+03  0.80000225169E+02  0.20662173262E+03  0.10100000000E+03 0. -1.
    -200001    1    1    2    0    0 -0.18786854142E+03 -0.31755922694E+03 -0.11554084211E+04  0.13589981866E+04  0.61300000000E+03 0.  1.
<mgrwt>
<rscale>  0 0.14676320E+04</rscale>
<asrwt>0</asrwt>
<pdfrwt beam="1">  1        2 0.29354345E+00 0.14676320E+04</pdfrwt>
<pdfrwt beam="2">  1       -2 0.37437417E-01 0.14676320E+04</pdfrwt>
<totfact> 0.49059100E+01</totfact>
</mgrwt>
</event>
<event>
 8    1  0.7326756E-052  0.1361538E+04  0.7818608E-02  0.8982140E-01
          2   -1    0    0  501    0  0.00000000000E+00  0.00000000000E+00  0.45407093228E+03  0.45407093229E+03  0.25500000000E-02 0. -1.
         -2   -1    0    0    0  501 -0.00000000000E+00 -0.00000000000E+00 -0.10206473653E+04  0.10206473653E+04  0.25500000000E-02 0.  1.
     200001    2    1    2    0    0  0.28498263079E+03  0.15342404181E+02 -0.23955944120E+03  0.72361271102E+03  0.62030326491E+03 0.  0.
    5000001    2    3    3    0    0  0.26237260017E+03  0.12454335233E+03 -0.40330120175E+03  0.50124269346E+03  0.65130257819E+02 0.  0.
        -11    1    4    4    0    0  0.85087164683E+02  0.44524461232E+02 -0.92278088292E+02  0.13318220159E+03  0.51100000000E-03 0. -1.
     200002    1    4    4    0    0  0.17728543549E+03  0.80018891099E+02 -0.31102311346E+03  0.36806049187E+03  0.30000000000E+02 0. -1.
     200000    1    3    3    0    0  0.22610030621E+02 -0.10920094815E+03  0.16374176055E+03  0.22237001756E+03  0.10100000000E+03 0. -1.
    -200001    1    1    2    0    0 -0.28498263079E+03 -0.15342404181E+02 -0.32701699179E+03  0.75110558655E+03  0.61300000000E+03 0.  1.
<mgrwt>
<rscale>  0 0.13615378E+04</rscale>
<asrwt>0</asrwt>
<pdfrwt beam="1">  1        2 0.64867276E-01 0.13615378E+04</pdfrwt>
<pdfrwt beam="2">  1       -2 0.14580677E+00 0.13615378E+04</pdfrwt>
<totfact> 0.23641333E+01</totfact>
</mgrwt>
</event>
<event>
 8    1  0.7326756E-052  0.1401092E+04  0.7818608E-02  0.8953028E-01
          2   -1    0    0  501    0  0.00000000000E+00  0.00000000000E+00  0.25720439238E+04  0.25720439238E+04  0.25500000000E-02 0.  1.
         -2   -1    0    0    0  501 -0.00000000000E+00 -0.00000000000E+00 -0.19080730427E+03  0.19080730429E+03  0.25500000000E-02 0. -1.
     200001    2    1    2    0    0 -0.14389702988E+03  0.21623378277E+03  0.16204204492E+04  0.17518746462E+04  0.61305704459E+03 0.  0.
    5000001    2    3    3    0    0 -0.34317669589E+03  0.51676442600E+02  0.63424184712E+03  0.72740369072E+03  0.80079393848E+02 0.  0.
        -11    1    4    4    0    0 -0.21435254642E+03  0.92749856047E+00  0.37190909470E+03  0.42926011826E+03  0.51100000000E-03 0. -1.
     200002    1    4    4    0    0 -0.12882414947E+03  0.50748944040E+02  0.26233275242E+03  0.29814357246E+03  0.30000000000E+02 0.  1.
     200000    1    3    3    0    0  0.19927966601E+03  0.16455734017E+03  0.98617860204E+03  0.10244709555E+04  0.10100000000E+03 0.  1.
    -200001    1    1    2    0    0  0.14389702988E+03 -0.21623378277E+03  0.76081617033E+03  0.10109765818E+04  0.61300000000E+03 0. -1.
<mgrwt>
<rscale>  0 0.14010921E+04</rscale>
<asrwt>0</asrwt>
<pdfrwt beam="1">  1        2 0.36743486E+00 0.14010921E+04</pdfrwt>
<pdfrwt beam="2">  1       -2 0.27258185E-01 0.14010921E+04</pdfrwt>
<totfact> 0.48304473E+01</totfact>
</mgrwt>
</event>
<event>
 8    1  0.7326756E-052  0.1776875E+04  0.7818608E-02  0.8718695E-01
          2   -1    0    0  501    0  0.00000000000E+00  0.00000000000E+00  0.95352257096E+03  0.95352257096E+03  0.25500000000E-02 0.  1.
         -2   -1    0    0    0  501 -0.00000000000E+00 -0.00000000000E+00 -0.82779462726E+03  0.82779462727E+03  0.25500000000E-02 0. -1.
     200001    2    1    2    0    0  0.29621069117E+03  0.54960021679E+03  0.21562724373E+03  0.90174226907E+03  0.61387526398E+03 0.  0.
    5000001    2    3    3    0    0  0.19590886839E+03  0.46978838240E+03  0.40473766847E+03  0.65195408419E+03  0.46369587727E+02 0.  0.
        -11    1    4    4    0    0  0.73792233374E+02  0.16958722074E+03  0.16306033544E+03  0.24656397169E+03  0.51100000000E-03 0. -1.
     200002    1    4    4    0    0  0.12211663502E+03  0.30020116166E+03  0.24167733303E+03  0.40539011249E+03  0.30000000000E+02 0. -1.
     200000    1    3    3    0    0  0.10030182278E+03  0.79811834391E+02 -0.18911042473E+03  0.24978818488E+03  0.10100000000E+03 0. -1.
    -200001    1    1    2    0    0 -0.29621069117E+03 -0.54960021679E+03 -0.89899300041E+02  0.87957492916E+03  0.61300000000E+03 0. -1.
<mgrwt>
<rscale>  0 0.17768746E+04</rscale>
<asrwt>0</asrwt>
<pdfrwt beam="1">  1        2 0.13621751E+00 0.17768746E+04</pdfrwt>
<pdfrwt beam="2">  1       -2 0.11825638E+00 0.17768746E+04</pdfrwt>
<totfact> 0.15690523E+01</totfact>
</mgrwt>
</event>
<event>
 8    1  0.7326756E-052  0.1340588E+04  0.7818608E-02  0.8997983E-01
         -2   -1    0    0    0  501 -0.00000000000E+00  0.00000000000E+00  0.19874772572E+03  0.19874772574E+03  0.25500000000E-02 0. -1.
          2   -1    0    0  501    0  0.00000000000E+00 -0.00000000000E+00 -0.22606252881E+04  0.22606252882E+04  0.25500000000E-02 0.  1.
     200001    2    1    2    0    0 -0.13471331045E+03  0.23368048928E+03 -0.10731839939E+04  0.12652045921E+04  0.61340404964E+03 0.  0.
    5000001    2    3    3    0    0 -0.93668213011E+02  0.33954705953E+02 -0.10210574690E+04  0.10317666707E+04  0.10980642794E+03 0.  0.
        -11    1    4    4    0    0 -0.47640239674E+02  0.22779487679E+02 -0.85240356010E+03  0.85403766121E+03  0.51100000000E-03 0. -1.
     200002    1    4    4    0    0 -0.46027973337E+02  0.11175218273E+02 -0.16865390890E+03  0.17772900951E+03  0.30000000000E+02 0. -1.
     200000    1    3    3    0    0 -0.41045097436E+02  0.19972578332E+03 -0.52126524866E+02  0.23343792139E+03  0.10100000000E+03 0. -1.
    -200001    1    1    2    0    0  0.13471331045E+03 -0.23368048928E+03 -0.98869356855E+03  0.11941684218E+04  0.61300000000E+03 0. -1.
<mgrwt>
<rscale>  0 0.13405881E+04</rscale>
<asrwt>0</asrwt>
<pdfrwt beam="1">  1        2 0.32294646E+00 0.13405881E+04</pdfrwt>
<pdfrwt beam="2">  1       -2 0.28392534E-01 0.13405881E+04</pdfrwt>
<totfact> 0.65447733E+01</totfact>
</mgrwt>
</event>
<event>
 8    1  0.7326756E-052  0.2332224E+04  0.7818608E-02  0.8465323E-01
          2   -1    0    0  501    0  0.00000000000E+00  0.00000000000E+00  0.15455969490E+04  0.15455969490E+04  0.25500000000E-02 0.  1.
         -2   -1    0    0    0  501 -0.00000000000E+00 -0.00000000000E+00 -0.87980064260E+03  0.87980064260E+03  0.25500000000E-02 0. -1.
     200001    2    1    2    0    0  0.50219819435E+03 -0.53656310386E+03 -0.35998976530E+03  0.10225044896E+04  0.61304144171E+03 0.  0.
    5000001    2    3    3    0    0  0.37592729540E+03 -0.15062323043E+03  0.10442272082E+02  0.46365314965E+03  0.22551388684E+03 0.  0.
        -11    1    4    4    0    0  0.22437151823E+03 -0.17270489627E+03  0.77852653595E+02  0.29365046409E+03  0.51100000000E-03 0. -1.
     200002    1    4    4    0    0  0.15155577717E+03  0.22081665842E+02 -0.67410381513E+02  0.17000268556E+03  0.30000000000E+02 0. -1.
     200000    1    3    3    0    0  0.12627089894E+03 -0.38593987343E+03 -0.37043203738E+03  0.55885133993E+03  0.10100000000E+03 0. -1.
    -200001    1    1    2    0    0 -0.50219819435E+03  0.53656310386E+03  0.10257860717E+04  0.14028931020E+04  0.61300000000E+03 0.  1.
<mgrwt>
<rscale>  0 0.23322240E+04</rscale>
<asrwt>0</asrwt>
<pdfrwt beam="1">  1        2 0.22079956E+00 0.23322240E+04</pdfrwt>
<pdfrwt beam="2">  1       -2 0.12568581E+00 0.23322240E+04</pdfrwt>
<totfact> 0.59452017E+00</totfact>
</mgrwt>
</event>
<event>
 8    1  0.7326756E-052  0.1412971E+04  0.7818608E-02  0.8944483E-01
         -2   -1    0    0    0  501 -0.00000000000E+00  0.00000000000E+00  0.49965162542E+03  0.49965162542E+03  0.25500000000E-02 0. -1.
          2   -1    0    0  501    0  0.00000000000E+00 -0.00000000000E+00 -0.99893888859E+03  0.99893888860E+03  0.25500000000E-02 0.  1.
     200001    2    1    2    0    0  0.54394633374E+02 -0.34265471718E+03 -0.30639366720E+03  0.76828374922E+03  0.61319801750E+03 0.  0.
    5000001    2    3    3    0    0  0.21365485996E+03 -0.86676375020E+02 -0.36708662686E+03  0.44459660586E+03  0.98754023450E+02 0.  0.
        -11    1    4    4    0    0 -0.21669424260E+00 -0.25315010242E+02 -0.26329004832E+02  0.36525514310E+02  0.51100000000E-03 0. -1.
     200002    1    4    4    0    0  0.21387155420E+03 -0.61361364778E+02 -0.34075762203E+03  0.40807109155E+03  0.30000000000E+02 0. -1.
     200000    1    3    3    0    0 -0.15926022658E+03 -0.25597834216E+03  0.60692959661E+02  0.32368714336E+03  0.10100000000E+03 0. -1.
    -200001    1    1    2    0    0 -0.54394633374E+02  0.34265471718E+03 -0.19289359597E+03  0.73030676480E+03  0.61300000000E+03 0. -1.
<mgrwt>
<rscale>  0 0.14129705E+04</rscale>
<asrwt>0</asrwt>
<pdfrwt beam="1">  1        2 0.14270556E+00 0.14129705E+04</pdfrwt>
<pdfrwt beam="2">  1       -2 0.71378804E-01 0.14129705E+04</pdfrwt>
<totfact> 0.48796981E+01</totfact>
</mgrwt>
</event>
<event>
 8    1  0.7326756E-052  0.1273763E+04  0.7818608E-02  0.9050634E-01
          2   -1    0    0  501    0  0.00000000000E+00  0.00000000000E+00  0.11214170185E+04  0.11214170185E+04  0.25500000000E-02 0.  1.
         -2   -1    0    0    0  501 -0.00000000000E+00 -0.00000000000E+00 -0.36170110924E+03  0.36170110925E+03  0.25500000000E-02 0. -1.
     200001    2    1    2    0    0 -0.82004478173E+02 -0.14537826774E+03  0.43325018696E+03  0.76882936050E+03  0.61280770711E+03 0.  0.
    5000001    2    3    3    0    0  0.11635367133E+03 -0.19894162269E+03 -0.62825649548E+01  0.27324381947E+03  0.14665186050E+03 0.  0.
        -11    1    4    4    0    0  0.45718061820E+02 -0.45903803247E+02 -0.65463575532E+02  0.92102008940E+02  0.51100000000E-03 0. -1.
     200002    1    4    4    0    0  0.70635609510E+02 -0.15303781944E+03  0.59181010577E+02  0.18114181053E+03  0.30000000000E+02 0. -1.
     200000    1    3    3    0    0 -0.19835814950E+03  0.53563354948E+02  0.43953275191E+03  0.49558554102E+03  0.10100000000E+03 0.  1.
    -200001    1    1    2    0    0  0.82004478173E+02  0.14537826774E+03  0.32646572228E+03  0.71428876723E+03  0.61300000000E+03 0. -1.
<mgrwt>
<rscale>  0 0.12737626E+04</rscale>
<asrwt>0</asrwt>
<pdfrwt beam="1">  1        2 0.16020243E+00 0.12737626E+04</pdfrwt>
<pdfrwt beam="2">  1       -2 0.51671588E-01 0.12737626E+04</pdfrwt>
<totfact> 0.82467390E+01</totfact>
</mgrwt>
</event>
<event>
 8    1  0.7326756E-052  0.1853593E+04  0.7818608E-02  0.8678307E-01
         -2   -1    0    0    0  501 -0.00000000000E+00  0.00000000000E+00  0.38346015220E+03  0.38346015221E+03  0.25500000000E-02 0. -1.
          2   -1    0    0  501    0  0.00000000000E+00 -0.00000000000E+00 -0.22400025400E+04  0.22400025400E+04  0.25500000000E-02 0.  1.
     200001    2    1    2    0    0 -0.21841743912E+02  0.57430889033E+03 -0.37519894941E+03  0.92039042548E+03  0.61321816704E+03 0.  0.
    5000001    2    3    3    0    0 -0.20002737945E+03  0.86773399473E+02  0.38107599988E+01  0.26978275923E+03  0.15883211231E+03 0.  0.
        -11    1    4    4    0    0 -0.19714408210E+03  0.93610548335E+02 -0.34082465250E+02  0.22088535104E+03  0.51100000000E-03 0. -1.
     200002    1    4    4    0    0 -0.28832973515E+01 -0.68371488618E+01  0.37893225249E+02  0.48897408192E+02  0.30000000000E+02 0. -1.
     200000    1    3    3    0    0  0.17818563554E+03  0.48753549085E+03 -0.37900970941E+03  0.65060766625E+03  0.10100000000E+03 0.  1.
    -200001    1    1    2    0    0  0.21841743912E+02 -0.57430889033E+03 -0.14813434384E+04  0.17030722668E+04  0.61300000000E+03 0. -1.
<mgrwt>
<rscale>  0 0.18535930E+04</rscale>
<asrwt>0</asrwt>
<pdfrwt beam="1">  1        2 0.32000036E+00 0.18535930E+04</pdfrwt>
<pdfrwt beam="2">  1       -2 0.54780023E-01 0.18535930E+04</pdfrwt>
<totfact> 0.17823361E+01</totfact>
</mgrwt>
</event>
<event>
 8    1  0.7326756E-052  0.1577823E+04  0.7818608E-02  0.8834289E-01
         -2   -1    0    0    0  501 -0.00000000000E+00  0.00000000000E+00  0.46051722200E+03  0.46051722201E+03  0.25500000000E-02 0. -1.
          2   -1    0    0  501    0  0.00000000000E+00 -0.00000000000E+00 -0.13514833834E+04  0.13514833834E+04  0.25500000000E-02 0.  1.
     200001    2    1    2    0    0 -0.52659872713E+02  0.29301539860E+03 -0.90423347244E+03  0.11304024044E+04  0.60954108743E+03 0.  0.
    5000001    2    3    3    0    0  0.21596736242E+03  0.26264716608E+03 -0.65783027959E+03  0.75093125344E+03  0.12462598107E+03 0.  0.
        -11    1    4    4    0    0  0.18271530902E+02  0.10197444514E+03 -0.22692737392E+03  0.24945674843E+03  0.51100000000E-03 0. -1.
     200002    1    4    4    0    0  0.19769583152E+03  0.16067272094E+03 -0.43090290567E+03  0.50147450501E+03  0.30000000000E+02 0. -1.
     200000    1    3    3    0    0 -0.26862723513E+03  0.30368232528E+02 -0.24640319285E+03  0.37947115101E+03  0.10100000000E+03 0.  1.
    -200001    1    1    2    0    0  0.52659872713E+02 -0.29301539860E+03  0.13267311054E+02  0.68159820096E+03  0.61300000000E+03 0. -1.
<mgrwt>
<rscale>  0 0.15778230E+04</rscale>
<asrwt>0</asrwt>
<pdfrwt beam="1">  1        2 0.19306905E+00 0.15778230E+04</pdfrwt>
<pdfrwt beam="2">  1       -2 0.65788175E-01 0.15778230E+04</pdfrwt>
<totfact> 0.36002515E+01</totfact>
</mgrwt>
</event>
<event>
 8    1  0.7326756E-052  0.1361024E+04  0.7818608E-02  0.8982525E-01
         -2   -1    0    0    0  501 -0.00000000000E+00  0.00000000000E+00  0.26580070116E+03  0.26580070117E+03  0.25500000000E-02 0. -1.
          2   -1    0    0  501    0  0.00000000000E+00 -0.00000000000E+00 -0.17422703935E+04  0.17422703935E+04  0.25500000000E-02 0.  1.
     200001    2    1    2    0    0  0.15956061419E+03 -0.18312226609E+03 -0.50306829675E+03  0.83237018421E+03  0.61706487376E+03 0.  0.
    5000001    2    3    3    0    0  0.13272860270E+03 -0.17999773961E+03 -0.62531270850E+03  0.67151492098E+03  0.99499936970E+02 0.  0.
        -11    1    4    4    0    0  0.99268644417E+02 -0.16971820690E+03 -0.46901589748E+03  0.50856115228E+03  0.51100000000E-03 0. -1.
     200002    1    4    4    0    0  0.33459958288E+02 -0.10279532707E+02 -0.15629681101E+03  0.16295376870E+03  0.30000000000E+02 0. -1.
     200000    1    3    3    0    0  0.26832011481E+02 -0.31245264834E+01  0.12224441174E+03  0.16085526323E+03  0.10100000000E+03 0.  1.
    -200001    1    1    2    0    0 -0.15956061419E+03  0.18312226609E+03 -0.97340139558E+03  0.11757009105E+04  0.61300000000E+03 0.  1.
<mgrwt>
<rscale>  0 0.13610242E+04</rscale>
<asrwt>0</asrwt>
<pdfrwt beam="1">  1        2 0.24889576E+00 0.13610242E+04</pdfrwt>
<pdfrwt beam="2">  1       -2 0.37971530E-01 0.13610242E+04</pdfrwt>
<totfact> 0.69697124E+01</totfact>
</mgrwt>
</event>
<event>
 8    1  0.7326756E-052  0.1294978E+04  0.7818608E-02  0.9033557E-01
         -2   -1    0    0    0  501 -0.00000000000E+00  0.00000000000E+00  0.26202238435E+03  0.26202238436E+03  0.25500000000E-02 0. -1.
          2   -1    0    0  501    0  0.00000000000E+00 -0.00000000000E+00 -0.16000242573E+04  0.16000242573E+04  0.25500000000E-02 0.  1.
     200001    2    1    2    0    0 -0.88464602239E+02  0.14218721140E+03 -0.84741142221E+03  0.10592445619E+04  0.61306584838E+03 0.  0.
    5000001    2    3    3    0    0 -0.45710404129E+02 -0.16355702352E+03 -0.98571582806E+02  0.24299119208E+03  0.14313637379E+03 0.  0.
        -11    1    4    4    0    0 -0.57687111024E+02 -0.97877745548E+02  0.77892808384E+01  0.11387944831E+03  0.51100000000E-03 0. -1.
     200002    1    4    4    0    0  0.11976706896E+02 -0.65679277969E+02 -0.10636086364E+03  0.12911174376E+03  0.30000000000E+02 0. -1.
     200000    1    3    3    0    0 -0.42754198111E+02  0.30574423492E+03 -0.74883983940E+03  0.81625336980E+03  0.10100000000E+03 0.  1.
    -200001    1    1    2    0    0  0.88464602239E+02 -0.14218721140E+03 -0.49059045072E+03  0.80280207976E+03  0.61300000000E+03 0. -1.
<mgrwt>
<rscale>  0 0.12949783E+04</rscale>
<asrwt>0</asrwt>
<pdfrwt beam="1">  1        2 0.22857489E+00 0.12949783E+04</pdfrwt>
<pdfrwt beam="2">  1       -2 0.37431770E-01 0.12949783E+04</pdfrwt>
<totfact> 0.85387065E+01</totfact>
</mgrwt>
</event>
<event>
 8    1  0.7326756E-052  0.2549126E+04  0.7818608E-02  0.8385690E-01
          2   -1    0    0  501    0  0.00000000000E+00  0.00000000000E+00  0.33999809557E+04  0.33999809557E+04  0.25500000000E-02 0.  1.
         -2   -1    0    0    0  501 -0.00000000000E+00 -0.00000000000E+00 -0.47780010631E+03  0.47780010632E+03  0.25500000000E-02 0. -1.
     200001    2    1    2    0    0 -0.40518511978E+03 -0.57978375525E+03  0.14522709156E+03  0.94732625819E+03  0.61319813046E+03 0.  0.
    5000001    2    3    3    0    0 -0.24555211044E+03  0.50545376883E+02  0.11981483551E+03  0.28880951943E+03  0.78769725389E+02 0.  0.
        -11    1    4    4    0    0 -0.20463579430E+03  0.30485584358E+02  0.82627555737E+02  0.22278350956E+03  0.51100000000E-03 0. -1.
     200002    1    4    4    0    0 -0.40916316136E+02  0.20059792525E+02  0.37187279771E+02  0.66026009868E+02  0.30000000000E+02 0. -1.
     200000    1    3    3    0    0 -0.15963300934E+03 -0.63032913213E+03  0.25412256053E+02  0.65851673877E+03  0.10100000000E+03 0.  1.
    -200001    1    1    2    0    0  0.40518511978E+03  0.57978375525E+03  0.27769537578E+04  0.29304548038E+04  0.61300000000E+03 0. -1.
<mgrwt>
<rscale>  0 0.25491263E+04</rscale>
<asrwt>0</asrwt>
<pdfrwt beam="1">  1        2 0.48571154E+00 0.25491263E+04</pdfrwt>
<pdfrwt beam="2">  1       -2 0.68257161E-01 0.25491263E+04</pdfrwt>
<totfact> 0.24247986E+00</totfact>
</mgrwt>
</event>
<event>
 8    1  0.7326756E-052  0.1349133E+04  0.7818608E-02  0.8991485E-01
          2   -1    0    0  501    0  0.00000000000E+00  0.00000000000E+00  0.24388456097E+03  0.24388456098E+03  0.25500000000E-02 0.  1.
         -2   -1    0    0    0  501 -0.00000000000E+00 -0.00000000000E+00 -0.18657994153E+04  0.18657994153E+04  0.25500000000E-02 0. -1.
     200001    2    1    2    0    0  0.14673025761E+03 -0.23685056788E+03 -0.75268481282E+03  0.10101577942E+04  0.61339740930E+03 0.  0.
    5000001    2    3    3    0    0 -0.18483676399E+03 -0.22331746678E+02 -0.47783619311E+03  0.51853011168E+03  0.76698846398E+02 0.  0.
        -11    1    4    4    0    0 -0.79842375801E+02 -0.29206170623E+02 -0.14402509287E+03  0.16724542670E+03  0.51100000000E-03 0. -1.
     200002    1    4    4    0    0 -0.10499438819E+03  0.68744239450E+01 -0.33381110024E+03  0.35128468498E+03  0.30000000000E+02 0. -1.
     200000    1    3    3    0    0  0.33156702161E+03 -0.21451882120E+03 -0.27484861971E+03  0.49162768252E+03  0.10100000000E+03 0.  1.
    -200001    1    1    2    0    0 -0.14673025761E+03  0.23685056788E+03 -0.86923004148E+03  0.10995261820E+04  0.61300000000E+03 0.  1.
<mgrwt>
<rscale>  0 0.13491326E+04</rscale>
<asrwt>0</asrwt>
<pdfrwt beam="1">  1        2 0.34840653E-01 0.13491326E+04</pdfrwt>
<pdfrwt beam="2">  1       -2 0.26654277E+00 0.13491326E+04</pdfrwt>
<totfact> 0.75068739E+00</totfact>
</mgrwt>
</event>
<event>
 8    1  0.7326756E-052  0.1672988E+04  0.7818608E-02  0.8776922E-01
         -2   -1    0    0    0  501 -0.00000000000E+00  0.00000000000E+00  0.44486678835E+03  0.44486678835E+03  0.25500000000E-02 0.  1.
          2   -1    0    0  501    0  0.00000000000E+00 -0.00000000000E+00 -0.15728802427E+04  0.15728802427E+04  0.25500000000E-02 0. -1.
     200001    2    1    2    0    0  0.10163928583E+03 -0.42418629739E+03 -0.10071934417E+04  0.12557555384E+04  0.61009735619E+03 0.  0.
    5000001    2    3    3    0    0  0.11291881141E+03  0.12199988348E+03 -0.34535363914E+03  0.39164935509E+03  0.80532302448E+02 0.  0.
        -11    1    4    4    0    0  0.94583302951E+02  0.83803446448E+02 -0.28673676777E+03  0.31334803786E+03  0.51100000000E-03 0. -1.
     200002    1    4    4    0    0  0.18335508456E+02  0.38196437028E+02 -0.58616871361E+02  0.78301317231E+02  0.30000000000E+02 0.  1.
     200000    1    3    3    0    0 -0.11279525576E+02 -0.54618618087E+03 -0.66183980256E+03  0.86410618336E+03  0.10100000000E+03 0.  1.
    -200001    1    1    2    0    0 -0.10163928583E+03  0.42418629739E+03 -0.12082001264E+03  0.76199149259E+03  0.61300000000E+03 0.  1.
<mgrwt>
<rscale>  0 0.16729880E+04</rscale>
<asrwt>0</asrwt>
<pdfrwt beam="1">  1        2 0.22469717E+00 0.16729880E+04</pdfrwt>
<pdfrwt beam="2">  1       -2 0.63552399E-01 0.16729880E+04</pdfrwt>
<totfact> 0.29287119E+01</totfact>
</mgrwt>
</event>
<event>
 8    1  0.7326756E-052  0.1740502E+04  0.7818608E-02  0.8738596E-01
         -2   -1    0    0    0  501 -0.00000000000E+00  0.00000000000E+00  0.34206327608E+03  0.34206327609E+03  0.25500000000E-02 0. -1.
          2   -1    0    0  501    0  0.00000000000E+00 -0.00000000000E+00 -0.22140252807E+04  0.22140252807E+04  0.25500000000E-02 0.  1.
     200001    2    1    2    0    0 -0.55859968615E+02 -0.16446323306E+02 -0.18391449186E+04  0.19394551335E+04  0.61289588473E+03 0.  0.
    5000001    2    3    3    0    0  0.12060773145E+03  0.13316200039E+03 -0.13517564641E+04  0.13905726276E+04  0.27233866997E+03 0.  0.
        -11    1    4    4    0    0  0.15160098244E+03  0.22032531607E+02 -0.11152502183E+04  0.11257225857E+04  0.51100000000E-03 0. -1.
     200002    1    4    4    0    0 -0.30993250983E+02  0.11112946878E+03 -0.23650624571E+03  0.26485004191E+03  0.30000000000E+02 0. -1.
     200000    1    3    3    0    0 -0.17646770007E+03 -0.14960832369E+03 -0.48738845456E+03  0.54888250593E+03  0.10100000000E+03 0.  1.
    -200001    1    1    2    0    0  0.55859968615E+02  0.16446323306E+02 -0.32817086052E+02  0.61663342334E+03  0.61300000000E+03 0. -1.
<mgrwt>
<rscale>  0 0.17405019E+04</rscale>
<asrwt>0</asrwt>
<pdfrwt beam="1">  1        2 0.31628932E+00 0.17405019E+04</pdfrwt>
<pdfrwt beam="2">  1       -2 0.48866184E-01 0.17405019E+04</pdfrwt>
<totfact> 0.23455126E+01</totfact>
</mgrwt>
</event>
<event>
 8    1  0.7326756E-052  0.1328106E+04  0.7818608E-02  0.9007569E-01
          2   -1    0    0  501    0  0.00000000000E+00  0.00000000000E+00  0.51086937547E+03  0.51086937547E+03  0.25500000000E-02 0.  1.
         -2   -1    0    0    0  501 -0.00000000000E+00 -0.00000000000E+00 -0.86316802395E+03  0.86316802396E+03  0.25500000000E-02 0. -1.
     200001    2    1    2    0    0 -0.16262938955E+03 -0.67503204707E+01 -0.39341725415E+03  0.73846393797E+03  0.60337216264E+03 0.  0.
    5000001    2    3    3    0    0 -0.13025248977E+02 -0.25292489004E+03 -0.40613610820E+02  0.27192912863E+03  0.90306857451E+02 0.  0.
        -11    1    4    4    0    0 -0.39122813280E+02 -0.15189132156E+03 -0.25362942148E+01  0.15686937519E+03  0.51100000000E-03 0. -1.
     200002    1    4    4    0    0  0.26097564303E+02 -0.10103356848E+03 -0.38077316605E+02  0.11505975344E+03  0.30000000000E+02 0.  1.
     200000    1    3    3    0    0 -0.14960414057E+03  0.24617456957E+03 -0.35280364333E+03  0.46653480934E+03  0.10100000000E+03 0.  1.
    -200001    1    1    2    0    0  0.16262938955E+03  0.67503204707E+01  0.41118605667E+02  0.63557346145E+03  0.61300000000E+03 0.  1.
<mgrwt>
<rscale>  0 0.13281056E+04</rscale>
<asrwt>0</asrwt>
<pdfrwt beam="1">  1        2 0.72981340E-01 0.13281056E+04</pdfrwt>
<pdfrwt beam="2">  1       -2 0.12330972E+00 0.13281056E+04</pdfrwt>
<totfact> 0.31827482E+01</totfact>
</mgrwt>
</event>
<event>
 8    1  0.7326756E-052  0.1607793E+04  0.7818608E-02  0.8815774E-01
          2   -1    0    0  501    0  0.00000000000E+00  0.00000000000E+00  0.13323366987E+04  0.13323366987E+04  0.25500000000E-02 0.  1.
         -2   -1    0    0    0  501 -0.00000000000E+00 -0.00000000000E+00 -0.48505004630E+03  0.48505004630E+03  0.25500000000E-02 0. -1.
     200001    2    1    2    0    0  0.47890505898E+03 -0.45067708310E+02  0.64552734754E+03  0.10124911176E+04  0.61404523696E+03 0.  0.
    5000001    2    3    3    0    0 -0.55468451865E+02  0.10323368637E+03  0.27683165163E+03  0.33892904259E+03  0.15653494631E+03 0.  0.
        -11    1    4    4    0    0 -0.25511312294E+02  0.64726406895E+02  0.15346446162E+02  0.71244987294E+02  0.51100000000E-03 0. -1.
     200002    1    4    4    0    0 -0.29957139571E+02  0.38507279476E+02  0.26148520547E+03  0.26768405530E+03  0.30000000000E+02 0. -1.
     200000    1    3    3    0    0  0.53437351085E+03 -0.14830139468E+03  0.36869569591E+03  0.67356207505E+03  0.10100000000E+03 0.  1.
    -200001    1    1    2    0    0 -0.47890505898E+03  0.45067708310E+02  0.20175930487E+03  0.80489562736E+03  0.61300000000E+03 0. -1.
<mgrwt>
<rscale>  0 0.16077935E+04</rscale>
<asrwt>0</asrwt>
<pdfrwt beam="1">  1        2 0.19033381E+00 0.16077935E+04</pdfrwt>
<pdfrwt beam="2">  1       -2 0.69292864E-01 0.16077935E+04</pdfrwt>
<totfact> 0.32888009E+01</totfact>
</mgrwt>
</event>
<event>
 8    1  0.7326756E-052  0.1561208E+04  0.7818608E-02  0.8844740E-01
          2   -1    0    0  501    0  0.00000000000E+00  0.00000000000E+00  0.15486824966E+04  0.15486824966E+04  0.25500000000E-02 0.  1.
         -2   -1    0    0    0  501 -0.00000000000E+00 -0.00000000000E+00 -0.39345873132E+03  0.39345873133E+03  0.25500000000E-02 0. -1.
     200001    2    1    2    0    0 -0.43235093289E+03 -0.14379034947E+03  0.37721941487E+03  0.85188311030E+03  0.61303128216E+03 0.  0.
    5000001    2    3    3    0    0  0.18812132932E+02 -0.86430919491E+02 -0.12255388233E+03  0.16864628112E+03  0.74819207889E+02 0.  0.
        -11    1    4    4    0    0 -0.10577025263E+02 -0.69940007418E+02 -0.74694063347E+02  0.10287215950E+03  0.51100000000E-03 0. -1.
     200002    1    4    4    0    0  0.29389158196E+02 -0.16490912073E+02 -0.47859818988E+02  0.65774121613E+02  0.30000000000E+02 0. -1.
     200000    1    3    3    0    0 -0.45116306582E+03 -0.57359429975E+02  0.49977329720E+03  0.68323682919E+03  0.10100000000E+03 0.  1.
    -200001    1    1    2    0    0  0.43235093289E+03  0.14379034947E+03  0.77800435039E+03  0.10902581176E+04  0.61300000000E+03 0.  1.
<mgrwt>
<rscale>  0 0.15612081E+04</rscale>
<asrwt>0</asrwt>
<pdfrwt beam="1">  1        2 0.22124036E+00 0.15612081E+04</pdfrwt>
<pdfrwt beam="2">  1       -2 0.56208389E-01 0.15612081E+04</pdfrwt>
<totfact> 0.39423815E+01</totfact>
</mgrwt>
</event>
<event>
 8    1  0.7326756E-052  0.1984887E+04  0.7818608E-02  0.8613719E-01
         -2   -1    0    0    0  501 -0.00000000000E+00  0.00000000000E+00  0.87913665728E+03  0.87913665729E+03  0.25500000000E-02 0. -1.
          2   -1    0    0  501    0  0.00000000000E+00 -0.00000000000E+00 -0.11203535582E+04  0.11203535582E+04  0.25500000000E-02 0.  1.
     200001    2    1    2    0    0  0.54507767846E+03 -0.41580271985E+03 -0.49618416572E+03  0.10451428555E+04  0.61328890795E+03 0.  0.
    5000001    2    3    3    0    0  0.64373509697E+03 -0.37013541761E+03 -0.49726672708E+03  0.89674824417E+03  0.74081800268E+02 0.  0.
        -11    1    4    4    0    0  0.14500040110E+03 -0.96784622058E+02 -0.14779247800E+03  0.22854976688E+03  0.51100000000E-03 0. -1.
     200002    1    4    4    0    0  0.49873469587E+03 -0.27335079556E+03 -0.34947424908E+03  0.66819847730E+03  0.30000000000E+02 0. -1.
     200000    1    3    3    0    0 -0.98657418505E+02 -0.45667302240E+02  0.10825613572E+01  0.14839461129E+03  0.10100000000E+03 0.  1.
    -200001    1    1    2    0    0 -0.54507767846E+03  0.41580271985E+03  0.25496726483E+03  0.95434736000E+03  0.61300000000E+03 0. -1.
<mgrwt>
<rscale>  0 0.19848868E+04</rscale>
<asrwt>0</asrwt>
<pdfrwt beam="1">  1        2 0.16005051E+00 0.19848868E+04</pdfrwt>
<pdfrwt beam="2">  1       -2 0.12559095E+00 0.19848868E+04</pdfrwt>
<totfact> 0.10516702E+01</totfact>
</mgrwt>
</event>
<event>
 8    1  0.7326756E-052  0.1531661E+04  0.7818608E-02  0.8863668E-01
         -2   -1    0    0    0  501 -0.00000000000E+00  0.00000000000E+00  0.69350052053E+03  0.69350052054E+03  0.25500000000E-02 0. -1.
          2   -1    0    0  501    0  0.00000000000E+00 -0.00000000000E+00 -0.84570389291E+03  0.84570389291E+03  0.25500000000E-02 0.  1.
     200001    2    1    2    0    0 -0.36683997487E+03 -0.27562856707E+03 -0.96699997337E+02  0.77148552037E+03  0.61261435220E+03 0.  0.
    5000001    2    3    3    0    0  0.44884353940E+02 -0.12714609896E+02  0.16671356998E+03  0.20736817509E+03  0.11415725597E+03 0.  0.
        -11    1    4    4    0    0  0.65601647280E+02 -0.40310741489E+02  0.11427008469E+03  0.13779036346E+03  0.51100000000E-03 0. -1.
     200002    1    4    4    0    0 -0.20717293340E+02  0.27596131593E+02  0.52443485287E+02  0.69577811631E+02  0.30000000000E+02 0. -1.
     200000    1    3    3    0    0 -0.41172432881E+03 -0.26291395717E+03 -0.26341356732E+03  0.56411734529E+03  0.10100000000E+03 0.  1.
    -200001    1    1    2    0    0  0.36683997487E+03  0.27562856707E+03 -0.55503375039E+02  0.76771889307E+03  0.61300000000E+03 0. -1.
<mgrwt>
<rscale>  0 0.15316607E+04</rscale>
<asrwt>0</asrwt>
<pdfrwt beam="1">  1        2 0.12081484E+00 0.15316607E+04</pdfrwt>
<pdfrwt beam="2">  1       -2 0.99071503E-01 0.15316607E+04</pdfrwt>
<totfact> 0.28836178E+01</totfact>
</mgrwt>
</event>
<event>
 8    1  0.7326756E-052  0.1618225E+04  0.7818608E-02  0.8809429E-01
          2   -1    0    0  501    0  0.00000000000E+00  0.00000000000E+00  0.36116200288E+04  0.36116200288E+04  0.25500000000E-02 0.  1.
         -2   -1    0    0    0  501 -0.00000000000E+00 -0.00000000000E+00 -0.18126575384E+03  0.18126575385E+03  0.25500000000E-02 0. -1.
     200001    2    1    2    0    0  0.10011472459E+03 -0.21554125387E+03  0.28201031861E+04  0.28958593719E+04  0.61362735528E+03 0.  0.
    5000001    2    3    3    0    0  0.27838622353E+03 -0.23277594137E+02  0.15744990770E+04  0.16189581859E+04  0.25285871207E+03 0.  0.
        -11    1    4    4    0    0  0.30984384460E+03 -0.57038189719E+02  0.14308913591E+04  0.14651643746E+04  0.51100000000E-03 0. -1.
     200002    1    4    4    0    0 -0.31457621064E+02  0.33760595582E+02  0.14360771799E+03  0.15379381133E+03  0.30000000000E+02 0. -1.
     200000    1    3    3    0    0 -0.17827149895E+03 -0.19226365973E+03  0.12456041091E+04  0.12769011859E+04  0.10100000000E+03 0. -1.
    -200001    1    1    2    0    0 -0.10011472459E+03  0.21554125387E+03  0.61025108885E+03  0.89702641078E+03  0.61300000000E+03 0. -1.
<mgrwt>
<rscale>  0 0.16182250E+04</rscale>
<asrwt>0</asrwt>
<pdfrwt beam="1">  1        2 0.51594571E+00 0.16182250E+04</pdfrwt>
<pdfrwt beam="2">  1       -2 0.25895108E-01 0.16182250E+04</pdfrwt>
<totfact> 0.13356824E+01</totfact>
</mgrwt>
</event>
<event>
 8    1  0.7326756E-052  0.1618001E+04  0.7818608E-02  0.8809565E-01
          2   -1    0    0  501    0  0.00000000000E+00  0.00000000000E+00  0.81493183903E+03  0.81493183904E+03  0.25500000000E-02 0.  1.
         -2   -1    0    0    0  501 -0.00000000000E+00 -0.00000000000E+00 -0.80311223674E+03  0.80311223675E+03  0.25500000000E-02 0. -1.
     200001    2    1    2    0    0  0.43885365398E+03 -0.27154550897E+03  0.11425586213E+03  0.81021260798E+03  0.61405258329E+03 0.  0.
    5000001    2    3    3    0    0  0.34691041199E+03 -0.12840721237E+03  0.34180871050E+03  0.50867748481E+03  0.71304578050E+02 0.  0.
        -11    1    4    4    0    0  0.18210446473E+03 -0.67680127862E+02  0.21625353719E+03  0.29070298954E+03  0.51100000000E-03 0. -1.
     200002    1    4    4    0    0  0.16480594726E+03 -0.60727084509E+02  0.12555517331E+03  0.21797449527E+03  0.30000000000E+02 0.  1.
     200000    1    3    3    0    0  0.91943241993E+02 -0.14313829659E+03 -0.22755284837E+03  0.30153512316E+03  0.10100000000E+03 0. -1.
    -200001    1    1    2    0    0 -0.43885365398E+03  0.27154550897E+03 -0.10243625984E+03  0.80783146781E+03  0.61300000000E+03 0. -1.
<mgrwt>
<rscale>  0 0.16180009E+04</rscale>
<asrwt>0</asrwt>
<pdfrwt beam="1">  1        2 0.11641883E+00 0.16180009E+04</pdfrwt>
<pdfrwt beam="2">  1       -2 0.11473032E+00 0.16180009E+04</pdfrwt>
<totfact> 0.21126044E+01</totfact>
</mgrwt>
</event>
<event>
 8    1  0.7326756E-052  0.1426696E+04  0.7818608E-02  0.8934718E-01
         -2   -1    0    0    0  501 -0.00000000000E+00  0.00000000000E+00  0.45386316336E+03  0.45386316337E+03  0.25500000000E-02 0. -1.
          2   -1    0    0  501    0  0.00000000000E+00 -0.00000000000E+00 -0.11211871126E+04  0.11211871126E+04  0.25500000000E-02 0.  1.
     200001    2    1    2    0    0  0.47852707091E+02 -0.16128073622E+03  0.23944412061E+02  0.63594309104E+03  0.61282046532E+03 0.  0.
    5000001    2    3    3    0    0  0.86526645853E+02 -0.83809328608E+02  0.29557309589E+03  0.33348543381E+03  0.96634442845E+02 0.  0.
        -11    1    4    4    0    0  0.54022789915E+02 -0.84922635905E+02  0.14473037735E+03  0.17628726003E+03  0.51100000000E-03 0. -1.
     200002    1    4    4    0    0  0.32503855938E+02  0.11133072972E+01  0.15084271854E+03  0.15719817378E+03  0.30000000000E+02 0. -1.
     200000    1    3    3    0    0 -0.38673938762E+02 -0.77471407611E+02 -0.27162868383E+03  0.30245765723E+03  0.10100000000E+03 0. -1.
    -200001    1    1    2    0    0 -0.47852707091E+02  0.16128073622E+03 -0.69126836126E+03  0.93910718490E+03  0.61300000000E+03 0.  1.
<mgrwt>
<rscale>  0 0.14266962E+04</rscale>
<asrwt>0</asrwt>
<pdfrwt beam="1">  1        2 0.16016959E+00 0.14266962E+04</pdfrwt>
<pdfrwt beam="2">  1       -2 0.64837595E-01 0.14266962E+04</pdfrwt>
<totfact> 0.50691643E+01</totfact>
</mgrwt>
</event>
<event>
 8    1  0.7326756E-052  0.2017918E+04  0.7818608E-02  0.8598289E-01
          2   -1    0    0  501    0  0.00000000000E+00  0.00000000000E+00  0.56451339636E+03  0.56451339636E+03  0.25500000000E-02 0.  1.
         -2   -1    0    0    0  501 -0.00000000000E+00 -0.00000000000E+00 -0.18033202161E+04  0.18033202161E+04  0.25500000000E-02 0. -1.
     200001    2    1    2    0    0 -0.19598912725E+03  0.77682743560E+03 -0.59948315502E+03  0.11735236230E+04  0.61311095063E+03 0.  0.
    5000001    2    3    3    0    0  0.38799410102E+02  0.52597784749E+03 -0.83583558517E+02  0.54550724833E+03  0.11150720361E+03 0.  0.
        -11    1    4    4    0    0 -0.25263199628E+02  0.11845482435E+03  0.96829156725E+01  0.12150528187E+03  0.51100000000E-03 0. -1.
     200002    1    4    4    0    0  0.64062609730E+02  0.40752302314E+03 -0.93266474189E+02  0.42400196646E+03  0.30000000000E+02 0. -1.
     200000    1    3    3    0    0 -0.23478853735E+03  0.25084958811E+03 -0.51589959650E+03  0.62801637462E+03  0.10100000000E+03 0.  1.
    -200001    1    1    2    0    0  0.19598912725E+03 -0.77682743560E+03 -0.63932366468E+03  0.11943099895E+04  0.61300000000E+03 0. -1.
<mgrwt>
<rscale>  0 0.20179182E+04</rscale>
<asrwt>0</asrwt>
<pdfrwt beam="1">  1        2 0.80644772E-01 0.20179182E+04</pdfrwt>
<pdfrwt beam="2">  1       -2 0.25761717E+00 0.20179182E+04</pdfrwt>
<totfact> 0.31321868E+00</totfact>
</mgrwt>
</event>
<event>
 8    1  0.7326756E-052  0.1314491E+04  0.7818608E-02  0.9018152E-01
         -2   -1    0    0    0  501 -0.00000000000E+00  0.00000000000E+00  0.41567687877E+03  0.41567687878E+03  0.25500000000E-02 0. -1.
          2   -1    0    0  501    0  0.00000000000E+00 -0.00000000000E+00 -0.10392011492E+04  0.10392011492E+04  0.25500000000E-02 0.  1.
     200001    2    1    2    0    0 -0.14309082683E+03 -0.15463384198E+03 -0.19273052613E+03  0.67658575644E+03  0.61338130091E+03 0.  0.
    5000001    2    3    3    0    0 -0.11034204537E+03  0.16438991066E+03 -0.25164629688E+03  0.33523446309E+03  0.99281804997E+02 0.  0.
        -11    1    4    4    0    0 -0.10758368204E+03  0.14733153298E+03 -0.23296701880E+03  0.29589603090E+03  0.51100000000E-03 0. -1.
     200002    1    4    4    0    0 -0.27583633244E+01  0.17058377685E+02 -0.18679278078E+02  0.39338432188E+02  0.30000000000E+02 0.  1.
     200000    1    3    3    0    0 -0.32748781464E+02 -0.31902375264E+03  0.58915770750E+02  0.34135129336E+03  0.10100000000E+03 0. -1.
    -200001    1    1    2    0    0  0.14309082683E+03  0.15463384198E+03 -0.43079374430E+03  0.77829227154E+03  0.61300000000E+03 0.  1.
<mgrwt>
<rscale>  0 0.13144914E+04</rscale>
<asrwt>0</asrwt>
<pdfrwt beam="1">  1        2 0.14845731E+00 0.13144914E+04</pdfrwt>
<pdfrwt beam="2">  1       -2 0.59382412E-01 0.13144914E+04</pdfrwt>
<totfact> 0.68944665E+01</totfact>
</mgrwt>
</event>
<event>
 8    1  0.7326756E-052  0.3150706E+04  0.7818608E-02  0.8201958E-01
          2   -1    0    0  501    0  0.00000000000E+00  0.00000000000E+00  0.17411985738E+04  0.17411985738E+04  0.25500000000E-02 0.  1.
         -2   -1    0    0    0  501 -0.00000000000E+00 -0.00000000000E+00 -0.14253035403E+04  0.14253035403E+04  0.25500000000E-02 0. -1.
     200001    2    1    2    0    0  0.97190389110E+03 -0.88057581239E+03 -0.46652656778E+03  0.15209130107E+04  0.61279557185E+03 0.  0.
    5000001    2    3    3    0    0  0.46386666729E+03 -0.16211246804E+03 -0.37191356817E+03  0.63015826467E+03  0.13163205925E+03 0.  0.
        -11    1    4    4    0    0  0.54891567793E+02 -0.68380843378E+02 -0.73378212672E+02  0.11433890874E+03  0.51100000000E-03 0. -1.
     200002    1    4    4    0    0  0.40897509950E+03 -0.93731624666E+02 -0.29853535550E+03  0.51581935593E+03  0.30000000000E+02 0. -1.
     200000    1    3    3    0    0  0.50803722381E+03 -0.71846334435E+03 -0.94612999608E+02  0.89075474607E+03  0.10100000000E+03 0. -1.
    -200001    1    1    2    0    0 -0.97190389110E+03  0.88057581239E+03  0.78242160125E+03  0.16455891033E+04  0.61300000000E+03 0.  1.
<mgrwt>
<rscale>  0 0.31507056E+04</rscale>
<asrwt>0</asrwt>
<pdfrwt beam="1">  1        2 0.24874265E+00 0.31507056E+04</pdfrwt>
<pdfrwt beam="2">  1       -2 0.20361479E+00 0.31507056E+04</pdfrwt>
<totfact> 0.11724831E+00</totfact>
</mgrwt>
</event>
<event>
 8    1  0.7326756E-052  0.2808075E+04  0.7818608E-02  0.8300766E-01
         -2   -1    0    0    0  501 -0.00000000000E+00  0.00000000000E+00  0.15964539596E+04  0.15964539596E+04  0.25500000000E-02 0. -1.
          2   -1    0    0  501    0  0.00000000000E+00 -0.00000000000E+00 -0.12348121499E+04  0.12348121499E+04  0.25500000000E-02 0.  1.
     200001    2    1    2    0    0  0.85286844914E+02 -0.59765683072E+03  0.12995773679E+04  0.15584897565E+04  0.61279805237E+03 0.  0.
    5000001    2    3    3    0    0  0.22041009738E+03 -0.63952027207E+03  0.10971447664E+04  0.12916737165E+04  0.84424890407E+02 0.  0.
        -11    1    4    4    0    0  0.47949330395E+02 -0.11536796478E+03  0.15116373050E+03  0.19611062950E+03  0.51100000000E-03 0. -1.
     200002    1    4    4    0    0  0.17246076699E+03 -0.52415230728E+03  0.94598103587E+03  0.10955630870E+04  0.30000000000E+02 0. -1.
     200000    1    3    3    0    0 -0.13512325247E+03  0.41863441347E+02  0.20243260150E+03  0.26681604005E+03  0.10100000000E+03 0.  1.
    -200001    1    1    2    0    0 -0.85286844914E+02  0.59765683072E+03 -0.93793555821E+03  0.12727763529E+04  0.61300000000E+03 0.  1.
<mgrwt>
<rscale>  0 0.28080746E+04</rscale>
<asrwt>0</asrwt>
<pdfrwt beam="1">  1        2 0.17640174E+00 0.28080746E+04</pdfrwt>
<pdfrwt beam="2">  1       -2 0.22806485E+00 0.28080746E+04</pdfrwt>
<totfact> 0.15714009E+00</totfact>
</mgrwt>
</event>
<event>
 8    1  0.7326756E-052  0.1535833E+04  0.7818608E-02  0.8860968E-01
         -2   -1    0    0    0  501 -0.00000000000E+00  0.00000000000E+00  0.57857520947E+03  0.57857520948E+03  0.25500000000E-02 0. -1.
          2   -1    0    0  501    0  0.00000000000E+00 -0.00000000000E+00 -0.10192207425E+04  0.10192207425E+04  0.25500000000E-02 0.  1.
     200001    2    1    2    0    0 -0.44054363897E+03  0.76810520388E+02 -0.34356824268E+03  0.83283088472E+03  0.61285364589E+03 0.  0.
    5000001    2    3    3    0    0 -0.47820219175E+02 -0.86724775147E+02 -0.72476375756E+01  0.28120780075E+03  0.26309188313E+03 0.  0.
        -11    1    4    4    0    0 -0.95728432527E+02 -0.20044316768E+02 -0.10940910200E+03  0.14675169174E+03  0.51100000000E-03 0. -1.
     200002    1    4    4    0    0  0.47908213352E+02 -0.66680458380E+02  0.10216146443E+03  0.13445610901E+03  0.30000000000E+02 0. -1.
     200000    1    3    3    0    0 -0.39272341980E+03  0.16353529554E+03 -0.33632060510E+03  0.55162308396E+03  0.10100000000E+03 0.  1.
    -200001    1    1    2    0    0  0.44054363897E+03 -0.76810520388E+02 -0.97077290385E+02  0.76496506730E+03  0.61300000000E+03 0.  1.
<mgrwt>
<rscale>  0 0.15358331E+04</rscale>
<asrwt>0</asrwt>
<pdfrwt beam="1">  1        2 0.14560296E+00 0.15358331E+04</pdfrwt>
<pdfrwt beam="2">  1       -2 0.82653601E-01 0.15358331E+04</pdfrwt>
<totfact> 0.33890221E+01</totfact>
</mgrwt>
</event>
<event>
 8    1  0.7326756E-052  0.1523623E+04  0.7818608E-02  0.8868894E-01
         -2   -1    0    0    0  501 -0.00000000000E+00  0.00000000000E+00  0.21510103346E+03  0.21510103348E+03  0.25500000000E-02 0. -1.
          2   -1    0    0  501    0  0.00000000000E+00 -0.00000000000E+00 -0.26980663569E+04  0.26980663569E+04  0.25500000000E-02 0.  1.
     200001    2    1    2    0    0 -0.19946654802E+03 -0.89453676619E+02 -0.48449054219E+03  0.81139211329E+03  0.61305563533E+03 0.  0.
    5000001    2    3    3    0    0  0.33630254794E+02  0.49847301239E+02  0.10545553591E+03  0.15414310646E+03  0.94991998280E+02 0.  0.
        -11    1    4    4    0    0  0.20794697643E+02  0.17520538833E+02  0.10473285832E+03  0.10820517706E+03  0.51100000000E-03 0. -1.
     200002    1    4    4    0    0  0.12835557151E+02  0.32326762406E+02  0.72267759693E+00  0.45937929404E+02  0.30000000000E+02 0. -1.
     200000    1    3    3    0    0 -0.23309680281E+03 -0.13930097786E+03 -0.58994607810E+03  0.65724900683E+03  0.10100000000E+03 0.  1.
    -200001    1    1    2    0    0  0.19946654802E+03  0.89453676619E+02 -0.19984747812E+04  0.21017752770E+04  0.61300000000E+03 0. -1.
<mgrwt>
<rscale>  0 0.15236231E+04</rscale>
<asrwt>0</asrwt>
<pdfrwt beam="1">  1        2 0.38543803E+00 0.15236231E+04</pdfrwt>
<pdfrwt beam="2">  1       -2 0.30728721E-01 0.15236231E+04</pdfrwt>
<totfact> 0.32811765E+01</totfact>
</mgrwt>
</event>
<event>
 8    1  0.7326756E-052  0.1927829E+04  0.7818608E-02  0.8641127E-01
          2   -1    0    0  501    0  0.00000000000E+00  0.00000000000E+00  0.23178327373E+04  0.23178327373E+04  0.25500000000E-02 0.  1.
         -2   -1    0    0    0  501 -0.00000000000E+00 -0.00000000000E+00 -0.40086195326E+03  0.40086195326E+03  0.25500000000E-02 0. -1.
     200001    2    1    2    0    0 -0.60011544029E+03  0.75370193432E+02  0.15693564725E+04  0.17900268720E+04  0.61277830975E+03 0.  0.
    5000001    2    3    3    0    0 -0.54449182546E+03  0.28580002231E+03  0.11229547747E+04  0.12832229896E+04  0.86491700366E+02 0.  0.
        -11    1    4    4    0    0 -0.25311160665E+03  0.91700659654E+02  0.46467114846E+03  0.53702306525E+03  0.51100000000E-03 0. -1.
     200002    1    4    4    0    0 -0.29138021881E+03  0.19409936266E+03  0.65828362626E+03  0.74619992435E+03  0.30000000000E+02 0. -1.
     200000    1    3    3    0    0 -0.55623614822E+02 -0.21042982888E+03  0.44640169777E+03  0.50680388236E+03  0.10100000000E+03 0. -1.
    -200001    1    1    2    0    0  0.60011544029E+03 -0.75370193432E+02  0.34761431158E+03  0.92866781862E+03  0.61300000000E+03 0. -1.
<mgrwt>
<rscale>  0 0.19278288E+04</rscale>
<asrwt>0</asrwt>
<pdfrwt beam="1">  1        2 0.33111898E+00 0.19278288E+04</pdfrwt>
<pdfrwt beam="2">  1       -2 0.57265991E-01 0.19278288E+04</pdfrwt>
<totfact> 0.14716699E+01</totfact>
</mgrwt>
</event>
<event>
 8    1  0.7326756E-052  0.1321080E+04  0.7818608E-02  0.9013014E-01
          2   -1    0    0  501    0  0.00000000000E+00  0.00000000000E+00  0.29275787560E+04  0.29275787560E+04  0.25500000000E-02 0.  1.
         -2   -1    0    0    0  501 -0.00000000000E+00 -0.00000000000E+00 -0.14903538143E+03  0.14903538145E+03  0.25500000000E-02 0. -1.
     200001    2    1    2    0    0  0.24320907283E+03 -0.18554957021E+02  0.14683316019E+04  0.16096721384E+04  0.61282278044E+03 0.  0.
    5000001    2    3    3    0    0  0.17804943436E+03  0.19737332993E+03  0.11469583380E+04  0.12042679223E+04  0.25315996372E+03 0.  0.
        -11    1    4    4    0    0  0.11961365021E+03  0.17182762474E+03  0.37816708200E+03  0.43225281936E+03  0.51100000000E-03 0. -1.
     200002    1    4    4    0    0  0.58435784146E+02  0.25545705192E+02  0.76879125601E+03  0.77201510298E+03  0.30000000000E+02 0. -1.
     200000    1    3    3    0    0  0.65159638475E+02 -0.21592828695E+03  0.32137326394E+03  0.40540421602E+03  0.10100000000E+03 0.  1.
    -200001    1    1    2    0    0 -0.24320907283E+03  0.18554957021E+02  0.13102117726E+04  0.14669419991E+04  0.61300000000E+03 0.  1.
<mgrwt>
<rscale>  0 0.13210796E+04</rscale>
<asrwt>0</asrwt>
<pdfrwt beam="1">  1        2 0.41822552E+00 0.13210796E+04</pdfrwt>
<pdfrwt beam="2">  1       -2 0.21290770E-01 0.13210796E+04</pdfrwt>
<totfact> 0.48877609E+01</totfact>
</mgrwt>
</event>
<event>
 8    1  0.7326756E-052  0.1442321E+04  0.7818608E-02  0.8923741E-01
         -2   -1    0    0    0  501 -0.00000000000E+00  0.00000000000E+00  0.76477973951E+03  0.76477973951E+03  0.25500000000E-02 0. -1.
          2   -1    0    0  501    0  0.00000000000E+00 -0.00000000000E+00 -0.68002926821E+03  0.68002926822E+03  0.25500000000E-02 0.  1.
     200001    2    1    2    0    0 -0.83340293267E+02  0.35850472939E+03  0.13648935563E+03  0.72792885204E+03  0.61300882861E+03 0.  0.
    5000001    2    3    3    0    0  0.16644304516E+03  0.35491186501E+03 -0.17210653506E+02  0.41772034532E+03  0.14327721765E+03 0.  0.
        -11    1    4    4    0    0  0.12385060314E+03  0.15376054267E+03  0.41595815175E+02  0.20177088050E+03  0.51100000000E-03 0. -1.
     200002    1    4    4    0    0  0.42592442023E+02  0.20115132234E+03 -0.58806468681E+02  0.21594946482E+03  0.30000000000E+02 0. -1.
     200000    1    3    3    0    0 -0.24978333843E+03  0.35928643849E+01  0.15370000913E+03  0.31020850671E+03  0.10100000000E+03 0. -1.
    -200001    1    1    2    0    0  0.83340293267E+02 -0.35850472939E+03 -0.51738884330E+02  0.71688015569E+03  0.61300000000E+03 0.  1.
<mgrwt>
<rscale>  0 0.14423212E+04</rscale>
<asrwt>0</asrwt>
<pdfrwt beam="1">  1        2 0.97147038E-01 0.14423212E+04</pdfrwt>
<pdfrwt beam="2">  1       -2 0.10925425E+00 0.14423212E+04</pdfrwt>
<totfact> 0.30287938E+01</totfact>
</mgrwt>
</event>
<event>
 8    1  0.7326756E-052  0.1380780E+04  0.7818608E-02  0.8967850E-01
         -2   -1    0    0    0  501 -0.00000000000E+00  0.00000000000E+00  0.77497090210E+03  0.77497090211E+03  0.25500000000E-02 0. -1.
          2   -1    0    0  501    0  0.00000000000E+00 -0.00000000000E+00 -0.61504044110E+03  0.61504044111E+03  0.25500000000E-02 0.  1.
     200001    2    1    2    0    0  0.22578844844E+03 -0.14836144484E+03 -0.90809421223E+02  0.67472746230E+03  0.61157113702E+03 0.  0.
    5000001    2    3    3    0    0 -0.90167686921E+02 -0.19846495779E+03 -0.87732004639E+02  0.33924406185E+03  0.24468567108E+03 0.  0.
        -11    1    4    4    0    0  0.12982442844E+02 -0.78849306901E+02  0.75639443127E+02  0.11003218792E+03  0.51100000000E-03 0. -1.
     200002    1    4    4    0    0 -0.10315012977E+03 -0.11961565089E+03 -0.16337144777E+03  0.22921187394E+03  0.30000000000E+02 0. -1.
     200000    1    3    3    0    0  0.31595613536E+03  0.50103512950E+02 -0.30774165838E+01  0.33548340044E+03  0.10100000000E+03 0. -1.
    -200001    1    1    2    0    0 -0.22578844844E+03  0.14836144484E+03  0.25073988222E+03  0.71528388092E+03  0.61300000000E+03 0. -1.
<mgrwt>
<rscale>  0 0.13807801E+04</rscale>
<asrwt>0</asrwt>
<pdfrwt beam="1">  1        2 0.87862920E-01 0.13807801E+04</pdfrwt>
<pdfrwt beam="2">  1       -2 0.11071013E+00 0.13807801E+04</pdfrwt>
<totfact> 0.33267861E+01</totfact>
</mgrwt>
</event>
<event>
 8    1  0.7326756E-052  0.1288359E+04  0.7818608E-02  0.9038848E-01
         -2   -1    0    0    0  501 -0.00000000000E+00  0.00000000000E+00  0.35421816887E+03  0.35421816888E+03  0.25500000000E-02 0.  1.
          2   -1    0    0  501    0  0.00000000000E+00 -0.00000000000E+00 -0.11715015807E+04  0.11715015807E+04  0.25500000000E-02 0. -1.
     200001    2    1    2    0    0  0.76645169192E+02  0.13927921743E+03 -0.54401097391E+03  0.83599516127E+03  0.61454600118E+03 0.  0.
    5000001    2    3    3    0    0 -0.11030805858E+03  0.18031206146E+03  0.22837919140E+02  0.22923831441E+03  0.85722382990E+02 0.  0.
        -11    1    4    4    0    0 -0.50544317446E+02  0.12631135034E+03 -0.11820819829E+02  0.13656140389E+03  0.51100000000E-03 0. -1.
     200002    1    4    4    0    0 -0.59763741135E+02  0.54000711122E+02  0.34658738969E+02  0.92676910517E+02  0.30000000000E+02 0. -1.
     200000    1    3    3    0    0  0.18695322777E+03 -0.41032844037E+02 -0.56684889305E+03  0.60675684686E+03  0.10100000000E+03 0. -1.
    -200001    1    1    2    0    0 -0.76645169192E+02 -0.13927921743E+03 -0.27327243789E+03  0.68972458828E+03  0.61300000000E+03 0.  1.
<mgrwt>
<rscale>  0 0.12883589E+04</rscale>
<asrwt>0</asrwt>
<pdfrwt beam="1">  1        2 0.16735737E+00 0.12883589E+04</pdfrwt>
<pdfrwt beam="2">  1       -2 0.50602596E-01 0.12883589E+04</pdfrwt>
<totfact> 0.80413954E+01</totfact>
</mgrwt>
</event>
<event>
 8    1  0.7326756E-052  0.1454778E+04  0.7818608E-02  0.8915095E-01
         -2   -1    0    0    0  501 -0.00000000000E+00  0.00000000000E+00  0.14829850046E+03  0.14829850048E+03  0.25500000000E-02 0. -1.
          2   -1    0    0  501    0  0.00000000000E+00 -0.00000000000E+00 -0.35677683603E+04  0.35677683603E+04  0.25500000000E-02 0.  1.
     200001    2    1    2    0    0 -0.18978619934E+03  0.15952343285E+03 -0.24811703440E+04  0.25681811921E+04  0.61472093837E+03 0.  0.
    5000001    2    3    3    0    0 -0.11657426072E+03 -0.78761914264E+02 -0.20805742856E+04  0.20856689159E+04  0.37848005125E+02 0.  0.
        -11    1    4    4    0    0 -0.34867712617E+02 -0.22289365177E+02 -0.67852364444E+03  0.67978445794E+03  0.51100000000E-03 0. -1.
     200002    1    4    4    0    0 -0.81706548105E+02 -0.56472549088E+02 -0.14020506412E+04  0.14058844580E+04  0.30000000000E+02 0.  1.
     200000    1    3    3    0    0 -0.73211938613E+02  0.23828534711E+03 -0.40059605842E+03  0.48251227614E+03  0.10100000000E+03 0. -1.
    -200001    1    1    2    0    0  0.18978619934E+03 -0.15952343285E+03 -0.93829951579E+03  0.11478856687E+04  0.61300000000E+03 0.  1.
<mgrwt>
<rscale>  0 0.14547779E+04</rscale>
<asrwt>0</asrwt>
<pdfrwt beam="1">  1        2 0.50968114E+00 0.14547779E+04</pdfrwt>
<pdfrwt beam="2">  1       -2 0.21185502E-01 0.14547779E+04</pdfrwt>
<totfact> 0.20719630E+01</totfact>
</mgrwt>
</event>
<event>
 8    1  0.7326756E-052  0.1273837E+04  0.7818608E-02  0.9050574E-01
          2   -1    0    0  501    0  0.00000000000E+00  0.00000000000E+00  0.28477515059E+04  0.28477515059E+04  0.25500000000E-02 0.  1.
         -2   -1    0    0    0  501 -0.00000000000E+00 -0.00000000000E+00 -0.14245097444E+03  0.14245097446E+03  0.25500000000E-02 0. -1.
     200001    2    1    2    0    0 -0.86183569882E+01 -0.89719854506E+01  0.94843399880E+03  0.11294220564E+04  0.61311692098E+03 0.  0.
    5000001    2    3    3    0    0 -0.19159026669E+02  0.15824858102E+03  0.89289280860E+03  0.92605134224E+03  0.18682569177E+03 0.  0.
        -11    1    4    4    0    0  0.70507457947E+02  0.12684713134E+03  0.49144150375E+03  0.51242194329E+03  0.51100000000E-03 0. -1.
     200002    1    4    4    0    0 -0.89666484615E+02  0.31401449676E+02  0.40145130486E+03  0.41362939895E+03  0.30000000000E+02 0. -1.
     200000    1    3    3    0    0  0.10540669680E+02 -0.16722056647E+03  0.55541190192E+02  0.20337071415E+03  0.10100000000E+03 0. -1.
    -200001    1    1    2    0    0  0.86183569882E+01  0.89719854506E+01  0.17568665326E+04  0.18607804239E+04  0.61300000000E+03 0.  1.
<mgrwt>
<rscale>  0 0.12738367E+04</rscale>
<asrwt>0</asrwt>
<pdfrwt beam="1">  1        2 0.40682163E+00 0.12738367E+04</pdfrwt>
<pdfrwt beam="2">  1       -2 0.20350140E-01 0.12738367E+04</pdfrwt>
<totfact> 0.58778187E+01</totfact>
</mgrwt>
</event>
<event>
 8    1  0.7326756E-052  0.1735171E+04  0.7818608E-02  0.8741556E-01
          2   -1    0    0  501    0  0.00000000000E+00  0.00000000000E+00  0.30959443784E+04  0.30959443784E+04  0.25500000000E-02 0.  1.
         -2   -1    0    0    0  501 -0.00000000000E+00 -0.00000000000E+00 -0.24312591920E+03  0.24312591921E+03  0.25500000000E-02 0. -1.
     200001    2    1    2    0    0 -0.32778762254E+03  0.49349685295E+03  0.11175518752E+04  0.14057045828E+04  0.61326936267E+03 0.  0.
    5000001    2    3    3    0    0 -0.34231739012E+03  0.41719452929E+03  0.40268167501E+03  0.67956853374E+03  0.91806262401E+02 0.  0.
        -11    1    4    4    0    0 -0.16513210517E+03  0.19959454966E+03  0.14217213144E+03  0.29549875020E+03  0.51100000000E-03 0. -1.
     200002    1    4    4    0    0 -0.17718528495E+03  0.21759997962E+03  0.26050954357E+03  0.38406978354E+03  0.30000000000E+02 0. -1.
     200000    1    3    3    0    0  0.14529767577E+02  0.76302323661E+02  0.71487020016E+03  0.72613604911E+03  0.10100000000E+03 0.  1.
    -200001    1    1    2    0    0  0.32778762254E+03 -0.49349685295E+03  0.17352665840E+04  0.19333657147E+04  0.61300000000E+03 0.  1.
<mgrwt>
<rscale>  0 0.17351707E+04</rscale>
<asrwt>0</asrwt>
<pdfrwt beam="1">  1        2 0.44227777E+00 0.17351707E+04</pdfrwt>
<pdfrwt beam="2">  1       -2 0.34732274E-01 0.17351707E+04</pdfrwt>
<totfact> 0.15444515E+01</totfact>
</mgrwt>
</event>
<event>
 8    1  0.7326756E-052  0.1743979E+04  0.7818608E-02  0.8736671E-01
         -2   -1    0    0    0  501 -0.00000000000E+00  0.00000000000E+00  0.76247355672E+03  0.76247355673E+03  0.25500000000E-02 0. -1.
          2   -1    0    0  501    0  0.00000000000E+00 -0.00000000000E+00 -0.99723593858E+03  0.99723593858E+03  0.25500000000E-02 0.  1.
     200001    2    1    2    0    0  0.36428485435E+03  0.17230361878E+03  0.35828341318E+03  0.81638330191E+03  0.61296223320E+03 0.  0.
    5000001    2    3    3    0    0  0.23242205876E+03 -0.31837465500E+02  0.40134199864E+03  0.54970667951E+03  0.29337415705E+03 0.  0.
        -11    1    4    4    0    0  0.11546283294E+03  0.97737179971E+02  0.32173716378E+03  0.35552640506E+03  0.51100000000E-03 0. -1.
     200002    1    4    4    0    0  0.11695922583E+03 -0.12957464547E+03  0.79604834864E+02  0.19418027446E+03  0.30000000000E+02 0. -1.
     200000    1    3    3    0    0  0.13186279559E+03  0.20414108428E+03 -0.43058585462E+02  0.26667662239E+03  0.10100000000E+03 0. -1.
    -200001    1    1    2    0    0 -0.36428485435E+03 -0.17230361878E+03 -0.59304579503E+03  0.94332619340E+03  0.61300000000E+03 0.  1.
<mgrwt>
<rscale>  0 0.17439794E+04</rscale>
<asrwt>0</asrwt>
<pdfrwt beam="1">  1        2 0.14246228E+00 0.17439794E+04</pdfrwt>
<pdfrwt beam="2">  1       -2 0.10892479E+00 0.17439794E+04</pdfrwt>
<totfact> 0.18044906E+01</totfact>
</mgrwt>
</event>
<event>
 8    1  0.7326756E-052  0.1814974E+04  0.7818608E-02  0.8698377E-01
         -2   -1    0    0    0  501 -0.00000000000E+00  0.00000000000E+00  0.49188851178E+03  0.49188851179E+03  0.25500000000E-02 0. -1.
          2   -1    0    0  501    0  0.00000000000E+00 -0.00000000000E+00 -0.16742260797E+04  0.16742260797E+04  0.25500000000E-02 0.  1.
     200001    2    1    2    0    0  0.95245788932E+02 -0.78356004139E+02  0.19378609229E+03  0.65459325459E+03  0.61296643929E+03 0.  0.
    5000001    2    3    3    0    0  0.18572912699E+03 -0.25643803162E+03  0.24104863411E+03  0.42582439562E+03  0.15154603007E+03 0.  0.
        -11    1    4    4    0    0 -0.10914940652E+02  0.11631397244E+02  0.41115140959E+01  0.16472093969E+02  0.51100000000E-03 0. -1.
     200002    1    4    4    0    0  0.19664406764E+03 -0.26806942886E+03  0.23693712001E+03  0.40935230165E+03  0.30000000000E+02 0. -1.
     200000    1    3    3    0    0 -0.90483338055E+02  0.17808202748E+03 -0.47262541816E+02  0.22876885897E+03  0.10100000000E+03 0.  1.
    -200001    1    1    2    0    0 -0.95245788932E+02  0.78356004139E+02 -0.13761236602E+04  0.15115213369E+04  0.61300000000E+03 0.  1.
<mgrwt>
<rscale>  0 0.18149739E+04</rscale>
<asrwt>0</asrwt>
<pdfrwt beam="1">  1        2 0.23917515E+00 0.18149739E+04</pdfrwt>
<pdfrwt beam="2">  1       -2 0.70269788E-01 0.18149739E+04</pdfrwt>
<totfact> 0.20626484E+01</totfact>
</mgrwt>
</event>
<event>
 8    1  0.7326756E-052  0.1826416E+04  0.7818608E-02  0.8692377E-01
          2   -1    0    0  501    0  0.00000000000E+00  0.00000000000E+00  0.39380551624E+04  0.39380551624E+04  0.25500000000E-02 0.  1.
         -2   -1    0    0    0  501 -0.00000000000E+00 -0.00000000000E+00 -0.21176660943E+03  0.21176660944E+03  0.25500000000E-02 0. -1.
     200001    2    1    2    0    0  0.27452640339E+03  0.33110430576E+03  0.67583954020E+03  0.10088023534E+04  0.61312991829E+03 0.  0.
    5000001    2    3    3    0    0  0.59176005599E+01  0.19335699623E+02  0.41614704282E+03  0.51181991315E+03  0.29727491482E+03 0.  0.
        -11    1    4    4    0    0 -0.12255566402E+03 -0.66334880525E+02  0.21943528177E+03  0.25994624453E+03  0.51100000000E-03 0. -1.
     200002    1    4    4    0    0  0.12847326458E+03  0.85670580148E+02  0.19671176104E+03  0.25187366863E+03  0.30000000000E+02 0. -1.
     200000    1    3    3    0    0  0.26860880283E+03  0.31176860613E+03  0.25969249738E+03  0.49698244026E+03  0.10100000000E+03 0. -1.
    -200001    1    1    2    0    0 -0.27452640339E+03 -0.33110430576E+03  0.30504490128E+04  0.31410194185E+04  0.61300000000E+03 0.  1.
<mgrwt>
<rscale>  0 0.18264157E+04</rscale>
<asrwt>0</asrwt>
<pdfrwt beam="1">  1        2 0.56257933E+00 0.18264157E+04</pdfrwt>
<pdfrwt beam="2">  1       -2 0.30252372E-01 0.18264157E+04</pdfrwt>
<totfact> 0.60420260E+00</totfact>
</mgrwt>
</event>
<event>
 8    1  0.7326756E-052  0.1382703E+04  0.7818608E-02  0.8966435E-01
          2   -1    0    0  501    0  0.00000000000E+00  0.00000000000E+00  0.66950953991E+03  0.66950953991E+03  0.25500000000E-02 0.  1.
         -2   -1    0    0    0  501 -0.00000000000E+00 -0.00000000000E+00 -0.71390605971E+03  0.71390605971E+03  0.25500000000E-02 0. -1.
     200001    2    1    2    0    0 -0.58313334327E+00  0.28649132359E+03 -0.16345509069E+03  0.69637734608E+03  0.61330760872E+03 0.  0.
    5000001    2    3    3    0    0 -0.13266821226E+03 -0.21312781843E+02 -0.28631406206E+03  0.32558742949E+03  0.77306810133E+02 0.  0.
        -11    1    4    4    0    0 -0.55850136012E+02 -0.19175989010E+01 -0.18637186653E+03  0.19456974974E+03  0.51100000000E-03 0. -1.
     200002    1    4    4    0    0 -0.76818076253E+02 -0.19395182942E+02 -0.99942195527E+02  0.13101767975E+03  0.30000000000E+02 0.  1.
     200000    1    3    3    0    0  0.13208507892E+03  0.30780410543E+03  0.12285897137E+03  0.37078991659E+03  0.10100000000E+03 0.  1.
    -200001    1    1    2    0    0  0.58313334327E+00 -0.28649132359E+03  0.11905857089E+03  0.68703825355E+03  0.61300000000E+03 0.  1.
<mgrwt>
<rscale>  0 0.13827030E+04</rscale>
<asrwt>0</asrwt>
<pdfrwt beam="1">  1        2 0.95644221E-01 0.13827030E+04</pdfrwt>
<pdfrwt beam="2">  1       -2 0.10198658E+00 0.13827030E+04</pdfrwt>
<totfact> 0.36584003E+01</totfact>
</mgrwt>
</event>
<event>
 8    1  0.7326756E-052  0.1569008E+04  0.7818608E-02  0.8839817E-01
         -2   -1    0    0    0  501 -0.00000000000E+00  0.00000000000E+00  0.22405622037E+03  0.22405622039E+03  0.25500000000E-02 0. -1.
          2   -1    0    0  501    0  0.00000000000E+00 -0.00000000000E+00 -0.27468391905E+04  0.27468391905E+04  0.25500000000E-02 0.  1.
     200001    2    1    2    0    0 -0.21839382205E+03  0.28942409219E+02 -0.43546039959E+03  0.78429575891E+03  0.61397113390E+03 0.  0.
    5000001    2    3    3    0    0 -0.30103611876E+03 -0.42855343928E+02 -0.52334679179E+03  0.61135159307E+03  0.86020814795E+02 0.  0.
        -11    1    4    4    0    0 -0.25712254344E+03 -0.36157515946E+02 -0.40030700239E+03  0.47714260391E+03  0.51100000000E-03 0. -1.
     200002    1    4    4    0    0 -0.43913575322E+02 -0.66978279819E+01 -0.12303978940E+03  0.13420898917E+03  0.30000000000E+02 0.  1.
     200000    1    3    3    0    0  0.82642296703E+02  0.71797753146E+02  0.87886392203E+02  0.17294416583E+03  0.10100000000E+03 0.  1.
    -200001    1    1    2    0    0  0.21839382205E+03 -0.28942409219E+02 -0.20873225706E+04  0.21865996520E+04  0.61300000000E+03 0.  1.
<mgrwt>
<rscale>  0 0.15690078E+04</rscale>
<asrwt>0</asrwt>
<pdfrwt beam="1">  1        2 0.39240558E+00 0.15690078E+04</pdfrwt>
<pdfrwt beam="2">  1       -2 0.32008033E-01 0.15690078E+04</pdfrwt>
<totfact> 0.28504818E+01</totfact>
</mgrwt>
</event>
<event>
 8    1  0.7326756E-052  0.1317332E+04  0.7818608E-02  0.9015932E-01
          2   -1    0    0  501    0  0.00000000000E+00  0.00000000000E+00  0.44981023089E+04  0.44981023089E+04  0.25500000000E-02 0.  1.
         -2   -1    0    0    0  501 -0.00000000000E+00 -0.00000000000E+00 -0.96449811925E+02  0.96449811958E+02  0.25500000000E-02 0. -1.
     200001    2    1    2    0    0  0.15814344779E+03 -0.92676352486E+02  0.27462781014E+04  0.28198319609E+04  0.61303394808E+03 0.  0.
    5000001    2    3    3    0    0 -0.13297960456E+03 -0.13495684772E+03  0.20121662199E+04  0.20225481179E+04  0.77401980926E+02 0.  0.
        -11    1    4    4    0    0 -0.62053423625E+02 -0.59016955626E+02  0.57799585008E+03  0.58430542625E+03  0.51100000000E-03 0. -1.
     200002    1    4    4    0    0 -0.70926180937E+02 -0.75939892092E+02  0.14341703699E+04  0.14382426917E+04  0.30000000000E+02 0. -1.
     200000    1    3    3    0    0  0.29112305235E+03  0.42280495232E+02  0.73411188143E+03  0.79728384302E+03  0.10100000000E+03 0. -1.
    -200001    1    1    2    0    0 -0.15814344779E+03  0.92676352486E+02  0.16553743956E+04  0.17747201599E+04  0.61300000000E+03 0. -1.
<mgrwt>
<rscale>  0 0.13173323E+04</rscale>
<asrwt>0</asrwt>
<pdfrwt beam="1">  1        2 0.64258614E+00 0.13173323E+04</pdfrwt>
<pdfrwt beam="2">  1       -2 0.13778542E-01 0.13173323E+04</pdfrwt>
<totfact> 0.10050714E+01</totfact>
</mgrwt>
</event>
<event>
 8    1  0.7326756E-052  0.1688780E+04  0.7818608E-02  0.8767790E-01
          2   -1    0    0  501    0  0.00000000000E+00  0.00000000000E+00  0.14072504173E+04  0.14072504173E+04  0.25500000000E-02 0.  1.
         -2   -1    0    0    0  501 -0.00000000000E+00 -0.00000000000E+00 -0.50665765830E+03  0.50665765830E+03  0.25500000000E-02 0. -1.
     200001    2    1    2    0    0  0.16667990073E+03 -0.53303975278E+03  0.63164777660E+03  0.10421202740E+04  0.61247219081E+03 0.  0.
    5000001    2    3    3    0    0 -0.19660887563E+03 -0.15592027154E+03  0.29551721205E+03  0.41173737881E+03  0.13867611705E+03 0.  0.
        -11    1    4    4    0    0 -0.57896268551E+02  0.16298497723E+02  0.90720027603E+02  0.10884733506E+03  0.51100000000E-03 0. -1.
     200002    1    4    4    0    0 -0.13871260708E+03 -0.17221876926E+03  0.20479718444E+03  0.30289004375E+03  0.30000000000E+02 0. -1.
     200000    1    3    3    0    0  0.36328877636E+03 -0.37711948124E+03  0.33613056456E+03  0.63038289523E+03  0.10100000000E+03 0. -1.
    -200001    1    1    2    0    0 -0.16667990073E+03  0.53303975278E+03  0.26894498236E+03  0.87178780153E+03  0.61300000000E+03 0.  1.
<mgrwt>
<rscale>  0 0.16887797E+04</rscale>
<asrwt>0</asrwt>
<pdfrwt beam="1">  1        2 0.20103577E+00 0.16887797E+04</pdfrwt>
<pdfrwt beam="2">  1       -2 0.72379666E-01 0.16887797E+04</pdfrwt>
<totfact> 0.27044006E+01</totfact>
</mgrwt>
</event>
<event>
 8    1  0.7326756E-052  0.1685015E+04  0.7818608E-02  0.8769957E-01
         -2   -1    0    0    0  501 -0.00000000000E+00  0.00000000000E+00  0.10109683053E+04  0.10109683053E+04  0.25500000000E-02 0. -1.
          2   -1    0    0  501    0  0.00000000000E+00 -0.00000000000E+00 -0.70211823061E+03  0.70211823061E+03  0.25500000000E-02 0.  1.
     200001    2    1    2    0    0  0.53823769444E+03 -0.20390855376E+03  0.11350801426E+03  0.84983336648E+03  0.61486109607E+03 0.  0.
    5000001    2    3    3    0    0 -0.10646924483E+03 -0.10182647146E+03 -0.41407915987E+02  0.17140302037E+03  0.77201356862E+02 0.  0.
        -11    1    4    4    0    0 -0.11924520954E+02  0.10880025205E+02 -0.28370959282E+01  0.16389577847E+02  0.51100000000E-03 0. -1.
     200002    1    4    4    0    0 -0.94544723875E+02 -0.11270649666E+03 -0.38570820059E+02  0.15501344252E+03  0.30000000000E+02 0. -1.
     200000    1    3    3    0    0  0.64470693927E+03 -0.10208208230E+03  0.15491593025E+03  0.67843034611E+03  0.10100000000E+03 0.  1.
    -200001    1    1    2    0    0 -0.53823769444E+03  0.20390855376E+03  0.19534206047E+03  0.86325316947E+03  0.61300000000E+03 0. -1.
<mgrwt>
<rscale>  0 0.16850155E+04</rscale>
<asrwt>0</asrwt>
<pdfrwt beam="1">  1        2 0.10030261E+00 0.16850155E+04</pdfrwt>
<pdfrwt beam="2">  1       -2 0.14442404E+00 0.16850155E+04</pdfrwt>
<totfact> 0.14176239E+01</totfact>
</mgrwt>
</event>
<event>
 8    1  0.7326756E-052  0.2048918E+04  0.7818608E-02  0.8584085E-01
          2   -1    0    0  501    0  0.00000000000E+00  0.00000000000E+00  0.24268855028E+04  0.24268855028E+04  0.25500000000E-02 0. -1.
         -2   -1    0    0    0  501 -0.00000000000E+00 -0.00000000000E+00 -0.43245413030E+03  0.43245413031E+03  0.25500000000E-02 0.  1.
     200001    2    1    2    0    0 -0.48688997343E+03  0.63190165414E+03  0.72238040819E+03  0.12375368700E+04  0.61098486368E+03 0.  0.
    5000001    2    3    3    0    0 -0.99863969198E+02 -0.10096076436E+03  0.13834085531E+03  0.21862585730E+03  0.92158477349E+02 0.  0.
        -11    1    4    4    0    0 -0.45283201367E+02 -0.63895605884E+02  0.12095184940E+03  0.14409221579E+03  0.51100000000E-03 0. -1.
     200002    1    4    4    0    0 -0.54580767831E+02 -0.37065158474E+02  0.17389005906E+02  0.74533641506E+02  0.30000000000E+02 0. -1.
     200000    1    3    3    0    0 -0.38702600423E+03  0.73286241850E+03  0.58403955289E+03  0.10189110127E+04  0.10100000000E+03 0.  1.
    -200001    1    1    2    0    0  0.48688997343E+03 -0.63190165414E+03  0.12720509643E+04  0.16218027631E+04  0.61300000000E+03 0. -1.
<mgrwt>
<rscale>  0 0.20489184E+04</rscale>
<asrwt>0</asrwt>
<pdfrwt beam="1">  1        2 0.34669792E+00 0.20489184E+04</pdfrwt>
<pdfrwt beam="2">  1       -2 0.61779163E-01 0.20489184E+04</pdfrwt>
<totfact> 0.10891523E+01</totfact>
</mgrwt>
</event>
<event>
 8    1  0.7326756E-052  0.1579286E+04  0.7818608E-02  0.8833375E-01
          2   -1    0    0  501    0  0.00000000000E+00  0.00000000000E+00  0.64273475959E+03  0.64273475959E+03  0.25500000000E-02 0.  1.
         -2   -1    0    0    0  501 -0.00000000000E+00 -0.00000000000E+00 -0.97013022483E+03  0.97013022484E+03  0.25500000000E-02 0. -1.
     200001    2    1    2    0    0  0.17844810178E+03  0.46302132864E+03 -0.20735167005E+03  0.81511064344E+03  0.61251789375E+03 0.  0.
    5000001    2    3    3    0    0  0.32709110978E+03  0.14088427353E+03  0.45388342562E+02  0.36795794013E+03  0.80597589545E+02 0.  0.
        -11    1    4    4    0    0  0.28081982989E+03  0.12327545938E+03  0.30594207786E+02  0.30820873008E+03  0.51100000000E-03 0. -1.
     200002    1    4    4    0    0  0.46271279882E+02  0.17608814150E+02  0.14794134776E+02  0.59749210049E+02  0.30000000000E+02 0.  1.
     200000    1    3    3    0    0 -0.14864300800E+03  0.32213705512E+03 -0.25274001261E+03  0.44715270331E+03  0.10100000000E+03 0.  1.
    -200001    1    1    2    0    0 -0.17844810178E+03 -0.46302132864E+03 -0.12004379520E+03  0.79775434099E+03  0.61300000000E+03 0. -1.
<mgrwt>
<rscale>  0 0.15792864E+04</rscale>
<asrwt>0</asrwt>
<pdfrwt beam="1">  1        2 0.91819252E-01 0.15792864E+04</pdfrwt>
<pdfrwt beam="2">  1       -2 0.13859003E+00 0.15792864E+04</pdfrwt>
<totfact> 0.17727128E+01</totfact>
</mgrwt>
</event>
<event>
 8    1  0.7326756E-052  0.1846425E+04  0.7818608E-02  0.8681993E-01
          2   -1    0    0  501    0  0.00000000000E+00  0.00000000000E+00  0.12349988077E+04  0.12349988077E+04  0.25500000000E-02 0.  1.
         -2   -1    0    0    0  501 -0.00000000000E+00 -0.00000000000E+00 -0.69013937855E+03  0.69013937856E+03  0.25500000000E-02 0. -1.
     200001    2    1    2    0    0  0.34816718023E+03 -0.79316327877E+02  0.88825117091E+03  0.11369768109E+04  0.61336340014E+03 0.  0.
    5000001    2    3    3    0    0 -0.41341122348E+02  0.13766436554E+03  0.42056164367E+02  0.17518456296E+03  0.90886435740E+02 0.  0.
        -11    1    4    4    0    0 -0.60954018515E+02  0.10132203082E+03  0.36969989086E+02  0.12388836263E+03  0.51100000000E-03 0. -1.
     200002    1    4    4    0    0  0.19612896167E+02  0.36342334717E+02  0.50861752814E+01  0.51296200324E+02  0.30000000000E+02 0.  1.
     200000    1    3    3    0    0  0.38950830258E+03 -0.21698069342E+03  0.84619500654E+03  0.96179224793E+03  0.10100000000E+03 0.  1.
    -200001    1    1    2    0    0 -0.34816718023E+03  0.79316327877E+02 -0.34339174178E+03  0.78816137534E+03  0.61300000000E+03 0. -1.
<mgrwt>
<rscale>  0 0.18464250E+04</rscale>
<asrwt>0</asrwt>
<pdfrwt beam="1">  1        2 0.17642840E+00 0.18464250E+04</pdfrwt>
<pdfrwt beam="2">  1       -2 0.98591340E-01 0.18464250E+04</pdfrwt>
<totfact> 0.16459386E+01</totfact>
</mgrwt>
</event>
<event>
 8    1  0.7326756E-052  0.1318772E+04  0.7818608E-02  0.9014810E-01
          2   -1    0    0  501    0  0.00000000000E+00  0.00000000000E+00  0.27123795745E+04  0.27123795745E+04  0.25500000000E-02 0.  1.
         -2   -1    0    0    0  501 -0.00000000000E+00 -0.00000000000E+00 -0.16029838266E+03  0.16029838268E+03  0.25500000000E-02 0. -1.
     200001    2    1    2    0    0 -0.23088456966E+03  0.34984324799E+02  0.11065836161E+04  0.12853015591E+04  0.61068912803E+03 0.  0.
    5000001    2    3    3    0    0  0.11264910230E+03 -0.13500748613E+03  0.32085585714E+03  0.40525513383E+03  0.17425957900E+03 0.  0.
        -11    1    4    4    0    0  0.97219732856E+02 -0.13634121678E+03  0.33019231774E+03  0.37022637743E+03  0.51100000000E-03 0. -1.
     200002    1    4    4    0    0  0.15429369443E+02  0.13337306516E+01 -0.93364605922E+01  0.35028756405E+02  0.30000000000E+02 0. -1.
     200000    1    3    3    0    0 -0.34353367196E+03  0.16999181093E+03  0.78572775892E+03  0.88004642531E+03  0.10100000000E+03 0.  1.
    -200001    1    1    2    0    0  0.23088456966E+03 -0.34984324799E+02  0.14454975758E+04  0.15873763981E+04  0.61300000000E+03 0. -1.
<mgrwt>
<rscale>  0 0.13187722E+04</rscale>
<asrwt>0</asrwt>
<pdfrwt beam="1">  1        2 0.38748278E+00 0.13187722E+04</pdfrwt>
<pdfrwt beam="2">  1       -2 0.22899770E-01 0.13187722E+04</pdfrwt>
<totfact> 0.56169775E+01</totfact>
</mgrwt>
</event>
<event>
 8    1  0.7326756E-052  0.1345741E+04  0.7818608E-02  0.8994059E-01
         -2   -1    0    0    0  501 -0.00000000000E+00  0.00000000000E+00  0.13322933685E+03  0.13322933687E+03  0.25500000000E-02 0. -1.
          2   -1    0    0  501    0  0.00000000000E+00 -0.00000000000E+00 -0.33983092033E+04  0.33983092033E+04  0.25500000000E-02 0.  1.
     200001    2    1    2    0    0 -0.22629867641E+03  0.84710869981E+02 -0.19851784736E+04  0.20919887502E+04  0.61408170172E+03 0.  0.
    5000001    2    3    3    0    0 -0.25942629299E+03  0.23816861229E+02 -0.19433092176E+04  0.19625300545E+04  0.84877885568E+02 0.  0.
        -11    1    4    4    0    0 -0.22908019613E+03  0.10930244171E+02 -0.16441318859E+04  0.16600502597E+04  0.51100000000E-03 0. -1.
     200002    1    4    4    0    0 -0.30346096859E+02  0.12886617058E+02 -0.29917733170E+03  0.30247979485E+03  0.30000000000E+02 0. -1.
     200000    1    3    3    0    0  0.33127616578E+02  0.60894008752E+02 -0.41869256048E+02  0.12945869567E+03  0.10100000000E+03 0. -1.
    -200001    1    1    2    0    0  0.22629867641E+03 -0.84710869981E+02 -0.12799013928E+04  0.14395497899E+04  0.61300000000E+03 0. -1.
<mgrwt>
<rscale>  0 0.13457407E+04</rscale>
<asrwt>0</asrwt>
<pdfrwt beam="1">  1        2 0.48547269E+00 0.13457407E+04</pdfrwt>
<pdfrwt beam="2">  1       -2 0.19032764E-01 0.13457407E+04</pdfrwt>
<totfact> 0.32014615E+01</totfact>
</mgrwt>
</event>
<event>
 8    1  0.7326756E-052  0.1807850E+04  0.7818608E-02  0.8702136E-01
         -2   -1    0    0    0  501 -0.00000000000E+00  0.00000000000E+00  0.92410553764E+03  0.92410553764E+03  0.25500000000E-02 0. -1.
          2   -1    0    0  501    0  0.00000000000E+00 -0.00000000000E+00 -0.88418532515E+03  0.88418532516E+03  0.25500000000E-02 0.  1.
     200001    2    1    2    0    0  0.79588067465E+02  0.24418218240E+02  0.68152450643E+03  0.91702458391E+03  0.60788808573E+03 0.  0.
    5000001    2    3    3    0    0  0.32523896563E+03 -0.28373808023E+02  0.31609980176E+03  0.46219760957E+03  0.84392463376E+02 0.  0.
        -11    1    4    4    0    0  0.21210878167E+03 -0.23162873154E+02  0.24611911722E+03  0.32573190482E+03  0.51100000000E-03 0. -1.
     200002    1    4    4    0    0  0.11313018396E+03 -0.52109348690E+01  0.69980684535E+02  0.13646570475E+03  0.30000000000E+02 0.  1.
     200000    1    3    3    0    0 -0.24565089816E+03  0.52792026263E+02  0.36542470467E+03  0.45482697434E+03  0.10100000000E+03 0. -1.
    -200001    1    1    2    0    0 -0.79588067465E+02 -0.24418218240E+02 -0.64160429394E+03  0.89126627888E+03  0.61300000000E+03 0.  1.
<mgrwt>
<rscale>  0 0.18078502E+04</rscale>
<asrwt>0</asrwt>
<pdfrwt beam="1">  1        2 0.12631219E+00 0.18078502E+04</pdfrwt>
<pdfrwt beam="2">  1       -2 0.13201508E+00 0.18078502E+04</pdfrwt>
<totfact> 0.13164987E+01</totfact>
</mgrwt>
</event>
<event>
 8    1  0.7326756E-052  0.1701375E+04  0.7818608E-02  0.8760580E-01
          2   -1    0    0  501    0  0.00000000000E+00  0.00000000000E+00  0.19475146211E+04  0.19475146211E+04  0.25500000000E-02 0.  1.
         -2   -1    0    0    0  501 -0.00000000000E+00 -0.00000000000E+00 -0.37158605474E+03  0.37158605474E+03  0.25500000000E-02 0. -1.
     200001    2    1    2    0    0 -0.57206692046E+03 -0.38069392593E+02  0.97098706415E+03  0.12844833257E+04  0.61511925279E+03 0.  0.
    5000001    2    3    3    0    0 -0.33288712109E+03  0.14465323651E+03  0.14457962492E+03  0.39918970706E+03  0.81919228866E+02 0.  0.
        -11    1    4    4    0    0 -0.28348661475E+03  0.12231755094E+03  0.13289359060E+03  0.33613531566E+03  0.51100000000E-03 0. -1.
     200002    1    4    4    0    0 -0.49400506340E+02  0.22335685572E+02  0.11686034324E+02  0.63054391400E+02  0.30000000000E+02 0.  1.
     200000    1    3    3    0    0 -0.23917979937E+03 -0.18272262911E+03  0.82640743923E+03  0.88529361865E+03  0.10100000000E+03 0. -1.
    -200001    1    1    2    0    0  0.57206692046E+03  0.38069392593E+02  0.60494150226E+03  0.10346173502E+04  0.61300000000E+03 0.  1.
<mgrwt>
<rscale>  0 0.17013751E+04</rscale>
<asrwt>0</asrwt>
<pdfrwt beam="1">  1        2 0.27821638E+00 0.17013751E+04</pdfrwt>
<pdfrwt beam="2">  1       -2 0.53083721E-01 0.17013751E+04</pdfrwt>
<totfact> 0.27249419E+01</totfact>
</mgrwt>
</event>
<event>
 8    1  0.7326756E-052  0.1679326E+04  0.7818608E-02  0.8773244E-01
         -2   -1    0    0    0  501 -0.00000000000E+00  0.00000000000E+00  0.41611822821E+03  0.41611822822E+03  0.25500000000E-02 0. -1.
          2   -1    0    0  501    0  0.00000000000E+00 -0.00000000000E+00 -0.16943126164E+04  0.16943126164E+04  0.25500000000E-02 0.  1.
     200001    2    1    2    0    0  0.43955922338E+03  0.21671649838E+03 -0.26649415095E+03  0.83000719537E+03  0.61458478695E+03 0.  0.
    5000001    2    3    3    0    0  0.33006798835E+03 -0.13167804033E+03  0.23214600428E+01  0.36543220911E+03  0.85154724119E+02 0.  0.
        -11    1    4    4    0    0  0.15825151183E+03 -0.27802093074E+02 -0.16685413205E+02  0.16153916055E+03  0.51100000000E-03 0. -1.
     200002    1    4    4    0    0  0.17181647652E+03 -0.10387594726E+03  0.19006873247E+02  0.20389304856E+03  0.30000000000E+02 0. -1.
     200000    1    3    3    0    0  0.10949123504E+03  0.34839453871E+03 -0.26881561099E+03  0.46457498627E+03  0.10100000000E+03 0.  1.
    -200001    1    1    2    0    0 -0.43955922338E+03 -0.21671649838E+03 -0.10117002373E+04  0.12804236493E+04  0.61300000000E+03 0.  1.
<mgrwt>
<rscale>  0 0.16793265E+04</rscale>
<asrwt>0</asrwt>
<pdfrwt beam="1">  1        2 0.24204466E+00 0.16793265E+04</pdfrwt>
<pdfrwt beam="2">  1       -2 0.59445462E-01 0.16793265E+04</pdfrwt>
<totfact> 0.29139230E+01</totfact>
</mgrwt>
</event>
<event>
 8    1  0.7326756E-052  0.1930941E+04  0.7818608E-02  0.8639606E-01
          2   -1    0    0  501    0  0.00000000000E+00  0.00000000000E+00  0.25109551291E+04  0.25109551291E+04  0.25500000000E-02 0.  1.
         -2   -1    0    0    0  501 -0.00000000000E+00 -0.00000000000E+00 -0.37122674256E+03  0.37122674257E+03  0.25500000000E-02 0. -1.
     200001    2    1    2    0    0  0.66371556900E+03 -0.33961293337E+03  0.10699602926E+04  0.14413390364E+04  0.61383050522E+03 0.  0.
    5000001    2    3    3    0    0  0.55606837559E+03 -0.31534075412E+03  0.57600325392E+03  0.92522702050E+03  0.34001979559E+03 0.  0.
        -11    1    4    4    0    0  0.40720280461E+03 -0.37728559266E+03  0.39713401098E+03  0.68254960639E+03  0.51100000000E-03 0. -1.
     200002    1    4    4    0    0  0.14886557098E+03  0.61944838545E+02  0.17886924294E+03  0.24267741411E+03  0.30000000000E+02 0. -1.
     200000    1    3    3    0    0  0.10764719342E+03 -0.24272179248E+02  0.49395703863E+03  0.51611201589E+03  0.10100000000E+03 0.  1.
    -200001    1    1    2    0    0 -0.66371556900E+03  0.33961293337E+03  0.10697680940E+04  0.14408428353E+04  0.61300000000E+03 0.  1.
<mgrwt>
<rscale>  0 0.19309414E+04</rscale>
<asrwt>0</asrwt>
<pdfrwt beam="1">  1        2 0.35870788E+00 0.19309414E+04</pdfrwt>
<pdfrwt beam="2">  1       -2 0.53032392E-01 0.19309414E+04</pdfrwt>
<totfact> 0.13674002E+01</totfact>
</mgrwt>
</event>
<event>
 8    1  0.7326756E-052  0.1502200E+04  0.7818608E-02  0.8882991E-01
          2   -1    0    0  501    0  0.00000000000E+00  0.00000000000E+00  0.97440938452E+03  0.97440938452E+03  0.25500000000E-02 0.  1.
         -2   -1    0    0    0  501 -0.00000000000E+00 -0.00000000000E+00 -0.57896769596E+03  0.57896769597E+03  0.25500000000E-02 0. -1.
     200001    2    1    2    0    0  0.20154265502E+03  0.37235730401E+03  0.30133092294E+03  0.80244749668E+03  0.61143458862E+03 0.  0.
    5000001    2    3    3    0    0 -0.14494690475E+03  0.33130589247E+03  0.90935950953E+02  0.38267699074E+03  0.86018210174E+02 0.  0.
        -11    1    4    4    0    0 -0.72202821747E+01  0.25173091932E+02 -0.13997295758E+02  0.29694129401E+02  0.51100000000E-03 0. -1.
     200002    1    4    4    0    0 -0.13772662258E+03  0.30613280054E+03  0.10493324671E+03  0.35298286133E+03  0.30000000000E+02 0. -1.
     200000    1    3    3    0    0  0.34648955977E+03  0.41051411542E+02  0.21039497199E+03  0.41977050594E+03  0.10100000000E+03 0. -1.
    -200001    1    1    2    0    0 -0.20154265502E+03 -0.37235730401E+03  0.94110765614E+02  0.75092958381E+03  0.61300000000E+03 0.  1.
<mgrwt>
<rscale>  0 0.15022005E+04</rscale>
<asrwt>0</asrwt>
<pdfrwt beam="1">  1        2 0.13920134E+00 0.15022005E+04</pdfrwt>
<pdfrwt beam="2">  1       -2 0.82709671E-01 0.15022005E+04</pdfrwt>
<totfact> 0.36162890E+01</totfact>
</mgrwt>
</event>
<event>
 8    1  0.7326756E-052  0.1381140E+04  0.7818608E-02  0.8967584E-01
          2   -1    0    0  501    0  0.00000000000E+00  0.00000000000E+00  0.18845009405E+04  0.18845009405E+04  0.25500000000E-02 0.  1.
         -2   -1    0    0    0  501 -0.00000000000E+00 -0.00000000000E+00 -0.25305754014E+03  0.25305754015E+03  0.25500000000E-02 0. -1.
     200001    2    1    2    0    0  0.22862241758E+03 -0.14848226440E+02  0.11601379504E+04  0.13310930401E+04  0.61106459382E+03 0.  0.
    5000001    2    3    3    0    0 -0.28014983406E+02  0.17089173184E+03  0.93417243269E+02  0.21374969328E+03  0.83506447231E+02 0.  0.
        -11    1    4    4    0    0  0.25755677143E+02  0.49816723794E+02  0.33166799335E+02  0.65154412384E+02  0.51100000000E-03 0. -1.
     200002    1    4    4    0    0 -0.53770660549E+02  0.12107500805E+03  0.60250443933E+02  0.14859528089E+03  0.30000000000E+02 0. -1.
     200000    1    3    3    0    0  0.25663740099E+03 -0.18573995828E+03  0.10667207071E+04  0.11173433468E+04  0.10100000000E+03 0.  1.
    -200001    1    1    2    0    0 -0.22862241758E+03  0.14848226440E+02  0.47130545001E+03  0.80646544059E+03  0.61300000000E+03 0. -1.
<mgrwt>
<rscale>  0 0.13811404E+04</rscale>
<asrwt>0</asrwt>
<pdfrwt beam="1">  1        2 0.26921443E+00 0.13811404E+04</pdfrwt>
<pdfrwt beam="2">  1       -2 0.36151076E-01 0.13811404E+04</pdfrwt>
<totfact> 0.64616597E+01</totfact>
</mgrwt>
</event>
<event>
 8    1  0.7326756E-052  0.1453341E+04  0.7818608E-02  0.8916087E-01
         -2   -1    0    0    0  501 -0.00000000000E+00  0.00000000000E+00  0.18762933719E+03  0.18762933721E+03  0.25500000000E-02 0. -1.
          2   -1    0    0  501    0  0.00000000000E+00 -0.00000000000E+00 -0.28143266459E+04  0.28143266459E+04  0.25500000000E-02 0.  1.
     200001    2    1    2    0    0 -0.31964082560E+03 -0.22378128754E+03 -0.13064881985E+04  0.14949823878E+04  0.61303556601E+03 0.  0.
    5000001    2    3    3    0    0 -0.40924178262E+03  0.20875375224E+02 -0.98986364543E+03  0.10726823503E+04  0.53877362058E+02 0.  0.
        -11    1    4    4    0    0 -0.19852980689E+03  0.10897618679E+01 -0.43924050588E+03  0.48202437056E+03  0.51100000000E-03 0. -1.
     200002    1    4    4    0    0 -0.21071197573E+03  0.19785613356E+02 -0.55062313955E+03  0.59065797973E+03  0.30000000000E+02 0.  1.
     200000    1    3    3    0    0  0.89600957026E+02 -0.24465666276E+03 -0.31662455304E+03  0.42230003756E+03  0.10100000000E+03 0. -1.
    -200001    1    1    2    0    0  0.31964082560E+03  0.22378128754E+03 -0.13202091102E+04  0.15069735953E+04  0.61300000000E+03 0.  1.
<mgrwt>
<rscale>  0 0.14533413E+04</rscale>
<asrwt>0</asrwt>
<pdfrwt beam="1">  1        2 0.40204664E+00 0.14533413E+04</pdfrwt>
<pdfrwt beam="2">  1       -2 0.26804193E-01 0.14533413E+04</pdfrwt>
<totfact> 0.36797030E+01</totfact>
</mgrwt>
</event>
<event>
 8    1  0.7326756E-052  0.1739187E+04  0.7818608E-02  0.8739325E-01
          2   -1    0    0  501    0  0.00000000000E+00  0.00000000000E+00  0.13120921081E+04  0.13120921081E+04  0.25500000000E-02 0.  1.
         -2   -1    0    0    0  501 -0.00000000000E+00 -0.00000000000E+00 -0.57632571901E+03  0.57632571901E+03  0.25500000000E-02 0. -1.
     200001    2    1    2    0    0  0.53050211353E+03 -0.26634514975E+03  0.18345671715E+03  0.87195966023E+03  0.61178840358E+03 0.  0.
    5000001    2    3    3    0    0  0.60431261560E+03 -0.33827640918E+03  0.19103807035E+03  0.72745854185E+03  0.11434911195E+03 0.  0.
        -11    1    4    4    0    0  0.37753616161E+03 -0.19321412152E+03  0.16599425847E+03  0.45543313881E+03  0.51100000000E-03 0. -1.
     200002    1    4    4    0    0  0.22677645399E+03 -0.14506228767E+03  0.25043811873E+02  0.27202540304E+03  0.30000000000E+02 0. -1.
     200000    1    3    3    0    0 -0.73810502064E+02  0.71931259437E+02 -0.75813531969E+01  0.14450111839E+03  0.10100000000E+03 0. -1.
    -200001    1    1    2    0    0 -0.53050211353E+03  0.26634514975E+03  0.55230967189E+03  0.10164581668E+04  0.61300000000E+03 0. -1.
<mgrwt>
<rscale>  0 0.17391865E+04</rscale>
<asrwt>0</asrwt>
<pdfrwt beam="1">  1        2 0.18744172E+00 0.17391865E+04</pdfrwt>
<pdfrwt beam="2">  1       -2 0.82332248E-01 0.17391865E+04</pdfrwt>
<totfact> 0.22783759E+01</totfact>
</mgrwt>
</event>
<event>
 8    1  0.7326756E-052  0.1464012E+04  0.7818608E-02  0.8908743E-01
         -2   -1    0    0    0  501 -0.00000000000E+00  0.00000000000E+00  0.71832143269E+03  0.71832143269E+03  0.25500000000E-02 0. -1.
          2   -1    0    0  501    0  0.00000000000E+00 -0.00000000000E+00 -0.74595147361E+03  0.74595147361E+03  0.25500000000E-02 0.  1.
     200001    2    1    2    0    0 -0.13662394156E+03 -0.56937112465E+02 -0.38688165915E+03  0.73850527036E+03  0.61139568201E+03 0.  0.
    5000001    2    3    3    0    0 -0.31308228088E+03 -0.19233144407E+03 -0.28557205815E+03  0.47405526412E+03  0.90360910084E+02 0.  0.
        -11    1    4    4    0    0 -0.95459630863E+01 -0.27319626298E+02 -0.38903207051E+02  0.48486564236E+02  0.51100000000E-03 0. -1.
     200002    1    4    4    0    0 -0.30353631779E+03 -0.16501181777E+03 -0.24666885110E+03  0.42556869988E+03  0.30000000000E+02 0. -1.
     200000    1    3    3    0    0  0.17645833932E+03  0.13539433160E+03 -0.10130960100E+03  0.26445000624E+03  0.10100000000E+03 0.  1.
    -200001    1    1    2    0    0  0.13662394156E+03  0.56937112465E+02  0.35925161823E+03  0.72576763594E+03  0.61300000000E+03 0. -1.
<mgrwt>
<rscale>  0 0.14640122E+04</rscale>
<asrwt>0</asrwt>
<pdfrwt beam="1">  1        2 0.10656450E+00 0.14640122E+04</pdfrwt>
<pdfrwt beam="2">  1       -2 0.10261735E+00 0.14640122E+04</pdfrwt>
<totfact> 0.31339919E+01</totfact>
</mgrwt>
</event>
<event>
 8    1  0.7326756E-052  0.1617856E+04  0.7818608E-02  0.8809653E-01
          2   -1    0    0  501    0  0.00000000000E+00  0.00000000000E+00  0.17408244335E+04  0.17408244335E+04  0.25500000000E-02 0.  1.
         -2   -1    0    0    0  501 -0.00000000000E+00 -0.00000000000E+00 -0.37589360163E+03  0.37589360164E+03  0.25500000000E-02 0. -1.
     200001    2    1    2    0    0 -0.30582741598E+01  0.12004222690E+03  0.88872980298E+01  0.62372019357E+03  0.61198726010E+03 0.  0.
    5000001    2    3    3    0    0 -0.12258129896E+02 -0.23848692958E+03  0.28599217662E+02  0.25060177649E+03  0.70406376146E+02 0.  0.
        -11    1    4    4    0    0 -0.34019238843E+02 -0.11430024688E+03  0.99813745112E+01  0.11967239818E+03  0.51100000000E-03 0. -1.
     200002    1    4    4    0    0  0.21761108947E+02 -0.12418668270E+03  0.18617843151E+02  0.13092937831E+03  0.30000000000E+02 0. -1.
     200000    1    3    3    0    0  0.91998557364E+01  0.35852915647E+03 -0.19711919633E+02  0.37311841708E+03  0.10100000000E+03 0. -1.
    -200001    1    1    2    0    0  0.30582741598E+01 -0.12004222690E+03  0.13560435339E+04  0.14929978416E+04  0.61300000000E+03 0.  1.
<mgrwt>
<rscale>  0 0.16178563E+04</rscale>
<asrwt>0</asrwt>
<pdfrwt beam="1">  1        2 0.24868921E+00 0.16178563E+04</pdfrwt>
<pdfrwt beam="2">  1       -2 0.53699086E-01 0.16178563E+04</pdfrwt>
<totfact> 0.34241689E+01</totfact>
</mgrwt>
</event>
<event>
 8    1  0.7326756E-052  0.1533341E+04  0.7818608E-02  0.8862579E-01
          2   -1    0    0  501    0  0.00000000000E+00  0.00000000000E+00  0.38645164404E+04  0.38645164404E+04  0.25500000000E-02 0.  1.
         -2   -1    0    0    0  501 -0.00000000000E+00 -0.00000000000E+00 -0.15209759893E+03  0.15209759895E+03  0.25500000000E-02 0. -1.
     200001    2    1    2    0    0  0.31422252945E+03  0.19930165018E+03  0.25685074059E+04  0.26665179990E+04  0.61207107348E+03 0.  0.
    5000001    2    3    3    0    0  0.47962735207E+03  0.14159461891E+03  0.16957746714E+04  0.17706651747E+04  0.97529441683E+02 0.  0.
        -11    1    4    4    0    0  0.35648305980E+03  0.68250577301E+02  0.11908745921E+04  0.12449580745E+04  0.51100000000E-03 0. -1.
     200002    1    4    4    0    0  0.12314429228E+03  0.73344041607E+02  0.50490007928E+03  0.52570710022E+03  0.30000000000E+02 0. -1.
     200000    1    3    3    0    0 -0.16540482262E+03  0.57707031271E+02  0.87273273456E+03  0.89585282428E+03  0.10100000000E+03 0. -1.
    -200001    1    1    2    0    0 -0.31422252945E+03 -0.19930165018E+03  0.11439114356E+04  0.13500960404E+04  0.61300000000E+03 0. -1.
<mgrwt>
<rscale>  0 0.15333410E+04</rscale>
<asrwt>0</asrwt>
<pdfrwt beam="1">  1        2 0.55207384E+00 0.15333410E+04</pdfrwt>
<pdfrwt beam="2">  1       -2 0.21728226E-01 0.15333410E+04</pdfrwt>
<totfact> 0.12723231E+01</totfact>
</mgrwt>
</event>
<event>
 8    1  0.7326756E-052  0.1301539E+04  0.7818608E-02  0.9028346E-01
          2   -1    0    0  501    0  0.00000000000E+00  0.00000000000E+00  0.70170228435E+03  0.70170228436E+03  0.25500000000E-02 0.  1.
         -2   -1    0    0    0  501 -0.00000000000E+00 -0.00000000000E+00 -0.60353343782E+03  0.60353343783E+03  0.25500000000E-02 0. -1.
     200001    2    1    2    0    0 -0.19766779376E+03  0.54069330942E+02  0.12275623079E+03  0.65842076510E+03  0.61355746469E+03 0.  0.
    5000001    2    3    3    0    0 -0.12136068076E+03  0.14369074394E+03 -0.20951754041E+03  0.29173066135E+03  0.76378886505E+02 0.  0.
        -11    1    4    4    0    0 -0.20801356984E+02 -0.18669386236E+00 -0.67615380031E+01  0.21873493168E+02  0.51100000000E-03 0. -1.
     200002    1    4    4    0    0 -0.10055932378E+03  0.14387743780E+03 -0.20275600241E+03  0.26985716818E+03  0.30000000000E+02 0. -1.
     200000    1    3    3    0    0 -0.76307113001E+02 -0.89621413001E+02  0.33227377120E+03  0.36669010375E+03  0.10100000000E+03 0.  1.
    -200001    1    1    2    0    0  0.19766779376E+03 -0.54069330942E+02 -0.24587384260E+02  0.64681495708E+03  0.61300000000E+03 0.  1.
<mgrwt>
<rscale>  0 0.13015388E+04</rscale>
<asrwt>0</asrwt>
<pdfrwt beam="1">  1        2 0.10024318E+00 0.13015388E+04</pdfrwt>
<pdfrwt beam="2">  1       -2 0.86219063E-01 0.13015388E+04</pdfrwt>
<totfact> 0.51379406E+01</totfact>
</mgrwt>
</event>
<event>
 8    1  0.7326756E-052  0.1722342E+04  0.7818608E-02  0.8748724E-01
          2   -1    0    0  501    0  0.00000000000E+00  0.00000000000E+00  0.18049087606E+04  0.18049087606E+04  0.25500000000E-02 0.  1.
         -2   -1    0    0    0  501 -0.00000000000E+00 -0.00000000000E+00 -0.41088787584E+03  0.41088787585E+03  0.25500000000E-02 0. -1.
     200001    2    1    2    0    0  0.28660523300E+03 -0.50056392925E+03  0.46174260012E+03  0.95976375198E+03  0.61256299595E+03 0.  0.
    5000001    2    3    3    0    0  0.24332287568E+03  0.17268715389E+02 -0.83012152505E+01  0.25183282408E+03  0.62021212076E+02 0.  0.
        -11    1    4    4    0    0  0.17117746096E+03  0.31911574252E+01 -0.16589452691E+02  0.17200905955E+03  0.51100000000E-03 0. -1.
     200002    1    4    4    0    0  0.72145414722E+02  0.14077557964E+02  0.82882374401E+01  0.79823764528E+02  0.30000000000E+02 0.  1.
     200000    1    3    3    0    0  0.43282357312E+02 -0.51783264464E+03  0.47004381537E+03  0.70793092790E+03  0.10100000000E+03 0. -1.
    -200001    1    1    2    0    0 -0.28660523300E+03  0.50056392925E+03  0.93227828463E+03  0.12560328845E+04  0.61300000000E+03 0. -1.
<mgrwt>
<rscale>  0 0.17223416E+04</rscale>
<asrwt>0</asrwt>
<pdfrwt beam="1">  1        2 0.25784410E+00 0.17223416E+04</pdfrwt>
<pdfrwt beam="2">  1       -2 0.58698269E-01 0.17223416E+04</pdfrwt>
<totfact> 0.26135160E+01</totfact>
</mgrwt>
</event>
<event>
 8    1  0.7326756E-052  0.1513809E+04  0.7818608E-02  0.8875322E-01
          2   -1    0    0  501    0  0.00000000000E+00  0.00000000000E+00  0.34429055077E+03  0.34429055078E+03  0.25500000000E-02 0.  1.
         -2   -1    0    0    0  501 -0.00000000000E+00 -0.00000000000E+00 -0.16640140041E+04  0.16640140041E+04  0.25500000000E-02 0. -1.
     200001    2    1    2    0    0 -0.30141881558E+02  0.23665377336E+03 -0.11561300184E+04  0.13304805708E+04  0.61370056894E+03 0.  0.
    5000001    2    3    3    0    0 -0.36608820911E+02 -0.87005769354E+02 -0.24983501705E+02  0.14959498652E+03  0.11333258563E+03 0.  0.
        -11    1    4    4    0    0 -0.33838080523E+02 -0.10506775528E+03 -0.82621819129E+01  0.11069106803E+03  0.51100000000E-03 0. -1.
     200002    1    4    4    0    0 -0.27707403883E+01  0.18061985924E+02 -0.16721319792E+02  0.38903918484E+02  0.30000000000E+02 0. -1.
     200000    1    3    3    0    0  0.64669393530E+01  0.32365954272E+03 -0.11311465167E+04  0.11808855843E+04  0.10100000000E+03 0. -1.
    -200001    1    1    2    0    0  0.30141881558E+02 -0.23665377336E+03 -0.16359343494E+03  0.67782398410E+03  0.61300000000E+03 0.  1.
<mgrwt>
<rscale>  0 0.15138088E+04</rscale>
<asrwt>0</asrwt>
<pdfrwt beam="1">  1        2 0.49184365E-01 0.15138088E+04</pdfrwt>
<pdfrwt beam="2">  1       -2 0.23771628E+00 0.15138088E+04</pdfrwt>
<totfact> 0.75713322E+00</totfact>
</mgrwt>
</event>
<event>
 8    1  0.7326756E-052  0.1258373E+04  0.7818608E-02  0.9063243E-01
          2   -1    0    0  501    0  0.00000000000E+00  0.00000000000E+00  0.88091300996E+03  0.88091300996E+03  0.25500000000E-02 0.  1.
         -2   -1    0    0    0  501 -0.00000000000E+00 -0.00000000000E+00 -0.44939224377E+03  0.44939224378E+03  0.25500000000E-02 0. -1.
     200001    2    1    2    0    0  0.81869624246E+02  0.96564165983E+02  0.15251006196E+03  0.64500003225E+03  0.61379023215E+03 0.  0.
    5000001    2    3    3    0    0 -0.12549507146E+03 -0.43483897250E+01  0.30088660501E+03  0.35276714661E+03  0.13469962581E+03 0.  0.
        -11    1    4    4    0    0 -0.63344997275E+02 -0.45052601433E+02  0.23959884447E+03  0.25189269908E+03  0.51100000000E-03 0. -1.
     200002    1    4    4    0    0 -0.62150074184E+02  0.40704211708E+02  0.61287760539E+02  0.10087444753E+03  0.30000000000E+02 0. -1.
     200000    1    3    3    0    0  0.20736469570E+03  0.10091255571E+03 -0.14837654306E+03  0.29223288565E+03  0.10100000000E+03 0. -1.
    -200001    1    1    2    0    0 -0.81869624246E+02 -0.96564165983E+02  0.27901070423E+03  0.68530522149E+03  0.61300000000E+03 0. -1.
<mgrwt>
<rscale>  0 0.12583727E+04</rscale>
<asrwt>0</asrwt>
<pdfrwt beam="1">  1        2 0.12584472E+00 0.12583727E+04</pdfrwt>
<pdfrwt beam="2">  1       -2 0.64198892E-01 0.12583727E+04</pdfrwt>
<totfact> 0.73851161E+01</totfact>
</mgrwt>
</event>
<event>
 8    1  0.7326756E-052  0.1481891E+04  0.7818608E-02  0.8896585E-01
         -2   -1    0    0    0  501 -0.00000000000E+00  0.00000000000E+00  0.61485536025E+03  0.61485536025E+03  0.25500000000E-02 0. -1.
          2   -1    0    0  501    0  0.00000000000E+00 -0.00000000000E+00 -0.89289357472E+03  0.89289357473E+03  0.25500000000E-02 0.  1.
     200001    2    1    2    0    0 -0.31199131147E+03  0.26268272494E+03 -0.22403122238E+03  0.76948980187E+03  0.61284889995E+03 0.  0.
    5000001    2    3    3    0    0 -0.94954402647E+02 -0.16341687297E+03 -0.82018355892E+02  0.26053544108E+03  0.15946878190E+03 0.  0.
        -11    1    4    4    0    0  0.11122727579E+02 -0.56701272290E+02  0.35016989599E+02  0.67564331633E+02  0.51100000000E-03 0. -1.
     200002    1    4    4    0    0 -0.10607713023E+03 -0.10671560068E+03 -0.11703534549E+03  0.19297110944E+03  0.30000000000E+02 0. -1.
     200000    1    3    3    0    0 -0.21703690882E+03  0.42609959791E+03 -0.14201286649E+03  0.50895436080E+03  0.10100000000E+03 0.  1.
    -200001    1    1    2    0    0  0.31199131147E+03 -0.26268272494E+03 -0.54006992099E+02  0.73825913310E+03  0.61300000000E+03 0. -1.
<mgrwt>
<rscale>  0 0.14818912E+04</rscale>
<asrwt>0</asrwt>
<pdfrwt beam="1">  1        2 0.12755622E+00 0.14818912E+04</pdfrwt>
<pdfrwt beam="2">  1       -2 0.87836481E-01 0.14818912E+04</pdfrwt>
<totfact> 0.35619931E+01</totfact>
</mgrwt>
</event>
<event>
 8    1  0.7326756E-052  0.1507741E+04  0.7818608E-02  0.8879321E-01
          2   -1    0    0  501    0  0.00000000000E+00  0.00000000000E+00  0.16991829999E+04  0.16991829999E+04  0.25500000000E-02 0.  1.
         -2   -1    0    0    0  501 -0.00000000000E+00 -0.00000000000E+00 -0.33446715115E+03  0.33446715116E+03  0.25500000000E-02 0. -1.
     200001    2    1    2    0    0  0.79870637414E+02  0.45260025275E+02  0.10361276863E+03  0.62845345048E+03  0.61301741002E+03 0.  0.
    5000001    2    3    3    0    0  0.88132827349E+02 -0.24781757954E+03  0.15332344964E+03  0.31439151705E+03  0.78441046641E+02 0.  0.
        -11    1    4    4    0    0  0.56396356404E+02 -0.20735560300E+03  0.11763361208E+03  0.24497869663E+03  0.51100000000E-03 0. -1.
     200002    1    4    4    0    0  0.31736470945E+02 -0.40461976536E+02  0.35689837563E+02  0.69412820419E+02  0.30000000000E+02 0.  1.
     200000    1    3    3    0    0 -0.82621899348E+01  0.29307760481E+03 -0.49710681017E+02  0.31406193343E+03  0.10100000000E+03 0.  1.
    -200001    1    1    2    0    0 -0.79870637414E+02 -0.45260025275E+02  0.12611030801E+04  0.14051967006E+04  0.61300000000E+03 0.  1.
<mgrwt>
<rscale>  0 0.15077412E+04</rscale>
<asrwt>0</asrwt>
<pdfrwt beam="1">  1        2 0.24274043E+00 0.15077412E+04</pdfrwt>
<pdfrwt beam="2">  1       -2 0.47781021E-01 0.15077412E+04</pdfrwt>
<totfact> 0.46074137E+01</totfact>
</mgrwt>
</event>
<event>
 8    1  0.7326756E-052  0.1900964E+04  0.7818608E-02  0.8654377E-01
         -2   -1    0    0    0  501 -0.00000000000E+00  0.00000000000E+00  0.30030964658E+03  0.30030964659E+03  0.25500000000E-02 0. -1.
          2   -1    0    0  501    0  0.00000000000E+00 -0.00000000000E+00 -0.30082828406E+04  0.30082828406E+04  0.25500000000E-02 0.  1.
     200001    2    1    2    0    0 -0.15794434300E+03 -0.47630573008E+03 -0.44107277941E+03  0.90725534849E+03  0.61380249806E+03 0.  0.
    5000001    2    3    3    0    0 -0.55521020270E+01 -0.42893688566E+03 -0.53913676508E+03  0.69445321547E+03  0.87058252360E+02 0.  0.
        -11    1    4    4    0    0  0.26036469066E+02 -0.14542290934E+03 -0.22388455744E+03  0.26823500022E+03  0.51100000000E-03 0. -1.
     200002    1    4    4    0    0 -0.31588571093E+02 -0.28351397632E+03 -0.31525220764E+03  0.42621821525E+03  0.30000000000E+02 0. -1.
     200000    1    3    3    0    0 -0.15239224097E+03 -0.47368844423E+02  0.98063985669E+02  0.21280213302E+03  0.10100000000E+03 0.  1.
    -200001    1    1    2    0    0  0.15794434300E+03  0.47630573008E+03 -0.22669004147E+04  0.24013371388E+04  0.61300000000E+03 0.  1.
<mgrwt>
<rscale>  0 0.19009643E+04</rscale>
<asrwt>0</asrwt>
<pdfrwt beam="1">  1        2 0.42975467E+00 0.19009643E+04</pdfrwt>
<pdfrwt beam="2">  1       -2 0.42901380E-01 0.19009643E+04</pdfrwt>
<totfact> 0.11310403E+01</totfact>
</mgrwt>
</event>
<event>
 8    1  0.7326756E-052  0.2149773E+04  0.7818608E-02  0.8539629E-01
          2   -1    0    0  501    0  0.00000000000E+00  0.00000000000E+00  0.14411914849E+04  0.14411914849E+04  0.25500000000E-02 0.  1.
         -2   -1    0    0    0  501 -0.00000000000E+00 -0.00000000000E+00 -0.80168483699E+03  0.80168483700E+03  0.25500000000E-02 0. -1.
     200001    2    1    2    0    0 -0.17372551884E+03  0.30451903732E+03  0.11652087397E+04  0.13625104382E+04  0.61303416464E+03 0.  0.
    5000001    2    3    3    0    0 -0.33296048112E+03  0.14181574109E+03  0.96644791239E+03  0.10438648634E+04  0.15702833928E+03 0.  0.
        -11    1    4    4    0    0 -0.15899328609E+03  0.11741430677E+03  0.66425381340E+03  0.69303543422E+03  0.51100000000E-03 0. -1.
     200002    1    4    4    0    0 -0.17396719503E+03  0.24401434319E+02  0.30219409898E+03  0.35082942921E+03  0.30000000000E+02 0. -1.
     200000    1    3    3    0    0  0.15923496229E+03  0.16270329623E+03  0.19876082733E+03  0.31864557474E+03  0.10100000000E+03 0. -1.
    -200001    1    1    2    0    0  0.17372551884E+03 -0.30451903732E+03 -0.52570209178E+03  0.88036588376E+03  0.61300000000E+03 0. -1.
<mgrwt>
<rscale>  0 0.21497733E+04</rscale>
<asrwt>0</asrwt>
<pdfrwt beam="1">  1        2 0.20588450E+00 0.21497733E+04</pdfrwt>
<pdfrwt beam="2">  1       -2 0.11452640E+00 0.21497733E+04</pdfrwt>
<totfact> 0.86343329E+00</totfact>
</mgrwt>
</event>
<event>
 8    1  0.7326756E-052  0.1573937E+04  0.7818608E-02  0.8836721E-01
          2   -1    0    0  501    0  0.00000000000E+00  0.00000000000E+00  0.35094634438E+04  0.35094634438E+04  0.25500000000E-02 0.  1.
         -2   -1    0    0    0  501 -0.00000000000E+00 -0.00000000000E+00 -0.17647129389E+03  0.17647129391E+03  0.25500000000E-02 0. -1.
     200001    2    1    2    0    0 -0.80936511435E+02  0.79942543632E+02  0.27911859558E+04  0.28599417104E+04  0.61286704743E+03 0.  0.
    5000001    2    3    3    0    0 -0.27450071962E+03  0.39366577683E+02  0.23326103422E+04  0.23504261511E+04  0.80819001959E+02 0.  0.
        -11    1    4    4    0    0 -0.15157312972E+02  0.22630311366E+02  0.21954486337E+03  0.22122798684E+03  0.51100000000E-03 0. -1.
     200002    1    4    4    0    0 -0.25934340665E+03  0.16736266317E+02  0.21130654788E+04  0.21291981643E+04  0.30000000000E+02 0. -1.
     200000    1    3    3    0    0  0.19356420818E+03  0.40575965949E+02  0.45857561366E+03  0.50951555928E+03  0.10100000000E+03 0. -1.
    -200001    1    1    2    0    0  0.80936511435E+02 -0.79942543632E+02  0.54180619406E+03  0.82599302726E+03  0.61300000000E+03 0. -1.
<mgrwt>
<rscale>  0 0.15739372E+04</rscale>
<asrwt>0</asrwt>
<pdfrwt beam="1">  1        2 0.50135190E+00 0.15739372E+04</pdfrwt>
<pdfrwt beam="2">  1       -2 0.25210186E-01 0.15739372E+04</pdfrwt>
<totfact> 0.16277502E+01</totfact>
</mgrwt>
</event>
<event>
 8    1  0.7326756E-052  0.1259585E+04  0.7818608E-02  0.9062243E-01
          2   -1    0    0  501    0  0.00000000000E+00  0.00000000000E+00  0.26847097751E+04  0.26847097751E+04  0.25500000000E-02 0.  1.
         -2   -1    0    0    0  501 -0.00000000000E+00 -0.00000000000E+00 -0.14773984911E+03  0.14773984913E+03  0.25500000000E-02 0. -1.
     200001    2    1    2    0    0  0.24804190260E+02  0.98916335183E+02  0.14919771751E+04  0.16166459647E+04  0.61412425031E+03 0.  0.
    5000001    2    3    3    0    0  0.29236831352E+03  0.99322012879E+02  0.97732834322E+03  0.10278716915E+04  0.77494713673E+02 0.  0.
        -11    1    4    4    0    0  0.13301850965E+03  0.52087805832E+02  0.55338386266E+03  0.57152494510E+03  0.51100000000E-03 0. -1.
     200002    1    4    4    0    0  0.15934980387E+03  0.47234207047E+02  0.42394448056E+03  0.45634674635E+03  0.30000000000E+02 0. -1.
     200000    1    3    3    0    0 -0.26756412326E+03 -0.40567769595E+00  0.51464883188E+03  0.58877427320E+03  0.10100000000E+03 0.  1.
    -200001    1    1    2    0    0 -0.24804190260E+02 -0.98916335183E+02  0.10449927509E+04  0.12158036596E+04  0.61300000000E+03 0. -1.
<mgrwt>
<rscale>  0 0.12595850E+04</rscale>
<asrwt>0</asrwt>
<pdfrwt beam="1">  1        2 0.38352996E+00 0.12595850E+04</pdfrwt>
<pdfrwt beam="2">  1       -2 0.21105693E-01 0.12595850E+04</pdfrwt>
<totfact> 0.67533233E+01</totfact>
</mgrwt>
</event>
<event>
 8    1  0.7326756E-052  0.1493427E+04  0.7818608E-02  0.8888835E-01
         -2   -1    0    0    0  501 -0.00000000000E+00  0.00000000000E+00  0.12312087566E+04  0.12312087566E+04  0.25500000000E-02 0.  1.
          2   -1    0    0  501    0  0.00000000000E+00 -0.00000000000E+00 -0.45287304291E+03  0.45287304292E+03  0.25500000000E-02 0. -1.
     200001    2    1    2    0    0  0.93682125808E+02  0.31185692566E+03  0.69839931792E+03  0.98537591710E+03  0.61414412637E+03 0.  0.
    5000001    2    3    3    0    0  0.25592970907E+03  0.29415499740E+03  0.68652762727E+03  0.79307517977E+03  0.74972523575E+02 0.  0.
        -11    1    4    4    0    0  0.92884192600E+02  0.62482480476E+02  0.20588075692E+03  0.23434679360E+03  0.51100000000E-03 0. -1.
     200002    1    4    4    0    0  0.16304551647E+03  0.23167251692E+03  0.48064687035E+03  0.55872838617E+03  0.30000000000E+02 0. -1.
     200000    1    3    3    0    0 -0.16224758326E+03  0.17701928257E+02  0.11871690651E+02  0.19230073733E+03  0.10100000000E+03 0. -1.
    -200001    1    1    2    0    0 -0.93682125808E+02 -0.31185692566E+03  0.79936395791E+02  0.69870588243E+03  0.61300000000E+03 0. -1.
<mgrwt>
<rscale>  0 0.14934273E+04</rscale>
<asrwt>0</asrwt>
<pdfrwt beam="1">  1        2 0.64696150E-01 0.14934273E+04</pdfrwt>
<pdfrwt beam="2">  1       -2 0.17588696E+00 0.14934273E+04</pdfrwt>
<totfact> 0.14088252E+01</totfact>
</mgrwt>
</event>
<event>
 8    1  0.7326756E-052  0.1465266E+04  0.7818608E-02  0.8907885E-01
         -2   -1    0    0    0  501 -0.00000000000E+00  0.00000000000E+00  0.30772873677E+03  0.30772873678E+03  0.25500000000E-02 0. -1.
          2   -1    0    0  501    0  0.00000000000E+00 -0.00000000000E+00 -0.17442349294E+04  0.17442349294E+04  0.25500000000E-02 0.  1.
     200001    2    1    2    0    0  0.39435500651E+03 -0.67208200634E+02 -0.75746235785E+03  0.10535136960E+04  0.61327731955E+03 0.  0.
    5000001    2    3    3    0    0  0.18218843951E+03 -0.58795056411E+02 -0.76586404373E+03  0.81823296691E+03  0.21519286353E+03 0.  0.
        -11    1    4    4    0    0  0.12059706554E+03 -0.10226256804E+02 -0.70297209765E+03  0.71331479630E+03  0.51100000000E-03 0. -1.
     200002    1    4    4    0    0  0.61591373971E+02 -0.48568799607E+02 -0.62891946077E+02  0.10491817061E+03  0.30000000000E+02 0. -1.
     200000    1    3    3    0    0  0.21216656701E+03 -0.84131442232E+01  0.84016858728E+01  0.23528072908E+03  0.10100000000E+03 0. -1.
    -200001    1    1    2    0    0 -0.39435500651E+03  0.67208200634E+02 -0.67904383474E+03  0.99844997015E+03  0.61300000000E+03 0.  1.
<mgrwt>
<rscale>  0 0.14652661E+04</rscale>
<asrwt>0</asrwt>
<pdfrwt beam="1">  1        2 0.24917641E+00 0.14652661E+04</pdfrwt>
<pdfrwt beam="2">  1       -2 0.43961249E-01 0.14652661E+04</pdfrwt>
<totfact> 0.51760450E+01</totfact>
</mgrwt>
</event>
<event>
 8    1  0.7326756E-052  0.2231575E+04  0.7818608E-02  0.8505400E-01
         -2   -1    0    0    0  501 -0.00000000000E+00  0.00000000000E+00  0.59495252135E+03  0.59495252135E+03  0.25500000000E-02 0. -1.
          2   -1    0    0  501    0  0.00000000000E+00 -0.00000000000E+00 -0.20925723697E+04  0.20925723697E+04  0.25500000000E-02 0.  1.
     200001    2    1    2    0    0 -0.14966727958E+03  0.17840709149E+03 -0.18359418861E+04  0.19496494367E+04  0.61336851249E+03 0.  0.
    5000001    2    3    3    0    0  0.33206724983E+02 -0.62393805874E+02 -0.15075457620E+02  0.10108688055E+03  0.70679660456E+02 0.  0.
        -11    1    4    4    0    0 -0.90804303018E+01  0.62184869260E+01 -0.10110153183E+02  0.14944530496E+02  0.51100000000E-03 0. -1.
     200002    1    4    4    0    0  0.42287155285E+02 -0.68612292800E+02 -0.49653044372E+01  0.86142350058E+02  0.30000000000E+02 0. -1.
     200000    1    3    3    0    0 -0.18287400456E+03  0.24080089736E+03 -0.18208664285E+04  0.18485625561E+04  0.10100000000E+03 0.  1.
    -200001    1    1    2    0    0  0.14966727958E+03 -0.17840709149E+03  0.33832203775E+03  0.73787545433E+03  0.61300000000E+03 0. -1.
<mgrwt>
<rscale>  0 0.22315745E+04</rscale>
<asrwt>0</asrwt>
<pdfrwt beam="1">  1        2 0.29893891E+00 0.22315745E+04</pdfrwt>
<pdfrwt beam="2">  1       -2 0.84993218E-01 0.22315745E+04</pdfrwt>
<totfact> 0.79339303E+00</totfact>
</mgrwt>
</event>
<event>
 8    1  0.7326756E-052  0.1396567E+04  0.7818608E-02  0.8956307E-01
         -2   -1    0    0    0  501 -0.00000000000E+00  0.00000000000E+00  0.23593003479E+03  0.23593003480E+03  0.25500000000E-02 0. -1.
          2   -1    0    0  501    0  0.00000000000E+00 -0.00000000000E+00 -0.20667131874E+04  0.20667131874E+04  0.25500000000E-02 0.  1.
     200001    2    1    2    0    0 -0.36190824287E+01 -0.28734744091E+03 -0.63450264674E+03  0.92807503609E+03  0.61330906918E+03 0.  0.
    5000001    2    3    3    0    0  0.10944598092E+03 -0.38776045993E+03 -0.58106554932E+03  0.73854138125E+03  0.21323602462E+03 0.  0.
        -11    1    4    4    0    0  0.40582846444E+02 -0.30083300476E+03 -0.26753842739E+03  0.40462856339E+03  0.51100000000E-03 0. -1.
     200002    1    4    4    0    0  0.68863134474E+02 -0.86927455172E+02 -0.31352712192E+03  0.33391281786E+03  0.30000000000E+02 0. -1.
     200000    1    3    3    0    0 -0.11306506335E+03  0.10041301901E+03 -0.53437097428E+02  0.18953365484E+03  0.10100000000E+03 0.  1.
    -200001    1    1    2    0    0  0.36190824287E+01  0.28734744091E+03 -0.11962805059E+04  0.13745681861E+04  0.61300000000E+03 0.  1.
<mgrwt>
<rscale>  0 0.13965668E+04</rscale>
<asrwt>0</asrwt>
<pdfrwt beam="1">  1        2 0.29524473E+00 0.13965668E+04</pdfrwt>
<pdfrwt beam="2">  1       -2 0.33704292E-01 0.13965668E+04</pdfrwt>
<totfact> 0.59477685E+01</totfact>
</mgrwt>
</event>
<event>
 8    1  0.7326756E-052  0.1463998E+04  0.7818608E-02  0.8908753E-01
         -2   -1    0    0    0  501 -0.00000000000E+00  0.00000000000E+00  0.35660990489E+03  0.35660990490E+03  0.25500000000E-02 0. -1.
          2   -1    0    0  501    0  0.00000000000E+00 -0.00000000000E+00 -0.15025445342E+04  0.15025445342E+04  0.25500000000E-02 0.  1.
     200001    2    1    2    0    0  0.13089324759E+03 -0.13582661751E+03 -0.12485429260E+03  0.65335347447E+03  0.61294392560E+03 0.  0.
    5000001    2    3    3    0    0  0.19473547359E+03  0.12863222301E+03 -0.22910527431E+03  0.34499722703E+03  0.10984400974E+03 0.  0.
        -11    1    4    4    0    0  0.15057449712E+03  0.58603537650E+02 -0.18777416450E+03  0.24772200278E+03  0.51100000000E-03 0. -1.
     200002    1    4    4    0    0  0.44160976472E+02  0.70028685357E+02 -0.41331109809E+02  0.97275224255E+02  0.30000000000E+02 0. -1.
     200000    1    3    3    0    0 -0.63842226000E+02 -0.26445884051E+03  0.10425098170E+03  0.30835624743E+03  0.10100000000E+03 0. -1.
    -200001    1    1    2    0    0 -0.13089324759E+03  0.13582661751E+03 -0.10210803367E+04  0.12058009646E+04  0.61300000000E+03 0.  1.
<mgrwt>
<rscale>  0 0.14639976E+04</rscale>
<asrwt>0</asrwt>
<pdfrwt beam="1">  1        2 0.21464921E+00 0.14639976E+04</pdfrwt>
<pdfrwt beam="2">  1       -2 0.50944273E-01 0.14639976E+04</pdfrwt>
<totfact> 0.51475614E+01</totfact>
</mgrwt>
</event>
<event>
 8    1  0.7326756E-052  0.2246720E+04  0.7818608E-02  0.8499230E-01
         -2   -1    0    0    0  501 -0.00000000000E+00  0.00000000000E+00  0.11916180346E+04  0.11916180346E+04  0.25500000000E-02 0. -1.
          2   -1    0    0  501    0  0.00000000000E+00 -0.00000000000E+00 -0.10590121695E+04  0.10590121695E+04  0.25500000000E-02 0.  1.
     200001    2    1    2    0    0  0.47670586085E+03  0.13250695642E+03 -0.73613916917E+03  0.10779011196E+04  0.61250581709E+03 0.  0.
    5000001    2    3    3    0    0  0.14977886416E+03  0.18551468037E+03  0.13488558485E+02  0.25216883245E+03  0.80980084406E+02 0.  0.
        -11    1    4    4    0    0  0.66129527267E+02  0.30261032479E+02  0.84063405134E+01  0.73208681346E+02  0.51100000000E-03 0. -1.
     200002    1    4    4    0    0  0.83649336890E+02  0.15525364789E+03  0.50822179715E+01  0.17896015111E+03  0.30000000000E+02 0. -1.
     200000    1    3    3    0    0  0.32692699669E+03 -0.53007723947E+02 -0.74962772766E+03  0.82573228715E+03  0.10100000000E+03 0.  1.
    -200001    1    1    2    0    0 -0.47670586085E+03 -0.13250695642E+03  0.86874503424E+03  0.11727290846E+04  0.61300000000E+03 0. -1.
<mgrwt>
<rscale>  0 0.22467203E+04</rscale>
<asrwt>0</asrwt>
<pdfrwt beam="1">  1        2 0.15128745E+00 0.22467203E+04</pdfrwt>
<pdfrwt beam="2">  1       -2 0.17023115E+00 0.22467203E+04</pdfrwt>
<totfact> 0.50206068E+00</totfact>
</mgrwt>
</event>
<event>
 8    1  0.7326756E-052  0.1692627E+04  0.7818608E-02  0.8765581E-01
         -2   -1    0    0    0  501 -0.00000000000E+00  0.00000000000E+00  0.74423887126E+03  0.74423887126E+03  0.25500000000E-02 0. -1.
          2   -1    0    0  501    0  0.00000000000E+00 -0.00000000000E+00 -0.96238817765E+03  0.96238817765E+03  0.25500000000E-02 0.  1.
     200001    2    1    2    0    0 -0.18630726982E+03 -0.50953075638E+03  0.10773776146E+03  0.82554625155E+03  0.61285169309E+03 0.  0.
    5000001    2    3    3    0    0  0.47108941640E+02 -0.33209823210E+03 -0.19162718794E+03  0.39451748062E+03  0.80091043245E+02 0.  0.
        -11    1    4    4    0    0  0.49635549917E+02 -0.11055950665E+03 -0.71602609054E+02  0.14076230301E+03  0.51100000000E-03 0. -1.
     200002    1    4    4    0    0 -0.25266082767E+01 -0.22153872545E+03 -0.12002457888E+03  0.25375517760E+03  0.30000000000E+02 0. -1.
     200000    1    3    3    0    0 -0.23341621146E+03 -0.17743252428E+03  0.29936494940E+03  0.43102877093E+03  0.10100000000E+03 0. -1.
    -200001    1    1    2    0    0  0.18630726982E+03  0.50953075638E+03 -0.32588706785E+03  0.88108079736E+03  0.61300000000E+03 0.  1.
<mgrwt>
<rscale>  0 0.16926272E+04</rscale>
<asrwt>0</asrwt>
<pdfrwt beam="1">  1        2 0.13748403E+00 0.16926272E+04</pdfrwt>
<pdfrwt beam="2">  1       -2 0.10631984E+00 0.16926272E+04</pdfrwt>
<totfact> 0.20193349E+01</totfact>
</mgrwt>
</event>
<event>
 8    1  0.7326756E-052  0.1549864E+04  0.7818608E-02  0.8851954E-01
         -2   -1    0    0    0  501 -0.00000000000E+00  0.00000000000E+00  0.34094680331E+03  0.34094680332E+03  0.25500000000E-02 0. -1.
          2   -1    0    0  501    0  0.00000000000E+00 -0.00000000000E+00 -0.17613300942E+04  0.17613300942E+04  0.25500000000E-02 0.  1.
     200001    2    1    2    0    0  0.77114942339E+02  0.41804201645E+03 -0.42588977408E+03  0.85909863322E+03  0.61315782641E+03 0.  0.
    5000001    2    3    3    0    0 -0.42765645275E+02 -0.64114883341E+02 -0.32372757533E+03  0.34190935824E+03  0.78503805895E+02 0.  0.
        -11    1    4    4    0    0 -0.51645153956E+01 -0.23132630993E+02 -0.21382060107E+03  0.21513028675E+03  0.51100000000E-03 0. -1.
     200002    1    4    4    0    0 -0.37601129879E+02 -0.40982252348E+02 -0.10990697426E+03  0.12677907149E+03  0.30000000000E+02 0.  1.
     200000    1    3    3    0    0  0.11988058761E+03  0.48215689979E+03 -0.10216219875E+03  0.51718927498E+03  0.10100000000E+03 0. -1.
    -200001    1    1    2    0    0 -0.77114942339E+02 -0.41804201645E+03 -0.99449351682E+03  0.12431782643E+04  0.61300000000E+03 0.  1.
<mgrwt>
<rscale>  0 0.15498643E+04</rscale>
<asrwt>0</asrwt>
<pdfrwt beam="1">  1        2 0.25161858E+00 0.15498643E+04</pdfrwt>
<pdfrwt beam="2">  1       -2 0.48706687E-01 0.15498643E+04</pdfrwt>
<totfact> 0.41015594E+01</totfact>
</mgrwt>
</event>
<event>
 8    1  0.7326756E-052  0.1794798E+04  0.7818608E-02  0.8709071E-01
          2   -1    0    0  501    0  0.00000000000E+00  0.00000000000E+00  0.11550386083E+04  0.11550386083E+04  0.25500000000E-02 0.  1.
         -2   -1    0    0    0  501 -0.00000000000E+00 -0.00000000000E+00 -0.69722800322E+03  0.69722800323E+03  0.25500000000E-02 0. -1.
     200001    2    1    2    0    0 -0.93701224456E+02  0.23677839971E+03  0.85220993877E+03  0.10801501925E+04  0.61287741724E+03 0.  0.
    5000001    2    3    3    0    0  0.13112760369E+03  0.13736495551E+03  0.77322022308E+03  0.80289325382E+03  0.10346247725E+03 0.  0.
        -11    1    4    4    0    0  0.69460215733E+02  0.17502092465E+02  0.36457808752E+03  0.37154841772E+03  0.51100000000E-03 0. -1.
     200002    1    4    4    0    0  0.61667387954E+02  0.11986286305E+03  0.40864213556E+03  0.43134483610E+03  0.30000000000E+02 0.  1.
     200000    1    3    3    0    0 -0.22482882814E+03  0.99413444204E+02  0.78989715684E+02  0.27725693866E+03  0.10100000000E+03 0. -1.
    -200001    1    1    2    0    0  0.93701224456E+02 -0.23677839971E+03 -0.39439933373E+03  0.77211641900E+03  0.61300000000E+03 0. -1.
<mgrwt>
<rscale>  0 0.17947983E+04</rscale>
<asrwt>0</asrwt>
<pdfrwt beam="1">  1        2 0.16500552E+00 0.17947983E+04</pdfrwt>
<pdfrwt beam="2">  1       -2 0.99604000E-01 0.17947983E+04</pdfrwt>
<totfact> 0.17922003E+01</totfact>
</mgrwt>
</event>
<event>
 8    1  0.7326756E-052  0.2301658E+04  0.7818608E-02  0.8477268E-01
         -2   -1    0    0    0  501 -0.00000000000E+00  0.00000000000E+00  0.73809046963E+03  0.73809046963E+03  0.25500000000E-02 0. -1.
          2   -1    0    0  501    0  0.00000000000E+00 -0.00000000000E+00 -0.17943704264E+04  0.17943704264E+04  0.25500000000E-02 0.  1.
     200001    2    1    2    0    0 -0.21825141847E+03  0.76997159979E+02  0.51238473157E+03  0.83244908762E+03  0.61389830268E+03 0.  0.
    5000001    2    3    3    0    0 -0.61086680681E+02  0.27853751795E+03  0.82048901956E+02  0.32185218502E+03  0.12466785965E+03 0.  0.
        -11    1    4    4    0    0 -0.64340386756E+02  0.56854565563E+02  0.37692296497E+02  0.93770124287E+02  0.51100000000E-03 0. -1.
     200002    1    4    4    0    0  0.32537060753E+01  0.22168295239E+03  0.44356605459E+02  0.22808206074E+03  0.30000000000E+02 0. -1.
     200000    1    3    3    0    0 -0.15716473779E+03 -0.20154035797E+03  0.43033582961E+03  0.51059690260E+03  0.10100000000E+03 0. -1.
    -200001    1    1    2    0    0  0.21825141847E+03 -0.76997159979E+02 -0.15686646884E+04  0.17000118084E+04  0.61300000000E+03 0.  1.
<mgrwt>
<rscale>  0 0.23016583E+04</rscale>
<asrwt>0</asrwt>
<pdfrwt beam="1">  1        2 0.25633863E+00 0.23016583E+04</pdfrwt>
<pdfrwt beam="2">  1       -2 0.10544150E+00 0.23016583E+04</pdfrwt>
<totfact> 0.67948597E+00</totfact>
</mgrwt>
</event>
<event>
 8    1  0.7326756E-052  0.1435646E+04  0.7818608E-02  0.8928413E-01
          2   -1    0    0  501    0  0.00000000000E+00  0.00000000000E+00  0.57436157743E+03  0.57436157744E+03  0.25500000000E-02 0.  1.
         -2   -1    0    0    0  501 -0.00000000000E+00 -0.00000000000E+00 -0.89711782033E+03  0.89711782033E+03  0.25500000000E-02 0. -1.
     200001    2    1    2    0    0 -0.87469797707E+02 -0.13841400705E+03  0.18272011963E+03  0.66025516494E+03  0.61297702881E+03 0.  0.
    5000001    2    3    3    0    0 -0.26786825781E+03 -0.10484034452E+02  0.27805163849E+03  0.39910620211E+03  0.10054714503E+03 0.  0.
        -11    1    4    4    0    0 -0.97220489075E+01  0.71069667061E+01  0.54611189212E+02  0.55923243810E+02  0.51100000000E-03 0. -1.
     200002    1    4    4    0    0 -0.25814620890E+03 -0.17591001158E+02  0.22344044928E+03  0.34318295830E+03  0.30000000000E+02 0. -1.
     200000    1    3    3    0    0  0.18039846010E+03 -0.12792997260E+03 -0.95331518868E+02  0.26114896283E+03  0.10100000000E+03 0. -1.
    -200001    1    1    2    0    0  0.87469797707E+02  0.13841400705E+03 -0.50547636253E+03  0.81122423283E+03  0.61300000000E+03 0.  1.
<mgrwt>
<rscale>  0 0.14356462E+04</rscale>
<asrwt>0</asrwt>
<pdfrwt beam="1">  1        2 0.82051654E-01 0.14356462E+04</pdfrwt>
<pdfrwt beam="2">  1       -2 0.12815969E+00 0.14356462E+04</pdfrwt>
<totfact> 0.25013406E+01</totfact>
</mgrwt>
</event>
<event>
 8    1  0.7326756E-052  0.1830086E+04  0.7818608E-02  0.8690462E-01
          2   -1    0    0  501    0  0.00000000000E+00  0.00000000000E+00  0.16392632350E+04  0.16392632350E+04  0.25500000000E-02 0.  1.
         -2   -1    0    0    0  501 -0.00000000000E+00 -0.00000000000E+00 -0.51078069904E+03  0.51078069905E+03  0.25500000000E-02 0. -1.
     200001    2    1    2    0    0 -0.29290568926E+03  0.20322117256E+03 -0.11523806593E+03  0.71836571484E+03  0.61292487357E+03 0.  0.
    5000001    2    3    3    0    0 -0.29974676763E+03  0.20427653087E+03 -0.31978711836E+03  0.49013506620E+03  0.79947209334E+02 0.  0.
        -11    1    4    4    0    0 -0.19257098447E+03  0.16408496200E+03 -0.21218299441E+03  0.33019552076E+03  0.51100000000E-03 0. -1.
     200002    1    4    4    0    0 -0.10717578316E+03  0.40191568878E+02 -0.10760412395E+03  0.15993954544E+03  0.30000000000E+02 0. -1.
     200000    1    3    3    0    0  0.68410783672E+01 -0.10553583085E+01  0.20454905242E+03  0.22823064865E+03  0.10100000000E+03 0.  1.
    -200001    1    1    2    0    0  0.29290568926E+03 -0.20322117256E+03  0.12437206019E+04  0.14316782192E+04  0.61300000000E+03 0.  1.
<mgrwt>
<rscale>  0 0.18300864E+04</rscale>
<asrwt>0</asrwt>
<pdfrwt beam="1">  1        2 0.23418046E+00 0.18300864E+04</pdfrwt>
<pdfrwt beam="2">  1       -2 0.72968671E-01 0.18300864E+04</pdfrwt>
<totfact> 0.19782305E+01</totfact>
</mgrwt>
</event>
<event>
 8    1  0.7326756E-052  0.2408404E+04  0.7818608E-02  0.8436364E-01
          2   -1    0    0  501    0  0.00000000000E+00  0.00000000000E+00  0.11456009924E+04  0.11456009924E+04  0.25500000000E-02 0.  1.
         -2   -1    0    0    0  501 -0.00000000000E+00 -0.00000000000E+00 -0.12658006228E+04  0.12658006228E+04  0.25500000000E-02 0. -1.
     200001    2    1    2    0    0  0.69046905963E+02  0.92185132050E+03  0.40936556281E+03  0.11822614173E+04  0.61284954317E+03 0.  0.
    5000001    2    3    3    0    0  0.22560655946E+03  0.87980143335E+03  0.29676055679E+03  0.96054086011E+03  0.98097064636E+02 0.  0.
        -11    1    4    4    0    0  0.17913661330E+03  0.67210957551E+03  0.25950814969E+03  0.74240533906E+03  0.51100000000E-03 0. -1.
     200002    1    4    4    0    0  0.46469946154E+02  0.20769185784E+03  0.37252407099E+02  0.21813552105E+03  0.30000000000E+02 0.  1.
     200000    1    3    3    0    0 -0.15655965349E+03  0.42049887151E+02  0.11260500602E+03  0.22172055721E+03  0.10100000000E+03 0. -1.
    -200001    1    1    2    0    0 -0.69046905963E+02 -0.92185132050E+03 -0.52956519318E+03  0.12291401979E+04  0.61300000000E+03 0. -1.
<mgrwt>
<rscale>  0 0.24084040E+04</rscale>
<asrwt>0</asrwt>
<pdfrwt beam="1">  1        2 0.16365729E+00 0.24084040E+04</pdfrwt>
<pdfrwt beam="2">  1       -2 0.18082866E+00 0.24084040E+04</pdfrwt>
<totfact> 0.37135343E+00</totfact>
</mgrwt>
</event>
<event>
 8    1  0.7326756E-052  0.2059047E+04  0.7818608E-02  0.8579501E-01
          2   -1    0    0  501    0  0.00000000000E+00  0.00000000000E+00  0.59861121971E+03  0.59861121971E+03  0.25500000000E-02 0.  1.
         -2   -1    0    0    0  501 -0.00000000000E+00 -0.00000000000E+00 -0.17706288392E+04  0.17706288392E+04  0.25500000000E-02 0. -1.
     200001    2    1    2    0    0 -0.35238500437E+03  0.64929830227E+03 -0.15816287441E+03  0.97301875813E+03  0.61317740679E+03 0.  0.
    5000001    2    3    3    0    0 -0.32132401920E+03  0.72821698660E+03 -0.21690311731E+03  0.82864299952E+03  0.77802014595E+02 0.  0.
        -11    1    4    4    0    0 -0.12929501585E+03  0.36660535820E+03 -0.11984693289E+03  0.40679230218E+03  0.51100000000E-03 0. -1.
     200002    1    4    4    0    0 -0.19202900335E+03  0.36161162840E+03 -0.97056184419E+02  0.42185069735E+03  0.30000000000E+02 0. -1.
     200000    1    3    3    0    0 -0.31060985172E+02 -0.78918684335E+02  0.58740242894E+02  0.14437575860E+03  0.10100000000E+03 0.  1.
    -200001    1    1    2    0    0  0.35238500437E+03 -0.64929830227E+03 -0.10138547451E+04  0.13962213008E+04  0.61300000000E+03 0. -1.
<mgrwt>
<rscale>  0 0.20590467E+04</rscale>
<asrwt>0</asrwt>
<pdfrwt beam="1">  1        2 0.85515890E-01 0.20590467E+04</pdfrwt>
<pdfrwt beam="2">  1       -2 0.25294697E+00 0.20590467E+04</pdfrwt>
<totfact> 0.31115570E+00</totfact>
</mgrwt>
</event>
<event>
 8    1  0.7326756E-052  0.1260348E+04  0.7818608E-02  0.9061614E-01
         -2   -1    0    0    0  501 -0.00000000000E+00  0.00000000000E+00  0.46562802953E+03  0.46562802953E+03  0.25500000000E-02 0. -1.
          2   -1    0    0  501    0  0.00000000000E+00 -0.00000000000E+00 -0.85286801020E+03  0.85286801020E+03  0.25500000000E-02 0.  1.
     200001    2    1    2    0    0  0.76417153675E+02  0.11798939346E+03 -0.23988216089E+03  0.67255145589E+03  0.61238952584E+03 0.  0.
    5000001    2    3    3    0    0 -0.22324448977E+01 -0.21195324010E+03 -0.21915255641E+03  0.31803965454E+03  0.90510878225E+02 0.  0.
        -11    1    4    4    0    0 -0.17760803381E+02 -0.26246024143E+02 -0.72122900050E+02  0.78778249739E+02  0.51100000000E-03 0. -1.
     200002    1    4    4    0    0  0.15528358483E+02 -0.18570721596E+03 -0.14702965636E+03  0.23926140480E+03  0.30000000000E+02 0. -1.
     200000    1    3    3    0    0  0.78649598573E+02  0.32994263356E+03 -0.20729604478E+02  0.35451180136E+03  0.10100000000E+03 0. -1.
    -200001    1    1    2    0    0 -0.76417153675E+02 -0.11798939346E+03 -0.14735781979E+03  0.64594458384E+03  0.61300000000E+03 0. -1.
<mgrwt>
<rscale>  0 0.12603480E+04</rscale>
<asrwt>0</asrwt>
<pdfrwt beam="1">  1        2 0.12183829E+00 0.12603480E+04</pdfrwt>
<pdfrwt beam="2">  1       -2 0.66518290E-01 0.12603480E+04</pdfrwt>
<totfact> 0.71433977E+01</totfact>
</mgrwt>
</event>
<event>
 8    1  0.7326756E-052  0.1422010E+04  0.7818608E-02  0.8938039E-01
         -2   -1    0    0    0  501 -0.00000000000E+00  0.00000000000E+00  0.56039597083E+03  0.56039597084E+03  0.25500000000E-02 0. -1.
          2   -1    0    0  501    0  0.00000000000E+00 -0.00000000000E+00 -0.90209082930E+03  0.90209082931E+03  0.25500000000E-02 0.  1.
     200001    2    1    2    0    0  0.11627621743E+03 -0.23025670223E+03 -0.42994058401E+03  0.79159588820E+03  0.61256578159E+03 0.  0.
    5000001    2    3    3    0    0  0.37734281485E+02  0.96456986968E+02 -0.42170331709E+03  0.44062648358E+03  0.74767533433E+02 0.  0.
        -11    1    4    4    0    0  0.44935792453E+02  0.48921287977E+02 -0.28506920576E+03  0.29270628612E+03  0.51100000000E-03 0. -1.
     200002    1    4    4    0    0 -0.72015109681E+01  0.47535698991E+02 -0.13663411133E+03  0.14792019747E+03  0.30000000000E+02 0. -1.
     200000    1    3    3    0    0  0.78541935942E+02 -0.32671368919E+03 -0.82372669194E+01  0.35096940461E+03  0.10100000000E+03 0. -1.
    -200001    1    1    2    0    0 -0.11627621743E+03  0.23025670223E+03  0.88245725534E+02  0.67089091195E+03  0.61300000000E+03 0. -1.
<mgrwt>
<rscale>  0 0.14220099E+04</rscale>
<asrwt>0</asrwt>
<pdfrwt beam="1">  1        2 0.12887012E+00 0.14220099E+04</pdfrwt>
<pdfrwt beam="2">  1       -2 0.80056567E-01 0.14220099E+04</pdfrwt>
<totfact> 0.43554298E+01</totfact>
</mgrwt>
</event>
<event>
 8    1  0.7326756E-052  0.1314227E+04  0.7818608E-02  0.9018358E-01
         -2   -1    0    0    0  501 -0.00000000000E+00  0.00000000000E+00  0.22844587476E+03  0.22844587477E+03  0.25500000000E-02 0. -1.
          2   -1    0    0  501    0  0.00000000000E+00 -0.00000000000E+00 -0.18901553757E+04  0.18901553757E+04  0.25500000000E-02 0.  1.
     200001    2    1    2    0    0  0.42308730092E+02  0.19838012142E+02 -0.45749785465E+03  0.76653680510E+03  0.61326243257E+03 0.  0.
    5000001    2    3    3    0    0 -0.20965750559E+03  0.97646211277E+02 -0.40667821527E+03  0.47961393127E+03  0.10559971625E+03 0.  0.
        -11    1    4    4    0    0  0.16096144256E+01 -0.13420893470E+02 -0.25828564671E+02  0.29151775132E+02  0.51100000000E-03 0. -1.
     200002    1    4    4    0    0 -0.21126712002E+03  0.11106710475E+03 -0.38084965059E+03  0.45046215614E+03  0.30000000000E+02 0. -1.
     200000    1    3    3    0    0  0.25196623568E+03 -0.77808199135E+02 -0.50819639380E+02  0.28692287383E+03  0.10100000000E+03 0.  1.
    -200001    1    1    2    0    0 -0.42308730092E+02 -0.19838012142E+02 -0.12042116463E+04  0.13520644454E+04  0.61300000000E+03 0.  1.
<mgrwt>
<rscale>  0 0.13142271E+04</rscale>
<asrwt>0</asrwt>
<pdfrwt beam="1">  1        2 0.27002219E+00 0.13142271E+04</pdfrwt>
<pdfrwt beam="2">  1       -2 0.32635126E-01 0.13142271E+04</pdfrwt>
<totfact> 0.78378144E+01</totfact>
</mgrwt>
</event>
<event>
 8    1  0.7326756E-052  0.1407108E+04  0.7818608E-02  0.8948689E-01
         -2   -1    0    0    0  501 -0.00000000000E+00  0.00000000000E+00  0.21426064482E+03  0.21426064484E+03  0.25500000000E-02 0. -1.
          2   -1    0    0  501    0  0.00000000000E+00 -0.00000000000E+00 -0.23102159192E+04  0.23102159192E+04  0.25500000000E-02 0.  1.
     200001    2    1    2    0    0 -0.11810967214E+03 -0.28940070881E+03 -0.79196106212E+03  0.10500707276E+04  0.61460844783E+03 0.  0.
    5000001    2    3    3    0    0 -0.20233368508E+03 -0.29441433341E+03 -0.43950014707E+03  0.67384138608E+03  0.36507960019E+03 0.  0.
        -11    1    4    4    0    0  0.26282602490E+02 -0.39734847512E+02  0.54333142422E+02  0.72261495045E+02  0.51100000000E-03 0. -1.
     200002    1    4    4    0    0 -0.22861628757E+03 -0.25467948590E+03 -0.49383328949E+03  0.60157989103E+03  0.30000000000E+02 0. -1.
     200000    1    3    3    0    0  0.84224012947E+02  0.50136246010E+01 -0.35246091505E+03  0.37622934153E+03  0.10100000000E+03 0.  1.
    -200001    1    1    2    0    0  0.11810967214E+03  0.28940070881E+03 -0.13039942122E+04  0.14744058364E+04  0.61300000000E+03 0. -1.
<mgrwt>
<rscale>  0 0.14071082E+04</rscale>
<asrwt>0</asrwt>
<pdfrwt beam="1">  1        2 0.33003083E+00 0.14071082E+04</pdfrwt>
<pdfrwt beam="2">  1       -2 0.30608665E-01 0.14071082E+04</pdfrwt>
<totfact> 0.53374195E+01</totfact>
</mgrwt>
</event>
<event>
 8    1  0.7326756E-052  0.1651757E+04  0.7818608E-02  0.8789368E-01
          2   -1    0    0  501    0  0.00000000000E+00  0.00000000000E+00  0.39684097631E+03  0.39684097632E+03  0.25500000000E-02 0.  1.
         -2   -1    0    0    0  501 -0.00000000000E+00 -0.00000000000E+00 -0.17187622262E+04  0.17187622262E+04  0.25500000000E-02 0. -1.
     200001    2    1    2    0    0 -0.17585736265E+03 -0.44838664933E+03 -0.31200298488E+03  0.83979745662E+03  0.61313742855E+03 0.  0.
    5000001    2    3    3    0    0  0.14433735581E+03 -0.38373480098E+03 -0.26819104771E+03  0.49508742621E+03  0.71410445710E+02 0.  0.
        -11    1    4    4    0    0  0.51486174657E+02 -0.65762351538E+02 -0.56139763144E+02  0.10063392105E+03  0.51100000000E-03 0. -1.
     200002    1    4    4    0    0  0.92851181154E+02 -0.31797244944E+03 -0.21205128457E+03  0.39445350516E+03  0.30000000000E+02 0. -1.
     200000    1    3    3    0    0 -0.32019471846E+03 -0.64651848348E+02 -0.43811937166E+02  0.34471003041E+03  0.10100000000E+03 0. -1.
    -200001    1    1    2    0    0  0.17585736265E+03  0.44838664933E+03 -0.10099182650E+04  0.12758057459E+04  0.61300000000E+03 0.  1.
<mgrwt>
<rscale>  0 0.16517570E+04</rscale>
<asrwt>0</asrwt>
<pdfrwt beam="1">  1        2 0.56691569E-01 0.16517570E+04</pdfrwt>
<pdfrwt beam="2">  1       -2 0.24553746E+00 0.16517570E+04</pdfrwt>
<totfact> 0.57193418E+00</totfact>
</mgrwt>
</event>
<event>
 8    1  0.7326756E-052  0.1745222E+04  0.7818608E-02  0.8735985E-01
          2   -1    0    0  501    0  0.00000000000E+00  0.00000000000E+00  0.13857316677E+04  0.13857316677E+04  0.25500000000E-02 0.  1.
         -2   -1    0    0    0  501 -0.00000000000E+00 -0.00000000000E+00 -0.54949321325E+03  0.54949321325E+03  0.25500000000E-02 0. -1.
     200001    2    1    2    0    0  0.45720779587E+03  0.97841949197E+02 -0.39816805747E+02  0.76823994765E+03  0.60827232677E+03 0.  0.
    5000001    2    3    3    0    0  0.15777611992E+03  0.31047760739E+03  0.85009111667E+02  0.36742108413E+03  0.80511212194E+02 0.  0.
        -11    1    4    4    0    0  0.80534339612E+02  0.21714950203E+03  0.41779023888E+02  0.23534054671E+03  0.51100000000E-03 0. -1.
     200002    1    4    4    0    0  0.77241780309E+02  0.93328105354E+02  0.43230087779E+02  0.13208053741E+03  0.30000000000E+02 0.  1.
     200000    1    3    3    0    0  0.29943167595E+03 -0.21263565819E+03 -0.12482591741E+03  0.40081886352E+03  0.10100000000E+03 0. -1.
    -200001    1    1    2    0    0 -0.45720779587E+03 -0.97841949197E+02  0.87605526020E+03  0.11669849333E+04  0.61300000000E+03 0.  1.
<mgrwt>
<rscale>  0 0.17452222E+04</rscale>
<asrwt>0</asrwt>
<pdfrwt beam="1">  1        2 0.19796167E+00 0.17452222E+04</pdfrwt>
<pdfrwt beam="2">  1       -2 0.78499030E-01 0.17452222E+04</pdfrwt>
<totfact> 0.23102443E+01</totfact>
</mgrwt>
</event>
<event>
 8    1  0.7326756E-052  0.2396479E+04  0.7818608E-02  0.8440823E-01
          2   -1    0    0  501    0  0.00000000000E+00  0.00000000000E+00  0.53248547463E+03  0.53248547463E+03  0.25500000000E-02 0.  1.
         -2   -1    0    0    0  501 -0.00000000000E+00 -0.00000000000E+00 -0.26963709417E+04  0.26963709417E+04  0.25500000000E-02 0. -1.
     200001    2    1    2    0    0  0.45370664282E+03 -0.18967459747E+03 -0.23007439546E+04  0.24311563372E+04  0.61259466242E+03 0.  0.
    5000001    2    3    3    0    0 -0.82628542591E+02 -0.11854794270E+03 -0.28642267085E+03  0.34299789817E+03  0.12136111819E+03 0.  0.
        -11    1    4    4    0    0 -0.16178871127E+02  0.13176762355E+02 -0.17182373806E+01  0.20936458083E+02  0.51100000000E-03 0. -1.
     200002    1    4    4    0    0 -0.66449671463E+02 -0.13172470505E+03 -0.28470443347E+03  0.32206144009E+03  0.30000000000E+02 0. -1.
     200000    1    3    3    0    0  0.53633518541E+03 -0.71126654771E+02 -0.20143212838E+04  0.20881584390E+04  0.10100000000E+03 0. -1.
    -200001    1    1    2    0    0 -0.45370664282E+03  0.18967459747E+03  0.13685848755E+03  0.79770007915E+03  0.61300000000E+03 0.  1.
<mgrwt>
<rscale>  0 0.23964794E+04</rscale>
<asrwt>0</asrwt>
<pdfrwt beam="1">  1        2 0.76069355E-01 0.23964794E+04</pdfrwt>
<pdfrwt beam="2">  1       -2 0.38519584E+00 0.23964794E+04</pdfrwt>
<totfact> 0.52300580E-01</totfact>
</mgrwt>
</event>
<event>
 8    1  0.7326756E-052  0.1727595E+04  0.7818608E-02  0.8745781E-01
          2   -1    0    0  501    0  0.00000000000E+00  0.00000000000E+00  0.38788770270E+04  0.38788770270E+04  0.25500000000E-02 0.  1.
         -2   -1    0    0    0  501 -0.00000000000E+00 -0.00000000000E+00 -0.19236131084E+03  0.19236131086E+03  0.25500000000E-02 0. -1.
     200001    2    1    2    0    0  0.23897994312E+03  0.55945164622E+03  0.17919189538E+04  0.19890847773E+04  0.61268846630E+03 0.  0.
    5000001    2    3    3    0    0 -0.89518590419E+02  0.17270484221E+03  0.15816664444E+03  0.27536601823E+03  0.11388246585E+03 0.  0.
        -11    1    4    4    0    0 -0.28321822843E+02  0.15110328435E+03  0.11302993938E+03  0.19081429555E+03  0.51100000000E-03 0. -1.
     200002    1    4    4    0    0 -0.61196767576E+02  0.21601557855E+02  0.45136705067E+02  0.84551722678E+02  0.30000000000E+02 0. -1.
     200000    1    3    3    0    0  0.32849853354E+03  0.38674680401E+03  0.16337523093E+04  0.17137187591E+04  0.10100000000E+03 0.  1.
    -200001    1    1    2    0    0 -0.23897994312E+03 -0.55945164622E+03  0.18945967624E+04  0.20821535605E+04  0.61300000000E+03 0.  1.
<mgrwt>
<rscale>  0 0.17275947E+04</rscale>
<asrwt>0</asrwt>
<pdfrwt beam="1">  1        2 0.55412527E+00 0.17275947E+04</pdfrwt>
<pdfrwt beam="2">  1       -2 0.27480188E-01 0.17275947E+04</pdfrwt>
<totfact> 0.79856116E+00</totfact>
</mgrwt>
</event>
<event>
 8    1  0.7326756E-052  0.2960057E+04  0.7818608E-02  0.8255230E-01
          2   -1    0    0  501    0  0.00000000000E+00  0.00000000000E+00  0.14646486651E+04  0.14646486651E+04  0.25500000000E-02 0.  1.
         -2   -1    0    0    0  501 -0.00000000000E+00 -0.00000000000E+00 -0.14955697185E+04  0.14955697185E+04  0.25500000000E-02 0. -1.
     200001    2    1    2    0    0 -0.66890066032E+03  0.53593483504E+03 -0.10548977778E+04  0.14908812633E+04  0.61258744581E+03 0.  0.
    5000001    2    3    3    0    0 -0.10637361392E+03 -0.11045280676E+03 -0.12637069579E+03  0.22335721875E+03  0.10199865760E+03 0.  0.
        -11    1    4    4    0    0 -0.36077508050E+02 -0.91104318467E+02 -0.10054177175E+03  0.14039313123E+03  0.51100000000E-03 0. -1.
     200002    1    4    4    0    0 -0.70296105871E+02 -0.19348488296E+02 -0.25828924041E+02  0.82964087515E+02  0.30000000000E+02 0. -1.
     200000    1    3    3    0    0 -0.56252704640E+03  0.64638764181E+03 -0.92852708204E+03  0.12675240445E+04  0.10100000000E+03 0.  1.
    -200001    1    1    2    0    0  0.66890066032E+03 -0.53593483504E+03  0.10239767245E+04  0.14693371203E+04  0.61300000000E+03 0.  1.
<mgrwt>
<rscale>  0 0.29600569E+04</rscale>
<asrwt>0</asrwt>
<pdfrwt beam="1">  1        2 0.20923552E+00 0.29600569E+04</pdfrwt>
<pdfrwt beam="2">  1       -2 0.21365282E+00 0.29600569E+04</pdfrwt>
<totfact> 0.14332350E+00</totfact>
</mgrwt>
</event>
<event>
 8    1  0.7326756E-052  0.1441423E+04  0.7818608E-02  0.8924369E-01
         -2   -1    0    0    0  501 -0.00000000000E+00  0.00000000000E+00  0.36579911199E+03  0.36579911200E+03  0.25500000000E-02 0. -1.
          2   -1    0    0  501    0  0.00000000000E+00 -0.00000000000E+00 -0.14199728936E+04  0.14199728936E+04  0.25500000000E-02 0.  1.
     200001    2    1    2    0    0 -0.78494205877E+02  0.36573310785E+03 -0.59039158499E+03  0.93091238412E+03  0.61490942158E+03 0.  0.
    5000001    2    3    3    0    0  0.33430100289E+02  0.49459097605E+03 -0.32051210756E+03  0.59599846556E+03  0.82148369847E+02 0.  0.
        -11    1    4    4    0    0  0.37627617313E+02  0.17496558524E+03 -0.14338933974E+03  0.22932356258E+03  0.51100000000E-03 0. -1.
     200002    1    4    4    0    0 -0.41975170243E+01  0.31962539080E+03 -0.17712276782E+03  0.36667490298E+03  0.30000000000E+02 0. -1.
     200000    1    3    3    0    0 -0.11192430617E+03 -0.12885786820E+03 -0.26987947743E+03  0.33491391856E+03  0.10100000000E+03 0. -1.
    -200001    1    1    2    0    0  0.78494205877E+02 -0.36573310785E+03 -0.46378219660E+03  0.85485962147E+03  0.61300000000E+03 0.  1.
<mgrwt>
<rscale>  0 0.14414227E+04</rscale>
<asrwt>0</asrwt>
<pdfrwt beam="1">  1        2 0.20285327E+00 0.14414227E+04</pdfrwt>
<pdfrwt beam="2">  1       -2 0.52257017E-01 0.14414227E+04</pdfrwt>
<totfact> 0.54187251E+01</totfact>
</mgrwt>
</event>
<event>
 8    1  0.7326756E-052  0.1382700E+04  0.7818608E-02  0.8966437E-01
          2   -1    0    0  501    0  0.00000000000E+00  0.00000000000E+00  0.12105505528E+04  0.12105505528E+04  0.25500000000E-02 0.  1.
         -2   -1    0    0    0  501 -0.00000000000E+00 -0.00000000000E+00 -0.39483255893E+03  0.39483255894E+03  0.25500000000E-02 0. -1.
     200001    2    1    2    0    0  0.25235889287E+03  0.19303247599E+03  0.34927582757E+03  0.77214614538E+03  0.61095786967E+03 0.  0.
    5000001    2    3    3    0    0 -0.98263982045E+01 -0.15827589977E+03  0.20139358468E+02  0.21474995144E+03  0.14340198511E+03 0.  0.
        -11    1    4    4    0    0 -0.42960871909E+02 -0.14853397796E+03 -0.17365454325E+02  0.15559414555E+03  0.51100000000E-03 0. -1.
     200002    1    4    4    0    0  0.33134473704E+02 -0.97419218084E+01  0.37504812792E+02  0.59155805892E+02  0.30000000000E+02 0. -1.
     200000    1    3    3    0    0  0.26218529107E+03  0.35130837576E+03  0.32913646910E+03  0.55739619394E+03  0.10100000000E+03 0.  1.
    -200001    1    1    2    0    0 -0.25235889287E+03 -0.19303247599E+03  0.46644216630E+03  0.83323696635E+03  0.61300000000E+03 0. -1.
<mgrwt>
<rscale>  0 0.13826999E+04</rscale>
<asrwt>0</asrwt>
<pdfrwt beam="1">  1        2 0.17293579E+00 0.13826999E+04</pdfrwt>
<pdfrwt beam="2">  1       -2 0.56404651E-01 0.13826999E+04</pdfrwt>
<totfact> 0.60644776E+01</totfact>
</mgrwt>
</event>
<event>
 8    1  0.7326756E-052  0.1553474E+04  0.7818608E-02  0.8849652E-01
         -2   -1    0    0    0  501 -0.00000000000E+00  0.00000000000E+00  0.34872247016E+03  0.34872247016E+03  0.25500000000E-02 0. -1.
          2   -1    0    0  501    0  0.00000000000E+00 -0.00000000000E+00 -0.17300865639E+04  0.17300865639E+04  0.25500000000E-02 0.  1.
     200001    2    1    2    0    0 -0.19931102213E+03  0.39353405436E+03 -0.44800414449E+03  0.87817431429E+03  0.61309744519E+03 0.  0.
    5000001    2    3    3    0    0 -0.91059515617E+02  0.44652793475E+03 -0.52830741454E+03  0.70160604080E+03  0.73914006253E+02 0.  0.
        -11    1    4    4    0    0 -0.55515234677E+02  0.14623784880E+03 -0.15434024943E+03  0.21974613147E+03  0.51100000000E-03 0. -1.
     200002    1    4    4    0    0 -0.35544280940E+02  0.30029008595E+03 -0.37396716512E+03  0.48185990932E+03  0.30000000000E+02 0. -1.
     200000    1    3    3    0    0 -0.10825150652E+03 -0.52993880392E+02  0.80303270052E+02  0.17656827349E+03  0.10100000000E+03 0. -1.
    -200001    1    1    2    0    0  0.19931102213E+03 -0.39353405436E+03 -0.93335994927E+03  0.12006347198E+04  0.61300000000E+03 0. -1.
<mgrwt>
<rscale>  0 0.15534736E+04</rscale>
<asrwt>0</asrwt>
<pdfrwt beam="1">  1        2 0.24715522E+00 0.15534736E+04</pdfrwt>
<pdfrwt beam="2">  1       -2 0.49817497E-01 0.15534736E+04</pdfrwt>
<totfact> 0.40655924E+01</totfact>
</mgrwt>
</event>
<event>
 8    1  0.7326756E-052  0.1287190E+04  0.7818608E-02  0.9039785E-01
         -2   -1    0    0    0  501 -0.00000000000E+00  0.00000000000E+00  0.76221707653E+03  0.76221707654E+03  0.25500000000E-02 0. -1.
          2   -1    0    0  501    0  0.00000000000E+00 -0.00000000000E+00 -0.54343418490E+03  0.54343418490E+03  0.25500000000E-02 0.  1.
     200001    2    1    2    0    0 -0.82181896014E+02 -0.17610474292E+03  0.12902614369E+03  0.65635008455E+03  0.61349893498E+03 0.  0.
    5000001    2    3    3    0    0 -0.27148474714E+03 -0.14219160466E+03 -0.82917230145E+02  0.35285928715E+03  0.15398697708E+03 0.  0.
        -11    1    4    4    0    0 -0.16860107109E+03 -0.66756066048E+01 -0.24628509721E+02  0.17052110833E+03  0.51100000000E-03 0. -1.
     200002    1    4    4    0    0 -0.10288367605E+03 -0.13551599805E+03 -0.58288720425E+02  0.18233817882E+03  0.30000000000E+02 0. -1.
     200000    1    3    3    0    0  0.18930285112E+03 -0.33913138266E+02  0.21194337384E+03  0.30349079740E+03  0.10100000000E+03 0.  1.
    -200001    1    1    2    0    0  0.82181896014E+02  0.17610474292E+03  0.89756747941E+02  0.64930117689E+03  0.61300000000E+03 0.  1.
<mgrwt>
<rscale>  0 0.12871905E+04</rscale>
<asrwt>0</asrwt>
<pdfrwt beam="1">  1        2 0.77633455E-01 0.12871905E+04</pdfrwt>
<pdfrwt beam="2">  1       -2 0.10888815E+00 0.12871905E+04</pdfrwt>
<totfact> 0.40332694E+01</totfact>
</mgrwt>
</event>
<event>
 8    1  0.7326756E-052  0.1399242E+04  0.7818608E-02  0.8954368E-01
         -2   -1    0    0    0  501 -0.00000000000E+00  0.00000000000E+00  0.20369887195E+03  0.20369887197E+03  0.25500000000E-02 0. -1.
          2   -1    0    0  501    0  0.00000000000E+00 -0.00000000000E+00 -0.24029065271E+04  0.24029065271E+04  0.25500000000E-02 0.  1.
     200001    2    1    2    0    0  0.25747753997E+03 -0.12222597821E+03 -0.14350273720E+04  0.15863238799E+04  0.61309544119E+03 0.  0.
    5000001    2    3    3    0    0  0.24073549516E+03  0.17010740996E+03 -0.37336549279E+03  0.48040071267E+03  0.67029426159E+02 0.  0.
        -11    1    4    4    0    0  0.37711545225E+02  0.55871093486E+02 -0.81725611410E+02  0.10593778972E+03  0.51100000000E-03 0. -1.
     200002    1    4    4    0    0  0.20302394994E+03  0.11423631647E+03 -0.29163988138E+03  0.37446292294E+03  0.30000000000E+02 0. -1.
     200000    1    3    3    0    0  0.16742044803E+02 -0.29233338817E+03 -0.10616618792E+04  0.11059231672E+04  0.10100000000E+03 0.  1.
    -200001    1    1    2    0    0 -0.25747753997E+03  0.12222597821E+03 -0.76418028314E+03  0.10202815192E+04  0.61300000000E+03 0. -1.
<mgrwt>
<rscale>  0 0.13992417E+04</rscale>
<asrwt>0</asrwt>
<pdfrwt beam="1">  1        2 0.34327234E+00 0.13992417E+04</pdfrwt>
<pdfrwt beam="2">  1       -2 0.29099840E-01 0.13992417E+04</pdfrwt>
<totfact> 0.52521852E+01</totfact>
</mgrwt>
</event>
<event>
 8    1  0.7326756E-052  0.1387667E+04  0.7818608E-02  0.8962795E-01
         -2   -1    0    0    0  501 -0.00000000000E+00  0.00000000000E+00  0.88932545602E+03  0.88932545603E+03  0.25500000000E-02 0. -1.
          2   -1    0    0  501    0  0.00000000000E+00 -0.00000000000E+00 -0.54131432502E+03  0.54131432502E+03  0.25500000000E-02 0.  1.
     200001    2    1    2    0    0  0.19549097713E+03 -0.22677743780E+03  0.43754799336E+02  0.68365541455E+03  0.61304609529E+03 0.  0.
    5000001    2    3    3    0    0  0.21655052065E+03  0.16118143983E+03  0.44370521858E+02  0.28221180180E+03  0.69290499543E+02 0.  0.
        -11    1    4    4    0    0  0.93649009167E+01 -0.11363155236E+01  0.12113252373E+02  0.15353288425E+02  0.51100000000E-03 0. -1.
     200002    1    4    4    0    0  0.20718561973E+03  0.16231775536E+03  0.32257269485E+02  0.26685851338E+03  0.30000000000E+02 0. -1.
     200000    1    3    3    0    0 -0.21059543516E+02 -0.38795887763E+03 -0.61572252168E+00  0.40144361275E+03  0.10100000000E+03 0. -1.
    -200001    1    1    2    0    0 -0.19549097713E+03  0.22677743780E+03  0.30425633167E+03  0.74698436650E+03  0.61300000000E+03 0. -1.
<mgrwt>
<rscale>  0 0.13876665E+04</rscale>
<asrwt>0</asrwt>
<pdfrwt beam="1">  1        2 0.77330619E-01 0.13876665E+04</pdfrwt>
<pdfrwt beam="2">  1       -2 0.12704649E+00 0.13876665E+04</pdfrwt>
<totfact> 0.27499186E+01</totfact>
</mgrwt>
</event>
<event>
 8    1  0.7326756E-052  0.1529500E+04  0.7818608E-02  0.8865069E-01
          2   -1    0    0  501    0  0.00000000000E+00  0.00000000000E+00  0.28732192895E+04  0.28732192895E+04  0.25500000000E-02 0.  1.
         -2   -1    0    0    0  501 -0.00000000000E+00 -0.00000000000E+00 -0.20354968227E+03  0.20354968229E+03  0.25500000000E-02 0. -1.
     200001    2    1    2    0    0 -0.22502574304E+03 -0.38542409883E+03  0.15368384073E+04  0.17135874547E+04  0.61263476377E+03 0.  0.
    5000001    2    3    3    0    0  0.16726022158E+03 -0.28193802546E+03  0.70262979735E+03  0.78047296530E+03  0.89355388855E+02 0.  0.
        -11    1    4    4    0    0  0.12187270441E+03 -0.22952868768E+03  0.59179738648E+03  0.64634396508E+03  0.51100000000E-03 0. -1.
     200002    1    4    4    0    0  0.45387517168E+02 -0.52409337779E+02  0.11083241087E+03  0.13412900022E+03  0.30000000000E+02 0.  1.
     200000    1    3    3    0    0 -0.39228596462E+03 -0.10348607337E+03  0.83420860996E+03  0.93311448941E+03  0.10100000000E+03 0. -1.
    -200001    1    1    2    0    0  0.22502574304E+03  0.38542409883E+03  0.11328311999E+04  0.13631815171E+04  0.61300000000E+03 0.  1.
<mgrwt>
<rscale>  0 0.15295004E+04</rscale>
<asrwt>0</asrwt>
<pdfrwt beam="1">  1        2 0.41045989E+00 0.15295004E+04</pdfrwt>
<pdfrwt beam="2">  1       -2 0.29078527E-01 0.15295004E+04</pdfrwt>
<totfact> 0.29218234E+01</totfact>
</mgrwt>
</event>
<event>
 8    1  0.7326756E-052  0.1265469E+04  0.7818608E-02  0.9057406E-01
          2   -1    0    0  501    0  0.00000000000E+00  0.00000000000E+00  0.19087791581E+04  0.19087791581E+04  0.25500000000E-02 0.  1.
         -2   -1    0    0    0  501 -0.00000000000E+00 -0.00000000000E+00 -0.20974285262E+03  0.20974285263E+03  0.25500000000E-02 0. -1.
     200001    2    1    2    0    0  0.13824358840E+03 -0.65373380641E+02  0.92397935669E+03  0.11185883917E+04  0.61165118310E+03 0.  0.
    5000001    2    3    3    0    0  0.25570837731E+03  0.12860147252E+03  0.73651446957E+03  0.80751234922E+03  0.16642571106E+03 0.  0.
        -11    1    4    4    0    0  0.21185135903E+03  0.16337444733E+03  0.58906467590E+03  0.64696939708E+03  0.51100000000E-03 0. -1.
     200002    1    4    4    0    0  0.43857018280E+02 -0.34772974812E+02  0.14744979367E+03  0.16054295215E+03  0.30000000000E+02 0.  1.
     200000    1    3    3    0    0 -0.11746478890E+03 -0.19397485316E+03  0.18746488712E+03  0.31107604246E+03  0.10100000000E+03 0.  1.
    -200001    1    1    2    0    0 -0.13824358840E+03  0.65373380641E+02  0.77505694879E+03  0.99993361905E+03  0.61300000000E+03 0. -1.
<mgrwt>
<rscale>  0 0.12654687E+04</rscale>
<asrwt>0</asrwt>
<pdfrwt beam="1">  1        2 0.27268274E+00 0.12654687E+04</pdfrwt>
<pdfrwt beam="2">  1       -2 0.29963264E-01 0.12654687E+04</pdfrwt>
<totfact> 0.90307276E+01</totfact>
</mgrwt>
</event>
<event>
 8    1  0.7326756E-052  0.1317187E+04  0.7818608E-02  0.9016045E-01
         -2   -1    0    0    0  501 -0.00000000000E+00  0.00000000000E+00  0.51681906002E+03  0.51681906003E+03  0.25500000000E-02 0. -1.
          2   -1    0    0  501    0  0.00000000000E+00 -0.00000000000E+00 -0.83926013065E+03  0.83926013065E+03  0.25500000000E-02 0.  1.
     200001    2    1    2    0    0  0.30005812887E+01  0.21214179146E+03 -0.27985759643E+03  0.70600573680E+03  0.61246280127E+03 0.  0.
    5000001    2    3    3    0    0 -0.17139828278E+03 -0.60488441390E+02 -0.30345432571E+03  0.36615280789E+03  0.94589259702E+02 0.  0.
        -11    1    4    4    0    0 -0.14502780957E+03 -0.17895823712E+02 -0.20651221241E+03  0.25298343806E+03  0.51100000000E-03 0. -1.
     200002    1    4    4    0    0 -0.26370473215E+02 -0.42592617678E+02 -0.96942113299E+02  0.11316936984E+03  0.30000000000E+02 0.  1.
     200000    1    3    3    0    0  0.17439886407E+03  0.27263023285E+03  0.23596729285E+02  0.33985292890E+03  0.10100000000E+03 0. -1.
    -200001    1    1    2    0    0 -0.30005812887E+01 -0.21214179146E+03 -0.42583474201E+02  0.65007345388E+03  0.61300000000E+03 0.  1.
<mgrwt>
<rscale>  0 0.13171874E+04</rscale>
<asrwt>0</asrwt>
<pdfrwt beam="1">  1        2 0.11989430E+00 0.13171874E+04</pdfrwt>
<pdfrwt beam="2">  1       -2 0.73831294E-01 0.13171874E+04</pdfrwt>
<totfact> 0.57880026E+01</totfact>
</mgrwt>
</event>
<event>
 8    1  0.7326756E-052  0.2085285E+04  0.7818608E-02  0.8567753E-01
          2   -1    0    0  501    0  0.00000000000E+00  0.00000000000E+00  0.18759180250E+04  0.18759180250E+04  0.25500000000E-02 0.  1.
         -2   -1    0    0    0  501 -0.00000000000E+00 -0.00000000000E+00 -0.57950462370E+03  0.57950462371E+03  0.25500000000E-02 0. -1.
     200001    2    1    2    0    0  0.16088151177E+03  0.82657963121E+03  0.68062824807E+03  0.12454321105E+04  0.61541009274E+03 0.  0.
    5000001    2    3    3    0    0  0.29712685108E+03  0.55358607388E+03  0.41221499720E+03  0.82670194910E+03  0.34463459184E+03 0.  0.
        -11    1    4    4    0    0  0.33962351722E+03  0.55263294352E+03  0.32589892876E+03  0.72591832563E+03  0.51100000000E-03 0. -1.
     200002    1    4    4    0    0 -0.42496666131E+02  0.95313036063E+00  0.86316068435E+02  0.10078362347E+03  0.30000000000E+02 0. -1.
     200000    1    3    3    0    0 -0.13624533932E+03  0.27299355733E+03  0.26841325088E+03  0.41873016141E+03  0.10100000000E+03 0. -1.
    -200001    1    1    2    0    0 -0.16088151177E+03 -0.82657963121E+03  0.61578515318E+03  0.12099905382E+04  0.61300000000E+03 0.  1.
<mgrwt>
<rscale>  0 0.20852848E+04</rscale>
<asrwt>0</asrwt>
<pdfrwt beam="1">  1        2 0.26798829E+00 0.20852848E+04</pdfrwt>
<pdfrwt beam="2">  1       -2 0.82786376E-01 0.20852848E+04</pdfrwt>
<totfact> 0.11021298E+01</totfact>
</mgrwt>
</event>
<event>
 8    1  0.7326756E-052  0.1440134E+04  0.7818608E-02  0.8925269E-01
         -2   -1    0    0    0  501 -0.00000000000E+00  0.00000000000E+00  0.14139999405E+03  0.14139999408E+03  0.25500000000E-02 0. -1.
          2   -1    0    0  501    0  0.00000000000E+00 -0.00000000000E+00 -0.36668781999E+04  0.36668781999E+04  0.25500000000E-02 0.  1.
     200001    2    1    2    0    0  0.21204879980E+03 -0.10679420169E+03 -0.98723040789E+03  0.11862864742E+04  0.61341831199E+03 0.  0.
    5000001    2    3    3    0    0 -0.83230091423E+02 -0.28186539580E+03 -0.43508077890E+03  0.52832769170E+03  0.58817651964E+02 0.  0.
        -11    1    4    4    0    0 -0.52483535189E+02 -0.10900442355E+03 -0.15942363643E+03  0.20013091133E+03  0.51100000000E-03 0. -1.
     200002    1    4    4    0    0 -0.30746556234E+02 -0.17286097225E+03 -0.27565714247E+03  0.32819678036E+03  0.30000000000E+02 0.  1.
     200000    1    3    3    0    0  0.29527889122E+03  0.17507119412E+03 -0.55214962900E+03  0.65795878245E+03  0.10100000000E+03 0.  1.
    -200001    1    1    2    0    0 -0.21204879980E+03  0.10679420169E+03 -0.25382477979E+04  0.26219917198E+04  0.61300000000E+03 0.  1.
<mgrwt>
<rscale>  0 0.14401341E+04</rscale>
<asrwt>0</asrwt>
<pdfrwt beam="1">  1        2 0.52383968E+00 0.14401341E+04</pdfrwt>
<pdfrwt beam="2">  1       -2 0.20200001E-01 0.14401341E+04</pdfrwt>
<totfact> 0.19585811E+01</totfact>
</mgrwt>
</event>
<event>
 8    1  0.7326756E-052  0.1772071E+04  0.7818608E-02  0.8721295E-01
         -2   -1    0    0    0  501 -0.00000000000E+00  0.00000000000E+00  0.68136287577E+03  0.68136287577E+03  0.25500000000E-02 0. -1.
          2   -1    0    0  501    0  0.00000000000E+00 -0.00000000000E+00 -0.11521886942E+04  0.11521886942E+04  0.25500000000E-02 0.  1.
     200001    2    1    2    0    0  0.21357618540E+03  0.54160215868E+03 -0.50849687824E+03  0.98730350117E+03  0.61420798024E+03 0.  0.
    5000001    2    3    3    0    0  0.20708056055E+03  0.62519775368E+03 -0.53562941688E+03  0.85326025703E+03  0.86020952299E+02 0.  0.
        -11    1    4    4    0    0  0.80284594685E+02  0.14310987552E+03 -0.14987467806E+03  0.22223517215E+03  0.51100000000E-03 0. -1.
     200002    1    4    4    0    0  0.12679596587E+03  0.48208787817E+03 -0.38575473882E+03  0.63102508489E+03  0.30000000000E+02 0. -1.
     200000    1    3    3    0    0  0.64956248489E+01 -0.83595595006E+02  0.27132538636E+02  0.13404324414E+03  0.10100000000E+03 0. -1.
    -200001    1    1    2    0    0 -0.21357618540E+03 -0.54160215868E+03  0.37671059781E+02  0.84624806883E+03  0.61300000000E+03 0. -1.
<mgrwt>
<rscale>  0 0.17720707E+04</rscale>
<asrwt>0</asrwt>
<pdfrwt beam="1">  1        2 0.16459838E+00 0.17720707E+04</pdfrwt>
<pdfrwt beam="2">  1       -2 0.97337554E-01 0.17720707E+04</pdfrwt>
<totfact> 0.19026815E+01</totfact>
</mgrwt>
</event>
<event>
 8    1  0.7326756E-052  0.1514809E+04  0.7818608E-02  0.8874664E-01
         -2   -1    0    0    0  501 -0.00000000000E+00  0.00000000000E+00  0.38665288074E+03  0.38665288075E+03  0.25500000000E-02 0. -1.
          2   -1    0    0  501    0  0.00000000000E+00 -0.00000000000E+00 -0.14836607731E+04  0.14836607731E+04  0.25500000000E-02 0.  1.
     200001    2    1    2    0    0 -0.31157993444E+03  0.21183728757E+03 -0.83872389093E+03  0.11058290449E+04  0.61436391439E+03 0.  0.
    5000001    2    3    3    0    0  0.70478524424E+02  0.29491952549E+03 -0.33045523601E+03  0.45666854867E+03  0.86027620084E+02 0.  0.
        -11    1    4    4    0    0  0.33480648636E+02  0.15502102071E+03 -0.11715702307E+03  0.19717565456E+03  0.51100000000E-03 0. -1.
     200002    1    4    4    0    0  0.36997875788E+02  0.13989850479E+03 -0.21329821293E+03  0.25949289411E+03  0.30000000000E+02 0. -1.
     200000    1    3    3    0    0 -0.38205845886E+03 -0.83082237921E+02 -0.50826865492E+03  0.64916049620E+03  0.10100000000E+03 0. -1.
    -200001    1    1    2    0    0  0.31157993444E+03 -0.21183728757E+03 -0.25828400141E+03  0.76448460896E+03  0.61300000000E+03 0. -1.
<mgrwt>
<rscale>  0 0.15148092E+04</rscale>
<asrwt>0</asrwt>
<pdfrwt beam="1">  1        2 0.21195154E+00 0.15148092E+04</pdfrwt>
<pdfrwt beam="2">  1       -2 0.55236127E-01 0.15148092E+04</pdfrwt>
<totfact> 0.44420582E+01</totfact>
</mgrwt>
</event>
<event>
 8    1  0.7326756E-052  0.2729316E+04  0.7818608E-02  0.8325555E-01
          2   -1    0    0  501    0  0.00000000000E+00  0.00000000000E+00  0.17421589368E+04  0.17421589368E+04  0.25500000000E-02 0.  1.
         -2   -1    0    0    0  501 -0.00000000000E+00 -0.00000000000E+00 -0.10689557439E+04  0.10689557439E+04  0.25500000000E-02 0. -1.
     200001    2    1    2    0    0 -0.74069931514E+03 -0.37162082951E+03 -0.58439132675E+03  0.11850610247E+04  0.61328532765E+03 0.  0.
    5000001    2    3    3    0    0 -0.71655213681E+02  0.13592809588E+03 -0.17110288359E+03  0.24366086610E+03  0.80520208629E+02 0.  0.
        -11    1    4    4    0    0 -0.33759577804E+02  0.70852916181E+01 -0.22803451955E+02  0.41351032298E+02  0.51100000000E-03 0. -1.
     200002    1    4    4    0    0 -0.37895635877E+02  0.12884280427E+03 -0.14829943164E+03  0.20230983380E+03  0.30000000000E+02 0. -1.
     200000    1    3    3    0    0 -0.66904410146E+03 -0.50754892539E+03 -0.41328844316E+03  0.94140015860E+03  0.10100000000E+03 0.  1.
    -200001    1    1    2    0    0  0.74069931514E+03  0.37162082951E+03  0.12575945197E+04  0.16260536560E+04  0.61300000000E+03 0.  1.
<mgrwt>
<rscale>  0 0.27293155E+04</rscale>
<asrwt>0</asrwt>
<pdfrwt beam="1">  1        2 0.24887985E+00 0.27293155E+04</pdfrwt>
<pdfrwt beam="2">  1       -2 0.15270796E+00 0.27293155E+04</pdfrwt>
<totfact> 0.27461793E+00</totfact>
</mgrwt>
</event>
<event>
 8    1  0.7326756E-052  0.1343704E+04  0.7818608E-02  0.8995608E-01
         -2   -1    0    0    0  501 -0.00000000000E+00  0.00000000000E+00  0.86238470287E+03  0.86238470287E+03  0.25500000000E-02 0. -1.
          2   -1    0    0  501    0  0.00000000000E+00 -0.00000000000E+00 -0.52341512450E+03  0.52341512450E+03  0.25500000000E-02 0.  1.
     200001    2    1    2    0    0 -0.17330147307E+03 -0.21124088319E+03  0.18917395117E+03  0.69814886851E+03  0.61397796989E+03 0.  0.
    5000001    2    3    3    0    0  0.17834107559E+02 -0.12677684750E+03  0.27090904032E+03  0.45208260040E+03  0.33852111456E+03 0.  0.
        -11    1    4    4    0    0  0.41154619751E+02 -0.82687034044E+02 -0.63861168544E+02  0.11229023633E+03  0.51100000000E-03 0. -1.
     200002    1    4    4    0    0 -0.23320512193E+02 -0.44089813457E+02  0.33477020886E+03  0.33979236407E+03  0.30000000000E+02 0. -1.
     200000    1    3    3    0    0 -0.19113558063E+03 -0.84464035686E+02 -0.81735089148E+02  0.24606626812E+03  0.10100000000E+03 0.  1.
    -200001    1    1    2    0    0  0.17330147307E+03  0.21124088319E+03  0.14979562720E+03  0.68765095886E+03  0.61300000000E+03 0.  1.
<mgrwt>
<rscale>  0 0.13437041E+04</rscale>
<asrwt>0</asrwt>
<pdfrwt beam="1">  1        2 0.74773590E-01 0.13437041E+04</pdfrwt>
<pdfrwt beam="2">  1       -2 0.12319781E+00 0.13437041E+04</pdfrwt>
<totfact> 0.30985987E+01</totfact>
</mgrwt>
</event>
<event>
 8    1  0.7326756E-052  0.2241838E+04  0.7818608E-02  0.8501213E-01
          2   -1    0    0  501    0  0.00000000000E+00  0.00000000000E+00  0.67900976631E+03  0.67900976631E+03  0.25500000000E-02 0.  1.
         -2   -1    0    0    0  501 -0.00000000000E+00 -0.00000000000E+00 -0.18504297966E+04  0.18504297966E+04  0.25500000000E-02 0. -1.
     200001    2    1    2    0    0  0.73446043752E+03 -0.58006599513E+03 -0.65367482711E+03  0.12966631077E+04  0.61492742854E+03 0.  0.
    5000001    2    3    3    0    0  0.13616160594E+03 -0.38912213824E+03 -0.47396059155E+03  0.63566442784E+03  0.97337562539E+02 0.  0.
        -11    1    4    4    0    0  0.47645948962E+02 -0.13761216022E+03 -0.10533741449E+03  0.17973094888E+03  0.51100000000E-03 0. -1.
     200002    1    4    4    0    0  0.88515656980E+02 -0.25150997802E+03 -0.36862317706E+03  0.45593347896E+03  0.30000000000E+02 0. -1.
     200000    1    3    3    0    0  0.59829883158E+03 -0.19094385689E+03 -0.17971423556E+03  0.66099867989E+03  0.10100000000E+03 0.  1.
    -200001    1    1    2    0    0 -0.73446043752E+03  0.58006599513E+03 -0.51774520314E+03  0.12327764551E+04  0.61300000000E+03 0.  1.
<mgrwt>
<rscale>  0 0.22418384E+04</rscale>
<asrwt>0</asrwt>
<pdfrwt beam="1">  1        2 0.97001396E-01 0.22418384E+04</pdfrwt>
<pdfrwt beam="2">  1       -2 0.26434711E+00 0.22418384E+04</pdfrwt>
<totfact> 0.22430736E+00</totfact>
</mgrwt>
</event>
<event>
 8    1  0.7326756E-052  0.1501792E+04  0.7818608E-02  0.8883262E-01
         -2   -1    0    0    0  501 -0.00000000000E+00  0.00000000000E+00  0.33801208000E+03  0.33801208001E+03  0.25500000000E-02 0. -1.
          2   -1    0    0  501    0  0.00000000000E+00 -0.00000000000E+00 -0.16681203828E+04  0.16681203828E+04  0.25500000000E-02 0.  1.
     200001    2    1    2    0    0 -0.21806094310E+03  0.30540079269E+03 -0.37409314038E+03  0.81007468418E+03  0.61274390832E+03 0.  0.
    5000001    2    3    3    0    0 -0.23951217095E+03 -0.10168643808E+03 -0.59384188398E+02  0.28526720225E+03  0.10072081772E+03 0.  0.
        -11    1    4    4    0    0 -0.43728682763E+02 -0.28258507334E+02 -0.52462755719E+02  0.73912662453E+02  0.51100000000E-03 0. -1.
     200002    1    4    4    0    0 -0.19578348819E+03 -0.73427930742E+02 -0.69214326782E+01  0.21135453980E+03  0.30000000000E+02 0. -1.
     200000    1    3    3    0    0  0.21451227856E+02  0.40708723076E+03 -0.31470895199E+03  0.52480748193E+03  0.10100000000E+03 0.  1.
    -200001    1    1    2    0    0  0.21806094310E+03 -0.30540079269E+03 -0.95601516243E+03  0.11960577787E+04  0.61300000000E+03 0.  1.
<mgrwt>
<rscale>  0 0.15017920E+04</rscale>
<asrwt>0</asrwt>
<pdfrwt beam="1">  1        2 0.23830291E+00 0.15017920E+04</pdfrwt>
<pdfrwt beam="2">  1       -2 0.48287441E-01 0.15017920E+04</pdfrwt>
<totfact> 0.46834934E+01</totfact>
</mgrwt>
</event>
<event>
 8    1  0.7326756E-052  0.1743285E+04  0.7818608E-02  0.8737055E-01
         -2   -1    0    0    0  501 -0.00000000000E+00  0.00000000000E+00  0.15688202538E+04  0.15688202538E+04  0.25500000000E-02 0. -1.
          2   -1    0    0  501    0  0.00000000000E+00 -0.00000000000E+00 -0.48428805377E+03  0.48428805377E+03  0.25500000000E-02 0.  1.
     200001    2    1    2    0    0 -0.52545765432E+02 -0.53734108546E+03  0.90008994029E+03  0.12156810291E+04  0.61336935383E+03 0.  0.
    5000001    2    3    3    0    0  0.85266098380E+02 -0.47345667588E+03  0.91138017394E+03  0.10329194440E+04  0.69837131157E+02 0.  0.
        -11    1    4    4    0    0  0.78268950162E+02 -0.36480951238E+03  0.70720295550E+03  0.79959241439E+03  0.51100000000E-03 0. -1.
     200002    1    4    4    0    0  0.69971482174E+01 -0.10864716350E+03  0.20417721844E+03  0.23332702962E+03  0.30000000000E+02 0.  1.
     200000    1    3    3    0    0 -0.13781186381E+03 -0.63884409576E+02 -0.11290233654E+02  0.18276158505E+03  0.10100000000E+03 0.  1.
    -200001    1    1    2    0    0  0.52545765432E+02  0.53734108546E+03  0.18444225972E+03  0.83742727849E+03  0.61300000000E+03 0.  1.
<mgrwt>
<rscale>  0 0.17432853E+04</rscale>
<asrwt>0</asrwt>
<pdfrwt beam="1">  1        2 0.69184009E-01 0.17432853E+04</pdfrwt>
<pdfrwt beam="2">  1       -2 0.22411718E+00 0.17432853E+04</pdfrwt>
<totfact> 0.61609769E+00</totfact>
</mgrwt>
</event>
<event>
 8    1  0.7326756E-052  0.2866586E+04  0.7818608E-02  0.8282889E-01
          2   -1    0    0  501    0  0.00000000000E+00  0.00000000000E+00  0.15063679057E+04  0.15063679057E+04  0.25500000000E-02 0.  1.
         -2   -1    0    0    0  501 -0.00000000000E+00 -0.00000000000E+00 -0.13637634449E+04  0.13637634449E+04  0.25500000000E-02 0. -1.
     200001    2    1    2    0    0 -0.42762552638E+03  0.45057715684E+03  0.12094925958E+04  0.14917617856E+04  0.61367541949E+03 0.  0.
    5000001    2    3    3    0    0 -0.69021391932E+02  0.48193591078E+03  0.73054739968E+03  0.88416833795E+03  0.10501415151E+03 0.  0.
        -11    1    4    4    0    0  0.25895516730E+02  0.11202098931E+03  0.16915542873E+03  0.20453077740E+03  0.51100000000E-03 0. -1.
     200002    1    4    4    0    0 -0.94916908661E+02  0.36991492147E+03  0.56139197095E+03  0.67963756055E+03  0.30000000000E+02 0. -1.
     200000    1    3    3    0    0 -0.35860413445E+03 -0.31358753940E+02  0.47894519617E+03  0.60759344765E+03  0.10100000000E+03 0.  1.
    -200001    1    1    2    0    0  0.42762552638E+03 -0.45057715684E+03 -0.10668881350E+04  0.13783695650E+04  0.61300000000E+03 0. -1.
<mgrwt>
<rscale>  0 0.28665865E+04</rscale>
<asrwt>0</asrwt>
<pdfrwt beam="1">  1        2 0.21519542E+00 0.28665865E+04</pdfrwt>
<pdfrwt beam="2">  1       -2 0.19482335E+00 0.28665865E+04</pdfrwt>
<totfact> 0.18196756E+00</totfact>
</mgrwt>
</event>
<event>
 8    1  0.7326756E-052  0.1731957E+04  0.7818608E-02  0.8743345E-01
          2   -1    0    0  501    0  0.00000000000E+00  0.00000000000E+00  0.11777867914E+04  0.11777867914E+04  0.25500000000E-02 0.  1.
         -2   -1    0    0    0  501 -0.00000000000E+00 -0.00000000000E+00 -0.63671873289E+03  0.63671873289E+03  0.25500000000E-02 0. -1.
     200001    2    1    2    0    0 -0.14287665241E+03 -0.54972015738E+03  0.51179447146E+03  0.97830463213E+03  0.61036086292E+03 0.  0.
    5000001    2    3    3    0    0 -0.95824506159E+02 -0.62521737137E+03  0.42034599998E+03  0.81558537475E+03  0.29733759662E+03 0.  0.
        -11    1    4    4    0    0 -0.10811929002E+03 -0.77525716212E+02  0.15929549937E+02  0.13399167180E+03  0.51100000000E-03 0. -1.
     200002    1    4    4    0    0  0.12294783865E+02 -0.54769165515E+03  0.40441645005E+03  0.68159370295E+03  0.30000000000E+02 0. -1.
     200000    1    3    3    0    0 -0.47052146250E+02  0.75497213985E+02  0.91448471473E+02  0.16271925738E+03  0.10100000000E+03 0. -1.
    -200001    1    1    2    0    0  0.14287665241E+03  0.54972015738E+03  0.29273587101E+02  0.83620089221E+03  0.61300000000E+03 0. -1.
<mgrwt>
<rscale>  0 0.17319572E+04</rscale>
<asrwt>0</asrwt>
<pdfrwt beam="1">  1        2 0.16825525E+00 0.17319572E+04</pdfrwt>
<pdfrwt beam="2">  1       -2 0.90959820E-01 0.17319572E+04</pdfrwt>
<totfact> 0.21604835E+01</totfact>
</mgrwt>
</event>
<event>
 8    1  0.7326756E-052  0.1668334E+04  0.7818608E-02  0.8779634E-01
          2   -1    0    0  501    0  0.00000000000E+00  0.00000000000E+00  0.24564510333E+04  0.24564510333E+04  0.25500000000E-02 0.  1.
         -2   -1    0    0    0  501 -0.00000000000E+00 -0.00000000000E+00 -0.28326827227E+03  0.28326827228E+03  0.25500000000E-02 0. -1.
     200001    2    1    2    0    0 -0.45296346996E+03 -0.32009820279E+03  0.12644491970E+04  0.15112224781E+04  0.61426610050E+03 0.  0.
    5000001    2    3    3    0    0 -0.25586517986E+03  0.10608238088E+03  0.22218026595E+03  0.36361490132E+03  0.78302388734E+02 0.  0.
        -11    1    4    4    0    0 -0.22251407955E+03  0.84439069379E+02  0.18588909821E+03  0.30198878931E+03  0.51100000000E-03 0. -1.
     200002    1    4    4    0    0 -0.33351100309E+02  0.21643311505E+02  0.36291167749E+02  0.61626112009E+02  0.30000000000E+02 0.  1.
     200000    1    3    3    0    0 -0.19709829010E+03 -0.42618058367E+03  0.10422689310E+04  0.11476075768E+04  0.10100000000E+03 0.  1.
    -200001    1    1    2    0    0  0.45296346996E+03  0.32009820279E+03  0.90873356407E+03  0.12284968274E+04  0.61300000000E+03 0.  1.
<mgrwt>
<rscale>  0 0.16683341E+04</rscale>
<asrwt>0</asrwt>
<pdfrwt beam="1">  1        2 0.35092159E+00 0.16683341E+04</pdfrwt>
<pdfrwt beam="2">  1       -2 0.40466895E-01 0.16683341E+04</pdfrwt>
<totfact> 0.25703687E+01</totfact>
</mgrwt>
</event>
<event>
 8    1  0.7326756E-052  0.1342072E+04  0.7818608E-02  0.8996851E-01
         -2   -1    0    0    0  501 -0.00000000000E+00  0.00000000000E+00  0.34670792450E+03  0.34670792451E+03  0.25500000000E-02 0. -1.
          2   -1    0    0  501    0  0.00000000000E+00 -0.00000000000E+00 -0.12987570559E+04  0.12987570559E+04  0.25500000000E-02 0.  1.
     200001    2    1    2    0    0  0.33041798572E+02 -0.20415920434E+03 -0.25167559514E+03  0.69201606650E+03  0.61055130000E+03 0.  0.
    5000001    2    3    3    0    0 -0.11442081091E+03  0.17051762009E+03 -0.15101808474E+03  0.26486167010E+03  0.71950410991E+02 0.  0.
        -11    1    4    4    0    0 -0.28557644088E+02  0.76869917853E+01 -0.10655590801E+02  0.31435179245E+02  0.51100000000E-03 0. -1.
     200002    1    4    4    0    0 -0.85863166824E+02  0.16283062830E+03 -0.14036249393E+03  0.23342649086E+03  0.30000000000E+02 0. -1.
     200000    1    3    3    0    0  0.14746260948E+03 -0.37467682443E+03 -0.10065751040E+03  0.42715439640E+03  0.10100000000E+03 0. -1.
    -200001    1    1    2    0    0 -0.33041798572E+02  0.20415920434E+03 -0.70037353630E+03  0.95344891396E+03  0.61300000000E+03 0.  1.
<mgrwt>
<rscale>  0 0.13420721E+04</rscale>
<asrwt>0</asrwt>
<pdfrwt beam="1">  1        2 0.18553672E+00 0.13420721E+04</pdfrwt>
<pdfrwt beam="2">  1       -2 0.49529704E-01 0.13420721E+04</pdfrwt>
<totfact> 0.70933338E+01</totfact>
</mgrwt>
</event>
<event>
 8    1  0.7326756E-052  0.2112184E+04  0.7818608E-02  0.8555895E-01
         -2   -1    0    0    0  501 -0.00000000000E+00  0.00000000000E+00  0.10647399966E+04  0.10647399966E+04  0.25500000000E-02 0. -1.
          2   -1    0    0  501    0  0.00000000000E+00 -0.00000000000E+00 -0.10475146916E+04  0.10475146916E+04  0.25500000000E-02 0.  1.
     200001    2    1    2    0    0  0.56881959421E+03  0.45234859854E+03 -0.45138985128E+03  0.10522810328E+04  0.61267249724E+03 0.  0.
    5000001    2    3    3    0    0  0.42882477820E+03  0.25865497746E+03  0.17728403739E+02  0.51619456169E+03  0.12389286282E+03 0.  0.
        -11    1    4    4    0    0  0.38521726525E+03  0.20063909423E+03  0.35134898603E+02  0.43575549185E+03  0.51100000000E-03 0. -1.
     200002    1    4    4    0    0  0.43607512945E+02  0.58015883235E+02 -0.17406494864E+02  0.80439069837E+02  0.30000000000E+02 0. -1.
     200000    1    3    3    0    0  0.13999481601E+03  0.19369362108E+03 -0.46911825502E+03  0.53608647115E+03  0.10100000000E+03 0.  1.
    -200001    1    1    2    0    0 -0.56881959421E+03 -0.45234859854E+03  0.46861515624E+03  0.10599736553E+04  0.61300000000E+03 0. -1.
<mgrwt>
<rscale>  0 0.21121845E+04</rscale>
<asrwt>0</asrwt>
<pdfrwt beam="1">  1        2 0.14964496E+00 0.21121845E+04</pdfrwt>
<pdfrwt beam="2">  1       -2 0.15210571E+00 0.21121845E+04</pdfrwt>
<totfact> 0.70108430E+00</totfact>
</mgrwt>
</event>
<event>
 8    1  0.7326756E-052  0.1393068E+04  0.7818608E-02  0.8958852E-01
          2   -1    0    0  501    0  0.00000000000E+00  0.00000000000E+00  0.11450754739E+04  0.11450754739E+04  0.25500000000E-02 0. -1.
         -2   -1    0    0    0  501 -0.00000000000E+00 -0.00000000000E+00 -0.42369214153E+03  0.42369214154E+03  0.25500000000E-02 0.  1.
     200001    2    1    2    0    0  0.19486634139E+03 -0.66702673797E+02  0.68695565749E+02  0.64996814963E+03  0.61263151819E+03 0.  0.
    5000001    2    3    3    0    0 -0.68985447706E+02  0.17590102282E+03  0.38063965996E+02  0.27631909620E+03  0.19799801916E+03 0.  0.
        -11    1    4    4    0    0 -0.11799591296E+03  0.46219596667E+02 -0.85504267563E+01  0.12701337091E+03  0.51100000000E-03 0. -1.
     200002    1    4    4    0    0  0.49010465253E+02  0.12968142615E+03  0.46614392753E+02  0.14930572529E+03  0.30000000000E+02 0. -1.
     200000    1    3    3    0    0  0.26385178910E+03 -0.24260369662E+03  0.30631599753E+02  0.37364905343E+03  0.10100000000E+03 0.  1.
    -200001    1    1    2    0    0 -0.19486634139E+03  0.66702673797E+02  0.65268776661E+03  0.91879946582E+03  0.61300000000E+03 0.  1.
<mgrwt>
<rscale>  0 0.13930678E+04</rscale>
<asrwt>0</asrwt>
<pdfrwt beam="1">  1        2 0.16358221E+00 0.13930678E+04</pdfrwt>
<pdfrwt beam="2">  1       -2 0.60527450E-01 0.13930678E+04</pdfrwt>
<totfact> 0.56980118E+01</totfact>
</mgrwt>
</event>
<event>
 8    1  0.7326756E-052  0.2097190E+04  0.7818608E-02  0.8562482E-01
         -2   -1    0    0    0  501 -0.00000000000E+00  0.00000000000E+00  0.81486755450E+03  0.81486755451E+03  0.25500000000E-02 0. -1.
          2   -1    0    0  501    0  0.00000000000E+00 -0.00000000000E+00 -0.13493623012E+04  0.13493623012E+04  0.25500000000E-02 0.  1.
     200001    2    1    2    0    0 -0.30311808094E+03  0.41738132133E+03  0.43128072501E+03  0.90940755747E+03  0.61231634261E+03 0.  0.
    5000001    2    3    3    0    0 -0.23565099257E+03  0.23395375343E+03 -0.81640743513E+02  0.35129743074E+03  0.80491768528E+02 0.  0.
        -11    1    4    4    0    0 -0.45996829035E+02  0.92072595691E+02 -0.25944620590E+02  0.10614233131E+03  0.51100000000E-03 0. -1.
     200002    1    4    4    0    0 -0.18965416353E+03  0.14188115774E+03 -0.55696122923E+02  0.24515509943E+03  0.30000000000E+02 0. -1.
     200000    1    3    3    0    0 -0.67467088372E+02  0.18342756790E+03  0.51292146853E+03  0.55811012673E+03  0.10100000000E+03 0. -1.
    -200001    1    1    2    0    0  0.30311808094E+03 -0.41738132133E+03 -0.96577547169E+03  0.12548222982E+04  0.61300000000E+03 0.  1.
<mgrwt>
<rscale>  0 0.20971901E+04</rscale>
<asrwt>0</asrwt>
<pdfrwt beam="1">  1        2 0.19276604E+00 0.20971901E+04</pdfrwt>
<pdfrwt beam="2">  1       -2 0.11640965E+00 0.20971901E+04</pdfrwt>
<totfact> 0.93445593E+00</totfact>
</mgrwt>
</event>
<event>
 8    1  0.7326756E-052  0.1719771E+04  0.7818608E-02  0.8750168E-01
          2   -1    0    0  501    0  0.00000000000E+00  0.00000000000E+00  0.38200034723E+04  0.38200034723E+04  0.25500000000E-02 0.  1.
         -2   -1    0    0    0  501 -0.00000000000E+00 -0.00000000000E+00 -0.19356089855E+03  0.19356089856E+03  0.25500000000E-02 0. -1.
     200001    2    1    2    0    0 -0.54298749825E+03 -0.26035960262E+03  0.18538736906E+04  0.20436933113E+04  0.61417598771E+03 0.  0.
    5000001    2    3    3    0    0  0.33812692283E+02  0.42046156927E+01  0.89330328717E+02  0.16579369697E+03  0.13544986295E+03 0.  0.
        -11    1    4    4    0    0 -0.25240912775E+02 -0.11323953694E+02 -0.21983662305E+02  0.35335775265E+02  0.51100000000E-03 0. -1.
     200002    1    4    4    0    0  0.59053605058E+02  0.15528569386E+02  0.11131399102E+03  0.13045792170E+03  0.30000000000E+02 0. -1.
     200000    1    3    3    0    0 -0.57680019053E+03 -0.26456421831E+03  0.17645433619E+04  0.18778996143E+04  0.10100000000E+03 0.  1.
    -200001    1    1    2    0    0  0.54298749825E+03  0.26035960262E+03  0.17725688832E+04  0.19698710596E+04  0.61300000000E+03 0. -1.
<mgrwt>
<rscale>  0 0.17197713E+04</rscale>
<asrwt>0</asrwt>
<pdfrwt beam="1">  1        2 0.54571477E+00 0.17197713E+04</pdfrwt>
<pdfrwt beam="2">  1       -2 0.27651557E-01 0.17197713E+04</pdfrwt>
<totfact> 0.86378830E+00</totfact>
</mgrwt>
</event>
<event>
 8    1  0.7326756E-052  0.1406744E+04  0.7818608E-02  0.8948951E-01
         -2   -1    0    0    0  501 -0.00000000000E+00  0.00000000000E+00  0.43999553635E+03  0.43999553636E+03  0.25500000000E-02 0. -1.
          2   -1    0    0  501    0  0.00000000000E+00 -0.00000000000E+00 -0.11244032153E+04  0.11244032153E+04  0.25500000000E-02 0.  1.
     200001    2    1    2    0    0 -0.26223341349E+03 -0.20592063674E+03 -0.43867551214E+03  0.82458595805E+03  0.61346240755E+03 0.  0.
    5000001    2    3    3    0    0 -0.25229592760E+03 -0.13427395134E+03  0.64949671909E+02  0.30586510136E+03  0.87477261369E+02 0.  0.
        -11    1    4    4    0    0 -0.18157112392E+03 -0.79823079536E+02  0.14087186134E+02  0.19884226382E+03  0.51100000000E-03 0. -1.
     200002    1    4    4    0    0 -0.70724803685E+02 -0.54450871800E+02  0.50862485775E+02  0.10702283754E+03  0.30000000000E+02 0.  1.
     200000    1    3    3    0    0 -0.99374858900E+01 -0.71646685399E+02 -0.50362518405E+03  0.51872085669E+03  0.10100000000E+03 0.  1.
    -200001    1    1    2    0    0  0.26223341349E+03  0.20592063674E+03 -0.24573216680E+03  0.73981279361E+03  0.61300000000E+03 0. -1.
<mgrwt>
<rscale>  0 0.14067443E+04</rscale>
<asrwt>0</asrwt>
<pdfrwt beam="1">  1        2 0.16062903E+00 0.14067443E+04</pdfrwt>
<pdfrwt beam="2">  1       -2 0.62856506E-01 0.14067443E+04</pdfrwt>
<totfact> 0.54015593E+01</totfact>
</mgrwt>
</event>
<event>
 8    1  0.7326756E-052  0.1560777E+04  0.7818608E-02  0.8845013E-01
         -2   -1    0    0    0  501 -0.00000000000E+00  0.00000000000E+00  0.30696670992E+03  0.30696670993E+03  0.25500000000E-02 0. -1.
          2   -1    0    0  501    0  0.00000000000E+00 -0.00000000000E+00 -0.19839494747E+04  0.19839494747E+04  0.25500000000E-02 0.  1.
     200001    2    1    2    0    0 -0.46280002323E+03 -0.13129382870E+03 -0.76776659012E+03  0.10934751701E+04  0.61220950647E+03 0.  0.
    5000001    2    3    3    0    0 -0.22212866970E+03  0.12448219652E+03 -0.29338789548E+02  0.26956941572E+03  0.83486179484E+02 0.  0.
        -11    1    4    4    0    0 -0.86598962113E+02  0.87838022052E+02 -0.16595539555E+01  0.12335984953E+03  0.51100000000E-03 0. -1.
     200002    1    4    4    0    0 -0.13552970758E+03  0.36644174468E+02 -0.27679235593E+02  0.14620956618E+03  0.30000000000E+02 0. -1.
     200000    1    3    3    0    0 -0.24067135353E+03 -0.25577602522E+03 -0.73842780057E+03  0.82390575441E+03  0.10100000000E+03 0.  1.
    -200001    1    1    2    0    0  0.46280002323E+03  0.13129382870E+03 -0.90921617465E+03  0.11974410145E+04  0.61300000000E+03 0. -1.
<mgrwt>
<rscale>  0 0.15607773E+04</rscale>
<asrwt>0</asrwt>
<pdfrwt beam="1">  1        2 0.28342135E+00 0.15607773E+04</pdfrwt>
<pdfrwt beam="2">  1       -2 0.43852388E-01 0.15607773E+04</pdfrwt>
<totfact> 0.38848390E+01</totfact>
</mgrwt>
</event>
<event>
 8    1  0.7326756E-052  0.1471302E+04  0.7818608E-02  0.8903765E-01
         -2   -1    0    0    0  501 -0.00000000000E+00  0.00000000000E+00  0.30736951443E+03  0.30736951444E+03  0.25500000000E-02 0. -1.
          2   -1    0    0  501    0  0.00000000000E+00 -0.00000000000E+00 -0.17606888866E+04  0.17606888866E+04  0.25500000000E-02 0.  1.
     200001    2    1    2    0    0  0.13498965932E+03 -0.37728962324E+03 -0.61851863920E+03  0.95754908920E+03  0.61136346248E+03 0.  0.
    5000001    2    3    3    0    0  0.17778679622E+03 -0.26514815684E+03 -0.70464745361E+03  0.77858966339E+03  0.88103008290E+02 0.  0.
        -11    1    4    4    0    0  0.14084782541E+02 -0.77907632674E+02 -0.20237301357E+03  0.21730811524E+03  0.51100000000E-03 0. -1.
     200002    1    4    4    0    0  0.16370201368E+03 -0.18724052417E+03 -0.50227444004E+03  0.56128154815E+03  0.30000000000E+02 0. -1.
     200000    1    3    3    0    0 -0.42797136900E+02 -0.11214146640E+03  0.86128814412E+02  0.17895942581E+03  0.10100000000E+03 0. -1.
    -200001    1    1    2    0    0 -0.13498965932E+03  0.37728962324E+03 -0.83480073299E+03  0.11105093119E+04  0.61300000000E+03 0.  1.
<mgrwt>
<rscale>  0 0.14713016E+04</rscale>
<asrwt>0</asrwt>
<pdfrwt beam="1">  1        2 0.25152698E+00 0.14713016E+04</pdfrwt>
<pdfrwt beam="2">  1       -2 0.43909932E-01 0.14713016E+04</pdfrwt>
<totfact> 0.50849529E+01</totfact>
</mgrwt>
</event>
<event>
 8    1  0.7326756E-052  0.1644707E+04  0.7818608E-02  0.8793544E-01
         -2   -1    0    0    0  501 -0.00000000000E+00  0.00000000000E+00  0.48803843053E+03  0.48803843054E+03  0.25500000000E-02 0. -1.
          2   -1    0    0  501    0  0.00000000000E+00 -0.00000000000E+00 -0.13856800691E+04  0.13856800691E+04  0.25500000000E-02 0.  1.
     200001    2    1    2    0    0  0.27335308090E+03  0.30002215029E+02 -0.99013274005E+03  0.11955255745E+04  0.61097996423E+03 0.  0.
    5000001    2    3    3    0    0 -0.12588966392E+03 -0.10056544047E+03 -0.54506714995E+03  0.57526187138E+03  0.88692769769E+02 0.  0.
        -11    1    4    4    0    0 -0.48874580894E+02 -0.54966913294E+02 -0.12783827033E+03  0.14748799808E+03  0.51100000000E-03 0. -1.
     200002    1    4    4    0    0 -0.77015083026E+02 -0.45598527180E+02 -0.41722887962E+03  0.42777387330E+03  0.30000000000E+02 0. -1.
     200000    1    3    3    0    0  0.39924274482E+03  0.13056765550E+03 -0.44506559010E+03  0.62026370315E+03  0.10100000000E+03 0.  1.
    -200001    1    1    2    0    0 -0.27335308090E+03 -0.30002215029E+02  0.92491101525E+02  0.67819292506E+03  0.61300000000E+03 0. -1.
<mgrwt>
<rscale>  0 0.16447068E+04</rscale>
<asrwt>0</asrwt>
<pdfrwt beam="1">  1        2 0.19795430E+00 0.16447068E+04</pdfrwt>
<pdfrwt beam="2">  1       -2 0.69719776E-01 0.16447068E+04</pdfrwt>
<totfact> 0.30258186E+01</totfact>
</mgrwt>
</event>
<event>
 8    1  0.7326756E-052  0.1415820E+04  0.7818608E-02  0.8942446E-01
         -2   -1    0    0    0  501 -0.00000000000E+00  0.00000000000E+00  0.12131975696E+04  0.12131975696E+04  0.25500000000E-02 0. -1.
          2   -1    0    0  501    0  0.00000000000E+00 -0.00000000000E+00 -0.41307115455E+03  0.41307115456E+03  0.25500000000E-02 0.  1.
     200001    2    1    2    0    0  0.21845969881E+02 -0.25856047686E+03  0.67814582551E+03  0.94952724411E+03  0.61187372885E+03 0.  0.
    5000001    2    3    3    0    0 -0.19751647323E+03 -0.28948865137E+03  0.58579245688E+03  0.68913028152E+03  0.94505586619E+02 0.  0.
        -11    1    4    4    0    0 -0.10281454209E+03 -0.12532916528E+03  0.19351992923E+03  0.25244443497E+03  0.51100000000E-03 0. -1.
     200002    1    4    4    0    0 -0.94701931146E+02 -0.16415948609E+03  0.39227252764E+03  0.43668584655E+03  0.30000000000E+02 0. -1.
     200000    1    3    3    0    0  0.21936244311E+03  0.30928174510E+02  0.92353368631E+02  0.26039696259E+03  0.10100000000E+03 0. -1.
    -200001    1    1    2    0    0 -0.21845969881E+02  0.25856047686E+03  0.12198058954E+03  0.67674148005E+03  0.61300000000E+03 0.  1.
<mgrwt>
<rscale>  0 0.14158205E+04</rscale>
<asrwt>0</asrwt>
<pdfrwt beam="1">  1        2 0.59010165E-01 0.14158205E+04</pdfrwt>
<pdfrwt beam="2">  1       -2 0.17331394E+00 0.14158205E+04</pdfrwt>
<totfact> 0.16384726E+01</totfact>
</mgrwt>
</event>
<event>
 8    1  0.7326756E-052  0.1528856E+04  0.7818608E-02  0.8865488E-01
          2   -1    0    0  501    0  0.00000000000E+00  0.00000000000E+00  0.65164342845E+03  0.65164342845E+03  0.25500000000E-02 0.  1.
         -2   -1    0    0    0  501 -0.00000000000E+00 -0.00000000000E+00 -0.89673293893E+03  0.89673293893E+03  0.25500000000E-02 0. -1.
     200001    2    1    2    0    0  0.19823843528E+03 -0.26678161741E+03 -0.43944436328E+03  0.82448844967E+03  0.61335059029E+03 0.  0.
    5000001    2    3    3    0    0 -0.16129028434E+03  0.32452164813E+02 -0.22448906924E+02  0.18975388524E+03  0.91841628448E+02 0.  0.
        -11    1    4    4    0    0 -0.11569446082E+03 -0.12597712016E+02 -0.32426988384E+01  0.11642347576E+03  0.51100000000E-03 0. -1.
     200002    1    4    4    0    0 -0.45595823529E+02  0.45049876830E+02 -0.19206208085E+02  0.73330409481E+02  0.30000000000E+02 0. -1.
     200000    1    3    3    0    0  0.35952871963E+03 -0.29923378222E+03 -0.41699545636E+03  0.63473456443E+03  0.10100000000E+03 0. -1.
    -200001    1    1    2    0    0 -0.19823843528E+03  0.26678161741E+03  0.19435485280E+03  0.72388791772E+03  0.61300000000E+03 0.  1.
<mgrwt>
<rscale>  0 0.15288559E+04</rscale>
<asrwt>0</asrwt>
<pdfrwt beam="1">  1        2 0.93091918E-01 0.15288559E+04</pdfrwt>
<pdfrwt beam="2">  1       -2 0.12810471E+00 0.15288559E+04</pdfrwt>
<totfact> 0.21393097E+01</totfact>
</mgrwt>
</event>
<event>
 8    1  0.7326756E-052  0.1574611E+04  0.7818608E-02  0.8836299E-01
         -2   -1    0    0    0  501 -0.00000000000E+00  0.00000000000E+00  0.29938202966E+03  0.29938202967E+03  0.25500000000E-02 0. -1.
          2   -1    0    0  501    0  0.00000000000E+00 -0.00000000000E+00 -0.20704320004E+04  0.20704320004E+04  0.25500000000E-02 0.  1.
     200001    2    1    2    0    0  0.31097640894E+03  0.35151745042E+03 -0.11165359448E+04  0.13576734988E+04  0.61347695021E+03 0.  0.
    5000001    2    3    3    0    0  0.28714075473E+03  0.42666767921E+03 -0.11132999177E+04  0.12295049879E+04  0.88037986359E+02 0.  0.
        -11    1    4    4    0    0  0.23517796171E+03  0.31905429077E+03 -0.79881266915E+03  0.89174323352E+03  0.51100000000E-03 0. -1.
     200002    1    4    4    0    0  0.51962793024E+02  0.10761338844E+03 -0.31448724859E+03  0.33776175443E+03  0.30000000000E+02 0. -1.
     200000    1    3    3    0    0  0.23835654211E+02 -0.75150228786E+02 -0.32360270369E+01  0.12816851083E+03  0.10100000000E+03 0. -1.
    -200001    1    1    2    0    0 -0.31097640894E+03 -0.35151745042E+03 -0.65451402593E+03  0.10121405313E+04  0.61300000000E+03 0.  1.
<mgrwt>
<rscale>  0 0.15746112E+04</rscale>
<asrwt>0</asrwt>
<pdfrwt beam="1">  1        2 0.29577599E+00 0.15746112E+04</pdfrwt>
<pdfrwt beam="2">  1       -2 0.42768863E-01 0.15746112E+04</pdfrwt>
<totfact> 0.36811886E+01</totfact>
</mgrwt>
</event>
<event>
 8    1  0.7326756E-052  0.1330073E+04  0.7818608E-02  0.9006051E-01
          2   -1    0    0  501    0  0.00000000000E+00  0.00000000000E+00  0.90612398231E+03  0.90612398232E+03  0.25500000000E-02 0.  1.
         -2   -1    0    0    0  501 -0.00000000000E+00 -0.00000000000E+00 -0.48809413857E+03  0.48809413858E+03  0.25500000000E-02 0. -1.
     200001    2    1    2    0    0  0.10318981864E+03  0.25047353395E+02  0.45517886617E+03  0.77098096022E+03  0.61314625680E+03 0.  0.
    5000001    2    3    3    0    0  0.32791058363E+03  0.66277029258E+02  0.14352785708E+03  0.37157307364E+03  0.74486964180E+02 0.  0.
        -11    1    4    4    0    0  0.57723099355E+02 -0.71916867076E+01  0.43871372357E+02  0.72858588166E+02  0.51100000000E-03 0. -1.
     200002    1    4    4    0    0  0.27018748428E+03  0.73468715966E+02  0.99656484718E+02  0.29871448547E+03  0.30000000000E+02 0. -1.
     200000    1    3    3    0    0 -0.22472076500E+03 -0.41229675863E+02  0.31165100909E+03  0.39940788658E+03  0.10100000000E+03 0. -1.
    -200001    1    1    2    0    0 -0.10318981864E+03 -0.25047353395E+02 -0.37149022432E+02  0.62323716068E+03  0.61300000000E+03 0. -1.
<mgrwt>
<rscale>  0 0.13300734E+04</rscale>
<asrwt>0</asrwt>
<pdfrwt beam="1">  1        2 0.12944628E+00 0.13300734E+04</pdfrwt>
<pdfrwt beam="2">  1       -2 0.69727735E-01 0.13300734E+04</pdfrwt>
<totfact> 0.59168470E+01</totfact>
</mgrwt>
</event>
<event>
 8    1  0.7326756E-052  0.2191165E+04  0.7818608E-02  0.8522114E-01
         -2   -1    0    0    0  501 -0.00000000000E+00  0.00000000000E+00  0.13635929885E+04  0.13635929885E+04  0.25500000000E-02 0. -1.
          2   -1    0    0  501    0  0.00000000000E+00 -0.00000000000E+00 -0.88024884562E+03  0.88024884563E+03  0.25500000000E-02 0.  1.
     200001    2    1    2    0    0  0.21572873377E+03 -0.49785980518E+02  0.11435255000E+04  0.13161425538E+04  0.61283205072E+03 0.  0.
    5000001    2    3    3    0    0  0.29655949544E+03 -0.22289991586E+03  0.80066601340E+03  0.91085787092E+03  0.22575227391E+03 0.  0.
        -11    1    4    4    0    0 -0.23589128063E+02 -0.78038606178E+02  0.15703613392E+03  0.17693732894E+03  0.51100000000E-03 0. -1.
     200002    1    4    4    0    0  0.32014862350E+03 -0.14486130968E+03  0.64362987948E+03  0.73392054198E+03  0.30000000000E+02 0. -1.
     200000    1    3    3    0    0 -0.80830761666E+02  0.17311393534E+03  0.34285948658E+03  0.40528468288E+03  0.10100000000E+03 0.  1.
    -200001    1    1    2    0    0 -0.21572873377E+03  0.49785980518E+02 -0.66018135711E+03  0.92769928032E+03  0.61300000000E+03 0.  1.
<mgrwt>
<rscale>  0 0.21911651E+04</rscale>
<asrwt>0</asrwt>
<pdfrwt beam="1">  1        2 0.12574984E+00 0.21911651E+04</pdfrwt>
<pdfrwt beam="2">  1       -2 0.19479900E+00 0.21911651E+04</pdfrwt>
<totfact> 0.44299100E+00</totfact>
</mgrwt>
</event>
<event>
 8    1  0.7326756E-052  0.1963318E+04  0.7818608E-02  0.8623965E-01
         -2   -1    0    0    0  501 -0.00000000000E+00  0.00000000000E+00  0.72146839794E+03  0.72146839794E+03  0.25500000000E-02 0. -1.
          2   -1    0    0  501    0  0.00000000000E+00 -0.00000000000E+00 -0.13356848860E+04  0.13356848860E+04  0.25500000000E-02 0.  1.
     200001    2    1    2    0    0 -0.43609273537E+03 -0.58174190174E+03 -0.56129271344E+03  0.11046983296E+04  0.61376573313E+03 0.  0.
    5000001    2    3    3    0    0 -0.24804844570E+03  0.36379438675E+02 -0.44072079827E+02  0.27094007315E+03  0.92815300701E+02 0.  0.
        -11    1    4    4    0    0 -0.14335096070E+03 -0.18669649229E+02 -0.13869010754E+02  0.14522535314E+03  0.51100000000E-03 0. -1.
     200002    1    4    4    0    0 -0.10469748500E+03  0.55049087904E+02 -0.30203069073E+02  0.12571472001E+03  0.30000000000E+02 0. -1.
     200000    1    3    3    0    0 -0.18804428967E+03 -0.61812134042E+03 -0.51722063361E+03  0.83375825644E+03  0.10100000000E+03 0.  1.
    -200001    1    1    2    0    0  0.43609273537E+03  0.58174190174E+03 -0.52923774590E+02  0.95245495432E+03  0.61300000000E+03 0.  1.
<mgrwt>
<rscale>  0 0.19633180E+04</rscale>
<asrwt>0</asrwt>
<pdfrwt beam="1">  1        2 0.19081213E+00 0.19633180E+04</pdfrwt>
<pdfrwt beam="2">  1       -2 0.10306691E+00 0.19633180E+04</pdfrwt>
<totfact> 0.12899714E+01</totfact>
</mgrwt>
</event>
<event>
 8    1  0.7326756E-052  0.1372005E+04  0.7818608E-02  0.8974336E-01
         -2   -1    0    0    0  501 -0.00000000000E+00  0.00000000000E+00  0.27268507623E+03  0.27268507624E+03  0.25500000000E-02 0. -1.
          2   -1    0    0  501    0  0.00000000000E+00 -0.00000000000E+00 -0.17257991941E+04  0.17257991941E+04  0.25500000000E-02 0.  1.
     200001    2    1    2    0    0 -0.12007178424E+03  0.25912893140E+03 -0.59062363883E+03  0.90248068326E+03  0.61973386583E+03 0.  0.
    5000001    2    3    3    0    0  0.19324163215E+03 -0.24897379806E+01 -0.45977788626E+02  0.21440385092E+03  0.80663046375E+02 0.  0.
        -11    1    4    4    0    0  0.11581069431E+03 -0.31827478959E+02 -0.38004846151E+02  0.12597409918E+03  0.51100000000E-03 0. -1.
     200002    1    4    4    0    0  0.77430937840E+02  0.29337740978E+02 -0.79729424748E+01  0.88429751737E+02  0.30000000000E+02 0. -1.
     200000    1    3    3    0    0 -0.31331341639E+03  0.26161866938E+03 -0.54464585021E+03  0.68807683234E+03  0.10100000000E+03 0.  1.
    -200001    1    1    2    0    0  0.12007178424E+03 -0.25912893140E+03 -0.86249047905E+03  0.10960035871E+04  0.61300000000E+03 0.  1.
<mgrwt>
<rscale>  0 0.13720054E+04</rscale>
<asrwt>0</asrwt>
<pdfrwt beam="1">  1        2 0.24654273E+00 0.13720054E+04</pdfrwt>
<pdfrwt beam="2">  1       -2 0.38955012E-01 0.13720054E+04</pdfrwt>
<totfact> 0.67584296E+01</totfact>
</mgrwt>
</event>
<event>
 8    1  0.7326756E-052  0.1711739E+04  0.7818608E-02  0.8754697E-01
          2   -1    0    0  501    0  0.00000000000E+00  0.00000000000E+00  0.90686104720E+03  0.90686104721E+03  0.25500000000E-02 0.  1.
         -2   -1    0    0    0  501 -0.00000000000E+00 -0.00000000000E+00 -0.80774514554E+03  0.80774514554E+03  0.25500000000E-02 0. -1.
     200001    2    1    2    0    0 -0.12137320570E+03 -0.40479249755E+03 -0.37338320623E+03  0.83278261170E+03  0.61279967242E+03 0.  0.
    5000001    2    3    3    0    0 -0.81016233188E+02 -0.21663759697E+02  0.16221012783E+02  0.27563921681E+03  0.26207042577E+03 0.  0.
        -11    1    4    4    0    0 -0.78324641806E+02  0.83162941756E+02 -0.72276417632E+02  0.13518396703E+03  0.51100000000E-03 0. -1.
     200002    1    4    4    0    0 -0.26915913819E+01 -0.10482670145E+03  0.88497430414E+02  0.14045524978E+03  0.30000000000E+02 0. -1.
     200000    1    3    3    0    0 -0.40356972516E+02 -0.38312873785E+03 -0.38960421901E+03  0.55714339489E+03  0.10100000000E+03 0. -1.
    -200001    1    1    2    0    0  0.12137320570E+03  0.40479249755E+03  0.47249910789E+03  0.88182358105E+03  0.61300000000E+03 0.  1.
<mgrwt>
<rscale>  0 0.17117390E+04</rscale>
<asrwt>0</asrwt>
<pdfrwt beam="1">  1        2 0.12955158E+00 0.17117390E+04</pdfrwt>
<pdfrwt beam="2">  1       -2 0.11539216E+00 0.17117390E+04</pdfrwt>
<totfact> 0.17942551E+01</totfact>
</mgrwt>
</event>
<event>
 8    1  0.7326756E-052  0.1369300E+04  0.7818608E-02  0.8976346E-01
         -2   -1    0    0    0  501 -0.00000000000E+00  0.00000000000E+00  0.45101338957E+03  0.45101338957E+03  0.25500000000E-02 0. -1.
          2   -1    0    0  501    0  0.00000000000E+00 -0.00000000000E+00 -0.10393160286E+04  0.10393160286E+04  0.25500000000E-02 0.  1.
     200001    2    1    2    0    0  0.31085709662E+02 -0.63130532392E+02 -0.61718601500E+03  0.87262800579E+03  0.61286970386E+03 0.  0.
    5000001    2    3    3    0    0 -0.26464624717E+03 -0.90020530506E+02 -0.38155616137E+03  0.48032341722E+03  0.83571219897E+02 0.  0.
        -11    1    4    4    0    0  0.20249535435E+01 -0.20961526094E+01 -0.26508266235E+02  0.26668004644E+02  0.51100000000E-03 0. -1.
     200002    1    4    4    0    0 -0.26667120072E+03 -0.87924377897E+02 -0.35504789513E+03  0.45365541257E+03  0.30000000000E+02 0. -1.
     200000    1    3    3    0    0  0.29573195683E+03  0.26889998114E+02 -0.23562985364E+03  0.39230458857E+03  0.10100000000E+03 0.  1.
    -200001    1    1    2    0    0 -0.31085709662E+02  0.63130532392E+02  0.28883375965E+02  0.61770141239E+03  0.61300000000E+03 0. -1.
<mgrwt>
<rscale>  0 0.13692997E+04</rscale>
<asrwt>0</asrwt>
<pdfrwt beam="1">  1        2 0.14847372E+00 0.13692997E+04</pdfrwt>
<pdfrwt beam="2">  1       -2 0.64430485E-01 0.13692997E+04</pdfrwt>
<totfact> 0.57733627E+01</totfact>
</mgrwt>
</event>
<event>
 8    1  0.7326756E-052  0.1415792E+04  0.7818608E-02  0.8942466E-01
         -2   -1    0    0    0  501 -0.00000000000E+00  0.00000000000E+00  0.18399826246E+03  0.18399826248E+03  0.25500000000E-02 0. -1.
          2   -1    0    0  501    0  0.00000000000E+00 -0.00000000000E+00 -0.27234858466E+04  0.27234858466E+04  0.25500000000E-02 0.  1.
     200001    2    1    2    0    0 -0.14802260612E+03  0.26774953709E+03 -0.16343734587E+04  0.17723184443E+04  0.61346194565E+03 0.  0.
    5000001    2    3    3    0    0 -0.21786675243E+03  0.50639322034E+02 -0.12197734207E+04  0.12884700777E+04  0.34968225669E+03 0.  0.
        -11    1    4    4    0    0  0.55621838199E+02  0.58822143803E+02 -0.72612520687E+02  0.10874930642E+03  0.51100000000E-03 0. -1.
     200002    1    4    4    0    0 -0.27348859063E+03 -0.81828217688E+01 -0.11471609000E+04  0.11797207713E+04  0.30000000000E+02 0. -1.
     200000    1    3    3    0    0  0.69844146314E+02  0.21711021506E+03 -0.41460003804E+03  0.48384836654E+03  0.10100000000E+03 0. -1.
    -200001    1    1    2    0    0  0.14802260612E+03 -0.26774953709E+03 -0.90511412541E+03  0.11351656648E+04  0.61300000000E+03 0. -1.
<mgrwt>
<rscale>  0 0.14157919E+04</rscale>
<asrwt>0</asrwt>
<pdfrwt beam="1">  1        2 0.38906938E+00 0.14157919E+04</pdfrwt>
<pdfrwt beam="2">  1       -2 0.26285468E-01 0.14157919E+04</pdfrwt>
<totfact> 0.42829241E+01</totfact>
</mgrwt>
</event>
<event>
 8    1  0.7326756E-052  0.1429535E+04  0.7818608E-02  0.8932713E-01
         -2   -1    0    0    0  501 -0.00000000000E+00  0.00000000000E+00  0.85713740264E+03  0.85713740265E+03  0.25500000000E-02 0. -1.
          2   -1    0    0  501    0  0.00000000000E+00 -0.00000000000E+00 -0.59604502966E+03  0.59604502967E+03  0.25500000000E-02 0.  1.
     200001    2    1    2    0    0  0.36186679970E+03  0.52060496888E+01  0.42011845513E+02  0.70837375810E+03  0.60749790314E+03 0.  0.
    5000001    2    3    3    0    0  0.11919053062E+03  0.17238632621E+03 -0.19534008718E+03  0.31673877960E+03  0.13506397293E+03 0.  0.
        -11    1    4    4    0    0  0.87477533430E+02  0.17914060371E+03 -0.18362361753E+03  0.27103746543E+03  0.51100000000E-03 0. -1.
     200002    1    4    4    0    0  0.31712997192E+02 -0.67542774958E+01 -0.11716469655E+02  0.45701314166E+02  0.30000000000E+02 0. -1.
     200000    1    3    3    0    0  0.24267626907E+03 -0.16718027652E+03  0.23735193270E+03  0.39163497850E+03  0.10100000000E+03 0. -1.
    -200001    1    1    2    0    0 -0.36186679970E+03 -0.52060496888E+01  0.21908052747E+03  0.74480867422E+03  0.61300000000E+03 0. -1.
<mgrwt>
<rscale>  0 0.14295349E+04</rscale>
<asrwt>0</asrwt>
<pdfrwt beam="1">  1        2 0.85149290E-01 0.14295349E+04</pdfrwt>
<pdfrwt beam="2">  1       -2 0.12244820E+00 0.14295349E+04</pdfrwt>
<totfact> 0.26861493E+01</totfact>
</mgrwt>
</event>
<event>
 8    1  0.7326756E-052  0.1238659E+04  0.7818608E-02  0.9079676E-01
          2   -1    0    0  501    0  0.00000000000E+00  0.00000000000E+00  0.18525675182E+04  0.18525675182E+04  0.25500000000E-02 0.  1.
         -2   -1    0    0    0  501 -0.00000000000E+00 -0.00000000000E+00 -0.20704715522E+03  0.20704715524E+03  0.25500000000E-02 0. -1.
     200001    2    1    2    0    0 -0.63379870938E+02  0.14804793125E+02  0.72606463982E+03  0.95263499125E+03  0.61327593741E+03 0.  0.
    5000001    2    3    3    0    0 -0.26758801760E+03  0.15916481557E+03  0.44627481019E+03  0.56401675698E+03  0.14838096325E+03 0.  0.
        -11    1    4    4    0    0 -0.26671663838E+03  0.13119645385E+03  0.34885964711E+03  0.45831575150E+03  0.51100000000E-03 0. -1.
     200002    1    4    4    0    0 -0.87137921856E+00  0.27968361720E+02  0.97415163086E+02  0.10570100547E+03  0.30000000000E+02 0. -1.
     200000    1    3    3    0    0  0.20420814666E+03 -0.14436002245E+03  0.27978982963E+03  0.38861823427E+03  0.10100000000E+03 0.  1.
    -200001    1    1    2    0    0  0.63379870938E+02 -0.14804793125E+02  0.91945572313E+03  0.11069796822E+04  0.61300000000E+03 0. -1.
<mgrwt>
<rscale>  0 0.12386587E+04</rscale>
<asrwt>0</asrwt>
<pdfrwt beam="1">  1        2 0.26465249E+00 0.12386587E+04</pdfrwt>
<pdfrwt beam="2">  1       -2 0.29578166E-01 0.12386587E+04</pdfrwt>
<totfact> 0.99059580E+01</totfact>
</mgrwt>
</event>
<event>
 8    1  0.7326756E-052  0.1456418E+04  0.7818608E-02  0.8913963E-01
         -2   -1    0    0    0  501 -0.00000000000E+00  0.00000000000E+00  0.13589618162E+04  0.13589618162E+04  0.25500000000E-02 0. -1.
          2   -1    0    0  501    0  0.00000000000E+00 -0.00000000000E+00 -0.39021553973E+03  0.39021553974E+03  0.25500000000E-02 0.  1.
     200001    2    1    2    0    0 -0.24381546984E+03 -0.25141845177E+03  0.69804006620E+03  0.99306355929E+03  0.61339879162E+03 0.  0.
    5000001    2    3    3    0    0  0.38460975979E+02  0.85762629896E+02 -0.41040887903E+02  0.12714628241E+03  0.75148834254E+02 0.  0.
        -11    1    4    4    0    0  0.45599844212E+02  0.54089634213E+02 -0.43190797038E+02  0.82888354252E+02  0.51100000000E-03 0. -1.
     200002    1    4    4    0    0 -0.71388682333E+01  0.31672995683E+02  0.21499091353E+01  0.44257928154E+02  0.30000000000E+02 0.  1.
     200000    1    3    3    0    0 -0.28227644582E+03 -0.33718108167E+03  0.73908095410E+03  0.86591727689E+03  0.10100000000E+03 0. -1.
    -200001    1    1    2    0    0  0.24381546984E+03  0.25141845177E+03  0.27070621029E+03  0.75611379667E+03  0.61300000000E+03 0.  1.
<mgrwt>
<rscale>  0 0.14564175E+04</rscale>
<asrwt>0</asrwt>
<pdfrwt beam="1">  1        2 0.55745077E-01 0.14564175E+04</pdfrwt>
<pdfrwt beam="2">  1       -2 0.19413740E+00 0.14564175E+04</pdfrwt>
<totfact> 0.12544866E+01</totfact>
</mgrwt>
</event>
<event>
 8    1  0.7326756E-052  0.1608727E+04  0.7818608E-02  0.8815204E-01
          2   -1    0    0  501    0  0.00000000000E+00  0.00000000000E+00  0.35567563507E+04  0.35567563507E+04  0.25500000000E-02 0.  1.
         -2   -1    0    0    0  501 -0.00000000000E+00 -0.00000000000E+00 -0.18190754213E+03  0.18190754215E+03  0.25500000000E-02 0. -1.
     200001    2    1    2    0    0 -0.89742624838E+01 -0.26922165879E+03  0.65281220058E+03  0.93548478082E+03  0.61352030689E+03 0.  0.
    5000001    2    3    3    0    0 -0.14959182515E+03 -0.19418462266E+03  0.32639683170E+02  0.28724191963E+03  0.14614099235E+03 0.  0.
        -11    1    4    4    0    0  0.85672857324E+01 -0.92244283502E+02  0.27477456313E+02  0.96630310096E+02  0.51100000000E-03 0. -1.
     200002    1    4    4    0    0 -0.15815911089E+03 -0.10194033916E+03  0.51622268567E+01  0.19061160954E+03  0.30000000000E+02 0. -1.
     200000    1    3    3    0    0  0.14061756267E+03 -0.75037036131E+02  0.62017251741E+03  0.64824286119E+03  0.10100000000E+03 0.  1.
    -200001    1    1    2    0    0  0.89742624838E+01  0.26922165879E+03  0.27220366080E+04  0.28031791120E+04  0.61300000000E+03 0.  1.
<mgrwt>
<rscale>  0 0.16087272E+04</rscale>
<asrwt>0</asrwt>
<pdfrwt beam="1">  1        2 0.50810805E+00 0.16087272E+04</pdfrwt>
<pdfrwt beam="2">  1       -2 0.25986792E-01 0.16087272E+04</pdfrwt>
<totfact> 0.14362952E+01</totfact>
</mgrwt>
</event>
<event>
 8    1  0.7326756E-052  0.1400688E+04  0.7818608E-02  0.8953321E-01
          2   -1    0    0  501    0  0.00000000000E+00  0.00000000000E+00  0.23540465972E+04  0.23540465972E+04  0.25500000000E-02 0.  1.
         -2   -1    0    0    0  501 -0.00000000000E+00 -0.00000000000E+00 -0.20835682282E+03  0.20835682283E+03  0.25500000000E-02 0. -1.
     200001    2    1    2    0    0  0.29138874286E+03  0.15406952751E+03  0.12269105414E+04  0.14097677023E+04  0.61113883786E+03 0.  0.
    5000001    2    3    3    0    0 -0.17705665643E+03  0.73984822000E+02  0.33989396170E+03  0.39840522288E+03  0.79849877510E+02 0.  0.
        -11    1    4    4    0    0 -0.13437003652E+03  0.25817271340E+02  0.22225694854E+03  0.26099806395E+03  0.51100000000E-03 0. -1.
     200002    1    4    4    0    0 -0.42686619907E+02  0.48167550660E+02  0.11763701317E+03  0.13740715892E+03  0.30000000000E+02 0. -1.
     200000    1    3    3    0    0  0.46844539930E+03  0.80084705509E+02  0.88701657968E+03  0.10113624794E+04  0.10100000000E+03 0. -1.
    -200001    1    1    2    0    0 -0.29138874286E+03 -0.15406952751E+03  0.91877923296E+03  0.11526357177E+04  0.61300000000E+03 0. -1.
<mgrwt>
<rscale>  0 0.14006879E+04</rscale>
<asrwt>0</asrwt>
<pdfrwt beam="1">  1        2 0.33629235E+00 0.14006879E+04</pdfrwt>
<pdfrwt beam="2">  1       -2 0.29765262E-01 0.14006879E+04</pdfrwt>
<totfact> 0.53389593E+01</totfact>
</mgrwt>
</event>
<event>
 8    1  0.7326756E-052  0.1271044E+04  0.7818608E-02  0.9052848E-01
         -2   -1    0    0    0  501 -0.00000000000E+00  0.00000000000E+00  0.29358644250E+03  0.29358644251E+03  0.25500000000E-02 0. -1.
          2   -1    0    0  501    0  0.00000000000E+00 -0.00000000000E+00 -0.13757035813E+04  0.13757035813E+04  0.25500000000E-02 0.  1.
     200001    2    1    2    0    0  0.15982782581E+03 -0.83032035116E+01 -0.47919760436E+03  0.79470735643E+03  0.61344564653E+03 0.  0.
    5000001    2    3    3    0    0 -0.12394588068E+03 -0.18269077552E+03 -0.44380102737E+02  0.23774613562E+03  0.76257004163E+02 0.  0.
        -11    1    4    4    0    0 -0.18367823958E+02 -0.75163734836E+02  0.15031835501E+01  0.77390073992E+02  0.51100000000E-03 0. -1.
     200002    1    4    4    0    0 -0.10557805672E+03 -0.10752704069E+03 -0.45883286287E+02  0.16035606162E+03  0.30000000000E+02 0.  1.
     200000    1    3    3    0    0  0.28377370649E+03  0.17438757201E+03 -0.43481750163E+03  0.55696122081E+03  0.10100000000E+03 0.  1.
    -200001    1    1    2    0    0 -0.15982782581E+03  0.83032035116E+01 -0.60291953447E+03  0.87458266741E+03  0.61300000000E+03 0.  1.
<mgrwt>
<rscale>  0 0.12710435E+04</rscale>
<asrwt>0</asrwt>
<pdfrwt beam="1">  1        2 0.19652908E+00 0.12710435E+04</pdfrwt>
<pdfrwt beam="2">  1       -2 0.41940921E-01 0.12710435E+04</pdfrwt>
<totfact> 0.90229264E+01</totfact>
</mgrwt>
</event>
<event>
 8    1  0.7326756E-052  0.1378593E+04  0.7818608E-02  0.8969462E-01
         -2   -1    0    0    0  501 -0.00000000000E+00  0.00000000000E+00  0.17123596100E+04  0.17123596100E+04  0.25500000000E-02 0. -1.
          2   -1    0    0  501    0  0.00000000000E+00 -0.00000000000E+00 -0.27747064365E+03  0.27747064366E+03  0.25500000000E-02 0.  1.
     200001    2    1    2    0    0 -0.26173718601E+03  0.32007718601E+02  0.96627261324E+03  0.11744155524E+04  0.61321960020E+03 0.  0.
    5000001    2    3    3    0    0 -0.29176081140E+03 -0.16775096056E+03  0.85536569774E+03  0.92280813622E+03  0.81606516634E+02 0.  0.
        -11    1    4    4    0    0  0.30920488102E+01 -0.41353369076E+01  0.37819398468E+01  0.64003786178E+01  0.51100000000E-03 0. -1.
     200002    1    4    4    0    0 -0.29485286021E+03 -0.16361562365E+03  0.85158375790E+03  0.91640775760E+03  0.30000000000E+02 0. -1.
     200000    1    3    3    0    0  0.30023625391E+02  0.19975867916E+03  0.11090691550E+03  0.25160741620E+03  0.10100000000E+03 0.  1.
    -200001    1    1    2    0    0  0.26173718601E+03 -0.32007718601E+02  0.46861635310E+03  0.81541470123E+03  0.61300000000E+03 0.  1.
<mgrwt>
<rscale>  0 0.13785928E+04</rscale>
<asrwt>0</asrwt>
<pdfrwt beam="1">  1        2 0.39638664E-01 0.13785928E+04</pdfrwt>
<pdfrwt beam="2">  1       -2 0.24462280E+00 0.13785928E+04</pdfrwt>
<totfact> 0.88207680E+00</totfact>
</mgrwt>
</event>
<event>
 8    1  0.7326756E-052  0.2290243E+04  0.7818608E-02  0.8481778E-01
          2   -1    0    0  501    0  0.00000000000E+00  0.00000000000E+00  0.10483539163E+04  0.10483539163E+04  0.25500000000E-02 0.  1.
         -2   -1    0    0    0  501 -0.00000000000E+00 -0.00000000000E+00 -0.12508214158E+04  0.12508214158E+04  0.25500000000E-02 0. -1.
     200001    2    1    2    0    0  0.13439692297E+03 -0.38037653889E+03 -0.98387861636E+03  0.12272046339E+04  0.61258896296E+03 0.  0.
    5000001    2    3    3    0    0  0.16886008702E+02 -0.31668404353E+03 -0.99873623948E+03  0.10590163528E+04  0.15319151006E+03 0.  0.
        -11    1    4    4    0    0  0.49791086566E+02 -0.21258934203E+03 -0.81012815983E+03  0.83903576562E+03  0.51100000000E-03 0. -1.
     200002    1    4    4    0    0 -0.32905077863E+02 -0.10409470150E+03 -0.18860807965E+03  0.21998058718E+03  0.30000000000E+02 0. -1.
     200000    1    3    3    0    0  0.11751091427E+03 -0.63692495367E+02  0.14857623120E+02  0.16818828111E+03  0.10100000000E+03 0. -1.
    -200001    1    1    2    0    0 -0.13439692297E+03  0.38037653889E+03  0.78141111681E+03  0.10719706982E+04  0.61300000000E+03 0.  1.
<mgrwt>
<rscale>  0 0.22902432E+04</rscale>
<asrwt>0</asrwt>
<pdfrwt beam="1">  1        2 0.14976485E+00 0.22902432E+04</pdfrwt>
<pdfrwt beam="2">  1       -2 0.17868877E+00 0.22902432E+04</pdfrwt>
<totfact> 0.44282541E+00</totfact>
</mgrwt>
</event>
<event>
 8    1  0.7326756E-052  0.1383990E+04  0.7818608E-02  0.8965490E-01
          2   -1    0    0  501    0  0.00000000000E+00  0.00000000000E+00  0.29893276125E+04  0.29893276125E+04  0.25500000000E-02 0.  1.
         -2   -1    0    0    0  501 -0.00000000000E+00 -0.00000000000E+00 -0.16018889966E+03  0.16018889968E+03  0.25500000000E-02 0. -1.
     200001    2    1    2    0    0 -0.19364294640E+03 -0.62867362698E+02  0.84981041012E+03  0.10674599745E+04  0.61306049302E+03 0.  0.
    5000001    2    3    3    0    0  0.12759383611E+03  0.14312083093E+03  0.23635231074E+03  0.33796971000E+03  0.14696037162E+03 0.  0.
        -11    1    4    4    0    0  0.14917720434E+03  0.10435825950E+03  0.21109013212E+03  0.27875352644E+03  0.51100000000E-03 0. -1.
     200002    1    4    4    0    0 -0.21583368225E+02  0.38762571427E+02  0.25262178616E+02  0.59216183565E+02  0.30000000000E+02 0. -1.
     200000    1    3    3    0    0 -0.32123678252E+03 -0.20598819362E+03  0.61345809938E+03  0.72949026454E+03  0.10100000000E+03 0. -1.
    -200001    1    1    2    0    0  0.19364294640E+03  0.62867362698E+02  0.19793283027E+04  0.20820565376E+04  0.61300000000E+03 0.  1.
<mgrwt>
<rscale>  0 0.13839900E+04</rscale>
<asrwt>0</asrwt>
<pdfrwt beam="1">  1        2 0.42704680E+00 0.13839900E+04</pdfrwt>
<pdfrwt beam="2">  1       -2 0.22884129E-01 0.13839900E+04</pdfrwt>
<totfact> 0.39513740E+01</totfact>
</mgrwt>
</event>
<event>
 8    1  0.7326756E-052  0.1808685E+04  0.7818608E-02  0.8701695E-01
          2   -1    0    0  501    0  0.00000000000E+00  0.00000000000E+00  0.26805703369E+04  0.26805703369E+04  0.25500000000E-02 0.  1.
         -2   -1    0    0    0  501 -0.00000000000E+00 -0.00000000000E+00 -0.30509739798E+03  0.30509739799E+03  0.25500000000E-02 0. -1.
     200001    2    1    2    0    0 -0.51957740681E+03  0.29333886576E+03  0.16722781816E+04  0.18783013825E+04  0.61277515840E+03 0.  0.
    5000001    2    3    3    0    0 -0.37460509230E+03  0.76710916586E+01  0.13804603836E+04  0.14333500633E+04  0.91835246951E+02 0.  0.
        -11    1    4    4    0    0 -0.30805854360E+03  0.28761375171E+02  0.11332108387E+04  0.11746889324E+04  0.51100000000E-03 0. -1.
     200002    1    4    4    0    0 -0.66546548694E+02 -0.21090283512E+02  0.24724954489E+03  0.25866113093E+03  0.30000000000E+02 0.  1.
     200000    1    3    3    0    0 -0.14497231451E+03  0.28566777410E+03  0.29181779804E+03  0.44495131912E+03  0.10100000000E+03 0. -1.
    -200001    1    1    2    0    0  0.51957740681E+03 -0.29333886576E+03  0.70319475730E+03  0.11073663524E+04  0.61300000000E+03 0. -1.
<mgrwt>
<rscale>  0 0.18086846E+04</rscale>
<asrwt>0</asrwt>
<pdfrwt beam="1">  1        2 0.38293862E+00 0.18086846E+04</pdfrwt>
<pdfrwt beam="2">  1       -2 0.43585343E-01 0.18086846E+04</pdfrwt>
<totfact> 0.16693674E+01</totfact>
</mgrwt>
</event>
<event>
 8    1  0.7326756E-052  0.1316569E+04  0.7818608E-02  0.9016528E-01
         -2   -1    0    0    0  501 -0.00000000000E+00  0.00000000000E+00  0.28505661195E+03  0.28505661196E+03  0.25500000000E-02 0. -1.
          2   -1    0    0  501    0  0.00000000000E+00 -0.00000000000E+00 -0.15201840895E+04  0.15201840895E+04  0.25500000000E-02 0.  1.
     200001    2    1    2    0    0  0.37003076227E+02 -0.20541896565E+03 -0.78049451536E+03  0.10140224576E+04  0.61278354815E+03 0.  0.
    5000001    2    3    3    0    0  0.30393720692E+03 -0.11953930907E+03 -0.31031292496E+03  0.45733504665E+03  0.78700453170E+02 0.  0.
        -11    1    4    4    0    0  0.30777948531E+01 -0.12521616226E+02 -0.24711652075E+02  0.27873454084E+02  0.51100000000E-03 0. -1.
     200002    1    4    4    0    0  0.30085941207E+03 -0.10701769285E+03 -0.28560127289E+03  0.42946159256E+03  0.30000000000E+02 0. -1.
     200000    1    3    3    0    0 -0.26693413070E+03 -0.85879656577E+02 -0.47018159040E+03  0.55668741094E+03  0.10100000000E+03 0. -1.
    -200001    1    1    2    0    0 -0.37003076227E+02  0.20541896565E+03 -0.45463296215E+03  0.79121824383E+03  0.61300000000E+03 0. -1.
<mgrwt>
<rscale>  0 0.13165691E+04</rscale>
<asrwt>0</asrwt>
<pdfrwt beam="1">  1        2 0.21716915E+00 0.13165691E+04</pdfrwt>
<pdfrwt beam="2">  1       -2 0.40722374E-01 0.13165691E+04</pdfrwt>
<totfact> 0.79728567E+01</totfact>
</mgrwt>
</event>
<event>
 8    1  0.7326756E-052  0.1419447E+04  0.7818608E-02  0.8939861E-01
          2   -1    0    0  501    0  0.00000000000E+00  0.00000000000E+00  0.22718512416E+04  0.22718512416E+04  0.25500000000E-02 0.  1.
         -2   -1    0    0    0  501 -0.00000000000E+00 -0.00000000000E+00 -0.22171672741E+03  0.22171672743E+03  0.25500000000E-02 0. -1.
     200001    2    1    2    0    0  0.34683666478E+03  0.25879744218E+02  0.88487147998E+03  0.11317411180E+04  0.61390144890E+03 0.  0.
    5000001    2    3    3    0    0  0.40313428830E+03  0.16492333893E+02  0.91847755176E+03  0.10109606811E+04  0.12510489260E+03 0.  0.
        -11    1    4    4    0    0  0.88829555315E+02  0.10013695311E+01  0.10109287337E+03  0.13457883075E+03  0.51100000000E-03 0. -1.
     200002    1    4    4    0    0  0.31430473298E+03  0.15490964362E+02  0.81738467839E+03  0.87638185035E+03  0.30000000000E+02 0. -1.
     200000    1    3    3    0    0 -0.56297623517E+02  0.93874103248E+01 -0.33606071781E+02  0.12078043694E+03  0.10100000000E+03 0. -1.
    -200001    1    1    2    0    0 -0.34683666478E+03 -0.25879744218E+02  0.11652630342E+04  0.13618268510E+04  0.61300000000E+03 0. -1.
<mgrwt>
<rscale>  0 0.14194470E+04</rscale>
<asrwt>0</asrwt>
<pdfrwt beam="1">  1        2 0.32455018E+00 0.14194470E+04</pdfrwt>
<pdfrwt beam="2">  1       -2 0.31673818E-01 0.14194470E+04</pdfrwt>
<totfact> 0.52349546E+01</totfact>
</mgrwt>
</event>
<event>
 8    1  0.7326756E-052  0.2085123E+04  0.7818608E-02  0.8567825E-01
         -2   -1    0    0    0  501 -0.00000000000E+00  0.00000000000E+00  0.40931274896E+03  0.40931274897E+03  0.25500000000E-02 0. -1.
          2   -1    0    0  501    0  0.00000000000E+00 -0.00000000000E+00 -0.26555100246E+04  0.26555100246E+04  0.25500000000E-02 0.  1.
     200001    2    1    2    0    0  0.39178102638E+03 -0.72561632804E+03 -0.13806475209E+04  0.17213359645E+04  0.61383914642E+03 0.  0.
    5000001    2    3    3    0    0  0.15523609476E+01  0.43462717773E+02 -0.17999860198E+02  0.10554803376E+03  0.94472084777E+02 0.  0.
        -11    1    4    4    0    0 -0.41042107999E+02  0.10790708068E+02 -0.54619676824E+01  0.42786996866E+02  0.51100000000E-03 0. -1.
     200002    1    4    4    0    0  0.42594468946E+02  0.32672009704E+02 -0.12537892516E+02  0.62761036891E+02  0.30000000000E+02 0. -1.
     200000    1    3    3    0    0  0.39022866544E+03 -0.76907904582E+03 -0.13626476607E+04  0.16157879307E+04  0.10100000000E+03 0.  1.
    -200001    1    1    2    0    0 -0.39178102638E+03  0.72561632804E+03 -0.86554975482E+03  0.13434868091E+04  0.61300000000E+03 0. -1.
<mgrwt>
<rscale>  0 0.20851226E+04</rscale>
<asrwt>0</asrwt>
<pdfrwt beam="1">  1        2 0.37935856E+00 0.20851226E+04</pdfrwt>
<pdfrwt beam="2">  1       -2 0.58473252E-01 0.20851226E+04</pdfrwt>
<totfact> 0.92302215E+00</totfact>
</mgrwt>
</event>
<event>
 8    1  0.7326756E-052  0.2105489E+04  0.7818608E-02  0.8558829E-01
          2   -1    0    0  501    0  0.00000000000E+00  0.00000000000E+00  0.13123297672E+04  0.13123297672E+04  0.25500000000E-02 0.  1.
         -2   -1    0    0    0  501 -0.00000000000E+00 -0.00000000000E+00 -0.84450655211E+03  0.84450655211E+03  0.25500000000E-02 0. -1.
     200001    2    1    2    0    0 -0.33388194875E+03 -0.49788831394E+03  0.86070960043E+03  0.12137039635E+04  0.61064422202E+03 0.  0.
    5000001    2    3    3    0    0 -0.20484199100E+03 -0.52392960072E+03  0.37118793762E+03  0.69682688171E+03  0.17698799468E+03 0.  0.
        -11    1    4    4    0    0  0.82389983191E+01 -0.31311368547E+02  0.78122149919E+02  0.84565673898E+02  0.51100000000E-03 0. -1.
     200002    1    4    4    0    0 -0.21308098932E+03 -0.49261823217E+03  0.29306578770E+03  0.61226120781E+03  0.30000000000E+02 0. -1.
     200000    1    3    3    0    0 -0.12903995776E+03  0.26041286781E+02  0.48952166281E+03  0.51687708179E+03  0.10100000000E+03 0.  1.
    -200001    1    1    2    0    0  0.33388194875E+03  0.49788831394E+03 -0.39288638531E+03  0.94313235584E+03  0.61300000000E+03 0. -1.
<mgrwt>
<rscale>  0 0.21054891E+04</rscale>
<asrwt>0</asrwt>
<pdfrwt beam="1">  1        2 0.18747568E+00 0.21054891E+04</pdfrwt>
<pdfrwt beam="2">  1       -2 0.12064379E+00 0.21054891E+04</pdfrwt>
<totfact> 0.89606544E+00</totfact>
</mgrwt>
</event>
<event>
 8    1  0.7326756E-052  0.1909886E+04  0.7818608E-02  0.8649951E-01
         -2   -1    0    0    0  501 -0.00000000000E+00  0.00000000000E+00  0.47670265342E+03  0.47670265343E+03  0.25500000000E-02 0. -1.
          2   -1    0    0  501    0  0.00000000000E+00 -0.00000000000E+00 -0.19129660229E+04  0.19129660229E+04  0.25500000000E-02 0.  1.
     200001    2    1    2    0    0 -0.26860418396E+03  0.51811319410E+03 -0.12717747434E+04  0.15274535073E+04  0.61246528839E+03 0.  0.
    5000001    2    3    3    0    0 -0.27556588157E+03  0.18704411286E+03 -0.19264872777E+03  0.39415338845E+03  0.85564630991E+02 0.  0.
        -11    1    4    4    0    0 -0.67179314241E+02  0.27943093192E+02 -0.77294064628E+02  0.10615200962E+03  0.51100000000E-03 0. -1.
     200002    1    4    4    0    0 -0.20838656733E+03  0.15910101966E+03 -0.11535466315E+03  0.28800137883E+03  0.30000000000E+02 0. -1.
     200000    1    3    3    0    0  0.69616976123E+01  0.33106908124E+03 -0.10791260156E+04  0.11333001188E+04  0.10100000000E+03 0.  1.
    -200001    1    1    2    0    0  0.26860418396E+03 -0.51811319410E+03 -0.16448862605E+03  0.86221516899E+03  0.61300000000E+03 0.  1.
<mgrwt>
<rscale>  0 0.19098858E+04</rscale>
<asrwt>0</asrwt>
<pdfrwt beam="1">  1        2 0.27328086E+00 0.19098858E+04</pdfrwt>
<pdfrwt beam="2">  1       -2 0.68100380E-01 0.19098858E+04</pdfrwt>
<totfact> 0.16488334E+01</totfact>
</mgrwt>
</event>
<event>
 8    1  0.7326756E-052  0.1335604E+04  0.7818608E-02  0.9001798E-01
         -2   -1    0    0    0  501 -0.00000000000E+00  0.00000000000E+00  0.39446302136E+03  0.39446302136E+03  0.25500000000E-02 0.  1.
          2   -1    0    0  501    0  0.00000000000E+00 -0.00000000000E+00 -0.11305482029E+04  0.11305482029E+04  0.25500000000E-02 0. -1.
     200001    2    1    2    0    0  0.14471596843E+03  0.55700267296E+02 -0.61317917933E+03  0.88086829240E+03  0.61310277384E+03 0.  0.
    5000001    2    3    3    0    0  0.17970390342E+02  0.29929960080E+03 -0.43909731787E+03  0.54041187619E+03  0.96619642924E+02 0.  0.
        -11    1    4    4    0    0  0.36297629417E+02  0.16081896578E+03 -0.29214871640E+03  0.33545659950E+03  0.51100000000E-03 0. -1.
     200002    1    4    4    0    0 -0.18327239075E+02  0.13848063502E+03 -0.14694860147E+03  0.20495527669E+03  0.30000000000E+02 0.  1.
     200000    1    3    3    0    0  0.12674557809E+03 -0.24359933350E+03 -0.17408186145E+03  0.34045641620E+03  0.10100000000E+03 0. -1.
    -200001    1    1    2    0    0 -0.14471596843E+03 -0.55700267296E+02 -0.12290600221E+03  0.64414293187E+03  0.61300000000E+03 0.  1.
<mgrwt>
<rscale>  0 0.13356039E+04</rscale>
<asrwt>0</asrwt>
<pdfrwt beam="1">  1        2 0.16150689E+00 0.13356039E+04</pdfrwt>
<pdfrwt beam="2">  1       -2 0.56351861E-01 0.13356039E+04</pdfrwt>
<totfact> 0.67793424E+01</totfact>
</mgrwt>
</event>
<event>
 8    1  0.7326756E-052  0.2011512E+04  0.7818608E-02  0.8601257E-01
         -2   -1    0    0    0  501 -0.00000000000E+00  0.00000000000E+00  0.34242324704E+03  0.34242324705E+03  0.25500000000E-02 0. -1.
          2   -1    0    0  501    0  0.00000000000E+00 -0.00000000000E+00 -0.29540774048E+04  0.29540774048E+04  0.25500000000E-02 0.  1.
     200001    2    1    2    0    0  0.36998898210E+03  0.47894322608E+03 -0.21564171515E+04  0.23221864353E+04  0.61329963988E+03 0.  0.
    5000001    2    3    3    0    0  0.97518465816E+02  0.38479876200E+03 -0.54905701512E+03  0.68605961551E+03  0.10786218881E+03 0.  0.
        -11    1    4    4    0    0  0.54748146505E+02  0.33155387091E+03 -0.46435418793E+03  0.57319293497E+03  0.51100000000E-03 0. -1.
     200002    1    4    4    0    0  0.42770319312E+02  0.53244891093E+02 -0.84702827189E+02  0.11286668054E+03  0.30000000000E+02 0.  1.
     200000    1    3    3    0    0  0.27247051628E+03  0.94144464084E+02 -0.16073601364E+04  0.16361268198E+04  0.10100000000E+03 0.  1.
    -200001    1    1    2    0    0 -0.36998898210E+03 -0.47894322608E+03 -0.45523700623E+03  0.97431421653E+03  0.61300000000E+03 0. -1.
<mgrwt>
<rscale>  0 0.20115116E+04</rscale>
<asrwt>0</asrwt>
<pdfrwt beam="1">  1        2 0.42201104E+00 0.20115116E+04</pdfrwt>
<pdfrwt beam="2">  1       -2 0.48917608E-01 0.20115116E+04</pdfrwt>
<totfact> 0.92321376E+00</totfact>
</mgrwt>
</event>
<event>
 8    1  0.7326756E-052  0.1929447E+04  0.7818608E-02  0.8640336E-01
          2   -1    0    0  501    0  0.00000000000E+00  0.00000000000E+00  0.30391058151E+04  0.30391058151E+04  0.25500000000E-02 0.  1.
         -2   -1    0    0    0  501 -0.00000000000E+00 -0.00000000000E+00 -0.30623863939E+03  0.30623863940E+03  0.25500000000E-02 0. -1.
     200001    2    1    2    0    0 -0.19545157390E+03 -0.41885794349E+03  0.35230480123E+03  0.84404688857E+03  0.61208919495E+03 0.  0.
    5000001    2    3    3    0    0 -0.28667644367E+03 -0.50656532858E+03  0.19998352833E+03  0.62174679311E+03  0.88226116661E+02 0.  0.
        -11    1    4    4    0    0 -0.13178071819E+03 -0.27769112760E+03  0.13801805422E+03  0.33693842661E+03  0.51100000000E-03 0. -1.
     200002    1    4    4    0    0 -0.15489572548E+03 -0.22887420098E+03  0.61965474112E+02  0.28480836650E+03  0.30000000000E+02 0. -1.
     200000    1    3    3    0    0  0.91224869775E+02  0.87707385092E+02  0.15232127290E+03  0.22230009546E+03  0.10100000000E+03 0.  1.
    -200001    1    1    2    0    0  0.19545157390E+03  0.41885794349E+03  0.23805623745E+04  0.25012975659E+04  0.61300000000E+03 0.  1.
<mgrwt>
<rscale>  0 0.19294472E+04</rscale>
<asrwt>0</asrwt>
<pdfrwt beam="1">  1        2 0.43415800E+00 0.19294472E+04</pdfrwt>
<pdfrwt beam="2">  1       -2 0.43748375E-01 0.19294472E+04</pdfrwt>
<totfact> 0.10429894E+01</totfact>
</mgrwt>
</event>
<event>
 8    1  0.7326756E-052  0.1294822E+04  0.7818608E-02  0.9033681E-01
          2   -1    0    0  501    0  0.00000000000E+00  0.00000000000E+00  0.22585505010E+04  0.22585505010E+04  0.25500000000E-02 0.  1.
         -2   -1    0    0    0  501 -0.00000000000E+00 -0.00000000000E+00 -0.18557975831E+03  0.18557975833E+03  0.25500000000E-02 0. -1.
     200001    2    1    2    0    0 -0.74108424768E+01 -0.59911509416E+02  0.64662580380E+03  0.89046581865E+03  0.60922913135E+03 0.  0.
    5000001    2    3    3    0    0 -0.26495365794E+03  0.18582158882E+01  0.46453827553E+03  0.55356721563E+03  0.14295789228E+03 0.  0.
        -11    1    4    4    0    0 -0.23436550100E+03 -0.17740309984E+02  0.44358153392E+03  0.50200247399E+03  0.51100000000E-03 0. -1.
     200002    1    4    4    0    0 -0.30588156940E+02  0.19598525873E+02  0.20956741610E+02  0.51564741639E+02  0.30000000000E+02 0. -1.
     200000    1    3    3    0    0  0.25754281547E+03 -0.61769725304E+02  0.18208752827E+03  0.33689860302E+03  0.10100000000E+03 0. -1.
    -200001    1    1    2    0    0  0.74108424768E+01  0.59911509416E+02  0.14263449389E+04  0.15536644407E+04  0.61300000000E+03 0.  1.
<mgrwt>
<rscale>  0 0.12948224E+04</rscale>
<asrwt>0</asrwt>
<pdfrwt beam="1">  1        2 0.32265007E+00 0.12948224E+04</pdfrwt>
<pdfrwt beam="2">  1       -2 0.26511394E-01 0.12948224E+04</pdfrwt>
<totfact> 0.74680114E+01</totfact>
</mgrwt>
</event>
<event>
 8    1  0.7326756E-052  0.2187240E+04  0.7818608E-02  0.8523758E-01
         -2   -1    0    0    0  501 -0.00000000000E+00  0.00000000000E+00  0.11508660525E+04  0.11508660525E+04  0.25500000000E-02 0. -1.
          2   -1    0    0  501    0  0.00000000000E+00 -0.00000000000E+00 -0.10392210723E+04  0.10392210723E+04  0.25500000000E-02 0.  1.
     200001    2    1    2    0    0 -0.22369763309E+03 -0.59360187135E+03  0.70399546046E+03  0.11275185839E+04  0.61097032339E+03 0.  0.
    5000001    2    3    3    0    0  0.98732072046E+02 -0.27843049972E+03  0.32001025534E+02  0.31199946778E+03  0.95121170273E+02 0.  0.
        -11    1    4    4    0    0  0.27633135191E+02 -0.15823372420E+03 -0.15734663194E+02  0.16139727774E+03  0.51100000000E-03 0. -1.
     200002    1    4    4    0    0  0.71098936854E+02 -0.12019677552E+03  0.47735688727E+02  0.15060219004E+03  0.30000000000E+02 0. -1.
     200000    1    3    3    0    0 -0.32242970513E+03 -0.31517137163E+03  0.67199443492E+03  0.81551911615E+03  0.10100000000E+03 0. -1.
    -200001    1    1    2    0    0  0.22369763309E+03  0.59360187135E+03 -0.59235048026E+03  0.10625685409E+04  0.61300000000E+03 0.  1.
<mgrwt>
<rscale>  0 0.21872396E+04</rscale>
<asrwt>0</asrwt>
<pdfrwt beam="1">  1        2 0.14846015E+00 0.21872396E+04</pdfrwt>
<pdfrwt beam="2">  1       -2 0.16440943E+00 0.21872396E+04</pdfrwt>
<totfact> 0.57098297E+00</totfact>
</mgrwt>
</event>
<event>
 8    1  0.7326756E-052  0.1448372E+04  0.7818608E-02  0.8919530E-01
         -2   -1    0    0    0  501 -0.00000000000E+00  0.00000000000E+00  0.43691179024E+03  0.43691179025E+03  0.25500000000E-02 0. -1.
          2   -1    0    0  501    0  0.00000000000E+00 -0.00000000000E+00 -0.12003460905E+04  0.12003460905E+04  0.25500000000E-02 0.  1.
     200001    2    1    2    0    0 -0.35017827658E+02 -0.20584329339E+02 -0.81428892057E+03  0.10208122990E+04  0.61428115776E+03 0.  0.
    5000001    2    3    3    0    0  0.11780233169E+03  0.25201005504E+03 -0.34900905605E+03  0.45129666988E+03  0.66894737029E+02 0.  0.
        -11    1    4    4    0    0  0.52669659951E+02  0.16556525823E+03 -0.20756806283E+03  0.27068514647E+03  0.51100000000E-03 0. -1.
     200002    1    4    4    0    0  0.65132671743E+02  0.86444796811E+02 -0.14144099322E+03  0.18061152341E+03  0.30000000000E+02 0. -1.
     200000    1    3    3    0    0 -0.15282015935E+03 -0.27259438438E+03 -0.46527986452E+03  0.56951562914E+03  0.10100000000E+03 0.  1.
    -200001    1    1    2    0    0  0.35017827658E+02  0.20584329339E+02  0.50854620292E+02  0.61644558176E+03  0.61300000000E+03 0. -1.
<mgrwt>
<rscale>  0 0.14483720E+04</rscale>
<asrwt>0</asrwt>
<pdfrwt beam="1">  1        2 0.17147801E+00 0.14483720E+04</pdfrwt>
<pdfrwt beam="2">  1       -2 0.62415970E-01 0.14483720E+04</pdfrwt>
<totfact> 0.49411840E+01</totfact>
</mgrwt>
</event>
<event>
 8    1  0.7326756E-052  0.1737277E+04  0.7818608E-02  0.8740385E-01
         -2   -1    0    0    0  501 -0.00000000000E+00  0.00000000000E+00  0.11008524574E+04  0.11008524574E+04  0.25500000000E-02 0. -1.
          2   -1    0    0  501    0  0.00000000000E+00 -0.00000000000E+00 -0.68540752619E+03  0.68540752620E+03  0.25500000000E-02 0.  1.
     200001    2    1    2    0    0  0.17302282254E+03  0.31358240381E+03  0.72222968057E+03  0.10128540723E+04  0.61317765715E+03 0.  0.
    5000001    2    3    3    0    0  0.72341433627E+02  0.10083097735E+02 -0.84934820253E+02  0.13880367203E+03  0.81960867486E+02 0.  0.
        -11    1    4    4    0    0  0.24291172509E+02 -0.31998244546E+01  0.10799430331E+02  0.26775504367E+02  0.51100000000E-03 0. -1.
     200002    1    4    4    0    0  0.48050261118E+02  0.13282922190E+02 -0.95734250585E+02  0.11202816767E+03  0.30000000000E+02 0. -1.
     200000    1    3    3    0    0  0.10068138891E+03  0.30349930607E+03  0.80716450083E+03  0.87405040030E+03  0.10100000000E+03 0. -1.
    -200001    1    1    2    0    0 -0.17302282254E+03 -0.31358240381E+03 -0.30678474939E+03  0.77340591125E+03  0.61300000000E+03 0.  1.
<mgrwt>
<rscale>  0 0.17372767E+04</rscale>
<asrwt>0</asrwt>
<pdfrwt beam="1">  1        2 0.97915362E-01 0.17372767E+04</pdfrwt>
<pdfrwt beam="2">  1       -2 0.15726464E+00 0.17372767E+04</pdfrwt>
<totfact> 0.11595567E+01</totfact>
</mgrwt>
</event>
<event>
 8    1  0.7326756E-052  0.1448050E+04  0.7818608E-02  0.8919753E-01
         -2   -1    0    0    0  501 -0.00000000000E+00  0.00000000000E+00  0.36457677783E+03  0.36457677784E+03  0.25500000000E-02 0. -1.
          2   -1    0    0  501    0  0.00000000000E+00 -0.00000000000E+00 -0.14378659168E+04  0.14378659168E+04  0.25500000000E-02 0.  1.
     200001    2    1    2    0    0  0.34314971355E+03  0.12066886519E+03 -0.38030558507E+03  0.80830592994E+03  0.61352541708E+03 0.  0.
    5000001    2    3    3    0    0  0.34051711925E+03  0.32443984815E+03 -0.26312214230E+03  0.55244951843E+03  0.12146639486E+03 0.  0.
        -11    1    4    4    0    0  0.12834927267E+03  0.18282108959E+03 -0.16409758714E+03  0.27717341990E+03  0.51100000000E-03 0. -1.
     200002    1    4    4    0    0  0.21216784658E+03  0.14161875855E+03 -0.99024555157E+02  0.27527609853E+03  0.30000000000E+02 0. -1.
     200000    1    3    3    0    0  0.26325942944E+01 -0.20377098296E+03 -0.11718344277E+03  0.25585641150E+03  0.10100000000E+03 0.  1.
    -200001    1    1    2    0    0 -0.34314971355E+03 -0.12066886519E+03 -0.69298355387E+03  0.99413676467E+03  0.61300000000E+03 0. -1.
<mgrwt>
<rscale>  0 0.14480504E+04</rscale>
<asrwt>0</asrwt>
<pdfrwt beam="1">  1        2 0.20540941E+00 0.14480504E+04</pdfrwt>
<pdfrwt beam="2">  1       -2 0.52082398E-01 0.14480504E+04</pdfrwt>
<totfact> 0.53337651E+01</totfact>
</mgrwt>
</event>
<event>
 8    1  0.7326756E-052  0.1528554E+04  0.7818608E-02  0.8865684E-01
         -2   -1    0    0    0  501 -0.00000000000E+00  0.00000000000E+00  0.31495394625E+03  0.31495394626E+03  0.25500000000E-02 0. -1.
          2   -1    0    0  501    0  0.00000000000E+00 -0.00000000000E+00 -0.18546187225E+04  0.18546187225E+04  0.25500000000E-02 0.  1.
     200001    2    1    2    0    0  0.30303438131E+03  0.34086248626E+03 -0.73049732977E+03  0.10566764349E+04  0.61230847501E+03 0.  0.
    5000001    2    3    3    0    0  0.27555044540E+03  0.44764389591E+03 -0.69559314473E+03  0.90312859773E+03  0.23553839504E+03 0.  0.
        -11    1    4    4    0    0  0.25895484183E+03  0.36393372967E+03 -0.67653837487E+03  0.81068461338E+03  0.51100000000E-03 0. -1.
     200002    1    4    4    0    0  0.16595603573E+02  0.83710166232E+02 -0.19054769865E+02  0.92443984354E+02  0.30000000000E+02 0. -1.
     200000    1    3    3    0    0  0.27483935909E+02 -0.10678140965E+03 -0.34904185035E+02  0.15354783721E+03  0.10100000000E+03 0. -1.
    -200001    1    1    2    0    0 -0.30303438131E+03 -0.34086248626E+03 -0.80916744649E+03  0.11128962338E+04  0.61300000000E+03 0.  1.
<mgrwt>
<rscale>  0 0.15285542E+04</rscale>
<asrwt>0</asrwt>
<pdfrwt beam="1">  1        2 0.26494553E+00 0.15285542E+04</pdfrwt>
<pdfrwt beam="2">  1       -2 0.44993422E-01 0.15285542E+04</pdfrwt>
<totfact> 0.43129707E+01</totfact>
</mgrwt>
</event>
<event>
 8    1  0.7326756E-052  0.1427723E+04  0.7818608E-02  0.8933992E-01
          2   -1    0    0  501    0  0.00000000000E+00  0.00000000000E+00  0.25317877244E+04  0.25317877244E+04  0.25500000000E-02 0.  1.
         -2   -1    0    0    0  501 -0.00000000000E+00 -0.00000000000E+00 -0.20127995521E+03  0.20127995523E+03  0.25500000000E-02 0. -1.
     200001    2    1    2    0    0  0.29052115848E+03  0.20670838202E+03  0.13832282973E+04  0.15497510286E+04  0.60106308277E+03 0.  0.
    5000001    2    3    3    0    0  0.38385286042E+03  0.28412417255E+03  0.71899543476E+03  0.86702831264E+03  0.81939586391E+02 0.  0.
        -11    1    4    4    0    0  0.64187867947E+02  0.50714908588E+02  0.77708530686E+02  0.11283040409E+03  0.51100000000E-03 0. -1.
     200002    1    4    4    0    0  0.31966499248E+03  0.23340926397E+03  0.64128690408E+03  0.75419790855E+03  0.30000000000E+02 0. -1.
     200000    1    3    3    0    0 -0.93331701947E+02 -0.77415790530E+02  0.66423286257E+03  0.68272271599E+03  0.10100000000E+03 0.  1.
    -200001    1    1    2    0    0 -0.29052115848E+03 -0.20670838202E+03  0.94727947184E+03  0.11833166510E+04  0.61300000000E+03 0.  1.
<mgrwt>
<rscale>  0 0.14277228E+04</rscale>
<asrwt>0</asrwt>
<pdfrwt beam="1">  1        2 0.36168396E+00 0.14277228E+04</pdfrwt>
<pdfrwt beam="2">  1       -2 0.28754279E-01 0.14277228E+04</pdfrwt>
<totfact> 0.45864136E+01</totfact>
</mgrwt>
</event>
<event>
 8    1  0.7326756E-052  0.1489521E+04  0.7818608E-02  0.8891452E-01
         -2   -1    0    0    0  501 -0.00000000000E+00  0.00000000000E+00  0.32879844441E+03  0.32879844442E+03  0.25500000000E-02 0. -1.
          2   -1    0    0  501    0  0.00000000000E+00 -0.00000000000E+00 -0.16869545713E+04  0.16869545713E+04  0.25500000000E-02 0.  1.
     200001    2    1    2    0    0  0.35937632700E+03 -0.19698511090E+03 -0.53525290965E+03  0.91081266291E+03  0.61247820475E+03 0.  0.
    5000001    2    3    3    0    0  0.15399004906E+03 -0.46414836222E+02  0.90487175388E+02  0.22772658868E+03  0.13343237257E+03 0.  0.
        -11    1    4    4    0    0  0.68843237615E+02 -0.50435541671E+01 -0.26798098545E+02  0.74047058617E+02  0.51100000000E-03 0. -1.
     200002    1    4    4    0    0  0.85146811448E+02 -0.41371282054E+02  0.11728527393E+03  0.15367953006E+03  0.30000000000E+02 0. -1.
     200000    1    3    3    0    0  0.20538627794E+03 -0.15057027468E+03 -0.62574008504E+03  0.68308607423E+03  0.10100000000E+03 0.  1.
    -200001    1    1    2    0    0 -0.35937632700E+03  0.19698511090E+03 -0.82290321723E+03  0.11049403528E+04  0.61300000000E+03 0. -1.
<mgrwt>
<rscale>  0 0.14895208E+04</rscale>
<asrwt>0</asrwt>
<pdfrwt beam="1">  1        2 0.24099350E+00 0.14895208E+04</pdfrwt>
<pdfrwt beam="2">  1       -2 0.46971207E-01 0.14895208E+04</pdfrwt>
<totfact> 0.48461132E+01</totfact>
</mgrwt>
</event>
<event>
 8    1  0.7326756E-052  0.1458892E+04  0.7818608E-02  0.8912259E-01
         -2   -1    0    0    0  501 -0.00000000000E+00  0.00000000000E+00  0.56194465906E+03  0.56194465907E+03  0.25500000000E-02 0. -1.
          2   -1    0    0  501    0  0.00000000000E+00 -0.00000000000E+00 -0.94687476180E+03  0.94687476181E+03  0.25500000000E-02 0.  1.
     200001    2    1    2    0    0 -0.17061597745E+03  0.27231943310E+03 -0.43040474983E+03  0.81520235871E+03  0.61322014934E+03 0.  0.
    5000001    2    3    3    0    0 -0.24002475526E+03  0.40498718122E+03 -0.19541515685E+03  0.51882520264E+03  0.96778134324E+02 0.  0.
        -11    1    4    4    0    0 -0.12058486710E+03  0.27875742295E+03 -0.13547417614E+03  0.33256527694E+03  0.51100000000E-03 0. -1.
     200002    1    4    4    0    0 -0.11943988816E+03  0.12622975827E+03 -0.59940980707E+02  0.18625992570E+03  0.30000000000E+02 0. -1.
     200000    1    3    3    0    0  0.69408777813E+02 -0.13266774812E+03 -0.23498959298E+03  0.29637715606E+03  0.10100000000E+03 0.  1.
    -200001    1    1    2    0    0  0.17061597745E+03 -0.27231943310E+03  0.45474647082E+02  0.69361706217E+03  0.61300000000E+03 0.  1.
<mgrwt>
<rscale>  0 0.14588917E+04</rscale>
<asrwt>0</asrwt>
<pdfrwt beam="1">  1        2 0.13526782E+00 0.14588917E+04</pdfrwt>
<pdfrwt beam="2">  1       -2 0.80277809E-01 0.14588917E+04</pdfrwt>
<totfact> 0.40391999E+01</totfact>
</mgrwt>
</event>
<event>
 8    1  0.7326756E-052  0.1541119E+04  0.7818608E-02  0.8857560E-01
          2   -1    0    0  501    0  0.00000000000E+00  0.00000000000E+00  0.34822778019E+04  0.34822778019E+04  0.25500000000E-02 0.  1.
         -2   -1    0    0    0  501 -0.00000000000E+00 -0.00000000000E+00 -0.17050972675E+03  0.17050972677E+03  0.25500000000E-02 0. -1.
     200001    2    1    2    0    0 -0.90623457651E+02 -0.41730628216E+03  0.12058997483E+04  0.14183284097E+04  0.61245745213E+03 0.  0.
    5000001    2    3    3    0    0  0.91416486725E+02 -0.27968152699E+03  0.15762202635E+03  0.34075414456E+03  0.68483233442E+02 0.  0.
        -11    1    4    4    0    0  0.17079697983E+02 -0.14014958856E+03  0.73229690827E+02  0.15904782575E+03  0.51100000000E-03 0. -1.
     200002    1    4    4    0    0  0.74336788743E+02 -0.13953193844E+03  0.84392335521E+02  0.18170631882E+03  0.30000000000E+02 0. -1.
     200000    1    3    3    0    0 -0.18203994438E+03 -0.13762475517E+03  0.10482777220E+04  0.10775742652E+04  0.10100000000E+03 0.  1.
    -200001    1    1    2    0    0  0.90623457651E+02  0.41730628216E+03  0.21058683268E+04  0.22344591189E+04  0.61300000000E+03 0.  1.
<mgrwt>
<rscale>  0 0.15411194E+04</rscale>
<asrwt>0</asrwt>
<pdfrwt beam="1">  1        2 0.49746825E+00 0.15411194E+04</pdfrwt>
<pdfrwt beam="2">  1       -2 0.24358533E-01 0.15411194E+04</pdfrwt>
<totfact> 0.18049349E+01</totfact>
</mgrwt>
</event>
<event>
 8    1  0.7326756E-052  0.2126809E+04  0.7818608E-02  0.8549525E-01
          2   -1    0    0  501    0  0.00000000000E+00  0.00000000000E+00  0.11969384455E+04  0.11969384455E+04  0.25500000000E-02 0.  1.
         -2   -1    0    0    0  501 -0.00000000000E+00 -0.00000000000E+00 -0.94476818609E+03  0.94476818609E+03  0.25500000000E-02 0. -1.
     200001    2    1    2    0    0 -0.61205854264E+02 -0.51567924495E+02  0.99724149934E+03  0.11735612087E+04  0.61347363026E+03 0.  0.
    5000001    2    3    3    0    0 -0.24121780890E+02 -0.16738971180E+03  0.53222658660E+02  0.21639743663E+03  0.12407265314E+03 0.  0.
        -11    1    4    4    0    0  0.21719763779E+02 -0.10574979083E+03 -0.15480206538E+02  0.10906146521E+03  0.51100000000E-03 0. -1.
     200002    1    4    4    0    0 -0.45841544669E+02 -0.61639920973E+02  0.68702865198E+02  0.10733597142E+03  0.30000000000E+02 0. -1.
     200000    1    3    3    0    0 -0.37084073375E+02  0.11582178731E+03  0.94401884068E+03  0.95716377202E+03  0.10100000000E+03 0.  1.
    -200001    1    1    2    0    0  0.61205854264E+02  0.51567924495E+02 -0.74507123992E+03  0.96814542295E+03  0.61300000000E+03 0. -1.
<mgrwt>
<rscale>  0 0.21268092E+04</rscale>
<asrwt>0</asrwt>
<pdfrwt beam="1">  1        2 0.17099121E+00 0.21268092E+04</pdfrwt>
<pdfrwt beam="2">  1       -2 0.13496688E+00 0.21268092E+04</pdfrwt>
<totfact> 0.78245706E+00</totfact>
</mgrwt>
</event>
<event>
 8    1  0.7326756E-052  0.1614960E+04  0.7818608E-02  0.8811410E-01
          2   -1    0    0  501    0  0.00000000000E+00  0.00000000000E+00  0.12859753707E+04  0.12859753707E+04  0.25500000000E-02 0.  1.
         -2   -1    0    0    0  501 -0.00000000000E+00 -0.00000000000E+00 -0.50702694468E+03  0.50702694469E+03  0.25500000000E-02 0. -1.
     200001    2    1    2    0    0  0.31452410627E+03 -0.41726064142E+03  0.32834030573E+03  0.87004590562E+03  0.61330307779E+03 0.  0.
    5000001    2    3    3    0    0 -0.82781604870E+02 -0.33814624689E+03  0.22640024836E+03  0.44027423273E+03  0.14624858686E+03 0.  0.
        -11    1    4    4    0    0 -0.67659579186E+02 -0.33340265648E+03  0.18673981229E+03  0.38808105789E+03  0.51100000000E-03 0. -1.
     200002    1    4    4    0    0 -0.15122025684E+02 -0.47435904190E+01  0.39660436064E+02  0.52193174837E+02  0.30000000000E+02 0. -1.
     200000    1    3    3    0    0  0.39730571114E+03 -0.79114394521E+02  0.10194005737E+03  0.42977167289E+03  0.10100000000E+03 0.  1.
    -200001    1    1    2    0    0 -0.31452410627E+03  0.41726064142E+03  0.45060812034E+03  0.92295640981E+03  0.61300000000E+03 0.  1.
<mgrwt>
<rscale>  0 0.16149603E+04</rscale>
<asrwt>0</asrwt>
<pdfrwt beam="1">  1        2 0.18371077E+00 0.16149603E+04</pdfrwt>
<pdfrwt beam="2">  1       -2 0.72432419E-01 0.16149603E+04</pdfrwt>
<totfact> 0.31646927E+01</totfact>
</mgrwt>
</event>
<event>
 8    1  0.7326756E-052  0.1324565E+04  0.7818608E-02  0.9010309E-01
         -2   -1    0    0    0  501 -0.00000000000E+00  0.00000000000E+00  0.23979420035E+03  0.23979420036E+03  0.25500000000E-02 0. -1.
          2   -1    0    0  501    0  0.00000000000E+00 -0.00000000000E+00 -0.18291431251E+04  0.18291431251E+04  0.25500000000E-02 0.  1.
     200001    2    1    2    0    0  0.15438985173E+03  0.13664117019E+03 -0.10183505780E+04  0.12062003159E+04  0.61267794691E+03 0.  0.
    5000001    2    3    3    0    0  0.20474807826E+03  0.13765845839E+01 -0.10010461413E+04  0.10291892918E+04  0.12334322378E+03 0.  0.
        -11    1    4    4    0    0  0.12053043158E+02 -0.36305553332E+02 -0.21888846802E+03  0.22220605412E+03  0.51100000000E-03 0. -1.
     200002    1    4    4    0    0  0.19269503511E+03  0.37682137916E+02 -0.78215767329E+03  0.80698323772E+03  0.30000000000E+02 0. -1.
     200000    1    3    3    0    0 -0.50358226535E+02  0.13526458561E+03 -0.17304436651E+02  0.17701102403E+03  0.10100000000E+03 0. -1.
    -200001    1    1    2    0    0 -0.15438985173E+03 -0.13664117019E+03 -0.57099834678E+03  0.86273700960E+03  0.61300000000E+03 0. -1.
<mgrwt>
<rscale>  0 0.13245647E+04</rscale>
<asrwt>0</asrwt>
<pdfrwt beam="1">  1        2 0.26130615E+00 0.13245647E+04</pdfrwt>
<pdfrwt beam="2">  1       -2 0.34256316E-01 0.13245647E+04</pdfrwt>
<totfact> 0.76797907E+01</totfact>
</mgrwt>
</event>
<event>
 8    1  0.7326756E-052  0.1439125E+04  0.7818608E-02  0.8925975E-01
         -2   -1    0    0    0  501 -0.00000000000E+00  0.00000000000E+00  0.36433691151E+03  0.36433691152E+03  0.25500000000E-02 0. -1.
          2   -1    0    0  501    0  0.00000000000E+00 -0.00000000000E+00 -0.14211294915E+04  0.14211294915E+04  0.25500000000E-02 0.  1.
     200001    2    1    2    0    0 -0.17426348295E+03 -0.24901846456E+03 -0.25277488913E+03  0.72972429229E+03  0.61337137283E+03 0.  0.
    5000001    2    3    3    0    0  0.60798934757E+01 -0.35828223758E+03 -0.32096309165E+03  0.48618181863E+03  0.70372776626E+02 0.  0.
        -11    1    4    4    0    0  0.79989875102E+01 -0.29413200604E+03 -0.25427979284E+03  0.38889051651E+03  0.51100000000E-03 0. -1.
     200002    1    4    4    0    0 -0.19190940345E+01 -0.64150231538E+02 -0.66683298808E+02  0.97291302120E+02  0.30000000000E+02 0.  1.
     200000    1    3    3    0    0 -0.18034337643E+03  0.10926377302E+03  0.68188202524E+02  0.24354247366E+03  0.10100000000E+03 0. -1.
    -200001    1    1    2    0    0  0.17426348295E+03  0.24901846456E+03 -0.80401769090E+03  0.10557421108E+04  0.61300000000E+03 0.  1.
<mgrwt>
<rscale>  0 0.14391246E+04</rscale>
<asrwt>0</asrwt>
<pdfrwt beam="1">  1        2 0.20301850E+00 0.14391246E+04</pdfrwt>
<pdfrwt beam="2">  1       -2 0.52048131E-01 0.14391246E+04</pdfrwt>
<totfact> 0.54565817E+01</totfact>
</mgrwt>
</event>
<event>
 8    1  0.7326756E-052  0.2124676E+04  0.7818608E-02  0.8550451E-01
          2   -1    0    0  501    0  0.00000000000E+00  0.00000000000E+00  0.41097277293E+04  0.41097277293E+04  0.25500000000E-02 0.  1.
         -2   -1    0    0    0  501 -0.00000000000E+00 -0.00000000000E+00 -0.27460739590E+03  0.27460739591E+03  0.25500000000E-02 0. -1.
     200001    2    1    2    0    0  0.33988281609E+02 -0.86410355268E+03  0.20659578394E+04  0.23219251070E+04  0.61263713186E+03 0.  0.
    5000001    2    3    3    0    0  0.97925206033E+02 -0.29314438432E+03  0.29141392334E+03  0.45396113191E+03  0.16011139413E+03 0.  0.
        -11    1    4    4    0    0  0.27615982493E+02 -0.12157670042E+03  0.23663193149E+02  0.12689950072E+03  0.51100000000E-03 0. -1.
     200002    1    4    4    0    0  0.70309223540E+02 -0.17156768391E+03  0.26775073019E+03  0.32706163118E+03  0.30000000000E+02 0. -1.
     200000    1    3    3    0    0 -0.63936924423E+02 -0.57095916835E+03  0.17745439161E+04  0.18679639751E+04  0.10100000000E+03 0.  1.
    -200001    1    1    2    0    0 -0.33988281609E+02  0.86410355268E+03  0.17691624940E+04  0.20624100182E+04  0.61300000000E+03 0.  1.
<mgrwt>
<rscale>  0 0.21246756E+04</rscale>
<asrwt>0</asrwt>
<pdfrwt beam="1">  1        2 0.58710392E+00 0.21246756E+04</pdfrwt>
<pdfrwt beam="2">  1       -2 0.39229631E-01 0.21246756E+04</pdfrwt>
<totfact> 0.27234440E+00</totfact>
</mgrwt>
</event>
<event>
 8    1  0.7326756E-052  0.1383224E+04  0.7818608E-02  0.8966052E-01
         -2   -1    0    0    0  501 -0.00000000000E+00  0.00000000000E+00  0.11792743563E+03  0.11792743566E+03  0.25500000000E-02 0. -1.
          2   -1    0    0  501    0  0.00000000000E+00 -0.00000000000E+00 -0.40561117705E+04  0.40561117705E+04  0.25500000000E-02 0.  1.
     200001    2    1    2    0    0  0.12002870762E+03  0.12229680773E+03 -0.11466268281E+04  0.13108372026E+04  0.61170065299E+03 0.  0.
    5000001    2    3    3    0    0  0.29324742234E+03 -0.10489533221E+03 -0.68180026740E+03  0.75596269143E+03  0.98137173271E+02 0.  0.
        -11    1    4    4    0    0  0.19007185145E+02 -0.33091663820E+02 -0.12087965559E+03  0.12676049241E+03  0.51100000000E-03 0. -1.
     200002    1    4    4    0    0  0.27424023719E+03 -0.71803668389E+02 -0.56092061181E+03  0.62920219901E+03  0.30000000000E+02 0. -1.
     200000    1    3    3    0    0 -0.17321871471E+03  0.22719213994E+03 -0.46482656071E+03  0.55487451114E+03  0.10100000000E+03 0. -1.
    -200001    1    1    2    0    0 -0.12002870762E+03 -0.12229680773E+03 -0.27915575068E+04  0.28632020036E+04  0.61300000000E+03 0.  1.
<mgrwt>
<rscale>  0 0.13832236E+04</rscale>
<asrwt>0</asrwt>
<pdfrwt beam="1">  1        2 0.57944445E+00 0.13832236E+04</pdfrwt>
<pdfrwt beam="2">  1       -2 0.16846779E-01 0.13832236E+04</pdfrwt>
<totfact> 0.14986667E+01</totfact>
</mgrwt>
</event>
<event>
 8    1  0.7326756E-052  0.1284426E+04  0.7818608E-02  0.9042007E-01
         -2   -1    0    0    0  501 -0.00000000000E+00  0.00000000000E+00  0.53586321600E+03  0.53586321600E+03  0.25500000000E-02 0. -1.
          2   -1    0    0  501    0  0.00000000000E+00 -0.00000000000E+00 -0.76966985519E+03  0.76966985520E+03  0.25500000000E-02 0.  1.
     200001    2    1    2    0    0  0.89152966482E+02 -0.16889697459E+03 -0.10502259488E+03  0.65068288258E+03  0.61309381729E+03 0.  0.
    5000001    2    3    3    0    0 -0.23357271975E+03 -0.32550886834E+02 -0.24189054033E+01  0.27190769689E+03  0.13532246259E+03 0.  0.
        -11    1    4    4    0    0 -0.54349281125E+02 -0.52013085290E+02  0.38677032809E+02  0.84587932162E+02  0.51100000000E-03 0. -1.
     200002    1    4    4    0    0 -0.17922343863E+03  0.19462198457E+02 -0.41095938213E+02  0.18731976473E+03  0.30000000000E+02 0. -1.
     200000    1    3    3    0    0  0.32272568623E+03 -0.13634608776E+03 -0.10260368948E+03  0.37877518569E+03  0.10100000000E+03 0. -1.
    -200001    1    1    2    0    0 -0.89152966482E+02  0.16889697459E+03 -0.12878404432E+03  0.65485018861E+03  0.61300000000E+03 0. -1.
<mgrwt>
<rscale>  0 0.12844264E+04</rscale>
<asrwt>0</asrwt>
<pdfrwt beam="1">  1        2 0.10995284E+00 0.12844264E+04</pdfrwt>
<pdfrwt beam="2">  1       -2 0.76551888E-01 0.12844264E+04</pdfrwt>
<totfact> 0.59891918E+01</totfact>
</mgrwt>
</event>
<event>
 8    1  0.7326756E-052  0.1738148E+04  0.7818608E-02  0.8739901E-01
          2   -1    0    0  501    0  0.00000000000E+00  0.00000000000E+00  0.89453618379E+03  0.89453618379E+03  0.25500000000E-02 0.  1.
         -2   -1    0    0    0  501 -0.00000000000E+00 -0.00000000000E+00 -0.84433699058E+03  0.84433699059E+03  0.25500000000E-02 0. -1.
     200001    2    1    2    0    0 -0.68497337338E+02  0.28334214136E+03  0.56901279857E+03  0.88452476102E+03  0.61125594772E+03 0.  0.
    5000001    2    3    3    0    0 -0.24537268238E+03  0.23266425494E+03  0.36925132041E+03  0.59476833916E+03  0.32103337966E+03 0.  0.
        -11    1    4    4    0    0 -0.28930199347E+01 -0.68228938708E+02  0.10646465791E+03  0.12648431138E+03  0.51100000000E-03 0. -1.
     200002    1    4    4    0    0 -0.24247966244E+03  0.30089319364E+03  0.26278666251E+03  0.46828402778E+03  0.30000000000E+02 0. -1.
     200000    1    3    3    0    0  0.17687534504E+03  0.50677886424E+02  0.19976147816E+03  0.28975642186E+03  0.10100000000E+03 0.  1.
    -200001    1    1    2    0    0  0.68497337338E+02 -0.28334214136E+03 -0.51881360537E+03  0.85434841336E+03  0.61300000000E+03 0. -1.
<mgrwt>
<rscale>  0 0.17381484E+04</rscale>
<asrwt>0</asrwt>
<pdfrwt beam="1">  1        2 0.12779088E+00 0.17381484E+04</pdfrwt>
<pdfrwt beam="2">  1       -2 0.12061957E+00 0.17381484E+04</pdfrwt>
<totfact> 0.16354002E+01</totfact>
</mgrwt>
</event>
<event>
 8    1  0.7326756E-052  0.1410720E+04  0.7818608E-02  0.8946095E-01
          2   -1    0    0  501    0  0.00000000000E+00  0.00000000000E+00  0.74719586555E+03  0.74719586556E+03  0.25500000000E-02 0. -1.
         -2   -1    0    0    0  501 -0.00000000000E+00 -0.00000000000E+00 -0.66586619155E+03  0.66586619155E+03  0.25500000000E-02 0.  1.
     200001    2    1    2    0    0 -0.42687237210E+02  0.15216748785E+03  0.35256202380E+03  0.72435810609E+03  0.61271326137E+03 0.  0.
    5000001    2    3    3    0    0 -0.16826207492E+02  0.32250898025E+03  0.39883140826E+03  0.51935353826E+03  0.79789986138E+02 0.  0.
        -11    1    4    4    0    0 -0.72263837674E+00  0.25913686057E+03  0.33200107194E+03  0.42116166312E+03  0.51100000000E-03 0. -1.
     200002    1    4    4    0    0 -0.16103569115E+02  0.63372119679E+02  0.66830336326E+02  0.98191875144E+02  0.30000000000E+02 0. -1.
     200000    1    3    3    0    0 -0.25861029718E+02 -0.17034149240E+03 -0.46269384467E+02  0.20500456783E+03  0.10100000000E+03 0.  1.
    -200001    1    1    2    0    0  0.42687237210E+02 -0.15216748785E+03 -0.27123234979E+03  0.68870395102E+03  0.61300000000E+03 0.  1.
<mgrwt>
<rscale>  0 0.14107196E+04</rscale>
<asrwt>0</asrwt>
<pdfrwt beam="1">  1        2 0.10674227E+00 0.14107196E+04</pdfrwt>
<pdfrwt beam="2">  1       -2 0.95123741E-01 0.14107196E+04</pdfrwt>
<totfact> 0.37556458E+01</totfact>
</mgrwt>
</event>
<event>
 8    1  0.7326756E-052  0.1516753E+04  0.7818608E-02  0.8873388E-01
          2   -1    0    0  501    0  0.00000000000E+00  0.00000000000E+00  0.20634464098E+04  0.20634464098E+04  0.25500000000E-02 0.  1.
         -2   -1    0    0    0  501 -0.00000000000E+00 -0.00000000000E+00 -0.27872549568E+03  0.27872549569E+03  0.25500000000E-02 0. -1.
     200001    2    1    2    0    0 -0.38768226073E+03  0.15548242340E+03  0.65088145910E+03  0.98724267152E+03  0.61361966999E+03 0.  0.
    5000001    2    3    3    0    0 -0.82397145665E+02  0.11737466387E+03  0.62117532433E+03  0.66207401181E+03  0.17865360959E+03 0.  0.
        -11    1    4    4    0    0 -0.32989235801E+02  0.13236958879E+03  0.23842588056E+03  0.27469419040E+03  0.51100000000E-03 0. -1.
     200002    1    4    4    0    0 -0.49407909863E+02 -0.14994924919E+02  0.38274944377E+03  0.38737982141E+03  0.30000000000E+02 0. -1.
     200000    1    3    3    0    0 -0.30528511507E+03  0.38107759529E+02  0.29706134768E+02  0.32516865971E+03  0.10100000000E+03 0. -1.
    -200001    1    1    2    0    0  0.38768226073E+03 -0.15548242340E+03  0.11338394550E+04  0.13549292339E+04  0.61300000000E+03 0.  1.
<mgrwt>
<rscale>  0 0.15167533E+04</rscale>
<asrwt>0</asrwt>
<pdfrwt beam="1">  1        2 0.29477805E+00 0.15167533E+04</pdfrwt>
<pdfrwt beam="2">  1       -2 0.39817929E-01 0.15167533E+04</pdfrwt>
<totfact> 0.42913470E+01</totfact>
</mgrwt>
</event>
<event>
 8    1  0.7326756E-052  0.1520332E+04  0.7818608E-02  0.8871044E-01
          2   -1    0    0  501    0  0.00000000000E+00  0.00000000000E+00  0.18490972445E+04  0.18490972445E+04  0.25500000000E-02 0.  1.
         -2   -1    0    0    0  501 -0.00000000000E+00 -0.00000000000E+00 -0.31250494406E+03  0.31250494407E+03  0.25500000000E-02 0. -1.
     200001    2    1    2    0    0 -0.87376116073E+02 -0.43667631862E+03  0.68234140477E+03  0.10197465122E+04  0.61316585325E+03 0.  0.
    5000001    2    3    3    0    0  0.23173490143E+02 -0.52003867527E+03  0.42873580047E+03  0.71366269939E+03  0.23350123656E+03 0.  0.
        -11    1    4    4    0    0 -0.66671519235E+02 -0.37970377489E+03  0.37030861067E+03  0.53455450169E+03  0.51100000000E-03 0. -1.
     200002    1    4    4    0    0  0.89845009378E+02 -0.14033490037E+03  0.58427189803E+02  0.17910819769E+03  0.30000000000E+02 0. -1.
     200000    1    3    3    0    0 -0.11054960622E+03  0.83362356644E+02  0.25360560429E+03  0.30608381282E+03  0.10100000000E+03 0. -1.
    -200001    1    1    2    0    0  0.87376116073E+02  0.43667631862E+03  0.85425089568E+03  0.11418556764E+04  0.61300000000E+03 0.  1.
<mgrwt>
<rscale>  0 0.15203316E+04</rscale>
<asrwt>0</asrwt>
<pdfrwt beam="1">  1        2 0.26415674E+00 0.15203316E+04</pdfrwt>
<pdfrwt beam="2">  1       -2 0.44643565E-01 0.15203316E+04</pdfrwt>
<totfact> 0.44122980E+01</totfact>
</mgrwt>
</event>
<event>
 8    1  0.7326756E-052  0.1740938E+04  0.7818608E-02  0.8738354E-01
          2   -1    0    0  501    0  0.00000000000E+00  0.00000000000E+00  0.15170351673E+04  0.15170351673E+04  0.25500000000E-02 0.  1.
         -2   -1    0    0    0  501 -0.00000000000E+00 -0.00000000000E+00 -0.49947195228E+03  0.49947195229E+03  0.25500000000E-02 0. -1.
     200001    2    1    2    0    0  0.61739254789E+03 -0.29510546017E+02  0.49179469538E+03  0.99952827675E+03  0.61249516169E+03 0.  0.
    5000001    2    3    3    0    0  0.83966907903E+02  0.20760476704E+03  0.11201246219E+02  0.23667989832E+03  0.75774173914E+02 0.  0.
        -11    1    4    4    0    0 -0.30834519416E+01  0.74184478927E+02  0.10659265537E+01  0.74256183509E+02  0.51100000000E-03 0. -1.
     200002    1    4    4    0    0  0.87050359844E+02  0.13342028811E+03  0.10135319665E+02  0.16242371481E+03  0.30000000000E+02 0. -1.
     200000    1    3    3    0    0  0.53342563999E+03 -0.23711531306E+03  0.48059344916E+03  0.76284837842E+03  0.10100000000E+03 0.  1.
    -200001    1    1    2    0    0 -0.61739254789E+03  0.29510546017E+02  0.52576851959E+03  0.10169788428E+04  0.61300000000E+03 0. -1.
<mgrwt>
<rscale>  0 0.17409383E+04</rscale>
<asrwt>0</asrwt>
<pdfrwt beam="1">  1        2 0.21671931E+00 0.17409383E+04</pdfrwt>
<pdfrwt beam="2">  1       -2 0.71353135E-01 0.17409383E+04</pdfrwt>
<totfact> 0.24271527E+01</totfact>
</mgrwt>
</event>
<event>
 8    1  0.7326756E-052  0.1822157E+04  0.7818608E-02  0.8694605E-01
          2   -1    0    0  501    0  0.00000000000E+00  0.00000000000E+00  0.33893238437E+04  0.33893238437E+04  0.25500000000E-02 0.  1.
         -2   -1    0    0    0  501 -0.00000000000E+00 -0.00000000000E+00 -0.24490552657E+03  0.24490552659E+03  0.25500000000E-02 0. -1.
     200001    2    1    2    0    0  0.66399091887E+03 -0.20252225952E+02  0.17977423485E+04  0.20123171478E+04  0.61339111400E+03 0.  0.
    5000001    2    3    3    0    0  0.19829520162E+03  0.19355958441E+03  0.11211529488E+04  0.11575878297E+04  0.78989551960E+02 0.  0.
        -11    1    4    4    0    0  0.11627039584E+03  0.10616515404E+03  0.75203042995E+03  0.76833561186E+03  0.51100000000E-03 0. -1.
     200002    1    4    4    0    0  0.82024805777E+02  0.87394430374E+02  0.36912251883E+03  0.38925221789E+03  0.30000000000E+02 0. -1.
     200000    1    3    3    0    0  0.46569571725E+03 -0.21381181036E+03  0.67658939969E+03  0.85472931802E+03  0.10100000000E+03 0. -1.
    -200001    1    1    2    0    0 -0.66399091887E+03  0.20252225952E+02  0.13466759687E+04  0.16219122225E+04  0.61300000000E+03 0. -1.
<mgrwt>
<rscale>  0 0.18221571E+04</rscale>
<asrwt>0</asrwt>
<pdfrwt beam="1">  1        2 0.48418911E+00 0.18221571E+04</pdfrwt>
<pdfrwt beam="2">  1       -2 0.34986505E-01 0.18221571E+04</pdfrwt>
<totfact> 0.10208445E+01</totfact>
</mgrwt>
</event>
<event>
 8    1  0.7326756E-052  0.1438734E+04  0.7818608E-02  0.8926249E-01
         -2   -1    0    0    0  501 -0.00000000000E+00  0.00000000000E+00  0.11940418162E+04  0.11940418162E+04  0.25500000000E-02 0. -1.
          2   -1    0    0  501    0  0.00000000000E+00 -0.00000000000E+00 -0.43339232287E+03  0.43339232287E+03  0.25500000000E-02 0.  1.
     200001    2    1    2    0    0  0.33115495828E+03  0.17815601675E+03  0.38638988712E+03  0.81672924482E+03  0.61347073425E+03 0.  0.
    5000001    2    3    3    0    0 -0.12977127045E+03  0.87035335665E+02  0.90404761971E+02  0.25231436092E+03  0.17627757500E+03 0.  0.
        -11    1    4    4    0    0 -0.43276064129E+01  0.96928363525E+02  0.73779868244E+02  0.12189054431E+03  0.51100000000E-03 0. -1.
     200002    1    4    4    0    0 -0.12544366404E+03 -0.98930278605E+01  0.16624893727E+02  0.13042381661E+03  0.30000000000E+02 0. -1.
     200000    1    3    3    0    0  0.46092622874E+03  0.91120681086E+02  0.29598512515E+03  0.56441488390E+03  0.10100000000E+03 0. -1.
    -200001    1    1    2    0    0 -0.33115495828E+03 -0.17815601675E+03  0.37425960618E+03  0.81070489422E+03  0.61300000000E+03 0. -1.
<mgrwt>
<rscale>  0 0.14387335E+04</rscale>
<asrwt>0</asrwt>
<pdfrwt beam="1">  1        2 0.61913190E-01 0.14387335E+04</pdfrwt>
<pdfrwt beam="2">  1       -2 0.17057740E+00 0.14387335E+04</pdfrwt>
<totfact> 0.16203314E+01</totfact>
</mgrwt>
</event>
<event>
 8    1  0.7326756E-052  0.1789877E+04  0.7818608E-02  0.8711701E-01
          2   -1    0    0  501    0  0.00000000000E+00  0.00000000000E+00  0.36850415759E+04  0.36850415759E+04  0.25500000000E-02 0.  1.
         -2   -1    0    0    0  501 -0.00000000000E+00 -0.00000000000E+00 -0.21734215433E+03  0.21734215434E+03  0.25500000000E-02 0. -1.
     200001    2    1    2    0    0  0.37658690883E+02  0.53443526976E+03  0.25452568771E+04  0.26720551228E+04  0.61196958581E+03 0.  0.
    5000001    2    3    3    0    0  0.20050241673E+03  0.41316545349E+03  0.92601045783E+03  0.10370063731E+04  0.83546027768E+02 0.  0.
        -11    1    4    4    0    0  0.73041760637E+02  0.23157335343E+03  0.49166186289E+03  0.54835454246E+03  0.51100000000E-03 0. -1.
     200002    1    4    4    0    0  0.12746065609E+03  0.18159210006E+03  0.43434859494E+03  0.48865183064E+03  0.30000000000E+02 0. -1.
     200000    1    3    3    0    0 -0.16284372585E+03  0.12126981627E+03  0.16192464193E+04  0.16350487497E+04  0.10100000000E+03 0.  1.
    -200001    1    1    2    0    0 -0.37658690883E+02 -0.53443526976E+03  0.92244254441E+03  0.12303286074E+04  0.61300000000E+03 0. -1.
<mgrwt>
<rscale>  0 0.17898770E+04</rscale>
<asrwt>0</asrwt>
<pdfrwt beam="1">  1        2 0.52643446E+00 0.17898770E+04</pdfrwt>
<pdfrwt beam="2">  1       -2 0.31048882E-01 0.17898770E+04</pdfrwt>
<totfact> 0.84484766E+00</totfact>
</mgrwt>
</event>
<event>
 8    1  0.7326756E-052  0.1349067E+04  0.7818608E-02  0.8991535E-01
         -2   -1    0    0    0  501 -0.00000000000E+00  0.00000000000E+00  0.19132089845E+04  0.19132089845E+04  0.25500000000E-02 0. -1.
          2   -1    0    0  501    0  0.00000000000E+00 -0.00000000000E+00 -0.23781801706E+03  0.23781801707E+03  0.25500000000E-02 0.  1.
     200001    2    1    2    0    0 -0.24838895140E+03  0.31542113415E+01  0.10500072270E+04  0.12407628405E+04  0.61259303718E+03 0.  0.
    5000001    2    3    3    0    0  0.47526188257E+02  0.24119889521E+03  0.33599688294E+03  0.42575191239E+03  0.89079402431E+02 0.  0.
        -11    1    4    4    0    0  0.12928740161E+02  0.17986206517E+03  0.19698750639E+03  0.26706102764E+03  0.51100000000E-03 0. -1.
     200002    1    4    4    0    0  0.34597448096E+02  0.61336830039E+02  0.13900937656E+03  0.15869088476E+03  0.30000000000E+02 0. -1.
     200000    1    3    3    0    0 -0.29591513965E+03 -0.23804468387E+03  0.71401034410E+03  0.81501092807E+03  0.10100000000E+03 0. -1.
    -200001    1    1    2    0    0  0.24838895140E+03 -0.31542113415E+01  0.62538374037E+03  0.91026416108E+03  0.61300000000E+03 0. -1.
<mgrwt>
<rscale>  0 0.13490672E+04</rscale>
<asrwt>0</asrwt>
<pdfrwt beam="1">  1        2 0.33974002E-01 0.13490672E+04</pdfrwt>
<pdfrwt beam="2">  1       -2 0.27331557E+00 0.13490672E+04</pdfrwt>
<totfact> 0.70248995E+00</totfact>
</mgrwt>
</event>
<event>
 8    1  0.7326756E-052  0.1796409E+04  0.7818608E-02  0.8708212E-01
          2   -1    0    0  501    0  0.00000000000E+00  0.00000000000E+00  0.13310342151E+04  0.13310342151E+04  0.25500000000E-02 0. -1.
         -2   -1    0    0    0  501 -0.00000000000E+00 -0.00000000000E+00 -0.60612355306E+03  0.60612355307E+03  0.25500000000E-02 0.  1.
     200001    2    1    2    0    0 -0.23170660065E+03 -0.52469786312E+03  0.70717438911E+03  0.10974677231E+04  0.61265323828E+03 0.  0.
    5000001    2    3    3    0    0 -0.27706126020E+03 -0.50589062248E+02  0.47257999119E+03  0.55703111100E+03  0.87347669826E+02 0.  0.
        -11    1    4    4    0    0 -0.12252088061E+03 -0.61422233520E+02  0.22316754617E+03  0.26189274640E+03  0.51100000000E-03 0. -1.
     200002    1    4    4    0    0 -0.15454037959E+03  0.10833171272E+02  0.24941244503E+03  0.29513836460E+03  0.30000000000E+02 0. -1.
     200000    1    3    3    0    0  0.45354659547E+02 -0.47410880088E+03  0.23459439792E+03  0.54043661214E+03  0.10100000000E+03 0.  1.
    -200001    1    1    2    0    0  0.23170660065E+03  0.52469786312E+03  0.17736272929E+02  0.83969004503E+03  0.61300000000E+03 0.  1.
<mgrwt>
<rscale>  0 0.17964088E+04</rscale>
<asrwt>0</asrwt>
<pdfrwt beam="1">  1        2 0.19014774E+00 0.17964088E+04</pdfrwt>
<pdfrwt beam="2">  1       -2 0.86589079E-01 0.17964088E+04</pdfrwt>
<totfact> 0.19746025E+01</totfact>
</mgrwt>
</event>
<event>
 8    1  0.7326756E-052  0.1273342E+04  0.7818608E-02  0.9050977E-01
          2   -1    0    0  501    0  0.00000000000E+00  0.00000000000E+00  0.12152404635E+04  0.12152404635E+04  0.25500000000E-02 0.  1.
         -2   -1    0    0    0  501 -0.00000000000E+00 -0.00000000000E+00 -0.33355527527E+03  0.33355527528E+03  0.25500000000E-02 0. -1.
     200001    2    1    2    0    0 -0.96109597574E+02  0.13575067486E+03  0.50050385776E+03  0.80803025146E+03  0.61216294822E+03 0.  0.
    5000001    2    3    3    0    0 -0.27239088631E+02 -0.14350272202E+03  0.86600577693E+01  0.22937929427E+03  0.17664898771E+03 0.  0.
        -11    1    4    4    0    0 -0.91181980477E+02 -0.12438428703E+03 -0.76338612347E+01  0.15441463746E+03  0.51100000000E-03 0. -1.
     200002    1    4    4    0    0  0.63942891846E+02 -0.19118434997E+02  0.16293919004E+02  0.74964656812E+02  0.30000000000E+02 0. -1.
     200000    1    3    3    0    0 -0.68870508943E+02  0.27925339688E+03  0.49184379999E+03  0.57865095720E+03  0.10100000000E+03 0.  1.
    -200001    1    1    2    0    0  0.96109597574E+02 -0.13575067486E+03  0.38118133044E+03  0.74076548728E+03  0.61300000000E+03 0. -1.
<mgrwt>
<rscale>  0 0.12733419E+04</rscale>
<asrwt>0</asrwt>
<pdfrwt beam="1">  1        2 0.17360578E+00 0.12733419E+04</pdfrwt>
<pdfrwt beam="2">  1       -2 0.47650754E-01 0.12733419E+04</pdfrwt>
<totfact> 0.85856828E+01</totfact>
</mgrwt>
</event>
<event>
 8    1  0.7326756E-052  0.1352335E+04  0.7818608E-02  0.8989062E-01
         -2   -1    0    0    0  501 -0.00000000000E+00  0.00000000000E+00  0.25754547736E+03  0.25754547738E+03  0.25500000000E-02 0. -1.
          2   -1    0    0  501    0  0.00000000000E+00 -0.00000000000E+00 -0.17752307658E+04  0.17752307658E+04  0.25500000000E-02 0.  1.
     200001    2    1    2    0    0 -0.79063038084E+02  0.24497246267E+03 -0.94227930454E+03  0.11535018163E+04  0.61352561556E+03 0.  0.
    5000001    2    3    3    0    0  0.13966018481E+03  0.16194584623E+02 -0.67548318079E+03  0.72740284026E+03  0.23036955680E+03 0.  0.
        -11    1    4    4    0    0  0.13931885183E+03  0.96081859417E+02 -0.55155956990E+03  0.57693970684E+03  0.51100000000E-03 0. -1.
     200002    1    4    4    0    0  0.34133298323E+00 -0.79887274794E+02 -0.12392361089E+03  0.15046313342E+03  0.30000000000E+02 0. -1.
     200000    1    3    3    0    0 -0.21872322289E+03  0.22877787805E+03 -0.26679612375E+03  0.42609897602E+03  0.10100000000E+03 0. -1.
    -200001    1    1    2    0    0  0.79063038084E+02 -0.24497246267E+03 -0.57540598385E+03  0.87927442685E+03  0.61300000000E+03 0. -1.
<mgrwt>
<rscale>  0 0.13523352E+04</rscale>
<asrwt>0</asrwt>
<pdfrwt beam="1">  1        2 0.25360439E+00 0.13523352E+04</pdfrwt>
<pdfrwt beam="2">  1       -2 0.36792212E-01 0.13523352E+04</pdfrwt>
<totfact> 0.71269704E+01</totfact>
</mgrwt>
</event>
<event>
 8    1  0.7326756E-052  0.1356632E+04  0.7818608E-02  0.8985823E-01
         -2   -1    0    0    0  501 -0.00000000000E+00  0.00000000000E+00  0.25462846670E+03  0.25462846671E+03  0.25500000000E-02 0. -1.
          2   -1    0    0  501    0  0.00000000000E+00 -0.00000000000E+00 -0.18069969224E+04  0.18069969224E+04  0.25500000000E-02 0.  1.
     200001    2    1    2    0    0  0.13885775799E+03 -0.22645559003E+03 -0.59734739050E+03  0.89612213036E+03  0.61290077203E+03 0.  0.
    5000001    2    3    3    0    0 -0.20827011198E+02  0.16078776125E+03 -0.24236018093E+03  0.33784481792E+03  0.17062882269E+03 0.  0.
        -11    1    4    4    0    0 -0.56412247506E+02  0.93745246168E+01 -0.13464548726E+03  0.14628612586E+03  0.51100000000E-03 0. -1.
     200002    1    4    4    0    0  0.35585236308E+02  0.15141323663E+03 -0.10771469367E+03  0.19155869206E+03  0.30000000000E+02 0. -1.
     200000    1    3    3    0    0  0.15968476919E+03 -0.38724335128E+03 -0.35498720958E+03  0.55827731244E+03  0.10100000000E+03 0.  1.
    -200001    1    1    2    0    0 -0.13885775799E+03  0.22645559003E+03 -0.95502106519E+03  0.11655032588E+04  0.61300000000E+03 0.  1.
<mgrwt>
<rscale>  0 0.13566324E+04</rscale>
<asrwt>0</asrwt>
<pdfrwt beam="1">  1        2 0.25814241E+00 0.13566324E+04</pdfrwt>
<pdfrwt beam="2">  1       -2 0.36375496E-01 0.13566324E+04</pdfrwt>
<totfact> 0.70127248E+01</totfact>
</mgrwt>
</event>
<event>
 8    1  0.7326756E-052  0.1501999E+04  0.7818608E-02  0.8883124E-01
         -2   -1    0    0    0  501 -0.00000000000E+00  0.00000000000E+00  0.23146401553E+03  0.23146401554E+03  0.25500000000E-02 0. -1.
          2   -1    0    0  501    0  0.00000000000E+00 -0.00000000000E+00 -0.24366659655E+04  0.24366659655E+04  0.25500000000E-02 0.  1.
     200001    2    1    2    0    0 -0.52681648909E+02  0.67337878775E+02 -0.34755213204E+03  0.71008463119E+03  0.61328456113E+03 0.  0.
    5000001    2    3    3    0    0  0.67994575641E+02  0.26013424093E+03 -0.36461825271E+03  0.46063435377E+03  0.83333378928E+02 0.  0.
        -11    1    4    4    0    0  0.55676214764E+02  0.22537154530E+03 -0.32075315562E+03  0.39594792734E+03  0.51100000000E-03 0. -1.
     200002    1    4    4    0    0  0.12318360877E+02  0.34762695620E+02 -0.43865097093E+02  0.64686426432E+02  0.30000000000E+02 0. -1.
     200000    1    3    3    0    0 -0.12067622455E+03 -0.19279636215E+03  0.17066120669E+02  0.24945027742E+03  0.10100000000E+03 0. -1.
    -200001    1    1    2    0    0  0.52681648909E+02 -0.67337878775E+02 -0.18576498180E+04  0.19580453499E+04  0.61300000000E+03 0.  1.
<mgrwt>
<rscale>  0 0.15019993E+04</rscale>
<asrwt>0</asrwt>
<pdfrwt beam="1">  1        2 0.34809512E+00 0.15019993E+04</pdfrwt>
<pdfrwt beam="2">  1       -2 0.33066289E-01 0.15019993E+04</pdfrwt>
<totfact> 0.39367088E+01</totfact>
</mgrwt>
</event>
<event>
 8    1  0.7326756E-052  0.1378962E+04  0.7818608E-02  0.8969189E-01
          2   -1    0    0  501    0  0.00000000000E+00  0.00000000000E+00  0.85921035717E+03  0.85921035717E+03  0.25500000000E-02 0.  1.
         -2   -1    0    0    0  501 -0.00000000000E+00 -0.00000000000E+00 -0.55328031499E+03  0.55328031500E+03  0.25500000000E-02 0. -1.
     200001    2    1    2    0    0  0.20852244176E+03 -0.20200780537E+02  0.39511968515E+03  0.75856906168E+03  0.61271345300E+03 0.  0.
    5000001    2    3    3    0    0  0.22792000844E+03 -0.10395537435E+02  0.50242588019E+03  0.60961259865E+03  0.25911417927E+03 0.  0.
        -11    1    4    4    0    0 -0.43026350389E+02 -0.19748912750E+02  0.12645473364E+02  0.49001983424E+02  0.51100000000E-03 0. -1.
     200002    1    4    4    0    0  0.27094635883E+03  0.93533753153E+01  0.48978040683E+03  0.56061061522E+03  0.30000000000E+02 0. -1.
     200000    1    3    3    0    0 -0.19397566672E+02 -0.98052431025E+01 -0.10730619504E+03  0.14895646303E+03  0.10100000000E+03 0. -1.
    -200001    1    1    2    0    0 -0.20852244176E+03  0.20200780537E+02 -0.89189642981E+02  0.65392161049E+03  0.61300000000E+03 0. -1.
<mgrwt>
<rscale>  0 0.13789622E+04</rscale>
<asrwt>0</asrwt>
<pdfrwt beam="1">  1        2 0.12274434E+00 0.13789622E+04</pdfrwt>
<pdfrwt beam="2">  1       -2 0.79040046E-01 0.13789622E+04</pdfrwt>
<totfact> 0.48000940E+01</totfact>
</mgrwt>
</event>
<event>
 8    1  0.7326756E-052  0.1543264E+04  0.7818608E-02  0.8856182E-01
          2   -1    0    0  501    0  0.00000000000E+00  0.00000000000E+00  0.18057974605E+04  0.18057974605E+04  0.25500000000E-02 0.  1.
         -2   -1    0    0    0  501 -0.00000000000E+00 -0.00000000000E+00 -0.32972444868E+03  0.32972444869E+03  0.25500000000E-02 0. -1.
     200001    2    1    2    0    0 -0.11356631397E+03  0.25736698208E+03  0.21732399536E+03  0.70746268157E+03  0.61166874672E+03 0.  0.
    5000001    2    3    3    0    0 -0.23547211787E+03  0.26240260548E+03 -0.79806675877E+02  0.37075209617E+03  0.82375758831E+02 0.  0.
        -11    1    4    4    0    0 -0.14597472564E+03  0.18843983324E+03 -0.78059437299E+02  0.25082158406E+03  0.51100000000E-03 0. -1.
     200002    1    4    4    0    0 -0.89497392225E+02  0.73962772248E+02 -0.17472385776E+01  0.11993051212E+03  0.30000000000E+02 0. -1.
     200000    1    3    3    0    0  0.12190580390E+03 -0.50356234041E+01  0.29713067124E+03  0.33671058539E+03  0.10100000000E+03 0.  1.
    -200001    1    1    2    0    0  0.11356631397E+03 -0.25736698208E+03  0.12587490164E+04  0.14280592276E+04  0.61300000000E+03 0. -1.
<mgrwt>
<rscale>  0 0.15432635E+04</rscale>
<asrwt>0</asrwt>
<pdfrwt beam="1">  1        2 0.25797107E+00 0.15432635E+04</pdfrwt>
<pdfrwt beam="2">  1       -2 0.47103491E-01 0.15432635E+04</pdfrwt>
<totfact> 0.41643757E+01</totfact>
</mgrwt>
</event>
<event>
 8    1  0.7326756E-052  0.1955963E+04  0.7818608E-02  0.8627491E-01
          2   -1    0    0  501    0  0.00000000000E+00  0.00000000000E+00  0.37040935236E+04  0.37040935236E+04  0.25500000000E-02 0.  1.
         -2   -1    0    0    0  501 -0.00000000000E+00 -0.00000000000E+00 -0.25821363177E+03  0.25821363178E+03  0.25500000000E-02 0. -1.
     200001    2    1    2    0    0 -0.23218212168E+03  0.11104579319E+03  0.27184788562E+03  0.71939366867E+03  0.61431772870E+03 0.  0.
    5000001    2    3    3    0    0 -0.12557416122E+03  0.82317910809E+02  0.42820394426E+03  0.50297101382E+03  0.21697030777E+03 0.  0.
        -11    1    4    4    0    0  0.60424395950E+02  0.65824161509E+01  0.10136938397E+03  0.11819554914E+03  0.51100000000E-03 0. -1.
     200002    1    4    4    0    0 -0.18599855717E+03  0.75735494658E+02  0.32683456029E+03  0.38477546468E+03  0.30000000000E+02 0. -1.
     200000    1    3    3    0    0 -0.10660796046E+03  0.28727882380E+02 -0.15635605864E+03  0.21642265485E+03  0.10100000000E+03 0. -1.
    -200001    1    1    2    0    0  0.23218212168E+03 -0.11104579319E+03  0.31740320062E+04  0.32429134867E+04  0.61300000000E+03 0.  1.
<mgrwt>
<rscale>  0 0.19559626E+04</rscale>
<asrwt>0</asrwt>
<pdfrwt beam="1">  1        2 0.52915623E+00 0.19559626E+04</pdfrwt>
<pdfrwt beam="2">  1       -2 0.36887661E-01 0.19559626E+04</pdfrwt>
<totfact> 0.58297834E+00</totfact>
</mgrwt>
</event>
<event>
 8    1  0.7326756E-052  0.2162932E+04  0.7818608E-02  0.8534017E-01
         -2   -1    0    0    0  501 -0.00000000000E+00  0.00000000000E+00  0.87675979908E+03  0.87675979908E+03  0.25500000000E-02 0. -1.
          2   -1    0    0  501    0  0.00000000000E+00 -0.00000000000E+00 -0.13339671019E+04  0.13339671019E+04  0.25500000000E-02 0.  1.
     200001    2    1    2    0    0 -0.61743150382E+03  0.50089130672E+03 -0.63927139499E+03  0.11904180768E+04  0.61344398128E+03 0.  0.
    5000001    2    3    3    0    0 -0.25810744022E+03  0.17236283710E+03  0.54033292011E+02  0.33723748222E+03  0.12033754383E+03 0.  0.
        -11    1    4    4    0    0 -0.14528122817E+03  0.30820386480E+02  0.11942005617E+02  0.14899376826E+03  0.51100000000E-03 0. -1.
     200002    1    4    4    0    0 -0.11282621205E+03  0.14154245062E+03  0.42091286394E+02  0.18824371396E+03  0.30000000000E+02 0.  1.
     200000    1    3    3    0    0 -0.35932406360E+03  0.32852846962E+03 -0.69330468700E+03  0.85318059463E+03  0.10100000000E+03 0.  1.
    -200001    1    1    2    0    0  0.61743150382E+03 -0.50089130672E+03  0.18206409212E+03  0.10203088242E+04  0.61300000000E+03 0.  1.
<mgrwt>
<rscale>  0 0.21629320E+04</rscale>
<asrwt>0</asrwt>
<pdfrwt beam="1">  1        2 0.19056673E+00 0.21629320E+04</pdfrwt>
<pdfrwt beam="2">  1       -2 0.12525140E+00 0.21629320E+04</pdfrwt>
<totfact> 0.79018389E+00</totfact>
</mgrwt>
</event>
<event>
 8    1  0.7326756E-052  0.1250417E+04  0.7818608E-02  0.9069836E-01
         -2   -1    0    0    0  501 -0.00000000000E+00  0.00000000000E+00  0.43718178406E+03  0.43718178406E+03  0.25500000000E-02 0. -1.
          2   -1    0    0  501    0  0.00000000000E+00 -0.00000000000E+00 -0.89410389967E+03  0.89410389967E+03  0.25500000000E-02 0.  1.
     200001    2    1    2    0    0  0.20880884119E+02  0.37044904355E+02 -0.34683881484E+03  0.70702959096E+03  0.61464245115E+03 0.  0.
    5000001    2    3    3    0    0  0.12754890002E+03  0.20332338710E+03 -0.39966117874E+03  0.47895547676E+03  0.10981880208E+03 0.  0.
        -11    1    4    4    0    0  0.23436973690E+02  0.11280718033E+03 -0.23732944484E+03  0.26381815149E+03  0.51100000000E-03 0. -1.
     200002    1    4    4    0    0  0.10411192633E+03  0.90516206767E+02 -0.16233173390E+03  0.21513732527E+03  0.30000000000E+02 0.  1.
     200000    1    3    3    0    0 -0.10666801590E+03 -0.16627848274E+03  0.52822363900E+02  0.22807411420E+03  0.10100000000E+03 0. -1.
    -200001    1    1    2    0    0 -0.20880884119E+02 -0.37044904355E+02 -0.11008330078E+03  0.62425609278E+03  0.61300000000E+03 0.  1.
<mgrwt>
<rscale>  0 0.12504174E+04</rscale>
<asrwt>0</asrwt>
<pdfrwt beam="1">  1        2 0.12772913E+00 0.12504174E+04</pdfrwt>
<pdfrwt beam="2">  1       -2 0.62454541E-01 0.12504174E+04</pdfrwt>
<totfact> 0.76815195E+01</totfact>
</mgrwt>
</event>
<event>
 8    1  0.7326756E-052  0.1487817E+04  0.7818608E-02  0.8892595E-01
         -2   -1    0    0    0  501 -0.00000000000E+00  0.00000000000E+00  0.18417393622E+03  0.18417393624E+03  0.25500000000E-02 0. -1.
          2   -1    0    0  501    0  0.00000000000E+00 -0.00000000000E+00 -0.30047658063E+04  0.30047658063E+04  0.25500000000E-02 0.  1.
     200001    2    1    2    0    0 -0.27575014209E+03 -0.26947327471E+03 -0.10454705646E+04  0.12717859575E+04  0.61300638936E+03 0.  0.
    5000001    2    3    3    0    0 -0.12889028019E+03 -0.22289173404E+03 -0.10547967778E+04  0.10873255627E+04  0.58199720273E+02 0.  0.
        -11    1    4    4    0    0 -0.70468169072E+02 -0.84107547447E+02 -0.47927568912E+03  0.49167573519E+03  0.51100000000E-03 0. -1.
     200002    1    4    4    0    0 -0.58422111115E+02 -0.13878418659E+03 -0.57552108870E+03  0.59564982755E+03  0.30000000000E+02 0. -1.
     200000    1    3    3    0    0 -0.14685986190E+03 -0.46581540673E+02  0.93262131794E+01  0.18446039472E+03  0.10100000000E+03 0. -1.
    -200001    1    1    2    0    0  0.27575014209E+03  0.26947327471E+03 -0.17751213054E+04  0.19171537851E+04  0.61300000000E+03 0.  1.
<mgrwt>
<rscale>  0 0.14878166E+04</rscale>
<asrwt>0</asrwt>
<pdfrwt beam="1">  1        2 0.42925223E+00 0.14878166E+04</pdfrwt>
<pdfrwt beam="2">  1       -2 0.26310564E-01 0.14878166E+04</pdfrwt>
<totfact> 0.29825568E+01</totfact>
</mgrwt>
</event>
<event>
 8    1  0.7326756E-052  0.1672077E+04  0.7818608E-02  0.8777452E-01
          2   -1    0    0  501    0  0.00000000000E+00  0.00000000000E+00  0.86961401560E+03  0.86961401560E+03  0.25500000000E-02 0.  1.
         -2   -1    0    0    0  501 -0.00000000000E+00 -0.00000000000E+00 -0.80375937092E+03  0.80375937093E+03  0.25500000000E-02 0. -1.
     200001    2    1    2    0    0 -0.35352290164E+02 -0.55438132841E+03  0.15323187892E+03  0.84151268739E+03  0.61324966580E+03 0.  0.
    5000001    2    3    3    0    0  0.24609936591E+03 -0.14840318471E+03 -0.35777087800E+02  0.30303457513E+03  0.89227521434E+02 0.  0.
        -11    1    4    4    0    0  0.42939528011E+02 -0.67661186801E+02 -0.58584763245E+01  0.80350239640E+02  0.51100000000E-03 0. -1.
     200002    1    4    4    0    0  0.20315983790E+03 -0.80741997911E+02 -0.29918611476E+02  0.22268433549E+03  0.30000000000E+02 0. -1.
     200000    1    3    3    0    0 -0.28145165608E+03 -0.40597814370E+03  0.18900896672E+03  0.53847811225E+03  0.10100000000E+03 0.  1.
    -200001    1    1    2    0    0  0.35352290164E+02  0.55438132841E+03 -0.87377234250E+02  0.83186069914E+03  0.61300000000E+03 0.  1.
<mgrwt>
<rscale>  0 0.16720770E+04</rscale>
<asrwt>0</asrwt>
<pdfrwt beam="1">  1        2 0.12423057E+00 0.16720770E+04</pdfrwt>
<pdfrwt beam="2">  1       -2 0.11482277E+00 0.16720770E+04</pdfrwt>
<totfact> 0.19275188E+01</totfact>
</mgrwt>
</event>
<event>
 8    1  0.7326756E-052  0.1326032E+04  0.7818608E-02  0.9009172E-01
         -2   -1    0    0    0  501 -0.00000000000E+00  0.00000000000E+00  0.25653994240E+03  0.25653994242E+03  0.25500000000E-02 0. -1.
          2   -1    0    0  501    0  0.00000000000E+00 -0.00000000000E+00 -0.17135353262E+04  0.17135353262E+04  0.25500000000E-02 0.  1.
     200001    2    1    2    0    0  0.22061001373E+03 -0.12472116683E+03 -0.66051854561E+03  0.93355778137E+03  0.60911512414E+03 0.  0.
    5000001    2    3    3    0    0  0.43464250812E+01  0.14750434093E+03  0.11240606780E+02  0.17044702554E+03  0.84554214992E+02 0.  0.
        -11    1    4    4    0    0  0.79382166634E+00  0.96793213282E+02  0.40061623243E+02  0.10475919982E+03  0.51100000000E-03 0. -1.
     200002    1    4    4    0    0  0.35526034149E+01  0.50711127643E+02 -0.28821016464E+02  0.65687825721E+02  0.30000000000E+02 0. -1.
     200000    1    3    3    0    0  0.21626358865E+03 -0.27222550775E+03 -0.67175915239E+03  0.76311075583E+03  0.10100000000E+03 0.  1.
    -200001    1    1    2    0    0 -0.22061001373E+03  0.12472116683E+03 -0.79647683822E+03  0.10365174873E+04  0.61300000000E+03 0.  1.
<mgrwt>
<rscale>  0 0.13260321E+04</rscale>
<asrwt>0</asrwt>
<pdfrwt beam="1">  1        2 0.24479076E+00 0.13260321E+04</pdfrwt>
<pdfrwt beam="2">  1       -2 0.36648564E-01 0.13260321E+04</pdfrwt>
<totfact> 0.77436812E+01</totfact>
</mgrwt>
</event>
<event>
 8    1  0.7326756E-052  0.1388192E+04  0.7818608E-02  0.8962410E-01
         -2   -1    0    0    0  501 -0.00000000000E+00  0.00000000000E+00  0.40456479186E+03  0.40456479187E+03  0.25500000000E-02 0. -1.
          2   -1    0    0  501    0  0.00000000000E+00 -0.00000000000E+00 -0.11908339596E+04  0.11908339596E+04  0.25500000000E-02 0.  1.
     200001    2    1    2    0    0 -0.69267665615E+02 -0.44246233201E+02 -0.75509858694E+03  0.97612793530E+03  0.61310368734E+03 0.  0.
    5000001    2    3    3    0    0  0.75899914163E+02 -0.91410699082E+02  0.48521406261E+02  0.15192880491E+03  0.81310036407E+02 0.  0.
        -11    1    4    4    0    0  0.30563623573E+02  0.16456443058E+01 -0.59375520046E+01  0.31178482246E+02  0.51100000000E-03 0. -1.
     200002    1    4    4    0    0  0.45336290590E+02 -0.93056343388E+02  0.54458958266E+02  0.12075032267E+03  0.30000000000E+02 0. -1.
     200000    1    3    3    0    0 -0.14516757978E+03  0.47164465881E+02 -0.80361999320E+03  0.82419913039E+03  0.10100000000E+03 0.  1.
    -200001    1    1    2    0    0  0.69267665615E+02  0.44246233201E+02 -0.31170580797E+02  0.61927081617E+03  0.61300000000E+03 0. -1.
<mgrwt>
<rscale>  0 0.13881923E+04</rscale>
<asrwt>0</asrwt>
<pdfrwt beam="1">  1        2 0.17011914E+00 0.13881923E+04</pdfrwt>
<pdfrwt beam="2">  1       -2 0.57794971E-01 0.13881923E+04</pdfrwt>
<totfact> 0.59121550E+01</totfact>
</mgrwt>
</event>
<event>
 8    1  0.7326756E-052  0.1500112E+04  0.7818608E-02  0.8884378E-01
         -2   -1    0    0    0  501 -0.00000000000E+00  0.00000000000E+00  0.13206841810E+03  0.13206841812E+03  0.25500000000E-02 0. -1.
          2   -1    0    0  501    0  0.00000000000E+00 -0.00000000000E+00 -0.42597931905E+04  0.42597931905E+04  0.25500000000E-02 0.  1.
     200001    2    1    2    0    0  0.53855605429E+02 -0.42536900766E+03 -0.22399146238E+04  0.23612372278E+04  0.61186967975E+03 0.  0.
    5000001    2    3    3    0    0  0.22520643183E+03 -0.28393935163E+03 -0.19355128107E+04  0.19710771105E+04  0.87152984560E+02 0.  0.
        -11    1    4    4    0    0  0.80782734793E+02 -0.16320321210E+03 -0.93556314600E+03  0.95312094659E+03  0.51100000000E-03 0. -1.
     200002    1    4    4    0    0  0.14442369703E+03 -0.12073613953E+03 -0.99994966470E+03  0.10179561639E+04  0.30000000000E+02 0. -1.
     200000    1    3    3    0    0 -0.17135082640E+03 -0.14142965602E+03 -0.30440181310E+03  0.39016011730E+03  0.10100000000E+03 0. -1.
    -200001    1    1    2    0    0 -0.53855605429E+02  0.42536900766E+03 -0.18878101486E+04  0.20306243808E+04  0.61300000000E+03 0. -1.
<mgrwt>
<rscale>  0 0.15001122E+04</rscale>
<asrwt>0</asrwt>
<pdfrwt beam="1">  1        2 0.60854180E+00 0.15001122E+04</pdfrwt>
<pdfrwt beam="2">  1       -2 0.18866920E-01 0.15001122E+04</pdfrwt>
<totfact> 0.87077373E+00</totfact>
</mgrwt>
</event>
<event>
 8    1  0.7326756E-052  0.1420509E+04  0.7818608E-02  0.8939106E-01
          2   -1    0    0  501    0  0.00000000000E+00  0.00000000000E+00  0.78143814443E+03  0.78143814443E+03  0.25500000000E-02 0.  1.
         -2   -1    0    0    0  501 -0.00000000000E+00 -0.00000000000E+00 -0.64555510008E+03  0.64555510009E+03  0.25500000000E-02 0. -1.
     200001    2    1    2    0    0 -0.14195750590E+03 -0.41579927630E+02 -0.25796214895E+03  0.68351233680E+03  0.61543790947E+03 0.  0.
    5000001    2    3    3    0    0  0.65339485075E+02 -0.13411714353E+03 -0.36430778199E+03  0.41324289262E+03  0.12566969318E+03 0.  0.
        -11    1    4    4    0    0 -0.23442600884E+02 -0.14428897713E+01 -0.14607544477E+02  0.27658955566E+02  0.51100000000E-03 0. -1.
     200002    1    4    4    0    0  0.88782085960E+02 -0.13267425376E+03 -0.34970023751E+03  0.38558393705E+03  0.30000000000E+02 0. -1.
     200000    1    3    3    0    0 -0.20729699098E+03  0.92537215899E+02  0.10634563304E+03  0.27026944419E+03  0.10100000000E+03 0.  1.
    -200001    1    1    2    0    0  0.14195750590E+03  0.41579927630E+02  0.39384519329E+03  0.74348090772E+03  0.61300000000E+03 0.  1.
<mgrwt>
<rscale>  0 0.14205089E+04</rscale>
<asrwt>0</asrwt>
<pdfrwt beam="1">  1        2 0.11163402E+00 0.14205089E+04</pdfrwt>
<pdfrwt beam="2">  1       -2 0.92222158E-01 0.14205089E+04</pdfrwt>
<totfact> 0.38103658E+01</totfact>
</mgrwt>
</event>
<event>
 8    1  0.7326756E-052  0.1344228E+04  0.7818608E-02  0.8995209E-01
          2   -1    0    0  501    0  0.00000000000E+00  0.00000000000E+00  0.25335421949E+04  0.25335421949E+04  0.25500000000E-02 0.  1.
         -2   -1    0    0    0  501 -0.00000000000E+00 -0.00000000000E+00 -0.17830259557E+03  0.17830259559E+03  0.25500000000E-02 0. -1.
     200001    2    1    2    0    0 -0.72389302345E+02 -0.11750794635E+03  0.69303116337E+03  0.93483769622E+03  0.61203022500E+03 0.  0.
    5000001    2    3    3    0    0  0.29862463904E+02  0.47694407059E+02  0.70898175920E+03  0.71528664798E+03  0.76245201132E+02 0.  0.
        -11    1    4    4    0    0 -0.21417855753E+02  0.15381252134E+02  0.24216840076E+03  0.24359975737E+03  0.51100000000E-03 0. -1.
     200002    1    4    4    0    0  0.51280319657E+02  0.32313154925E+02  0.46681335843E+03  0.47168689061E+03  0.30000000000E+02 0. -1.
     200000    1    3    3    0    0 -0.10225176625E+03 -0.16520235341E+03 -0.15950595823E+02  0.21955104823E+03  0.10100000000E+03 0. -1.
    -200001    1    1    2    0    0  0.72389302345E+02  0.11750794635E+03  0.16622084360E+04  0.17770070943E+04  0.61300000000E+03 0.  1.
<mgrwt>
<rscale>  0 0.13442279E+04</rscale>
<asrwt>0</asrwt>
<pdfrwt beam="1">  1        2 0.36193457E+00 0.13442279E+04</pdfrwt>
<pdfrwt beam="2">  1       -2 0.25471802E-01 0.13442279E+04</pdfrwt>
<totfact> 0.57552348E+01</totfact>
</mgrwt>
</event>
<event>
 8    1  0.7326756E-052  0.1619081E+04  0.7818608E-02  0.8808911E-01
         -2   -1    0    0    0  501 -0.00000000000E+00  0.00000000000E+00  0.39545436146E+03  0.39545436147E+03  0.25500000000E-02 0. -1.
          2   -1    0    0  501    0  0.00000000000E+00 -0.00000000000E+00 -0.16572214803E+04  0.16572214803E+04  0.25500000000E-02 0.  1.
     200001    2    1    2    0    0 -0.31027807572E+03 -0.36278924657E+03 -0.91945062278E+03  0.12036539898E+04  0.61278459320E+03 0.  0.
    5000001    2    3    3    0    0  0.13025273790E+03 -0.10304799990E+03 -0.49849985175E+02  0.18978063383E+03  0.77116807114E+02 0.  0.
        -11    1    4    4    0    0  0.74723953726E+02 -0.22667110767E+02 -0.38172209580E+02  0.86917114284E+02  0.51100000000E-03 0. -1.
     200002    1    4    4    0    0  0.55528784174E+02 -0.80380889133E+02 -0.11677775595E+02  0.10286351954E+03  0.30000000000E+02 0. -1.
     200000    1    3    3    0    0 -0.44053081362E+03 -0.25974124667E+03 -0.86960063761E+03  0.10138733559E+04  0.10100000000E+03 0.  1.
    -200001    1    1    2    0    0  0.31027807572E+03  0.36278924657E+03 -0.34231649606E+03  0.84902185200E+03  0.61300000000E+03 0.  1.
<mgrwt>
<rscale>  0 0.16190806E+04</rscale>
<asrwt>0</asrwt>
<pdfrwt beam="1">  1        2 0.23674592E+00 0.16190806E+04</pdfrwt>
<pdfrwt beam="2">  1       -2 0.56493481E-01 0.16190806E+04</pdfrwt>
<totfact> 0.34060403E+01</totfact>
</mgrwt>
</event>
<event>
 8    1  0.7326756E-052  0.1340170E+04  0.7818608E-02  0.8998303E-01
         -2   -1    0    0    0  501 -0.00000000000E+00  0.00000000000E+00  0.33740036431E+03  0.33740036432E+03  0.25500000000E-02 0. -1.
          2   -1    0    0  501    0  0.00000000000E+00 -0.00000000000E+00 -0.13308034865E+04  0.13308034865E+04  0.25500000000E-02 0.  1.
     200001    2    1    2    0    0 -0.14751947904E+03 -0.42074343837E+02 -0.22141340430E+03  0.67057196901E+03  0.61409333404E+03 0.  0.
    5000001    2    3    3    0    0 -0.33973039435E+03  0.61847745258E+01  0.89442440709E+01  0.35035387984E+03  0.84928495399E+02 0.  0.
        -11    1    4    4    0    0 -0.27371712629E+03  0.26299502189E+02  0.57640224746E+01  0.27503809372E+03  0.51100000000E-03 0. -1.
     200002    1    4    4    0    0 -0.66013268061E+02 -0.20114727663E+02  0.31802215962E+01  0.75315786117E+02  0.30000000000E+02 0. -1.
     200000    1    3    3    0    0  0.19221091531E+03 -0.48259118363E+02 -0.23035764837E+03  0.32021808918E+03  0.10100000000E+03 0. -1.
    -200001    1    1    2    0    0  0.14751947904E+03  0.42074343837E+02 -0.77198971792E+03  0.99763188185E+03  0.61300000000E+03 0.  1.
<mgrwt>
<rscale>  0 0.13401695E+04</rscale>
<asrwt>0</asrwt>
<pdfrwt beam="1">  1        2 0.19011478E+00 0.13401695E+04</pdfrwt>
<pdfrwt beam="2">  1       -2 0.48200053E-01 0.13401695E+04</pdfrwt>
<totfact> 0.71976639E+01</totfact>
</mgrwt>
</event>
<event>
 8    1  0.7326756E-052  0.1791206E+04  0.7818608E-02  0.8710990E-01
         -2   -1    0    0    0  501 -0.00000000000E+00  0.00000000000E+00  0.89443646418E+03  0.89443646418E+03  0.25500000000E-02 0. -1.
          2   -1    0    0  501    0  0.00000000000E+00 -0.00000000000E+00 -0.89677110134E+03  0.89677110134E+03  0.25500000000E-02 0.  1.
     200001    2    1    2    0    0 -0.33699373347E+03 -0.51626839325E+03  0.22449793751E+03  0.89269777303E+03  0.60531988218E+03 0.  0.
    5000001    2    3    3    0    0 -0.14389617500E+03 -0.19850885170E+03  0.38648952495E+03  0.47472640112E+03  0.12601241862E+03 0.  0.
        -11    1    4    4    0    0 -0.86601655751E+02 -0.90807689083E+02  0.95223026868E+02  0.15752240482E+03  0.51100000000E-03 0. -1.
     200002    1    4    4    0    0 -0.57294519247E+02 -0.10770116262E+03  0.29126649808E+03  0.31720399630E+03  0.30000000000E+02 0. -1.
     200000    1    3    3    0    0 -0.19309755847E+03 -0.31775954155E+03 -0.16199158744E+03  0.41797137191E+03  0.10100000000E+03 0. -1.
    -200001    1    1    2    0    0  0.33699373347E+03  0.51626839325E+03 -0.22683257467E+03  0.89850979249E+03  0.61300000000E+03 0.  1.
<mgrwt>
<rscale>  0 0.17912060E+04</rscale>
<asrwt>0</asrwt>
<pdfrwt beam="1">  1        2 0.12811016E+00 0.17912060E+04</pdfrwt>
<pdfrwt beam="2">  1       -2 0.12777664E+00 0.17912060E+04</pdfrwt>
<totfact> 0.14047808E+01</totfact>
</mgrwt>
</event>
<event>
 8    1  0.7326756E-052  0.1770967E+04  0.7818608E-02  0.8721893E-01
          2   -1    0    0  501    0  0.00000000000E+00  0.00000000000E+00  0.19552777650E+04  0.19552777650E+04  0.25500000000E-02 0.  1.
         -2   -1    0    0    0  501 -0.00000000000E+00 -0.00000000000E+00 -0.40100731250E+03  0.40100731251E+03  0.25500000000E-02 0. -1.
     200001    2    1    2    0    0  0.38807999618E+03  0.50594423596E+03  0.84267963386E+03  0.12210687340E+04  0.61181225435E+03 0.  0.
    5000001    2    3    3    0    0 -0.19718740321E+02  0.29086937322E+03  0.64382275613E+02  0.31084635245E+03  0.86524889030E+02 0.  0.
        -11    1    4    4    0    0  0.10920577751E+02  0.42388981982E+02 -0.15351511331E+02  0.46386999389E+02  0.51100000000E-03 0. -1.
     200002    1    4    4    0    0 -0.30639318072E+02  0.24848039124E+03  0.79733786944E+02  0.26445935306E+03  0.30000000000E+02 0. -1.
     200000    1    3    3    0    0  0.40779873650E+03  0.21507486274E+03  0.77829735825E+03  0.91022238159E+03  0.10100000000E+03 0.  1.
    -200001    1    1    2    0    0 -0.38807999618E+03 -0.50594423596E+03  0.71159081866E+03  0.11352163435E+04  0.61300000000E+03 0. -1.
<mgrwt>
<rscale>  0 0.17709666E+04</rscale>
<asrwt>0</asrwt>
<pdfrwt beam="1">  1        2 0.27932540E+00 0.17709666E+04</pdfrwt>
<pdfrwt beam="2">  1       -2 0.57286758E-01 0.17709666E+04</pdfrwt>
<totfact> 0.22918697E+01</totfact>
</mgrwt>
</event>
<event>
 8    1  0.7326756E-052  0.1437980E+04  0.7818608E-02  0.8926777E-01
          2   -1    0    0  501    0  0.00000000000E+00  0.00000000000E+00  0.10547622998E+04  0.10547622998E+04  0.25500000000E-02 0.  1.
         -2   -1    0    0    0  501 -0.00000000000E+00 -0.00000000000E+00 -0.49010691657E+03  0.49010691657E+03  0.25500000000E-02 0. -1.
     200001    2    1    2    0    0  0.97638374401E+01 -0.10518814841E+03 -0.10723278294E+03  0.62924779520E+03  0.61097793654E+03 0.  0.
    5000001    2    3    3    0    0  0.25751043871E+03 -0.22173050140E+02 -0.19897907556E+03  0.33447963683E+03  0.74031646931E+02 0.  0.
        -11    1    4    4    0    0  0.21922407311E+03 -0.20428937288E+02 -0.16415019451E+03  0.27463033712E+03  0.51100000000E-03 0. -1.
     200002    1    4    4    0    0  0.38286365594E+02 -0.17441128524E+01 -0.34828881049E+02  0.59849299705E+02  0.30000000000E+02 0.  1.
     200000    1    3    3    0    0 -0.24774660127E+03 -0.83015098273E+02  0.91746292618E+02  0.29476815837E+03  0.10100000000E+03 0. -1.
    -200001    1    1    2    0    0 -0.97638374401E+01  0.10518814841E+03  0.67188816621E+03  0.91562142121E+03  0.61300000000E+03 0.  1.
<mgrwt>
<rscale>  0 0.14379796E+04</rscale>
<asrwt>0</asrwt>
<pdfrwt beam="1">  1        2 0.15068033E+00 0.14379796E+04</pdfrwt>
<pdfrwt beam="2">  1       -2 0.70015275E-01 0.14379796E+04</pdfrwt>
<totfact> 0.46971565E+01</totfact>
</mgrwt>
</event>
<event>
 8    1  0.7326756E-052  0.1305786E+04  0.7818608E-02  0.9024989E-01
          2   -1    0    0  501    0  0.00000000000E+00  0.00000000000E+00  0.13389360939E+04  0.13389360939E+04  0.25500000000E-02 0.  1.
         -2   -1    0    0    0  501 -0.00000000000E+00 -0.00000000000E+00 -0.31836417075E+03  0.31836417076E+03  0.25500000000E-02 0. -1.
     200001    2    1    2    0    0  0.45465855482E+02  0.45092493521E+02  0.78549171672E+03  0.99765476863E+03  0.61173304909E+03 0.  0.
    5000001    2    3    3    0    0 -0.19975176288E+03  0.20665462747E+03  0.29557351864E+03  0.41760749100E+03  0.66523753511E+02 0.  0.
        -11    1    4    4    0    0 -0.14972406640E+02  0.21045814565E+02  0.70187456097E+01  0.26764940902E+02  0.51100000000E-03 0. -1.
     200002    1    4    4    0    0 -0.18477935625E+03  0.18560881291E+03  0.28855477303E+03  0.39084255009E+03  0.30000000000E+02 0. -1.
     200000    1    3    3    0    0  0.24521761837E+03 -0.16156213395E+03  0.48991819808E+03  0.58004727763E+03  0.10100000000E+03 0.  1.
    -200001    1    1    2    0    0 -0.45465855482E+02 -0.45092493521E+02  0.23508020643E+03  0.65964549604E+03  0.61300000000E+03 0. -1.
<mgrwt>
<rscale>  0 0.13057860E+04</rscale>
<asrwt>0</asrwt>
<pdfrwt beam="1">  1        2 0.19127658E+00 0.13057860E+04</pdfrwt>
<pdfrwt beam="2">  1       -2 0.45480596E-01 0.13057860E+04</pdfrwt>
<totfact> 0.80263009E+01</totfact>
</mgrwt>
</event>
<event>
 8    1  0.7326756E-052  0.2077680E+04  0.7818608E-02  0.8571140E-01
          2   -1    0    0  501    0  0.00000000000E+00  0.00000000000E+00  0.30576008750E+04  0.30576008750E+04  0.25500000000E-02 0.  1.
         -2   -1    0    0    0  501 -0.00000000000E+00 -0.00000000000E+00 -0.35295284751E+03  0.35295284752E+03  0.25500000000E-02 0. -1.
     200001    2    1    2    0    0 -0.37211790867E+03 -0.19396797550E+03  0.16015498402E+03  0.75983511020E+03  0.61286577838E+03 0.  0.
    5000001    2    3    3    0    0 -0.86655938263E+02 -0.26263858187E+03  0.30293276562E+03  0.41808859061E+03  0.80879742760E+02 0.  0.
        -11    1    4    4    0    0 -0.38658654673E+02 -0.30592973105E+02  0.51534028941E+02  0.71317443334E+02  0.51100000000E-03 0. -1.
     200002    1    4    4    0    0 -0.47997283591E+02 -0.23204560877E+03  0.25139873668E+03  0.34677114728E+03  0.30000000000E+02 0. -1.
     200000    1    3    3    0    0 -0.28546197041E+03  0.68670606373E+02 -0.14277778160E+03  0.34174651958E+03  0.10100000000E+03 0. -1.
    -200001    1    1    2    0    0  0.37211790867E+03  0.19396797550E+03  0.25444930434E+04  0.26507186123E+04  0.61300000000E+03 0.  1.
<mgrwt>
<rscale>  0 0.20776804E+04</rscale>
<asrwt>0</asrwt>
<pdfrwt beam="1">  1        2 0.43680010E+00 0.20776804E+04</pdfrwt>
<pdfrwt beam="2">  1       -2 0.50421839E-01 0.20776804E+04</pdfrwt>
<totfact> 0.75526502E+00</totfact>
</mgrwt>
</event>
<event>
 8    1  0.7326756E-052  0.1466513E+04  0.7818608E-02  0.8907032E-01
          2   -1    0    0  501    0  0.00000000000E+00  0.00000000000E+00  0.10207009317E+04  0.10207009317E+04  0.25500000000E-02 0.  1.
         -2   -1    0    0    0  501 -0.00000000000E+00 -0.00000000000E+00 -0.52676033775E+03  0.52676033776E+03  0.25500000000E-02 0. -1.
     200001    2    1    2    0    0  0.12824020383E+03  0.33533130903E+03  0.55232730462E+02  0.71252041756E+03  0.61297802100E+03 0.  0.
    5000001    2    3    3    0    0  0.60345864218E+02 -0.19674379072E+02  0.28651088574E+02  0.33629407130E+03  0.32900473096E+03 0.  0.
        -11    1    4    4    0    0 -0.26123108108E+02  0.10225467756E+03  0.11901375603E+03  0.15906825575E+03  0.51100000000E-03 0. -1.
     200002    1    4    4    0    0  0.86468972326E+02 -0.12192905664E+03 -0.90362667460E+02  0.17722581555E+03  0.30000000000E+02 0. -1.
     200000    1    3    3    0    0  0.67894339608E+02  0.35500568810E+03  0.26581641888E+02  0.37622634626E+03  0.10100000000E+03 0. -1.
    -200001    1    1    2    0    0 -0.12824020383E+03 -0.33533130903E+03  0.43870786350E+03  0.83494085191E+03  0.61300000000E+03 0.  1.
<mgrwt>
<rscale>  0 0.14665126E+04</rscale>
<asrwt>0</asrwt>
<pdfrwt beam="1">  1        2 0.14581442E+00 0.14665126E+04</pdfrwt>
<pdfrwt beam="2">  1       -2 0.75251477E-01 0.14665126E+04</pdfrwt>
<totfact> 0.41947781E+01</totfact>
</mgrwt>
</event>
<event>
 8    1  0.7326756E-052  0.1287673E+04  0.7818608E-02  0.9039398E-01
         -2   -1    0    0    0  501 -0.00000000000E+00  0.00000000000E+00  0.39791902029E+03  0.39791902030E+03  0.25500000000E-02 0. -1.
          2   -1    0    0  501    0  0.00000000000E+00 -0.00000000000E+00 -0.10417338313E+04  0.10417338313E+04  0.25500000000E-02 0.  1.
     200001    2    1    2    0    0  0.16437664163E+02  0.18191688022E+03 -0.39637021082E+03  0.75382358841E+03  0.61463542877E+03 0.  0.
    5000001    2    3    3    0    0 -0.10433116147E+03 -0.64345115545E+02 -0.43235589343E+03  0.45933072066E+03  0.95014773636E+02 0.  0.
        -11    1    4    4    0    0 -0.40398332488E+02 -0.33079126110E+02 -0.31190740735E+03  0.31624750531E+03  0.51100000000E-03 0. -1.
     200002    1    4    4    0    0 -0.63932828979E+02 -0.31265989435E+02 -0.12044848608E+03  0.14308321535E+03  0.30000000000E+02 0. -1.
     200000    1    3    3    0    0  0.12076882563E+03  0.24626199576E+03  0.35985682612E+02  0.29449286775E+03  0.10100000000E+03 0. -1.
    -200001    1    1    2    0    0 -0.16437664163E+02 -0.18191688022E+03 -0.24744460021E+03  0.68582926322E+03  0.61300000000E+03 0.  1.
<mgrwt>
<rscale>  0 0.12876734E+04</rscale>
<asrwt>0</asrwt>
<pdfrwt beam="1">  1        2 0.14881912E+00 0.12876734E+04</pdfrwt>
<pdfrwt beam="2">  1       -2 0.56845575E-01 0.12876734E+04</pdfrwt>
<totfact> 0.75432874E+01</totfact>
</mgrwt>
</event>
<event>
 8    1  0.7326756E-052  0.1357335E+04  0.7818608E-02  0.8985294E-01
         -2   -1    0    0    0  501 -0.00000000000E+00  0.00000000000E+00  0.38208377769E+03  0.38208377769E+03  0.25500000000E-02 0. -1.
          2   -1    0    0  501    0  0.00000000000E+00 -0.00000000000E+00 -0.12054679908E+04  0.12054679908E+04  0.25500000000E-02 0.  1.
     200001    2    1    2    0    0  0.10181853654E+03 -0.10125691358E+03 -0.11330251951E+03  0.63854966708E+03  0.61179100963E+03 0.  0.
    5000001    2    3    3    0    0  0.23231667317E+03 -0.89154091746E+01  0.17053136460E+03  0.29749338012E+03  0.73286040598E+02 0.  0.
        -11    1    4    4    0    0  0.39473562151E+02  0.20855157425E+02  0.45866850773E+02  0.64006778549E+02  0.51100000000E-03 0. -1.
     200002    1    4    4    0    0  0.19284311102E+03 -0.29770566600E+02  0.12466451383E+03  0.23348660157E+03  0.30000000000E+02 0. -1.
     200000    1    3    3    0    0 -0.13049813664E+03 -0.92341504408E+02 -0.28383388411E+03  0.34105628696E+03  0.10100000000E+03 0.  1.
    -200001    1    1    2    0    0 -0.10181853654E+03  0.10125691358E+03 -0.71008169365E+03  0.94900210147E+03  0.61300000000E+03 0.  1.
<mgrwt>
<rscale>  0 0.13573353E+04</rscale>
<asrwt>0</asrwt>
<pdfrwt beam="1">  1        2 0.17220971E+00 0.13573353E+04</pdfrwt>
<pdfrwt beam="2">  1       -2 0.54583397E-01 0.13573353E+04</pdfrwt>
<totfact> 0.65481988E+01</totfact>
</mgrwt>
</event>
<event>
 8    1  0.7326756E-052  0.1412535E+04  0.7818608E-02  0.8944795E-01
          2   -1    0    0  501    0  0.00000000000E+00  0.00000000000E+00  0.22307513911E+04  0.22307513911E+04  0.25500000000E-02 0. -1.
         -2   -1    0    0    0  501 -0.00000000000E+00 -0.00000000000E+00 -0.22360806945E+03  0.22360806946E+03  0.25500000000E-02 0.  1.
     200001    2    1    2    0    0 -0.22046266336E+03  0.20216407741E+03  0.13230138465E+04  0.14882972271E+04  0.61252665096E+03 0.  0.
    5000001    2    3    3    0    0  0.10681617297E+03 -0.56981816067E+02  0.63569412981E+02  0.15763223852E+03  0.78423403279E+02 0.  0.
        -11    1    4    4    0    0  0.67380384690E+02 -0.35228753091E+02  0.25539545133E+01  0.76076960831E+02  0.51100000000E-03 0. -1.
     200002    1    4    4    0    0  0.39435788285E+02 -0.21753062975E+02  0.61015458468E+02  0.81555277687E+02  0.30000000000E+02 0. -1.
     200000    1    3    3    0    0 -0.32727883633E+03  0.25914589347E+03  0.12594444335E+04  0.13306649886E+04  0.10100000000E+03 0. -1.
    -200001    1    1    2    0    0  0.22046266336E+03 -0.20216407741E+03  0.68412947523E+03  0.96606223350E+03  0.61300000000E+03 0.  1.
<mgrwt>
<rscale>  0 0.14125353E+04</rscale>
<asrwt>0</asrwt>
<pdfrwt beam="1">  1        2 0.31867878E+00 0.14125353E+04</pdfrwt>
<pdfrwt beam="2">  1       -2 0.31944009E-01 0.14125353E+04</pdfrwt>
<totfact> 0.54129940E+01</totfact>
</mgrwt>
</event>
<event>
 8    1  0.7326756E-052  0.1778168E+04  0.7818608E-02  0.8717996E-01
          2   -1    0    0  501    0  0.00000000000E+00  0.00000000000E+00  0.79171068589E+03  0.79171068589E+03  0.25500000000E-02 0.  1.
         -2   -1    0    0    0  501 -0.00000000000E+00 -0.00000000000E+00 -0.99843330146E+03  0.99843330147E+03  0.25500000000E-02 0. -1.
     200001    2    1    2    0    0  0.37057315553E+03 -0.52535817491E+03 -0.14204737684E+03  0.89948268133E+03  0.61283436686E+03 0.  0.
    5000001    2    3    3    0    0  0.54306794405E+02  0.87715926100E+02 -0.14931857580E+03  0.20224661310E+03  0.89243172405E+02 0.  0.
        -11    1    4    4    0    0  0.25137932130E+02  0.53622632764E+02 -0.13343052453E+03  0.14598290055E+03  0.51100000000E-03 0. -1.
     200002    1    4    4    0    0  0.29168862275E+02  0.34093293336E+02 -0.15888051274E+02  0.56263712553E+02  0.30000000000E+02 0.  1.
     200000    1    3    3    0    0  0.31626636113E+03 -0.61307410101E+03  0.72711989577E+01  0.69723606823E+03  0.10100000000E+03 0. -1.
    -200001    1    1    2    0    0 -0.37057315553E+03  0.52535817491E+03 -0.64675238730E+02  0.89066130603E+03  0.61300000000E+03 0.  1.
<mgrwt>
<rscale>  0 0.17781679E+04</rscale>
<asrwt>0</asrwt>
<pdfrwt beam="1">  1        2 0.11310153E+00 0.17781679E+04</pdfrwt>
<pdfrwt beam="2">  1       -2 0.14263333E+00 0.17781679E+04</pdfrwt>
<totfact> 0.12498776E+01</totfact>
</mgrwt>
</event>
<event>
 8    1  0.7326756E-052  0.1346790E+04  0.7818608E-02  0.8993262E-01
         -2   -1    0    0    0  501 -0.00000000000E+00  0.00000000000E+00  0.44256382883E+03  0.44256382883E+03  0.25500000000E-02 0. -1.
          2   -1    0    0  501    0  0.00000000000E+00 -0.00000000000E+00 -0.10246218286E+04  0.10246218286E+04  0.25500000000E-02 0.  1.
     200001    2    1    2    0    0 -0.71645873118E+02 -0.24795010517E+03 -0.16550586599E+03  0.68239456041E+03  0.60963739929E+03 0.  0.
    5000001    2    3    3    0    0  0.12342191366E+03 -0.16745772813E+03  0.16669693700E+03  0.27608166803E+03  0.71820325351E+02 0.  0.
        -11    1    4    4    0    0  0.67428240274E+02 -0.55241135450E+02  0.42217542243E+02  0.96852834267E+02  0.51100000000E-03 0. -1.
     200002    1    4    4    0    0  0.55993673387E+02 -0.11221659268E+03  0.12447939476E+03  0.17922883376E+03  0.30000000000E+02 0. -1.
     200000    1    3    3    0    0 -0.19506778678E+03 -0.80492377041E+02 -0.33220280299E+03  0.40631289238E+03  0.10100000000E+03 0.  1.
    -200001    1    1    2    0    0  0.71645873118E+02  0.24795010517E+03 -0.41655213375E+03  0.78479109700E+03  0.61300000000E+03 0.  1.
<mgrwt>
<rscale>  0 0.13467896E+04</rscale>
<asrwt>0</asrwt>
<pdfrwt beam="1">  1        2 0.14637455E+00 0.13467896E+04</pdfrwt>
<pdfrwt beam="2">  1       -2 0.63223404E-01 0.13467896E+04</pdfrwt>
<totfact> 0.61467898E+01</totfact>
</mgrwt>
</event>
<event>
 8    1  0.7326756E-052  0.2422666E+04  0.7818608E-02  0.8431066E-01
          2   -1    0    0  501    0  0.00000000000E+00  0.00000000000E+00  0.24163270961E+04  0.24163270961E+04  0.25500000000E-02 0.  1.
         -2   -1    0    0    0  501 -0.00000000000E+00 -0.00000000000E+00 -0.60725534801E+03  0.60725534802E+03  0.25500000000E-02 0. -1.
     200001    2    1    2    0    0  0.42354781871E+03  0.69403260320E+03  0.84187364792E+02  0.10205674305E+04  0.61106166527E+03 0.  0.
    5000001    2    3    3    0    0  0.36543386736E+03  0.72936389907E+02  0.39983467945E+01  0.38356741785E+03  0.90809409598E+02 0.  0.
        -11    1    4    4    0    0  0.21702613910E+03  0.47769381428E+02 -0.35600154007E+02  0.22505472628E+03  0.51100000000E-03 0. -1.
     200002    1    4    4    0    0  0.14840772826E+03  0.25167008480E+02  0.39598500802E+02  0.15851269157E+03  0.30000000000E+02 0. -1.
     200000    1    3    3    0    0  0.58113951357E+02  0.62109621330E+03  0.80189017998E+02  0.63700001265E+03  0.10100000000E+03 0.  1.
    -200001    1    1    2    0    0 -0.42354781871E+03 -0.69403260320E+03  0.17248843833E+04  0.20030150137E+04  0.61300000000E+03 0.  1.
<mgrwt>
<rscale>  0 0.24226659E+04</rscale>
<asrwt>0</asrwt>
<pdfrwt beam="1">  1        2 0.34518959E+00 0.24226659E+04</pdfrwt>
<pdfrwt beam="2">  1       -2 0.86750763E-01 0.24226659E+04</pdfrwt>
<totfact> 0.50624541E+00</totfact>
</mgrwt>
</event>
<event>
 8    1  0.7326756E-052  0.2030089E+04  0.7818608E-02  0.8592681E-01
         -2   -1    0    0    0  501 -0.00000000000E+00  0.00000000000E+00  0.60663844655E+03  0.60663844656E+03  0.25500000000E-02 0. -1.
          2   -1    0    0  501    0  0.00000000000E+00 -0.00000000000E+00 -0.16984013848E+04  0.16984013848E+04  0.25500000000E-02 0.  1.
     200001    2    1    2    0    0  0.69410802465E+03  0.41378599974E+03 -0.50563752136E+03  0.11335805671E+04  0.61345806351E+03 0.  0.
    5000001    2    3    3    0    0  0.49305544597E+03  0.33473494241E+03 -0.60926110268E+03  0.87356123002E+03  0.19172630724E+03 0.  0.
        -11    1    4    4    0    0  0.39626315680E+03  0.21846302738E+03 -0.35067237653E+03  0.57246982403E+03  0.51100000000E-03 0. -1.
     200002    1    4    4    0    0  0.96792289169E+02  0.11627191503E+03 -0.25858872615E+03  0.30109140599E+03  0.30000000000E+02 0. -1.
     200000    1    3    3    0    0  0.20105257869E+03  0.79051057336E+02  0.10362358132E+03  0.26001933711E+03  0.10100000000E+03 0. -1.
    -200001    1    1    2    0    0 -0.69410802465E+03 -0.41378599974E+03 -0.58612541692E+03  0.11714592643E+04  0.61300000000E+03 0. -1.
<mgrwt>
<rscale>  0 0.20300892E+04</rscale>
<asrwt>0</asrwt>
<pdfrwt beam="1">  1        2 0.24262877E+00 0.20300892E+04</pdfrwt>
<pdfrwt beam="2">  1       -2 0.86662636E-01 0.20300892E+04</pdfrwt>
<totfact> 0.12328724E+01</totfact>
</mgrwt>
</event>
<event>
 8    1  0.7326756E-052  0.2696699E+04  0.7818608E-02  0.8336077E-01
         -2   -1    0    0    0  501 -0.00000000000E+00  0.00000000000E+00  0.94771240029E+03  0.94771240029E+03  0.25500000000E-02 0. -1.
          2   -1    0    0  501    0  0.00000000000E+00 -0.00000000000E+00 -0.19183522071E+04  0.19183522071E+04  0.25500000000E-02 0.  1.
     200001    2    1    2    0    0  0.75220088852E+03 -0.33220887156E+03  0.44478955776E+03  0.11181005926E+04  0.61330438884E+03 0.  0.
    5000001    2    3    3    0    0  0.44730876347E+03 -0.28746884001E+03 -0.34855647194E+02  0.53911751770E+03  0.81910426075E+02 0.  0.
        -11    1    4    4    0    0  0.16513682307E+03 -0.82529670348E+02  0.16469819710E+02  0.18534446791E+03  0.51100000000E-03 0. -1.
     200002    1    4    4    0    0  0.28217194040E+03 -0.20493916966E+03 -0.51325466904E+02  0.35377304980E+03  0.30000000000E+02 0. -1.
     200000    1    3    3    0    0  0.30489212505E+03 -0.44740031548E+02  0.47964520496E+03  0.57898307486E+03  0.10100000000E+03 0. -1.
    -200001    1    1    2    0    0 -0.75220088852E+03  0.33220887156E+03 -0.14154293645E+04  0.17479640148E+04  0.61300000000E+03 0.  1.
<mgrwt>
<rscale>  0 0.26966989E+04</rscale>
<asrwt>0</asrwt>
<pdfrwt beam="1">  1        2 0.27405031E+00 0.26966989E+04</pdfrwt>
<pdfrwt beam="2">  1       -2 0.13538749E+00 0.26966989E+04</pdfrwt>
<totfact> 0.30592977E+00</totfact>
</mgrwt>
</event>
<event>
 8    1  0.7326756E-052  0.1586520E+04  0.7818608E-02  0.8828872E-01
          2   -1    0    0  501    0  0.00000000000E+00  0.00000000000E+00  0.16173343948E+04  0.16173343948E+04  0.25500000000E-02 0.  1.
         -2   -1    0    0    0  501 -0.00000000000E+00 -0.00000000000E+00 -0.38907333458E+03  0.38907333459E+03  0.25500000000E-02 0. -1.
     200001    2    1    2    0    0 -0.42277524224E+02 -0.77410279846E+02 -0.12685797744E+02  0.61950548165E+03  0.61306310593E+03 0.  0.
    5000001    2    3    3    0    0  0.90301812505E+02  0.12936687215E+03 -0.22087564701E+03  0.28204721096E+03  0.76644457178E+02 0.  0.
        -11    1    4    4    0    0  0.18498734011E+02  0.75968289944E+02 -0.12554442009E+03  0.14790126995E+03  0.51100000000E-03 0. -1.
     200002    1    4    4    0    0  0.71803078494E+02  0.53398582206E+02 -0.95331226920E+02  0.13414594101E+03  0.30000000000E+02 0. -1.
     200000    1    3    3    0    0 -0.13257933673E+03 -0.20677715200E+03  0.20818984927E+03  0.33745827069E+03  0.10100000000E+03 0. -1.
    -200001    1    1    2    0    0  0.42277524224E+02  0.77410279846E+02  0.12409468580E+04  0.13869022477E+04  0.61300000000E+03 0.  1.
<mgrwt>
<rscale>  0 0.15865203E+04</rscale>
<asrwt>0</asrwt>
<pdfrwt beam="1">  1        2 0.23104777E+00 0.15865203E+04</pdfrwt>
<pdfrwt beam="2">  1       -2 0.55581904E-01 0.15865203E+04</pdfrwt>
<totfact> 0.37062061E+01</totfact>
</mgrwt>
</event>
<event>
 8    1  0.7326756E-052  0.2219720E+04  0.7818608E-02  0.8510265E-01
         -2   -1    0    0    0  501 -0.00000000000E+00  0.00000000000E+00  0.34807411480E+03  0.34807411481E+03  0.25500000000E-02 0. -1.
          2   -1    0    0  501    0  0.00000000000E+00 -0.00000000000E+00 -0.35388690367E+04  0.35388690367E+04  0.25500000000E-02 0.  1.
     200001    2    1    2    0    0  0.67018731094E+03 -0.63392539234E+03 -0.14745392168E+04  0.18443185947E+04  0.61337813956E+03 0.  0.
    5000001    2    3    3    0    0  0.20105832923E+02 -0.35876415185E+03 -0.51908054217E+03  0.65208459282E+03  0.16325974936E+03 0.  0.
        -11    1    4    4    0    0 -0.12188806804E+02 -0.12508741322E+03 -0.69821614173E+02  0.14377234005E+03  0.51100000000E-03 0. -1.
     200002    1    4    4    0    0  0.32294639727E+02 -0.23367673863E+03 -0.44925892800E+03  0.50831225277E+03  0.30000000000E+02 0. -1.
     200000    1    3    3    0    0  0.65008147801E+03 -0.27516124049E+03 -0.95545867463E+03  0.11922340019E+04  0.10100000000E+03 0. -1.
    -200001    1    1    2    0    0 -0.67018731094E+03  0.63392539234E+03 -0.17162557051E+04  0.20426245568E+04  0.61300000000E+03 0.  1.
<mgrwt>
<rscale>  0 0.22197195E+04</rscale>
<asrwt>0</asrwt>
<pdfrwt beam="1">  1        2 0.50555270E+00 0.22197195E+04</pdfrwt>
<pdfrwt beam="2">  1       -2 0.49724876E-01 0.22197195E+04</pdfrwt>
<totfact> 0.39973797E+00</totfact>
</mgrwt>
</event>
<event>
 8    1  0.7326756E-052  0.1946514E+04  0.7818608E-02  0.8632044E-01
          2   -1    0    0  501    0  0.00000000000E+00  0.00000000000E+00  0.40113586056E+03  0.40113586057E+03  0.25500000000E-02 0.  1.
         -2   -1    0    0    0  501 -0.00000000000E+00 -0.00000000000E+00 -0.23613676856E+04  0.23613676856E+04  0.25500000000E-02 0. -1.
     200001    2    1    2    0    0  0.28628864300E+03 -0.25989360113E+02 -0.19724292079E+04  0.20853370895E+04  0.61279455181E+03 0.  0.
    5000001    2    3    3    0    0  0.35441968993E+03  0.19588387814E+03 -0.10425004192E+04  0.11215746056E+04  0.84490599928E+02 0.  0.
        -11    1    4    4    0    0  0.21576536679E+03  0.12537853969E+03 -0.72502162745E+03  0.76676647814E+03  0.51100000000E-03 0. -1.
     200002    1    4    4    0    0  0.13865432314E+03  0.70505338452E+02 -0.31747879177E+03  0.35480812744E+03  0.30000000000E+02 0. -1.
     200000    1    3    3    0    0 -0.68131046930E+02 -0.22187323825E+03 -0.92992878866E+03  0.96376248390E+03  0.10100000000E+03 0. -1.
    -200001    1    1    2    0    0 -0.28628864300E+03  0.25989360113E+02  0.12197382812E+02  0.67716645671E+03  0.61300000000E+03 0.  1.
<mgrwt>
<rscale>  0 0.19465141E+04</rscale>
<asrwt>0</asrwt>
<pdfrwt beam="1">  1        2 0.57305124E-01 0.19465141E+04</pdfrwt>
<pdfrwt beam="2">  1       -2 0.33733823E+00 0.19465141E+04</pdfrwt>
<totfact> 0.15110044E+00</totfact>
</mgrwt>
</event>
<event>
 8    1  0.7326756E-052  0.1544580E+04  0.7818608E-02  0.8855337E-01
         -2   -1    0    0    0  501 -0.00000000000E+00  0.00000000000E+00  0.35548330985E+03  0.35548330986E+03  0.25500000000E-02 0. -1.
          2   -1    0    0  501    0  0.00000000000E+00 -0.00000000000E+00 -0.16778058651E+04  0.16778058651E+04  0.25500000000E-02 0.  1.
     200001    2    1    2    0    0 -0.35409730774E+03  0.23993760831E+01 -0.25360578090E+03  0.75137061119E+03  0.61225096399E+03 0.  0.
    5000001    2    3    3    0    0  0.92867891934E+02 -0.49878804114E+02 -0.19418871684E+03  0.28635202517E+03  0.18214248302E+03 0.  0.
        -11    1    4    4    0    0  0.93323803493E+02  0.30754134550E+02 -0.33024798114E+02  0.10366188490E+03  0.51100000000E-03 0. -1.
     200002    1    4    4    0    0 -0.45591155922E+00 -0.80632938663E+02 -0.16116391873E+03  0.18269014027E+03  0.30000000000E+02 0. -1.
     200000    1    3    3    0    0 -0.44696519967E+03  0.52278180197E+02 -0.59417064053E+02  0.46501858602E+03  0.10100000000E+03 0. -1.
    -200001    1    1    2    0    0  0.35409730774E+03 -0.23993760831E+01 -0.10687167744E+04  0.12819185638E+04  0.61300000000E+03 0.  1.
<mgrwt>
<rscale>  0 0.15445802E+04</rscale>
<asrwt>0</asrwt>
<pdfrwt beam="1">  1        2 0.23968655E+00 0.15445802E+04</pdfrwt>
<pdfrwt beam="2">  1       -2 0.50783331E-01 0.15445802E+04</pdfrwt>
<totfact> 0.41647408E+01</totfact>
</mgrwt>
</event>
<event>
 8    1  0.7326756E-052  0.1970069E+04  0.7818608E-02  0.8620743E-01
          2   -1    0    0  501    0  0.00000000000E+00  0.00000000000E+00  0.12779349113E+04  0.12779349113E+04  0.25500000000E-02 0.  1.
         -2   -1    0    0    0  501 -0.00000000000E+00 -0.00000000000E+00 -0.75926658086E+03  0.75926658087E+03  0.25500000000E-02 0. -1.
     200001    2    1    2    0    0 -0.59013269617E+03 -0.49285011248E+03  0.31498790913E+03  0.10330040283E+04  0.61377691967E+03 0.  0.
    5000001    2    3    3    0    0 -0.42476260014E+03 -0.60765284787E+03  0.17831990791E+03  0.76955369280E+03  0.10368050226E+03 0.  0.
        -11    1    4    4    0    0 -0.29083688484E+03 -0.34830894130E+03  0.13136582942E+03  0.47240045863E+03  0.51100000000E-03 0. -1.
     200002    1    4    4    0    0 -0.13392571530E+03 -0.25934390657E+03  0.46954078493E+02  0.29715323417E+03  0.30000000000E+02 0. -1.
     200000    1    3    3    0    0 -0.16537009603E+03  0.11480273539E+03  0.13666800121E+03  0.26345033549E+03  0.10100000000E+03 0. -1.
    -200001    1    1    2    0    0  0.59013269617E+03  0.49285011248E+03  0.20368042132E+03  0.10041974639E+04  0.61300000000E+03 0.  1.
<mgrwt>
<rscale>  0 0.19700693E+04</rscale>
<asrwt>0</asrwt>
<pdfrwt beam="1">  1        2 0.18256213E+00 0.19700693E+04</pdfrwt>
<pdfrwt beam="2">  1       -2 0.10846666E+00 0.19700693E+04</pdfrwt>
<totfact> 0.12274656E+01</totfact>
</mgrwt>
</event>
<event>
 8    1  0.7326756E-052  0.1636671E+04  0.7818608E-02  0.8798331E-01
         -2   -1    0    0    0  501 -0.00000000000E+00  0.00000000000E+00  0.25277806548E+03  0.25277806549E+03  0.25500000000E-02 0. -1.
          2   -1    0    0  501    0  0.00000000000E+00 -0.00000000000E+00 -0.26492517443E+04  0.26492517443E+04  0.25500000000E-02 0.  1.
     200001    2    1    2    0    0  0.24560083145E+03  0.41985096524E+03 -0.77372042198E+03  0.11004494663E+04  0.61298542811E+03 0.  0.
    5000001    2    3    3    0    0 -0.22078699110E+01 -0.27220184145E+02 -0.50127540971E+03  0.51247918662E+03  0.10301488834E+03 0.  0.
        -11    1    4    4    0    0 -0.37130710395E+01 -0.60702301995E+02 -0.31813452656E+03  0.32389525059E+03  0.51100000000E-03 0. -1.
     200002    1    4    4    0    0  0.15052011286E+01  0.33482117850E+02 -0.18314088315E+03  0.18858393603E+03  0.30000000000E+02 0.  1.
     200000    1    3    3    0    0  0.24780870137E+03  0.44707114939E+03 -0.27244501226E+03  0.58797027969E+03  0.10100000000E+03 0. -1.
    -200001    1    1    2    0    0 -0.24560083145E+03 -0.41985096524E+03 -0.16227532568E+04  0.18015803435E+04  0.61300000000E+03 0.  1.
<mgrwt>
<rscale>  0 0.16366707E+04</rscale>
<asrwt>0</asrwt>
<pdfrwt beam="1">  1        2 0.37846452E+00 0.16366707E+04</pdfrwt>
<pdfrwt beam="2">  1       -2 0.36111154E-01 0.16366707E+04</pdfrwt>
<totfact> 0.25418875E+01</totfact>
</mgrwt>
</event>
<event>
 8    1  0.7326756E-052  0.1378007E+04  0.7818608E-02  0.8969894E-01
          2   -1    0    0  501    0  0.00000000000E+00  0.00000000000E+00  0.20349105863E+04  0.20349105863E+04  0.25500000000E-02 0.  1.
         -2   -1    0    0    0  501 -0.00000000000E+00 -0.00000000000E+00 -0.23329080087E+03  0.23329080089E+03  0.25500000000E-02 0. -1.
     200001    2    1    2    0    0 -0.23781361814E+03  0.66603227579E+02  0.12202392968E+04  0.13879948322E+04  0.61364029026E+03 0.  0.
    5000001    2    3    3    0    0 -0.40156745312E+03  0.14661406735E+03  0.95819816177E+03  0.10532059295E+04  0.91361416766E+02 0.  0.
        -11    1    4    4    0    0 -0.28318854265E+03  0.78500981247E+02  0.70837198557E+03  0.76690874600E+03  0.51100000000E-03 0. -1.
     200002    1    4    4    0    0 -0.11837891047E+03  0.68113086105E+02  0.24982617620E+03  0.28629718346E+03  0.30000000000E+02 0.  1.
     200000    1    3    3    0    0  0.16375383497E+03 -0.80010839773E+02  0.26204113507E+03  0.33478890277E+03  0.10100000000E+03 0.  1.
    -200001    1    1    2    0    0  0.23781361814E+03 -0.66603227579E+02  0.58138048861E+03  0.88020655498E+03  0.61300000000E+03 0. -1.
<mgrwt>
<rscale>  0 0.13780071E+04</rscale>
<asrwt>0</asrwt>
<pdfrwt beam="1">  1        2 0.29070152E+00 0.13780071E+04</pdfrwt>
<pdfrwt beam="2">  1       -2 0.33327257E-01 0.13780071E+04</pdfrwt>
<totfact> 0.63177845E+01</totfact>
</mgrwt>
</event>
<event>
 8    1  0.7326756E-052  0.1868491E+04  0.7818608E-02  0.8670701E-01
         -2   -1    0    0    0  501 -0.00000000000E+00  0.00000000000E+00  0.73968266454E+03  0.73968266454E+03  0.25500000000E-02 0. -1.
          2   -1    0    0  501    0  0.00000000000E+00 -0.00000000000E+00 -0.11799852082E+04  0.11799852082E+04  0.25500000000E-02 0.  1.
     200001    2    1    2    0    0 -0.66982725421E+03 -0.18266439807E+02 -0.44440166600E+03  0.10114894673E+04  0.61369038476E+03 0.  0.
    5000001    2    3    3    0    0 -0.15151737922E+03  0.62531375275E+02  0.13271900083E+03  0.22507820239E+03  0.78601367103E+02 0.  0.
        -11    1    4    4    0    0 -0.82687987669E+02  0.39355183120E+02  0.31294026036E+02  0.96775254114E+02  0.51100000000E-03 0. -1.
     200002    1    4    4    0    0 -0.68829391551E+02  0.23176192155E+02  0.10142497480E+03  0.12830294828E+03  0.30000000000E+02 0. -1.
     200000    1    3    3    0    0 -0.51830987499E+03 -0.80797815082E+02 -0.57712066684E+03  0.78641126487E+03  0.10100000000E+03 0.  1.
    -200001    1    1    2    0    0  0.66982725421E+03  0.18266439807E+02  0.40991223835E+01  0.90817840544E+03  0.61300000000E+03 0. -1.
<mgrwt>
<rscale>  0 0.18684909E+04</rscale>
<asrwt>0</asrwt>
<pdfrwt beam="1">  1        2 0.16856931E+00 0.18684909E+04</pdfrwt>
<pdfrwt beam="2">  1       -2 0.10566895E+00 0.18684909E+04</pdfrwt>
<totfact> 0.14969234E+01</totfact>
</mgrwt>
</event>
<event>
 8    1  0.7326756E-052  0.1272730E+04  0.7818608E-02  0.9051475E-01
         -2   -1    0    0    0  501 -0.00000000000E+00  0.00000000000E+00  0.15410394060E+03  0.15410394062E+03  0.25500000000E-02 0. -1.
          2   -1    0    0  501    0  0.00000000000E+00 -0.00000000000E+00 -0.26278386755E+04  0.26278386755E+04  0.25500000000E-02 0.  1.
     200001    2    1    2    0    0 -0.15549287457E+03  0.74565414287E+01 -0.13952687701E+04  0.15317060499E+04  0.61246620211E+03 0.  0.
    5000001    2    3    3    0    0  0.61158367164E+02  0.25966228501E+03 -0.53476956705E+03  0.60369453278E+03  0.85461985321E+02 0.  0.
        -11    1    4    4    0    0  0.70358930918E+02  0.15551943530E+03 -0.34655598850E+03  0.38631299109E+03  0.51100000000E-03 0. -1.
     200002    1    4    4    0    0 -0.92005637541E+01  0.10414284970E+03 -0.18821357855E+03  0.21738154169E+03  0.30000000000E+02 0. -1.
     200000    1    3    3    0    0 -0.21665124173E+03 -0.25220574358E+03 -0.86049920300E+03  0.92801151717E+03  0.10100000000E+03 0. -1.
    -200001    1    1    2    0    0  0.15549287457E+03 -0.74565414287E+01 -0.10784659648E+04  0.12502365661E+04  0.61300000000E+03 0.  1.
<mgrwt>
<rscale>  0 0.12727298E+04</rscale>
<asrwt>0</asrwt>
<pdfrwt beam="1">  1        2 0.37540550E+00 0.12727298E+04</pdfrwt>
<pdfrwt beam="2">  1       -2 0.22014850E-01 0.12727298E+04</pdfrwt>
<totfact> 0.67103882E+01</totfact>
</mgrwt>
</event>
<event>
 8    1  0.7326756E-052  0.2148834E+04  0.7818608E-02  0.8540031E-01
          2   -1    0    0  501    0  0.00000000000E+00  0.00000000000E+00  0.32065892260E+04  0.32065892260E+04  0.25500000000E-02 0. -1.
         -2   -1    0    0    0  501 -0.00000000000E+00 -0.00000000000E+00 -0.35999999979E+03  0.35999999980E+03  0.25500000000E-02 0.  1.
     200001    2    1    2    0    0 -0.82481228717E+02 -0.36133147685E+03  0.95518736879E+02  0.72378753970E+03  0.61431342512E+03 0.  0.
    5000001    2    3    3    0    0  0.15629916275E+03 -0.15454488209E+03  0.24165099211E+03  0.36138940624E+03  0.15457539293E+03 0.  0.
        -11    1    4    4    0    0  0.36469829830E+01  0.22295469638E+02  0.59488420458E+02  0.63633800924E+02  0.51100000000E-03 0. -1.
     200002    1    4    4    0    0  0.15265217977E+03 -0.17684035173E+03  0.18216257165E+03  0.29775560532E+03  0.30000000000E+02 0. -1.
     200000    1    3    3    0    0 -0.23878039147E+03 -0.20678659476E+03 -0.14613225523E+03  0.36239813346E+03  0.10100000000E+03 0. -1.
    -200001    1    1    2    0    0  0.82481228717E+02  0.36133147685E+03  0.27510704894E+04  0.28428016861E+04  0.61300000000E+03 0. -1.
<mgrwt>
<rscale>  0 0.21488342E+04</rscale>
<asrwt>0</asrwt>
<pdfrwt beam="1">  1        2 0.45808419E+00 0.21488342E+04</pdfrwt>
<pdfrwt beam="2">  1       -2 0.51428570E-01 0.21488342E+04</pdfrwt>
<totfact> 0.59259403E+00</totfact>
</mgrwt>
</event>
<event>
 8    1  0.7326756E-052  0.1251148E+04  0.7818608E-02  0.9069228E-01
         -2   -1    0    0    0  501 -0.00000000000E+00  0.00000000000E+00  0.24237982823E+03  0.24237982824E+03  0.25500000000E-02 0. -1.
          2   -1    0    0  501    0  0.00000000000E+00 -0.00000000000E+00 -0.16145853127E+04  0.16145853127E+04  0.25500000000E-02 0.  1.
     200001    2    1    2    0    0 -0.42471916605E+02 -0.96060169226E+02 -0.76829532870E+03  0.99006959012E+03  0.61557181657E+03 0.  0.
    5000001    2    3    3    0    0 -0.10491604076E+03  0.63476294523E+02 -0.77307391080E+03  0.79113496077E+03  0.11495494339E+03 0.  0.
        -11    1    4    4    0    0 -0.33373595920E+02  0.81655971802E+02 -0.42485940201E+03  0.43392050668E+03  0.51100000000E-03 0. -1.
     200002    1    4    4    0    0 -0.71542444841E+02 -0.18179677280E+02 -0.34821450879E+03  0.35721445409E+03  0.30000000000E+02 0. -1.
     200000    1    3    3    0    0  0.62444124156E+02 -0.15953646375E+03  0.47785821007E+01  0.19893462935E+03  0.10100000000E+03 0. -1.
    -200001    1    1    2    0    0  0.42471916605E+02  0.96060169226E+02 -0.60391015578E+03  0.86689555084E+03  0.61300000000E+03 0. -1.
<mgrwt>
<rscale>  0 0.12511481E+04</rscale>
<asrwt>0</asrwt>
<pdfrwt beam="1">  1        2 0.23065504E+00 0.12511481E+04</pdfrwt>
<pdfrwt beam="2">  1       -2 0.34625691E-01 0.12511481E+04</pdfrwt>
<totfact> 0.97729899E+01</totfact>
</mgrwt>
</event>
<event>
 8    1  0.7326756E-052  0.1590727E+04  0.7818608E-02  0.8826265E-01
         -2   -1    0    0    0  501 -0.00000000000E+00  0.00000000000E+00  0.57372329599E+03  0.57372329600E+03  0.25500000000E-02 0.  1.
          2   -1    0    0  501    0  0.00000000000E+00 -0.00000000000E+00 -0.11026278905E+04  0.11026278905E+04  0.25500000000E-02 0. -1.
     200001    2    1    2    0    0  0.32498890307E+03  0.13500973323E+03  0.10733294402E+03  0.72534507685E+03  0.62510775428E+03 0.  0.
    5000001    2    3    3    0    0  0.48692456513E+03  0.33666429920E+02  0.41489415930E+02  0.49944688305E+03  0.97451817413E+02 0.  0.
        -11    1    4    4    0    0  0.20174890801E+03  0.16033805270E+02  0.61324733724E+02  0.21147204960E+03  0.51100000000E-03 0. -1.
     200002    1    4    4    0    0  0.28517565712E+03  0.17632624650E+02 -0.19835317794E+02  0.28797483344E+03  0.30000000000E+02 0. -1.
     200000    1    3    3    0    0 -0.16193566206E+03  0.10134330331E+03  0.65843528089E+02  0.22589819380E+03  0.10100000000E+03 0.  1.
    -200001    1    1    2    0    0 -0.32498890307E+03 -0.13500973323E+03 -0.63623753857E+03  0.95100610969E+03  0.61300000000E+03 0. -1.
<mgrwt>
<rscale>  0 0.15907273E+04</rscale>
<asrwt>0</asrwt>
<pdfrwt beam="1">  1        2 0.15751827E+00 0.15907273E+04</pdfrwt>
<pdfrwt beam="2">  1       -2 0.81960471E-01 0.15907273E+04</pdfrwt>
<totfact> 0.30647954E+01</totfact>
</mgrwt>
</event>
<event>
 8    1  0.7326756E-052  0.1399528E+04  0.7818608E-02  0.8954160E-01
          2   -1    0    0  501    0  0.00000000000E+00  0.00000000000E+00  0.21284979556E+04  0.21284979556E+04  0.25500000000E-02 0.  1.
         -2   -1    0    0    0  501 -0.00000000000E+00 -0.00000000000E+00 -0.23005420645E+03  0.23005420646E+03  0.25500000000E-02 0. -1.
     200001    2    1    2    0    0 -0.27604820283E+03  0.18708940788E+03  0.10339842828E+04  0.12475777133E+04  0.61328753195E+03 0.  0.
    5000001    2    3    3    0    0 -0.23239782614E+01  0.33435765173E+03  0.58287843488E+03  0.69052262376E+03  0.15897730635E+03 0.  0.
        -11    1    4    4    0    0  0.11654628524E+02  0.33655105038E+03  0.53833593356E+03  0.63498662760E+03  0.51100000000E-03 0. -1.
     200002    1    4    4    0    0 -0.13978606785E+02 -0.21933986464E+01  0.44542501320E+02  0.55535996157E+02  0.30000000000E+02 0. -1.
     200000    1    3    3    0    0 -0.27372422457E+03 -0.14726824385E+03  0.45110584795E+03  0.55705508957E+03  0.10100000000E+03 0. -1.
    -200001    1    1    2    0    0  0.27604820283E+03 -0.18708940788E+03  0.86445946637E+03  0.11109744488E+04  0.61300000000E+03 0. -1.
<mgrwt>
<rscale>  0 0.13995284E+04</rscale>
<asrwt>0</asrwt>
<pdfrwt beam="1">  1        2 0.30407112E+00 0.13995284E+04</pdfrwt>
<pdfrwt beam="2">  1       -2 0.32864888E-01 0.13995284E+04</pdfrwt>
<totfact> 0.57976970E+01</totfact>
</mgrwt>
</event>
<event>
 8    1  0.7326756E-052  0.1421851E+04  0.7818608E-02  0.8938152E-01
         -2   -1    0    0    0  501 -0.00000000000E+00  0.00000000000E+00  0.53122759686E+03  0.53122759687E+03  0.25500000000E-02 0.  1.
          2   -1    0    0  501    0  0.00000000000E+00 -0.00000000000E+00 -0.95140980451E+03  0.95140980452E+03  0.25500000000E-02 0. -1.
     200001    2    1    2    0    0  0.16280191953E+03 -0.14043977179E+03  0.89785150183E+02  0.65676604302E+03  0.61404598164E+03 0.  0.
    5000001    2    3    3    0    0  0.14013194130E+03  0.52514374520E+02 -0.21387976378E+03  0.28238841220E+03  0.10772159246E+03 0.  0.
        -11    1    4    4    0    0  0.35719517699E+02  0.20117989960E+02 -0.14283548189E+03  0.14860212768E+03  0.51100000000E-03 0. -1.
     200002    1    4    4    0    0  0.10441242360E+03  0.32396384560E+02 -0.71044281896E+02  0.13378628452E+03  0.30000000000E+02 0. -1.
     200000    1    3    3    0    0  0.22669978232E+02 -0.19295414631E+03  0.30366491397E+03  0.37437763083E+03  0.10100000000E+03 0.  1.
    -200001    1    1    2    0    0 -0.16280191953E+03  0.14043977179E+03 -0.50996735783E+03  0.82587135836E+03  0.61300000000E+03 0. -1.
<mgrwt>
<rscale>  0 0.14218511E+04</rscale>
<asrwt>0</asrwt>
<pdfrwt beam="1">  1        2 0.13591569E+00 0.14218511E+04</pdfrwt>
<pdfrwt beam="2">  1       -2 0.75889656E-01 0.14218511E+04</pdfrwt>
<totfact> 0.45621319E+01</totfact>
</mgrwt>
</event>
<event>
 8    1  0.7326756E-052  0.1502209E+04  0.7818608E-02  0.8882985E-01
         -2   -1    0    0    0  501 -0.00000000000E+00  0.00000000000E+00  0.33476031260E+03  0.33476031261E+03  0.25500000000E-02 0. -1.
          2   -1    0    0  501    0  0.00000000000E+00 -0.00000000000E+00 -0.16852598860E+04  0.16852598860E+04  0.25500000000E-02 0.  1.
     200001    2    1    2    0    0 -0.17359984084E+03  0.80680088446E+02 -0.11992440014E+04  0.13602524899E+04  0.61274340471E+03 0.  0.
    5000001    2    3    3    0    0  0.69233390034E+02  0.28527808744E+03 -0.49667565718E+03  0.58267188477E+03  0.81504401075E+02 0.  0.
        -11    1    4    4    0    0 -0.13703449462E+02  0.65945958105E+02 -0.12965938542E+03  0.14611026708E+03  0.51100000000E-03 0. -1.
     200002    1    4    4    0    0  0.82936839496E+02  0.21933212933E+03 -0.36701627176E+03  0.43656161769E+03  0.30000000000E+02 0. -1.
     200000    1    3    3    0    0 -0.24283323087E+03 -0.20459799899E+03 -0.70256834422E+03  0.77758060515E+03  0.10100000000E+03 0.  1.
    -200001    1    1    2    0    0  0.17359984084E+03 -0.80680088446E+02 -0.15125557205E+03  0.65976770873E+03  0.61300000000E+03 0. -1.
<mgrwt>
<rscale>  0 0.15022092E+04</rscale>
<asrwt>0</asrwt>
<pdfrwt beam="1">  1        2 0.24075141E+00 0.15022092E+04</pdfrwt>
<pdfrwt beam="2">  1       -2 0.47822903E-01 0.15022092E+04</pdfrwt>
<totfact> 0.46786037E+01</totfact>
</mgrwt>
</event>
<event>
 8    1  0.7326756E-052  0.1744020E+04  0.7818608E-02  0.8736649E-01
         -2   -1    0    0    0  501 -0.00000000000E+00  0.00000000000E+00  0.52374589839E+03  0.52374589839E+03  0.25500000000E-02 0. -1.
          2   -1    0    0  501    0  0.00000000000E+00 -0.00000000000E+00 -0.14518509994E+04  0.14518509994E+04  0.25500000000E-02 0.  1.
     200001    2    1    2    0    0 -0.19247442823E+03 -0.55016447140E+03 -0.22501946529E+03  0.87567609959E+03  0.61355319290E+03 0.  0.
    5000001    2    3    3    0    0 -0.10749326365E+03 -0.48285388730E+03  0.10895874797E+03  0.51030647853E+03  0.61951715509E+02 0.  0.
        -11    1    4    4    0    0 -0.80175973628E+02 -0.26253268399E+03  0.61608090729E+02  0.28133103944E+03  0.51100000000E-03 0. -1.
     200002    1    4    4    0    0 -0.27317290027E+02 -0.22032120331E+03  0.47350657239E+02  0.22897543909E+03  0.30000000000E+02 0. -1.
     200000    1    3    3    0    0 -0.84981164577E+02 -0.67310584099E+02 -0.33397821326E+03  0.36536962106E+03  0.10100000000E+03 0. -1.
    -200001    1    1    2    0    0  0.19247442823E+03  0.55016447140E+03 -0.70308563568E+03  0.10999207982E+04  0.61300000000E+03 0. -1.
<mgrwt>
<rscale>  0 0.17440195E+04</rscale>
<asrwt>0</asrwt>
<pdfrwt beam="1">  1        2 0.20740728E+00 0.17440195E+04</pdfrwt>
<pdfrwt beam="2">  1       -2 0.74820843E-01 0.17440195E+04</pdfrwt>
<totfact> 0.23680441E+01</totfact>
</mgrwt>
</event>
<event>
 8    1  0.7326756E-052  0.1575462E+04  0.7818608E-02  0.8835766E-01
         -2   -1    0    0    0  501 -0.00000000000E+00  0.00000000000E+00  0.22119767148E+03  0.22119767149E+03  0.25500000000E-02 0. -1.
          2   -1    0    0  501    0  0.00000000000E+00 -0.00000000000E+00 -0.28052745932E+04  0.28052745932E+04  0.25500000000E-02 0.  1.
     200001    2    1    2    0    0 -0.41026482077E+02 -0.33978903722E+03 -0.19770635240E+04  0.20983698851E+04  0.61419559969E+03 0.  0.
    5000001    2    3    3    0    0  0.48960737675E+02 -0.91184540971E+02 -0.14480036391E+04  0.14983638375E+04  0.37103621991E+03 0.  0.
        -11    1    4    4    0    0  0.47002268342E+02 -0.57639749543E+02 -0.30889470093E+02  0.80533926513E+02  0.51100000000E-03 0. -1.
     200002    1    4    4    0    0  0.19584693333E+01 -0.33544791428E+02 -0.14171141690E+04  0.14178299110E+04  0.30000000000E+02 0. -1.
     200000    1    3    3    0    0 -0.89987219752E+02 -0.24860449625E+03 -0.52905988489E+03  0.60000604753E+03  0.10100000000E+03 0. -1.
    -200001    1    1    2    0    0  0.41026482077E+02  0.33978903722E+03 -0.60701339777E+03  0.92810237966E+03  0.61300000000E+03 0. -1.
<mgrwt>
<rscale>  0 0.15754621E+04</rscale>
<asrwt>0</asrwt>
<pdfrwt beam="1">  1        2 0.40075349E+00 0.15754621E+04</pdfrwt>
<pdfrwt beam="2">  1       -2 0.31599669E-01 0.15754621E+04</pdfrwt>
<totfact> 0.27137326E+01</totfact>
</mgrwt>
</event>
<event>
 8    1  0.7326756E-052  0.1773852E+04  0.7818608E-02  0.8720330E-01
         -2   -1    0    0    0  501 -0.00000000000E+00  0.00000000000E+00  0.43959329353E+03  0.43959329354E+03  0.25500000000E-02 0. -1.
          2   -1    0    0  501    0  0.00000000000E+00 -0.00000000000E+00 -0.17894670977E+04  0.17894670978E+04  0.25500000000E-02 0.  1.
     200001    2    1    2    0    0 -0.49600670661E+03 -0.24586913508E+03 -0.10832206780E+04  0.13611046469E+04  0.61054446013E+03 0.  0.
    5000001    2    3    3    0    0 -0.40934574721E+03 -0.11731962592E+03 -0.24406591549E+03  0.50179282121E+03  0.10440320367E+03 0.  0.
        -11    1    4    4    0    0 -0.20079692354E+03 -0.43320931370E+02 -0.16962565521E+03  0.26640001972E+03  0.51100000000E-03 0. -1.
     200002    1    4    4    0    0 -0.20854882366E+03 -0.73998694552E+02 -0.74440260278E+02  0.23539280150E+03  0.30000000000E+02 0. -1.
     200000    1    3    3    0    0 -0.86660959407E+02 -0.12854950916E+03 -0.83915476254E+03  0.85931182564E+03  0.10100000000E+03 0.  1.
    -200001    1    1    2    0    0  0.49600670661E+03  0.24586913508E+03 -0.26665312618E+03  0.86795574443E+03  0.61300000000E+03 0. -1.
<mgrwt>
<rscale>  0 0.17738520E+04</rscale>
<asrwt>0</asrwt>
<pdfrwt beam="1">  1        2 0.25563815E+00 0.17738520E+04</pdfrwt>
<pdfrwt beam="2">  1       -2 0.62799043E-01 0.17738520E+04</pdfrwt>
<totfact> 0.22979214E+01</totfact>
</mgrwt>
</event>
<event>
 8    1  0.7326756E-052  0.1756712E+04  0.7818608E-02  0.8729664E-01
         -2   -1    0    0    0  501 -0.00000000000E+00  0.00000000000E+00  0.17278164766E+03  0.17278164767E+03  0.25500000000E-02 0. -1.
          2   -1    0    0  501    0  0.00000000000E+00 -0.00000000000E+00 -0.44652267524E+04  0.44652267524E+04  0.25500000000E-02 0.  1.
     200001    2    1    2    0    0 -0.27992990398E+03  0.35858405502E+03 -0.10031146766E+04  0.12612633784E+04  0.61449408435E+03 0.  0.
    5000001    2    3    3    0    0 -0.31969849660E+03  0.48979253293E+02 -0.18837931129E+03  0.38295170841E+03  0.80988579895E+02 0.  0.
        -11    1    4    4    0    0 -0.16610886142E+03  0.17002436905E+02 -0.57979008237E+02  0.17675633539E+03  0.51100000000E-03 0. -1.
     200002    1    4    4    0    0 -0.15358963518E+03  0.31976816388E+02 -0.13040030306E+03  0.20619537303E+03  0.30000000000E+02 0. -1.
     200000    1    3    3    0    0  0.39768592614E+02  0.30960480173E+03 -0.81473536529E+03  0.87831167001E+03  0.10100000000E+03 0.  1.
    -200001    1    1    2    0    0  0.27992990398E+03 -0.35858405502E+03 -0.32893304281E+04  0.33767450216E+04  0.61300000000E+03 0.  1.
<mgrwt>
<rscale>  0 0.17567120E+04</rscale>
<asrwt>0</asrwt>
<pdfrwt beam="1">  1        2 0.63788946E+00 0.17567120E+04</pdfrwt>
<pdfrwt beam="2">  1       -2 0.24683095E-01 0.17567120E+04</pdfrwt>
<totfact> 0.36694294E+00</totfact>
</mgrwt>
</event>
<event>
 8    1  0.7326756E-052  0.1729244E+04  0.7818608E-02  0.8744859E-01
          2   -1    0    0  501    0  0.00000000000E+00  0.00000000000E+00  0.18578929844E+04  0.18578929844E+04  0.25500000000E-02 0.  1.
         -2   -1    0    0    0  501 -0.00000000000E+00 -0.00000000000E+00 -0.40237598404E+03  0.40237598405E+03  0.25500000000E-02 0. -1.
     200001    2    1    2    0    0 -0.52932992679E+03  0.21595213572E+03  0.10045734419E+04  0.13084577533E+04  0.61324415670E+03 0.  0.
    5000001    2    3    3    0    0  0.65163609175E+01  0.69316580926E+02  0.61798046672E+03  0.62414177481E+03  0.52970241382E+02 0.  0.
        -11    1    4    4    0    0  0.42777813785E+01  0.46810952213E+02  0.26191212421E+03  0.26609683476E+03  0.51100000000E-03 0. -1.
     200002    1    4    4    0    0  0.22385795390E+01  0.22505628712E+02  0.35606834250E+03  0.35804494005E+03  0.30000000000E+02 0.  1.
     200000    1    3    3    0    0 -0.53584628770E+03  0.14663555479E+03  0.38659297518E+03  0.68431597850E+03  0.10100000000E+03 0. -1.
    -200001    1    1    2    0    0  0.52932992679E+03 -0.21595213572E+03  0.45094355844E+03  0.95181121511E+03  0.61300000000E+03 0.  1.
<mgrwt>
<rscale>  0 0.17292444E+04</rscale>
<asrwt>0</asrwt>
<pdfrwt beam="1">  1        2 0.26541328E+00 0.17292444E+04</pdfrwt>
<pdfrwt beam="2">  1       -2 0.57482285E-01 0.17292444E+04</pdfrwt>
<totfact> 0.25627567E+01</totfact>
</mgrwt>
</event>
<event>
 8    1  0.7326756E-052  0.1301564E+04  0.7818608E-02  0.9028325E-01
         -2   -1    0    0    0  501 -0.00000000000E+00  0.00000000000E+00  0.35279914812E+03  0.35279914813E+03  0.25500000000E-02 0. -1.
          2   -1    0    0  501    0  0.00000000000E+00 -0.00000000000E+00 -0.12004492705E+04  0.12004492705E+04  0.25500000000E-02 0.  1.
     200001    2    1    2    0    0 -0.94805276077E+02 -0.19122400747E+03 -0.47787690999E+03  0.80621703373E+03  0.61324130892E+03 0.  0.
    5000001    2    3    3    0    0 -0.89578210181E+02  0.10889768881E+03  0.53012794486E+02  0.18803806845E+03  0.11253886635E+03 0.  0.
        -11    1    4    4    0    0  0.22859331711E-01  0.45261718476E+02 -0.23312304887E+02  0.50912545030E+02  0.51100000000E-03 0. -1.
     200002    1    4    4    0    0 -0.89601069512E+02  0.63635970335E+02  0.76325099373E+02  0.13712552342E+03  0.30000000000E+02 0. -1.
     200000    1    3    3    0    0 -0.52270658969E+01 -0.30012169629E+03 -0.53088970447E+03  0.61817896528E+03  0.10100000000E+03 0. -1.
    -200001    1    1    2    0    0  0.94805276077E+02  0.19122400747E+03 -0.36977321236E+03  0.74703138487E+03  0.61300000000E+03 0. -1.
<mgrwt>
<rscale>  0 0.13015644E+04</rscale>
<asrwt>0</asrwt>
<pdfrwt beam="1">  1        2 0.17149275E+00 0.13015644E+04</pdfrwt>
<pdfrwt beam="2">  1       -2 0.50399879E-01 0.13015644E+04</pdfrwt>
<totfact> 0.77966668E+01</totfact>
</mgrwt>
</event>
<event>
 8    1  0.7326756E-052  0.1504580E+04  0.7818608E-02  0.8881413E-01
         -2   -1    0    0    0  501 -0.00000000000E+00  0.00000000000E+00  0.27441475531E+03  0.27441475533E+03  0.25500000000E-02 0. -1.
          2   -1    0    0  501    0  0.00000000000E+00 -0.00000000000E+00 -0.20623522121E+04  0.20623522121E+04  0.25500000000E-02 0.  1.
     200001    2    1    2    0    0 -0.23628151753E+03  0.69608507590E+02 -0.14527808638E+04  0.15959746607E+04  0.61309752864E+03 0.  0.
    5000001    2    3    3    0    0 -0.32156512146E+03 -0.15277602647E+03 -0.10867942094E+04  0.11477834010E+04  0.97675178298E+02 0.  0.
        -11    1    4    4    0    0 -0.13812049655E+03 -0.87061422371E+02 -0.37106639181E+03  0.40539761959E+03  0.51100000000E-03 0. -1.
     200002    1    4    4    0    0 -0.18344462491E+03 -0.65714604103E+02 -0.71572781757E+03  0.74238578141E+03  0.30000000000E+02 0.  1.
     200000    1    3    3    0    0  0.85283603928E+02  0.22238453406E+03 -0.36598665438E+03  0.44819125971E+03  0.10100000000E+03 0. -1.
    -200001    1    1    2    0    0  0.23628151753E+03 -0.69608507590E+02 -0.33515659301E+03  0.74079230672E+03  0.61300000000E+03 0. -1.
<mgrwt>
<rscale>  0 0.15045795E+04</rscale>
<asrwt>0</asrwt>
<pdfrwt beam="1">  1        2 0.29462174E+00 0.15045795E+04</pdfrwt>
<pdfrwt beam="2">  1       -2 0.39202109E-01 0.15045795E+04</pdfrwt>
<totfact> 0.44338108E+01</totfact>
</mgrwt>
</event>
<event>
 8    1  0.7326756E-052  0.1899323E+04  0.7818608E-02  0.8655194E-01
          2   -1    0    0  501    0  0.00000000000E+00  0.00000000000E+00  0.10288299852E+04  0.10288299852E+04  0.25500000000E-02 0.  1.
         -2   -1    0    0    0  501 -0.00000000000E+00 -0.00000000000E+00 -0.87658457926E+03  0.87658457926E+03  0.25500000000E-02 0. -1.
     200001    2    1    2    0    0 -0.53075024173E+02 -0.69813352735E+03 -0.11217037034E+03  0.93799940902E+03  0.61404667504E+03 0.  0.
    5000001    2    3    3    0    0  0.25701589519E+03 -0.42029476761E+03 -0.76155562002E+02  0.50805892348E+03  0.98078224066E+02 0.  0.
        -11    1    4    4    0    0 -0.47111868734E+00  0.10256973598E+01 -0.87301272621E+01  0.88027910441E+01  0.51100000000E-03 0. -1.
     200002    1    4    4    0    0  0.25748701388E+03 -0.42132046497E+03 -0.67425434740E+02  0.49925613243E+03  0.30000000000E+02 0. -1.
     200000    1    3    3    0    0 -0.31009091937E+03 -0.27783875974E+03 -0.36014808338E+02  0.42994048554E+03  0.10100000000E+03 0. -1.
    -200001    1    1    2    0    0  0.53075024173E+02  0.69813352735E+03  0.26441577624E+03  0.96741515541E+03  0.61300000000E+03 0. -1.
<mgrwt>
<rscale>  0 0.18993225E+04</rscale>
<asrwt>0</asrwt>
<pdfrwt beam="1">  1        2 0.14697571E+00 0.18993225E+04</pdfrwt>
<pdfrwt beam="2">  1       -2 0.12522637E+00 0.18993225E+04</pdfrwt>
<totfact> 0.12096494E+01</totfact>
</mgrwt>
</event>
<event>
 8    1  0.7326756E-052  0.2843081E+04  0.7818608E-02  0.8290017E-01
          2   -1    0    0  501    0  0.00000000000E+00  0.00000000000E+00  0.10666759546E+04  0.10666759546E+04  0.25500000000E-02 0. -1.
         -2   -1    0    0    0  501 -0.00000000000E+00 -0.00000000000E+00 -0.18944621463E+04  0.18944621463E+04  0.25500000000E-02 0.  1.
     200001    2    1    2    0    0 -0.28176741145E+03  0.12306740587E+04 -0.16923061637E+03  0.14108426585E+04  0.60653647255E+03 0.  0.
    5000001    2    3    3    0    0 -0.25917287393E+03  0.46859978873E+03 -0.31765612611E+03  0.62758099210E+03  0.78715605873E+02 0.  0.
        -11    1    4    4    0    0 -0.98970224394E+02  0.11387158345E+03 -0.88531823146E+02  0.17492777522E+03  0.51100000000E-03 0. -1.
     200002    1    4    4    0    0 -0.16020264954E+03  0.35472820528E+03 -0.22912430296E+03  0.45265321688E+03  0.30000000000E+02 0. -1.
     200000    1    3    3    0    0 -0.22594537517E+02  0.76207426995E+03  0.14842550974E+03  0.78326166636E+03  0.10100000000E+03 0. -1.
    -200001    1    1    2    0    0  0.28176741145E+03 -0.12306740587E+04 -0.65855557531E+03  0.15502954424E+04  0.61300000000E+03 0.  1.
<mgrwt>
<rscale>  0 0.28430809E+04</rscale>
<asrwt>0</asrwt>
<pdfrwt beam="1">  1        2 0.15238228E+00 0.28430809E+04</pdfrwt>
<pdfrwt beam="2">  1       -2 0.27063745E+00 0.28430809E+04</pdfrwt>
<totfact> 0.10718679E+00</totfact>
</mgrwt>
</event>
<event>
 8    1  0.7326756E-052  0.1322065E+04  0.7818608E-02  0.9012248E-01
         -2   -1    0    0    0  501 -0.00000000000E+00  0.00000000000E+00  0.51291599368E+03  0.51291599369E+03  0.25500000000E-02 0. -1.
          2   -1    0    0  501    0  0.00000000000E+00 -0.00000000000E+00 -0.85192128358E+03  0.85192128358E+03  0.25500000000E-02 0.  1.
     200001    2    1    2    0    0  0.22647719710E+03  0.87606855124E+02 -0.23274632027E+03  0.69698486057E+03  0.61045078785E+03 0.  0.
    5000001    2    3    3    0    0  0.28578631469E+03  0.30306848063E+02  0.11186291348E+03  0.32853216859E+03  0.11325966486E+03 0.  0.
        -11    1    4    4    0    0  0.20043786883E+03  0.39229321972E+00  0.11879156815E+03  0.23299555751E+03  0.51100000000E-03 0. -1.
     200002    1    4    4    0    0  0.85348445863E+02  0.29914554843E+02 -0.69286546692E+01  0.95536611088E+02  0.30000000000E+02 0. -1.
     200000    1    3    3    0    0 -0.59309117590E+02  0.57300007061E+02 -0.34460923375E+03  0.36845269197E+03  0.10100000000E+03 0.  1.
    -200001    1    1    2    0    0 -0.22647719710E+03 -0.87606855124E+02 -0.10625896963E+03  0.66785241670E+03  0.61300000000E+03 0. -1.
<mgrwt>
<rscale>  0 0.13220651E+04</rscale>
<asrwt>0</asrwt>
<pdfrwt beam="1">  1        2 0.12170304E+00 0.13220651E+04</pdfrwt>
<pdfrwt beam="2">  1       -2 0.73273714E-01 0.13220651E+04</pdfrwt>
<totfact> 0.57683803E+01</totfact>
</mgrwt>
</event>
<event>
 8    1  0.7326756E-052  0.1329483E+04  0.7818608E-02  0.9006506E-01
         -2   -1    0    0    0  501 -0.00000000000E+00  0.00000000000E+00  0.19912431685E+03  0.19912431686E+03  0.25500000000E-02 0. -1.
          2   -1    0    0  501    0  0.00000000000E+00 -0.00000000000E+00 -0.22191212329E+04  0.22191212329E+04  0.25500000000E-02 0.  1.
     200001    2    1    2    0    0 -0.13176878974E+03  0.21872063286E+03 -0.10564276996E+04  0.12480163568E+04  0.61343590794E+03 0.  0.
    5000001    2    3    3    0    0 -0.21662928332E+02  0.11853094231E+03 -0.99434243951E+03  0.10577090938E+04  0.33987170139E+03 0.  0.
        -11    1    4    4    0    0  0.12623532618E+03 -0.48680413836E+02 -0.36372730207E+03  0.38807562477E+03  0.51100000000E-03 0. -1.
     200002    1    4    4    0    0 -0.14789825452E+03  0.16721135615E+03 -0.63061513745E+03  0.66963346906E+03  0.30000000000E+02 0. -1.
     200000    1    3    3    0    0 -0.11010586141E+03  0.10018969055E+03 -0.62085260051E+02  0.19030726293E+03  0.10100000000E+03 0. -1.
    -200001    1    1    2    0    0  0.13176878974E+03 -0.21872063286E+03 -0.96356921648E+03  0.11702291930E+04  0.61300000000E+03 0. -1.
<mgrwt>
<rscale>  0 0.13294826E+04</rscale>
<asrwt>0</asrwt>
<pdfrwt beam="1">  1        2 0.31701730E+00 0.13294826E+04</pdfrwt>
<pdfrwt beam="2">  1       -2 0.28446332E-01 0.13294826E+04</pdfrwt>
<totfact> 0.68573008E+01</totfact>
</mgrwt>
</event>
<event>
 8    1  0.7326756E-052  0.1885080E+04  0.7818608E-02  0.8662319E-01
         -2   -1    0    0    0  501 -0.00000000000E+00  0.00000000000E+00  0.44041491653E+03  0.44041491654E+03  0.25500000000E-02 0. -1.
          2   -1    0    0  501    0  0.00000000000E+00 -0.00000000000E+00 -0.20171472745E+04  0.20171472745E+04  0.25500000000E-02 0.  1.
     200001    2    1    2    0    0  0.38827344118E+03  0.57051865335E+03 -0.10413864699E+04  0.13905045456E+04  0.61054837037E+03 0.  0.
    5000001    2    3    3    0    0  0.45324732792E+03  0.42304377720E+03 -0.45924969922E+03  0.77808747782E+03  0.10055177381E+03 0.  0.
        -11    1    4    4    0    0  0.26641956860E+03  0.22928877844E+03 -0.31104939395E+03  0.46936601488E+03  0.51100000000E-03 0. -1.
     200002    1    4    4    0    0  0.18682775932E+03  0.19375499876E+03 -0.14820030527E+03  0.30872146294E+03  0.30000000000E+02 0. -1.
     200000    1    3    3    0    0 -0.64973886739E+02  0.14747487615E+03 -0.58213677073E+03  0.61241706776E+03  0.10100000000E+03 0. -1.
    -200001    1    1    2    0    0 -0.38827344118E+03 -0.57051865335E+03 -0.53534588806E+03  0.10670576455E+04  0.61300000000E+03 0. -1.
<mgrwt>
<rscale>  0 0.18850801E+04</rscale>
<asrwt>0</asrwt>
<pdfrwt beam="1">  1        2 0.28816389E+00 0.18850801E+04</pdfrwt>
<pdfrwt beam="2">  1       -2 0.62916418E-01 0.18850801E+04</pdfrwt>
<totfact> 0.17312160E+01</totfact>
</mgrwt>
</event>
<event>
 8    1  0.7326756E-052  0.1318925E+04  0.7818608E-02  0.9014691E-01
          2   -1    0    0  501    0  0.00000000000E+00  0.00000000000E+00  0.37918615295E+04  0.37918615295E+04  0.25500000000E-02 0.  1.
         -2   -1    0    0    0  501 -0.00000000000E+00 -0.00000000000E+00 -0.11469055500E+03  0.11469055502E+03  0.25500000000E-02 0. -1.
     200001    2    1    2    0    0  0.41482475932E+02  0.10249797364E+03  0.11631800973E+04  0.13165432504E+04  0.60668901497E+03 0.  0.
    5000001    2    3    3    0    0  0.32707598128E+02  0.63187596641E+01 -0.50035356032E+02  0.95306100621E+02  0.73959463650E+02 0.  0.
        -11    1    4    4    0    0  0.10689217530E+02 -0.25313964455E+02 -0.32453761913E+01  0.27669272393E+02  0.51100000000E-03 0. -1.
     200002    1    4    4    0    0  0.22018380598E+02  0.31632724119E+02 -0.46789979840E+02  0.67636828229E+02  0.30000000000E+02 0. -1.
     200000    1    3    3    0    0  0.87748778037E+01  0.96179213977E+02  0.12132154533E+04  0.12212371497E+04  0.10100000000E+03 0.  1.
    -200001    1    1    2    0    0 -0.41482475932E+02 -0.10249797364E+03  0.25139908771E+04  0.25900088341E+04  0.61300000000E+03 0.  1.
<mgrwt>
<rscale>  0 0.13189249E+04</rscale>
<asrwt>0</asrwt>
<pdfrwt beam="1">  1        2 0.54169440E+00 0.13189249E+04</pdfrwt>
<pdfrwt beam="2">  1       -2 0.16384368E-01 0.13189249E+04</pdfrwt>
<totfact> 0.23758542E+01</totfact>
</mgrwt>
</event>
<event>
 8    1  0.7326756E-052  0.1480688E+04  0.7818608E-02  0.8897398E-01
          2   -1    0    0  501    0  0.00000000000E+00  0.00000000000E+00  0.12028377759E+04  0.12028377759E+04  0.25500000000E-02 0.  1.
         -2   -1    0    0    0  501 -0.00000000000E+00 -0.00000000000E+00 -0.45568003958E+03  0.45568003959E+03  0.25500000000E-02 0. -1.
     200001    2    1    2    0    0  0.52125450491E+02  0.33962102637E+03  0.11198568442E+03  0.71127336994E+03  0.61262509672E+03 0.  0.
    5000001    2    3    3    0    0  0.83429802962E+02 -0.15430951947E+03  0.46785284458E+01  0.19487897384E+03  0.84758279795E+02 0.  0.
        -11    1    4    4    0    0 -0.92562931465E+01  0.30002067654E+01 -0.81849742571E+00  0.97647397173E+01  0.51100000000E-03 0. -1.
     200002    1    4    4    0    0  0.92686096109E+02 -0.15730972624E+03  0.54970258715E+01  0.18511423412E+03  0.30000000000E+02 0. -1.
     200000    1    3    3    0    0 -0.31304352472E+02  0.49393054585E+03  0.10730715598E+03  0.51639439610E+03  0.10100000000E+03 0.  1.
    -200001    1    1    2    0    0 -0.52125450491E+02 -0.33962102637E+03  0.63517205194E+03  0.94724444559E+03  0.61300000000E+03 0.  1.
<mgrwt>
<rscale>  0 0.14806879E+04</rscale>
<asrwt>0</asrwt>
<pdfrwt beam="1">  1        2 0.17183397E+00 0.14806879E+04</pdfrwt>
<pdfrwt beam="2">  1       -2 0.65097150E-01 0.14806879E+04</pdfrwt>
<totfact> 0.44905433E+01</totfact>
</mgrwt>
</event>
<event>
 8    1  0.7326756E-052  0.1686913E+04  0.7818608E-02  0.8768864E-01
         -2   -1    0    0    0  501 -0.00000000000E+00  0.00000000000E+00  0.26983471336E+03  0.26983471338E+03  0.25500000000E-02 0. -1.
          2   -1    0    0  501    0  0.00000000000E+00 -0.00000000000E+00 -0.26364971334E+04  0.26364971334E+04  0.25500000000E-02 0.  1.
     200001    2    1    2    0    0 -0.21487323030E+03  0.53607509262E+03 -0.12612789607E+04  0.15166597264E+04  0.61309469001E+03 0.  0.
    5000001    2    3    3    0    0 -0.40094583104E+03  0.23413925082E+03 -0.65916453104E+03  0.81059241252E+03  0.83566931561E+02 0.  0.
        -11    1    4    4    0    0 -0.17109600065E+03  0.12296046738E+03 -0.24513533034E+03  0.32324054226E+03  0.51100000000E-03 0. -1.
     200002    1    4    4    0    0 -0.22984983040E+03  0.11117878344E+03 -0.41402920070E+03  0.48735187026E+03  0.30000000000E+02 0. -1.
     200000    1    3    3    0    0  0.18607260074E+03  0.30193584180E+03 -0.60211442971E+03  0.70606731391E+03  0.10100000000E+03 0.  1.
    -200001    1    1    2    0    0  0.21487323030E+03 -0.53607509262E+03 -0.11053834593E+04  0.13896721204E+04  0.61300000000E+03 0. -1.
<mgrwt>
<rscale>  0 0.16869125E+04</rscale>
<asrwt>0</asrwt>
<pdfrwt beam="1">  1        2 0.37664243E+00 0.16869125E+04</pdfrwt>
<pdfrwt beam="2">  1       -2 0.38547818E-01 0.16869125E+04</pdfrwt>
<totfact> 0.22664633E+01</totfact>
</mgrwt>
</event>
<event>
 8    1  0.7326756E-052  0.1513455E+04  0.7818608E-02  0.8875555E-01
          2   -1    0    0  501    0  0.00000000000E+00  0.00000000000E+00  0.34303556067E+04  0.34303556067E+04  0.25500000000E-02 0.  1.
         -2   -1    0    0    0  501 -0.00000000000E+00 -0.00000000000E+00 -0.16693205492E+03  0.16693205494E+03  0.25500000000E-02 0. -1.
     200001    2    1    2    0    0 -0.32636120431E+03 -0.25657718176E+03  0.12583365744E+04  0.14598859042E+04  0.61279069258E+03 0.  0.
    5000001    2    3    3    0    0 -0.28952043819E+03 -0.28555099098E+03  0.12808026780E+04  0.13462969545E+04  0.81844591752E+02 0.  0.
        -11    1    4    4    0    0 -0.21740802772E+03 -0.18763162430E+03  0.82283214772E+03  0.87150709708E+03  0.51100000000E-03 0. -1.
     200002    1    4    4    0    0 -0.72112410474E+02 -0.97919366675E+02  0.45797053029E+03  0.47478985744E+03  0.30000000000E+02 0. -1.
     200000    1    3    3    0    0 -0.36840766114E+02  0.28973809215E+02 -0.22466103634E+02  0.11358894964E+03  0.10100000000E+03 0.  1.
    -200001    1    1    2    0    0  0.32636120431E+03  0.25657718176E+03  0.20050869774E+04  0.21374017574E+04  0.61300000000E+03 0.  1.
<mgrwt>
<rscale>  0 0.15134547E+04</rscale>
<asrwt>0</asrwt>
<pdfrwt beam="1">  1        2 0.49005080E+00 0.15134547E+04</pdfrwt>
<pdfrwt beam="2">  1       -2 0.23847436E-01 0.15134547E+04</pdfrwt>
<totfact> 0.20206016E+01</totfact>
</mgrwt>
</event>
<event>
 8    1  0.7326756E-052  0.1493522E+04  0.7818608E-02  0.8888772E-01
          2   -1    0    0  501    0  0.00000000000E+00  0.00000000000E+00  0.22511076399E+04  0.22511076399E+04  0.25500000000E-02 0.  1.
         -2   -1    0    0    0  501 -0.00000000000E+00 -0.00000000000E+00 -0.24772341575E+03  0.24772341577E+03  0.25500000000E-02 0. -1.
     200001    2    1    2    0    0 -0.18045332916E+03 -0.25296747665E+03  0.51360988851E+03  0.85817493101E+03  0.61328064244E+03 0.  0.
    5000001    2    3    3    0    0  0.19777441754E+02  0.18067498821E+03  0.15362480365E+03  0.25160390444E+03  0.81666063133E+02 0.  0.
        -11    1    4    4    0    0  0.17261894680E+02  0.84855215635E+01  0.36293801460E+02  0.41075748427E+02  0.51100000000E-03 0. -1.
     200002    1    4    4    0    0  0.25155470741E+01  0.17218946664E+03  0.11733100219E+03  0.21052815602E+03  0.30000000000E+02 0. -1.
     200000    1    3    3    0    0 -0.20023077091E+03 -0.43364246486E+03  0.35998508485E+03  0.60657102656E+03  0.10100000000E+03 0.  1.
    -200001    1    1    2    0    0  0.18045332916E+03  0.25296747665E+03  0.14897743356E+04  0.16406561247E+04  0.61300000000E+03 0. -1.
<mgrwt>
<rscale>  0 0.14935221E+04</rscale>
<asrwt>0</asrwt>
<pdfrwt beam="1">  1        2 0.32158682E+00 0.14935221E+04</pdfrwt>
<pdfrwt beam="2">  1       -2 0.35389058E-01 0.14935221E+04</pdfrwt>
<totfact> 0.43223669E+01</totfact>
</mgrwt>
</event>
<event>
 8    1  0.7326756E-052  0.1553201E+04  0.7818608E-02  0.8849825E-01
         -2   -1    0    0    0  501 -0.00000000000E+00  0.00000000000E+00  0.36390974154E+03  0.36390974155E+03  0.25500000000E-02 0. -1.
          2   -1    0    0  501    0  0.00000000000E+00 -0.00000000000E+00 -0.16573029869E+04  0.16573029869E+04  0.25500000000E-02 0.  1.
     200001    2    1    2    0    0  0.45005130237E+03  0.13932720659E+03 -0.55097506964E+03  0.94933960495E+03  0.61295506596E+03 0.  0.
    5000001    2    3    3    0    0  0.15964816015E+03 -0.54331444284E+02 -0.23414607943E+03  0.46724079027E+03  0.36749167161E+03 0.  0.
        -11    1    4    4    0    0  0.69169810171E+02 -0.20236395187E+03 -0.18917079565E+03  0.28551921404E+03  0.51100000000E-03 0. -1.
     200002    1    4    4    0    0  0.90478349978E+02  0.14803250759E+03 -0.44975283776E+02  0.18172157623E+03  0.30000000000E+02 0. -1.
     200000    1    3    3    0    0  0.29040314222E+03  0.19365865088E+03 -0.31682899021E+03  0.48209881467E+03  0.10100000000E+03 0. -1.
    -200001    1    1    2    0    0 -0.45005130237E+03 -0.13932720659E+03 -0.74241817573E+03  0.10718731235E+04  0.61300000000E+03 0.  1.
<mgrwt>
<rscale>  0 0.15532015E+04</rscale>
<asrwt>0</asrwt>
<pdfrwt beam="1">  1        2 0.23675757E+00 0.15532015E+04</pdfrwt>
<pdfrwt beam="2">  1       -2 0.51987107E-01 0.15532015E+04</pdfrwt>
<totfact> 0.40658517E+01</totfact>
</mgrwt>
</event>
<event>
 8    1  0.7326756E-052  0.1558704E+04  0.7818608E-02  0.8846327E-01
         -2   -1    0    0    0  501 -0.00000000000E+00  0.00000000000E+00  0.22265123625E+03  0.22265123626E+03  0.25500000000E-02 0. -1.
          2   -1    0    0  501    0  0.00000000000E+00 -0.00000000000E+00 -0.27279859260E+04  0.27279859260E+04  0.25500000000E-02 0.  1.
     200001    2    1    2    0    0  0.20920603895E+03 -0.17234754091E+03 -0.50263594947E+03  0.83875598996E+03  0.61432716968E+03 0.  0.
    5000001    2    3    3    0    0 -0.30598591321E+02 -0.33151851633E+03 -0.15373835610E+03  0.37532078329E+03  0.79933771182E+02 0.  0.
        -11    1    4    4    0    0  0.18364621468E+02 -0.36785336517E+02 -0.28218298201E+02  0.49866749021E+02  0.51100000000E-03 0. -1.
     200002    1    4    4    0    0 -0.48963212789E+02 -0.29473317981E+03 -0.12552005790E+03  0.32545403427E+03  0.30000000000E+02 0. -1.
     200000    1    3    3    0    0  0.23980463027E+03  0.15917097542E+03 -0.34889759337E+03  0.46343520667E+03  0.10100000000E+03 0.  1.
    -200001    1    1    2    0    0 -0.20920603895E+03  0.17234754091E+03 -0.20026987403E+04  0.21118811723E+04  0.61300000000E+03 0.  1.
<mgrwt>
<rscale>  0 0.15587039E+04</rscale>
<asrwt>0</asrwt>
<pdfrwt beam="1">  1        2 0.38971226E+00 0.15587039E+04</pdfrwt>
<pdfrwt beam="2">  1       -2 0.31807321E-01 0.15587039E+04</pdfrwt>
<totfact> 0.29551959E+01</totfact>
</mgrwt>
</event>
<event>
 8    1  0.7326756E-052  0.1720348E+04  0.7818608E-02  0.8749844E-01
          2   -1    0    0  501    0  0.00000000000E+00  0.00000000000E+00  0.18102329709E+04  0.18102329709E+04  0.25500000000E-02 0.  1.
         -2   -1    0    0    0  501 -0.00000000000E+00 -0.00000000000E+00 -0.40873140986E+03  0.40873140987E+03  0.25500000000E-02 0. -1.
     200001    2    1    2    0    0  0.39730635531E+02  0.59705469050E+03  0.61607011283E+03  0.10567576923E+04  0.61574476002E+03 0.  0.
    5000001    2    3    3    0    0 -0.42180332460E+02  0.67532764637E+03  0.59429725669E+03  0.90342433142E+03  0.71691581739E+02 0.  0.
        -11    1    4    4    0    0  0.10937185966E+01  0.10967374199E+03  0.68288966821E+02  0.12920104060E+03  0.51100000000E-03 0. -1.
     200002    1    4    4    0    0 -0.43274051056E+02  0.56565390438E+03  0.52600828987E+03  0.77422329082E+03  0.30000000000E+02 0. -1.
     200000    1    3    3    0    0  0.81910967990E+02 -0.78272955869E+02  0.21772856140E+02  0.15333336089E+03  0.10100000000E+03 0. -1.
    -200001    1    1    2    0    0 -0.39730635531E+02 -0.59705469050E+03  0.78543144816E+03  0.11622066884E+04  0.61300000000E+03 0. -1.
<mgrwt>
<rscale>  0 0.17203477E+04</rscale>
<asrwt>0</asrwt>
<pdfrwt beam="1">  1        2 0.25860471E+00 0.17203477E+04</pdfrwt>
<pdfrwt beam="2">  1       -2 0.58390202E-01 0.17203477E+04</pdfrwt>
<totfact> 0.26263037E+01</totfact>
</mgrwt>
</event>
<event>
 8    1  0.7326756E-052  0.1256589E+04  0.7818608E-02  0.9064717E-01
          2   -1    0    0  501    0  0.00000000000E+00  0.00000000000E+00  0.23588693125E+03  0.23588693126E+03  0.25500000000E-02 0.  1.
         -2   -1    0    0    0  501 -0.00000000000E+00 -0.00000000000E+00 -0.16734884722E+04  0.16734884722E+04  0.25500000000E-02 0. -1.
     200001    2    1    2    0    0 -0.87544444746E+02  0.10314592205E+03 -0.70396720629E+03  0.94382299782E+03  0.61394536617E+03 0.  0.
    5000001    2    3    3    0    0 -0.56074149333E+02 -0.75235103441E+02 -0.65819030865E+03  0.73143963193E+03  0.30493412690E+03 0.  0.
        -11    1    4    4    0    0 -0.13836226020E+03  0.64232839497E+02 -0.27776548127E+03  0.31689688434E+03  0.51100000000E-03 0. -1.
     200002    1    4    4    0    0  0.82288110865E+02 -0.13946794294E+03 -0.38042482737E+03  0.41454274759E+03  0.30000000000E+02 0. -1.
     200000    1    3    3    0    0 -0.31470295413E+02  0.17838102549E+03 -0.45776897643E+02  0.21238336589E+03  0.10100000000E+03 0. -1.
    -200001    1    1    2    0    0  0.87544444746E+02 -0.10314592205E+03 -0.73363433467E+03  0.96555240564E+03  0.61300000000E+03 0. -1.
<mgrwt>
<rscale>  0 0.12565891E+04</rscale>
<asrwt>0</asrwt>
<pdfrwt beam="1">  1        2 0.33698134E-01 0.12565891E+04</pdfrwt>
<pdfrwt beam="2">  1       -2 0.23906978E+00 0.12565891E+04</pdfrwt>
<totfact> 0.11553436E+01</totfact>
</mgrwt>
</event>
<event>
 8    1  0.7326756E-052  0.2142310E+04  0.7818608E-02  0.8542831E-01
          2   -1    0    0  501    0  0.00000000000E+00  0.00000000000E+00  0.15235125665E+04  0.15235125665E+04  0.25500000000E-02 0.  1.
         -2   -1    0    0    0  501 -0.00000000000E+00 -0.00000000000E+00 -0.75311060620E+03  0.75311060621E+03  0.25500000000E-02 0. -1.
     200001    2    1    2    0    0  0.10239120859E+03  0.14654706452E+03  0.12963016162E+04  0.14493992309E+04  0.62321765753E+03 0.  0.
    5000001    2    3    3    0    0 -0.87723826344E+02 -0.15869366415E+03  0.82028494314E+03  0.84433022494E+03  0.84539884374E+02 0.  0.
        -11    1    4    4    0    0 -0.78804283233E+02 -0.85218824020E+02  0.39889154189E+03  0.41543570527E+03  0.51100000000E-03 0. -1.
     200002    1    4    4    0    0 -0.89195431108E+01 -0.73474840131E+02  0.42139340125E+03  0.42889451967E+03  0.30000000000E+02 0. -1.
     200000    1    3    3    0    0  0.19011503493E+03  0.30524072867E+03  0.47601667307E+03  0.60506900597E+03  0.10100000000E+03 0.  1.
    -200001    1    1    2    0    0 -0.10239120859E+03 -0.14654706452E+03 -0.52589965594E+03  0.82722394177E+03  0.61300000000E+03 0. -1.
<mgrwt>
<rscale>  0 0.21423104E+04</rscale>
<asrwt>0</asrwt>
<pdfrwt beam="1">  1        2 0.21764465E+00 0.21423104E+04</pdfrwt>
<pdfrwt beam="2">  1       -2 0.10758723E+00 0.21423104E+04</pdfrwt>
<totfact> 0.90855806E+00</totfact>
</mgrwt>
</event>
<event>
 8    1  0.7326756E-052  0.1361603E+04  0.7818608E-02  0.8982091E-01
         -2   -1    0    0    0  501 -0.00000000000E+00  0.00000000000E+00  0.33074537025E+03  0.33074537026E+03  0.25500000000E-02 0. -1.
          2   -1    0    0  501    0  0.00000000000E+00 -0.00000000000E+00 -0.14013512049E+04  0.14013512049E+04  0.25500000000E-02 0.  1.
     200001    2    1    2    0    0 -0.15925279824E+03 -0.71870560323E+00 -0.85245658446E+03  0.10622308680E+04  0.61342498987E+03 0.  0.
    5000001    2    3    3    0    0 -0.30124932320E+03  0.12917313819E+03 -0.74891282107E+03  0.82148782005E+03  0.80839164845E+02 0.  0.
        -11    1    4    4    0    0 -0.18628300907E+03  0.87189977393E+02 -0.38695137728E+03  0.43821777692E+03  0.51100000000E-03 0. -1.
     200002    1    4    4    0    0 -0.11496631413E+03  0.41983160800E+02 -0.36196144379E+03  0.38327004313E+03  0.30000000000E+02 0. -1.
     200000    1    3    3    0    0  0.14199652495E+03 -0.12989184380E+03 -0.10354376339E+03  0.24074304792E+03  0.10100000000E+03 0. -1.
    -200001    1    1    2    0    0  0.15925279824E+03  0.71870560323E+00 -0.21814925017E+03  0.66986570717E+03  0.61300000000E+03 0. -1.
<mgrwt>
<rscale>  0 0.13616026E+04</rscale>
<asrwt>0</asrwt>
<pdfrwt beam="1">  1        2 0.20019303E+00 0.13616026E+04</pdfrwt>
<pdfrwt beam="2">  1       -2 0.47249339E-01 0.13616026E+04</pdfrwt>
<totfact> 0.68473178E+01</totfact>
</mgrwt>
</event>
<event>
 8    1  0.7326756E-052  0.1573063E+04  0.7818608E-02  0.8837269E-01
          2   -1    0    0  501    0  0.00000000000E+00  0.00000000000E+00  0.30014168696E+04  0.30014168696E+04  0.25500000000E-02 0.  1.
         -2   -1    0    0    0  501 -0.00000000000E+00 -0.00000000000E+00 -0.20611331487E+03  0.20611331488E+03  0.25500000000E-02 0. -1.
     200001    2    1    2    0    0  0.25094969077E+03  0.38572598015E+03  0.17560909685E+04  0.19162160948E+04  0.61340716732E+03 0.  0.
    5000001    2    3    3    0    0  0.12307970048E+03  0.46602527982E+03  0.16130420361E+04  0.16849960502E+04  0.70561354091E+02 0.  0.
        -11    1    4    4    0    0  0.17170449629E+02  0.78893566359E+02  0.35827397818E+03  0.36725912186E+03  0.51100000000E-03 0. -1.
     200002    1    4    4    0    0  0.10590925085E+03  0.38713171346E+03  0.12547680580E+04  0.13177369283E+04  0.30000000000E+02 0. -1.
     200000    1    3    3    0    0  0.12786999029E+03 -0.80299299668E+02  0.14304893240E+03  0.23122004456E+03  0.10100000000E+03 0. -1.
    -200001    1    1    2    0    0 -0.25094969077E+03 -0.38572598015E+03  0.10392125862E+04  0.12913140898E+04  0.61300000000E+03 0. -1.
<mgrwt>
<rscale>  0 0.15730632E+04</rscale>
<asrwt>0</asrwt>
<pdfrwt beam="1">  1        2 0.42877383E+00 0.15730632E+04</pdfrwt>
<pdfrwt beam="2">  1       -2 0.29444760E-01 0.15730632E+04</pdfrwt>
<totfact> 0.24162385E+01</totfact>
</mgrwt>
</event>
<event>
 8    1  0.7326756E-052  0.1938020E+04  0.7818608E-02  0.8636159E-01
         -2   -1    0    0    0  501 -0.00000000000E+00  0.00000000000E+00  0.11184384988E+04  0.11184384988E+04  0.25500000000E-02 0. -1.
          2   -1    0    0  501    0  0.00000000000E+00 -0.00000000000E+00 -0.83954599415E+03  0.83954599416E+03  0.25500000000E-02 0.  1.
     200001    2    1    2    0    0  0.50196653506E+02 -0.34387282037E+03  0.81156129765E+03  0.10746537148E+04  0.61276475602E+03 0.  0.
    5000001    2    3    3    0    0  0.97352884432E+02 -0.12581591150E+03  0.80472707839E+03  0.82966344523E+03  0.12429213156E+03 0.  0.
        -11    1    4    4    0    0  0.78716807867E+02 -0.12393428652E+03  0.45382192233E+03  0.47698048221E+03  0.51100000000E-03 0. -1.
     200002    1    4    4    0    0  0.18636076565E+02 -0.18816249831E+01  0.35090515605E+03  0.35268296302E+03  0.30000000000E+02 0. -1.
     200000    1    3    3    0    0 -0.47156230926E+02 -0.21805690886E+03  0.68342192688E+01  0.24499026954E+03  0.10100000000E+03 0.  1.
    -200001    1    1    2    0    0 -0.50196653506E+02  0.34387282037E+03 -0.53266879302E+03  0.88333077817E+03  0.61300000000E+03 0.  1.
<mgrwt>
<rscale>  0 0.19380202E+04</rscale>
<asrwt>0</asrwt>
<pdfrwt beam="1">  1        2 0.11993514E+00 0.19380202E+04</pdfrwt>
<pdfrwt beam="2">  1       -2 0.15977693E+00 0.19380202E+04</pdfrwt>
<totfact> 0.84527922E+00</totfact>
</mgrwt>
</event>
<event>
 8    1  0.7326756E-052  0.1338051E+04  0.7818608E-02  0.8999923E-01
          2   -1    0    0  501    0  0.00000000000E+00  0.00000000000E+00  0.91003896690E+03  0.91003896690E+03  0.25500000000E-02 0.  1.
         -2   -1    0    0    0  501 -0.00000000000E+00 -0.00000000000E+00 -0.49184199511E+03  0.49184199511E+03  0.25500000000E-02 0. -1.
     200001    2    1    2    0    0 -0.96706741188E+02 -0.51603231628E+02 -0.47972379526E+02  0.62400053971E+03  0.61242161707E+03 0.  0.
    5000001    2    3    3    0    0 -0.27619137226E+03 -0.17944949309E+03 -0.11106869412E+03  0.37351791700E+03  0.13673179888E+03 0.  0.
        -11    1    4    4    0    0 -0.10326104952E+03 -0.27988609815E+02  0.17522364799E+02  0.10841236044E+03  0.51100000000E-03 0. -1.
     200002    1    4    4    0    0 -0.17293032275E+03 -0.15146088328E+03 -0.12859105892E+03  0.26510555657E+03  0.30000000000E+02 0. -1.
     200000    1    3    3    0    0  0.17948463107E+03  0.12784626147E+03  0.63096314590E+02  0.25048262271E+03  0.10100000000E+03 0.  1.
    -200001    1    1    2    0    0  0.96706741188E+02  0.51603231628E+02  0.46616935131E+03  0.77788042231E+03  0.61300000000E+03 0.  1.
<mgrwt>
<rscale>  0 0.13380514E+04</rscale>
<asrwt>0</asrwt>
<pdfrwt beam="1">  1        2 0.13000556E+00 0.13380514E+04</pdfrwt>
<pdfrwt beam="2">  1       -2 0.70263143E-01 0.13380514E+04</pdfrwt>
<totfact> 0.57815865E+01</totfact>
</mgrwt>
</event>
<event>
 8    1  0.7326756E-052  0.1531578E+04  0.7818608E-02  0.8863722E-01
         -2   -1    0    0    0  501 -0.00000000000E+00  0.00000000000E+00  0.56443882397E+03  0.56443882397E+03  0.25500000000E-02 0. -1.
          2   -1    0    0  501    0  0.00000000000E+00 -0.00000000000E+00 -0.10389655400E+04  0.10389655400E+04  0.25500000000E-02 0.  1.
     200001    2    1    2    0    0 -0.25620219134E+03  0.37236934939E+03 -0.33013494296E+03  0.82821633562E+03  0.61045452149E+03 0.  0.
    5000001    2    3    3    0    0 -0.24884931914E+03 -0.93265647618E+02 -0.58693645982E+02  0.27980828236E+03  0.64986661242E+02 0.  0.
        -11    1    4    4    0    0 -0.44235292054E+02 -0.98564119483E+01 -0.31445331062E+02  0.55160844495E+02  0.51100000000E-03 0. -1.
     200002    1    4    4    0    0 -0.20461402709E+03 -0.83409235670E+02 -0.27248314920E+02  0.22464743787E+03  0.30000000000E+02 0. -1.
     200000    1    3    3    0    0 -0.73528721998E+01  0.46563499701E+03 -0.27144129698E+03  0.54840805326E+03  0.10100000000E+03 0.  1.
    -200001    1    1    2    0    0  0.25620219134E+03 -0.37236934939E+03 -0.14439177310E+03  0.77518802839E+03  0.61300000000E+03 0. -1.
<mgrwt>
<rscale>  0 0.15315776E+04</rscale>
<asrwt>0</asrwt>
<pdfrwt beam="1">  1        2 0.14842365E+00 0.15315776E+04</pdfrwt>
<pdfrwt beam="2">  1       -2 0.80634118E-01 0.15315776E+04</pdfrwt>
<totfact> 0.34868039E+01</totfact>
</mgrwt>
</event>
<event>
 8    1  0.7326756E-052  0.2069372E+04  0.7818608E-02  0.8574857E-01
          2   -1    0    0  501    0  0.00000000000E+00  0.00000000000E+00  0.12687390971E+04  0.12687390971E+04  0.25500000000E-02 0. -1.
         -2   -1    0    0    0  501 -0.00000000000E+00 -0.00000000000E+00 -0.84381004938E+03  0.84381004939E+03  0.25500000000E-02 0.  1.
     200001    2    1    2    0    0  0.33898091809E+03 -0.62030090876E+03  0.66368262032E+03  0.11469128026E+04  0.61257903660E+03 0.  0.
    5000001    2    3    3    0    0  0.49863502144E+03 -0.48499477791E+03  0.49482573631E+03  0.85966581997E+03  0.10156767946E+03 0.  0.
        -11    1    4    4    0    0 -0.34037354772E+01 -0.10543330798E+01  0.78341197893E+01  0.86064200790E+01  0.51100000000E-03 0. -1.
     200002    1    4    4    0    0  0.50203875692E+03 -0.48394044483E+03  0.48699161652E+03  0.85105939990E+03  0.30000000000E+02 0. -1.
     200000    1    3    3    0    0 -0.15965410336E+03 -0.13530613085E+03  0.16885688401E+03  0.28724698265E+03  0.10100000000E+03 0. -1.
    -200001    1    1    2    0    0 -0.33898091809E+03  0.62030090876E+03 -0.23875357257E+03  0.96563634389E+03  0.61300000000E+03 0.  1.
<mgrwt>
<rscale>  0 0.20693717E+04</rscale>
<asrwt>0</asrwt>
<pdfrwt beam="1">  1        2 0.18124844E+00 0.20693717E+04</pdfrwt>
<pdfrwt beam="2">  1       -2 0.12054429E+00 0.20693717E+04</pdfrwt>
<totfact> 0.95212984E+00</totfact>
</mgrwt>
</event>
<event>
 8    1  0.7326756E-052  0.1275394E+04  0.7818608E-02  0.9049309E-01
          2   -1    0    0  501    0  0.00000000000E+00  0.00000000000E+00  0.12354063273E+04  0.12354063273E+04  0.25500000000E-02 0.  1.
         -2   -1    0    0    0  501 -0.00000000000E+00 -0.00000000000E+00 -0.32916916690E+03  0.32916916691E+03  0.25500000000E-02 0. -1.
     200001    2    1    2    0    0  0.68607499297E+02 -0.14989388823E+02  0.65474131788E+03  0.89827914156E+03  0.61097262793E+03 0.  0.
    5000001    2    3    3    0    0  0.18259335405E+03 -0.10503003255E+01  0.70852032206E+03  0.73616728338E+03  0.81239068617E+02 0.  0.
        -11    1    4    4    0    0  0.10713744560E+03 -0.13505025663E+02  0.51025578150E+03  0.52155707312E+03  0.51100000000E-03 0. -1.
     200002    1    4    4    0    0  0.75455908447E+02  0.12454725338E+02  0.19826454056E+03  0.21461021026E+03  0.30000000000E+02 0. -1.
     200000    1    3    3    0    0 -0.11398585475E+03 -0.13939088497E+02 -0.53779004180E+02  0.16211185818E+03  0.10100000000E+03 0. -1.
    -200001    1    1    2    0    0 -0.68607499297E+02  0.14989388823E+02  0.25149584248E+03  0.66629635262E+03  0.61300000000E+03 0. -1.
<mgrwt>
<rscale>  0 0.12753943E+04</rscale>
<asrwt>0</asrwt>
<pdfrwt beam="1">  1        2 0.17648662E+00 0.12753943E+04</pdfrwt>
<pdfrwt beam="2">  1       -2 0.47024167E-01 0.12753943E+04</pdfrwt>
<totfact> 0.85880589E+01</totfact>
</mgrwt>
</event>
<event>
 8    1  0.7326756E-052  0.1921773E+04  0.7818608E-02  0.8644094E-01
          2   -1    0    0  501    0  0.00000000000E+00  0.00000000000E+00  0.23668007767E+04  0.23668007767E+04  0.25500000000E-02 0.  1.
         -2   -1    0    0    0  501 -0.00000000000E+00 -0.00000000000E+00 -0.39010600292E+03  0.39010600293E+03  0.25500000000E-02 0. -1.
     200001    2    1    2    0    0  0.70453276796E+03  0.10401708962E+03  0.69993261467E+03  0.11716381630E+04  0.61289831437E+03 0.  0.
    5000001    2    3    3    0    0  0.56524634289E+03 -0.13184252097E+03  0.54214480958E+03  0.83978208640E+03  0.27281326872E+03 0.  0.
        -11    1    4    4    0    0  0.56725875394E+03 -0.14556129907E+03  0.55252349539E+03  0.80514147742E+03  0.51100000000E-03 0. -1.
     200002    1    4    4    0    0 -0.20124110424E+01  0.13718778104E+02 -0.10378685816E+02  0.34640608975E+02  0.30000000000E+02 0. -1.
     200000    1    3    3    0    0  0.13928642506E+03  0.23585961058E+03  0.15778780509E+03  0.33185607656E+03  0.10100000000E+03 0.  1.
    -200001    1    1    2    0    0 -0.70453276796E+03 -0.10401708962E+03  0.12767621591E+04  0.15852686166E+04  0.61300000000E+03 0.  1.
<mgrwt>
<rscale>  0 0.19217733E+04</rscale>
<asrwt>0</asrwt>
<pdfrwt beam="1">  1        2 0.33811439E+00 0.19217733E+04</pdfrwt>
<pdfrwt beam="2">  1       -2 0.55729430E-01 0.19217733E+04</pdfrwt>
<totfact> 0.14695490E+01</totfact>
</mgrwt>
</event>
<event>
 8    1  0.7326756E-052  0.1468021E+04  0.7818608E-02  0.8906002E-01
         -2   -1    0    0    0  501 -0.00000000000E+00  0.00000000000E+00  0.31413254769E+03  0.31413254770E+03  0.25500000000E-02 0. -1.
          2   -1    0    0  501    0  0.00000000000E+00 -0.00000000000E+00 -0.17151084074E+04  0.17151084074E+04  0.25500000000E-02 0.  1.
     200001    2    1    2    0    0  0.88211763181E+02  0.30756723665E+03 -0.10432896040E+04  0.12507248167E+04  0.61113046817E+03 0.  0.
    5000001    2    3    3    0    0 -0.13012374275E+03  0.24596276550E+03 -0.93593327262E+03  0.98018482725E+03  0.85798218647E+02 0.  0.
        -11    1    4    4    0    0 -0.13595362401E+02  0.18309995751E+02 -0.26312700545E+02  0.34820224489E+02  0.51100000000E-03 0. -1.
     200002    1    4    4    0    0 -0.11652838035E+03  0.22765276975E+03 -0.90962057208E+03  0.94536460276E+03  0.30000000000E+02 0. -1.
     200000    1    3    3    0    0  0.21833550593E+03  0.61604471146E+02 -0.10735633136E+03  0.27053998946E+03  0.10100000000E+03 0. -1.
    -200001    1    1    2    0    0 -0.88211763181E+02 -0.30756723665E+03 -0.35768625574E+03  0.77851613841E+03  0.61300000000E+03 0.  1.
<mgrwt>
<rscale>  0 0.14680209E+04</rscale>
<asrwt>0</asrwt>
<pdfrwt beam="1">  1        2 0.24501548E+00 0.14680209E+04</pdfrwt>
<pdfrwt beam="2">  1       -2 0.44876079E-01 0.14680209E+04</pdfrwt>
<totfact> 0.51427251E+01</totfact>
</mgrwt>
</event>
<event>
 8    1  0.7326756E-052  0.1522569E+04  0.7818608E-02  0.8869582E-01
          2   -1    0    0  501    0  0.00000000000E+00  0.00000000000E+00  0.14277636416E+04  0.14277636416E+04  0.25500000000E-02 0.  1.
         -2   -1    0    0    0  501 -0.00000000000E+00 -0.00000000000E+00 -0.40591750517E+03  0.40591750518E+03  0.25500000000E-02 0. -1.
     200001    2    1    2    0    0  0.93228479366E+02 -0.20783007114E+03  0.41654961901E+02  0.65536513380E+03  0.61309333295E+03 0.  0.
    5000001    2    3    3    0    0  0.10042276487E+03 -0.40336199710E+03  0.84533952908E+02  0.43103479772E+03  0.76546556044E+02 0.  0.
        -11    1    4    4    0    0  0.80940908866E+01 -0.10523123236E+02 -0.85749823870E+01  0.15804453585E+02  0.51100000000E-03 0. -1.
     200002    1    4    4    0    0  0.92328673984E+02 -0.39283887387E+03  0.93108935295E+02  0.41523034414E+03  0.30000000000E+02 0. -1.
     200000    1    3    3    0    0 -0.71942855044E+01  0.19553192596E+03 -0.42878991007E+02  0.22433033607E+03  0.10100000000E+03 0. -1.
    -200001    1    1    2    0    0 -0.93228479366E+02  0.20783007114E+03  0.98019117457E+03  0.11783160130E+04  0.61300000000E+03 0.  1.
<mgrwt>
<rscale>  0 0.15225692E+04</rscale>
<asrwt>0</asrwt>
<pdfrwt beam="1">  1        2 0.20396624E+00 0.15225692E+04</pdfrwt>
<pdfrwt beam="2">  1       -2 0.57988214E-01 0.15225692E+04</pdfrwt>
<totfact> 0.42973729E+01</totfact>
</mgrwt>
</event>
<event>
 8    1  0.7326756E-052  0.2018611E+04  0.7818608E-02  0.8597969E-01
         -2   -1    0    0    0  501 -0.00000000000E+00  0.00000000000E+00  0.22720338906E+04  0.22720338906E+04  0.25500000000E-02 0. -1.
          2   -1    0    0  501    0  0.00000000000E+00 -0.00000000000E+00 -0.44836358854E+03  0.44836358855E+03  0.25500000000E-02 0.  1.
     200001    2    1    2    0    0  0.21007330845E+03 -0.14677274477E+03  0.19371231902E+04  0.20463695929E+04  0.60787270314E+03 0.  0.
    5000001    2    3    3    0    0  0.31820460184E+03 -0.28664062399E+03  0.15325761709E+04  0.15934736986E+04  0.83376810832E+02 0.  0.
        -11    1    4    4    0    0  0.20718232329E+03 -0.22213560775E+03  0.10263705973E+04  0.10703762639E+04  0.51100000000E-03 0. -1.
     200002    1    4    4    0    0  0.11102227854E+03 -0.64505016248E+02  0.50620557361E+03  0.52309743472E+03  0.30000000000E+02 0. -1.
     200000    1    3    3    0    0 -0.10813129339E+03  0.13986787923E+03  0.40454701936E+03  0.45289589435E+03  0.10100000000E+03 0. -1.
    -200001    1    1    2    0    0 -0.21007330845E+03  0.14677274477E+03 -0.11345288820E+03  0.67402788619E+03  0.61300000000E+03 0.  1.
<mgrwt>
<rscale>  0 0.20186107E+04</rscale>
<asrwt>0</asrwt>
<pdfrwt beam="1">  1        2 0.64051940E-01 0.20186107E+04</pdfrwt>
<pdfrwt beam="2">  1       -2 0.32457628E+00 0.20186107E+04</pdfrwt>
<totfact> 0.15901307E+00</totfact>
</mgrwt>
</event>
<event>
 8    1  0.7326756E-052  0.1361082E+04  0.7818608E-02  0.8982481E-01
         -2   -1    0    0    0  501 -0.00000000000E+00  0.00000000000E+00  0.10811234889E+04  0.10811234889E+04  0.25500000000E-02 0. -1.
          2   -1    0    0  501    0  0.00000000000E+00 -0.00000000000E+00 -0.42838401448E+03  0.42838401449E+03  0.25500000000E-02 0.  1.
     200001    2    1    2    0    0 -0.10692329378E+03 -0.27588568973E+03  0.31772678614E+03  0.75085870070E+03  0.61261160064E+03 0.  0.
    5000001    2    3    3    0    0 -0.33163121204E+03 -0.15032738436E+03  0.29262504964E+03  0.47320850036E+03  0.75625933659E+02 0.  0.
        -11    1    4    4    0    0 -0.15431181584E+03 -0.88255957212E+02  0.17545910887E+03  0.24977419678E+03  0.51100000000E-03 0. -1.
     200002    1    4    4    0    0 -0.17731939620E+03 -0.62071427150E+02  0.11716594077E+03  0.22343430358E+03  0.30000000000E+02 0. -1.
     200000    1    3    3    0    0  0.22470791826E+03 -0.12555830537E+03  0.25101736504E+02  0.27765020035E+03  0.10100000000E+03 0. -1.
    -200001    1    1    2    0    0  0.10692329378E+03  0.27588568973E+03  0.33501268832E+03  0.75864880273E+03  0.61300000000E+03 0.  1.
<mgrwt>
<rscale>  0 0.13610820E+04</rscale>
<asrwt>0</asrwt>
<pdfrwt beam="1">  1        2 0.61197717E-01 0.13610820E+04</pdfrwt>
<pdfrwt beam="2">  1       -2 0.15444621E+00 0.13610820E+04</pdfrwt>
<totfact> 0.21670826E+01</totfact>
</mgrwt>
</event>
<event>
 8    1  0.7326756E-052  0.1627123E+04  0.7818608E-02  0.8804056E-01
          2   -1    0    0  501    0  0.00000000000E+00  0.00000000000E+00  0.23134905997E+04  0.23134905997E+04  0.25500000000E-02 0.  1.
         -2   -1    0    0    0  501 -0.00000000000E+00 -0.00000000000E+00 -0.28609679650E+03  0.28609679651E+03  0.25500000000E-02 0. -1.
     200001    2    1    2    0    0  0.45149770549E+03  0.28673538931E+03  0.10280875213E+04  0.13110031318E+04  0.61294200257E+03 0.  0.
    5000001    2    3    3    0    0  0.48408683384E+03  0.27060625287E+03  0.10573404431E+04  0.11997424749E+04  0.11766642161E+03 0.  0.
        -11    1    4    4    0    0  0.11848350344E+03  0.10150022243E+03  0.21591254186E+03  0.26638104563E+03  0.51100000000E-03 0. -1.
     200002    1    4    4    0    0  0.36560333041E+03  0.16910603044E+03  0.84142790124E+03  0.93336142931E+03  0.30000000000E+02 0. -1.
     200000    1    3    3    0    0 -0.32589128352E+02  0.16129136432E+02 -0.29252921777E+02  0.11126065684E+03  0.10100000000E+03 0. -1.
    -200001    1    1    2    0    0 -0.45149770549E+03 -0.28673538931E+03  0.99930628189E+03  0.12885842644E+04  0.61300000000E+03 0.  1.
<mgrwt>
<rscale>  0 0.16271229E+04</rscale>
<asrwt>0</asrwt>
<pdfrwt beam="1">  1        2 0.33049868E+00 0.16271229E+04</pdfrwt>
<pdfrwt beam="2">  1       -2 0.40870969E-01 0.16271229E+04</pdfrwt>
<totfact> 0.30029492E+01</totfact>
</mgrwt>
</event>
<event>
 8    1  0.7326756E-052  0.1720125E+04  0.7818608E-02  0.8749969E-01
          2   -1    0    0  501    0  0.00000000000E+00  0.00000000000E+00  0.10804323912E+04  0.10804323912E+04  0.25500000000E-02 0.  1.
         -2   -1    0    0    0  501 -0.00000000000E+00 -0.00000000000E+00 -0.68464030244E+03  0.68464030245E+03  0.25500000000E-02 0. -1.
     200001    2    1    2    0    0  0.55468448524E+02  0.47396613068E+03  0.57691424994E+03  0.96739175548E+03  0.61261416485E+03 0.  0.
    5000001    2    3    3    0    0  0.77629778731E+02  0.12072652004E+03  0.54261858384E+03  0.59773442795E+03  0.20554864059E+03 0.  0.
        -11    1    4    4    0    0 -0.54733952407E+02  0.10427643458E+02  0.25582895585E+03  0.26182627054E+03  0.51100000000E-03 0. -1.
     200002    1    4    4    0    0  0.13236373114E+03  0.11029887658E+03  0.28678962799E+03  0.33590815742E+03  0.30000000000E+02 0. -1.
     200000    1    3    3    0    0 -0.22161330208E+02  0.35323961064E+03  0.34295666105E+02  0.36965732753E+03  0.10100000000E+03 0. -1.
    -200001    1    1    2    0    0 -0.55468448524E+02 -0.47396613068E+03 -0.18112216120E+03  0.79768093815E+03  0.61300000000E+03 0. -1.
<mgrwt>
<rscale>  0 0.17201251E+04</rscale>
<asrwt>0</asrwt>
<pdfrwt beam="1">  1        2 0.15434748E+00 0.17201251E+04</pdfrwt>
<pdfrwt beam="2">  1       -2 0.97805758E-01 0.17201251E+04</pdfrwt>
<totfact> 0.20815149E+01</totfact>
</mgrwt>
</event>
<event>
 8    1  0.7326756E-052  0.1358679E+04  0.7818608E-02  0.8984284E-01
         -2   -1    0    0    0  501 -0.00000000000E+00  0.00000000000E+00  0.12145865120E+04  0.12145865120E+04  0.25500000000E-02 0. -1.
          2   -1    0    0  501    0  0.00000000000E+00 -0.00000000000E+00 -0.37996653937E+03  0.37996653938E+03  0.25500000000E-02 0.  1.
     200001    2    1    2    0    0 -0.63311851416E+02 -0.28450769546E+03  0.42275295323E+03  0.80060314051E+03  0.61424124725E+03 0.  0.
    5000001    2    3    3    0    0  0.12978949732E+03  0.12996025121E+03  0.85553448698E+02  0.22356214062E+03  0.94475698586E+02 0.  0.
        -11    1    4    4    0    0  0.34625607924E+02  0.94114961070E+02  0.36223042826E+02  0.10662395347E+03  0.51100000000E-03 0. -1.
     200002    1    4    4    0    0  0.95163889393E+02  0.35845290142E+02  0.49330405872E+02  0.11693818715E+03  0.30000000000E+02 0. -1.
     200000    1    3    3    0    0 -0.19310134873E+03 -0.41446794667E+03  0.33719950454E+03  0.57704099990E+03  0.10100000000E+03 0. -1.
    -200001    1    1    2    0    0  0.63311851416E+02  0.28450769546E+03  0.41186701938E+03  0.79394991086E+03  0.61300000000E+03 0.  1.
<mgrwt>
<rscale>  0 0.13586791E+04</rscale>
<asrwt>0</asrwt>
<pdfrwt beam="1">  1        2 0.54280935E-01 0.13586791E+04</pdfrwt>
<pdfrwt beam="2">  1       -2 0.17351236E+00 0.13586791E+04</pdfrwt>
<totfact> 0.18007744E+01</totfact>
</mgrwt>
</event>
<event>
 8    1  0.7326756E-052  0.1231717E+04  0.7818608E-02  0.9085539E-01
         -2   -1    0    0    0  501 -0.00000000000E+00  0.00000000000E+00  0.12868024777E+03  0.12868024780E+03  0.25500000000E-02 0. -1.
          2   -1    0    0  501    0  0.00000000000E+00 -0.00000000000E+00 -0.29474717609E+04  0.29474717609E+04  0.25500000000E-02 0.  1.
     200001    2    1    2    0    0 -0.37349015177E+00  0.11276123435E+02 -0.12590046793E+04  0.14001951902E+04  0.61263896200E+03 0.  0.
    5000001    2    3    3    0    0  0.10616156335E+03 -0.25340916986E+03 -0.75215987054E+03  0.80985572662E+03  0.12097661837E+03 0.  0.
        -11    1    4    4    0    0 -0.23024046921E+00 -0.12747693517E+03 -0.40081086396E+03  0.42059454428E+03  0.51100000000E-03 0. -1.
     200002    1    4    4    0    0  0.10639180382E+03 -0.12593223469E+03 -0.35134900658E+03  0.38926118234E+03  0.30000000000E+02 0. -1.
     200000    1    3    3    0    0 -0.10653505350E+03  0.26468529329E+03 -0.50684480879E+03  0.59033946362E+03  0.10100000000E+03 0. -1.
    -200001    1    1    2    0    0  0.37349015177E+00 -0.11276123435E+02 -0.15597868338E+04  0.16759568185E+04  0.61300000000E+03 0.  1.
<mgrwt>
<rscale>  0 0.12317165E+04</rscale>
<asrwt>0</asrwt>
<pdfrwt beam="1">  1        2 0.42106735E+00 0.12317165E+04</pdfrwt>
<pdfrwt beam="2">  1       -2 0.18382894E-01 0.12317165E+04</pdfrwt>
<totfact> 0.62175052E+01</totfact>
</mgrwt>
</event>
<event>
 8    1  0.7326756E-052  0.1542452E+04  0.7818608E-02  0.8856704E-01
          2   -1    0    0  501    0  0.00000000000E+00  0.00000000000E+00  0.25217633231E+03  0.25217633232E+03  0.25500000000E-02 0.  1.
         -2   -1    0    0    0  501 -0.00000000000E+00 -0.00000000000E+00 -0.23586249328E+04  0.23586249328E+04  0.25500000000E-02 0. -1.
     200001    2    1    2    0    0 -0.19470012585E+03 -0.34270019762E+02 -0.33104843966E+03  0.72217814116E+03  0.61062723892E+03 0.  0.
    5000001    2    3    3    0    0 -0.21838648280E+03  0.23722474885E+03 -0.15178219306E+03  0.38069923982E+03  0.13388741440E+03 0.  0.
        -11    1    4    4    0    0  0.26228066042E+01  0.70799537331E+02 -0.31024053835E+02  0.77343037937E+02  0.51100000000E-03 0. -1.
     200002    1    4    4    0    0 -0.22100928941E+03  0.16642521152E+03 -0.12075813922E+03  0.30335620189E+03  0.30000000000E+02 0. -1.
     200000    1    3    3    0    0  0.23686356950E+02 -0.27149476861E+03 -0.17926624660E+03  0.34147890134E+03  0.10100000000E+03 0. -1.
    -200001    1    1    2    0    0  0.19470012585E+03  0.34270019762E+02 -0.17754001609E+04  0.18886231240E+04  0.61300000000E+03 0. -1.
<mgrwt>
<rscale>  0 0.15424518E+04</rscale>
<asrwt>0</asrwt>
<pdfrwt beam="1">  1        2 0.36025192E-01 0.15424518E+04</pdfrwt>
<pdfrwt beam="2">  1       -2 0.33694641E+00 0.15424518E+04</pdfrwt>
<totfact> 0.26416239E+00</totfact>
</mgrwt>
</event>
<event>
 8    1  0.7326756E-052  0.1476801E+04  0.7818608E-02  0.8900028E-01
          2   -1    0    0  501    0  0.00000000000E+00  0.00000000000E+00  0.83990809222E+03  0.83990809222E+03  0.25500000000E-02 0.  1.
         -2   -1    0    0    0  501 -0.00000000000E+00 -0.00000000000E+00 -0.64916073807E+03  0.64916073808E+03  0.25500000000E-02 0. -1.
     200001    2    1    2    0    0 -0.14018223876E+02 -0.74918809111E+02  0.50334691490E+03  0.79675616687E+03  0.61290532234E+03 0.  0.
    5000001    2    3    3    0    0 -0.25634873807E+03  0.11296634466E+03  0.26799187327E+03  0.39723407145E+03  0.86597880137E+02 0.  0.
        -11    1    4    4    0    0 -0.12043370171E+03  0.90713381686E+02  0.11850260995E+03  0.19177085986E+03  0.51100000000E-03 0. -1.
     200002    1    4    4    0    0 -0.13591503636E+03  0.22252962973E+02  0.14948926332E+03  0.20546321159E+03  0.30000000000E+02 0. -1.
     200000    1    3    3    0    0  0.24233051419E+03 -0.18788515377E+03  0.23535504163E+03  0.39952209543E+03  0.10100000000E+03 0.  1.
    -200001    1    1    2    0    0  0.14018223876E+02  0.74918809111E+02 -0.31259956075E+03  0.69231266343E+03  0.61300000000E+03 0. -1.
<mgrwt>
<rscale>  0 0.14768011E+04</rscale>
<asrwt>0</asrwt>
<pdfrwt beam="1">  1        2 0.11998687E+00 0.14768011E+04</pdfrwt>
<pdfrwt beam="2">  1       -2 0.92737248E-01 0.14768011E+04</pdfrwt>
<totfact> 0.34107991E+01</totfact>
</mgrwt>
</event>
<event>
 8    1  0.7326756E-052  0.2131579E+04  0.7818608E-02  0.8547459E-01
         -2   -1    0    0    0  501 -0.00000000000E+00  0.00000000000E+00  0.51149683669E+03  0.51149683669E+03  0.25500000000E-02 0. -1.
          2   -1    0    0  501    0  0.00000000000E+00 -0.00000000000E+00 -0.22207507617E+04  0.22207507617E+04  0.25500000000E-02 0.  1.
     200001    2    1    2    0    0  0.35371220845E+03 -0.15410653238E+03  0.14787708755E+03  0.73886711601E+03  0.61253231128E+03 0.  0.
    5000001    2    3    3    0    0  0.28373306989E+03  0.14892890292E+03 -0.78987468894E+02  0.34087706355E+03  0.85287039681E+02 0.  0.
        -11    1    4    4    0    0  0.16036556595E+03  0.11272857531E+03 -0.71453534731E+02  0.20863953139E+03  0.51100000000E-03 0. -1.
     200002    1    4    4    0    0  0.12336750394E+03  0.36200327618E+02 -0.75339341629E+01  0.13223753216E+03  0.30000000000E+02 0. -1.
     200000    1    3    3    0    0  0.69979138557E+02 -0.30303543531E+03  0.22686455644E+03  0.39799005246E+03  0.10100000000E+03 0.  1.
    -200001    1    1    2    0    0 -0.35371220845E+03  0.15410653238E+03 -0.18571310125E+04  0.19933804823E+04  0.61300000000E+03 0.  1.
<mgrwt>
<rscale>  0 0.21315787E+04</rscale>
<asrwt>0</asrwt>
<pdfrwt beam="1">  1        2 0.31725010E+00 0.21315787E+04</pdfrwt>
<pdfrwt beam="2">  1       -2 0.73070978E-01 0.21315787E+04</pdfrwt>
<totfact> 0.96332087E+00</totfact>
</mgrwt>
</event>
<event>
 8    1  0.7326756E-052  0.1946265E+04  0.7818608E-02  0.8632164E-01
         -2   -1    0    0    0  501 -0.00000000000E+00  0.00000000000E+00  0.79247166518E+03  0.79247166518E+03  0.25500000000E-02 0. -1.
          2   -1    0    0  501    0  0.00000000000E+00 -0.00000000000E+00 -0.11949785918E+04  0.11949785918E+04  0.25500000000E-02 0.  1.
     200001    2    1    2    0    0 -0.72978505988E+03  0.12121620682E+03 -0.39853287267E+02  0.96052948860E+03  0.61135015460E+03 0.  0.
    5000001    2    3    3    0    0 -0.24010100549E+02 -0.51112545434E+02  0.96482292126E+02  0.21447058859E+03  0.18302956987E+03 0.  0.
        -11    1    4    4    0    0 -0.10287617497E+02 -0.54489929196E+02 -0.43585020544E+02  0.70531138326E+02  0.51100000000E-03 0. -1.
     200002    1    4    4    0    0 -0.13722483052E+02  0.33773837614E+01  0.14006731267E+03  0.14393945026E+03  0.30000000000E+02 0. -1.
     200000    1    3    3    0    0 -0.70577495934E+03  0.17232875226E+03 -0.13633557939E+03  0.74605890001E+03  0.10100000000E+03 0. -1.
    -200001    1    1    2    0    0  0.72978505988E+03 -0.12121620682E+03 -0.36265363937E+03  0.10269207684E+04  0.61300000000E+03 0.  1.
<mgrwt>
<rscale>  0 0.19462648E+04</rscale>
<asrwt>0</asrwt>
<pdfrwt beam="1">  1        2 0.17071123E+00 0.19462648E+04</pdfrwt>
<pdfrwt beam="2">  1       -2 0.11321024E+00 0.19462648E+04</pdfrwt>
<totfact> 0.12346415E+01</totfact>
</mgrwt>
</event>
<event>
 8    1  0.7326756E-052  0.1617587E+04  0.7818608E-02  0.8809816E-01
         -2   -1    0    0    0  501 -0.00000000000E+00  0.00000000000E+00  0.18501265880E+03  0.18501265882E+03  0.25500000000E-02 0. -1.
          2   -1    0    0  501    0  0.00000000000E+00 -0.00000000000E+00 -0.35356854763E+04  0.35356854763E+04  0.25500000000E-02 0.  1.
     200001    2    1    2    0    0 -0.19064847810E+03  0.10032372551E+03 -0.57167276305E+03  0.86674964317E+03  0.61484429234E+03 0.  0.
    5000001    2    3    3    0    0  0.22350944832E+02  0.21443608261E+03 -0.91876017515E+02  0.32012701170E+03  0.21807728622E+03 0.  0.
        -11    1    4    4    0    0  0.36110976958E+02 -0.13938183145E+02  0.38917338465E+02  0.54889296222E+02  0.51100000000E-03 0. -1.
     200002    1    4    4    0    0 -0.13760032126E+02  0.22837426575E+03 -0.13079335598E+03  0.26523771548E+03  0.30000000000E+02 0. -1.
     200000    1    3    3    0    0 -0.21299942293E+03 -0.11411235710E+03 -0.47979674553E+03  0.54662263147E+03  0.10100000000E+03 0.  1.
    -200001    1    1    2    0    0  0.19064847810E+03 -0.10032372551E+03 -0.27790000545E+04  0.28539484920E+04  0.61300000000E+03 0.  1.
<mgrwt>
<rscale>  0 0.16175866E+04</rscale>
<asrwt>0</asrwt>
<pdfrwt beam="1">  1        2 0.50509789E+00 0.16175866E+04</pdfrwt>
<pdfrwt beam="2">  1       -2 0.26430382E-01 0.16175866E+04</pdfrwt>
<totfact> 0.14334894E+01</totfact>
</mgrwt>
</event>
<event>
 8    1  0.7326756E-052  0.1904636E+04  0.7818608E-02  0.8652552E-01
         -2   -1    0    0    0  501 -0.00000000000E+00  0.00000000000E+00  0.11174376387E+04  0.11174376387E+04  0.25500000000E-02 0. -1.
          2   -1    0    0  501    0  0.00000000000E+00 -0.00000000000E+00 -0.81159747588E+03  0.81159747588E+03  0.25500000000E-02 0.  1.
     200001    2    1    2    0    0 -0.57091207140E+02  0.41714257666E+03  0.75574732394E+03  0.10598672431E+04  0.61228851064E+03 0.  0.
    5000001    2    3    3    0    0 -0.54425010688E+02  0.38537899754E+03  0.83623863642E+03  0.92684136240E+03  0.90888945918E+02 0.  0.
        -11    1    4    4    0    0  0.14770286846E+02  0.17851778053E+03  0.35548308373E+03  0.39806404278E+03  0.51100000000E-03 0. -1.
     200002    1    4    4    0    0 -0.69195297534E+02  0.20686121701E+03  0.48075555269E+03  0.52877731962E+03  0.30000000000E+02 0. -1.
     200000    1    3    3    0    0 -0.26661964517E+01  0.31763579127E+02 -0.80491312484E+02  0.13302588074E+03  0.10100000000E+03 0.  1.
    -200001    1    1    2    0    0  0.57091207140E+02 -0.41714257666E+03 -0.44990716108E+03  0.86916787147E+03  0.61300000000E+03 0.  1.
<mgrwt>
<rscale>  0 0.19046360E+04</rscale>
<asrwt>0</asrwt>
<pdfrwt beam="1">  1        2 0.11594250E+00 0.19046360E+04</pdfrwt>
<pdfrwt beam="2">  1       -2 0.15963395E+00 0.19046360E+04</pdfrwt>
<totfact> 0.88800327E+00</totfact>
</mgrwt>
</event>
<event>
 8    1  0.7326756E-052  0.1318682E+04  0.7818608E-02  0.9014880E-01
          2   -1    0    0  501    0  0.00000000000E+00  0.00000000000E+00  0.16451896357E+04  0.16451896357E+04  0.25500000000E-02 0.  1.
         -2   -1    0    0    0  501 -0.00000000000E+00 -0.00000000000E+00 -0.26424325810E+03  0.26424325811E+03  0.25500000000E-02 0. -1.
     200001    2    1    2    0    0  0.16435551710E+03 -0.15791957615E+03  0.81130244240E+03  0.10421298664E+04  0.61308374369E+03 0.  0.
    5000001    2    3    3    0    0  0.33150867860E+03 -0.25993817182E+03  0.55350859601E+03  0.70300357645E+03  0.10186464302E+03 0.  0.
        -11    1    4    4    0    0  0.28327528851E+03 -0.18103819848E+03  0.42808460293E+03  0.54431254409E+03  0.51100000000E-03 0. -1.
     200002    1    4    4    0    0  0.48233390090E+02 -0.78899973347E+02  0.12542399308E+03  0.15869103236E+03  0.30000000000E+02 0. -1.
     200000    1    3    3    0    0 -0.16715316150E+03  0.10201859567E+03  0.25779384640E+03  0.33912628990E+03  0.10100000000E+03 0.  1.
    -200001    1    1    2    0    0 -0.16435551710E+03  0.15791957615E+03  0.56964393523E+03  0.86730302748E+03  0.61300000000E+03 0. -1.
<mgrwt>
<rscale>  0 0.13186816E+04</rscale>
<asrwt>0</asrwt>
<pdfrwt beam="1">  1        2 0.23502710E+00 0.13186816E+04</pdfrwt>
<pdfrwt beam="2">  1       -2 0.37749036E-01 0.13186816E+04</pdfrwt>
<totfact> 0.79423150E+01</totfact>
</mgrwt>
</event>
<event>
 8    1  0.7326756E-052  0.1528059E+04  0.7818608E-02  0.8866005E-01
         -2   -1    0    0    0  501 -0.00000000000E+00  0.00000000000E+00  0.59649045020E+03  0.59649045021E+03  0.25500000000E-02 0. -1.
          2   -1    0    0  501    0  0.00000000000E+00 -0.00000000000E+00 -0.97862652262E+03  0.97862652263E+03  0.25500000000E-02 0.  1.
     200001    2    1    2    0    0 -0.19335093161E+03  0.21042787402E+03 -0.55773273086E+03  0.87635545459E+03  0.61259171623E+03 0.  0.
    5000001    2    3    3    0    0 -0.20140426749E+02 -0.19755251592E+03 -0.16871478945E+03  0.27803627864E+03  0.96988961847E+02 0.  0.
        -11    1    4    4    0    0  0.15328975720E+02 -0.11305613741E+03 -0.48611449080E+02  0.12401508249E+03  0.51100000000E-03 0. -1.
     200002    1    4    4    0    0 -0.35469402468E+02 -0.84496378510E+02 -0.12010334037E+03  0.15402119614E+03  0.30000000000E+02 0. -1.
     200000    1    3    3    0    0 -0.17321050486E+03  0.40798038995E+03 -0.38901794141E+03  0.59831917595E+03  0.10100000000E+03 0. -1.
    -200001    1    1    2    0    0  0.19335093161E+03 -0.21042787402E+03  0.17559665844E+03  0.69876151824E+03  0.61300000000E+03 0.  1.
<mgrwt>
<rscale>  0 0.15280594E+04</rscale>
<asrwt>0</asrwt>
<pdfrwt beam="1">  1        2 0.13980379E+00 0.15280594E+04</pdfrwt>
<pdfrwt beam="2">  1       -2 0.85212922E-01 0.15280594E+04</pdfrwt>
<totfact> 0.33526262E+01</totfact>
</mgrwt>
</event>
<event>
 8    1  0.7326756E-052  0.1528865E+04  0.7818608E-02  0.8865481E-01
          2   -1    0    0  501    0  0.00000000000E+00  0.00000000000E+00  0.10442381924E+04  0.10442381924E+04  0.25500000000E-02 0.  1.
         -2   -1    0    0    0  501 -0.00000000000E+00 -0.00000000000E+00 -0.55960163008E+03  0.55960163009E+03  0.25500000000E-02 0. -1.
     200001    2    1    2    0    0 -0.81157779150E+02  0.28521725973E+03 -0.12634456801E+03  0.68896146336E+03  0.60890843135E+03 0.  0.
    5000001    2    3    3    0    0 -0.24621444441E+03 -0.44849694766E+02  0.44478282439E+02  0.26995150711E+03  0.90898024339E+02 0.  0.
        -11    1    4    4    0    0 -0.20299675389E+03 -0.20938340349E+02  0.13837905214E+02  0.20454237656E+03  0.51100000000E-03 0. -1.
     200002    1    4    4    0    0 -0.43217690517E+02 -0.23911354416E+02  0.30640377225E+02  0.65409130557E+02  0.30000000000E+02 0. -1.
     200000    1    3    3    0    0  0.16505666526E+03  0.33006695450E+03 -0.17082285045E+03  0.41900995625E+03  0.10100000000E+03 0.  1.
    -200001    1    1    2    0    0  0.81157779150E+02 -0.28521725973E+03  0.61098113031E+03  0.91487835911E+03  0.61300000000E+03 0.  1.
<mgrwt>
<rscale>  0 0.15288655E+04</rscale>
<asrwt>0</asrwt>
<pdfrwt beam="1">  1        2 0.14917688E+00 0.15288655E+04</pdfrwt>
<pdfrwt beam="2">  1       -2 0.79943091E-01 0.15288655E+04</pdfrwt>
<totfact> 0.35296119E+01</totfact>
</mgrwt>
</event>
<event>
 8    1  0.7326756E-052  0.1738978E+04  0.7818608E-02  0.8739441E-01
          2   -1    0    0  501    0  0.00000000000E+00  0.00000000000E+00  0.86256380527E+03  0.86256380527E+03  0.25500000000E-02 0.  1.
         -2   -1    0    0    0  501 -0.00000000000E+00 -0.00000000000E+00 -0.87646934812E+03  0.87646934812E+03  0.25500000000E-02 0. -1.
     200001    2    1    2    0    0 -0.61681253009E+03  0.15497853455E+02 -0.10648068100E+02  0.86927600805E+03  0.61223322033E+03 0.  0.
    5000001    2    3    3    0    0 -0.40325999254E+03  0.23304604406E+03  0.17157603871E+03  0.50003553542E+03  0.60565001278E+02 0.  0.
        -11    1    4    4    0    0 -0.22305776208E+03  0.11374023564E+03  0.74553120086E+02  0.26124657728E+03  0.51100000000E-03 0. -1.
     200002    1    4    4    0    0 -0.18020223046E+03  0.11930580842E+03  0.97022918626E+02  0.23878895813E+03  0.30000000000E+02 0.  1.
     200000    1    3    3    0    0 -0.21355253754E+03 -0.21754819060E+03 -0.18222410681E+03  0.36924047263E+03  0.10100000000E+03 0. -1.
    -200001    1    1    2    0    0  0.61681253009E+03 -0.15497853455E+02 -0.32574747479E+01  0.86975714534E+03  0.61300000000E+03 0. -1.
<mgrwt>
<rscale>  0 0.17389776E+04</rscale>
<asrwt>0</asrwt>
<pdfrwt beam="1">  1        2 0.12322340E+00 0.17389776E+04</pdfrwt>
<pdfrwt beam="2">  1       -2 0.12520991E+00 0.17389776E+04</pdfrwt>
<totfact> 0.15639454E+01</totfact>
</mgrwt>
</event>
<event>
 8    1  0.7326756E-052  0.2224896E+04  0.7818608E-02  0.8508137E-01
         -2   -1    0    0    0  501 -0.00000000000E+00  0.00000000000E+00  0.56193481710E+03  0.56193481711E+03  0.25500000000E-02 0.  1.
          2   -1    0    0  501    0  0.00000000000E+00 -0.00000000000E+00 -0.22022839136E+04  0.22022839136E+04  0.25500000000E-02 0. -1.
     200001    2    1    2    0    0 -0.70607440371E+03  0.37659392402E+01 -0.71415402230E+02  0.93778034333E+03  0.61300617191E+03 0.  0.
    5000001    2    3    3    0    0 -0.27149066714E+03 -0.21422414347E+03 -0.22339704120E+03  0.41847107244E+03  0.74917517754E+02 0.  0.
        -11    1    4    4    0    0 -0.22301710859E+03 -0.16172514544E+03 -0.18620292376E+03  0.33251042421E+03  0.51100000000E-03 0. -1.
     200002    1    4    4    0    0 -0.48473558547E+02 -0.52498998028E+02 -0.37194117436E+02  0.85960648229E+02  0.30000000000E+02 0.  1.
     200000    1    3    3    0    0 -0.43458373657E+03  0.21799008271E+03  0.15198163897E+03  0.51930927089E+03  0.10100000000E+03 0.  1.
    -200001    1    1    2    0    0  0.70607440371E+03 -0.37659392402E+01 -0.15689336942E+04  0.18264383874E+04  0.61300000000E+03 0. -1.
<mgrwt>
<rscale>  0 0.22248955E+04</rscale>
<asrwt>0</asrwt>
<pdfrwt beam="1">  1        2 0.31461198E+00 0.22248955E+04</pdfrwt>
<pdfrwt beam="2">  1       -2 0.80276403E-01 0.22248955E+04</pdfrwt>
<totfact> 0.79273765E+00</totfact>
</mgrwt>
</event>
<event>
 8    1  0.7326756E-052  0.1340564E+04  0.7818608E-02  0.8998002E-01
          2   -1    0    0  501    0  0.00000000000E+00  0.00000000000E+00  0.11864027409E+04  0.11864027409E+04  0.25500000000E-02 0.  1.
         -2   -1    0    0    0  501 -0.00000000000E+00 -0.00000000000E+00 -0.37868897451E+03  0.37868897452E+03  0.25500000000E-02 0. -1.
     200001    2    1    2    0    0 -0.18272911911E+03  0.15922205972E+03  0.54631767555E+03  0.85598064404E+03  0.61277913238E+03 0.  0.
    5000001    2    3    3    0    0  0.77975007205E+02  0.33137199076E+02 -0.80918480544E+02  0.15777563899E+03  0.10567486009E+03 0.  0.
        -11    1    4    4    0    0  0.65543487885E+02 -0.23938154114E+02 -0.41633044246E+02  0.81254503875E+02  0.51100000000E-03 0. -1.
     200002    1    4    4    0    0  0.12431519320E+02  0.57075353190E+02 -0.39285436297E+02  0.76521135116E+02  0.30000000000E+02 0. -1.
     200000    1    3    3    0    0 -0.26070412631E+03  0.12608486064E+03  0.62723615610E+03  0.69820500505E+03  0.10100000000E+03 0. -1.
    -200001    1    1    2    0    0  0.18272911911E+03 -0.15922205972E+03  0.26139609085E+03  0.70911107140E+03  0.61300000000E+03 0. -1.
<mgrwt>
<rscale>  0 0.13405635E+04</rscale>
<asrwt>0</asrwt>
<pdfrwt beam="1">  1        2 0.16948611E+00 0.13405635E+04</pdfrwt>
<pdfrwt beam="2">  1       -2 0.54098425E-01 0.13405635E+04</pdfrwt>
<totfact> 0.68478487E+01</totfact>
</mgrwt>
</event>
<event>
 8    1  0.7326756E-052  0.1591461E+04  0.7818608E-02  0.8825811E-01
         -2   -1    0    0    0  501 -0.00000000000E+00  0.00000000000E+00  0.35988558035E+03  0.35988558036E+03  0.25500000000E-02 0. -1.
          2   -1    0    0  501    0  0.00000000000E+00 -0.00000000000E+00 -0.17594123730E+04  0.17594123730E+04  0.25500000000E-02 0.  1.
     200001    2    1    2    0    0  0.23026339080E+03 -0.45014899421E+03 -0.66536348097E+03  0.10374383902E+04  0.61474751369E+03 0.  0.
    5000001    2    3    3    0    0 -0.11387355594E+03 -0.23288933885E+03 -0.52233001078E+03  0.59439034594E+03  0.11518078092E+03 0.  0.
        -11    1    4    4    0    0 -0.11339722655E+03 -0.22056519659E+03 -0.42830073200E+03  0.49492368499E+03  0.51100000000E-03 0. -1.
     200002    1    4    4    0    0 -0.47632939161E+00 -0.12324142263E+02 -0.94029278781E+02  0.99466660949E+02  0.30000000000E+02 0.  1.
     200000    1    3    3    0    0  0.34413694674E+03 -0.21725965536E+03 -0.14303347019E+03  0.44304804429E+03  0.10100000000E+03 0. -1.
    -200001    1    1    2    0    0 -0.23026339080E+03  0.45014899421E+03 -0.73416331167E+03  0.10818595631E+04  0.61300000000E+03 0.  1.
<mgrwt>
<rscale>  0 0.15914611E+04</rscale>
<asrwt>0</asrwt>
<pdfrwt beam="1">  1        2 0.25134462E+00 0.15914611E+04</pdfrwt>
<pdfrwt beam="2">  1       -2 0.51412227E-01 0.15914611E+04</pdfrwt>
<totfact> 0.36702958E+01</totfact>
</mgrwt>
</event>
<event>
 8    1  0.7326756E-052  0.1358312E+04  0.7818608E-02  0.8984559E-01
         -2   -1    0    0    0  501 -0.00000000000E+00  0.00000000000E+00  0.16072433642E+03  0.16072433644E+03  0.25500000000E-02 0. -1.
          2   -1    0    0  501    0  0.00000000000E+00 -0.00000000000E+00 -0.28698401089E+04  0.28698401089E+04  0.25500000000E-02 0.  1.
     200001    2    1    2    0    0  0.80546268464E+02  0.28780309629E+01 -0.19821757310E+04  0.20762548476E+04  0.61263168315E+03 0.  0.
    5000001    2    3    3    0    0 -0.69688262200E+02  0.88765247627E+02 -0.17931085425E+04  0.18007654105E+04  0.12158164089E+03 0.  0.
        -11    1    4    4    0    0 -0.26044916273E+02 -0.27652721302E+02 -0.41018073669E+03  0.41193597490E+03  0.51100000000E-03 0. -1.
     200002    1    4    4    0    0 -0.43643345927E+02  0.11641796893E+03 -0.13829278058E+04  0.13888294356E+04  0.30000000000E+02 0. -1.
     200000    1    3    3    0    0  0.15023453066E+03 -0.85887216664E+02 -0.18906718853E+03  0.27548943713E+03  0.10100000000E+03 0. -1.
    -200001    1    1    2    0    0 -0.80546268464E+02 -0.28780309629E+01 -0.72694004143E+03  0.95430959770E+03  0.61300000000E+03 0. -1.
<mgrwt>
<rscale>  0 0.13583124E+04</rscale>
<asrwt>0</asrwt>
<pdfrwt beam="1">  1        2 0.40997713E+00 0.13583124E+04</pdfrwt>
<pdfrwt beam="2">  1       -2 0.22960621E-01 0.13583124E+04</pdfrwt>
<totfact> 0.45802495E+01</totfact>
</mgrwt>
</event>
<event>
 8    1  0.7326756E-052  0.3462798E+04  0.7818608E-02  0.8122663E-01
         -2   -1    0    0    0  501 -0.00000000000E+00  0.00000000000E+00  0.14679271981E+04  0.14679271981E+04  0.25500000000E-02 0. -1.
          2   -1    0    0  501    0  0.00000000000E+00 -0.00000000000E+00 -0.20421599130E+04  0.20421599130E+04  0.25500000000E-02 0.  1.
     200001    2    1    2    0    0 -0.85064375060E+03  0.52965822803E+03  0.10021904481E+04  0.15441238312E+04  0.61302535270E+03 0.  0.
    5000001    2    3    3    0    0 -0.71614835268E+03  0.56969305598E+03  0.57666945301E+03  0.10848190123E+04  0.82861271058E+02 0.  0.
        -11    1    4    4    0    0 -0.22031349554E+03  0.21313716807E+03  0.17072316799E+03  0.35087303803E+03  0.51100000000E-03 0. -1.
     200002    1    4    4    0    0 -0.49583485713E+03  0.35655588791E+03  0.40594628503E+03  0.73394597422E+03  0.30000000000E+02 0. -1.
     200000    1    3    3    0    0 -0.13449539792E+03 -0.40034827949E+02  0.42552099505E+03  0.45930481898E+03  0.10100000000E+03 0.  1.
    -200001    1    1    2    0    0  0.85064375060E+03 -0.52965822803E+03 -0.15764231629E+04  0.19659632798E+04  0.61300000000E+03 0.  1.
<mgrwt>
<rscale>  0 0.34627978E+04</rscale>
<asrwt>0</asrwt>
<pdfrwt beam="1">  1        2 0.29173713E+00 0.34627978E+04</pdfrwt>
<pdfrwt beam="2">  1       -2 0.20970389E+00 0.34627978E+04</pdfrwt>
<totfact> 0.73040478E-01</totfact>
</mgrwt>
</event>
<event>
 8    1  0.7326756E-052  0.2065521E+04  0.7818608E-02  0.8576585E-01
          2   -1    0    0  501    0  0.00000000000E+00  0.00000000000E+00  0.32249840219E+04  0.32249840219E+04  0.25500000000E-02 0.  1.
         -2   -1    0    0    0  501 -0.00000000000E+00 -0.00000000000E+00 -0.33072868487E+03  0.33072868488E+03  0.25500000000E-02 0. -1.
     200001    2    1    2    0    0 -0.99565855062E+02  0.78359963622E+03  0.10026696788E+04  0.14161316609E+04  0.61330306287E+03 0.  0.
    5000001    2    3    3    0    0 -0.29805521499E+03  0.65272051309E+03  0.71482340445E+03  0.10293709487E+04  0.18371464576E+03 0.  0.
        -11    1    4    4    0    0  0.25220978923E+02  0.52926095848E+02  0.59568991450E+02  0.83580704365E+02  0.51100000000E-03 0. -1.
     200002    1    4    4    0    0 -0.32327619391E+03  0.59979441724E+03  0.65525441300E+03  0.94579024433E+03  0.30000000000E+02 0. -1.
     200000    1    3    3    0    0  0.19848935993E+03  0.13087912314E+03  0.28784627435E+03  0.38676071224E+03  0.10100000000E+03 0. -1.
    -200001    1    1    2    0    0  0.99565855062E+02 -0.78359963622E+03  0.18915856583E+04  0.21395810459E+04  0.61300000000E+03 0.  1.
<mgrwt>
<rscale>  0 0.20655215E+04</rscale>
<asrwt>0</asrwt>
<pdfrwt beam="1">  1        2 0.46071201E+00 0.20655215E+04</pdfrwt>
<pdfrwt beam="2">  1       -2 0.47246954E-01 0.20655215E+04</pdfrwt>
<totfact> 0.69207523E+00</totfact>
</mgrwt>
</event>
<event>
 8    1  0.7326756E-052  0.2403288E+04  0.7818608E-02  0.8438273E-01
          2   -1    0    0  501    0  0.00000000000E+00  0.00000000000E+00  0.80034131404E+03  0.80034131404E+03  0.25500000000E-02 0.  1.
         -2   -1    0    0    0  501 -0.00000000000E+00 -0.00000000000E+00 -0.18041662737E+04  0.18041662737E+04  0.25500000000E-02 0. -1.
     200001    2    1    2    0    0 -0.54722934884E+03  0.65971542063E+03  0.12536517927E+03  0.10599935003E+04  0.61088902105E+03 0.  0.
    5000001    2    3    3    0    0 -0.47944597979E+03  0.71892846746E+03  0.20841549485E+03  0.90125117779E+03  0.14862731285E+03 0.  0.
        -11    1    4    4    0    0 -0.42060559651E+03  0.55626510240E+03  0.19998244285E+03  0.72548804911E+03  0.51100000000E-03 0. -1.
     200002    1    4    4    0    0 -0.58840383282E+02  0.16266336506E+03  0.84330519989E+01  0.17576312868E+03  0.30000000000E+02 0. -1.
     200000    1    3    3    0    0 -0.67783369052E+02 -0.59213046829E+02 -0.83050315578E+02  0.15874232250E+03  0.10100000000E+03 0. -1.
    -200001    1    1    2    0    0  0.54722934884E+03 -0.65971542063E+03 -0.11291901389E+04  0.15445140874E+04  0.61300000000E+03 0. -1.
<mgrwt>
<rscale>  0 0.24032884E+04</rscale>
<asrwt>0</asrwt>
<pdfrwt beam="1">  1        2 0.11433447E+00 0.24032884E+04</pdfrwt>
<pdfrwt beam="2">  1       -2 0.25773804E+00 0.24032884E+04</pdfrwt>
<totfact> 0.19762366E+00</totfact>
</mgrwt>
</event>
<event>
 8    1  0.7326756E-052  0.1478610E+04  0.7818608E-02  0.8898803E-01
          2   -1    0    0  501    0  0.00000000000E+00  0.00000000000E+00  0.10862101707E+04  0.10862101707E+04  0.25500000000E-02 0.  1.
         -2   -1    0    0    0  501 -0.00000000000E+00 -0.00000000000E+00 -0.50319158139E+03  0.50319158140E+03  0.25500000000E-02 0. -1.
     200001    2    1    2    0    0  0.20563850452E+02  0.26147829685E+03  0.63415163152E+03  0.92068854031E+03  0.61377954091E+03 0.  0.
    5000001    2    3    3    0    0 -0.20589789546E+03 -0.64172424978E+02  0.10253223014E+03  0.24975374251E+03  0.73157571008E+02 0.  0.
        -11    1    4    4    0    0 -0.82291272538E+02  0.54317822233E+01  0.43077508697E+02  0.93043159608E+02  0.51100000000E-03 0. -1.
     200002    1    4    4    0    0 -0.12360662292E+03 -0.69604207201E+02  0.59454721445E+02  0.15671058290E+03  0.30000000000E+02 0. -1.
     200000    1    3    3    0    0  0.22646174591E+03  0.32565072182E+03  0.53161940138E+03  0.67093479780E+03  0.10100000000E+03 0. -1.
    -200001    1    1    2    0    0 -0.20563850452E+02 -0.26147829685E+03 -0.51133042180E+02  0.66871321182E+03  0.61300000000E+03 0. -1.
<mgrwt>
<rscale>  0 0.14786099E+04</rscale>
<asrwt>0</asrwt>
<pdfrwt beam="1">  1        2 0.15517288E+00 0.14786099E+04</pdfrwt>
<pdfrwt beam="2">  1       -2 0.71884511E-01 0.14786099E+04</pdfrwt>
<totfact> 0.42331343E+01</totfact>
</mgrwt>
</event>
<event>
 8    1  0.7326756E-052  0.1294514E+04  0.7818608E-02  0.9033927E-01
         -2   -1    0    0    0  501 -0.00000000000E+00  0.00000000000E+00  0.56663991849E+03  0.56663991850E+03  0.25500000000E-02 0. -1.
          2   -1    0    0  501    0  0.00000000000E+00 -0.00000000000E+00 -0.73934387126E+03  0.73934387127E+03  0.25500000000E-02 0.  1.
     200001    2    1    2    0    0  0.91542700589E+02  0.19478966424E+02 -0.27302681637E+03  0.67781727273E+03  0.61329692368E+03 0.  0.
    5000001    2    3    3    0    0 -0.13936963593E+03 -0.96812216454E+02 -0.34144977801E+03  0.39193819331E+03  0.90725386753E+02 0.  0.
        -11    1    4    4    0    0 -0.57678221382E+02 -0.62630947628E+02 -0.91076972570E+02  0.12467729447E+03  0.51100000000E-03 0. -1.
     200002    1    4    4    0    0 -0.81691414545E+02 -0.34181268826E+02 -0.25037280544E+03  0.26726089885E+03  0.30000000000E+02 0. -1.
     200000    1    3    3    0    0  0.23091233652E+03  0.11629118288E+03  0.68422961640E+02  0.28587907942E+03  0.10100000000E+03 0. -1.
    -200001    1    1    2    0    0 -0.91542700589E+02 -0.19478966424E+02  0.10032286360E+03  0.62816651704E+03  0.61300000000E+03 0. -1.
<mgrwt>
<rscale>  0 0.12945142E+04</rscale>
<asrwt>0</asrwt>
<pdfrwt beam="1">  1        2 0.10562055E+00 0.12945142E+04</pdfrwt>
<pdfrwt beam="2">  1       -2 0.80948560E-01 0.12945142E+04</pdfrwt>
<totfact> 0.55570526E+01</totfact>
</mgrwt>
</event>
<event>
 8    1  0.7326756E-052  0.2445675E+04  0.7818608E-02  0.8422599E-01
          2   -1    0    0  501    0  0.00000000000E+00  0.00000000000E+00  0.14942115834E+04  0.14942115834E+04  0.25500000000E-02 0.  1.
         -2   -1    0    0    0  501 -0.00000000000E+00 -0.00000000000E+00 -0.10007499237E+04  0.10007499237E+04  0.25500000000E-02 0. -1.
     200001    2    1    2    0    0 -0.89817894447E+03  0.30030728503E+02 -0.32290048956E+03  0.11348720175E+04  0.61322304996E+03 0.  0.
    5000001    2    3    3    0    0 -0.78688502207E+03  0.24335534692E+03 -0.23440446868E+03  0.85932478798E+03  0.71300585243E+02 0.  0.
        -11    1    4    4    0    0 -0.38527223137E+03  0.14885413068E+03 -0.11298830527E+03  0.42820392527E+03  0.51100000000E-03 0. -1.
     200002    1    4    4    0    0 -0.40161279070E+03  0.94501216243E+02 -0.12141616341E+03  0.43112086271E+03  0.30000000000E+02 0. -1.
     200000    1    3    3    0    0 -0.11129392239E+03 -0.21332461842E+03 -0.88496020883E+02  0.27554722952E+03  0.10100000000E+03 0.  1.
    -200001    1    1    2    0    0  0.89817894447E+03 -0.30030728503E+02  0.81636214929E+03  0.13600894896E+04  0.61300000000E+03 0.  1.
<mgrwt>
<rscale>  0 0.24456755E+04</rscale>
<asrwt>0</asrwt>
<pdfrwt beam="1">  1        2 0.21345880E+00 0.24456755E+04</pdfrwt>
<pdfrwt beam="2">  1       -2 0.14296427E+00 0.24456755E+04</pdfrwt>
<totfact> 0.45120900E+00</totfact>
</mgrwt>
</event>
<event>
 8    1  0.7326756E-052  0.2079419E+04  0.7818608E-02  0.8570364E-01
          2   -1    0    0  501    0  0.00000000000E+00  0.00000000000E+00  0.10073523791E+04  0.10073523791E+04  0.25500000000E-02 0.  1.
         -2   -1    0    0    0  501 -0.00000000000E+00 -0.00000000000E+00 -0.10731055903E+04  0.10731055903E+04  0.25500000000E-02 0. -1.
     200001    2    1    2    0    0 -0.49546241401E+03  0.20638108099E+03 -0.67974658846E+03  0.10602457259E+04  0.61154674431E+03 0.  0.
    5000001    2    3    3    0    0  0.23468043716E+02  0.23976891520E+03 -0.97298584420E+02  0.27294003886E+03  0.83602443216E+02 0.  0.
        -11    1    4    4    0    0  0.15441403677E+02  0.15559171128E+03 -0.26362797695E+02  0.15856296752E+03  0.51100000000E-03 0. -1.
     200002    1    4    4    0    0  0.80266400387E+01  0.84177203920E+02 -0.70935786725E+02  0.11437707134E+03  0.30000000000E+02 0.  1.
     200000    1    3    3    0    0 -0.51893045773E+03 -0.33387834215E+02 -0.58244800404E+03  0.78730568704E+03  0.10100000000E+03 0.  1.
    -200001    1    1    2    0    0  0.49546241401E+03 -0.20638108099E+03  0.61399337727E+03  0.10202122434E+04  0.61300000000E+03 0.  1.
<mgrwt>
<rscale>  0 0.20794186E+04</rscale>
<asrwt>0</asrwt>
<pdfrwt beam="1">  1        2 0.14390748E+00 0.20794186E+04</pdfrwt>
<pdfrwt beam="2">  1       -2 0.15330080E+00 0.20794186E+04</pdfrwt>
<totfact> 0.72832855E+00</totfact>
</mgrwt>
</event>
<event>
 8    1  0.7326756E-052  0.1381886E+04  0.7818608E-02  0.8967036E-01
          2   -1    0    0  501    0  0.00000000000E+00  0.00000000000E+00  0.34241249683E+04  0.34241249683E+04  0.25500000000E-02 0.  1.
         -2   -1    0    0    0  501 -0.00000000000E+00 -0.00000000000E+00 -0.13942304273E+03  0.13942304275E+03  0.25500000000E-02 0. -1.
     200001    2    1    2    0    0  0.10822826018E+03 -0.16120081849E+03  0.98883898379E+03  0.11793385598E+04  0.61264822083E+03 0.  0.
    5000001    2    3    3    0    0 -0.48133504633E+02  0.42790080264E+02  0.87312759733E+03  0.87992010137E+03  0.88089490485E+02 0.  0.
        -11    1    4    4    0    0 -0.17487358346E+02  0.46300618683E+01  0.31406890018E+02  0.36244143192E+02  0.51100000000E-03 0. -1.
     200002    1    4    4    0    0 -0.30646146287E+02  0.38160018396E+02  0.84172070731E+03  0.84367595817E+03  0.30000000000E+02 0. -1.
     200000    1    3    3    0    0  0.15636176481E+03 -0.20399089875E+03  0.11571138646E+03  0.29941845839E+03  0.10100000000E+03 0. -1.
    -200001    1    1    2    0    0 -0.10822826018E+03  0.16120081849E+03  0.22958629418E+04  0.23842094513E+04  0.61300000000E+03 0.  1.
<mgrwt>
<rscale>  0 0.13818856E+04</rscale>
<asrwt>0</asrwt>
<pdfrwt beam="1">  1        2 0.48916068E+00 0.13818856E+04</pdfrwt>
<pdfrwt beam="2">  1       -2 0.19917579E-01 0.13818856E+04</pdfrwt>
<totfact> 0.28435401E+01</totfact>
</mgrwt>
</event>
<event>
 8    1  0.7326756E-052  0.1497906E+04  0.7818608E-02  0.8885847E-01
          2   -1    0    0  501    0  0.00000000000E+00  0.00000000000E+00  0.38145491660E+04  0.38145491660E+04  0.25500000000E-02 0.  1.
         -2   -1    0    0    0  501 -0.00000000000E+00 -0.00000000000E+00 -0.14705020625E+03  0.14705020627E+03  0.25500000000E-02 0. -1.
     200001    2    1    2    0    0 -0.34934560766E+03 -0.16338222296E+03  0.13305253744E+04  0.15149791232E+04  0.61329264429E+03 0.  0.
    5000001    2    3    3    0    0  0.11125387265E+03 -0.80502838335E+02  0.73018658081E+03  0.74710638589E+03  0.78341418715E+02 0.  0.
        -11    1    4    4    0    0 -0.40322689152E+01  0.12155030796E+01  0.11918935319E+03  0.11926373528E+03  0.51100000000E-03 0. -1.
     200002    1    4    4    0    0  0.11528614157E+03 -0.81718341415E+02  0.61099722762E+03  0.62784265061E+03  0.30000000000E+02 0. -1.
     200000    1    3    3    0    0 -0.46059948031E+03 -0.82879384629E+02  0.60033879359E+03  0.76787273734E+03  0.10100000000E+03 0.  1.
    -200001    1    1    2    0    0  0.34934560766E+03  0.16338222296E+03  0.23369735854E+04  0.24466202491E+04  0.61300000000E+03 0.  1.
<mgrwt>
<rscale>  0 0.14979055E+04</rscale>
<asrwt>0</asrwt>
<pdfrwt beam="1">  1        2 0.54493564E+00 0.14979055E+04</pdfrwt>
<pdfrwt beam="2">  1       -2 0.21007171E-01 0.14979055E+04</pdfrwt>
<totfact> 0.14618681E+01</totfact>
</mgrwt>
</event>
<event>
 8    1  0.7326756E-052  0.1762011E+04  0.7818608E-02  0.8726767E-01
         -2   -1    0    0    0  501 -0.00000000000E+00  0.00000000000E+00  0.37108552375E+03  0.37108552376E+03  0.25500000000E-02 0. -1.
          2   -1    0    0  501    0  0.00000000000E+00 -0.00000000000E+00 -0.20916214095E+04  0.20916214095E+04  0.25500000000E-02 0.  1.
     200001    2    1    2    0    0 -0.46482714308E+03 -0.17201002902E+03 -0.31141539803E+03  0.84807345412E+03  0.61367524833E+03 0.  0.
    5000001    2    3    3    0    0 -0.17689436733E+03  0.21283562155E+03 -0.17693481751E+03  0.33886084169E+03  0.83247350662E+02 0.  0.
        -11    1    4    4    0    0 -0.10860751374E+03  0.93426276841E+02 -0.57995010309E+02  0.15455575844E+03  0.51100000000E-03 0. -1.
     200002    1    4    4    0    0 -0.68286853589E+02  0.11940934471E+03 -0.11893980720E+03  0.18430508325E+03  0.30000000000E+02 0. -1.
     200000    1    3    3    0    0 -0.28793277575E+03 -0.38484565057E+03 -0.13448058052E+03  0.50921261243E+03  0.10100000000E+03 0. -1.
    -200001    1    1    2    0    0  0.46482714308E+03  0.17201002902E+03 -0.14091204877E+04  0.16146334791E+04  0.61300000000E+03 0.  1.
<mgrwt>
<rscale>  0 0.17620107E+04</rscale>
<asrwt>0</asrwt>
<pdfrwt beam="1">  1        2 0.29880305E+00 0.17620107E+04</pdfrwt>
<pdfrwt beam="2">  1       -2 0.53012219E-01 0.17620107E+04</pdfrwt>
<totfact> 0.22923911E+01</totfact>
</mgrwt>
</event>
<event>
 8    1  0.7326756E-052  0.1263109E+04  0.7818608E-02  0.9059343E-01
         -2   -1    0    0    0  501 -0.00000000000E+00  0.00000000000E+00  0.85509813531E+03  0.85509813531E+03  0.25500000000E-02 0. -1.
          2   -1    0    0  501    0  0.00000000000E+00 -0.00000000000E+00 -0.46645031384E+03  0.46645031385E+03  0.25500000000E-02 0.  1.
     200001    2    1    2    0    0 -0.35836756052E+02 -0.74640891943E+02  0.60814272078E+02  0.62147747280E+03  0.61292767736E+03 0.  0.
    5000001    2    3    3    0    0 -0.21847196298E+03 -0.20500797355E+03 -0.92761348120E+02  0.33141253888E+03  0.10710432014E+03 0.  0.
        -11    1    4    4    0    0 -0.64650002031E+02 -0.85046707885E+02  0.12799135308E+02  0.10759360181E+03  0.51100000000E-03 0. -1.
     200002    1    4    4    0    0 -0.15382196095E+03 -0.11996126566E+03 -0.10556048343E+03  0.22381893707E+03  0.30000000000E+02 0. -1.
     200000    1    3    3    0    0  0.18263520693E+03  0.13036708160E+03  0.15357562020E+03  0.29006493393E+03  0.10100000000E+03 0.  1.
    -200001    1    1    2    0    0  0.35836756052E+02  0.74640891943E+02  0.32783354939E+03  0.70007097636E+03  0.61300000000E+03 0. -1.
<mgrwt>
<rscale>  0 0.12631085E+04</rscale>
<asrwt>0</asrwt>
<pdfrwt beam="1">  1        2 0.66635759E-01 0.12631085E+04</pdfrwt>
<pdfrwt beam="2">  1       -2 0.12215688E+00 0.12631085E+04</pdfrwt>
<totfact> 0.36316960E+01</totfact>
</mgrwt>
</event>
<event>
 8    1  0.7326756E-052  0.1360154E+04  0.7818608E-02  0.8983177E-01
          2   -1    0    0  501    0  0.00000000000E+00  0.00000000000E+00  0.41765250428E+04  0.41765250428E+04  0.25500000000E-02 0.  1.
         -2   -1    0    0    0  501 -0.00000000000E+00 -0.00000000000E+00 -0.11073915529E+03  0.11073915532E+03  0.25500000000E-02 0. -1.
     200001    2    1    2    0    0  0.14985218309E+03 -0.23770187933E+03  0.23185691331E+04  0.24144339209E+04  0.61218499935E+03 0.  0.
    5000001    2    3    3    0    0  0.35219636509E+03 -0.52183159534E+02  0.15643147558E+04  0.16054462640E+04  0.60097335205E+02 0.  0.
        -11    1    4    4    0    0  0.88789266364E+02 -0.34330872347E+02  0.43480275581E+03  0.44510176261E+03  0.51100000000E-03 0. -1.
     200002    1    4    4    0    0  0.26340709873E+03 -0.17852287187E+02  0.11295120000E+04  0.11603445014E+04  0.30000000000E+02 0. -1.
     200000    1    3    3    0    0 -0.20234418201E+03 -0.18551871980E+03  0.75425437725E+03  0.80898765688E+03  0.10100000000E+03 0. -1.
    -200001    1    1    2    0    0 -0.14985218309E+03  0.23770187933E+03  0.17472167545E+04  0.18728302772E+04  0.61300000000E+03 0. -1.
<mgrwt>
<rscale>  0 0.13601542E+04</rscale>
<asrwt>0</asrwt>
<pdfrwt beam="1">  1        2 0.59664653E+00 0.13601542E+04</pdfrwt>
<pdfrwt beam="2">  1       -2 0.15819877E-01 0.13601542E+04</pdfrwt>
<totfact> 0.13777240E+01</totfact>
</mgrwt>
</event>
<event>
 8    1  0.7326756E-052  0.1431872E+04  0.7818608E-02  0.8931066E-01
         -2   -1    0    0    0  501 -0.00000000000E+00  0.00000000000E+00  0.21856480423E+03  0.21856480425E+03  0.25500000000E-02 0. -1.
          2   -1    0    0  501    0  0.00000000000E+00 -0.00000000000E+00 -0.23451374397E+04  0.23451374397E+04  0.25500000000E-02 0.  1.
     200001    2    1    2    0    0 -0.35275603925E+03  0.11151648859E+03 -0.10643398575E+04  0.12826947401E+04  0.61287332578E+03 0.  0.
    5000001    2    3    3    0    0 -0.46509600285E+02 -0.14813109985E+03 -0.41566917125E+02  0.17930485469E+03  0.79476138909E+02 0.  0.
        -11    1    4    4    0    0 -0.21525077883E+02 -0.11713655717E+03 -0.49228145153E+02  0.12887091324E+03  0.51100000000E-03 0. -1.
     200002    1    4    4    0    0 -0.24984522402E+02 -0.30994542674E+02  0.76612280280E+01  0.50433941450E+02  0.30000000000E+02 0. -1.
     200000    1    3    3    0    0 -0.30624643897E+03  0.25964758843E+03 -0.10227729404E+04  0.11033898854E+04  0.10100000000E+03 0.  1.
    -200001    1    1    2    0    0  0.35275603925E+03 -0.11151648859E+03 -0.10622327780E+04  0.12810075039E+04  0.61300000000E+03 0. -1.
<mgrwt>
<rscale>  0 0.14318722E+04</rscale>
<asrwt>0</asrwt>
<pdfrwt beam="1">  1        2 0.33501962E+00 0.14318722E+04</pdfrwt>
<pdfrwt beam="2">  1       -2 0.31223545E-01 0.14318722E+04</pdfrwt>
<totfact> 0.49225954E+01</totfact>
</mgrwt>
</event>
<event>
 8    1  0.7326756E-052  0.1282728E+04  0.7818608E-02  0.9043375E-01
         -2   -1    0    0    0  501 -0.00000000000E+00  0.00000000000E+00  0.56394404289E+03  0.56394404290E+03  0.25500000000E-02 0. -1.
          2   -1    0    0  501    0  0.00000000000E+00 -0.00000000000E+00 -0.72941282642E+03  0.72941282643E+03  0.25500000000E-02 0.  1.
     200001    2    1    2    0    0  0.12404492026E+03 -0.13197783844E+03 -0.13331641671E+03  0.65335056719E+03  0.61342351161E+03 0.  0.
    5000001    2    3    3    0    0 -0.84637168214E+02 -0.29898005544E+03 -0.16864147307E+03  0.36544986531E+03  0.92526395262E+02 0.  0.
        -11    1    4    4    0    0  0.69678104617E+01 -0.11841443762E+03 -0.48814234740E+02  0.12827064720E+03  0.51100000000E-03 0. -1.
     200002    1    4    4    0    0 -0.91604978676E+02 -0.18056561783E+03 -0.11982723833E+03  0.23717921812E+03  0.30000000000E+02 0. -1.
     200000    1    3    3    0    0  0.20868208848E+03  0.16700221700E+03  0.35325056364E+02  0.28790070188E+03  0.10100000000E+03 0.  1.
    -200001    1    1    2    0    0 -0.12404492026E+03  0.13197783844E+03 -0.32152366818E+02  0.64000630214E+03  0.61300000000E+03 0. -1.
<mgrwt>
<rscale>  0 0.12827284E+04</rscale>
<asrwt>0</asrwt>
<pdfrwt beam="1">  1        2 0.10420183E+00 0.12827284E+04</pdfrwt>
<pdfrwt beam="2">  1       -2 0.80563435E-01 0.12827284E+04</pdfrwt>
<totfact> 0.57179027E+01</totfact>
</mgrwt>
</event>
<event>
 8    1  0.7326756E-052  0.1417872E+04  0.7818608E-02  0.8940982E-01
          2   -1    0    0  501    0  0.00000000000E+00  0.00000000000E+00  0.24099504423E+04  0.24099504423E+04  0.25500000000E-02 0.  1.
         -2   -1    0    0    0  501 -0.00000000000E+00 -0.00000000000E+00 -0.20854809440E+03  0.20854809442E+03  0.25500000000E-02 0. -1.
     200001    2    1    2    0    0 -0.16018105156E+03  0.13613601998E+03  0.56204792981E+03  0.85570447804E+03  0.61003384588E+03 0.  0.
    5000001    2    3    3    0    0 -0.13846397174E+03  0.27392567239E+03  0.59704098393E+03  0.67996850077E+03  0.10812807259E+03 0.  0.
        -11    1    4    4    0    0 -0.20746159177E+02  0.11314914564E+03  0.14533084912E+03  0.18534882785E+03  0.51100000000E-03 0. -1.
     200002    1    4    4    0    0 -0.11771781256E+03  0.16077652675E+03  0.45171013481E+03  0.49461967292E+03  0.30000000000E+02 0. -1.
     200000    1    3    3    0    0 -0.21717079828E+02 -0.13778965241E+03 -0.34993054127E+02  0.17573597727E+03  0.10100000000E+03 0. -1.
    -200001    1    1    2    0    0  0.16018105156E+03 -0.13613601998E+03  0.16393544181E+04  0.17627940586E+04  0.61300000000E+03 0.  1.
<mgrwt>
<rscale>  0 0.14178725E+04</rscale>
<asrwt>0</asrwt>
<pdfrwt beam="1">  1        2 0.34427863E+00 0.14178725E+04</pdfrwt>
<pdfrwt beam="2">  1       -2 0.29792585E-01 0.14178725E+04</pdfrwt>
<totfact> 0.49777593E+01</totfact>
</mgrwt>
</event>
<event>
 8    1  0.7326756E-052  0.1444024E+04  0.7818608E-02  0.8922554E-01
          2   -1    0    0  501    0  0.00000000000E+00  0.00000000000E+00  0.13212443118E+04  0.13212443118E+04  0.25500000000E-02 0.  1.
         -2   -1    0    0    0  501 -0.00000000000E+00 -0.00000000000E+00 -0.39455333455E+03  0.39455333456E+03  0.25500000000E-02 0. -1.
     200001    2    1    2    0    0 -0.33627429276E+03 -0.16791971783E+03  0.54558653720E+03  0.90198745609E+03  0.61207782982E+03 0.  0.
    5000001    2    3    3    0    0  0.18030707808E+02  0.17669003083E+03  0.26400697500E+03  0.32425398627E+03  0.62421881959E+02 0.  0.
        -11    1    4    4    0    0  0.13785006852E+02  0.43079266265E+02  0.34191248567E+02  0.56700009477E+02  0.51100000000E-03 0. -1.
     200002    1    4    4    0    0  0.42457009561E+01  0.13361076456E+03  0.22981572643E+03  0.26755397679E+03  0.30000000000E+02 0. -1.
     200000    1    3    3    0    0 -0.35430500056E+03 -0.34460974866E+03  0.28157956220E+03  0.57773346982E+03  0.10100000000E+03 0. -1.
    -200001    1    1    2    0    0  0.33627429276E+03  0.16791971783E+03  0.38110444009E+03  0.81381019031E+03  0.61300000000E+03 0.  1.
<mgrwt>
<rscale>  0 0.14440240E+04</rscale>
<asrwt>0</asrwt>
<pdfrwt beam="1">  1        2 0.18874918E+00 0.14440240E+04</pdfrwt>
<pdfrwt beam="2">  1       -2 0.56364763E-01 0.14440240E+04</pdfrwt>
<totfact> 0.52429252E+01</totfact>
</mgrwt>
</event>
<event>
 8    1  0.7326756E-052  0.1246767E+04  0.7818608E-02  0.9072878E-01
          2   -1    0    0  501    0  0.00000000000E+00  0.00000000000E+00  0.24605669537E+04  0.24605669537E+04  0.25500000000E-02 0.  1.
         -2   -1    0    0    0  501 -0.00000000000E+00 -0.00000000000E+00 -0.15793395288E+03  0.15793395290E+03  0.25500000000E-02 0. -1.
     200001    2    1    2    0    0  0.11215700705E+03  0.22156069080E+02  0.11940841660E+04  0.13466048397E+04  0.61191299496E+03 0.  0.
    5000001    2    3    3    0    0  0.26443378100E+03 -0.13743527593E+03  0.94495670049E+03  0.99886484012E+03  0.12638877883E+03 0.  0.
        -11    1    4    4    0    0  0.10933038948E+02  0.20659405322E+02  0.62877748713E+02  0.67081693869E+02  0.51100000000E-03 0. -1.
     200002    1    4    4    0    0  0.25350074206E+03 -0.15809468125E+03  0.88207895178E+03  0.93178314625E+03  0.30000000000E+02 0. -1.
     200000    1    3    3    0    0 -0.15227677396E+03  0.15959134501E+03  0.24912746548E+03  0.34773999963E+03  0.10100000000E+03 0.  1.
    -200001    1    1    2    0    0 -0.11215700705E+03 -0.22156069080E+02  0.11085488348E+04  0.12718960668E+04  0.61300000000E+03 0. -1.
<mgrwt>
<rscale>  0 0.12467671E+04</rscale>
<asrwt>0</asrwt>
<pdfrwt beam="1">  1        2 0.35150954E+00 0.12467671E+04</pdfrwt>
<pdfrwt beam="2">  1       -2 0.22561995E-01 0.12467671E+04</pdfrwt>
<totfact> 0.78816917E+01</totfact>
</mgrwt>
</event>
<event>
 8    1  0.7326756E-052  0.1338324E+04  0.7818608E-02  0.8999714E-01
         -2   -1    0    0    0  501 -0.00000000000E+00  0.00000000000E+00  0.74226170768E+03  0.74226170768E+03  0.25500000000E-02 0. -1.
          2   -1    0    0  501    0  0.00000000000E+00 -0.00000000000E+00 -0.60326165254E+03  0.60326165254E+03  0.25500000000E-02 0.  1.
     200001    2    1    2    0    0  0.24358235002E+03  0.10587066843E+03  0.32057894834E+02  0.66895364074E+03  0.61313155617E+03 0.  0.
    5000001    2    3    3    0    0 -0.14228659124E+03  0.10033622855E+03  0.14086668692E+03  0.25547350447E+03  0.12292459151E+03 0.  0.
        -11    1    4    4    0    0  0.75667117711E+01  0.28556984151E+02 -0.77474508664E+01  0.30541438506E+02  0.51100000000E-03 0. -1.
     200002    1    4    4    0    0 -0.14985330302E+03  0.71779244398E+02  0.14861413778E+03  0.22493206597E+03  0.30000000000E+02 0. -1.
     200000    1    3    3    0    0  0.38586894126E+03  0.55344398828E+01 -0.10880879208E+03  0.41348013627E+03  0.10100000000E+03 0.  1.
    -200001    1    1    2    0    0 -0.24358235002E+03 -0.10587066843E+03  0.10694216031E+03  0.67656971949E+03  0.61300000000E+03 0. -1.
<mgrwt>
<rscale>  0 0.13383244E+04</rscale>
<asrwt>0</asrwt>
<pdfrwt beam="1">  1        2 0.86180236E-01 0.13383244E+04</pdfrwt>
<pdfrwt beam="2">  1       -2 0.10603739E+00 0.13383244E+04</pdfrwt>
<totfact> 0.37896159E+01</totfact>
</mgrwt>
</event>
<event>
 8    1  0.7326756E-052  0.2106278E+04  0.7818608E-02  0.8558483E-01
         -2   -1    0    0    0  501 -0.00000000000E+00  0.00000000000E+00  0.15992788618E+04  0.15992788618E+04  0.25500000000E-02 0. -1.
          2   -1    0    0  501    0  0.00000000000E+00 -0.00000000000E+00 -0.69350101013E+03  0.69350101013E+03  0.25500000000E-02 0.  1.
     200001    2    1    2    0    0  0.62397803112E+03  0.53724553410E+03  0.70652070995E+03  0.12470964802E+04  0.61489573924E+03 0.  0.
    5000001    2    3    3    0    0  0.20432000500E+03  0.38549100539E+03  0.64121577248E+03  0.78491899187E+03  0.12078980603E+03 0.  0.
        -11    1    4    4    0    0  0.51410541253E+02  0.16443669618E+03  0.33254168222E+03  0.37452161648E+03  0.51100000000E-03 0. -1.
     200002    1    4    4    0    0  0.15290946374E+03  0.22105430921E+03  0.30867409027E+03  0.41039737539E+03  0.30000000000E+02 0. -1.
     200000    1    3    3    0    0  0.41965802612E+03  0.15175452871E+03  0.65304937469E+02  0.46217748834E+03  0.10100000000E+03 0.  1.
    -200001    1    1    2    0    0 -0.62397803112E+03 -0.53724553410E+03  0.19925714174E+03  0.10456833917E+04  0.61300000000E+03 0.  1.
<mgrwt>
<rscale>  0 0.21062778E+04</rscale>
<asrwt>0</asrwt>
<pdfrwt beam="1">  1        2 0.99071572E-01 0.21062778E+04</pdfrwt>
<pdfrwt beam="2">  1       -2 0.22846841E+00 0.21062778E+04</pdfrwt>
<totfact> 0.36782721E+00</totfact>
</mgrwt>
</event>
<event>
 8    1  0.7326756E-052  0.1709701E+04  0.7818608E-02  0.8755851E-01
          2   -1    0    0  501    0  0.00000000000E+00  0.00000000000E+00  0.24983471606E+04  0.24983471606E+04  0.25500000000E-02 0.  1.
         -2   -1    0    0    0  501 -0.00000000000E+00 -0.00000000000E+00 -0.29250123860E+03  0.29250123861E+03  0.25500000000E-02 0. -1.
     200001    2    1    2    0    0 -0.34045906754E+03 -0.47725403882E+03  0.12777792431E+04  0.15335653942E+04  0.61271463988E+03 0.  0.
    5000001    2    3    3    0    0 -0.24953795669E+02 -0.29619253302E+03  0.14828767602E+03  0.34265018077E+03  0.84066657989E+02 0.  0.
        -11    1    4    4    0    0  0.15998482783E+02 -0.10547373958E+03  0.81663126273E+02  0.13434852953E+03  0.51100000000E-03 0. -1.
     200002    1    4    4    0    0 -0.40952278452E+02 -0.19071879344E+03  0.66624549747E+02  0.20830165125E+03  0.30000000000E+02 0. -1.
     200000    1    3    3    0    0 -0.31550527187E+03 -0.18106150580E+03  0.11294915670E+04  0.11909152134E+04  0.10100000000E+03 0.  1.
    -200001    1    1    2    0    0  0.34045906754E+03  0.47725403882E+03  0.92806667893E+03  0.12572830050E+04  0.61300000000E+03 0. -1.
<mgrwt>
<rscale>  0 0.17097013E+04</rscale>
<asrwt>0</asrwt>
<pdfrwt beam="1">  1        2 0.35690675E+00 0.17097013E+04</pdfrwt>
<pdfrwt beam="2">  1       -2 0.41785890E-01 0.17097013E+04</pdfrwt>
<totfact> 0.22862866E+01</totfact>
</mgrwt>
</event>
<event>
 8    1  0.7326756E-052  0.1446464E+04  0.7818608E-02  0.8920856E-01
         -2   -1    0    0    0  501 -0.00000000000E+00  0.00000000000E+00  0.79983010063E+03  0.79983010063E+03  0.25500000000E-02 0. -1.
          2   -1    0    0  501    0  0.00000000000E+00 -0.00000000000E+00 -0.65396943592E+03  0.65396943592E+03  0.25500000000E-02 0.  1.
     200001    2    1    2    0    0  0.32161410034E+03  0.13968039208E+03  0.22860505450E+03  0.74277079205E+03  0.61359753675E+03 0.  0.
    5000001    2    3    3    0    0  0.54287382954E+02  0.64227372514E+02 -0.12853070797E+03  0.27919373823E+03  0.23314528785E+03 0.  0.
        -11    1    4    4    0    0 -0.67626984217E+02  0.91836437250E+02 -0.89110624648E+02  0.14473438992E+03  0.51100000000E-03 0. -1.
     200002    1    4    4    0    0  0.12191436717E+03 -0.27609064736E+02 -0.39420083320E+02  0.13445934831E+03  0.30000000000E+02 0. -1.
     200000    1    3    3    0    0  0.26732671739E+03  0.75453019567E+02  0.35713576247E+03  0.46357705382E+03  0.10100000000E+03 0. -1.
    -200001    1    1    2    0    0 -0.32161410034E+03 -0.13968039208E+03 -0.82744389790E+02  0.71102874450E+03  0.61300000000E+03 0.  1.
<mgrwt>
<rscale>  0 0.14464639E+04</rscale>
<asrwt>0</asrwt>
<pdfrwt beam="1">  1        2 0.93424205E-01 0.14464639E+04</pdfrwt>
<pdfrwt beam="2">  1       -2 0.11426144E+00 0.14464639E+04</pdfrwt>
<totfact> 0.28479254E+01</totfact>
</mgrwt>
</event>
<event>
 8    1  0.7326756E-052  0.1601040E+04  0.7818608E-02  0.8819910E-01
          2   -1    0    0  501    0  0.00000000000E+00  0.00000000000E+00  0.15350699283E+04  0.15350699283E+04  0.25500000000E-02 0.  1.
         -2   -1    0    0    0  501 -0.00000000000E+00 -0.00000000000E+00 -0.41746112837E+03  0.41746112838E+03  0.25500000000E-02 0. -1.
     200001    2    1    2    0    0 -0.75957536167E+02 -0.91946868168E+02  0.11697925467E+04  0.13258605553E+04  0.61259108380E+03 0.  0.
    5000001    2    3    3    0    0  0.30697210879E+02 -0.24415138583E+03  0.19556333645E+03  0.32893277239E+03  0.96951184801E+02 0.  0.
        -11    1    4    4    0    0 -0.21800700209E+02 -0.15593191587E+03  0.11238743148E+03  0.19344499909E+03  0.51100000000E-03 0. -1.
     200002    1    4    4    0    0  0.52497911088E+02 -0.88219469952E+02  0.83175904972E+02  0.13548777331E+03  0.30000000000E+02 0. -1.
     200000    1    3    3    0    0 -0.10665474705E+03  0.15220451766E+03  0.97422921022E+03  0.99692778290E+03  0.10100000000E+03 0.  1.
    -200001    1    1    2    0    0  0.75957536167E+02  0.91946868168E+02 -0.52183746767E+02  0.62667050137E+03  0.61300000000E+03 0. -1.
<mgrwt>
<rscale>  0 0.16010397E+04</rscale>
<asrwt>0</asrwt>
<pdfrwt beam="1">  1        2 0.21929570E+00 0.16010397E+04</pdfrwt>
<pdfrwt beam="2">  1       -2 0.59637304E-01 0.16010397E+04</pdfrwt>
<totfact> 0.35294203E+01</totfact>
</mgrwt>
</event>
<event>
 8    1  0.7326756E-052  0.2134701E+04  0.7818608E-02  0.8546110E-01
         -2   -1    0    0    0  501 -0.00000000000E+00  0.00000000000E+00  0.52181467258E+03  0.52181467258E+03  0.25500000000E-02 0. -1.
          2   -1    0    0  501    0  0.00000000000E+00 -0.00000000000E+00 -0.21832207278E+04  0.21832207278E+04  0.25500000000E-02 0.  1.
     200001    2    1    2    0    0 -0.26516858285E+03 -0.79985030498E+03 -0.11146867654E+04  0.15282831454E+04  0.61890863620E+03 0.  0.
    5000001    2    3    3    0    0 -0.41047468988E+03 -0.65701708527E+03 -0.67154611840E+03  0.10301969818E+04  0.10084994193E+03 0.  0.
        -11    1    4    4    0    0 -0.80077999130E+02 -0.18029537745E+03 -0.21193413738E+03  0.28954272166E+03  0.51100000000E-03 0. -1.
     200002    1    4    4    0    0 -0.33039669075E+03 -0.47672170782E+03 -0.45961198101E+03  0.74065426014E+03  0.30000000000E+02 0. -1.
     200000    1    3    3    0    0  0.14530610704E+03 -0.14283321971E+03 -0.44314064696E+03  0.49808616362E+03  0.10100000000E+03 0.  1.
    -200001    1    1    2    0    0  0.26516858285E+03  0.79985030498E+03 -0.54671928989E+03  0.11767522550E+04  0.61300000000E+03 0. -1.
<mgrwt>
<rscale>  0 0.21347005E+04</rscale>
<asrwt>0</asrwt>
<pdfrwt beam="1">  1        2 0.31188867E+00 0.21347005E+04</pdfrwt>
<pdfrwt beam="2">  1       -2 0.74544954E-01 0.21347005E+04</pdfrwt>
<totfact> 0.96368857E+00</totfact>
</mgrwt>
</event>
<event>
 8    1  0.7326756E-052  0.2530943E+04  0.7818608E-02  0.8392044E-01
          2   -1    0    0  501    0  0.00000000000E+00  0.00000000000E+00  0.91854187092E+03  0.91854187092E+03  0.25500000000E-02 0.  1.
         -2   -1    0    0    0  501 -0.00000000000E+00 -0.00000000000E+00 -0.17434347869E+04  0.17434347869E+04  0.25500000000E-02 0. -1.
     200001    2    1    2    0    0  0.80278230167E+03 -0.58962937824E+03  0.95930453430E+02  0.11734179908E+04  0.61284981982E+03 0.  0.
    5000001    2    3    3    0    0  0.25514443199E+03 -0.31360781416E+03  0.31117497330E+03  0.51567461874E+03  0.75112622962E+02 0.  0.
        -11    1    4    4    0    0  0.56688263129E+02 -0.34948125113E+02  0.36639761527E+02  0.76009228062E+02  0.51100000000E-03 0. -1.
     200002    1    4    4    0    0  0.19845616887E+03 -0.27865968905E+03  0.27453521177E+03  0.43966539068E+03  0.30000000000E+02 0. -1.
     200000    1    3    3    0    0  0.54763786967E+03 -0.27602156408E+03 -0.21524451987E+03  0.65774337204E+03  0.10100000000E+03 0. -1.
    -200001    1    1    2    0    0 -0.80278230167E+03  0.58962937824E+03 -0.92082336941E+03  0.14885586670E+04  0.61300000000E+03 0. -1.
<mgrwt>
<rscale>  0 0.25309428E+04</rscale>
<asrwt>0</asrwt>
<pdfrwt beam="1">  1        2 0.13122027E+00 0.25309428E+04</pdfrwt>
<pdfrwt beam="2">  1       -2 0.24906211E+00 0.25309428E+04</pdfrwt>
<totfact> 0.18415312E+00</totfact>
</mgrwt>
</event>
<event>
 8    1  0.7326756E-052  0.1544561E+04  0.7818608E-02  0.8855350E-01
         -2   -1    0    0    0  501 -0.00000000000E+00  0.00000000000E+00  0.57480182069E+03  0.57480182070E+03  0.25500000000E-02 0. -1.
          2   -1    0    0  501    0  0.00000000000E+00 -0.00000000000E+00 -0.10376043150E+04  0.10376043150E+04  0.25500000000E-02 0.  1.
     200001    2    1    2    0    0 -0.26415969038E+03  0.29096824823E+03  0.37033715217E+02  0.72920281831E+03  0.61312510197E+03 0.  0.
    5000001    2    3    3    0    0 -0.21754692011E+03  0.32791536907E+03 -0.18605020971E+03  0.47720028331E+03  0.19557678321E+03 0.  0.
        -11    1    4    4    0    0  0.29570352294E+02  0.76264289306E+02 -0.60050879146E+02  0.10147293060E+03  0.51100000000E-03 0. -1.
     200002    1    4    4    0    0 -0.24711727241E+03  0.25165107976E+03 -0.12599933056E+03  0.37572735271E+03  0.30000000000E+02 0. -1.
     200000    1    3    3    0    0 -0.46612770269E+02 -0.36947120838E+02  0.22308392493E+03  0.25200253501E+03  0.10100000000E+03 0. -1.
    -200001    1    1    2    0    0  0.26415969038E+03 -0.29096824823E+03 -0.49983620953E+03  0.88320331739E+03  0.61300000000E+03 0.  1.
<mgrwt>
<rscale>  0 0.15445606E+04</rscale>
<asrwt>0</asrwt>
<pdfrwt beam="1">  1        2 0.14822919E+00 0.15445606E+04</pdfrwt>
<pdfrwt beam="2">  1       -2 0.82114546E-01 0.15445606E+04</pdfrwt>
<totfact> 0.33496947E+01</totfact>
</mgrwt>
</event>
<event>
 8    1  0.7326756E-052  0.1823057E+04  0.7818608E-02  0.8694133E-01
         -2   -1    0    0    0  501 -0.00000000000E+00  0.00000000000E+00  0.65518866979E+03  0.65518866979E+03  0.25500000000E-02 0. -1.
          2   -1    0    0  501    0  0.00000000000E+00 -0.00000000000E+00 -0.12681602065E+04  0.12681602065E+04  0.25500000000E-02 0.  1.
     200001    2    1    2    0    0  0.50428075793E+03 -0.44565176900E+03 -0.35389893672E+03  0.97688588490E+03  0.61331638871E+03 0.  0.
    5000001    2    3    3    0    0  0.50167696861E+03 -0.66112440174E+02 -0.15274423361E+03  0.53561375069E+03  0.86606312998E+02 0.  0.
        -11    1    4    4    0    0  0.15779684940E+03  0.20615038663E+01 -0.77460312111E+02  0.17579589140E+03  0.51100000000E-03 0. -1.
     200002    1    4    4    0    0  0.34388011920E+03 -0.68173944040E+02 -0.75283921498E+02  0.35981785929E+03  0.30000000000E+02 0. -1.
     200000    1    3    3    0    0  0.26037893293E+01 -0.37953932883E+03 -0.20115470311E+03  0.44127213421E+03  0.10100000000E+03 0. -1.
    -200001    1    1    2    0    0 -0.50428075793E+03  0.44565176900E+03 -0.25907260001E+03  0.94646299141E+03  0.61300000000E+03 0.  1.
<mgrwt>
<rscale>  0 0.18230570E+04</rscale>
<asrwt>0</asrwt>
<pdfrwt beam="1">  1        2 0.18116574E+00 0.18230570E+04</pdfrwt>
<pdfrwt beam="2">  1       -2 0.93598381E-01 0.18230570E+04</pdfrwt>
<totfact> 0.17842583E+01</totfact>
</mgrwt>
</event>
<event>
 8    1  0.7326756E-052  0.1543727E+04  0.7818608E-02  0.8855885E-01
         -2   -1    0    0    0  501 -0.00000000000E+00  0.00000000000E+00  0.23207008231E+03  0.23207008232E+03  0.25500000000E-02 0.  1.
          2   -1    0    0  501    0  0.00000000000E+00 -0.00000000000E+00 -0.25672122723E+04  0.25672122723E+04  0.25500000000E-02 0. -1.
     200001    2    1    2    0    0 -0.35013796275E+03  0.20716836924E+03 -0.74777718096E+03  0.10497075497E+04  0.61416602098E+03 0.  0.
    5000001    2    3    3    0    0  0.88355242663E+02 -0.12333576292E+03 -0.20582432075E+03  0.27161811057E+03  0.91620890948E+02 0.  0.
        -11    1    4    4    0    0  0.40293604824E+02 -0.80533137158E+02 -0.56600505261E+02  0.10636154364E+03  0.51100000000E-03 0. -1.
     200002    1    4    4    0    0  0.48061637839E+02 -0.42802625759E+02 -0.14922381549E+03  0.16525656693E+03  0.30000000000E+02 0.  1.
     200000    1    3    3    0    0 -0.43849320541E+03  0.33050413216E+03 -0.54195286021E+03  0.77808943911E+03  0.10100000000E+03 0.  1.
    -200001    1    1    2    0    0  0.35013796275E+03 -0.20716836924E+03 -0.15873650090E+04  0.17495748049E+04  0.61300000000E+03 0. -1.
<mgrwt>
<rscale>  0 0.15437269E+04</rscale>
<asrwt>0</asrwt>
<pdfrwt beam="1">  1        2 0.36674459E+00 0.15437269E+04</pdfrwt>
<pdfrwt beam="2">  1       -2 0.33152870E-01 0.15437269E+04</pdfrwt>
<totfact> 0.33332759E+01</totfact>
</mgrwt>
</event>
<event>
 8    1  0.7326756E-052  0.1247225E+04  0.7818608E-02  0.9072496E-01
          2   -1    0    0  501    0  0.00000000000E+00  0.00000000000E+00  0.51403707347E+03  0.51403707348E+03  0.25500000000E-02 0.  1.
         -2   -1    0    0    0  501 -0.00000000000E+00 -0.00000000000E+00 -0.75654597583E+03  0.75654597583E+03  0.25500000000E-02 0. -1.
     200001    2    1    2    0    0 -0.30176959915E+02 -0.26652253888E+02 -0.12003845754E+02  0.61444085994E+03  0.61300284380E+03 0.  0.
    5000001    2    3    3    0    0 -0.19101020029E+03  0.11991520492E+03  0.18196308955E+03  0.30593879644E+03  0.98099073516E+02 0.  0.
        -11    1    4    4    0    0 -0.76281977025E+02  0.96901750574E+02  0.11048642379E+03  0.16557819641E+03  0.51100000000E-03 0. -1.
     200002    1    4    4    0    0 -0.11472822326E+03  0.23013454346E+02  0.71476665760E+02  0.14036060003E+03  0.30000000000E+02 0. -1.
     200000    1    3    3    0    0  0.16083324037E+03 -0.14656745881E+03 -0.19396693531E+03  0.30850206350E+03  0.10100000000E+03 0. -1.
    -200001    1    1    2    0    0  0.30176959915E+02  0.26652253888E+02 -0.23050505660E+03  0.65614218937E+03  0.61300000000E+03 0. -1.
<mgrwt>
<rscale>  0 0.12472252E+04</rscale>
<asrwt>0</asrwt>
<pdfrwt beam="1">  1        2 0.73433867E-01 0.12472252E+04</pdfrwt>
<pdfrwt beam="2">  1       -2 0.10807800E+00 0.12472252E+04</pdfrwt>
<totfact> 0.43917610E+01</totfact>
</mgrwt>
</event>
<event>
 8    1  0.7326756E-052  0.1586197E+04  0.7818608E-02  0.8829073E-01
         -2   -1    0    0    0  501 -0.00000000000E+00  0.00000000000E+00  0.42863264406E+03  0.42863264407E+03  0.25500000000E-02 0. -1.
          2   -1    0    0  501    0  0.00000000000E+00 -0.00000000000E+00 -0.14674699427E+04  0.14674699427E+04  0.25500000000E-02 0.  1.
     200001    2    1    2    0    0 -0.13730908630E+03 -0.37821621628E+03 -0.15783299317E+03  0.74987447785E+03  0.61277988492E+03 0.  0.
    5000001    2    3    3    0    0 -0.31119855594E+03 -0.15398402037E+03 -0.24256457156E+03  0.43698781194E+03  0.10754141835E+03 0.  0.
        -11    1    4    4    0    0 -0.22425021510E+03 -0.13401502647E+03 -0.21658179760E+03  0.33934622636E+03  0.51100000000E-03 0. -1.
     200002    1    4    4    0    0 -0.86948340836E+02 -0.19968993896E+02 -0.25982773956E+02  0.97641585576E+02  0.30000000000E+02 0. -1.
     200000    1    3    3    0    0  0.17388946964E+03 -0.22423219590E+03  0.84731578385E+02  0.31288666591E+03  0.10100000000E+03 0. -1.
    -200001    1    1    2    0    0  0.13730908630E+03  0.37821621628E+03 -0.88100430550E+03  0.11462281089E+04  0.61300000000E+03 0.  1.
<mgrwt>
<rscale>  0 0.15861974E+04</rscale>
<asrwt>0</asrwt>
<pdfrwt beam="1">  1        2 0.20963856E+00 0.15861974E+04</pdfrwt>
<pdfrwt beam="2">  1       -2 0.61233235E-01 0.15861974E+04</pdfrwt>
<totfact> 0.36300473E+01</totfact>
</mgrwt>
</event>
<event>
 8    1  0.7326756E-052  0.1441473E+04  0.7818608E-02  0.8924334E-01
         -2   -1    0    0    0  501 -0.00000000000E+00  0.00000000000E+00  0.23828370424E+03  0.23828370425E+03  0.25500000000E-02 0. -1.
          2   -1    0    0  501    0  0.00000000000E+00 -0.00000000000E+00 -0.21800105054E+04  0.21800105054E+04  0.25500000000E-02 0.  1.
     200001    2    1    2    0    0  0.35796041087E+02 -0.52252381598E+02 -0.15975964882E+04  0.17124568769E+04  0.61333705940E+03 0.  0.
    5000001    2    3    3    0    0 -0.12384067853E+02  0.24482839887E+03 -0.10349817688E+04  0.10664579331E+04  0.77787860496E+02 0.  0.
        -11    1    4    4    0    0  0.23972941937E+02  0.13711215568E+03 -0.59115345992E+03  0.60731940390E+03  0.51100000000E-03 0. -1.
     200002    1    4    4    0    0 -0.36357009789E+02  0.10771624320E+03 -0.44382830886E+03  0.45913852915E+03  0.30000000000E+02 0. -1.
     200000    1    3    3    0    0  0.48180108940E+02 -0.29708078047E+03 -0.56261471938E+03  0.64599894387E+03  0.10100000000E+03 0. -1.
    -200001    1    1    2    0    0 -0.35796041087E+02  0.52252381598E+02 -0.34413031301E+03  0.70583733273E+03  0.61300000000E+03 0. -1.
<mgrwt>
<rscale>  0 0.14414728E+04</rscale>
<asrwt>0</asrwt>
<pdfrwt beam="1">  1        2 0.31143006E+00 0.14414728E+04</pdfrwt>
<pdfrwt beam="2">  1       -2 0.34040530E-01 0.14414728E+04</pdfrwt>
<totfact> 0.50861115E+01</totfact>
</mgrwt>
</event>
<event>
 8    1  0.7326756E-052  0.1551176E+04  0.7818608E-02  0.8851117E-01
         -2   -1    0    0    0  501 -0.00000000000E+00  0.00000000000E+00  0.10228513748E+04  0.10228513748E+04  0.25500000000E-02 0. -1.
          2   -1    0    0  501    0  0.00000000000E+00 -0.00000000000E+00 -0.58809789385E+03  0.58809789386E+03  0.25500000000E-02 0.  1.
     200001    2    1    2    0    0 -0.23123730389E+03  0.36116837638E+03  0.73192470977E+01  0.74933316443E+03  0.61443741189E+03 0.  0.
    5000001    2    3    3    0    0 -0.24882649745E+03  0.22747969405E+02 -0.20595934830E+03  0.33638460729E+03  0.91122197752E+02 0.  0.
        -11    1    4    4    0    0 -0.66030489894E+02  0.51053744004E+01 -0.11465457146E+02  0.67212700818E+02  0.51100000000E-03 0. -1.
     200002    1    4    4    0    0 -0.18279600756E+03  0.17642595004E+02 -0.19449389115E+03  0.26917190647E+03  0.30000000000E+02 0. -1.
     200000    1    3    3    0    0  0.17589193566E+02  0.33842040697E+03  0.21327859540E+03  0.41294855714E+03  0.10100000000E+03 0. -1.
    -200001    1    1    2    0    0  0.23123730389E+03 -0.36116837638E+03  0.42743423385E+03  0.86161610423E+03  0.61300000000E+03 0. -1.
<mgrwt>
<rscale>  0 0.15511760E+04</rscale>
<asrwt>0</asrwt>
<pdfrwt beam="1">  1        2 0.84013985E-01 0.15511760E+04</pdfrwt>
<pdfrwt beam="2">  1       -2 0.14612163E+00 0.15511760E+04</pdfrwt>
<totfact> 0.17200714E+01</totfact>
</mgrwt>
</event>
<event>
 8    1  0.7326756E-052  0.1379667E+04  0.7818608E-02  0.8968669E-01
          2   -1    0    0  501    0  0.00000000000E+00  0.00000000000E+00  0.25378188038E+04  0.25378188038E+04  0.25500000000E-02 0.  1.
         -2   -1    0    0    0  501 -0.00000000000E+00 -0.00000000000E+00 -0.18751156578E+03  0.18751156580E+03  0.25500000000E-02 0. -1.
     200001    2    1    2    0    0 -0.10261641750E+03 -0.23319629570E+03  0.80613722626E+03  0.10445148929E+04  0.61338690276E+03 0.  0.
    5000001    2    3    3    0    0  0.12216817170E+03 -0.35314408051E+03  0.54125027747E+03  0.66335655539E+03  0.86338015604E+02 0.  0.
        -11    1    4    4    0    0 -0.10974637015E+02 -0.47937494203E+02  0.71262089098E+02  0.86583666767E+02  0.51100000000E-03 0. -1.
     200002    1    4    4    0    0  0.13314280871E+03 -0.30520658631E+03  0.46998818838E+03  0.57677288862E+03  0.30000000000E+02 0. -1.
     200000    1    3    3    0    0 -0.22478458919E+03  0.11994778481E+03  0.26488694878E+03  0.38115833751E+03  0.10100000000E+03 0.  1.
    -200001    1    1    2    0    0  0.10261641750E+03  0.23319629570E+03  0.15441700117E+04  0.16808154767E+04  0.61300000000E+03 0.  1.
<mgrwt>
<rscale>  0 0.13796672E+04</rscale>
<asrwt>0</asrwt>
<pdfrwt beam="1">  1        2 0.36254551E+00 0.13796672E+04</pdfrwt>
<pdfrwt beam="2">  1       -2 0.26787369E-01 0.13796672E+04</pdfrwt>
<totfact> 0.52079748E+01</totfact>
</mgrwt>
</event>
<event>
 8    1  0.7326756E-052  0.1335278E+04  0.7818608E-02  0.9002048E-01
         -2   -1    0    0    0  501 -0.00000000000E+00  0.00000000000E+00  0.21110714778E+03  0.21110714779E+03  0.25500000000E-02 0. -1.
          2   -1    0    0  501    0  0.00000000000E+00 -0.00000000000E+00 -0.21114475590E+04  0.21114475590E+04  0.25500000000E-02 0.  1.
     200001    2    1    2    0    0  0.24332150719E+03  0.97598974495E+02 -0.89706404049E+03  0.11179537804E+04  0.61348663130E+03 0.  0.
    5000001    2    3    3    0    0  0.27137793477E+03  0.29287463459E+03 -0.38375869129E+03  0.55884455313E+03  0.74933079169E+02 0.  0.
        -11    1    4    4    0    0  0.15143007936E+03  0.12108903093E+03 -0.19989838018E+03  0.27848336529E+03  0.51100000000E-03 0. -1.
     200002    1    4    4    0    0  0.11994785541E+03  0.17178560366E+03 -0.18386031112E+03  0.28036118784E+03  0.30000000000E+02 0. -1.
     200000    1    3    3    0    0 -0.28056427581E+02 -0.19527566009E+03 -0.51330534919E+03  0.55910922731E+03  0.10100000000E+03 0.  1.
    -200001    1    1    2    0    0 -0.24332150719E+03 -0.97598974495E+02 -0.10032763707E+04  0.12046009263E+04  0.61300000000E+03 0. -1.
<mgrwt>
<rscale>  0 0.13352778E+04</rscale>
<asrwt>0</asrwt>
<pdfrwt beam="1">  1        2 0.30163535E+00 0.13352778E+04</pdfrwt>
<pdfrwt beam="2">  1       -2 0.30158165E-01 0.13352778E+04</pdfrwt>
<totfact> 0.69860901E+01</totfact>
</mgrwt>
</event>
<event>
 8    1  0.7326756E-052  0.1663352E+04  0.7818608E-02  0.8782547E-01
         -2   -1    0    0    0  501 -0.00000000000E+00  0.00000000000E+00  0.35388356412E+03  0.35388356413E+03  0.25500000000E-02 0. -1.
          2   -1    0    0  501    0  0.00000000000E+00 -0.00000000000E+00 -0.19545552698E+04  0.19545552698E+04  0.25500000000E-02 0.  1.
     200001    2    1    2    0    0  0.17118357094E+02  0.15278719464E+03 -0.53869649375E+02  0.63751018005E+03  0.61634432386E+03 0.  0.
    5000001    2    3    3    0    0  0.20981773102E+03  0.29343474601E+03 -0.35334319884E+02  0.37778081925E+03  0.10650071744E+03 0.  0.
        -11    1    4    4    0    0  0.10485192391E+03  0.16878512442E+03 -0.65787158282E+02  0.20930908812E+03  0.51100000000E-03 0. -1.
     200002    1    4    4    0    0  0.10496580711E+03  0.12464962159E+03  0.30452838398E+02  0.16847173114E+03  0.30000000000E+02 0. -1.
     200000    1    3    3    0    0 -0.19269937393E+03 -0.14064755137E+03 -0.18535329491E+02  0.25972936080E+03  0.10100000000E+03 0. -1.
    -200001    1    1    2    0    0 -0.17118357094E+02 -0.15278719464E+03 -0.15468020564E+04  0.16709286539E+04  0.61300000000E+03 0.  1.
<mgrwt>
<rscale>  0 0.16633520E+04</rscale>
<asrwt>0</asrwt>
<pdfrwt beam="1">  1        2 0.27922218E+00 0.16633520E+04</pdfrwt>
<pdfrwt beam="2">  1       -2 0.50554796E-01 0.16633520E+04</pdfrwt>
<totfact> 0.29960284E+01</totfact>
</mgrwt>
</event>
<event>
 8    1  0.7326756E-052  0.1435476E+04  0.7818608E-02  0.8928532E-01
          2   -1    0    0  501    0  0.00000000000E+00  0.00000000000E+00  0.12172223124E+04  0.12172223124E+04  0.25500000000E-02 0. -1.
         -2   -1    0    0    0  501 -0.00000000000E+00 -0.00000000000E+00 -0.42321598517E+03  0.42321598518E+03  0.25500000000E-02 0.  1.
     200001    2    1    2    0    0  0.35407850638E+03  0.10867682113E+03  0.33558463473E+03  0.79008443695E+03  0.61191023061E+03 0.  0.
    5000001    2    3    3    0    0  0.54303109794E+02 -0.19542274569E+03  0.26147509497E+03  0.34507313506E+03  0.97812913181E+02 0.  0.
        -11    1    4    4    0    0  0.73275066988E+02 -0.10593604829E+03  0.15476732045E+03  0.20135691010E+03  0.51100000000E-03 0. -1.
     200002    1    4    4    0    0 -0.18971957193E+02 -0.89486697399E+02  0.10670777452E+03  0.14371622495E+03  0.30000000000E+02 0. -1.
     200000    1    3    3    0    0  0.29977539658E+03  0.30409956681E+03  0.74109539761E+02  0.44501130190E+03  0.10100000000E+03 0.  1.
    -200001    1    1    2    0    0 -0.35407850638E+03 -0.10867682113E+03  0.45842169250E+03  0.85035386063E+03  0.61300000000E+03 0. -1.
<mgrwt>
<rscale>  0 0.14354761E+04</rscale>
<asrwt>0</asrwt>
<pdfrwt beam="1">  1        2 0.17388890E+00 0.14354761E+04</pdfrwt>
<pdfrwt beam="2">  1       -2 0.60459426E-01 0.14354761E+04</pdfrwt>
<totfact> 0.51760975E+01</totfact>
</mgrwt>
</event>
<event>
 8    1  0.7326756E-052  0.1844452E+04  0.7818608E-02  0.8683011E-01
         -2   -1    0    0    0  501 -0.00000000000E+00  0.00000000000E+00  0.28063622621E+03  0.28063622622E+03  0.25500000000E-02 0. -1.
          2   -1    0    0  501    0  0.00000000000E+00 -0.00000000000E+00 -0.30306165863E+04  0.30306165863E+04  0.25500000000E-02 0.  1.
     200001    2    1    2    0    0  0.52638842119E+03 -0.19514384917E+03 -0.20933148783E+04  0.22519396167E+04  0.61163630186E+03 0.  0.
    5000001    2    3    3    0    0  0.64198160754E+02  0.11362885999E+03 -0.10362495384E+03  0.18360032678E+03  0.77058596329E+02 0.  0.
        -11    1    4    4    0    0 -0.81241723934E+01  0.38070794271E+02 -0.10342515181E+02  0.40278470354E+02  0.51100000000E-03 0. -1.
     200002    1    4    4    0    0  0.72322333147E+02  0.75558065721E+02 -0.93282438663E+02  0.14332185643E+03  0.30000000000E+02 0. -1.
     200000    1    3    3    0    0  0.46219026044E+03 -0.30877270916E+03 -0.19896899244E+04  0.20683392899E+04  0.10100000000E+03 0.  1.
    -200001    1    1    2    0    0 -0.52638842119E+03  0.19514384917E+03 -0.65666548178E+03  0.10593131958E+04  0.61300000000E+03 0. -1.
<mgrwt>
<rscale>  0 0.18444520E+04</rscale>
<asrwt>0</asrwt>
<pdfrwt beam="1">  1        2 0.43294521E+00 0.18444520E+04</pdfrwt>
<pdfrwt beam="2">  1       -2 0.40090891E-01 0.18444520E+04</pdfrwt>
<totfact> 0.12618394E+01</totfact>
</mgrwt>
</event>
<event>
 8    1  0.7326756E-052  0.1607857E+04  0.7818608E-02  0.8815735E-01
         -2   -1    0    0    0  501 -0.00000000000E+00  0.00000000000E+00  0.27057775447E+03  0.27057775448E+03  0.25500000000E-02 0. -1.
          2   -1    0    0  501    0  0.00000000000E+00 -0.00000000000E+00 -0.23885976637E+04  0.23885976637E+04  0.25500000000E-02 0.  1.
     200001    2    1    2    0    0  0.24750515875E+03 -0.28067265658E+03 -0.46277190559E+03  0.85483318420E+03  0.61363343492E+03 0.  0.
    5000001    2    3    3    0    0 -0.12217726691E+03  0.92249084723E+02 -0.89839515515E+02  0.20290121800E+03  0.98288287896E+02 0.  0.
        -11    1    4    4    0    0 -0.21897561158E+02  0.69997293861E+02 -0.23587297567E+02  0.77042098488E+02  0.51100000000E-03 0. -1.
     200002    1    4    4    0    0 -0.10027970575E+03  0.22251790862E+02 -0.66252217947E+02  0.12585911952E+03  0.30000000000E+02 0. -1.
     200000    1    3    3    0    0  0.36968242566E+03 -0.37292174130E+03 -0.37293239007E+03  0.65193196619E+03  0.10100000000E+03 0.  1.
    -200001    1    1    2    0    0 -0.24750515875E+03  0.28067265658E+03 -0.16552480037E+04  0.18043422340E+04  0.61300000000E+03 0.  1.
<mgrwt>
<rscale>  0 0.16078574E+04</rscale>
<asrwt>0</asrwt>
<pdfrwt beam="1">  1        2 0.34122823E+00 0.16078574E+04</pdfrwt>
<pdfrwt beam="2">  1       -2 0.38653966E-01 0.16078574E+04</pdfrwt>
<totfact> 0.30652187E+01</totfact>
</mgrwt>
</event>
<event>
 8    1  0.7326756E-052  0.1397102E+04  0.7818608E-02  0.8955919E-01
         -2   -1    0    0    0  501 -0.00000000000E+00  0.00000000000E+00  0.31912276834E+03  0.31912276835E+03  0.25500000000E-02 0.  1.
          2   -1    0    0  501    0  0.00000000000E+00 -0.00000000000E+00 -0.15291094354E+04  0.15291094354E+04  0.25500000000E-02 0. -1.
     200001    2    1    2    0    0  0.21090015807E+03 -0.32160320869E+02 -0.26253096045E+03  0.69977476922E+03  0.61257575820E+03 0.  0.
    5000001    2    3    3    0    0  0.43431320926E+02 -0.12729028215E+03 -0.41017336108E+03  0.43691587284E+03  0.67558850153E+02 0.  0.
        -11    1    4    4    0    0  0.35319087252E+02 -0.65891011364E+02 -0.14732086924E+03  0.16520442433E+03  0.51100000000E-03 0. -1.
     200002    1    4    4    0    0  0.81122336744E+01 -0.61399270787E+02 -0.26285249183E+03  0.27171144851E+03  0.30000000000E+02 0. -1.
     200000    1    3    3    0    0  0.16746883714E+03  0.95129961282E+02  0.14764240063E+03  0.26285889639E+03  0.10100000000E+03 0.  1.
    -200001    1    1    2    0    0 -0.21090015807E+03  0.32160320869E+02 -0.94745570657E+03  0.11484574345E+04  0.61300000000E+03 0. -1.
<mgrwt>
<rscale>  0 0.13971022E+04</rscale>
<asrwt>0</asrwt>
<pdfrwt beam="1">  1        2 0.21844420E+00 0.13971022E+04</pdfrwt>
<pdfrwt beam="2">  1       -2 0.45588968E-01 0.13971022E+04</pdfrwt>
<totfact> 0.62696508E+01</totfact>
</mgrwt>
</event>
<event>
 8    1  0.7326756E-052  0.1371411E+04  0.7818608E-02  0.8974776E-01
         -2   -1    0    0    0  501 -0.00000000000E+00  0.00000000000E+00  0.11859248261E+03  0.11859248263E+03  0.25500000000E-02 0. -1.
          2   -1    0    0  501    0  0.00000000000E+00 -0.00000000000E+00 -0.39647737826E+04  0.39647737826E+04  0.25500000000E-02 0.  1.
     200001    2    1    2    0    0  0.17008920859E+03 -0.86941441122E+02 -0.12074282259E+04  0.13676203384E+04  0.61319924677E+03 0.  0.
    5000001    2    3    3    0    0  0.67227602198E+02 -0.17801959337E+03 -0.75810583652E+02  0.22322738660E+03  0.88728210909E+02 0.  0.
        -11    1    4    4    0    0  0.40500501332E+02 -0.16140324069E+03 -0.62489598843E+02  0.17775333099E+03  0.51100000000E-03 0. -1.
     200002    1    4    4    0    0  0.26727100866E+02 -0.16616352682E+02 -0.13320984809E+02  0.45474055608E+02  0.30000000000E+02 0.  1.
     200000    1    3    3    0    0  0.10286160640E+03  0.91078152252E+02 -0.11316176423E+04  0.11443929518E+04  0.10100000000E+03 0.  1.
    -200001    1    1    2    0    0 -0.17008920859E+03  0.86941441122E+02 -0.26387530741E+04  0.27157459268E+04  0.61300000000E+03 0.  1.
<mgrwt>
<rscale>  0 0.13714115E+04</rscale>
<asrwt>0</asrwt>
<pdfrwt beam="1">  1        2 0.56639617E+00 0.13714115E+04</pdfrwt>
<pdfrwt beam="2">  1       -2 0.16941786E-01 0.13714115E+04</pdfrwt>
<totfact> 0.17154215E+01</totfact>
</mgrwt>
</event>
<event>
 8    1  0.7326756E-052  0.2270506E+04  0.7818608E-02  0.8489642E-01
          2   -1    0    0  501    0  0.00000000000E+00  0.00000000000E+00  0.29313911366E+04  0.29313911366E+04  0.25500000000E-02 0.  1.
         -2   -1    0    0    0  501 -0.00000000000E+00 -0.00000000000E+00 -0.43965466623E+03  0.43965466624E+03  0.25500000000E-02 0. -1.
     200001    2    1    2    0    0  0.29742282436E+03 -0.76936123066E+03  0.19620012205E+04  0.22148600588E+04  0.61300836153E+03 0.  0.
    5000001    2    3    3    0    0  0.35103885324E+03 -0.59438718268E+03  0.18542016510E+04  0.19796742956E+04  0.67246969098E+02 0.  0.
        -11    1    4    4    0    0  0.14348292548E+03 -0.28698235129E+03  0.81765377430E+03  0.87835295553E+03  0.51100000000E-03 0. -1.
     200002    1    4    4    0    0  0.20755592776E+03 -0.30740483139E+03  0.10365478767E+04  0.11013213401E+04  0.30000000000E+02 0.  1.
     200000    1    3    3    0    0 -0.53616028879E+02 -0.17497404798E+03  0.10779956948E+03  0.23518576317E+03  0.10100000000E+03 0. -1.
    -200001    1    1    2    0    0 -0.29742282436E+03  0.76936123066E+03  0.52973524990E+03  0.11561857440E+04  0.61300000000E+03 0. -1.
<mgrwt>
<rscale>  0 0.22705064E+04</rscale>
<asrwt>0</asrwt>
<pdfrwt beam="1">  1        2 0.41877016E+00 0.22705064E+04</pdfrwt>
<pdfrwt beam="2">  1       -2 0.62807810E-01 0.22705064E+04</pdfrwt>
<totfact> 0.55269536E+00</totfact>
</mgrwt>
</event>
<event>
 8    1  0.7326756E-052  0.1376593E+04  0.7818608E-02  0.8970938E-01
          2   -1    0    0  501    0  0.00000000000E+00  0.00000000000E+00  0.18870823201E+04  0.18870823201E+04  0.25500000000E-02 0.  1.
         -2   -1    0    0    0  501 -0.00000000000E+00 -0.00000000000E+00 -0.25104991286E+03  0.25104991287E+03  0.25500000000E-02 0. -1.
     200001    2    1    2    0    0  0.23647702235E+03 -0.72911334701E+02  0.11151101976E+04  0.12964871811E+04  0.61332765566E+03 0.  0.
    5000001    2    3    3    0    0  0.18151850738E+03 -0.28997526994E+03  0.37391927645E+03  0.51565290168E+03  0.95119209505E+02 0.  0.
        -11    1    4    4    0    0  0.12270360828E+03 -0.24246580566E+03  0.30968022106E+03  0.41200446808E+03  0.51100000000E-03 0. -1.
     200002    1    4    4    0    0  0.58814899093E+02 -0.47509464287E+02  0.64239055383E+02  0.10364843360E+03  0.30000000000E+02 0.  1.
     200000    1    3    3    0    0  0.54958514976E+02  0.21706393524E+03  0.74119092117E+03  0.78083427946E+03  0.10100000000E+03 0. -1.
    -200001    1    1    2    0    0 -0.23647702235E+03  0.72911334701E+02  0.52092220966E+03  0.84164505188E+03  0.61300000000E+03 0. -1.
<mgrwt>
<rscale>  0 0.13765927E+04</rscale>
<asrwt>0</asrwt>
<pdfrwt beam="1">  1        2 0.26958321E+00 0.13765927E+04</pdfrwt>
<pdfrwt beam="2">  1       -2 0.35864271E-01 0.13765927E+04</pdfrwt>
<totfact> 0.65433901E+01</totfact>
</mgrwt>
</event>
<event>
 8    1  0.7326756E-052  0.1403261E+04  0.7818608E-02  0.8951461E-01
          2   -1    0    0  501    0  0.00000000000E+00  0.00000000000E+00  0.78889891597E+03  0.78889891597E+03  0.25500000000E-02 0.  1.
         -2   -1    0    0    0  501 -0.00000000000E+00 -0.00000000000E+00 -0.62401584338E+03  0.62401584338E+03  0.25500000000E-02 0. -1.
     200001    2    1    2    0    0 -0.13234123087E+03  0.28007664788E+03  0.22734929419E+03  0.72325675794E+03  0.61274424213E+03 0.  0.
    5000001    2    3    3    0    0 -0.25568458353E+03  0.35478738976E+03  0.29744580735E+02  0.45859867592E+03  0.13483066153E+03 0.  0.
        -11    1    4    4    0    0 -0.12730810790E+03  0.25489888870E+03  0.58090983880E+02  0.29078404393E+03  0.51100000000E-03 0. -1.
     200002    1    4    4    0    0 -0.12837647563E+03  0.99888501064E+02 -0.28346403146E+02  0.16781463199E+03  0.30000000000E+02 0. -1.
     200000    1    3    3    0    0  0.12334335265E+03 -0.74710741880E+02  0.19760471346E+03  0.26465808202E+03  0.10100000000E+03 0. -1.
    -200001    1    1    2    0    0  0.13234123087E+03 -0.28007664788E+03 -0.62466221600E+02  0.68965800142E+03  0.61300000000E+03 0.  1.
<mgrwt>
<rscale>  0 0.14032611E+04</rscale>
<asrwt>0</asrwt>
<pdfrwt beam="1">  1        2 0.11269985E+00 0.14032611E+04</pdfrwt>
<pdfrwt beam="2">  1       -2 0.89145120E-01 0.14032611E+04</pdfrwt>
<totfact> 0.40763892E+01</totfact>
</mgrwt>
</event>
<event>
 8    1  0.7326756E-052  0.1781546E+04  0.7818608E-02  0.8716175E-01
         -2   -1    0    0    0  501 -0.00000000000E+00  0.00000000000E+00  0.53996982736E+03  0.53996982737E+03  0.25500000000E-02 0. -1.
          2   -1    0    0  501    0  0.00000000000E+00 -0.00000000000E+00 -0.14694834814E+04  0.14694834814E+04  0.25500000000E-02 0.  1.
     200001    2    1    2    0    0  0.33406815993E+03 -0.52982814592E+03 -0.64135004504E+03  0.10868880454E+04  0.61455377568E+03 0.  0.
    5000001    2    3    3    0    0  0.71719261592E+02 -0.81767516295E+02 -0.89006731080E+02  0.32212049326E+03  0.28984450106E+03 0.  0.
        -11    1    4    4    0    0  0.52189756781E+02  0.30916534795E+02  0.89433388067E+02  0.10806448879E+03  0.51100000000E-03 0. -1.
     200002    1    4    4    0    0  0.19529504812E+02 -0.11268405109E+03 -0.17844011915E+03  0.21405600447E+03  0.30000000000E+02 0. -1.
     200000    1    3    3    0    0  0.26234889834E+03 -0.44806062963E+03 -0.55234331396E+03  0.76476755211E+03  0.10100000000E+03 0.  1.
    -200001    1    1    2    0    0 -0.33406815993E+03  0.52982814592E+03 -0.28816360900E+03  0.92256526340E+03  0.61300000000E+03 0. -1.
<mgrwt>
<rscale>  0 0.17815462E+04</rscale>
<asrwt>0</asrwt>
<pdfrwt beam="1">  1        2 0.20992621E+00 0.17815462E+04</pdfrwt>
<pdfrwt beam="2">  1       -2 0.77138547E-01 0.17815462E+04</pdfrwt>
<totfact> 0.21588854E+01</totfact>
</mgrwt>
</event>
<event>
 8    1  0.7326756E-052  0.1266258E+04  0.7818608E-02  0.9056759E-01
          2   -1    0    0  501    0  0.00000000000E+00  0.00000000000E+00  0.10492392414E+04  0.10492392414E+04  0.25500000000E-02 0.  1.
         -2   -1    0    0    0  501 -0.00000000000E+00 -0.00000000000E+00 -0.38204094029E+03  0.38204094030E+03  0.25500000000E-02 0. -1.
     200001    2    1    2    0    0 -0.12061102581E+02 -0.14037790547E+03  0.41320119257E+03  0.75294769854E+03  0.61346848709E+03 0.  0.
    5000001    2    3    3    0    0 -0.77960667690E+02 -0.94405812928E+02 -0.13360278055E+03  0.19111874681E+03  0.60715312664E+02 0.  0.
        -11    1    4    4    0    0  0.42745083928E+01  0.18441051614E+01 -0.12644381997E+02  0.13474143468E+02  0.51100000000E-03 0. -1.
     200002    1    4    4    0    0 -0.82235176082E+02 -0.96249918089E+02 -0.12095839855E+03  0.17764460335E+03  0.30000000000E+02 0. -1.
     200000    1    3    3    0    0  0.65899565109E+02 -0.45972092538E+02  0.54680397312E+03  0.56182895172E+03  0.10100000000E+03 0.  1.
    -200001    1    1    2    0    0  0.12061102581E+02  0.14037790547E+03  0.25399710849E+03  0.67833248312E+03  0.61300000000E+03 0.  1.
<mgrwt>
<rscale>  0 0.12662580E+04</rscale>
<asrwt>0</asrwt>
<pdfrwt beam="1">  1        2 0.14989132E+00 0.12662580E+04</pdfrwt>
<pdfrwt beam="2">  1       -2 0.54577276E-01 0.12662580E+04</pdfrwt>
<totfact> 0.81370190E+01</totfact>
</mgrwt>
</event>
<event>
 8    1  0.7326756E-052  0.1618903E+04  0.7818608E-02  0.8809019E-01
          2   -1    0    0  501    0  0.00000000000E+00  0.00000000000E+00  0.44479864974E+03  0.44479864975E+03  0.25500000000E-02 0.  1.
         -2   -1    0    0    0  501 -0.00000000000E+00 -0.00000000000E+00 -0.14730524308E+04  0.14730524308E+04  0.25500000000E-02 0. -1.
     200001    2    1    2    0    0 -0.19226376554E+03 -0.33488962707E+03 -0.94171062940E+03  0.11882106657E+04  0.61311439291E+03 0.  0.
    5000001    2    3    3    0    0 -0.31289482034E+03  0.18908960886E+02 -0.31889480349E+03  0.45484455988E+03  0.83240378218E+02 0.  0.
        -11    1    4    4    0    0 -0.19732571111E+02  0.18678453444E+02 -0.44750295133E+02  0.52353107840E+02  0.51100000000E-03 0. -1.
     200002    1    4    4    0    0 -0.29316224923E+03  0.23050744211E+00 -0.27414450835E+03  0.40249145204E+03  0.30000000000E+02 0. -1.
     200000    1    3    3    0    0  0.12063105479E+03 -0.35379858795E+03 -0.62281582591E+03  0.73336610586E+03  0.10100000000E+03 0.  1.
    -200001    1    1    2    0    0  0.19226376554E+03  0.33488962707E+03 -0.86543151686E+02  0.72964041484E+03  0.61300000000E+03 0.  1.
<mgrwt>
<rscale>  0 0.16189030E+04</rscale>
<asrwt>0</asrwt>
<pdfrwt beam="1">  1        2 0.63542665E-01 0.16189030E+04</pdfrwt>
<pdfrwt beam="2">  1       -2 0.21043606E+00 0.16189030E+04</pdfrwt>
<totfact> 0.83712727E+00</totfact>
</mgrwt>
</event>
<event>
 8    1  0.7326756E-052  0.1960575E+04  0.7818608E-02  0.8625278E-01
          2   -1    0    0  501    0  0.00000000000E+00  0.00000000000E+00  0.12702489905E+04  0.12702489905E+04  0.25500000000E-02 0.  1.
         -2   -1    0    0    0  501 -0.00000000000E+00 -0.00000000000E+00 -0.75651555259E+03  0.75651555259E+03  0.25500000000E-02 0. -1.
     200001    2    1    2    0    0  0.54588645520E+03  0.59890398759E+02  0.80735338039E+03  0.11529450238E+04  0.61309368387E+03 0.  0.
    5000001    2    3    3    0    0  0.60449058905E+03 -0.57796768761E+02  0.74534667934E+03  0.97594065977E+03  0.16783670712E+03 0.  0.
        -11    1    4    4    0    0  0.74325891443E+02 -0.65292726778E+02  0.11968947488E+03  0.15528376833E+03  0.51100000000E-03 0. -1.
     200002    1    4    4    0    0  0.53016469761E+03  0.74959580175E+01  0.62565720446E+03  0.82065689144E+03  0.30000000000E+02 0. -1.
     200000    1    3    3    0    0 -0.58604133856E+02  0.11768716752E+03  0.62006701050E+02  0.17700436401E+03  0.10100000000E+03 0.  1.
    -200001    1    1    2    0    0 -0.54588645520E+03 -0.59890398759E+02 -0.29361994243E+03  0.87381951936E+03  0.61300000000E+03 0. -1.
<mgrwt>
<rscale>  0 0.19605745E+04</rscale>
<asrwt>0</asrwt>
<pdfrwt beam="1">  1        2 0.18146414E+00 0.19605745E+04</pdfrwt>
<pdfrwt beam="2">  1       -2 0.10807365E+00 0.19605745E+04</pdfrwt>
<totfact> 0.12514961E+01</totfact>
</mgrwt>
</event>
<event>
 8    1  0.7326756E-052  0.2332367E+04  0.7818608E-02  0.8465267E-01
         -2   -1    0    0    0  501 -0.00000000000E+00  0.00000000000E+00  0.62317058727E+03  0.62317058728E+03  0.25500000000E-02 0. -1.
          2   -1    0    0  501    0  0.00000000000E+00 -0.00000000000E+00 -0.21823629092E+04  0.21823629092E+04  0.25500000000E-02 0.  1.
     200001    2    1    2    0    0 -0.56618704522E+02  0.79987667303E+03 -0.75672604147E+02  0.10112068476E+04  0.61139559689E+03 0.  0.
    5000001    2    3    3    0    0  0.19638669755E+03  0.50068857340E+03 -0.25929522983E+02  0.60352973695E+03  0.27261515130E+03 0.  0.
        -11    1    4    4    0    0 -0.64338300028E+02  0.57402058513E+02  0.11666609182E+02  0.87008752101E+02  0.51100000000E-03 0. -1.
     200002    1    4    4    0    0  0.26072499757E+03  0.44328651488E+03 -0.37596132165E+02  0.51652098485E+03  0.30000000000E+02 0. -1.
     200000    1    3    3    0    0 -0.25300540207E+03  0.29918809963E+03 -0.49743081164E+02  0.40767711067E+03  0.10100000000E+03 0. -1.
    -200001    1    1    2    0    0  0.56618704522E+02 -0.79987667303E+03 -0.14835197178E+04  0.17943266489E+04  0.61300000000E+03 0.  1.
<mgrwt>
<rscale>  0 0.23323674E+04</rscale>
<asrwt>0</asrwt>
<pdfrwt beam="1">  1        2 0.31176613E+00 0.23323674E+04</pdfrwt>
<pdfrwt beam="2">  1       -2 0.89024371E-01 0.23323674E+04</pdfrwt>
<totfact> 0.63613628E+00</totfact>
</mgrwt>
</event>
<event>
 8    1  0.7326756E-052  0.1838837E+04  0.7818608E-02  0.8685915E-01
         -2   -1    0    0    0  501 -0.00000000000E+00  0.00000000000E+00  0.83139952515E+03  0.83139952516E+03  0.25500000000E-02 0. -1.
          2   -1    0    0  501    0  0.00000000000E+00 -0.00000000000E+00 -0.10167561940E+04  0.10167561940E+04  0.25500000000E-02 0.  1.
     200001    2    1    2    0    0 -0.21821151927E+03 -0.22835325466E+02  0.55967294956E+03  0.85872363379E+03  0.61321672314E+03 0.  0.
    5000001    2    3    3    0    0 -0.27101737767E+03 -0.22105617648E+03  0.14927830916E+03  0.38893141873E+03  0.81654042983E+02 0.  0.
        -11    1    4    4    0    0 -0.16621431815E+03 -0.11619436175E+03  0.52939782743E+02  0.20959711319E+03  0.51100000000E-03 0. -1.
     200002    1    4    4    0    0 -0.10480305951E+03 -0.10486181474E+03  0.96338526414E+02  0.17933430554E+03  0.30000000000E+02 0. -1.
     200000    1    3    3    0    0  0.52805858393E+02  0.19822085102E+03  0.41039464040E+03  0.46979221506E+03  0.10100000000E+03 0. -1.
    -200001    1    1    2    0    0  0.21821151927E+03  0.22835325466E+02 -0.74502961838E+03  0.98943208534E+03  0.61300000000E+03 0.  1.
<mgrwt>
<rscale>  0 0.18388373E+04</rscale>
<asrwt>0</asrwt>
<pdfrwt beam="1">  1        2 0.14525089E+00 0.18388373E+04</pdfrwt>
<pdfrwt beam="2">  1       -2 0.11877136E+00 0.18388373E+04</pdfrwt>
<totfact> 0.14108032E+01</totfact>
</mgrwt>
</event>
<event>
 8    1  0.7326756E-052  0.1411010E+04  0.7818608E-02  0.8945887E-01
         -2   -1    0    0    0  501 -0.00000000000E+00  0.00000000000E+00  0.33779351862E+03  0.33779351863E+03  0.25500000000E-02 0. -1.
          2   -1    0    0  501    0  0.00000000000E+00 -0.00000000000E+00 -0.14734952430E+04  0.14734952430E+04  0.25500000000E-02 0.  1.
     200001    2    1    2    0    0 -0.24225790181E+03  0.84132984834E+02 -0.26303225909E+03  0.71443496747E+03  0.61275125727E+03 0.  0.
    5000001    2    3    3    0    0 -0.15672167642E+02  0.14113919023E+03 -0.39492136294E+03  0.42775302158E+03  0.82727726385E+02 0.  0.
        -11    1    4    4    0    0  0.64236259985E+01  0.74612703021E+02 -0.27996078320E+03  0.28980400024E+03  0.51100000000E-03 0. -1.
     200002    1    4    4    0    0 -0.22095793641E+02  0.66526487213E+02 -0.11496057974E+03  0.13794902135E+03  0.30000000000E+02 0. -1.
     200000    1    3    3    0    0 -0.22658573416E+03 -0.57006205400E+02  0.13188910385E+03  0.28668194588E+03  0.10100000000E+03 0. -1.
    -200001    1    1    2    0    0  0.24225790181E+03 -0.84132984834E+02 -0.87266946533E+03  0.10968537942E+04  0.61300000000E+03 0.  1.
<mgrwt>
<rscale>  0 0.14110098E+04</rscale>
<asrwt>0</asrwt>
<pdfrwt beam="1">  1        2 0.21049932E+00 0.14110098E+04</pdfrwt>
<pdfrwt beam="2">  1       -2 0.48256218E-01 0.14110098E+04</pdfrwt>
<totfact> 0.59797154E+01</totfact>
</mgrwt>
</event>
<event>
 8    1  0.7326756E-052  0.3722751E+04  0.7818608E-02  0.8062939E-01
          2   -1    0    0  501    0  0.00000000000E+00  0.00000000000E+00  0.28979668023E+04  0.28979668023E+04  0.25500000000E-02 0.  1.
         -2   -1    0    0    0  501 -0.00000000000E+00 -0.00000000000E+00 -0.11955687346E+04  0.11955687346E+04  0.25500000000E-02 0. -1.
     200001    2    1    2    0    0 -0.96044974993E+03  0.12134827368E+04 -0.64614400655E+02  0.16659634705E+04  0.61339643744E+03 0.  0.
    5000001    2    3    3    0    0 -0.10093349918E+04  0.11592208661E+04 -0.45569031234E+02  0.15398768194E+04  0.81203079137E+02 0.  0.
        -11    1    4    4    0    0 -0.76429965813E+03  0.87780479080E+03 -0.57553407997E+02  0.11653358370E+04  0.51100000000E-03 0. -1.
     200002    1    4    4    0    0 -0.24503533370E+03  0.28141607533E+03  0.11984376763E+02  0.37454098240E+03  0.30000000000E+02 0. -1.
     200000    1    3    3    0    0  0.48885241899E+02  0.54261870696E+02 -0.19045369421E+02  0.12608665109E+03  0.10100000000E+03 0.  1.
    -200001    1    1    2    0    0  0.96044974993E+03 -0.12134827368E+04  0.17670124683E+04  0.24275720665E+04  0.61300000000E+03 0.  1.
<mgrwt>
<rscale>  0 0.37227509E+04</rscale>
<asrwt>0</asrwt>
<pdfrwt beam="1">  1        2 0.41399526E+00 0.37227509E+04</pdfrwt>
<pdfrwt beam="2">  1       -2 0.17079553E+00 0.37227509E+04</pdfrwt>
<totfact> 0.46088206E-01</totfact>
</mgrwt>
</event>
<event>
 8    1  0.7326756E-052  0.1604958E+04  0.7818608E-02  0.8817508E-01
          2   -1    0    0  501    0  0.00000000000E+00  0.00000000000E+00  0.10749137626E+04  0.10749137626E+04  0.25500000000E-02 0.  1.
         -2   -1    0    0    0  501 -0.00000000000E+00 -0.00000000000E+00 -0.59909235214E+03  0.59909235214E+03  0.25500000000E-02 0. -1.
     200001    2    1    2    0    0  0.27233109772E+03 -0.36006574676E+03 -0.27113917658E+02  0.76157830224E+03  0.61274364717E+03 0.  0.
    5000001    2    3    3    0    0  0.33152689420E+03 -0.35504791494E+03  0.16732525911E+03  0.53456087027E+03  0.14760920771E+03 0.  0.
        -11    1    4    4    0    0  0.25657573755E+03 -0.33260733866E+03  0.11409114589E+03  0.43528788221E+03  0.51100000000E-03 0. -1.
     200002    1    4    4    0    0  0.74951156653E+02 -0.22440576286E+02  0.53234113224E+02  0.99272988060E+02  0.30000000000E+02 0. -1.
     200000    1    3    3    0    0 -0.59195796483E+02 -0.50178318151E+01 -0.19443917677E+03  0.22701743197E+03  0.10100000000E+03 0. -1.
    -200001    1    1    2    0    0 -0.27233109772E+03  0.36006574676E+03  0.50293532815E+03  0.91242781253E+03  0.61300000000E+03 0.  1.
<mgrwt>
<rscale>  0 0.16049581E+04</rscale>
<asrwt>0</asrwt>
<pdfrwt beam="1">  1        2 0.15355911E+00 0.16049581E+04</pdfrwt>
<pdfrwt beam="2">  1       -2 0.85584622E-01 0.16049581E+04</pdfrwt>
<totfact> 0.28823930E+01</totfact>
</mgrwt>
</event>
<event>
 8    1  0.7326756E-052  0.1543774E+04  0.7818608E-02  0.8855855E-01
         -2   -1    0    0    0  501 -0.00000000000E+00  0.00000000000E+00  0.12240890643E+03  0.12240890646E+03  0.25500000000E-02 0. -1.
          2   -1    0    0  501    0  0.00000000000E+00 -0.00000000000E+00 -0.48673687682E+04  0.48673687682E+04  0.25500000000E-02 0.  1.
     200001    2    1    2    0    0  0.43530026343E+03 -0.32170699877E+02 -0.29087529274E+04  0.30053517679E+04  0.61706918850E+03 0.  0.
    5000001    2    3    3    0    0  0.46683778084E+03 -0.21924511326E+03 -0.18041535194E+04  0.18800374549E+04  0.11646878059E+03 0.  0.
        -11    1    4    4    0    0  0.31508494530E+03 -0.91454016743E+02 -0.11245266446E+04  0.11714104892E+04  0.51100000000E-03 0. -1.
     200002    1    4    4    0    0  0.15175283554E+03 -0.12779109652E+03 -0.67962687489E+03  0.70862696570E+03  0.30000000000E+02 0. -1.
     200000    1    3    3    0    0 -0.31537517408E+02  0.18707441338E+03 -0.11045994079E+04  0.11253143130E+04  0.10100000000E+03 0. -1.
    -200001    1    1    2    0    0 -0.43530026343E+03  0.32170699877E+02 -0.18362069344E+04  0.19844259067E+04  0.61300000000E+03 0. -1.
<mgrwt>
<rscale>  0 0.15437737E+04</rscale>
<asrwt>0</asrwt>
<pdfrwt beam="1">  1        2 0.69533828E+00 0.15437737E+04</pdfrwt>
<pdfrwt beam="2">  1       -2 0.17486990E-01 0.15437737E+04</pdfrwt>
<totfact> 0.31732294E+00</totfact>
</mgrwt>
</event>
<event>
 8    1  0.7326756E-052  0.1443926E+04  0.7818608E-02  0.8922622E-01
          2   -1    0    0  501    0  0.00000000000E+00  0.00000000000E+00  0.18495855358E+04  0.18495855358E+04  0.25500000000E-02 0.  1.
         -2   -1    0    0    0  501 -0.00000000000E+00 -0.00000000000E+00 -0.28180929752E+03  0.28180929753E+03  0.25500000000E-02 0. -1.
     200001    2    1    2    0    0  0.39919738899E+02 -0.10614559418E+03  0.24544453500E+03  0.66948149589E+03  0.61245569706E+03 0.  0.
    5000001    2    3    3    0    0  0.13643160675E+03 -0.19971533560E+03  0.37614869069E+03  0.45651573934E+03  0.91755022563E+02 0.  0.
        -11    1    4    4    0    0  0.85332805887E+02 -0.16799173052E+03  0.30604422916E+03  0.35939668820E+03  0.51100000000E-03 0. -1.
     200002    1    4    4    0    0  0.51098800865E+02 -0.31723605074E+02  0.70104461525E+02  0.97119051140E+02  0.30000000000E+02 0.  1.
     200000    1    3    3    0    0 -0.96511867853E+02  0.93569741419E+02 -0.13070415569E+03  0.21296575654E+03  0.10100000000E+03 0. -1.
    -200001    1    1    2    0    0 -0.39919738899E+02  0.10614559418E+03  0.13223317033E+04  0.14619133375E+04  0.61300000000E+03 0.  1.
<mgrwt>
<rscale>  0 0.14439258E+04</rscale>
<asrwt>0</asrwt>
<pdfrwt beam="1">  1        2 0.26422650E+00 0.14439258E+04</pdfrwt>
<pdfrwt beam="2">  1       -2 0.40258472E-01 0.14439258E+04</pdfrwt>
<totfact> 0.54408252E+01</totfact>
</mgrwt>
</event>
<event>
 8    1  0.7326756E-052  0.1581057E+04  0.7818608E-02  0.8832271E-01
         -2   -1    0    0    0  501 -0.00000000000E+00  0.00000000000E+00  0.39428890017E+03  0.39428890018E+03  0.25500000000E-02 0. -1.
          2   -1    0    0  501    0  0.00000000000E+00 -0.00000000000E+00 -0.15849676396E+04  0.15849676396E+04  0.25500000000E-02 0.  1.
     200001    2    1    2    0    0  0.12811631004E+03 -0.42021312147E+03 -0.29545793002E+03  0.80870873899E+03  0.61132771878E+03 0.  0.
    5000001    2    3    3    0    0  0.20177617322E+03 -0.13327255809E+03 -0.40509367586E+03  0.47707391101E+03  0.70876170397E+02 0.  0.
        -11    1    4    4    0    0  0.15831822740E+02 -0.37384365640E+02 -0.62253604029E+02  0.74321925570E+02  0.51100000000E-03 0. -1.
     200002    1    4    4    0    0  0.18594435048E+03 -0.95888192447E+02 -0.34284007183E+03  0.40275198544E+03  0.30000000000E+02 0. -1.
     200000    1    3    3    0    0 -0.73659863182E+02 -0.28694056338E+03  0.10963574584E+03  0.33163482797E+03  0.10100000000E+03 0. -1.
    -200001    1    1    2    0    0 -0.12811631004E+03  0.42021312147E+03 -0.89522080941E+03  0.11705478008E+04  0.61300000000E+03 0.  1.
<mgrwt>
<rscale>  0 0.15810568E+04</rscale>
<asrwt>0</asrwt>
<pdfrwt beam="1">  1        2 0.22642395E+00 0.15810568E+04</pdfrwt>
<pdfrwt beam="2">  1       -2 0.56326986E-01 0.15810568E+04</pdfrwt>
<totfact> 0.37502328E+01</totfact>
</mgrwt>
</event>
<event>
 8    1  0.7326756E-052  0.1376451E+04  0.7818608E-02  0.8971043E-01
         -2   -1    0    0    0  501 -0.00000000000E+00  0.00000000000E+00  0.13098106538E+03  0.13098106541E+03  0.25500000000E-02 0. -1.
          2   -1    0    0  501    0  0.00000000000E+00 -0.00000000000E+00 -0.36162050025E+04  0.36162050025E+04  0.25500000000E-02 0.  1.
     200001    2    1    2    0    0  0.25489434625E+03 -0.12756277642E+03 -0.14016444324E+04  0.15566802035E+04  0.61433114142E+03 0.  0.
    5000001    2    3    3    0    0  0.33473630858E+03  0.14050689495E+03 -0.80168204009E+03  0.88705944524E+03  0.11130939846E+03 0.  0.
        -11    1    4    4    0    0  0.18895376998E+03  0.12368171206E+03 -0.54388114853E+03  0.58890355476E+03  0.51100000000E-03 0. -1.
     200002    1    4    4    0    0  0.14578253860E+03  0.16825182893E+02 -0.25780089156E+03  0.29815589048E+03  0.30000000000E+02 0. -1.
     200000    1    3    3    0    0 -0.79841962331E+02 -0.26806967137E+03 -0.59996239233E+03  0.66962075824E+03  0.10100000000E+03 0.  1.
    -200001    1    1    2    0    0 -0.25489434625E+03  0.12756277642E+03 -0.20835795047E+04  0.21905058644E+04  0.61300000000E+03 0.  1.
<mgrwt>
<rscale>  0 0.13764511E+04</rscale>
<asrwt>0</asrwt>
<pdfrwt beam="1">  1        2 0.51660065E+00 0.13764511E+04</pdfrwt>
<pdfrwt beam="2">  1       -2 0.18711583E-01 0.13764511E+04</pdfrwt>
<totfact> 0.24246982E+01</totfact>
</mgrwt>
</event>
<event>
 8    1  0.7326756E-052  0.3000052E+04  0.7818608E-02  0.8243716E-01
          2   -1    0    0  501    0  0.00000000000E+00  0.00000000000E+00  0.39168807397E+04  0.39168807397E+04  0.25500000000E-02 0.  1.
         -2   -1    0    0    0  501 -0.00000000000E+00 -0.00000000000E+00 -0.57445650380E+03  0.57445650381E+03  0.25500000000E-02 0. -1.
     200001    2    1    2    0    0  0.40745042907E+03 -0.12758256673E+04  0.20962501328E+04  0.25619679474E+04  0.61291774239E+03 0.  0.
    5000001    2    3    3    0    0  0.49522797923E+03 -0.61047229887E+03  0.10330844829E+04  0.13006503022E+04  0.80625557776E+02 0.  0.
        -11    1    4    4    0    0  0.28138090910E+03 -0.30554625582E+03  0.50813945862E+03  0.65630742785E+03  0.51100000000E-03 0. -1.
     200002    1    4    4    0    0  0.21384707013E+03 -0.30492604304E+03  0.52494502430E+03  0.64434287431E+03  0.30000000000E+02 0. -1.
     200000    1    3    3    0    0 -0.87777550160E+02 -0.66535336841E+03  0.10631656499E+04  0.12613176453E+04  0.10100000000E+03 0.  1.
    -200001    1    1    2    0    0 -0.40745042907E+03  0.12758256673E+04  0.12461741031E+04  0.19293692961E+04  0.61300000000E+03 0. -1.
<mgrwt>
<rscale>  0 0.30000517E+04</rscale>
<asrwt>0</asrwt>
<pdfrwt beam="1">  1        2 0.55955440E+00 0.30000517E+04</pdfrwt>
<pdfrwt beam="2">  1       -2 0.82065214E-01 0.30000517E+04</pdfrwt>
<totfact> 0.72895949E-01</totfact>
</mgrwt>
</event>
<event>
 8    1  0.7326756E-052  0.1527168E+04  0.7818608E-02  0.8866585E-01
          2   -1    0    0  501    0  0.00000000000E+00  0.00000000000E+00  0.19705438547E+04  0.19705438547E+04  0.25500000000E-02 0.  1.
         -2   -1    0    0    0  501 -0.00000000000E+00 -0.00000000000E+00 -0.29588821025E+03  0.29588821026E+03  0.25500000000E-02 0. -1.
     200001    2    1    2    0    0 -0.18039898869E+03  0.29424853127E+03  0.39636219649E+03  0.80734703236E+03  0.61284602192E+03 0.  0.
    5000001    2    3    3    0    0 -0.28985293909E+03 -0.23929757023E+02  0.33468254392E+03  0.45066374156E+03  0.80610440861E+02 0.  0.
        -11    1    4    4    0    0 -0.55342848733E+02  0.43967135409E+01  0.27366472973E+02  0.61895765923E+02  0.51100000000E-03 0. -1.
     200002    1    4    4    0    0 -0.23451009035E+03 -0.28326470564E+02  0.30731607095E+03  0.38876797563E+03  0.30000000000E+02 0. -1.
     200000    1    3    3    0    0  0.10945395039E+03  0.31817828830E+03  0.61679652562E+02  0.35668329081E+03  0.10100000000E+03 0. -1.
    -200001    1    1    2    0    0  0.18039898869E+03 -0.29424853127E+03  0.12782934480E+04  0.14590850326E+04  0.61300000000E+03 0. -1.
<mgrwt>
<rscale>  0 0.15271682E+04</rscale>
<asrwt>0</asrwt>
<pdfrwt beam="1">  1        2 0.28150625E+00 0.15271682E+04</pdfrwt>
<pdfrwt beam="2">  1       -2 0.42269746E-01 0.15271682E+04</pdfrwt>
<totfact> 0.42562205E+01</totfact>
</mgrwt>
</event>
<event>
 8    1  0.7326756E-052  0.1378917E+04  0.7818608E-02  0.8969222E-01
         -2   -1    0    0    0  501 -0.00000000000E+00  0.00000000000E+00  0.48001326940E+03  0.48001326940E+03  0.25500000000E-02 0. -1.
          2   -1    0    0  501    0  0.00000000000E+00 -0.00000000000E+00 -0.99029213087E+03  0.99029213087E+03  0.25500000000E-02 0.  1.
     200001    2    1    2    0    0 -0.26553115455E+03  0.13993646761E+03 -0.15081262221E+03  0.69889501263E+03  0.61287909301E+03 0.  0.
    5000001    2    3    3    0    0 -0.63428527782E+02 -0.15307105812E+03 -0.26160254958E+03  0.31266413622E+03  0.43232408684E+02 0.  0.
        -11    1    4    4    0    0  0.33770938144E+01 -0.64387740073E+01 -0.12963453912E+02  0.14863166249E+02  0.51100000000E-03 0. -1.
     200002    1    4    4    0    0 -0.66805621596E+02 -0.14663228411E+03 -0.24863909567E+03  0.29780096997E+03  0.30000000000E+02 0. -1.
     200000    1    3    3    0    0 -0.20210262677E+03  0.29300752573E+03  0.11078992737E+03  0.38623087641E+03  0.10100000000E+03 0. -1.
    -200001    1    1    2    0    0  0.26553115455E+03 -0.13993646761E+03 -0.35946623926E+03  0.77141038765E+03  0.61300000000E+03 0.  1.
<mgrwt>
<rscale>  0 0.13789175E+04</rscale>
<asrwt>0</asrwt>
<pdfrwt beam="1">  1        2 0.14147030E+00 0.13789175E+04</pdfrwt>
<pdfrwt beam="2">  1       -2 0.68573325E-01 0.13789175E+04</pdfrwt>
<totfact> 0.54053734E+01</totfact>
</mgrwt>
</event>
<event>
 8    1  0.7326756E-052  0.1449059E+04  0.7818608E-02  0.8919053E-01
          2   -1    0    0  501    0  0.00000000000E+00  0.00000000000E+00  0.16740353359E+04  0.16740353359E+04  0.25500000000E-02 0.  1.
         -2   -1    0    0    0  501 -0.00000000000E+00 -0.00000000000E+00 -0.31357957133E+03  0.31357957134E+03  0.25500000000E-02 0. -1.
     200001    2    1    2    0    0  0.72465995419E+02  0.35956503026E+03  0.84622600301E+03  0.11074219857E+04  0.61298178989E+03 0.  0.
    5000001    2    3    3    0    0  0.99302980649E+02  0.36612880560E+03  0.90616042560E+03  0.98677190515E+03  0.93170229282E+02 0.  0.
        -11    1    4    4    0    0  0.67210696604E+02  0.26507522217E+03  0.72341236230E+03  0.77337416369E+03  0.51100000000E-03 0. -1.
     200002    1    4    4    0    0  0.32092284044E+02  0.10105358343E+03  0.18274806330E+03  0.21339774146E+03  0.30000000000E+02 0.  1.
     200000    1    3    3    0    0 -0.26836985230E+02 -0.65637753415E+01 -0.59934422585E+02  0.12065008054E+03  0.10100000000E+03 0. -1.
    -200001    1    1    2    0    0 -0.72465995419E+02 -0.35956503026E+03  0.51422976157E+03  0.88019292156E+03  0.61300000000E+03 0.  1.
<mgrwt>
<rscale>  0 0.14490594E+04</rscale>
<asrwt>0</asrwt>
<pdfrwt beam="1">  1        2 0.23914790E+00 0.14490594E+04</pdfrwt>
<pdfrwt beam="2">  1       -2 0.44797083E-01 0.14490594E+04</pdfrwt>
<totfact> 0.54287891E+01</totfact>
</mgrwt>
</event>
<event>
 8    1  0.7326756E-052  0.1650060E+04  0.7818608E-02  0.8790371E-01
          2   -1    0    0  501    0  0.00000000000E+00  0.00000000000E+00  0.25906956702E+04  0.25906956702E+04  0.25500000000E-02 0. -1.
         -2   -1    0    0    0  501 -0.00000000000E+00 -0.00000000000E+00 -0.26273819385E+03  0.26273819386E+03  0.25500000000E-02 0.  1.
     200001    2    1    2    0    0 -0.44909253198E+03 -0.21952772698E+03  0.15661480952E+04  0.17552539797E+04  0.61499605849E+03 0.  0.
    5000001    2    3    3    0    0 -0.15077537955E+03 -0.26534705600E+03  0.28974681099E+03  0.43977164508E+03  0.12768559095E+03 0.  0.
        -11    1    4    4    0    0 -0.12524716479E+03 -0.25117805188E+03  0.21297747788E+03  0.35233034516E+03  0.51100000000E-03 0. -1.
     200002    1    4    4    0    0 -0.25528214758E+02 -0.14169004115E+02  0.76769333110E+02  0.87441299924E+02  0.30000000000E+02 0. -1.
     200000    1    3    3    0    0 -0.29831715243E+03  0.45819329021E+02  0.12764012842E+04  0.13154823346E+04  0.10100000000E+03 0. -1.
    -200001    1    1    2    0    0  0.44909253198E+03  0.21952772698E+03  0.76180938111E+03  0.10981798843E+04  0.61300000000E+03 0.  1.
<mgrwt>
<rscale>  0 0.16500602E+04</rscale>
<asrwt>0</asrwt>
<pdfrwt beam="1">  1        2 0.37009938E+00 0.16500602E+04</pdfrwt>
<pdfrwt beam="2">  1       -2 0.37534028E-01 0.16500602E+04</pdfrwt>
<totfact> 0.25320541E+01</totfact>
</mgrwt>
</event>
<event>
 8    1  0.7326756E-052  0.1301277E+04  0.7818608E-02  0.9028553E-01
         -2   -1    0    0    0  501 -0.00000000000E+00  0.00000000000E+00  0.25268567992E+03  0.25268567993E+03  0.25500000000E-02 0. -1.
          2   -1    0    0  501    0  0.00000000000E+00 -0.00000000000E+00 -0.16753249294E+04  0.16753249294E+04  0.25500000000E-02 0.  1.
     200001    2    1    2    0    0 -0.16440701230E+03  0.11473562708E+03 -0.58596147531E+03  0.87160508700E+03  0.61331121571E+03 0.  0.
    5000001    2    3    3    0    0 -0.32928997809E+03  0.18392044197E+03 -0.52883617620E+03  0.65844498093E+03  0.10781221179E+03 0.  0.
        -11    1    4    4    0    0 -0.11575710509E+02  0.85545256397E+01  0.21935159820E+01  0.14559824702E+02  0.51100000000E-03 0. -1.
     200002    1    4    4    0    0 -0.31771426758E+03  0.17536591633E+03 -0.53102969218E+03  0.64388515623E+03  0.30000000000E+02 0. -1.
     200000    1    3    3    0    0  0.16488296579E+03 -0.69184814884E+02 -0.57125299111E+02  0.21316010606E+03  0.10100000000E+03 0. -1.
    -200001    1    1    2    0    0  0.16440701230E+03 -0.11473562708E+03 -0.83667777414E+03  0.10564055223E+04  0.61300000000E+03 0.  1.
<mgrwt>
<rscale>  0 0.13012772E+04</rscale>
<asrwt>0</asrwt>
<pdfrwt beam="1">  1        2 0.23933213E+00 0.13012772E+04</pdfrwt>
<pdfrwt beam="2">  1       -2 0.36097955E-01 0.13012772E+04</pdfrwt>
<totfact> 0.83600472E+01</totfact>
</mgrwt>
</event>
<event>
 8    1  0.7326756E-052  0.1231984E+04  0.7818608E-02  0.9085312E-01
         -2   -1    0    0    0  501 -0.00000000000E+00  0.00000000000E+00  0.15447410361E+03  0.15447410363E+03  0.25500000000E-02 0.  1.
          2   -1    0    0  501    0  0.00000000000E+00 -0.00000000000E+00 -0.24563754019E+04  0.24563754019E+04  0.25500000000E-02 0. -1.
     200001    2    1    2    0    0  0.60105885649E+02 -0.74057256573E+01 -0.11497752168E+04  0.13043920551E+04  0.61301551518E+03 0.  0.
    5000001    2    3    3    0    0  0.17511585506E+03 -0.15390372330E+03 -0.10306385440E+04  0.10613210712E+04  0.99170000801E+02 0.  0.
        -11    1    4    4    0    0  0.16140972106E+03 -0.14816032101E+03 -0.91990125054E+03  0.94563359157E+03  0.51100000000E-03 0. -1.
     200002    1    4    4    0    0  0.13706134001E+02 -0.57434022929E+01 -0.11073729350E+03  0.11568747966E+03  0.30000000000E+02 0.  1.
     200000    1    3    3    0    0 -0.11500996941E+03  0.14649799765E+03 -0.11913667279E+03  0.24307098384E+03  0.10100000000E+03 0. -1.
    -200001    1    1    2    0    0 -0.60105885649E+02  0.74057256573E+01 -0.11521260815E+04  0.13064574505E+04  0.61300000000E+03 0.  1.
<mgrwt>
<rscale>  0 0.12319844E+04</rscale>
<asrwt>0</asrwt>
<pdfrwt beam="1">  1        2 0.35091075E+00 0.12319844E+04</pdfrwt>
<pdfrwt beam="2">  1       -2 0.22067731E-01 0.12319844E+04</pdfrwt>
<totfact> 0.82505672E+01</totfact>
</mgrwt>
</event>
<event>
 8    1  0.7326756E-052  0.1364215E+04  0.7818608E-02  0.8980137E-01
         -2   -1    0    0    0  501 -0.00000000000E+00  0.00000000000E+00  0.26926801145E+03  0.26926801146E+03  0.25500000000E-02 0. -1.
          2   -1    0    0  501    0  0.00000000000E+00 -0.00000000000E+00 -0.17279098615E+04  0.17279098615E+04  0.25500000000E-02 0.  1.
     200001    2    1    2    0    0  0.14779541732E+03 -0.21321058921E+03 -0.51113577050E+03  0.83923184160E+03  0.61298292582E+03 0.  0.
    5000001    2    3    3    0    0  0.61938056309E+02 -0.14051201036E+03 -0.61815830647E+03  0.65399849414E+03  0.14837247252E+03 0.  0.
        -11    1    4    4    0    0  0.75772115570E+02 -0.13699835587E+03 -0.34540003484E+03  0.37922440201E+03  0.51100000000E-03 0. -1.
     200002    1    4    4    0    0 -0.13834059261E+02 -0.35136544868E+01 -0.27275827163E+03  0.27477409213E+03  0.30000000000E+02 0. -1.
     200000    1    3    3    0    0  0.85857361009E+02 -0.72698578850E+02  0.10702253597E+03  0.18523334746E+03  0.10100000000E+03 0. -1.
    -200001    1    1    2    0    0 -0.14779541732E+03  0.21321058921E+03 -0.94750607953E+03  0.11579460313E+04  0.61300000000E+03 0.  1.
<mgrwt>
<rscale>  0 0.13642153E+04</rscale>
<asrwt>0</asrwt>
<pdfrwt beam="1">  1        2 0.24684426E+00 0.13642153E+04</pdfrwt>
<pdfrwt beam="2">  1       -2 0.38466860E-01 0.13642153E+04</pdfrwt>
<totfact> 0.69125959E+01</totfact>
</mgrwt>
</event>
<event>
 8    1  0.7326756E-052  0.1584015E+04  0.7818608E-02  0.8830429E-01
         -2   -1    0    0    0  501 -0.00000000000E+00  0.00000000000E+00  0.32251637900E+03  0.32251637901E+03  0.25500000000E-02 0. -1.
          2   -1    0    0  501    0  0.00000000000E+00 -0.00000000000E+00 -0.19449432140E+04  0.19449432140E+04  0.25500000000E-02 0.  1.
     200001    2    1    2    0    0  0.34642958497E+03 -0.32751480662E+01 -0.13355576192E+04  0.15071391797E+04  0.60640759299E+03 0.  0.
    5000001    2    3    3    0    0 -0.88123597444E+02 -0.18704262850E+02 -0.80044439925E+03  0.81027356561E+03  0.87843024592E+02 0.  0.
        -11    1    4    4    0    0 -0.37660859683E+02 -0.46420983111E+02 -0.32992688885E+03  0.33529837461E+03  0.51100000000E-03 0. -1.
     200002    1    4    4    0    0 -0.50462737761E+02  0.27716720261E+02 -0.47051751039E+03  0.47497519100E+03  0.30000000000E+02 0. -1.
     200000    1    3    3    0    0  0.43455318242E+03  0.15429114784E+02 -0.53511321998E+03  0.69686561411E+03  0.10100000000E+03 0. -1.
    -200001    1    1    2    0    0 -0.34642958497E+03  0.32751480662E+01 -0.28686921580E+03  0.76032041332E+03  0.61300000000E+03 0. -1.
<mgrwt>
<rscale>  0 0.15840152E+04</rscale>
<asrwt>0</asrwt>
<pdfrwt beam="1">  1        2 0.27784902E+00 0.15840152E+04</pdfrwt>
<pdfrwt beam="2">  1       -2 0.46073770E-01 0.15840152E+04</pdfrwt>
<totfact> 0.36794931E+01</totfact>
</mgrwt>
</event>
<event>
 8    1  0.7326756E-052  0.1365400E+04  0.7818608E-02  0.8979252E-01
          2   -1    0    0  501    0  0.00000000000E+00  0.00000000000E+00  0.11455784941E+04  0.11455784941E+04  0.25500000000E-02 0.  1.
         -2   -1    0    0    0  501 -0.00000000000E+00 -0.00000000000E+00 -0.40685058274E+03  0.40685058274E+03  0.25500000000E-02 0. -1.
     200001    2    1    2    0    0  0.36053295520E+02 -0.19477446248E+03  0.62624139691E+03  0.89847254368E+03  0.61305602777E+03 0.  0.
    5000001    2    3    3    0    0  0.23017502008E+03  0.10666160907E+03  0.30332999500E+03  0.40550223761E+03  0.89809465632E+02 0.  0.
        -11    1    4    4    0    0  0.84561092443E+02  0.78271090383E+02  0.10400303132E+03  0.15522104390E+03  0.51100000000E-03 0. -1.
     200002    1    4    4    0    0  0.14561392764E+03  0.28390518692E+02  0.19932696368E+03  0.25028119371E+03  0.30000000000E+02 0. -1.
     200000    1    3    3    0    0 -0.19412172456E+03 -0.30143607156E+03  0.32291140191E+03  0.49297030607E+03  0.10100000000E+03 0.  1.
    -200001    1    1    2    0    0 -0.36053295520E+02  0.19477446248E+03  0.11248651447E+03  0.65395653318E+03  0.61300000000E+03 0. -1.
<mgrwt>
<rscale>  0 0.13654000E+04</rscale>
<asrwt>0</asrwt>
<pdfrwt beam="1">  1        2 0.16365407E+00 0.13654000E+04</pdfrwt>
<pdfrwt beam="2">  1       -2 0.58121512E-01 0.13654000E+04</pdfrwt>
<totfact> 0.62145986E+01</totfact>
</mgrwt>
</event>
<event>
 8    1  0.7326756E-052  0.1364898E+04  0.7818608E-02  0.8979626E-01
         -2   -1    0    0    0  501 -0.00000000000E+00  0.00000000000E+00  0.24244863080E+03  0.24244863082E+03  0.25500000000E-02 0. -1.
          2   -1    0    0  501    0  0.00000000000E+00 -0.00000000000E+00 -0.19209711565E+04  0.19209711565E+04  0.25500000000E-02 0.  1.
     200001    2    1    2    0    0 -0.24594940880E+03  0.15750361149E+03 -0.73393171204E+03  0.10000972591E+04  0.61338427636E+03 0.  0.
    5000001    2    3    3    0    0 -0.29493891284E+03  0.19541824116E+03 -0.13464686224E+03  0.38921198199E+03  0.90437481873E+02 0.  0.
        -11    1    4    4    0    0 -0.51990848045E+02  0.71757016925E+02 -0.52144943829E+02  0.10281640397E+03  0.51100000000E-03 0. -1.
     200002    1    4    4    0    0 -0.24294806479E+03  0.12366122423E+03 -0.82501918413E+02  0.28639557802E+03  0.30000000000E+02 0. -1.
     200000    1    3    3    0    0  0.48989504035E+02 -0.37914629666E+02 -0.59928484980E+03  0.61088527716E+03  0.10100000000E+03 0.  1.
    -200001    1    1    2    0    0  0.24594940880E+03 -0.15750361149E+03 -0.94459081366E+03  0.11633225282E+04  0.61300000000E+03 0.  1.
<mgrwt>
<rscale>  0 0.13648983E+04</rscale>
<asrwt>0</asrwt>
<pdfrwt beam="1">  1        2 0.27442444E+00 0.13648983E+04</pdfrwt>
<pdfrwt beam="2">  1       -2 0.34635520E-01 0.13648983E+04</pdfrwt>
<totfact> 0.67253436E+01</totfact>
</mgrwt>
</event>
<event>
 8    1  0.7326756E-052  0.1492398E+04  0.7818608E-02  0.8889524E-01
          2   -1    0    0  501    0  0.00000000000E+00  0.00000000000E+00  0.78426077232E+03  0.78426077232E+03  0.25500000000E-02 0.  1.
         -2   -1    0    0    0  501 -0.00000000000E+00 -0.00000000000E+00 -0.70998479166E+03  0.70998479166E+03  0.25500000000E-02 0. -1.
     200001    2    1    2    0    0 -0.36776133763E+03  0.15820035312E+03 -0.10648148913E+03  0.74011161298E+03  0.61331161652E+03 0.  0.
    5000001    2    3    3    0    0 -0.34850428873E+03  0.20873663721E+03  0.16410774106E+03  0.44626763833E+03  0.84836497856E+02 0.  0.
        -11    1    4    4    0    0 -0.77055234034E+02  0.37651754284E+02  0.69543514397E+02  0.11041496315E+03  0.51100000000E-03 0. -1.
     200002    1    4    4    0    0 -0.27144905470E+03  0.17108488292E+03  0.94564226664E+02  0.33585267518E+03  0.30000000000E+02 0.  1.
     200000    1    3    3    0    0 -0.19257048895E+02 -0.50536284087E+02 -0.27058923019E+03  0.29384397465E+03  0.10100000000E+03 0. -1.
    -200001    1    1    2    0    0  0.36776133763E+03 -0.15820035312E+03  0.18075746979E+03  0.75413395101E+03  0.61300000000E+03 0.  1.
<mgrwt>
<rscale>  0 0.14923984E+04</rscale>
<asrwt>0</asrwt>
<pdfrwt beam="1">  1        2 0.11203725E+00 0.14923984E+04</pdfrwt>
<pdfrwt beam="2">  1       -2 0.10142640E+00 0.14923984E+04</pdfrwt>
<totfact> 0.30173260E+01</totfact>
</mgrwt>
</event>
<event>
 8    1  0.7326756E-052  0.1416512E+04  0.7818608E-02  0.8941952E-01
         -2   -1    0    0    0  501 -0.00000000000E+00  0.00000000000E+00  0.22469014239E+03  0.22469014241E+03  0.25500000000E-02 0. -1.
          2   -1    0    0  501    0  0.00000000000E+00 -0.00000000000E+00 -0.22325272307E+04  0.22325272307E+04  0.25500000000E-02 0.  1.
     200001    2    1    2    0    0  0.27773813993E+03 -0.78255063662E+02 -0.13619250097E+04  0.15211437955E+04  0.61300602384E+03 0.  0.
    5000001    2    3    3    0    0  0.16197606172E+03 -0.25208850550E+03 -0.64343851126E+03  0.76613202562E+03  0.28837528281E+03 0.  0.
        -11    1    4    4    0    0  0.13870949418E+03 -0.25862336624E+03 -0.66143107439E+03  0.72361414823E+03  0.51100000000E-03 0. -1.
     200002    1    4    4    0    0  0.23266567543E+02  0.65348607354E+01  0.17992563136E+02  0.42517877396E+02  0.30000000000E+02 0. -1.
     200000    1    3    3    0    0  0.11576207821E+03  0.17383344184E+03 -0.71848649845E+03  0.75501176992E+03  0.10100000000E+03 0. -1.
    -200001    1    1    2    0    0 -0.27773813993E+03  0.78255063662E+02 -0.64591207861E+03  0.93607357759E+03  0.61300000000E+03 0. -1.
<mgrwt>
<rscale>  0 0.14165124E+04</rscale>
<asrwt>0</asrwt>
<pdfrwt beam="1">  1        2 0.31893245E+00 0.14165124E+04</pdfrwt>
<pdfrwt beam="2">  1       -2 0.32098593E-01 0.14165124E+04</pdfrwt>
<totfact> 0.53510414E+01</totfact>
</mgrwt>
</event>
<event>
 8    1  0.7326756E-052  0.1476913E+04  0.7818608E-02  0.8899953E-01
         -2   -1    0    0    0  501 -0.00000000000E+00  0.00000000000E+00  0.29301583786E+03  0.29301583788E+03  0.25500000000E-02 0. -1.
          2   -1    0    0  501    0  0.00000000000E+00 -0.00000000000E+00 -0.18610518825E+04  0.18610518825E+04  0.25500000000E-02 0.  1.
     200001    2    1    2    0    0  0.46448380192E+02 -0.28723576433E+03 -0.36125729628E+03  0.76960183643E+03  0.61409959795E+03 0.  0.
    5000001    2    3    3    0    0  0.13199364277E+03 -0.42391824262E+03 -0.35499632248E+03  0.57923300596E+03  0.11117323444E+03 0.  0.
        -11    1    4    4    0    0  0.28918166628E+02 -0.17018195012E+03 -0.19582564452E+03  0.26104758103E+03  0.51100000000E-03 0. -1.
     200002    1    4    4    0    0  0.10307547615E+03 -0.25373629250E+03 -0.15917067795E+03  0.31818542493E+03  0.30000000000E+02 0.  1.
     200000    1    3    3    0    0 -0.85545262582E+02  0.13668247830E+03 -0.62609737975E+01  0.19036883048E+03  0.10100000000E+03 0.  1.
    -200001    1    1    2    0    0 -0.46448380192E+02  0.28723576433E+03 -0.12067787484E+04  0.13844658840E+04  0.61300000000E+03 0.  1.
<mgrwt>
<rscale>  0 0.14769126E+04</rscale>
<asrwt>0</asrwt>
<pdfrwt beam="1">  1        2 0.26586455E+00 0.14769126E+04</pdfrwt>
<pdfrwt beam="2">  1       -2 0.41859406E-01 0.14769126E+04</pdfrwt>
<totfact> 0.49590976E+01</totfact>
</mgrwt>
</event>
<event>
 8    1  0.7326756E-052  0.1396414E+04  0.7818608E-02  0.8956418E-01
         -2   -1    0    0    0  501 -0.00000000000E+00  0.00000000000E+00  0.24127612315E+03  0.24127612317E+03  0.25500000000E-02 0. -1.
          2   -1    0    0  501    0  0.00000000000E+00 -0.00000000000E+00 -0.20204781197E+04  0.20204781197E+04  0.25500000000E-02 0.  1.
     200001    2    1    2    0    0 -0.35388313135E+02 -0.12486611673E+03 -0.13880549646E+04  0.15231008191E+04  0.61342940957E+03 0.  0.
    5000001    2    3    3    0    0  0.14465803716E+03 -0.10469482037E+03 -0.10552477886E+03  0.22390558865E+03  0.84328408885E+02 0.  0.
        -11    1    4    4    0    0  0.37600607480E+02 -0.70937032559E+02 -0.54283366827E+02  0.96915180366E+02  0.51100000000E-03 0. -1.
     200002    1    4    4    0    0  0.10705742968E+03 -0.33757787816E+02 -0.51241412037E+02  0.12699040828E+03  0.30000000000E+02 0. -1.
     200000    1    3    3    0    0 -0.18004635029E+03 -0.20171296351E+02 -0.12825301858E+04  0.12991952305E+04  0.10100000000E+03 0.  1.
    -200001    1    1    2    0    0  0.35388313135E+02  0.12486611673E+03 -0.39114703186E+03  0.73865342370E+03  0.61300000000E+03 0. -1.
<mgrwt>
<rscale>  0 0.13964142E+04</rscale>
<asrwt>0</asrwt>
<pdfrwt beam="1">  1        2 0.28863972E+00 0.13964142E+04</pdfrwt>
<pdfrwt beam="2">  1       -2 0.34468019E-01 0.13964142E+04</pdfrwt>
<totfact> 0.60199759E+01</totfact>
</mgrwt>
</event>
<event>
 8    1  0.7326756E-052  0.1252148E+04  0.7818608E-02  0.9068398E-01
          2   -1    0    0  501    0  0.00000000000E+00  0.00000000000E+00  0.48831867434E+03  0.48831867435E+03  0.25500000000E-02 0.  1.
         -2   -1    0    0    0  501 -0.00000000000E+00 -0.00000000000E+00 -0.80269002948E+03  0.80269002948E+03  0.25500000000E-02 0. -1.
     200001    2    1    2    0    0  0.47777561043E+02  0.11088244449E+03 -0.16747438436E+03  0.64919460936E+03  0.61549034076E+03 0.  0.
    5000001    2    3    3    0    0  0.77068262476E+01  0.22635817786E+02  0.22368464389E+03  0.23374362995E+03  0.63478257776E+02 0.  0.
        -11    1    4    4    0    0 -0.77457052700E+01  0.31856042875E+02  0.10308209386E+03  0.10816987332E+03  0.51100000000E-03 0. -1.
     200002    1    4    4    0    0  0.15452531518E+02 -0.92202250893E+01  0.12060255003E+03  0.12557375663E+03  0.30000000000E+02 0.  1.
     200000    1    3    3    0    0  0.40070734795E+02  0.88246626707E+02 -0.39115902825E+03  0.41545097941E+03  0.10100000000E+03 0. -1.
    -200001    1    1    2    0    0 -0.47777561043E+02 -0.11088244449E+03 -0.14689697078E+03  0.64181409447E+03  0.61300000000E+03 0.  1.
<mgrwt>
<rscale>  0 0.12521478E+04</rscale>
<asrwt>0</asrwt>
<pdfrwt beam="1">  1        2 0.69759811E-01 0.12521478E+04</pdfrwt>
<pdfrwt beam="2">  1       -2 0.11467000E+00 0.12521478E+04</pdfrwt>
<totfact> 0.40328090E+01</totfact>
</mgrwt>
</event>
<event>
 8    1  0.7326756E-052  0.1383725E+04  0.7818608E-02  0.8965684E-01
          2   -1    0    0  501    0  0.00000000000E+00  0.00000000000E+00  0.19787521621E+04  0.19787521621E+04  0.25500000000E-02 0.  1.
         -2   -1    0    0    0  501 -0.00000000000E+00 -0.00000000000E+00 -0.24190700295E+03  0.24190700297E+03  0.25500000000E-02 0. -1.
     200001    2    1    2    0    0  0.14036097687E+03 -0.22140660584E+03  0.11647707119E+04  0.13421602965E+04  0.61317319020E+03 0.  0.
    5000001    2    3    3    0    0  0.10629652507E+03 -0.14818115009E+03  0.37692061369E+03  0.54376745364E+03  0.34692548209E+03 0.  0.
        -11    1    4    4    0    0  0.21592052177E+03 -0.72856189902E+02  0.32699079028E+03  0.39856326104E+03  0.51100000000E-03 0. -1.
     200002    1    4    4    0    0 -0.10962399670E+03 -0.75324960190E+02  0.49929823419E+02  0.14520419259E+03  0.30000000000E+02 0. -1.
     200000    1    3    3    0    0  0.34064451803E+02 -0.73225455748E+02  0.78785009821E+03  0.79839284284E+03  0.10100000000E+03 0.  1.
    -200001    1    1    2    0    0 -0.14036097687E+03  0.22140660584E+03  0.57207444726E+03  0.87849886861E+03  0.61300000000E+03 0. -1.
<mgrwt>
<rscale>  0 0.13837254E+04</rscale>
<asrwt>0</asrwt>
<pdfrwt beam="1">  1        2 0.28267891E+00 0.13837254E+04</pdfrwt>
<pdfrwt beam="2">  1       -2 0.34558139E-01 0.13837254E+04</pdfrwt>
<totfact> 0.62990499E+01</totfact>
</mgrwt>
</event>
<event>
 8    1  0.7326756E-052  0.1858729E+04  0.7818608E-02  0.8675677E-01
         -2   -1    0    0    0  501 -0.00000000000E+00  0.00000000000E+00  0.44854155617E+03  0.44854155618E+03  0.25500000000E-02 0. -1.
          2   -1    0    0  501    0  0.00000000000E+00 -0.00000000000E+00 -0.19256156322E+04  0.19256156322E+04  0.25500000000E-02 0.  1.
     200001    2    1    2    0    0 -0.31725490673E+03  0.12983499575E+03 -0.15157316312E+04  0.16707574382E+04  0.61357985419E+03 0.  0.
    5000001    2    3    3    0    0 -0.90076707031E+02 -0.13442126567E+03 -0.11105525878E+04  0.11268710867E+04  0.10162925761E+03 0.  0.
        -11    1    4    4    0    0 -0.36568326151E+01  0.50468432999E+01 -0.26239235659E+03  0.26246636327E+03  0.51100000000E-03 0. -1.
     200002    1    4    4    0    0 -0.86419874416E+02 -0.13946810897E+03 -0.84816023117E+03  0.86440472340E+03  0.30000000000E+02 0. -1.
     200000    1    3    3    0    0 -0.22717819970E+03  0.26425626141E+03 -0.40517904346E+03  0.54388635152E+03  0.10100000000E+03 0. -1.
    -200001    1    1    2    0    0  0.31725490673E+03 -0.12983499575E+03  0.38657555195E+02  0.70339975017E+03  0.61300000000E+03 0. -1.
<mgrwt>
<rscale>  0 0.18587293E+04</rscale>
<asrwt>0</asrwt>
<pdfrwt beam="1">  1        2 0.27508794E+00 0.18587293E+04</pdfrwt>
<pdfrwt beam="2">  1       -2 0.64077366E-01 0.18587293E+04</pdfrwt>
<totfact> 0.18596321E+01</totfact>
</mgrwt>
</event>
<event>
 8    1  0.7326756E-052  0.1382340E+04  0.7818608E-02  0.8966702E-01
          2   -1    0    0  501    0  0.00000000000E+00  0.00000000000E+00  0.20306293305E+04  0.20306293305E+04  0.25500000000E-02 0.  1.
         -2   -1    0    0    0  501 -0.00000000000E+00 -0.00000000000E+00 -0.23525514300E+03  0.23525514301E+03  0.25500000000E-02 0. -1.
     200001    2    1    2    0    0 -0.37588319507E+02  0.23315603280E+03  0.12496768853E+04  0.14118767668E+04  0.61313054873E+03 0.  0.
    5000001    2    3    3    0    0 -0.28335870582E+00  0.21708009242E+03  0.13813965086E+03  0.29502130643E+03  0.14433004294E+03 0.  0.
        -11    1    4    4    0    0 -0.40727435231E+02  0.12210371570E+03  0.11980271394E+02  0.12927323107E+03  0.51100000000E-03 0. -1.
     200002    1    4    4    0    0  0.40444076526E+02  0.94976376716E+02  0.12615937946E+03  0.16574807536E+03  0.30000000000E+02 0. -1.
     200000    1    3    3    0    0 -0.37304960802E+02  0.16075940378E+02  0.11115372344E+04  0.11168554604E+04  0.10100000000E+03 0.  1.
    -200001    1    1    2    0    0  0.37588319507E+02 -0.23315603280E+03  0.54569730224E+03  0.85400770668E+03  0.61300000000E+03 0. -1.
<mgrwt>
<rscale>  0 0.13823400E+04</rscale>
<asrwt>0</asrwt>
<pdfrwt beam="1">  1        2 0.29008990E+00 0.13823400E+04</pdfrwt>
<pdfrwt beam="2">  1       -2 0.33607878E-01 0.13823400E+04</pdfrwt>
<totfact> 0.62476311E+01</totfact>
</mgrwt>
</event>
<event>
 8    1  0.7326756E-052  0.2277559E+04  0.7818608E-02  0.8486822E-01
         -2   -1    0    0    0  501 -0.00000000000E+00  0.00000000000E+00  0.19475759109E+04  0.19475759109E+04  0.25500000000E-02 0. -1.
          2   -1    0    0  501    0  0.00000000000E+00 -0.00000000000E+00 -0.66586271511E+03  0.66586271511E+03  0.25500000000E-02 0.  1.
     200001    2    1    2    0    0  0.51634608491E+03  0.72637583130E+03  0.10495318838E+04  0.15071329316E+04  0.61294157214E+03 0.  0.
    5000001    2    3    3    0    0 -0.40816603075E+02  0.39595809166E+03  0.45109532242E+03  0.61947676987E+03  0.14770129674E+03 0.  0.
        -11    1    4    4    0    0 -0.42336990716E+02  0.37478690357E+03  0.36064232342E+03  0.52184339539E+03  0.51100000000E-03 0. -1.
     200002    1    4    4    0    0  0.15203876404E+01  0.21171188090E+02  0.90452999003E+02  0.97633374480E+02  0.30000000000E+02 0. -1.
     200000    1    3    3    0    0  0.55716268798E+03  0.33041773964E+03  0.59843656135E+03  0.88765616176E+03  0.10100000000E+03 0.  1.
    -200001    1    1    2    0    0 -0.51634608491E+03 -0.72637583130E+03  0.23218131198E+03  0.11063056943E+04  0.61300000000E+03 0.  1.
<mgrwt>
<rscale>  0 0.22775585E+04</rscale>
<asrwt>0</asrwt>
<pdfrwt beam="1">  1        2 0.95123244E-01 0.22775585E+04</pdfrwt>
<pdfrwt beam="2">  1       -2 0.27822513E+00 0.22775585E+04</pdfrwt>
<totfact> 0.18850265E+00</totfact>
</mgrwt>
</event>
<event>
 8    1  0.7326756E-052  0.1920797E+04  0.7818608E-02  0.8644573E-01
         -2   -1    0    0    0  501 -0.00000000000E+00  0.00000000000E+00  0.34800194239E+03  0.34800194240E+03  0.25500000000E-02 0. -1.
          2   -1    0    0  501    0  0.00000000000E+00 -0.00000000000E+00 -0.26504590790E+04  0.26504590790E+04  0.25500000000E-02 0.  1.
     200001    2    1    2    0    0  0.73023571811E+03  0.31169841165E+02 -0.98162428286E+03  0.13691715473E+04  0.61386377162E+03 0.  0.
    5000001    2    3    3    0    0  0.51497069153E+02  0.19389777620E+03 -0.34430142351E+03  0.41862014860E+03  0.12826169669E+03 0.  0.
        -11    1    4    4    0    0  0.83649701020E+02  0.14509423691E+03 -0.28256730288E+03  0.32847205471E+03  0.51100000000E-03 0. -1.
     200002    1    4    4    0    0 -0.32152631867E+02  0.48803539294E+02 -0.61734120623E+02  0.90148093894E+02  0.30000000000E+02 0. -1.
     200000    1    3    3    0    0  0.67873864895E+03 -0.16272793504E+03 -0.63732285936E+03  0.95055139865E+03  0.10100000000E+03 0. -1.
    -200001    1    1    2    0    0 -0.73023571811E+03 -0.31169841165E+02 -0.13208328537E+04  0.16292894741E+04  0.61300000000E+03 0.  1.
<mgrwt>
<rscale>  0 0.19207966E+04</rscale>
<asrwt>0</asrwt>
<pdfrwt beam="1">  1        2 0.37863700E+00 0.19207966E+04</pdfrwt>
<pdfrwt beam="2">  1       -2 0.49714564E-01 0.19207966E+04</pdfrwt>
<totfact> 0.13172862E+01</totfact>
</mgrwt>
</event>
<event>
 8    1  0.7326756E-052  0.1298617E+04  0.7818608E-02  0.9030662E-01
         -2   -1    0    0    0  501 -0.00000000000E+00  0.00000000000E+00  0.17771495648E+03  0.17771495649E+03  0.25500000000E-02 0. -1.
          2   -1    0    0  501    0  0.00000000000E+00 -0.00000000000E+00 -0.23723485354E+04  0.23723485354E+04  0.25500000000E-02 0.  1.
     200001    2    1    2    0    0 -0.14897486140E+03 -0.15328707603E+03 -0.11053623918E+04  0.12820054664E+04  0.61320596996E+03 0.  0.
    5000001    2    3    3    0    0 -0.31922790956E+03 -0.14803107503E+03 -0.98917741602E+03  0.10524108790E+04  0.72643240884E+02 0.  0.
        -11    1    4    4    0    0 -0.68546241341E+02 -0.40313883148E+02 -0.15460250860E+03  0.17385549184E+03  0.51100000000E-03 0. -1.
     200002    1    4    4    0    0 -0.25068166822E+03 -0.10771719188E+03 -0.83457490742E+03  0.87855538715E+03  0.30000000000E+02 0. -1.
     200000    1    3    3    0    0  0.17025304816E+03 -0.52560010021E+01 -0.11618497578E+03  0.22959458737E+03  0.10100000000E+03 0.  1.
    -200001    1    1    2    0    0  0.14897486140E+03  0.15328707603E+03 -0.10892711871E+04  0.12680580255E+04  0.61300000000E+03 0. -1.
<mgrwt>
<rscale>  0 0.12986174E+04</rscale>
<asrwt>0</asrwt>
<pdfrwt beam="1">  1        2 0.33890692E+00 0.12986174E+04</pdfrwt>
<pdfrwt beam="2">  1       -2 0.25387852E-01 0.12986174E+04</pdfrwt>
<totfact> 0.70543042E+01</totfact>
</mgrwt>
</event>
<event>
 8    1  0.7326756E-052  0.1324413E+04  0.7818608E-02  0.9010426E-01
          2   -1    0    0  501    0  0.00000000000E+00  0.00000000000E+00  0.33564016436E+04  0.33564016436E+04  0.25500000000E-02 0.  1.
         -2   -1    0    0    0  501 -0.00000000000E+00 -0.00000000000E+00 -0.13065106837E+03  0.13065106840E+03  0.25500000000E-02 0. -1.
     200001    2    1    2    0    0  0.52646341664E+02  0.20191646236E+02  0.22558544343E+04  0.23382938757E+04  0.61282924240E+03 0.  0.
    5000001    2    3    3    0    0 -0.50808648768E+02  0.31168309523E+02  0.24240880972E+02  0.10197469594E+03  0.79109013354E+02 0.  0.
        -11    1    4    4    0    0 -0.33373074978E+02 -0.18224762801E+02  0.36646781618E+01  0.38201230071E+02  0.51100000000E-03 0. -1.
     200002    1    4    4    0    0 -0.17435573790E+02  0.49393072324E+02  0.20576202810E+02  0.63773465870E+02  0.30000000000E+02 0. -1.
     200000    1    3    3    0    0  0.10345499043E+03 -0.10976663286E+02  0.22316135534E+04  0.22363191798E+04  0.10100000000E+03 0.  1.
    -200001    1    1    2    0    0 -0.52646341664E+02 -0.20191646236E+02  0.96989614091E+03  0.11487588363E+04  0.61300000000E+03 0. -1.
<mgrwt>
<rscale>  0 0.13244130E+04</rscale>
<asrwt>0</asrwt>
<pdfrwt beam="1">  1        2 0.47948599E+00 0.13244130E+04</pdfrwt>
<pdfrwt beam="2">  1       -2 0.18664437E-01 0.13244130E+04</pdfrwt>
<totfact> 0.35143392E+01</totfact>
</mgrwt>
</event>
<event>
 8    1  0.7326756E-052  0.2074599E+04  0.7818608E-02  0.8572516E-01
          2   -1    0    0  501    0  0.00000000000E+00  0.00000000000E+00  0.19102677763E+04  0.19102677763E+04  0.25500000000E-02 0.  1.
         -2   -1    0    0    0  501 -0.00000000000E+00 -0.00000000000E+00 -0.56326689367E+03  0.56326689368E+03  0.25500000000E-02 0. -1.
     200001    2    1    2    0    0  0.42824624493E+03  0.35541499911E+02  0.15297744022E+04  0.17029289316E+04  0.61245341032E+03 0.  0.
    5000001    2    3    3    0    0  0.87827829397E+02 -0.68790114081E+02  0.10076476470E+04  0.10629389849E+04  0.31943653162E+03 0.  0.
        -11    1    4    4    0    0  0.17280439304E+03 -0.61458693319E+01  0.29541402834E+03  0.34229896013E+03  0.51100000000E-03 0. -1.
     200002    1    4    4    0    0 -0.84976563647E+02 -0.62644244749E+02  0.71223361869E+03  0.72064002482E+03  0.30000000000E+02 0. -1.
     200000    1    3    3    0    0  0.34041841554E+03  0.10433161399E+03  0.52212675518E+03  0.63998994663E+03  0.10100000000E+03 0.  1.
    -200001    1    1    2    0    0 -0.42824624493E+03 -0.35541499911E+02 -0.18277351963E+03  0.77060573836E+03  0.61300000000E+03 0. -1.
<mgrwt>
<rscale>  0 0.20745993E+04</rscale>
<asrwt>0</asrwt>
<pdfrwt beam="1">  1        2 0.27289540E+00 0.20745993E+04</pdfrwt>
<pdfrwt beam="2">  1       -2 0.80466699E-01 0.20745993E+04</pdfrwt>
<totfact> 0.11291354E+01</totfact>
</mgrwt>
</event>
<event>
 8    1  0.7326756E-052  0.1570019E+04  0.7818608E-02  0.8839181E-01
         -2   -1    0    0    0  501 -0.00000000000E+00  0.00000000000E+00  0.55936674413E+03  0.55936674414E+03  0.25500000000E-02 0. -1.
          2   -1    0    0  501    0  0.00000000000E+00 -0.00000000000E+00 -0.11016737469E+04  0.11016737469E+04  0.25500000000E-02 0.  1.
     200001    2    1    2    0    0 -0.10817306164E+01  0.26168528538E+03 -0.71253427027E+03  0.97312575699E+03  0.60892388184E+03 0.  0.
    5000001    2    3    3    0    0  0.25367963853E+03  0.14867596220E+03 -0.15979516883E+03  0.34591289313E+03  0.87540464406E+02 0.  0.
        -11    1    4    4    0    0  0.12715903285E+03  0.74468169670E+02 -0.12248963792E+03  0.19162108268E+03  0.51100000000E-03 0. -1.
     200002    1    4    4    0    0  0.12652060568E+03  0.74207792532E+02 -0.37305530909E+02  0.15429181045E+03  0.30000000000E+02 0. -1.
     200000    1    3    3    0    0 -0.25476136914E+03  0.11300932318E+03 -0.55273910144E+03  0.62721286386E+03  0.10100000000E+03 0.  1.
    -200001    1    1    2    0    0  0.10817306164E+01 -0.26168528538E+03  0.17022726750E+03  0.68791473405E+03  0.61300000000E+03 0. -1.
<mgrwt>
<rscale>  0 0.15700187E+04</rscale>
<asrwt>0</asrwt>
<pdfrwt beam="1">  1        2 0.15738196E+00 0.15700187E+04</pdfrwt>
<pdfrwt beam="2">  1       -2 0.79909535E-01 0.15700187E+04</pdfrwt>
<totfact> 0.32542060E+01</totfact>
</mgrwt>
</event>
<event>
 8    1  0.7326756E-052  0.1647826E+04  0.7818608E-02  0.8791693E-01
          2   -1    0    0  501    0  0.00000000000E+00  0.00000000000E+00  0.88571704045E+03  0.88571704046E+03  0.25500000000E-02 0.  1.
         -2   -1    0    0    0  501 -0.00000000000E+00 -0.00000000000E+00 -0.76642199417E+03  0.76642199417E+03  0.25500000000E-02 0. -1.
     200001    2    1    2    0    0  0.17237468805E+03  0.31354205724E+03 -0.35949983588E+03  0.79596428966E+03  0.61343081409E+03 0.  0.
    5000001    2    3    3    0    0  0.72468936648E+02 -0.14046430512E+03 -0.56235073050E+01  0.20306261809E+03  0.12736104287E+03 0.  0.
        -11    1    4    4    0    0 -0.26990669626E+02 -0.12372643213E+02 -0.22534749642E+02  0.37274568926E+02  0.51100000000E-03 0. -1.
     200002    1    4    4    0    0  0.99459606273E+02 -0.12809166190E+03  0.16911242337E+02  0.16578804917E+03  0.30000000000E+02 0. -1.
     200000    1    3    3    0    0  0.99905751400E+02  0.45400636236E+03 -0.35387632857E+03  0.59290167157E+03  0.10100000000E+03 0. -1.
    -200001    1    1    2    0    0 -0.17237468805E+03 -0.31354205724E+03  0.47879488217E+03  0.85617474497E+03  0.61300000000E+03 0.  1.
<mgrwt>
<rscale>  0 0.16478265E+04</rscale>
<asrwt>0</asrwt>
<pdfrwt beam="1">  1        2 0.12653101E+00 0.16478265E+04</pdfrwt>
<pdfrwt beam="2">  1       -2 0.10948886E+00 0.16478265E+04</pdfrwt>
<totfact> 0.21151621E+01</totfact>
</mgrwt>
</event>
<event>
 8    1  0.7326756E-052  0.1785864E+04  0.7818608E-02  0.8713853E-01
          2   -1    0    0  501    0  0.00000000000E+00  0.00000000000E+00  0.18636009775E+04  0.18636009775E+04  0.25500000000E-02 0.  1.
         -2   -1    0    0    0  501 -0.00000000000E+00 -0.00000000000E+00 -0.42784256177E+03  0.42784256178E+03  0.25500000000E-02 0. -1.
     200001    2    1    2    0    0  0.46792807420E+03  0.27610607990E+03  0.11741233582E+04  0.14315521780E+04  0.61284967814E+03 0.  0.
    5000001    2    3    3    0    0  0.33230670164E+03  0.57804164386E+02  0.10855111824E+04  0.11415487285E+04  0.10502336418E+03 0.  0.
        -11    1    4    4    0    0  0.30997336262E+03  0.53009031880E+02  0.99449815088E+03  0.10430340431E+04  0.51100000000E-03 0. -1.
     200002    1    4    4    0    0  0.22333339017E+02  0.47951325061E+01  0.91013031501E+02  0.98514685354E+02  0.30000000000E+02 0.  1.
     200000    1    3    3    0    0  0.13562137256E+03  0.21830191552E+03  0.88612175807E+02  0.29000344949E+03  0.10100000000E+03 0. -1.
    -200001    1    1    2    0    0 -0.46792807420E+03 -0.27610607990E+03  0.26163505758E+03  0.85989136136E+03  0.61300000000E+03 0. -1.
<mgrwt>
<rscale>  0 0.17858643E+04</rscale>
<asrwt>0</asrwt>
<pdfrwt beam="1">  1        2 0.26622871E+00 0.17858643E+04</pdfrwt>
<pdfrwt beam="2">  1       -2 0.61120366E-01 0.17858643E+04</pdfrwt>
<totfact> 0.22266235E+01</totfact>
</mgrwt>
</event>
<event>
 8    1  0.7326756E-052  0.1413417E+04  0.7818608E-02  0.8944163E-01
          2   -1    0    0  501    0  0.00000000000E+00  0.00000000000E+00  0.58893515487E+03  0.58893515487E+03  0.25500000000E-02 0.  1.
         -2   -1    0    0    0  501 -0.00000000000E+00 -0.00000000000E+00 -0.84803393543E+03  0.84803393543E+03  0.25500000000E-02 0. -1.
     200001    2    1    2    0    0 -0.65277701535E+02  0.21612809198E+03 -0.40594121175E+03  0.76741384235E+03  0.61087085998E+03 0.  0.
    5000001    2    3    3    0    0  0.63002492897E+02  0.27053368419E+02  0.58059298045E+02  0.24043895446E+03  0.22302199416E+03 0.  0.
        -11    1    4    4    0    0  0.11768114609E+03 -0.48794927715E+02  0.20945949079E+01  0.12741343902E+03  0.51100000000E-03 0. -1.
     200002    1    4    4    0    0 -0.54678653194E+02  0.75848296133E+02  0.55964703138E+02  0.11302551543E+03  0.30000000000E+02 0. -1.
     200000    1    3    3    0    0 -0.12828019443E+03  0.18907472357E+03 -0.46400050980E+03  0.52697488789E+03  0.10100000000E+03 0. -1.
    -200001    1    1    2    0    0  0.65277701535E+02 -0.21612809198E+03  0.14684243120E+03  0.66955524795E+03  0.61300000000E+03 0.  1.
<mgrwt>
<rscale>  0 0.14134171E+04</rscale>
<asrwt>0</asrwt>
<pdfrwt beam="1">  1        2 0.84133594E-01 0.14134171E+04</pdfrwt>
<pdfrwt beam="2">  1       -2 0.12114771E+00 0.14134171E+04</pdfrwt>
<totfact> 0.28014532E+01</totfact>
</mgrwt>
</event>
<event>
 8    1  0.7326756E-052  0.3443989E+04  0.7818608E-02  0.8127194E-01
         -2   -1    0    0    0  501 -0.00000000000E+00  0.00000000000E+00  0.16064185845E+04  0.16064185845E+04  0.25500000000E-02 0. -1.
          2   -1    0    0  501    0  0.00000000000E+00 -0.00000000000E+00 -0.18458859611E+04  0.18458859611E+04  0.25500000000E-02 0.  1.
     200001    2    1    2    0    0 -0.62198131420E+03  0.18574745810E+03 -0.15957264957E+04  0.18285525105E+04  0.61310550574E+03 0.  0.
    5000001    2    3    3    0    0  0.30624472243E+02  0.84490243148E+02 -0.70903408447E+03  0.71834002264E+03  0.72156743930E+02 0.  0.
        -11    1    4    4    0    0  0.47904461784E+01  0.60435366847E+02 -0.26251995172E+03  0.26942922446E+03  0.51100000000E-03 0. -1.
     200002    1    4    4    0    0  0.25834026065E+02  0.24054876301E+02 -0.44651413275E+03  0.44891079818E+03  0.30000000000E+02 0. -1.
     200000    1    3    3    0    0 -0.65260578644E+03  0.10125721495E+03 -0.88669241124E+03  0.11102124879E+04  0.10100000000E+03 0. -1.
    -200001    1    1    2    0    0  0.62198131420E+03 -0.18574745810E+03  0.13562591191E+04  0.16237520351E+04  0.61300000000E+03 0. -1.
<mgrwt>
<rscale>  0 0.34439893E+04</rscale>
<asrwt>0</asrwt>
<pdfrwt beam="1">  1        2 0.26369799E+00 0.34439893E+04</pdfrwt>
<pdfrwt beam="2">  1       -2 0.22948837E+00 0.34439893E+04</pdfrwt>
<totfact> 0.69157346E-01</totfact>
</mgrwt>
</event>
<event>
 8    1  0.7326756E-052  0.1373701E+04  0.7818608E-02  0.8973078E-01
          2   -1    0    0  501    0  0.00000000000E+00  0.00000000000E+00  0.15705202826E+04  0.15705202827E+04  0.25500000000E-02 0.  1.
         -2   -1    0    0    0  501 -0.00000000000E+00 -0.00000000000E+00 -0.30038664741E+03  0.30038664742E+03  0.25500000000E-02 0. -1.
     200001    2    1    2    0    0  0.36975583525E+02  0.10689376320E+03  0.10275506003E+04  0.12020205427E+04  0.61335118689E+03 0.  0.
    5000001    2    3    3    0    0 -0.19480440497E+03 -0.51883354051E+02  0.79444051739E+03  0.82324165364E+03  0.77139134031E+02 0.  0.
        -11    1    4    4    0    0 -0.48298438762E+02  0.16925846400E+02  0.18064797796E+03  0.18775759746E+03  0.51100000000E-03 0. -1.
     200002    1    4    4    0    0 -0.14650596621E+03 -0.68809200451E+02  0.61379253943E+03  0.63548405618E+03  0.30000000000E+02 0. -1.
     200000    1    3    3    0    0  0.23177998849E+03  0.15877711725E+03  0.23311008293E+03  0.37877888905E+03  0.10100000000E+03 0. -1.
    -200001    1    1    2    0    0 -0.36975583525E+02 -0.10689376320E+03  0.24258303492E+03  0.66888638738E+03  0.61300000000E+03 0.  1.
<mgrwt>
<rscale>  0 0.13737006E+04</rscale>
<asrwt>0</asrwt>
<pdfrwt beam="1">  1        2 0.22436004E+00 0.13737006E+04</pdfrwt>
<pdfrwt beam="2">  1       -2 0.42912378E-01 0.13737006E+04</pdfrwt>
<totfact> 0.67363314E+01</totfact>
</mgrwt>
</event>
<event>
 8    1  0.7326756E-052  0.1354798E+04  0.7818608E-02  0.8987204E-01
         -2   -1    0    0    0  501 -0.00000000000E+00  0.00000000000E+00  0.35128668669E+03  0.35128668670E+03  0.25500000000E-02 0. -1.
          2   -1    0    0  501    0  0.00000000000E+00 -0.00000000000E+00 -0.13062524394E+04  0.13062524395E+04  0.25500000000E-02 0.  1.
     200001    2    1    2    0    0  0.24746069557E+03  0.11774366236E+03 -0.36816487714E+03  0.76579665576E+03  0.61302428608E+03 0.  0.
    5000001    2    3    3    0    0 -0.36100216959E+02 -0.19228541687E+03 -0.29598503836E+02  0.21684036404E+03  0.88694784758E+02 0.  0.
        -11    1    4    4    0    0 -0.58361950370E+02 -0.12005847155E+03 -0.18899428174E+02  0.13482337419E+03  0.51100000000E-03 0. -1.
     200002    1    4    4    0    0  0.22261733411E+02 -0.72226945315E+02 -0.10699075661E+02  0.82016989850E+02  0.30000000000E+02 0. -1.
     200000    1    3    3    0    0  0.28356091253E+03  0.31002907922E+03 -0.33856637331E+03  0.54895629171E+03  0.10100000000E+03 0.  1.
    -200001    1    1    2    0    0 -0.24746069557E+03 -0.11774366236E+03 -0.58680087562E+03  0.89174247039E+03  0.61300000000E+03 0.  1.
<mgrwt>
<rscale>  0 0.13547975E+04</rscale>
<asrwt>0</asrwt>
<pdfrwt beam="1">  1        2 0.18660749E+00 0.13547975E+04</pdfrwt>
<pdfrwt beam="2">  1       -2 0.50183813E-01 0.13547975E+04</pdfrwt>
<totfact> 0.68344751E+01</totfact>
</mgrwt>
</event>
<event>
 8    1  0.7326756E-052  0.1746533E+04  0.7818608E-02  0.8735261E-01
         -2   -1    0    0    0  501 -0.00000000000E+00  0.00000000000E+00  0.90756622261E+03  0.90756622261E+03  0.25500000000E-02 0. -1.
          2   -1    0    0  501    0  0.00000000000E+00 -0.00000000000E+00 -0.84026302359E+03  0.84026302359E+03  0.25500000000E-02 0.  1.
     200001    2    1    2    0    0  0.45247400248E+03 -0.30196583481E+03  0.33365407804E+03  0.88607064946E+03  0.61471950004E+03 0.  0.
    5000001    2    3    3    0    0  0.54500187108E+03 -0.16791308721E+03  0.16507435724E+03  0.63082240192E+03  0.21322644069E+03 0.  0.
        -11    1    4    4    0    0  0.44476045005E+02  0.21439349391E+02 -0.33024253637E+02  0.59400047223E+02  0.51100000000E-03 0. -1.
     200002    1    4    4    0    0  0.50052582607E+03 -0.18935243660E+03  0.19809861088E+03  0.57142235469E+03  0.30000000000E+02 0. -1.
     200000    1    3    3    0    0 -0.92527868600E+02 -0.13405274760E+03  0.16857972080E+03  0.25524824754E+03  0.10100000000E+03 0. -1.
    -200001    1    1    2    0    0 -0.45247400248E+03  0.30196583481E+03 -0.26635087902E+03  0.86175859674E+03  0.61300000000E+03 0.  1.
<mgrwt>
<rscale>  0 0.17465330E+04</rscale>
<asrwt>0</asrwt>
<pdfrwt beam="1">  1        2 0.12003757E+00 0.17465330E+04</pdfrwt>
<pdfrwt beam="2">  1       -2 0.12965232E+00 0.17465330E+04</pdfrwt>
<totfact> 0.14819542E+01</totfact>
</mgrwt>
</event>
<event>
 8    1  0.7326756E-052  0.1456156E+04  0.7818608E-02  0.8914144E-01
         -2   -1    0    0    0  501 -0.00000000000E+00  0.00000000000E+00  0.16914336177E+03  0.16914336179E+03  0.25500000000E-02 0. -1.
          2   -1    0    0  501    0  0.00000000000E+00 -0.00000000000E+00 -0.31340139356E+04  0.31340139356E+04  0.25500000000E-02 0.  1.
     200001    2    1    2    0    0 -0.19580820117E+03  0.11606121167E+03 -0.75745931028E+03  0.10009313000E+04  0.61343932394E+03 0.  0.
    5000001    2    3    3    0    0 -0.11887277620E+03 -0.16477469602E+03 -0.28838685248E+03  0.43966680149E+03  0.26240899808E+03 0.  0.
        -11    1    4    4    0    0 -0.15990127785E+03 -0.20949736205E+03 -0.21824660744E+03  0.34218291164E+03  0.51100000000E-03 0. -1.
     200002    1    4    4    0    0  0.41028501651E+02  0.44722666024E+02 -0.70140245047E+02  0.97483889845E+02  0.30000000000E+02 0. -1.
     200000    1    3    3    0    0 -0.76935424970E+02  0.28083590769E+03 -0.46907245780E+03  0.56126449855E+03  0.10100000000E+03 0.  1.
    -200001    1    1    2    0    0  0.19580820117E+03 -0.11606121167E+03 -0.22074112636E+04  0.23022259974E+04  0.61300000000E+03 0.  1.
<mgrwt>
<rscale>  0 0.14561561E+04</rscale>
<asrwt>0</asrwt>
<pdfrwt beam="1">  1        2 0.44771624E+00 0.14561561E+04</pdfrwt>
<pdfrwt beam="2">  1       -2 0.24163340E-01 0.14561561E+04</pdfrwt>
<totfact> 0.29528900E+01</totfact>
</mgrwt>
</event>
<event>
 8    1  0.7326756E-052  0.1901680E+04  0.7818608E-02  0.8654020E-01
          2   -1    0    0  501    0  0.00000000000E+00  0.00000000000E+00  0.18918256453E+04  0.18918256453E+04  0.25500000000E-02 0. -1.
         -2   -1    0    0    0  501 -0.00000000000E+00 -0.00000000000E+00 -0.47789653304E+03  0.47789653305E+03  0.25500000000E-02 0.  1.
     200001    2    1    2    0    0  0.61264081382E+03  0.19747295939E+03  0.28581885300E+03  0.93350280322E+03  0.61270770392E+03 0.  0.
    5000001    2    3    3    0    0  0.44041243116E+03  0.33984869705E+03  0.93665295945E+01  0.56396206990E+03  0.92223847250E+02 0.  0.
        -11    1    4    4    0    0  0.21875741558E+03  0.11774012370E+03 -0.39521375624E+01  0.24846159259E+03  0.51100000000E-03 0. -1.
     200002    1    4    4    0    0  0.22165501558E+03  0.22210857335E+03  0.13318667157E+02  0.31550047731E+03  0.30000000000E+02 0. -1.
     200000    1    3    3    0    0  0.17222838266E+03 -0.14237573766E+03  0.27645232340E+03  0.36954073332E+03  0.10100000000E+03 0.  1.
    -200001    1    1    2    0    0 -0.61264081382E+03 -0.19747295939E+03  0.11281102593E+04  0.14362193751E+04  0.61300000000E+03 0. -1.
<mgrwt>
<rscale>  0 0.19016802E+04</rscale>
<asrwt>0</asrwt>
<pdfrwt beam="1">  1        2 0.27026081E+00 0.19016802E+04</pdfrwt>
<pdfrwt beam="2">  1       -2 0.68270934E-01 0.19016802E+04</pdfrwt>
<totfact> 0.16826776E+01</totfact>
</mgrwt>
</event>
<event>
 8    1  0.7326756E-052  0.1235191E+04  0.7818608E-02  0.9082600E-01
          2   -1    0    0  501    0  0.00000000000E+00  0.00000000000E+00  0.97833908095E+03  0.97833908095E+03  0.25500000000E-02 0.  1.
         -2   -1    0    0    0  501 -0.00000000000E+00 -0.00000000000E+00 -0.38986916790E+03  0.38986916791E+03  0.25500000000E-02 0. -1.
     200001    2    1    2    0    0 -0.69154297524E+02 -0.32501664621E+02  0.27873100769E+03  0.67716131518E+03  0.61238696676E+03 0.  0.
    5000001    2    3    3    0    0  0.17043723609E+03  0.73682203231E+02 -0.21807517278E+02  0.26581775833E+03  0.18895923982E+03 0.  0.
        -11    1    4    4    0    0  0.83631221017E+02  0.11129238150E+03  0.44856097701E+02  0.14626087929E+03  0.51100000000E-03 0. -1.
     200002    1    4    4    0    0  0.86806015075E+02 -0.37610178272E+02 -0.66663614979E+02  0.11955687904E+03  0.30000000000E+02 0. -1.
     200000    1    3    3    0    0 -0.23959153362E+03 -0.10618386785E+03  0.30053852497E+03  0.41134355685E+03  0.10100000000E+03 0.  1.
    -200001    1    1    2    0    0  0.69154297524E+02  0.32501664621E+02  0.30973890536E+03  0.69104693369E+03  0.61300000000E+03 0.  1.
<mgrwt>
<rscale>  0 0.12351911E+04</rscale>
<asrwt>0</asrwt>
<pdfrwt beam="1">  1        2 0.13976273E+00 0.12351911E+04</pdfrwt>
<pdfrwt beam="2">  1       -2 0.55695595E-01 0.12351911E+04</pdfrwt>
<totfact> 0.86427528E+01</totfact>
</mgrwt>
</event>
<event>
 8    1  0.7326756E-052  0.1358058E+04  0.7818608E-02  0.8984751E-01
          2   -1    0    0  501    0  0.00000000000E+00  0.00000000000E+00  0.19331545838E+04  0.19331545838E+04  0.25500000000E-02 0.  1.
         -2   -1    0    0    0  501 -0.00000000000E+00 -0.00000000000E+00 -0.23851194902E+03  0.23851194904E+03  0.25500000000E-02 0. -1.
     200001    2    1    2    0    0  0.16727631384E+03  0.16838210489E+03  0.11178932886E+04  0.12971708458E+04  0.61370424464E+03 0.  0.
    5000001    2    3    3    0    0 -0.41838361557E+02  0.33876143211E+03  0.47772990438E+03  0.59519632973E+03  0.97586131183E+02 0.  0.
        -11    1    4    4    0    0  0.10823098916E+02  0.27858570752E+02  0.88241295090E+02  0.93165259587E+02  0.51100000000E-03 0. -1.
     200002    1    4    4    0    0 -0.52661460473E+02  0.31090286136E+03  0.38948860929E+03  0.50203107014E+03  0.30000000000E+02 0. -1.
     200000    1    3    3    0    0  0.20911467540E+03 -0.17037932722E+03  0.64016338426E+03  0.70197451603E+03  0.10100000000E+03 0. -1.
    -200001    1    1    2    0    0 -0.16727631384E+03 -0.16838210489E+03  0.57674934610E+03  0.87449568703E+03  0.61300000000E+03 0. -1.
<mgrwt>
<rscale>  0 0.13580581E+04</rscale>
<asrwt>0</asrwt>
<pdfrwt beam="1">  1        2 0.27616496E+00 0.13580581E+04</pdfrwt>
<pdfrwt beam="2">  1       -2 0.34073134E-01 0.13580581E+04</pdfrwt>
<totfact> 0.68424964E+01</totfact>
</mgrwt>
</event>
<event>
 8    1  0.7326756E-052  0.1774920E+04  0.7818608E-02  0.8719752E-01
          2   -1    0    0  501    0  0.00000000000E+00  0.00000000000E+00  0.18964945878E+04  0.18964945878E+04  0.25500000000E-02 0.  1.
         -2   -1    0    0    0  501 -0.00000000000E+00 -0.00000000000E+00 -0.41528464468E+03  0.41528464469E+03  0.25500000000E-02 0. -1.
     200001    2    1    2    0    0 -0.15549291099E+03  0.48874749350E+03  0.12432729732E+04  0.14778516820E+04  0.61258938164E+03 0.  0.
    5000001    2    3    3    0    0  0.49712136692E+02  0.55251156866E+03  0.82213705595E+03  0.99439389727E+03  0.71899611454E+02 0.  0.
        -11    1    4    4    0    0  0.87375127289E+01  0.72366104452E+02  0.15048070066E+03  0.16720537812E+03  0.51100000000E-03 0. -1.
     200002    1    4    4    0    0  0.40974623964E+02  0.48014546421E+03  0.67165635529E+03  0.82718851915E+03  0.30000000000E+02 0. -1.
     200000    1    3    3    0    0 -0.20520504769E+03 -0.63764075152E+02  0.42113591721E+03  0.48345778476E+03  0.10100000000E+03 0.  1.
    -200001    1    1    2    0    0  0.15549291099E+03 -0.48874749350E+03  0.23793696997E+03  0.83392755048E+03  0.61300000000E+03 0.  1.
<mgrwt>
<rscale>  0 0.17749198E+04</rscale>
<asrwt>0</asrwt>
<pdfrwt beam="1">  1        2 0.27092779E+00 0.17749198E+04</pdfrwt>
<pdfrwt beam="2">  1       -2 0.59326379E-01 0.17749198E+04</pdfrwt>
<totfact> 0.22825451E+01</totfact>
</mgrwt>
</event>
<event>
 8    1  0.7326756E-052  0.1583338E+04  0.7818608E-02  0.8830850E-01
         -2   -1    0    0    0  501 -0.00000000000E+00  0.00000000000E+00  0.19669653167E+03  0.19669653168E+03  0.25500000000E-02 0. -1.
          2   -1    0    0  501    0  0.00000000000E+00 -0.00000000000E+00 -0.31863286405E+04  0.31863286405E+04  0.25500000000E-02 0.  1.
     200001    2    1    2    0    0 -0.32228173289E+03 -0.37762468101E+03 -0.13551784589E+04  0.15681770660E+04  0.61335531263E+03 0.  0.
    5000001    2    3    3    0    0 -0.13844109131E+03 -0.32371322039E+03 -0.25582934058E+03  0.44769801165E+03  0.10501749052E+03 0.  0.
        -11    1    4    4    0    0 -0.26474226910E+02 -0.12607784776E+03 -0.14243455561E+03  0.19205236530E+03  0.51100000000E-03 0. -1.
     200002    1    4    4    0    0 -0.11196686440E+03 -0.19763537263E+03 -0.11339478497E+03  0.25564564635E+03  0.30000000000E+02 0. -1.
     200000    1    3    3    0    0 -0.18384064157E+03 -0.53911460620E+02 -0.10993491184E+04  0.11204790543E+04  0.10100000000E+03 0.  1.
    -200001    1    1    2    0    0  0.32228173289E+03  0.37762468101E+03 -0.16344536499E+04  0.18148481062E+04  0.61300000000E+03 0.  1.
<mgrwt>
<rscale>  0 0.15833380E+04</rscale>
<asrwt>0</asrwt>
<pdfrwt beam="1">  1        2 0.45518978E+00 0.15833380E+04</pdfrwt>
<pdfrwt beam="2">  1       -2 0.28099506E-01 0.15833380E+04</pdfrwt>
<totfact> 0.20693067E+01</totfact>
</mgrwt>
</event>
<event>
 8    1  0.7326756E-052  0.1537433E+04  0.7818608E-02  0.8859935E-01
         -2   -1    0    0    0  501 -0.00000000000E+00  0.00000000000E+00  0.37927816610E+03  0.37927816611E+03  0.25500000000E-02 0. -1.
          2   -1    0    0  501    0  0.00000000000E+00 -0.00000000000E+00 -0.15580263184E+04  0.15580263184E+04  0.25500000000E-02 0.  1.
     200001    2    1    2    0    0  0.90927178750E+02 -0.41329529187E+03 -0.82932650161E+03  0.11145376645E+04  0.61264264393E+03 0.  0.
    5000001    2    3    3    0    0  0.17529147487E+02 -0.35650589106E+03 -0.88120406824E+03  0.96789323412E+03  0.18136422307E+03 0.  0.
        -11    1    4    4    0    0 -0.43945131236E+02 -0.86622652281E+02 -0.40303591683E+03  0.41457521478E+03  0.51100000000E-03 0. -1.
     200002    1    4    4    0    0  0.61474278723E+02 -0.26988323877E+03 -0.47816815140E+03  0.55331801934E+03  0.30000000000E+02 0. -1.
     200000    1    3    3    0    0  0.73398031262E+02 -0.56789400814E+02  0.51877566625E+02  0.14664443036E+03  0.10100000000E+03 0. -1.
    -200001    1    1    2    0    0 -0.90927178750E+02  0.41329529187E+03 -0.34942165065E+03  0.82276681998E+03  0.61300000000E+03 0. -1.
<mgrwt>
<rscale>  0 0.15374334E+04</rscale>
<asrwt>0</asrwt>
<pdfrwt beam="1">  1        2 0.22257519E+00 0.15374334E+04</pdfrwt>
<pdfrwt beam="2">  1       -2 0.54182596E-01 0.15374334E+04</pdfrwt>
<totfact> 0.42143499E+01</totfact>
</mgrwt>
</event>
<event>
 8    1  0.7326756E-052  0.1526978E+04  0.7818608E-02  0.8866708E-01
          2   -1    0    0  501    0  0.00000000000E+00  0.00000000000E+00  0.16732460491E+04  0.16732460491E+04  0.25500000000E-02 0.  1.
         -2   -1    0    0    0  501 -0.00000000000E+00 -0.00000000000E+00 -0.34837408690E+03  0.34837408691E+03  0.25500000000E-02 0. -1.
     200001    2    1    2    0    0 -0.45038777742E+03 -0.13823182107E+02  0.74546492005E+03  0.10653138300E+04  0.61329876815E+03 0.  0.
    5000001    2    3    3    0    0 -0.44963223332E+03 -0.24833776255E+02  0.81837739748E+03  0.94025770905E+03  0.10750410700E+03 0.  0.
        -11    1    4    4    0    0 -0.37761666670E+03 -0.51819095506E+01  0.61696404990E+03  0.72337116201E+03  0.51100000000E-03 0. -1.
     200002    1    4    4    0    0 -0.72015566621E+02 -0.19651866704E+02  0.20141334758E+03  0.21688654704E+03  0.30000000000E+02 0. -1.
     200000    1    3    3    0    0 -0.75554409462E+00  0.11010594148E+02 -0.72912477433E+02  0.12505612099E+03  0.10100000000E+03 0. -1.
    -200001    1    1    2    0    0  0.45038777742E+03  0.13823182107E+02  0.57940704219E+03  0.95630630603E+03  0.61300000000E+03 0.  1.
<mgrwt>
<rscale>  0 0.15269781E+04</rscale>
<asrwt>0</asrwt>
<pdfrwt beam="1">  1        2 0.23903514E+00 0.15269781E+04</pdfrwt>
<pdfrwt beam="2">  1       -2 0.49767728E-01 0.15269781E+04</pdfrwt>
<totfact> 0.43696041E+01</totfact>
</mgrwt>
</event>
<event>
 8    1  0.7326756E-052  0.2664285E+04  0.7818608E-02  0.8346687E-01
         -2   -1    0    0    0  501 -0.00000000000E+00  0.00000000000E+00  0.91802083310E+03  0.91802083310E+03  0.25500000000E-02 0. -1.
          2   -1    0    0  501    0  0.00000000000E+00 -0.00000000000E+00 -0.19330757780E+04  0.19330757780E+04  0.25500000000E-02 0.  1.
     200001    2    1    2    0    0 -0.39611116521E+03  0.91878645871E+03 -0.11823568756E+04  0.16658407114E+04  0.61317606167E+03 0.  0.
    5000001    2    3    3    0    0  0.38215872855E+02  0.60081040180E+03 -0.75059250055E+03  0.96843822767E+03  0.10977206878E+03 0.  0.
        -11    1    4    4    0    0  0.30436695371E+02  0.39967386755E+02 -0.63472546949E+02  0.80947814334E+02  0.51100000000E-03 0. -1.
     200002    1    4    4    0    0  0.77791774845E+01  0.56084301505E+03 -0.68711995360E+03  0.88749041334E+03  0.30000000000E+02 0. -1.
     200000    1    3    3    0    0 -0.43432703806E+03  0.31797605690E+03 -0.43176437501E+03  0.69740248371E+03  0.10100000000E+03 0. -1.
    -200001    1    1    2    0    0  0.39611116521E+03 -0.91878645871E+03  0.16730193063E+03  0.11852558998E+04  0.61300000000E+03 0.  1.
<mgrwt>
<rscale>  0 0.26642851E+04</rscale>
<asrwt>0</asrwt>
<pdfrwt beam="1">  1        2 0.27615368E+00 0.26642851E+04</pdfrwt>
<pdfrwt beam="2">  1       -2 0.13114583E+00 0.26642851E+04</pdfrwt>
<totfact> 0.32686110E+00</totfact>
</mgrwt>
</event>
<event>
 8    1  0.7326756E-052  0.1527777E+04  0.7818608E-02  0.8866189E-01
         -2   -1    0    0    0  501 -0.00000000000E+00  0.00000000000E+00  0.36727096668E+03  0.36727096669E+03  0.25500000000E-02 0. -1.
          2   -1    0    0  501    0  0.00000000000E+00 -0.00000000000E+00 -0.15888145414E+04  0.15888145414E+04  0.25500000000E-02 0.  1.
     200001    2    1    2    0    0 -0.77563516298E+02  0.33499897731E+03 -0.22739548189E+03  0.73857171174E+03  0.61281241366E+03 0.  0.
    5000001    2    3    3    0    0 -0.80510422346E+02  0.49352417435E+03 -0.21669320149E+03  0.55027816124E+03  0.76171335801E+02 0.  0.
        -11    1    4    4    0    0  0.71229330395E+01  0.17370995249E+02 -0.18233707151E+02  0.26171658865E+02  0.51100000000E-03 0. -1.
     200002    1    4    4    0    0 -0.87633355386E+02  0.47615317910E+03 -0.19845949434E+03  0.52410650238E+03  0.30000000000E+02 0. -1.
     200000    1    3    3    0    0  0.29469060479E+01 -0.15852519704E+03 -0.10702280405E+02  0.18829355049E+03  0.10100000000E+03 0.  1.
    -200001    1    1    2    0    0  0.77563516298E+02 -0.33499897731E+03 -0.99414809284E+03  0.12175137964E+04  0.61300000000E+03 0. -1.
<mgrwt>
<rscale>  0 0.15277768E+04</rscale>
<asrwt>0</asrwt>
<pdfrwt beam="1">  1        2 0.22697350E+00 0.15277768E+04</pdfrwt>
<pdfrwt beam="2">  1       -2 0.52467282E-01 0.15277768E+04</pdfrwt>
<totfact> 0.43416943E+01</totfact>
</mgrwt>
</event>
<event>
 8    1  0.7326756E-052  0.2692701E+04  0.7818608E-02  0.8337377E-01
          2   -1    0    0  501    0  0.00000000000E+00  0.00000000000E+00  0.14728367727E+04  0.14728367727E+04  0.25500000000E-02 0.  1.
         -2   -1    0    0    0  501 -0.00000000000E+00 -0.00000000000E+00 -0.12307268210E+04  0.12307268210E+04  0.25500000000E-02 0. -1.
     200001    2    1    2    0    0  0.15685120431E+03  0.93145942845E+03  0.86195030511E+03  0.14181881501E+04  0.61325388995E+03 0.  0.
    5000001    2    3    3    0    0  0.37956460094E+02  0.64025184321E+03  0.19846356151E+03  0.67700431541E+03  0.87085832591E+02 0.  0.
        -11    1    4    4    0    0 -0.17273142647E+02  0.31520284988E+03  0.83367624548E+02  0.32649863530E+03  0.51100000000E-03 0. -1.
     200002    1    4    4    0    0  0.55229602741E+02  0.32504899333E+03  0.11509593696E+03  0.35050568011E+03  0.30000000000E+02 0. -1.
     200000    1    3    3    0    0  0.11889474421E+03  0.29120758523E+03  0.66348674361E+03  0.74118383471E+03  0.10100000000E+03 0.  1.
    -200001    1    1    2    0    0 -0.15685120431E+03 -0.93145942845E+03 -0.61984035342E+03  0.12853754435E+04  0.61300000000E+03 0. -1.
<mgrwt>
<rscale>  0 0.26927010E+04</rscale>
<asrwt>0</asrwt>
<pdfrwt beam="1">  1        2 0.21040525E+00 0.26927010E+04</pdfrwt>
<pdfrwt beam="2">  1       -2 0.17581812E+00 0.26927010E+04</pdfrwt>
<totfact> 0.25902234E+00</totfact>
</mgrwt>
</event>
<event>
 8    1  0.7326756E-052  0.1543343E+04  0.7818608E-02  0.8856131E-01
          2   -1    0    0  501    0  0.00000000000E+00  0.00000000000E+00  0.29504666416E+04  0.29504666416E+04  0.25500000000E-02 0. -1.
         -2   -1    0    0    0  501 -0.00000000000E+00 -0.00000000000E+00 -0.20182466669E+03  0.20182466670E+03  0.25500000000E-02 0.  1.
     200001    2    1    2    0    0  0.26763831059E+03  0.93776732603E+00  0.21594325976E+04  0.22609059623E+04  0.61393442825E+03 0.  0.
    5000001    2    3    3    0    0  0.39382645196E+03  0.15619150181E+03  0.12158602142E+04  0.12910827765E+04  0.95308004600E+02 0.  0.
        -11    1    4    4    0    0  0.29803507866E+03  0.10926029943E+03  0.79899430106E+03  0.85974101582E+03  0.51100000000E-03 0. -1.
     200002    1    4    4    0    0  0.95791373296E+02  0.46931202382E+02  0.41686591313E+03  0.43134176065E+03  0.30000000000E+02 0. -1.
     200000    1    3    3    0    0 -0.12618814136E+03 -0.15525373449E+03  0.94357238341E+03  0.96982318586E+03  0.10100000000E+03 0. -1.
    -200001    1    1    2    0    0 -0.26763831059E+03 -0.93776732603E+00  0.58920937730E+03  0.89138534596E+03  0.61300000000E+03 0.  1.
<mgrwt>
<rscale>  0 0.15433431E+04</rscale>
<asrwt>0</asrwt>
<pdfrwt beam="1">  1        2 0.42149519E+00 0.15433431E+04</pdfrwt>
<pdfrwt beam="2">  1       -2 0.28832098E-01 0.15433431E+04</pdfrwt>
<totfact> 0.26883929E+01</totfact>
</mgrwt>
</event>
<event>
 8    1  0.7326756E-052  0.1351286E+04  0.7818608E-02  0.8989855E-01
          2   -1    0    0  501    0  0.00000000000E+00  0.00000000000E+00  0.95693837783E+03  0.95693837784E+03  0.25500000000E-02 0.  1.
         -2   -1    0    0    0  501 -0.00000000000E+00 -0.00000000000E+00 -0.47703515661E+03  0.47703515662E+03  0.25500000000E-02 0. -1.
     200001    2    1    2    0    0 -0.26959940387E+03 -0.89598224332E+02  0.21515101244E+03  0.70831906267E+03  0.61213908224E+03 0.  0.
    5000001    2    3    3    0    0  0.69510663196E+02 -0.25300212421E+03  0.32071547498E+02  0.27771998863E+03  0.85193901039E+02 0.  0.
        -11    1    4    4    0    0  0.11767499692E+02 -0.16121137153E+03  0.34045669364E+02  0.16518682745E+03  0.51100000000E-03 0. -1.
     200002    1    4    4    0    0  0.57743163504E+02 -0.91790752678E+02 -0.19741218653E+01  0.11253316118E+03  0.30000000000E+02 0. -1.
     200000    1    3    3    0    0 -0.33911006706E+03  0.16340389987E+03  0.18307946494E+03  0.43059907404E+03  0.10100000000E+03 0.  1.
    -200001    1    1    2    0    0  0.26959940387E+03  0.89598224332E+02  0.26475220878E+03  0.72565447179E+03  0.61300000000E+03 0.  1.
<mgrwt>
<rscale>  0 0.13512857E+04</rscale>
<asrwt>0</asrwt>
<pdfrwt beam="1">  1        2 0.13670548E+00 0.13512857E+04</pdfrwt>
<pdfrwt beam="2">  1       -2 0.68147880E-01 0.13512857E+04</pdfrwt>
<totfact> 0.57605886E+01</totfact>
</mgrwt>
</event>
<event>
 8    1  0.7326756E-052  0.2265850E+04  0.7818608E-02  0.8491509E-01
         -2   -1    0    0    0  501 -0.00000000000E+00  0.00000000000E+00  0.25969942958E+04  0.25969942958E+04  0.25500000000E-02 0. -1.
          2   -1    0    0  501    0  0.00000000000E+00 -0.00000000000E+00 -0.49423250463E+03  0.49423250463E+03  0.25500000000E-02 0.  1.
     200001    2    1    2    0    0 -0.33715004563E+03  0.11888646588E+03 -0.15337842460E+03  0.72611753905E+03  0.61312119059E+03 0.  0.
    5000001    2    3    3    0    0 -0.66960173142E+02 -0.21547934343E+03 -0.24563985711E+02  0.26612055939E+03  0.13893073995E+03 0.  0.
        -11    1    4    4    0    0  0.17543212571E+02 -0.40235298525E+02 -0.51237734788E+02  0.67468133376E+02  0.51100000000E-03 0. -1.
     200002    1    4    4    0    0 -0.84503385713E+02 -0.17524404491E+03  0.26673749078E+02  0.19865242602E+03  0.30000000000E+02 0. -1.
     200000    1    3    3    0    0 -0.27018987249E+03  0.33436580931E+03 -0.12881443889E+03  0.45999697966E+03  0.10100000000E+03 0.  1.
    -200001    1    1    2    0    0  0.33715004563E+03 -0.11888646588E+03  0.22561402158E+04  0.23651092614E+04  0.61300000000E+03 0. -1.
<mgrwt>
<rscale>  0 0.22658499E+04</rscale>
<asrwt>0</asrwt>
<pdfrwt beam="1">  1        2 0.70604645E-01 0.22658499E+04</pdfrwt>
<pdfrwt beam="2">  1       -2 0.37099918E+00 0.22658499E+04</pdfrwt>
<totfact> 0.71136478E-01</totfact>
</mgrwt>
</event>
<event>
 8    1  0.7326756E-052  0.1621606E+04  0.7818608E-02  0.8807383E-01
         -2   -1    0    0    0  501 -0.00000000000E+00  0.00000000000E+00  0.31633526145E+03  0.31633526146E+03  0.25500000000E-02 0. -1.
          2   -1    0    0  501    0  0.00000000000E+00 -0.00000000000E+00 -0.20781798326E+04  0.20781798326E+04  0.25500000000E-02 0.  1.
     200001    2    1    2    0    0  0.41197904416E+03  0.39994794125E+02 -0.39014390796E+03  0.83609986512E+03  0.61280045623E+03 0.  0.
    5000001    2    3    3    0    0 -0.44073025619E+02  0.23688265328E+02 -0.12576799645E+02  0.23526102274E+03  0.22953432735E+03 0.  0.
        -11    1    4    4    0    0  0.87033061958E+02  0.40107288298E+02  0.14981289476E+02  0.96993749711E+02  0.51100000000E-03 0. -1.
     200002    1    4    4    0    0 -0.13110608758E+03 -0.16419022970E+02 -0.27558089121E+02  0.13826727303E+03  0.30000000000E+02 0. -1.
     200000    1    3    3    0    0  0.45605206977E+03  0.16306528797E+02 -0.37756710832E+03  0.60083884238E+03  0.10100000000E+03 0.  1.
    -200001    1    1    2    0    0 -0.41197904416E+03 -0.39994794125E+02 -0.13717006632E+04  0.15584152289E+04  0.61300000000E+03 0.  1.
<mgrwt>
<rscale>  0 0.16216061E+04</rscale>
<asrwt>0</asrwt>
<pdfrwt beam="1">  1        2 0.29688282E+00 0.16216061E+04</pdfrwt>
<pdfrwt beam="2">  1       -2 0.45190753E-01 0.16216061E+04</pdfrwt>
<totfact> 0.32569609E+01</totfact>
</mgrwt>
</event>
<event>
 8    1  0.7326756E-052  0.1496392E+04  0.7818608E-02  0.8886856E-01
         -2   -1    0    0    0  501 -0.00000000000E+00  0.00000000000E+00  0.20570636508E+03  0.20570636510E+03  0.25500000000E-02 0. -1.
          2   -1    0    0  501    0  0.00000000000E+00 -0.00000000000E+00 -0.27213404997E+04  0.27213404997E+04  0.25500000000E-02 0.  1.
     200001    2    1    2    0    0  0.57171861230E+01 -0.31706753359E+03 -0.18146183948E+04  0.19433006707E+04  0.61888049786E+03 0.  0.
    5000001    2    3    3    0    0 -0.15517945744E+03  0.80165116994E+02 -0.95487293515E+03  0.97735824792E+03  0.11375285707E+03 0.  0.
        -11    1    4    4    0    0 -0.12071250688E+02 -0.18790572917E+02 -0.23872895426E+03  0.23977137929E+03  0.51100000000E-03 0. -1.
     200002    1    4    4    0    0 -0.14310820675E+03  0.98955689910E+02 -0.71614398090E+03  0.73758686863E+03  0.30000000000E+02 0. -1.
     200000    1    3    3    0    0  0.16089664357E+03 -0.39723265058E+03 -0.85974545967E+03  0.96594242273E+03  0.10100000000E+03 0. -1.
    -200001    1    1    2    0    0 -0.57171861230E+01  0.31706753359E+03 -0.70101573980E+03  0.98374619416E+03  0.61300000000E+03 0. -1.
<mgrwt>
<rscale>  0 0.14963917E+04</rscale>
<asrwt>0</asrwt>
<pdfrwt beam="1">  1        2 0.38876290E+00 0.14963917E+04</pdfrwt>
<pdfrwt beam="2">  1       -2 0.29386625E-01 0.14963917E+04</pdfrwt>
<totfact> 0.34730559E+01</totfact>
</mgrwt>
</event>
<event>
 8    1  0.7326756E-052  0.1742499E+04  0.7818608E-02  0.8737490E-01
          2   -1    0    0  501    0  0.00000000000E+00  0.00000000000E+00  0.12092432253E+04  0.12092432253E+04  0.25500000000E-02 0.  1.
         -2   -1    0    0    0  501 -0.00000000000E+00 -0.00000000000E+00 -0.62772805722E+03  0.62772805723E+03  0.25500000000E-02 0. -1.
     200001    2    1    2    0    0 -0.33606142053E+03  0.17317554965E+03  0.80791416868E+03  0.10820192596E+04  0.61246495811E+03 0.  0.
    5000001    2    3    3    0    0 -0.19205249399E+03  0.12346603949E+03 -0.14991568727E+02  0.23905754107E+03  0.69251263181E+02 0.  0.
        -11    1    4    4    0    0 -0.16077155770E+03  0.95731770660E+02 -0.10611083265E+02  0.18741574311E+03  0.51100000000E-03 0. -1.
     200002    1    4    4    0    0 -0.31280936292E+02  0.27734268834E+02 -0.43804854623E+01  0.51641797954E+02  0.30000000000E+02 0.  1.
     200000    1    3    3    0    0 -0.14400892654E+03  0.49709510156E+02  0.82290573740E+03  0.84296171857E+03  0.10100000000E+03 0.  1.
    -200001    1    1    2    0    0  0.33606142053E+03 -0.17317554965E+03 -0.22639900062E+03  0.75495202288E+03  0.61300000000E+03 0. -1.
<mgrwt>
<rscale>  0 0.17424992E+04</rscale>
<asrwt>0</asrwt>
<pdfrwt beam="1">  1        2 0.17274903E+00 0.17424992E+04</pdfrwt>
<pdfrwt beam="2">  1       -2 0.89675437E-01 0.17424992E+04</pdfrwt>
<totfact> 0.21402803E+01</totfact>
</mgrwt>
</event>
<event>
 8    1  0.7326756E-052  0.1295530E+04  0.7818608E-02  0.9033118E-01
         -2   -1    0    0    0  501 -0.00000000000E+00  0.00000000000E+00  0.30512745829E+03  0.30512745830E+03  0.25500000000E-02 0. -1.
          2   -1    0    0  501    0  0.00000000000E+00 -0.00000000000E+00 -0.13751607684E+04  0.13751607684E+04  0.25500000000E-02 0.  1.
     200001    2    1    2    0    0 -0.15676755412E+03 -0.11775627907E+03 -0.43391815876E+03  0.77538265535E+03  0.61195644161E+03 0.  0.
    5000001    2    3    3    0    0  0.19196102337E+03  0.44635410652E+01 -0.26646264330E+03  0.35730173633E+03  0.14068842461E+03 0.  0.
        -11    1    4    4    0    0  0.19970913047E+03 -0.14701858459E+02 -0.23821304192E+03  0.31119983094E+03  0.51100000000E-03 0. -1.
     200002    1    4    4    0    0 -0.77481071024E+01  0.19165399524E+02 -0.28249601382E+02  0.46101905392E+02  0.30000000000E+02 0.  1.
     200000    1    3    3    0    0 -0.34872857749E+03 -0.12221982013E+03 -0.16745551547E+03  0.41808091902E+03  0.10100000000E+03 0. -1.
    -200001    1    1    2    0    0  0.15676755412E+03  0.11775627907E+03 -0.63611515135E+03  0.90490557135E+03  0.61300000000E+03 0.  1.
<mgrwt>
<rscale>  0 0.12955297E+04</rscale>
<asrwt>0</asrwt>
<pdfrwt beam="1">  1        2 0.19645153E+00 0.12955297E+04</pdfrwt>
<pdfrwt beam="2">  1       -2 0.43589638E-01 0.12955297E+04</pdfrwt>
<totfact> 0.83519439E+01</totfact>
</mgrwt>
</event>
<event>
 8    1  0.7326756E-052  0.1587531E+04  0.7818608E-02  0.8828245E-01
          2   -1    0    0  501    0  0.00000000000E+00  0.00000000000E+00  0.72256289760E+03  0.72256289760E+03  0.25500000000E-02 0.  1.
         -2   -1    0    0    0  501 -0.00000000000E+00 -0.00000000000E+00 -0.87198443687E+03  0.87198443688E+03  0.25500000000E-02 0. -1.
     200001    2    1    2    0    0  0.30644371771E+03  0.39559703430E+03 -0.14204776987E+02  0.79176633167E+03  0.61342267858E+03 0.  0.
    5000001    2    3    3    0    0  0.43965216819E+03  0.25072542562E+03  0.12763053649E+03  0.52899165551E+03  0.85938057412E+02 0.  0.
        -11    1    4    4    0    0  0.10602788083E+03  0.66337058356E+02  0.66880399377E+02  0.14182913891E+03  0.51100000000E-03 0. -1.
     200002    1    4    4    0    0  0.33362428736E+03  0.18438836727E+03  0.60750137117E+02  0.38716251660E+03  0.30000000000E+02 0. -1.
     200000    1    3    3    0    0 -0.13320845047E+03  0.14487160867E+03 -0.14183531348E+03  0.26277467615E+03  0.10100000000E+03 0. -1.
    -200001    1    1    2    0    0 -0.30644371771E+03 -0.39559703430E+03 -0.13521676229E+03  0.80278100281E+03  0.61300000000E+03 0. -1.
<mgrwt>
<rscale>  0 0.15875309E+04</rscale>
<asrwt>0</asrwt>
<pdfrwt beam="1">  1        2 0.10322327E+00 0.15875309E+04</pdfrwt>
<pdfrwt beam="2">  1       -2 0.12456921E+00 0.15875309E+04</pdfrwt>
<totfact> 0.20129303E+01</totfact>
</mgrwt>
</event>
<event>
 8    1  0.7326756E-052  0.1532503E+04  0.7818608E-02  0.8863122E-01
          2   -1    0    0  501    0  0.00000000000E+00  0.00000000000E+00  0.27310694006E+04  0.27310694006E+04  0.25500000000E-02 0.  1.
         -2   -1    0    0    0  501 -0.00000000000E+00 -0.00000000000E+00 -0.21498598129E+03  0.21498598131E+03  0.25500000000E-02 0. -1.
     200001    2    1    2    0    0 -0.10968439282E+03  0.10404687591E+03  0.42342878955E+03  0.76023086520E+03  0.61302741388E+03 0.  0.
    5000001    2    3    3    0    0 -0.18643794334E+03  0.28688577446E+03  0.35934928218E+03  0.52865290078E+03  0.18242650191E+03 0.  0.
        -11    1    4    4    0    0 -0.21554460690E+03  0.22304102624E+03  0.27073248573E+03  0.41170724524E+03  0.51100000000E-03 0. -1.
     200002    1    4    4    0    0  0.29106663560E+02  0.63844748221E+02  0.88616796446E+02  0.11694565555E+03  0.30000000000E+02 0. -1.
     200000    1    3    3    0    0  0.76753550518E+02 -0.18283889855E+03  0.64079507378E+02  0.23157796442E+03  0.10100000000E+03 0. -1.
    -200001    1    1    2    0    0  0.10968439282E+03 -0.10404687591E+03  0.20926546297E+04  0.21858245167E+04  0.61300000000E+03 0.  1.
<mgrwt>
<rscale>  0 0.15325034E+04</rscale>
<asrwt>0</asrwt>
<pdfrwt beam="1">  1        2 0.39015277E+00 0.15325034E+04</pdfrwt>
<pdfrwt beam="2">  1       -2 0.30712283E-01 0.15325034E+04</pdfrwt>
<totfact> 0.31508260E+01</totfact>
</mgrwt>
</event>
<event>
 8    1  0.7326756E-052  0.1442764E+04  0.7818608E-02  0.8923432E-01
          2   -1    0    0  501    0  0.00000000000E+00  0.00000000000E+00  0.80945613871E+03  0.80945613871E+03  0.25500000000E-02 0.  1.
         -2   -1    0    0    0  501 -0.00000000000E+00 -0.00000000000E+00 -0.64289119692E+03  0.64289119692E+03  0.25500000000E-02 0. -1.
     200001    2    1    2    0    0 -0.22226308673E+03 -0.13796133853E+03  0.36196320470E+03  0.75780886169E+03  0.61222765263E+03 0.  0.
    5000001    2    3    3    0    0  0.12243187983E+02 -0.21702803553E+03 -0.80896254172E+02  0.24053694503E+03  0.63739737414E+02 0.  0.
        -11    1    4    4    0    0  0.90642859703E+01 -0.13015712913E+03 -0.24772460497E+02  0.13280329191E+03  0.51100000000E-03 0. -1.
     200002    1    4    4    0    0  0.31789020124E+01 -0.86870906401E+02 -0.56123793675E+02  0.10773365311E+03  0.30000000000E+02 0. -1.
     200000    1    3    3    0    0 -0.23450627471E+03  0.79066697007E+02  0.44285945887E+03  0.51727191666E+03  0.10100000000E+03 0. -1.
    -200001    1    1    2    0    0  0.22226308673E+03  0.13796133853E+03 -0.19539826291E+03  0.69453847395E+03  0.61300000000E+03 0. -1.
<mgrwt>
<rscale>  0 0.14427643E+04</rscale>
<asrwt>0</asrwt>
<pdfrwt beam="1">  1        2 0.11563659E+00 0.14427643E+04</pdfrwt>
<pdfrwt beam="2">  1       -2 0.91841599E-01 0.14427643E+04</pdfrwt>
<totfact> 0.36702492E+01</totfact>
</mgrwt>
</event>
<event>
 8    1  0.7326756E-052  0.1566904E+04  0.7818608E-02  0.8841142E-01
         -2   -1    0    0    0  501 -0.00000000000E+00  0.00000000000E+00  0.16744355190E+04  0.16744355190E+04  0.25500000000E-02 0. -1.
          2   -1    0    0  501    0  0.00000000000E+00 -0.00000000000E+00 -0.36656935312E+03  0.36656935313E+03  0.25500000000E-02 0.  1.
     200001    2    1    2    0    0  0.28360864707E+03 -0.25578450163E+03  0.25810941305E+03  0.76679224621E+03  0.61277263629E+03 0.  0.
    5000001    2    3    3    0    0 -0.82639401920E+02  0.11773943755E+03 -0.24398020189E+01  0.17371159402E+03  0.97354606261E+02 0.  0.
        -11    1    4    4    0    0 -0.24730233400E+02  0.63960110342E+02  0.39721885274E+02  0.79248396381E+02  0.51100000000E-03 0. -1.
     200002    1    4    4    0    0 -0.57909168519E+02  0.53779327207E+02 -0.42161687293E+02  0.94463197643E+02  0.30000000000E+02 0. -1.
     200000    1    3    3    0    0  0.36624804899E+03 -0.37352393918E+03  0.26054921507E+03  0.59308065219E+03  0.10100000000E+03 0. -1.
    -200001    1    1    2    0    0 -0.28360864707E+03  0.25578450163E+03  0.10497567529E+04  0.12742126260E+04  0.61300000000E+03 0. -1.
<mgrwt>
<rscale>  0 0.15669036E+04</rscale>
<asrwt>0</asrwt>
<pdfrwt beam="1">  1        2 0.52367049E-01 0.15669036E+04</pdfrwt>
<pdfrwt beam="2">  1       -2 0.23920508E+00 0.15669036E+04</pdfrwt>
<totfact> 0.68834868E+00</totfact>
</mgrwt>
</event>
<event>
 8    1  0.7326756E-052  0.1994802E+04  0.7818608E-02  0.8609055E-01
         -2   -1    0    0    0  501 -0.00000000000E+00  0.00000000000E+00  0.12524799768E+04  0.12524799768E+04  0.25500000000E-02 0. -1.
          2   -1    0    0  501    0  0.00000000000E+00 -0.00000000000E+00 -0.79427109623E+03  0.79427109623E+03  0.25500000000E-02 0.  1.
     200001    2    1    2    0    0 -0.95781797488E+02  0.39396586172E+03  0.92052291397E+03  0.11784846862E+04  0.61406878081E+03 0.  0.
    5000001    2    3    3    0    0 -0.27228785623E+03  0.39732582075E+03  0.81712360084E+03  0.95032225273E+03  0.58420206312E+02 0.  0.
        -11    1    4    4    0    0 -0.14772439803E+03  0.23848479764E+03  0.49612932030E+03  0.56994894415E+03  0.51100000000E-03 0. -1.
     200002    1    4    4    0    0 -0.12456345820E+03  0.15884102311E+03  0.32099428054E+03  0.38037330858E+03  0.30000000000E+02 0.  1.
     200000    1    3    3    0    0  0.17650605874E+03 -0.33599590246E+01  0.10339931313E+03  0.22816243348E+03  0.10100000000E+03 0. -1.
    -200001    1    1    2    0    0  0.95781797488E+02 -0.39396586172E+03 -0.46231403342E+03  0.86826638679E+03  0.61300000000E+03 0.  1.
<mgrwt>
<rscale>  0 0.19948019E+04</rscale>
<asrwt>0</asrwt>
<pdfrwt beam="1">  1        2 0.11346730E+00 0.19948019E+04</pdfrwt>
<pdfrwt beam="2">  1       -2 0.17892571E+00 0.19948019E+04</pdfrwt>
<totfact> 0.65987698E+00</totfact>
</mgrwt>
</event>
<event>
 8    1  0.7326756E-052  0.2230336E+04  0.7818608E-02  0.8505907E-01
          2   -1    0    0  501    0  0.00000000000E+00  0.00000000000E+00  0.17737058872E+04  0.17737058872E+04  0.25500000000E-02 0. -1.
         -2   -1    0    0    0  501 -0.00000000000E+00 -0.00000000000E+00 -0.70113041935E+03  0.70113041935E+03  0.25500000000E-02 0.  1.
     200001    2    1    2    0    0  0.26143789707E+03 -0.33771166071E+03 -0.38137631339E+03  0.84016700605E+03  0.61484450542E+03 0.  0.
    5000001    2    3    3    0    0  0.61759233476E+02 -0.29090288973E+03 -0.41037812991E+03  0.60972235956E+03  0.33898739219E+03 0.  0.
        -11    1    4    4    0    0  0.67651930532E+02  0.59973539926E+02 -0.13575906544E+03  0.16310773448E+03  0.51100000000E-03 0. -1.
     200002    1    4    4    0    0 -0.58926970569E+01 -0.35087642965E+03 -0.27461906447E+03  0.44661462508E+03  0.30000000000E+02 0. -1.
     200000    1    3    3    0    0  0.19967866360E+03 -0.46808770983E+02  0.29001816527E+02  0.23044464650E+03  0.10100000000E+03 0. -1.
    -200001    1    1    2    0    0 -0.26143789707E+03  0.33771166071E+03  0.14539517812E+04  0.16346693005E+04  0.61300000000E+03 0. -1.
<mgrwt>
<rscale>  0 0.22303355E+04</rscale>
<asrwt>0</asrwt>
<pdfrwt beam="1">  1        2 0.25338656E+00 0.22303355E+04</pdfrwt>
<pdfrwt beam="2">  1       -2 0.10016149E+00 0.22303355E+04</pdfrwt>
<totfact> 0.79186069E+00</totfact>
</mgrwt>
</event>
<event>
 8    1  0.7326756E-052  0.1599128E+04  0.7818608E-02  0.8821084E-01
         -2   -1    0    0    0  501 -0.00000000000E+00  0.00000000000E+00  0.43045003242E+03  0.43045003243E+03  0.25500000000E-02 0. -1.
          2   -1    0    0  501    0  0.00000000000E+00 -0.00000000000E+00 -0.14851961060E+04  0.14851961060E+04  0.25500000000E-02 0.  1.
     200001    2    1    2    0    0 -0.35055579602E+03 -0.28646717338E+03 -0.23799171325E+03  0.79859220390E+03  0.61331610530E+03 0.  0.
    5000001    2    3    3    0    0 -0.37608019260E+03 -0.19554869365E+02  0.52471831013E+02  0.39059251836E+03  0.89389698318E+02 0.  0.
        -11    1    4    4    0    0 -0.33553878936E+02  0.60242467342E+00 -0.19375221499E+02  0.38750805353E+02  0.51100000000E-03 0. -1.
     200002    1    4    4    0    0 -0.34252631367E+03 -0.20157294038E+02  0.71847052512E+02  0.35184171301E+03  0.30000000000E+02 0. -1.
     200000    1    3    3    0    0  0.25524396588E+02 -0.26691230401E+03 -0.29046354427E+03  0.40799968554E+03  0.10100000000E+03 0.  1.
    -200001    1    1    2    0    0  0.35055579602E+03  0.28646717338E+03 -0.81675436036E+03  0.11170539346E+04  0.61300000000E+03 0.  1.
<mgrwt>
<rscale>  0 0.15991282E+04</rscale>
<asrwt>0</asrwt>
<pdfrwt beam="1">  1        2 0.21217087E+00 0.15991282E+04</pdfrwt>
<pdfrwt beam="2">  1       -2 0.61492862E-01 0.15991282E+04</pdfrwt>
<totfact> 0.35165210E+01</totfact>
</mgrwt>
</event>
<event>
 8    1  0.7326756E-052  0.1775904E+04  0.7818608E-02  0.8719220E-01
         -2   -1    0    0    0  501 -0.00000000000E+00  0.00000000000E+00  0.84209728296E+03  0.84209728296E+03  0.25500000000E-02 0. -1.
          2   -1    0    0  501    0  0.00000000000E+00 -0.00000000000E+00 -0.93630324666E+03  0.93630324667E+03  0.25500000000E-02 0.  1.
     200001    2    1    2    0    0  0.11854171015E+03 -0.63108970916E+03 -0.36103755633E+02  0.88875384435E+03  0.61339510645E+03 0.  0.
    5000001    2    3    3    0    0  0.25096815942E+03 -0.43898426804E+03  0.19350669186E+03  0.54617068280E+03  0.71870510865E+02 0.  0.
        -11    1    4    4    0    0  0.17347893357E+03 -0.25080317711E+03  0.12021925055E+03  0.32779542743E+03  0.51100000000E-03 0. -1.
     200002    1    4    4    0    0  0.77489225850E+02 -0.18818109093E+03  0.73287441309E+02  0.21837525537E+03  0.30000000000E+02 0.  1.
     200000    1    3    3    0    0 -0.13242644928E+03 -0.19210544112E+03 -0.22961044749E+03  0.34258316154E+03  0.10100000000E+03 0.  1.
    -200001    1    1    2    0    0 -0.11854171015E+03  0.63108970916E+03 -0.58102208073E+02  0.88964668528E+03  0.61300000000E+03 0. -1.
<mgrwt>
<rscale>  0 0.17759036E+04</rscale>
<asrwt>0</asrwt>
<pdfrwt beam="1">  1        2 0.13375761E+00 0.17759036E+04</pdfrwt>
<pdfrwt beam="2">  1       -2 0.12029961E+00 0.17759036E+04</pdfrwt>
<totfact> 0.15422984E+01</totfact>
</mgrwt>
</event>
<event>
 8    1  0.7326756E-052  0.1330304E+04  0.7818608E-02  0.9005873E-01
          2   -1    0    0  501    0  0.00000000000E+00  0.00000000000E+00  0.31688725622E+04  0.31688725622E+04  0.25500000000E-02 0.  1.
         -2   -1    0    0    0  501 -0.00000000000E+00 -0.00000000000E+00 -0.13961658945E+03  0.13961658948E+03  0.25500000000E-02 0. -1.
     200001    2    1    2    0    0  0.52662744279E+02  0.77593743270E+02  0.21126655882E+04  0.22018270141E+04  0.61310044774E+03 0.  0.
    5000001    2    3    3    0    0 -0.25938624637E+03  0.30313052523E+02  0.79456155666E+03  0.84270624165E+03  0.10308072770E+03 0.  0.
        -11    1    4    4    0    0 -0.16903284602E+03 -0.23523774289E+02  0.51333093433E+03  0.54095667029E+03  0.51100000000E-03 0. -1.
     200002    1    4    4    0    0 -0.90353400349E+02  0.53836826812E+02  0.28123062233E+03  0.30174957135E+03  0.30000000000E+02 0. -1.
     200000    1    3    3    0    0  0.31204899065E+03  0.47280690747E+02  0.13181040315E+04  0.13591207725E+04  0.10100000000E+03 0.  1.
    -200001    1    1    2    0    0 -0.52662744279E+02 -0.77593743270E+02  0.91659038458E+03  0.11066621376E+04  0.61300000000E+03 0. -1.
<mgrwt>
<rscale>  0 0.13303040E+04</rscale>
<asrwt>0</asrwt>
<pdfrwt beam="1">  1        2 0.45269607E+00 0.13303040E+04</pdfrwt>
<pdfrwt beam="2">  1       -2 0.19945228E-01 0.13303040E+04</pdfrwt>
<totfact> 0.40159435E+01</totfact>
</mgrwt>
</event>
<event>
 8    1  0.7326756E-052  0.1438791E+04  0.7818608E-02  0.8926208E-01
         -2   -1    0    0    0  501 -0.00000000000E+00  0.00000000000E+00  0.58552452639E+03  0.58552452640E+03  0.25500000000E-02 0. -1.
          2   -1    0    0  501    0  0.00000000000E+00 -0.00000000000E+00 -0.88387419707E+03  0.88387419708E+03  0.25500000000E-02 0.  1.
     200001    2    1    2    0    0 -0.25213083929E+03  0.27820718196E+03 -0.14065969735E+03  0.73346100607E+03  0.61417481286E+03 0.  0.
    5000001    2    3    3    0    0  0.66834534158E+02  0.24790993038E+03 -0.26524674485E+03  0.37515978458E+03  0.66804489219E+02 0.  0.
        -11    1    4    4    0    0  0.17878408868E+02  0.15481734758E+03 -0.15109251843E+03  0.21706450134E+03  0.51100000000E-03 0. -1.
     200002    1    4    4    0    0  0.48956125290E+02  0.93092582801E+02 -0.11415422642E+03  0.15809528325E+03  0.30000000000E+02 0. -1.
     200000    1    3    3    0    0 -0.31896537345E+03  0.30297251584E+02  0.12458704750E+03  0.35830122149E+03  0.10100000000E+03 0.  1.
    -200001    1    1    2    0    0  0.25213083929E+03 -0.27820718196E+03 -0.15768997333E+03  0.73593771741E+03  0.61300000000E+03 0. -1.
<mgrwt>
<rscale>  0 0.14387912E+04</rscale>
<asrwt>0</asrwt>
<pdfrwt beam="1">  1        2 0.12626774E+00 0.14387912E+04</pdfrwt>
<pdfrwt beam="2">  1       -2 0.83646361E-01 0.14387912E+04</pdfrwt>
<totfact> 0.40498292E+01</totfact>
</mgrwt>
</event>
<event>
 8    1  0.7326756E-052  0.1301721E+04  0.7818608E-02  0.9028202E-01
          2   -1    0    0  501    0  0.00000000000E+00  0.00000000000E+00  0.37620745900E+04  0.37620745900E+04  0.25500000000E-02 0.  1.
         -2   -1    0    0    0  501 -0.00000000000E+00 -0.00000000000E+00 -0.11260259292E+03  0.11260259295E+03  0.25500000000E-02 0. -1.
     200001    2    1    2    0    0 -0.27752882439E+02 -0.19288219767E+03  0.21174776396E+04  0.22131268599E+04  0.61338827762E+03 0.  0.
    5000001    2    3    3    0    0 -0.16902635075E+03 -0.35176740549E+03  0.11631876514E+04  0.12302366912E+04  0.90369182909E+02 0.  0.
        -11    1    4    4    0    0 -0.31921959442E+02 -0.11816487907E+03  0.27109026318E+03  0.29744223125E+03  0.51100000000E-03 0. -1.
     200002    1    4    4    0    0 -0.13710439131E+03 -0.23360252643E+03  0.89209738819E+03  0.93279445993E+03  0.30000000000E+02 0. -1.
     200000    1    3    3    0    0  0.14127346831E+03  0.15888520782E+03  0.95428998828E+03  0.98289016876E+03  0.10100000000E+03 0.  1.
    -200001    1    1    2    0    0  0.27752882439E+02  0.19288219767E+03  0.15319943574E+04  0.16615503230E+04  0.61300000000E+03 0.  1.
<mgrwt>
<rscale>  0 0.13017209E+04</rscale>
<asrwt>0</asrwt>
<pdfrwt beam="1">  1        2 0.53743918E+00 0.13017209E+04</pdfrwt>
<pdfrwt beam="2">  1       -2 0.16086086E-01 0.13017209E+04</pdfrwt>
<totfact> 0.25670963E+01</totfact>
</mgrwt>
</event>
<event>
 8    1  0.7326756E-052  0.1993833E+04  0.7818608E-02  0.8609509E-01
         -2   -1    0    0    0  501 -0.00000000000E+00  0.00000000000E+00  0.33189494073E+03  0.33189494074E+03  0.25500000000E-02 0. -1.
          2   -1    0    0  501    0  0.00000000000E+00 -0.00000000000E+00 -0.29944487737E+04  0.29944487737E+04  0.25500000000E-02 0.  1.
     200001    2    1    2    0    0  0.44149415539E+03  0.63640420813E+03 -0.15552402562E+04  0.18424839628E+04  0.61322711383E+03 0.  0.
    5000001    2    3    3    0    0  0.49615534314E+03  0.50672583078E+03 -0.14984702775E+04  0.16601980404E+04  0.88899767642E+02 0.  0.
        -11    1    4    4    0    0  0.43442666052E+03  0.44174010422E+03 -0.13231617119E+04  0.14610331136E+04  0.51100000000E-03 0. -1.
     200002    1    4    4    0    0  0.61728682617E+02  0.64985726563E+02 -0.17530856561E+03  0.19916492686E+03  0.30000000000E+02 0.  1.
     200000    1    3    3    0    0 -0.54661187752E+02  0.12967837734E+03 -0.56769978657E+02  0.18228592231E+03  0.10100000000E+03 0.  1.
    -200001    1    1    2    0    0 -0.44149415539E+03 -0.63640420813E+03 -0.11073135767E+04  0.14838597516E+04  0.61300000000E+03 0. -1.
<mgrwt>
<rscale>  0 0.19938329E+04</rscale>
<asrwt>0</asrwt>
<pdfrwt beam="1">  1        2 0.42777838E+00 0.19938329E+04</pdfrwt>
<pdfrwt beam="2">  1       -2 0.47413565E-01 0.19938329E+04</pdfrwt>
<totfact> 0.93523560E+00</totfact>
</mgrwt>
</event>
<event>
 8    1  0.7326756E-052  0.1949260E+04  0.7818608E-02  0.8630718E-01
          2   -1    0    0  501    0  0.00000000000E+00  0.00000000000E+00  0.40550173654E+04  0.40550173654E+04  0.25500000000E-02 0.  1.
         -2   -1    0    0    0  501 -0.00000000000E+00 -0.00000000000E+00 -0.23425386732E+03  0.23425386734E+03  0.25500000000E-02 0. -1.
     200001    2    1    2    0    0 -0.25535213122E+03 -0.70317423452E+03  0.16415292077E+04  0.19050544206E+04  0.61233609287E+03 0.  0.
    5000001    2    3    3    0    0  0.86478932810E+02 -0.25232657362E+03  0.87979997661E+03  0.95082986044E+03  0.24265638068E+03 0.  0.
        -11    1    4    4    0    0  0.10197904749E+03 -0.11005785482E+03  0.17272159953E+03  0.22879075261E+03  0.51100000000E-03 0. -1.
     200002    1    4    4    0    0 -0.15500114679E+02 -0.14226871880E+03  0.70707837708E+03  0.72203910784E+03  0.30000000000E+02 0. -1.
     200000    1    3    3    0    0 -0.34183106403E+03 -0.45084766090E+03  0.76172923106E+03  0.95422456011E+03  0.10100000000E+03 0.  1.
    -200001    1    1    2    0    0  0.25535213122E+03  0.70317423452E+03  0.21792342904E+04  0.23842168122E+04  0.61300000000E+03 0.  1.
<mgrwt>
<rscale>  0 0.19492599E+04</rscale>
<asrwt>0</asrwt>
<pdfrwt beam="1">  1        2 0.57928819E+00 0.19492599E+04</pdfrwt>
<pdfrwt beam="2">  1       -2 0.33464838E-01 0.19492599E+04</pdfrwt>
<totfact> 0.41071192E+00</totfact>
</mgrwt>
</event>
<event>
 8    1  0.7326756E-052  0.1251076E+04  0.7818608E-02  0.9069288E-01
         -2   -1    0    0    0  501 -0.00000000000E+00  0.00000000000E+00  0.85586786951E+03  0.85586786951E+03  0.25500000000E-02 0. -1.
          2   -1    0    0  501    0  0.00000000000E+00 -0.00000000000E+00 -0.45719434531E+03  0.45719434531E+03  0.25500000000E-02 0.  1.
     200001    2    1    2    0    0 -0.67488717547E+02  0.93330004560E+02  0.25337269342E+03  0.67263536641E+03  0.61235234761E+03 0.  0.
    5000001    2    3    3    0    0 -0.39522536838E+02 -0.23714480779E+03  0.39362742377E+02  0.26520811154E+03  0.10481520005E+03 0.  0.
        -11    1    4    4    0    0 -0.49137818210E+02 -0.55809755921E+02  0.32161250775E+02  0.81016048324E+02  0.51100000000E-03 0. -1.
     200002    1    4    4    0    0  0.96152813713E+01 -0.18133505187E+03  0.72014916020E+01  0.18419206322E+03  0.30000000000E+02 0. -1.
     200000    1    3    3    0    0 -0.27966180709E+02  0.33047481235E+03  0.21400995104E+03  0.40742725486E+03  0.10100000000E+03 0. -1.
    -200001    1    1    2    0    0  0.67488717547E+02 -0.93330004560E+02  0.14530083078E+03  0.64042684842E+03  0.61300000000E+03 0.  1.
<mgrwt>
<rscale>  0 0.12510763E+04</rscale>
<asrwt>0</asrwt>
<pdfrwt beam="1">  1        2 0.65313478E-01 0.12510763E+04</pdfrwt>
<pdfrwt beam="2">  1       -2 0.12226684E+00 0.12510763E+04</pdfrwt>
<totfact> 0.37099101E+01</totfact>
</mgrwt>
</event>
<event>
 8    1  0.7326756E-052  0.1342077E+04  0.7818608E-02  0.8996847E-01
          2   -1    0    0  501    0  0.00000000000E+00  0.00000000000E+00  0.40192869518E+04  0.40192869518E+04  0.25500000000E-02 0.  1.
         -2   -1    0    0    0  501 -0.00000000000E+00 -0.00000000000E+00 -0.11203301941E+03  0.11203301944E+03  0.25500000000E-02 0. -1.
     200001    2    1    2    0    0  0.13747470216E+03  0.23805779763E+03  0.19907370829E+04  0.21004638357E+04  0.61101831664E+03 0.  0.
    5000001    2    3    3    0    0  0.65980445729E+02  0.59722763757E+02  0.17961967059E+04  0.18089818101E+04  0.19537746813E+03 0.  0.
        -11    1    4    4    0    0  0.94684600742E+02  0.11217338698E+03  0.13118529234E+04  0.13200402020E+04  0.51100000000E-03 0. -1.
     200002    1    4    4    0    0 -0.28704155013E+02 -0.52450623226E+02  0.48434378255E+03  0.48894160806E+03  0.30000000000E+02 0. -1.
     200000    1    3    3    0    0  0.71494256429E+02  0.17833503388E+03  0.19454037694E+03  0.29148202564E+03  0.10100000000E+03 0. -1.
    -200001    1    1    2    0    0 -0.13747470216E+03 -0.23805779763E+03  0.19165168495E+04  0.20308561356E+04  0.61300000000E+03 0. -1.
<mgrwt>
<rscale>  0 0.13420773E+04</rscale>
<asrwt>0</asrwt>
<pdfrwt beam="1">  1        2 0.57418382E+00 0.13420773E+04</pdfrwt>
<pdfrwt beam="2">  1       -2 0.16004718E-01 0.13420773E+04</pdfrwt>
<totfact> 0.17426410E+01</totfact>
</mgrwt>
</event>
<event>
 8    1  0.7326756E-052  0.1827782E+04  0.7818608E-02  0.8691664E-01
         -2   -1    0    0    0  501 -0.00000000000E+00  0.00000000000E+00  0.67031502810E+03  0.67031502810E+03  0.25500000000E-02 0. -1.
          2   -1    0    0  501    0  0.00000000000E+00 -0.00000000000E+00 -0.12459758646E+04  0.12459758646E+04  0.25500000000E-02 0.  1.
     200001    2    1    2    0    0  0.53943673765E+03 -0.28250639417E+03  0.24155972349E+02  0.86445865284E+03  0.61310961075E+03 0.  0.
    5000001    2    3    3    0    0  0.22299253146E+03  0.74003998048E+02  0.20463508936E+03  0.34483349268E+03  0.14775776481E+03 0.  0.
        -11    1    4    4    0    0  0.16963485210E+03  0.64039666253E+02  0.66000385149E+02  0.19295883690E+03  0.51100000000E-03 0. -1.
     200002    1    4    4    0    0  0.53357679365E+02  0.99643317952E+01  0.13863470421E+03  0.15187465578E+03  0.30000000000E+02 0. -1.
     200000    1    3    3    0    0  0.31644420619E+03 -0.35651039222E+03 -0.18047911701E+03  0.51962516016E+03  0.10100000000E+03 0.  1.
    -200001    1    1    2    0    0 -0.53943673765E+03  0.28250639417E+03 -0.59981680890E+03  0.10518322399E+04  0.61300000000E+03 0.  1.
<mgrwt>
<rscale>  0 0.18277815E+04</rscale>
<asrwt>0</asrwt>
<pdfrwt beam="1">  1        2 0.17799655E+00 0.18277815E+04</pdfrwt>
<pdfrwt beam="2">  1       -2 0.95759290E-01 0.18277815E+04</pdfrwt>
<totfact> 0.17401923E+01</totfact>
</mgrwt>
</event>
<event>
 8    1  0.7326756E-052  0.1818017E+04  0.7818608E-02  0.8696777E-01
          2   -1    0    0  501    0  0.00000000000E+00  0.00000000000E+00  0.57790449068E+03  0.57790449068E+03  0.25500000000E-02 0.  1.
         -2   -1    0    0    0  501 -0.00000000000E+00 -0.00000000000E+00 -0.14298145998E+04  0.14298145998E+04  0.25500000000E-02 0. -1.
     200001    2    1    2    0    0 -0.61744672184E+03  0.18753908340E+03 -0.21202807606E+03  0.91153052168E+03  0.60788208133E+03 0.  0.
    5000001    2    3    3    0    0 -0.51105901098E+03  0.21050394477E+03 -0.38791626857E+03  0.68134931884E+03  0.90910062135E+02 0.  0.
        -11    1    4    4    0    0 -0.78235592628E+02  0.17208893078E+02 -0.26052611606E+02  0.84235933702E+02  0.51100000000E-03 0. -1.
     200002    1    4    4    0    0 -0.43282341835E+03  0.19329505169E+03 -0.36186365696E+03  0.59711338514E+03  0.30000000000E+02 0. -1.
     200000    1    3    3    0    0 -0.10638771086E+03 -0.22964861361E+02  0.17588819251E+03  0.23018120284E+03  0.10100000000E+03 0.  1.
    -200001    1    1    2    0    0  0.61744672184E+03 -0.18753908340E+03 -0.63988203305E+03  0.10961885688E+04  0.61300000000E+03 0. -1.
<mgrwt>
<rscale>  0 0.18180168E+04</rscale>
<asrwt>0</asrwt>
<pdfrwt beam="1">  1        2 0.82557785E-01 0.18180168E+04</pdfrwt>
<pdfrwt beam="2">  1       -2 0.20425923E+00 0.18180168E+04</pdfrwt>
<totfact> 0.66852869E+00</totfact>
</mgrwt>
</event>
<event>
 8    1  0.7326756E-052  0.1441960E+04  0.7818608E-02  0.8923994E-01
          2   -1    0    0  501    0  0.00000000000E+00  0.00000000000E+00  0.17897382328E+04  0.17897382328E+04  0.25500000000E-02 0.  1.
         -2   -1    0    0    0  501 -0.00000000000E+00 -0.00000000000E+00 -0.29044027140E+03  0.29044027141E+03  0.25500000000E-02 0. -1.
     200001    2    1    2    0    0 -0.31876858502E+02 -0.21740623063E+01  0.20284621803E+03  0.64575284091E+03  0.61223302975E+03 0.  0.
    5000001    2    3    3    0    0 -0.29678932240E+03 -0.11906275457E+02  0.18227446313E+03  0.36132793588E+03  0.95437079045E+02 0.  0.
        -11    1    4    4    0    0 -0.18612817328E+03 -0.38842250775E+02  0.14028943263E+03  0.23629122337E+03  0.51100000000E-03 0. -1.
     200002    1    4    4    0    0 -0.11066114912E+03  0.26935975318E+02  0.41985030500E+02  0.12503671252E+03  0.30000000000E+02 0. -1.
     200000    1    3    3    0    0  0.26491246390E+03  0.97322131507E+01  0.20571754909E+02  0.28442490503E+03  0.10100000000E+03 0.  1.
    -200001    1    1    2    0    0  0.31876858502E+02  0.21740623063E+01  0.12964517433E+04  0.14344256633E+04  0.61300000000E+03 0.  1.
<mgrwt>
<rscale>  0 0.14419599E+04</rscale>
<asrwt>0</asrwt>
<pdfrwt beam="1">  1        2 0.25567690E+00 0.14419599E+04</pdfrwt>
<pdfrwt beam="2">  1       -2 0.41491466E-01 0.14419599E+04</pdfrwt>
<totfact> 0.55067349E+01</totfact>
</mgrwt>
</event>
<event>
 8    1  0.7326756E-052  0.1254437E+04  0.7818608E-02  0.9066499E-01
          2   -1    0    0  501    0  0.00000000000E+00  0.00000000000E+00  0.11498952512E+04  0.11498952512E+04  0.25500000000E-02 0.  1.
         -2   -1    0    0    0  501 -0.00000000000E+00 -0.00000000000E+00 -0.34212051794E+03  0.34212051794E+03  0.25500000000E-02 0. -1.
     200001    2    1    2    0    0  0.16308036456E+02  0.95778286371E+02  0.29616898949E+03  0.68768445105E+03  0.61298809262E+03 0.  0.
    5000001    2    3    3    0    0 -0.11670947005E+02 -0.81169832486E+01  0.45929068431E+03  0.46771459429E+03  0.87217616334E+02 0.  0.
        -11    1    4    4    0    0  0.19287234887E+02  0.26623620465E+02  0.18343151265E+03  0.18635432495E+03  0.51100000000E-03 0. -1.
     200002    1    4    4    0    0 -0.30958181892E+02 -0.34740603713E+02  0.27585917166E+03  0.28136026934E+03  0.30000000000E+02 0. -1.
     200000    1    3    3    0    0  0.27978983461E+02  0.10389526962E+03 -0.16312169482E+03  0.21996985676E+03  0.10100000000E+03 0. -1.
    -200001    1    1    2    0    0 -0.16308036456E+02 -0.95778286371E+02  0.51160574375E+03  0.80433131807E+03  0.61300000000E+03 0.  1.
<mgrwt>
<rscale>  0 0.12544365E+04</rscale>
<asrwt>0</asrwt>
<pdfrwt beam="1">  1        2 0.16427075E+00 0.12544365E+04</pdfrwt>
<pdfrwt beam="2">  1       -2 0.48874359E-01 0.12544365E+04</pdfrwt>
<totfact> 0.89030222E+01</totfact>
</mgrwt>
</event>
<event>
 8    1  0.7326756E-052  0.1299891E+04  0.7818608E-02  0.9029652E-01
          2   -1    0    0  501    0  0.00000000000E+00  0.00000000000E+00  0.87050766902E+03  0.87050766903E+03  0.25500000000E-02 0.  1.
         -2   -1    0    0    0  501 -0.00000000000E+00 -0.00000000000E+00 -0.48526738960E+03  0.48526738961E+03  0.25500000000E-02 0. -1.
     200001    2    1    2    0    0  0.16000775247E+02  0.21570465700E+03  0.17864157703E+03  0.67369255066E+03  0.61250658438E+03 0.  0.
    5000001    2    3    3    0    0 -0.17595629843E+03  0.42004094621E+02  0.22540462680E+03  0.39189974321E+03  0.26467565061E+03 0.  0.
        -11    1    4    4    0    0 -0.13225935080E+03 -0.77287587651E+02  0.21075275535E+03  0.26054295417E+03  0.51100000000E-03 0. -1.
     200002    1    4    4    0    0 -0.43696947630E+02  0.11929168227E+03  0.14651871448E+02  0.13135678905E+03  0.30000000000E+02 0. -1.
     200000    1    3    3    0    0  0.19195707367E+03  0.17370056238E+03 -0.46763049769E+02  0.28179280745E+03  0.10100000000E+03 0. -1.
    -200001    1    1    2    0    0 -0.16000775247E+02 -0.21570465700E+03  0.20659870239E+03  0.68208250798E+03  0.61300000000E+03 0.  1.
<mgrwt>
<rscale>  0 0.12998907E+04</rscale>
<asrwt>0</asrwt>
<pdfrwt beam="1">  1        2 0.12435824E+00 0.12998907E+04</pdfrwt>
<pdfrwt beam="2">  1       -2 0.69323913E-01 0.12998907E+04</pdfrwt>
<totfact> 0.63384614E+01</totfact>
</mgrwt>
</event>
<event>
 8    1  0.7326756E-052  0.1299968E+04  0.7818608E-02  0.9029591E-01
         -2   -1    0    0    0  501 -0.00000000000E+00  0.00000000000E+00  0.14252357110E+03  0.14252357112E+03  0.25500000000E-02 0. -1.
          2   -1    0    0  501    0  0.00000000000E+00 -0.00000000000E+00 -0.29642740995E+04  0.29642740995E+04  0.25500000000E-02 0.  1.
     200001    2    1    2    0    0 -0.14221635432E+03  0.63687673966E+02 -0.10503216718E+04  0.12258375952E+04  0.61255251559E+03 0.  0.
    5000001    2    3    3    0    0 -0.31288375704E+03 -0.12783919355E+03 -0.48517578162E+03  0.59702857770E+03  0.82513506107E+02 0.  0.
        -11    1    4    4    0    0 -0.25750306680E+03 -0.87339492058E+02 -0.35974885330E+03  0.45094928067E+03  0.51100000000E-03 0. -1.
     200002    1    4    4    0    0 -0.55380690235E+02 -0.40499701494E+02 -0.12542692832E+03  0.14607929703E+03  0.30000000000E+02 0.  1.
     200000    1    3    3    0    0  0.17066740272E+03  0.19152686752E+03 -0.56514589016E+03  0.62880901751E+03  0.10100000000E+03 0.  1.
    -200001    1    1    2    0    0  0.14221635432E+03 -0.63687673966E+02 -0.17714288566E+04  0.18809600754E+04  0.61300000000E+03 0. -1.
<mgrwt>
<rscale>  0 0.12999676E+04</rscale>
<asrwt>0</asrwt>
<pdfrwt beam="1">  1        2 0.42346769E+00 0.12999676E+04</pdfrwt>
<pdfrwt beam="2">  1       -2 0.20360512E-01 0.12999676E+04</pdfrwt>
<totfact> 0.50582244E+01</totfact>
</mgrwt>
</event>
<event>
 8    1  0.7326756E-052  0.1290940E+04  0.7818608E-02  0.9036781E-01
         -2   -1    0    0    0  501 -0.00000000000E+00  0.00000000000E+00  0.21224367755E+03  0.21224367757E+03  0.25500000000E-02 0. -1.
          2   -1    0    0  501    0  0.00000000000E+00 -0.00000000000E+00 -0.19629864781E+04  0.19629864781E+04  0.25500000000E-02 0.  1.
     200001    2    1    2    0    0  0.20459239867E+02  0.12050700862E+03 -0.11480777254E+04  0.13069475333E+04  0.61244499462E+03 0.  0.
    5000001    2    3    3    0    0 -0.16056039040E+03  0.28261088242E+03 -0.43584389952E+03  0.54765589284E+03  0.65715465305E+02 0.  0.
        -11    1    4    4    0    0 -0.67919579712E+01  0.40630471605E+01 -0.30336096084E+02  0.31351519439E+02  0.51100000000E-03 0. -1.
     200002    1    4    4    0    0 -0.15376843243E+03  0.27854783526E+03 -0.40550780344E+03  0.51630437340E+03  0.30000000000E+02 0. -1.
     200000    1    3    3    0    0  0.18101963026E+03 -0.16210387380E+03 -0.71223382592E+03  0.75929164043E+03  0.10100000000E+03 0. -1.
    -200001    1    1    2    0    0 -0.20459239867E+02 -0.12050700862E+03 -0.60266507510E+03  0.86828262240E+03  0.61300000000E+03 0. -1.
<mgrwt>
<rscale>  0 0.12909399E+04</rscale>
<asrwt>0</asrwt>
<pdfrwt beam="1">  1        2 0.28042663E+00 0.12909399E+04</pdfrwt>
<pdfrwt beam="2">  1       -2 0.30320527E-01 0.12909399E+04</pdfrwt>
<totfact> 0.82699509E+01</totfact>
</mgrwt>
</event>
<event>
 8    1  0.7326756E-052  0.1379703E+04  0.7818608E-02  0.8968643E-01
          2   -1    0    0  501    0  0.00000000000E+00  0.00000000000E+00  0.77406075893E+03  0.77406075894E+03  0.25500000000E-02 0.  1.
         -2   -1    0    0    0  501 -0.00000000000E+00 -0.00000000000E+00 -0.61480338383E+03  0.61480338383E+03  0.25500000000E-02 0. -1.
     200001    2    1    2    0    0  0.27270994005E+03 -0.83098321233E+02 -0.58254924479E+02  0.67868343136E+03  0.61314070276E+03 0.  0.
    5000001    2    3    3    0    0  0.72078244358E+02 -0.28924580447E+03  0.12203933090E+03  0.32448450323E+03  0.39219712335E+02 0.  0.
        -11    1    4    4    0    0  0.55406095414E+01 -0.71630018719E+01  0.59585352518E+01  0.10840253342E+02  0.51100000000E-03 0. -1.
     200002    1    4    4    0    0  0.66537634817E+02 -0.28208280260E+03  0.11608079565E+03  0.31364424989E+03  0.30000000000E+02 0. -1.
     200000    1    3    3    0    0  0.20063169569E+03  0.20614748324E+03 -0.18029425538E+03  0.35419892813E+03  0.10100000000E+03 0. -1.
    -200001    1    1    2    0    0 -0.27270994005E+03  0.83098321233E+02  0.21751229958E+03  0.71018071141E+03  0.61300000000E+03 0. -1.
<mgrwt>
<rscale>  0 0.13797031E+04</rscale>
<asrwt>0</asrwt>
<pdfrwt beam="1">  1        2 0.11058011E+00 0.13797031E+04</pdfrwt>
<pdfrwt beam="2">  1       -2 0.87829055E-01 0.13797031E+04</pdfrwt>
<totfact> 0.43293797E+01</totfact>
</mgrwt>
</event>
<event>
 8    1  0.7326756E-052  0.2189711E+04  0.7818608E-02  0.8522723E-01
         -2   -1    0    0    0  501 -0.00000000000E+00  0.00000000000E+00  0.25093745368E+04  0.25093745368E+04  0.25500000000E-02 0. -1.
          2   -1    0    0  501    0  0.00000000000E+00 -0.00000000000E+00 -0.47769235850E+03  0.47769235851E+03  0.25500000000E-02 0.  1.
     200001    2    1    2    0    0 -0.85605106390E+03 -0.21527577521E+03  0.13017749684E+04  0.16879515738E+04  0.61269516393E+03 0.  0.
    5000001    2    3    3    0    0 -0.17419275095E+03 -0.88060667386E+02  0.70090133111E+03  0.76471565027E+03  0.23543481940E+03 0.  0.
        -11    1    4    4    0    0 -0.17515460981E+03 -0.71650607854E+02  0.25523649287E+03  0.31773985308E+03  0.51100000000E-03 0. -1.
     200002    1    4    4    0    0  0.96185885478E+00 -0.16410059532E+02  0.44566483824E+03  0.44697579718E+03  0.30000000000E+02 0. -1.
     200000    1    3    3    0    0 -0.68185831295E+03 -0.12721510782E+03  0.60087363726E+03  0.92323592356E+03  0.10100000000E+03 0. -1.
    -200001    1    1    2    0    0  0.85605106390E+03  0.21527577521E+03  0.72990720992E+03  0.12991153215E+04  0.61300000000E+03 0.  1.
<mgrwt>
<rscale>  0 0.21897114E+04</rscale>
<asrwt>0</asrwt>
<pdfrwt beam="1">  1        2 0.68241766E-01 0.21897114E+04</pdfrwt>
<pdfrwt beam="2">  1       -2 0.35848207E+00 0.21897114E+04</pdfrwt>
<totfact> 0.89455323E-01</totfact>
</mgrwt>
</event>
<event>
 8    1  0.7326756E-052  0.1260298E+04  0.7818608E-02  0.9061655E-01
          2   -1    0    0  501    0  0.00000000000E+00  0.00000000000E+00  0.50997521599E+03  0.50997521599E+03  0.25500000000E-02 0.  1.
         -2   -1    0    0    0  501 -0.00000000000E+00 -0.00000000000E+00 -0.77864181974E+03  0.77864181974E+03  0.25500000000E-02 0. -1.
     200001    2    1    2    0    0 -0.53667544067E+02  0.34047560201E+02 -0.26871231916E+03  0.67233102767E+03  0.61301163012E+03 0.  0.
    5000001    2    3    3    0    0 -0.21919443025E+03  0.14620580550E+03  0.32918487166E+02  0.29661735296E+03  0.13219641247E+03 0.  0.
        -11    1    4    4    0    0 -0.32813927895E+02 -0.23959804449E+02  0.42523598123E+01  0.40852278485E+02  0.51100000000E-03 0. -1.
     200002    1    4    4    0    0 -0.18638050235E+03  0.17016560995E+03  0.28666127354E+02  0.25576507448E+03  0.30000000000E+02 0. -1.
     200000    1    3    3    0    0  0.16552688618E+03 -0.11215824530E+03 -0.30163080633E+03  0.37571367471E+03  0.10100000000E+03 0. -1.
    -200001    1    1    2    0    0  0.53667544067E+02 -0.34047560201E+02  0.45715414557E-01  0.61628600806E+03  0.61300000000E+03 0.  1.
<mgrwt>
<rscale>  0 0.12602984E+04</rscale>
<asrwt>0</asrwt>
<pdfrwt beam="1">  1        2 0.72853602E-01 0.12602984E+04</pdfrwt>
<pdfrwt beam="2">  1       -2 0.11123455E+00 0.12602984E+04</pdfrwt>
<totfact> 0.41298606E+01</totfact>
</mgrwt>
</event>
<event>
 8    1  0.7326756E-052  0.1476716E+04  0.7818608E-02  0.8900086E-01
         -2   -1    0    0    0  501 -0.00000000000E+00  0.00000000000E+00  0.55557625587E+03  0.55557625588E+03  0.25500000000E-02 0. -1.
          2   -1    0    0  501    0  0.00000000000E+00 -0.00000000000E+00 -0.98127457382E+03  0.98127457382E+03  0.25500000000E-02 0.  1.
     200001    2    1    2    0    0  0.19767211719E+03  0.11469410850E+03  0.14446679793E+03  0.66904540001E+03  0.61198209707E+03 0.  0.
    5000001    2    3    3    0    0  0.59078744346E+02  0.42514302259E+02 -0.21919078810E+03  0.26055318797E+03  0.12060513357E+03 0.  0.
        -11    1    4    4    0    0  0.40777482006E+02 -0.36278663201E+02 -0.83255418029E+02  0.99551037533E+02  0.51100000000E-03 0. -1.
     200002    1    4    4    0    0  0.18301262341E+02  0.78792965460E+02 -0.13593537007E+03  0.16100215043E+03  0.30000000000E+02 0. -1.
     200000    1    3    3    0    0  0.13859337284E+03  0.72179806242E+02  0.36365758603E+03  0.40849221204E+03  0.10100000000E+03 0. -1.
    -200001    1    1    2    0    0 -0.19767211719E+03 -0.11469410850E+03 -0.57016511588E+03  0.86780542969E+03  0.61300000000E+03 0.  1.
<mgrwt>
<rscale>  0 0.14767164E+04</rscale>
<asrwt>0</asrwt>
<pdfrwt beam="1">  1        2 0.14018208E+00 0.14767164E+04</pdfrwt>
<pdfrwt beam="2">  1       -2 0.79368036E-01 0.14767164E+04</pdfrwt>
<totfact> 0.39369860E+01</totfact>
</mgrwt>
</event>
<event>
 8    1  0.7326756E-052  0.1955068E+04  0.7818608E-02  0.8627921E-01
         -2   -1    0    0    0  501 -0.00000000000E+00  0.00000000000E+00  0.13063849696E+04  0.13063849696E+04  0.25500000000E-02 0. -1.
          2   -1    0    0  501    0  0.00000000000E+00 -0.00000000000E+00 -0.73146330451E+03  0.73146330452E+03  0.25500000000E-02 0.  1.
     200001    2    1    2    0    0 -0.61763880251E+03  0.44204065541E+03  0.23567506016E+03  0.10045356930E+04  0.61373576811E+03 0.  0.
    5000001    2    3    3    0    0 -0.18025112787E+03  0.23755401435E+03  0.29720555804E+03  0.50743432859E+03  0.28325973111E+03 0.  0.
        -11    1    4    4    0    0 -0.36035255675E+01  0.11446787400E+03 -0.26462950496E+02  0.11754219381E+03  0.51100000000E-03 0. -1.
     200002    1    4    4    0    0 -0.17664760231E+03  0.12308614035E+03  0.32366850854E+03  0.38989213478E+03  0.30000000000E+02 0. -1.
     200000    1    3    3    0    0 -0.43738767463E+03  0.20448664106E+03 -0.61530497879E+02  0.49710136437E+03  0.10100000000E+03 0.  1.
    -200001    1    1    2    0    0  0.61763880251E+03 -0.44204065541E+03  0.33924660490E+03  0.10333125811E+04  0.61300000000E+03 0. -1.
<mgrwt>
<rscale>  0 0.19550679E+04</rscale>
<asrwt>0</asrwt>
<pdfrwt beam="1">  1        2 0.10449476E+00 0.19550679E+04</pdfrwt>
<pdfrwt beam="2">  1       -2 0.18662642E+00 0.19550679E+04</pdfrwt>
<totfact> 0.65082060E+00</totfact>
</mgrwt>
</event>
<event>
 8    1  0.7326756E-052  0.1573351E+04  0.7818608E-02  0.8837089E-01
         -2   -1    0    0    0  501 -0.00000000000E+00  0.00000000000E+00  0.56624711568E+03  0.56624711569E+03  0.25500000000E-02 0. -1.
          2   -1    0    0  501    0  0.00000000000E+00 -0.00000000000E+00 -0.10929120075E+04  0.10929120075E+04  0.25500000000E-02 0.  1.
     200001    2    1    2    0    0  0.46161515084E+03 -0.25393994352E+02 -0.81926115320E+02  0.77186267795E+03  0.61263912935E+03 0.  0.
    5000001    2    3    3    0    0  0.43790173902E+02  0.18169947630E+03  0.14452881011E+03  0.24370716090E+03  0.59768924248E+02 0.  0.
        -11    1    4    4    0    0  0.16291808613E+01  0.41401630567E+01 -0.43964139835E+01  0.62548890150E+01  0.51100000000E-03 0. -1.
     200002    1    4    4    0    0  0.42160993040E+02  0.17755931324E+03  0.14892522409E+03  0.23745227189E+03  0.30000000000E+02 0. -1.
     200000    1    3    3    0    0  0.41782497693E+03 -0.20709347065E+03 -0.22645492543E+03  0.52815551705E+03  0.10100000000E+03 0.  1.
    -200001    1    1    2    0    0 -0.46161515084E+03  0.25393994352E+02 -0.44473877650E+03  0.88729644525E+03  0.61300000000E+03 0.  1.
<mgrwt>
<rscale>  0 0.15733509E+04</rscale>
<asrwt>0</asrwt>
<pdfrwt beam="1">  1        2 0.15613029E+00 0.15733509E+04</pdfrwt>
<pdfrwt beam="2">  1       -2 0.80892446E-01 0.15733509E+04</pdfrwt>
<totfact> 0.32031403E+01</totfact>
</mgrwt>
</event>
<event>
 8    1  0.7326756E-052  0.1574956E+04  0.7818608E-02  0.8836083E-01
          2   -1    0    0  501    0  0.00000000000E+00  0.00000000000E+00  0.29667860758E+03  0.29667860759E+03  0.25500000000E-02 0.  1.
         -2   -1    0    0    0  501 -0.00000000000E+00 -0.00000000000E+00 -0.20902126547E+04  0.20902126547E+04  0.25500000000E-02 0. -1.
     200001    2    1    2    0    0 -0.10158357353E+03  0.28635465500E+03 -0.14889947854E+04  0.16380045066E+04  0.61125696884E+03 0.  0.
    5000001    2    3    3    0    0 -0.26887210007E+03  0.37434596290E+03 -0.10408358659E+04  0.11412396342E+04  0.81617992729E+02 0.  0.
        -11    1    4    4    0    0 -0.96855161050E+02  0.97673078096E+02 -0.37340731534E+03  0.39793715026E+03  0.51100000000E-03 0. -1.
     200002    1    4    4    0    0 -0.17201693902E+03  0.27667288481E+03 -0.66742855057E+03  0.74330248393E+03  0.30000000000E+02 0. -1.
     200000    1    3    3    0    0  0.16728852654E+03 -0.87991307906E+02 -0.44815891948E+03  0.49676487244E+03  0.10100000000E+03 0.  1.
    -200001    1    1    2    0    0  0.10158357353E+03 -0.28635465500E+03 -0.30453926170E+03  0.74888675564E+03  0.61300000000E+03 0.  1.
<mgrwt>
<rscale>  0 0.15749557E+04</rscale>
<asrwt>0</asrwt>
<pdfrwt beam="1">  1        2 0.42382659E-01 0.15749557E+04</pdfrwt>
<pdfrwt beam="2">  1       -2 0.29860180E+00 0.15749557E+04</pdfrwt>
<totfact> 0.37804157E+00</totfact>
</mgrwt>
</event>
<event>
 8    1  0.7326756E-052  0.1629409E+04  0.7818608E-02  0.8802682E-01
         -2   -1    0    0    0  501 -0.00000000000E+00  0.00000000000E+00  0.43699757241E+03  0.43699757242E+03  0.25500000000E-02 0. -1.
          2   -1    0    0  501    0  0.00000000000E+00 -0.00000000000E+00 -0.15188717061E+04  0.15188717061E+04  0.25500000000E-02 0.  1.
     200001    2    1    2    0    0 -0.10792002639E+03 -0.37289416184E+03 -0.98579778357E+03  0.12239564059E+04  0.61284192535E+03 0.  0.
    5000001    2    3    3    0    0 -0.25202215060E+03 -0.15770064969E+03 -0.70493481044E+03  0.82878722753E+03  0.31870130567E+03 0.  0.
        -11    1    4    4    0    0  0.70244952677E+02 -0.44427122199E+02 -0.76889361818E+02  0.11322586509E+03  0.51100000000E-03 0. -1.
     200002    1    4    4    0    0 -0.32226710328E+03 -0.11327352750E+03 -0.62804544862E+03  0.71556136244E+03  0.30000000000E+02 0. -1.
     200000    1    3    3    0    0  0.14410212421E+03 -0.21519351215E+03 -0.28086297313E+03  0.39516917839E+03  0.10100000000E+03 0. -1.
    -200001    1    1    2    0    0  0.10792002639E+03  0.37289416184E+03 -0.96076350120E+02  0.73191287261E+03  0.61300000000E+03 0. -1.
<mgrwt>
<rscale>  0 0.16294088E+04</rscale>
<asrwt>0</asrwt>
<pdfrwt beam="1">  1        2 0.21698167E+00 0.16294088E+04</pdfrwt>
<pdfrwt beam="2">  1       -2 0.62428225E-01 0.16294088E+04</pdfrwt>
<totfact> 0.32601888E+01</totfact>
</mgrwt>
</event>
<event>
 8    1  0.7326756E-052  0.1506938E+04  0.7818608E-02  0.8879853E-01
         -2   -1    0    0    0  501 -0.00000000000E+00  0.00000000000E+00  0.21055030633E+04  0.21055030633E+04  0.25500000000E-02 0. -1.
          2   -1    0    0  501    0  0.00000000000E+00 -0.00000000000E+00 -0.26963403462E+03  0.26963403463E+03  0.25500000000E-02 0.  1.
     200001    2    1    2    0    0  0.35599327348E+03 -0.14570878254E+03  0.58754344293E+03  0.93220673645E+03  0.61305778037E+03 0.  0.
    5000001    2    3    3    0    0 -0.11924196519E+03  0.40732701198E+02  0.11097442970E+03  0.22656661337E+03  0.15211609723E+03 0.  0.
        -11    1    4    4    0    0  0.21708445200E+02  0.48266470631E+02  0.24328741884E+02  0.58247716368E+02  0.51100000000E-03 0. -1.
     200002    1    4    4    0    0 -0.14095041039E+03 -0.75337694323E+01  0.86645687817E+02  0.16831889700E+03  0.30000000000E+02 0. -1.
     200000    1    3    3    0    0  0.47523523866E+03 -0.18644148374E+03  0.47656901323E+03  0.70564012308E+03  0.10100000000E+03 0.  1.
    -200001    1    1    2    0    0 -0.35599327348E+03  0.14570878254E+03  0.12483255858E+04  0.14429303615E+04  0.61300000000E+03 0. -1.
<mgrwt>
<rscale>  0 0.15069377E+04</rscale>
<asrwt>0</asrwt>
<pdfrwt beam="1">  1        2 0.38519148E-01 0.15069377E+04</pdfrwt>
<pdfrwt beam="2">  1       -2 0.30078615E+00 0.15069377E+04</pdfrwt>
<totfact> 0.41020663E+00</totfact>
</mgrwt>
</event>
<event>
 8    1  0.7326756E-052  0.1622308E+04  0.7818608E-02  0.8806959E-01
          2   -1    0    0  501    0  0.00000000000E+00  0.00000000000E+00  0.13263853371E+04  0.13263853371E+04  0.25500000000E-02 0.  1.
         -2   -1    0    0    0  501 -0.00000000000E+00 -0.00000000000E+00 -0.49606333398E+03  0.49606333398E+03  0.25500000000E-02 0. -1.
     200001    2    1    2    0    0  0.18222299247E+03 -0.49096399865E+03  0.30373753323E+03  0.85947874895E+03  0.61007898165E+03 0.  0.
    5000001    2    3    3    0    0  0.23957468247E+03 -0.48350907380E+03  0.41871502554E+03  0.69587674410E+03  0.13321080076E+03 0.  0.
        -11    1    4    4    0    0  0.13765496972E+03 -0.27507729596E+03  0.31401239631E+03  0.43956819093E+03  0.51100000000E-03 0. -1.
     200002    1    4    4    0    0  0.10191971275E+03 -0.20843177785E+03  0.10470262924E+03  0.25630855318E+03  0.30000000000E+02 0.  1.
     200000    1    3    3    0    0 -0.57351690004E+02 -0.74549248525E+01 -0.11497749232E+03  0.16360200485E+03  0.10100000000E+03 0. -1.
    -200001    1    1    2    0    0 -0.18222299247E+03  0.49096399865E+03  0.52658446985E+03  0.96296992209E+03  0.61300000000E+03 0.  1.
<mgrwt>
<rscale>  0 0.16223084E+04</rscale>
<asrwt>0</asrwt>
<pdfrwt beam="1">  1        2 0.18948362E+00 0.16223084E+04</pdfrwt>
<pdfrwt beam="2">  1       -2 0.70866192E-01 0.16223084E+04</pdfrwt>
<totfact> 0.31517182E+01</totfact>
</mgrwt>
</event>
<event>
 8    1  0.7326756E-052  0.1727683E+04  0.7818608E-02  0.8745731E-01
         -2   -1    0    0    0  501 -0.00000000000E+00  0.00000000000E+00  0.38528368168E+03  0.38528368168E+03  0.25500000000E-02 0. -1.
          2   -1    0    0  501    0  0.00000000000E+00 -0.00000000000E+00 -0.19368125903E+04  0.19368125903E+04  0.25500000000E-02 0.  1.
     200001    2    1    2    0    0  0.46280177291E+03  0.13191993708E+03 -0.27553362542E+03  0.82693029003E+03  0.61343832211E+03 0.  0.
    5000001    2    3    3    0    0  0.34355284876E+03 -0.84876972970E+02 -0.39389109806E+03  0.53464498857E+03  0.73908093202E+02 0.  0.
        -11    1    4    4    0    0  0.16542706275E+02 -0.21150592708E+02 -0.33544155375E+02  0.42967651354E+02  0.51100000000E-03 0. -1.
     200002    1    4    4    0    0  0.32701014249E+03 -0.63726380262E+02 -0.36034694269E+03  0.49167733722E+03  0.30000000000E+02 0. -1.
     200000    1    3    3    0    0  0.11924892415E+03  0.21679691005E+03  0.11835747264E+03  0.29228530146E+03  0.10100000000E+03 0. -1.
    -200001    1    1    2    0    0 -0.46280177291E+03 -0.13191993708E+03 -0.12759952832E+04  0.14951659819E+04  0.61300000000E+03 0.  1.
<mgrwt>
<rscale>  0 0.17276832E+04</rscale>
<asrwt>0</asrwt>
<pdfrwt beam="1">  1        2 0.27668751E+00 0.17276832E+04</pdfrwt>
<pdfrwt beam="2">  1       -2 0.55040527E-01 0.17276832E+04</pdfrwt>
<totfact> 0.25551870E+01</totfact>
</mgrwt>
</event>
<event>
 8    1  0.7326756E-052  0.1305165E+04  0.7818608E-02  0.9025480E-01
         -2   -1    0    0    0  501 -0.00000000000E+00  0.00000000000E+00  0.14721810185E+03  0.14721810187E+03  0.25500000000E-02 0. -1.
          2   -1    0    0  501    0  0.00000000000E+00 -0.00000000000E+00 -0.28927393406E+04  0.28927393406E+04  0.25500000000E-02 0.  1.
     200001    2    1    2    0    0 -0.12905070760E+03  0.56980926561E+02 -0.17695157702E+04  0.18788129270E+04  0.61550876731E+03 0.  0.
    5000001    2    3    3    0    0 -0.31162378407E+03  0.50419005729E+02 -0.15151296144E+04  0.15497395259E+04  0.80146059118E+02 0.  0.
        -11    1    4    4    0    0 -0.44167749941E+02  0.33759416966E+02 -0.29106963640E+03  0.29633093258E+03  0.51100000000E-03 0. -1.
     200002    1    4    4    0    0 -0.26745603412E+03  0.16659588763E+02 -0.12240599780E+04  0.12534085934E+04  0.30000000000E+02 0. -1.
     200000    1    3    3    0    0  0.18257307647E+03  0.65619208319E+01 -0.25438615578E+03  0.32907340109E+03  0.10100000000E+03 0. -1.
    -200001    1    1    2    0    0  0.12905070760E+03 -0.56980926561E+02 -0.97600546857E+03  0.11611445155E+04  0.61300000000E+03 0. -1.
<mgrwt>
<rscale>  0 0.13051645E+04</rscale>
<asrwt>0</asrwt>
<pdfrwt beam="1">  1        2 0.41324844E+00 0.13051645E+04</pdfrwt>
<pdfrwt beam="2">  1       -2 0.21031159E-01 0.13051645E+04</pdfrwt>
<totfact> 0.52270541E+01</totfact>
</mgrwt>
</event>
<event>
 8    1  0.7326756E-052  0.1405664E+04  0.7818608E-02  0.8949729E-01
          2   -1    0    0  501    0  0.00000000000E+00  0.00000000000E+00  0.10261727639E+04  0.10261727639E+04  0.25500000000E-02 0.  1.
         -2   -1    0    0    0  501 -0.00000000000E+00 -0.00000000000E+00 -0.48137414106E+03  0.48137414106E+03  0.25500000000E-02 0. -1.
     200001    2    1    2    0    0 -0.77389597260E+02  0.30698584693E+03  0.12262001609E+03  0.69870004926E+03  0.61066900241E+03 0.  0.
    5000001    2    3    3    0    0  0.14400192856E+02 -0.27377761082E+02  0.28622084287E+03  0.30222732831E+03  0.91989563160E+02 0.  0.
        -11    1    4    4    0    0 -0.86001408836E+00 -0.32686364130E+02  0.25136683899E+03  0.25348456712E+03  0.51100000000E-03 0. -1.
     200002    1    4    4    0    0  0.15260206944E+02  0.53086030484E+01  0.34854003882E+02  0.48742761195E+02  0.30000000000E+02 0. -1.
     200000    1    3    3    0    0 -0.91789790116E+02  0.33436360801E+03 -0.16360082678E+03  0.39647272094E+03  0.10100000000E+03 0. -1.
    -200001    1    1    2    0    0  0.77389597260E+02 -0.30698584693E+03  0.42217860673E+03  0.80884685569E+03  0.61300000000E+03 0.  1.
<mgrwt>
<rscale>  0 0.14056643E+04</rscale>
<asrwt>0</asrwt>
<pdfrwt beam="1">  1        2 0.14659611E+00 0.14056643E+04</pdfrwt>
<pdfrwt beam="2">  1       -2 0.68767734E-01 0.14056643E+04</pdfrwt>
<totfact> 0.50957812E+01</totfact>
</mgrwt>
</event>
<event>
 8    1  0.7326756E-052  0.1241106E+04  0.7818608E-02  0.9077618E-01
          2   -1    0    0  501    0  0.00000000000E+00  0.00000000000E+00  0.24625128939E+04  0.24625128939E+04  0.25500000000E-02 0.  1.
         -2   -1    0    0    0  501 -0.00000000000E+00 -0.00000000000E+00 -0.15637935694E+03  0.15637935697E+03  0.25500000000E-02 0. -1.
     200001    2    1    2    0    0 -0.14677909907E+02 -0.30926197305E+02  0.96006117226E+03  0.11394154238E+04  0.61268114290E+03 0.  0.
    5000001    2    3    3    0    0 -0.65439255347E+02 -0.27764059217E+03  0.62131669038E+03  0.70537218771E+03  0.17363438278E+03 0.  0.
        -11    1    4    4    0    0  0.49024714019E+02 -0.44080139208E+02  0.18651716327E+03  0.19782601813E+03  0.51100000000E-03 0. -1.
     200002    1    4    4    0    0 -0.11446396937E+03 -0.23356045296E+03  0.43479952712E+03  0.50754616958E+03  0.30000000000E+02 0. -1.
     200000    1    3    3    0    0  0.50761345440E+02  0.24671439486E+03  0.33874448187E+03  0.43404323612E+03  0.10100000000E+03 0.  1.
    -200001    1    1    2    0    0  0.14677909907E+02  0.30926197305E+02  0.13460723647E+04  0.14794768270E+04  0.61300000000E+03 0.  1.
<mgrwt>
<rscale>  0 0.12411063E+04</rscale>
<asrwt>0</asrwt>
<pdfrwt beam="1">  1        2 0.35178754E+00 0.12411063E+04</pdfrwt>
<pdfrwt beam="2">  1       -2 0.22339909E-01 0.12411063E+04</pdfrwt>
<totfact> 0.80070310E+01</totfact>
</mgrwt>
</event>
<event>
 8    1  0.7326756E-052  0.1894540E+04  0.7818608E-02  0.8657579E-01
         -2   -1    0    0    0  501 -0.00000000000E+00  0.00000000000E+00  0.33784110775E+03  0.33784110776E+03  0.25500000000E-02 0. -1.
          2   -1    0    0  501    0  0.00000000000E+00 -0.00000000000E+00 -0.26560437096E+04  0.26560437096E+04  0.25500000000E-02 0.  1.
     200001    2    1    2    0    0  0.31161950268E+03  0.91187361350E+02 -0.21787261320E+04  0.22863224279E+04  0.61237311896E+03 0.  0.
    5000001    2    3    3    0    0  0.21908409806E+03  0.32872165823E+03 -0.10840974666E+04  0.11578729348E+04  0.96678050944E+02 0.  0.
        -11    1    4    4    0    0  0.55313355524E+02  0.14635487253E+03 -0.49419236029E+03  0.51836802080E+03  0.51100000000E-03 0. -1.
     200002    1    4    4    0    0  0.16377074254E+03  0.18236678570E+03 -0.58990510627E+03  0.63950491401E+03  0.30000000000E+02 0. -1.
     200000    1    3    3    0    0  0.92535404622E+02 -0.23753429688E+03 -0.10946286655E+04  0.11284494931E+04  0.10100000000E+03 0.  1.
    -200001    1    1    2    0    0 -0.31161950268E+03 -0.91187361350E+02 -0.13947646985E+03  0.70756238945E+03  0.61300000000E+03 0. -1.
<mgrwt>
<rscale>  0 0.18945403E+04</rscale>
<asrwt>0</asrwt>
<pdfrwt beam="1">  1        2 0.37943480E+00 0.18945403E+04</pdfrwt>
<pdfrwt beam="2">  1       -2 0.48263017E-01 0.18945403E+04</pdfrwt>
<totfact> 0.13924316E+01</totfact>
</mgrwt>
</event>
<event>
 8    1  0.7326756E-052  0.1767199E+04  0.7818608E-02  0.8723940E-01
         -2   -1    0    0    0  501 -0.00000000000E+00  0.00000000000E+00  0.49339082929E+03  0.49339082929E+03  0.25500000000E-02 0. -1.
          2   -1    0    0  501    0  0.00000000000E+00 -0.00000000000E+00 -0.15824123920E+04  0.15824123920E+04  0.25500000000E-02 0.  1.
     200001    2    1    2    0    0 -0.28765224557E+03 -0.52826317061E+03 -0.78512132007E+03  0.11647981998E+04  0.61525081644E+03 0.  0.
    5000001    2    3    3    0    0  0.17111355818E+03 -0.16620006559E+03 -0.24511254755E+03  0.36269706579E+03  0.12069253902E+03 0.  0.
        -11    1    4    4    0    0  0.17341076178E+03 -0.11682288059E+03 -0.18337214157E+03  0.27810828833E+03  0.51100000000E-03 0. -1.
     200002    1    4    4    0    0 -0.22972036054E+01 -0.49377184994E+02 -0.61740405981E+02  0.84588777466E+02  0.30000000000E+02 0.  1.
     200000    1    3    3    0    0 -0.45876580375E+03 -0.36206310502E+03 -0.54000877252E+03  0.80210113396E+03  0.10100000000E+03 0. -1.
    -200001    1    1    2    0    0  0.28765224557E+03  0.52826317061E+03 -0.30390024266E+03  0.91100502155E+03  0.61300000000E+03 0.  1.
<mgrwt>
<rscale>  0 0.17671986E+04</rscale>
<asrwt>0</asrwt>
<pdfrwt beam="1">  1        2 0.22605891E+00 0.17671986E+04</pdfrwt>
<pdfrwt beam="2">  1       -2 0.70484405E-01 0.17671986E+04</pdfrwt>
<totfact> 0.22976124E+01</totfact>
</mgrwt>
</event>
<event>
 8    1  0.7326756E-052  0.2100148E+04  0.7818608E-02  0.8561178E-01
          2   -1    0    0  501    0  0.00000000000E+00  0.00000000000E+00  0.57980286694E+03  0.57980286694E+03  0.25500000000E-02 0.  1.
         -2   -1    0    0    0  501 -0.00000000000E+00 -0.00000000000E+00 -0.19017754931E+04  0.19017754931E+04  0.25500000000E-02 0. -1.
     200001    2    1    2    0    0 -0.57208684340E+03 -0.63097705610E+03 -0.61548370564E+03  0.12165443698E+04  0.61298010573E+03 0.  0.
    5000001    2    3    3    0    0 -0.53942647152E+03 -0.18807490740E+03 -0.45362848841E+03  0.73319447109E+03  0.73771525522E+02 0.  0.
        -11    1    4    4    0    0 -0.52887860106E+02 -0.38697087349E+02 -0.63114215465E+02  0.90983484819E+02  0.51100000000E-03 0. -1.
     200002    1    4    4    0    0 -0.48653861141E+03 -0.14937782005E+03 -0.39051427294E+03  0.64221098628E+03  0.30000000000E+02 0. -1.
     200000    1    3    3    0    0 -0.32660371882E+02 -0.44290214870E+03 -0.16185521723E+03  0.48334989869E+03  0.10100000000E+03 0. -1.
    -200001    1    1    2    0    0  0.57208684340E+03  0.63097705610E+03 -0.70648892055E+03  0.12650339903E+04  0.61300000000E+03 0.  1.
<mgrwt>
<rscale>  0 0.21001475E+04</rscale>
<asrwt>0</asrwt>
<pdfrwt beam="1">  1        2 0.82828982E-01 0.21001475E+04</pdfrwt>
<pdfrwt beam="2">  1       -2 0.27168221E+00 0.21001475E+04</pdfrwt>
<totfact> 0.24743468E+00</totfact>
</mgrwt>
</event>
<event>
 8    1  0.7326756E-052  0.1842018E+04  0.7818608E-02  0.8684268E-01
         -2   -1    0    0    0  501 -0.00000000000E+00  0.00000000000E+00  0.70255586277E+03  0.70255586278E+03  0.25500000000E-02 0. -1.
          2   -1    0    0  501    0  0.00000000000E+00 -0.00000000000E+00 -0.12073885360E+04  0.12073885360E+04  0.25500000000E-02 0.  1.
     200001    2    1    2    0    0 -0.26011746043E+03 -0.89489517814E+01 -0.91190292071E+03  0.11294212644E+04  0.61342014857E+03 0.  0.
    5000001    2    3    3    0    0 -0.17800155275E+03 -0.52550409271E+02  0.25494460393E+01  0.20472226447E+03  0.86363230578E+02 0.  0.
        -11    1    4    4    0    0 -0.11374761816E+03 -0.40613878120E+02 -0.31992878104E+02  0.12494619635E+03  0.51100000000E-03 0. -1.
     200002    1    4    4    0    0 -0.64253934596E+02 -0.11936531151E+02  0.34542324143E+02  0.79776068117E+02  0.30000000000E+02 0. -1.
     200000    1    3    3    0    0 -0.82115907676E+02  0.43601457489E+02 -0.91445236675E+03  0.92469899991E+03  0.10100000000E+03 0.  1.
    -200001    1    1    2    0    0  0.26011746043E+03  0.89489517814E+01  0.40707024748E+03  0.78052313440E+03  0.61300000000E+03 0. -1.
<mgrwt>
<rscale>  0 0.18420183E+04</rscale>
<asrwt>0</asrwt>
<pdfrwt beam="1">  1        2 0.17248408E+00 0.18420183E+04</pdfrwt>
<pdfrwt beam="2">  1       -2 0.10036512E+00 0.18420183E+04</pdfrwt>
<totfact> 0.16364302E+01</totfact>
</mgrwt>
</event>
<event>
 8    1  0.7326756E-052  0.1680338E+04  0.7818608E-02  0.8772658E-01
         -2   -1    0    0    0  501 -0.00000000000E+00  0.00000000000E+00  0.94237440014E+03  0.94237440014E+03  0.25500000000E-02 0. -1.
          2   -1    0    0  501    0  0.00000000000E+00 -0.00000000000E+00 -0.74904863572E+03  0.74904863572E+03  0.25500000000E-02 0.  1.
     200001    2    1    2    0    0 -0.17870344367E+03 -0.13553077139E+03 -0.43374651620E+03  0.78627544796E+03  0.61627066210E+03 0.  0.
    5000001    2    3    3    0    0 -0.36656815920E+03  0.36435484224E+02 -0.19887585458E+03  0.42540043899E+03  0.75592116711E+02 0.  0.
        -11    1    4    4    0    0 -0.23634424931E+03  0.24536631262E+02 -0.95744711600E+02  0.25617903945E+03  0.51100000000E-03 0. -1.
     200002    1    4    4    0    0 -0.13022390989E+03  0.11898852962E+02 -0.10313114298E+03  0.16922139954E+03  0.30000000000E+02 0. -1.
     200000    1    3    3    0    0  0.18786471552E+03 -0.17196625561E+03 -0.23487066162E+03  0.36087500897E+03  0.10100000000E+03 0.  1.
    -200001    1    1    2    0    0  0.17870344367E+03  0.13553077139E+03  0.62707228062E+03  0.90514758791E+03  0.61300000000E+03 0. -1.
<mgrwt>
<rscale>  0 0.16803384E+04</rscale>
<asrwt>0</asrwt>
<pdfrwt beam="1">  1        2 0.10700695E+00 0.16803384E+04</pdfrwt>
<pdfrwt beam="2">  1       -2 0.13462491E+00 0.16803384E+04</pdfrwt>
<totfact> 0.15695202E+01</totfact>
</mgrwt>
</event>
<event>
 8    1  0.7326756E-052  0.1479707E+04  0.7818608E-02  0.8898060E-01
          2   -1    0    0  501    0  0.00000000000E+00  0.00000000000E+00  0.45927797479E+03  0.45927797479E+03  0.25500000000E-02 0.  1.
         -2   -1    0    0    0  501 -0.00000000000E+00 -0.00000000000E+00 -0.11918349446E+04  0.11918349446E+04  0.25500000000E-02 0. -1.
     200001    2    1    2    0    0 -0.30457643418E+02 -0.55231913952E+02  0.91687132148E+02  0.62197465271E+03  0.61193766516E+03 0.  0.
    5000001    2    3    3    0    0  0.19349513042E+00  0.25676032780E+03  0.79491538111E+02  0.29238644945E+03  0.11508704454E+03 0.  0.
        -11    1    4    4    0    0 -0.34458177810E+02  0.43155093119E+02 -0.10317295524E+02  0.56179842179E+02  0.51100000000E-03 0. -1.
     200002    1    4    4    0    0  0.34651672941E+02  0.21360523468E+03  0.89808833635E+02  0.23620660728E+03  0.30000000000E+02 0. -1.
     200000    1    3    3    0    0 -0.30651138548E+02 -0.31199224175E+03  0.12195594037E+02  0.32958820325E+03  0.10100000000E+03 0. -1.
    -200001    1    1    2    0    0  0.30457643418E+02  0.55231913952E+02 -0.82424410199E+03  0.10291382667E+04  0.61300000000E+03 0. -1.
<mgrwt>
<rscale>  0 0.14797075E+04</rscale>
<asrwt>0</asrwt>
<pdfrwt beam="1">  1        2 0.65611139E-01 0.14797075E+04</pdfrwt>
<pdfrwt beam="2">  1       -2 0.17026213E+00 0.14797075E+04</pdfrwt>
<totfact> 0.15207562E+01</totfact>
</mgrwt>
</event>
<event>
 8    1  0.7326756E-052  0.1824552E+04  0.7818608E-02  0.8693351E-01
         -2   -1    0    0    0  501 -0.00000000000E+00  0.00000000000E+00  0.21395286025E+03  0.21395286027E+03  0.25500000000E-02 0. -1.
          2   -1    0    0  501    0  0.00000000000E+00 -0.00000000000E+00 -0.38898642157E+04  0.38898642157E+04  0.25500000000E-02 0.  1.
     200001    2    1    2    0    0  0.50230276238E+03 -0.38377182967E+03 -0.23735357240E+04  0.25317037951E+04  0.61340312271E+03 0.  0.
    5000001    2    3    3    0    0  0.26147857467E+03 -0.28096908655E+03 -0.53540990505E+03  0.67227586710E+03  0.13407610691E+03 0.  0.
        -11    1    4    4    0    0  0.86490240170E+02 -0.17671240291E+03 -0.21514124369E+03  0.29153660100E+03  0.51100000000E-03 0. -1.
     200002    1    4    4    0    0  0.17498833450E+03 -0.10425668363E+03 -0.32026866136E+03  0.38073926609E+03  0.30000000000E+02 0. -1.
     200000    1    3    3    0    0  0.24082418771E+03 -0.10280274313E+03 -0.18381258189E+04  0.18594279280E+04  0.10100000000E+03 0.  1.
    -200001    1    1    2    0    0 -0.50230276238E+03  0.38377182967E+03 -0.13023756315E+04  0.15721132809E+04  0.61300000000E+03 0. -1.
<mgrwt>
<rscale>  0 0.18245521E+04</rscale>
<asrwt>0</asrwt>
<pdfrwt beam="1">  1        2 0.55569484E+00 0.18245521E+04</pdfrwt>
<pdfrwt beam="2">  1       -2 0.30564697E-01 0.18245521E+04</pdfrwt>
<totfact> 0.63852060E+00</totfact>
</mgrwt>
</event>
<event>
 8    1  0.7326756E-052  0.1468517E+04  0.7818608E-02  0.8905663E-01
          2   -1    0    0  501    0  0.00000000000E+00  0.00000000000E+00  0.18863962704E+04  0.18863962704E+04  0.25500000000E-02 0. -1.
         -2   -1    0    0    0  501 -0.00000000000E+00 -0.00000000000E+00 -0.28580198867E+03  0.28580198869E+03  0.25500000000E-02 0.  1.
     200001    2    1    2    0    0  0.24011772842E+03 -0.22340746834E+03  0.45053701618E+03  0.82833512079E+03  0.61285238759E+03 0.  0.
    5000001    2    3    3    0    0  0.28995238934E+03 -0.33563458159E+03  0.48344731829E+03  0.66596977239E+03  0.11433051968E+03 0.  0.
        -11    1    4    4    0    0  0.24487360307E+03 -0.21549205182E+03  0.34926346195E+03  0.47789629809E+03  0.51100000000E-03 0. -1.
     200002    1    4    4    0    0  0.45078786271E+02 -0.12014252977E+03  0.13418385634E+03  0.18807347429E+03  0.30000000000E+02 0. -1.
     200000    1    3    3    0    0 -0.49834660922E+02  0.11222711324E+03 -0.32910302112E+02  0.16236534840E+03  0.10100000000E+03 0.  1.
    -200001    1    1    2    0    0 -0.24011772842E+03  0.22340746834E+03  0.11500572655E+04  0.13438631383E+04  0.61300000000E+03 0. -1.
<mgrwt>
<rscale>  0 0.14685174E+04</rscale>
<asrwt>0</asrwt>
<pdfrwt beam="1">  1        2 0.26948518E+00 0.14685174E+04</pdfrwt>
<pdfrwt beam="2">  1       -2 0.40828855E-01 0.14685174E+04</pdfrwt>
<totfact> 0.50573439E+01</totfact>
</mgrwt>
</event>
<event>
 8    1  0.7326756E-052  0.1472750E+04  0.7818608E-02  0.8902779E-01
         -2   -1    0    0    0  501 -0.00000000000E+00  0.00000000000E+00  0.24502584835E+04  0.24502584835E+04  0.25500000000E-02 0. -1.
          2   -1    0    0  501    0  0.00000000000E+00 -0.00000000000E+00 -0.22130243464E+03  0.22130243465E+03  0.25500000000E-02 0.  1.
     200001    2    1    2    0    0 -0.30797854049E+03  0.18202272216E+03  0.75808273698E+03  0.10383982342E+04  0.61286083560E+03 0.  0.
    5000001    2    3    3    0    0 -0.16292160042E+03 -0.15214634400E+03  0.54330241651E+02  0.23953713527E+03  0.68806294314E+02 0.  0.
        -11    1    4    4    0    0 -0.87996820467E+02 -0.49055114735E+02  0.96940964032E+01  0.10121175919E+03  0.51100000000E-03 0. -1.
     200002    1    4    4    0    0 -0.74924779954E+02 -0.10309122927E+03  0.44636145247E+02  0.13832537607E+03  0.30000000000E+02 0.  1.
     200000    1    3    3    0    0 -0.14505694006E+03  0.33416906616E+03  0.70375249533E+03  0.79886109889E+03  0.10100000000E+03 0.  1.
    -200001    1    1    2    0    0  0.30797854049E+03 -0.18202272216E+03  0.14708733119E+04  0.16331626840E+04  0.61300000000E+03 0. -1.
<mgrwt>
<rscale>  0 0.14727500E+04</rscale>
<asrwt>0</asrwt>
<pdfrwt beam="1">  1        2 0.31614636E-01 0.14727500E+04</pdfrwt>
<pdfrwt beam="2">  1       -2 0.35003690E+00 0.14727500E+04</pdfrwt>
<totfact> 0.25505313E+00</totfact>
</mgrwt>
</event>
<event>
 8    1  0.7326756E-052  0.1676495E+04  0.7818608E-02  0.8774885E-01
          2   -1    0    0  501    0  0.00000000000E+00  0.00000000000E+00  0.23608234137E+04  0.23608234137E+04  0.25500000000E-02 0.  1.
         -2   -1    0    0    0  501 -0.00000000000E+00 -0.00000000000E+00 -0.29763289487E+03  0.29763289488E+03  0.25500000000E-02 0. -1.
     200001    2    1    2    0    0  0.31007176451E+02 -0.45377272193E+02  0.19338769846E+04  0.20295592327E+04  0.61335955676E+03 0.  0.
    5000001    2    3    3    0    0 -0.83199229069E+01  0.20620675147E+03  0.31324698756E+03  0.38594013789E+03  0.90750588710E+02 0.  0.
        -11    1    4    4    0    0 -0.32789391824E+02  0.12002693487E+03  0.13107403140E+03  0.18072634290E+03  0.51100000000E-03 0. -1.
     200002    1    4    4    0    0  0.24469468917E+02  0.86179816599E+02  0.18217295617E+03  0.20521379500E+03  0.30000000000E+02 0.  1.
     200000    1    3    3    0    0  0.39327099358E+02 -0.25158402366E+03  0.16206299970E+04  0.16436190948E+04  0.10100000000E+03 0.  1.
    -200001    1    1    2    0    0 -0.31007176451E+02  0.45377272193E+02  0.12931353421E+03  0.62889707580E+03  0.61300000000E+03 0. -1.
<mgrwt>
<rscale>  0 0.16764948E+04</rscale>
<asrwt>0</asrwt>
<pdfrwt beam="1">  1        2 0.33726049E+00 0.16764948E+04</pdfrwt>
<pdfrwt beam="2">  1       -2 0.42518984E-01 0.16764948E+04</pdfrwt>
<totfact> 0.26144463E+01</totfact>
</mgrwt>
</event>
<event>
 8    1  0.7326756E-052  0.1310693E+04  0.7818608E-02  0.9021128E-01
          2   -1    0    0  501    0  0.00000000000E+00  0.00000000000E+00  0.85924352992E+03  0.85924352992E+03  0.25500000000E-02 0.  1.
         -2   -1    0    0    0  501 -0.00000000000E+00 -0.00000000000E+00 -0.49983406739E+03  0.49983406739E+03  0.25500000000E-02 0. -1.
     200001    2    1    2    0    0  0.25969780208E+02  0.93214784445E+02  0.39830221615E+03  0.73726969144E+03  0.61282829325E+03 0.  0.
    5000001    2    3    3    0    0  0.35535171862E+02  0.65382667978E+00 -0.15594156756E+03  0.16626513857E+03  0.45421887723E+02 0.  0.
        -11    1    4    4    0    0 -0.27724826428E+01 -0.21754426639E+01 -0.44404867531E+02  0.44544488677E+02  0.51100000000E-03 0. -1.
     200002    1    4    4    0    0  0.38307654505E+02  0.28292693437E+01 -0.11153670003E+03  0.12172064990E+03  0.30000000000E+02 0.  1.
     200000    1    3    3    0    0 -0.95653916537E+01  0.92560957765E+02  0.55424378370E+03  0.57100455287E+03  0.10100000000E+03 0.  1.
    -200001    1    1    2    0    0 -0.25969780208E+02 -0.93214784445E+02 -0.38892753618E+02  0.62180790587E+03  0.61300000000E+03 0. -1.
<mgrwt>
<rscale>  0 0.13106932E+04</rscale>
<asrwt>0</asrwt>
<pdfrwt beam="1">  1        2 0.12274907E+00 0.13106932E+04</pdfrwt>
<pdfrwt beam="2">  1       -2 0.71404867E-01 0.13106932E+04</pdfrwt>
<totfact> 0.60413251E+01</totfact>
</mgrwt>
</event>
<event>
 8    1  0.7326756E-052  0.1643249E+04  0.7818608E-02  0.8794410E-01
         -2   -1    0    0    0  501 -0.00000000000E+00  0.00000000000E+00  0.46557200551E+03  0.46557200552E+03  0.25500000000E-02 0. -1.
          2   -1    0    0  501    0  0.00000000000E+00 -0.00000000000E+00 -0.14499729529E+04  0.14499729529E+04  0.25500000000E-02 0.  1.
     200001    2    1    2    0    0  0.44697313775E+03 -0.15963208909E+03 -0.17372687320E+03  0.79383695530E+03  0.61215087633E+03 0.  0.
    5000001    2    3    3    0    0  0.27968433997E+03  0.92410376658E+02 -0.20783455900E+03  0.47309518902E+03  0.30636717549E+03 0.  0.
        -11    1    4    4    0    0  0.11437591830E+03 -0.30424246939E+02 -0.23508411079E+03  0.26319579145E+03  0.51100000000E-03 0. -1.
     200002    1    4    4    0    0  0.16530842167E+03  0.12283462360E+03  0.27249551786E+02  0.20989939757E+03  0.30000000000E+02 0. -1.
     200000    1    3    3    0    0  0.16728879778E+03 -0.25204246575E+03  0.34107685804E+02  0.32074176628E+03  0.10100000000E+03 0. -1.
    -200001    1    1    2    0    0 -0.44697313775E+03  0.15963208909E+03 -0.81067407422E+03  0.11217080032E+04  0.61300000000E+03 0.  1.
<mgrwt>
<rscale>  0 0.16432490E+04</rscale>
<asrwt>0</asrwt>
<pdfrwt beam="1">  1        2 0.20713899E+00 0.16432490E+04</pdfrwt>
<pdfrwt beam="2">  1       -2 0.66510287E-01 0.16432490E+04</pdfrwt>
<totfact> 0.30943852E+01</totfact>
</mgrwt>
</event>
<event>
 8    1  0.7326756E-052  0.1480747E+04  0.7818608E-02  0.8897357E-01
         -2   -1    0    0    0  501 -0.00000000000E+00  0.00000000000E+00  0.18092213099E+04  0.18092213099E+04  0.25500000000E-02 0. -1.
          2   -1    0    0  501    0  0.00000000000E+00 -0.00000000000E+00 -0.30297746364E+03  0.30297746365E+03  0.25500000000E-02 0.  1.
     200001    2    1    2    0    0 -0.28207170222E+03  0.27917607647E+03  0.58776120071E+03  0.93879215304E+03  0.61511279509E+03 0.  0.
    5000001    2    3    3    0    0  0.92660770855E+02  0.14054157686E+03  0.47088266101E+03  0.51041668233E+03  0.10225828027E+03 0.  0.
        -11    1    4    4    0    0  0.35473479277E+02  0.79295139983E+02  0.11826643147E+03  0.14674139079E+03  0.51100000000E-03 0. -1.
     200002    1    4    4    0    0  0.57187291578E+02  0.61246436874E+02  0.35261622954E+03  0.36367529155E+03  0.30000000000E+02 0. -1.
     200000    1    3    3    0    0 -0.37473247308E+03  0.13863449961E+03  0.11687853970E+03  0.42837547071E+03  0.10100000000E+03 0.  1.
    -200001    1    1    2    0    0  0.28207170222E+03 -0.27917607647E+03  0.91848264556E+03  0.11734066205E+04  0.61300000000E+03 0. -1.
<mgrwt>
<rscale>  0 0.14807475E+04</rscale>
<asrwt>0</asrwt>
<pdfrwt beam="1">  1        2 0.43282496E-01 0.14807475E+04</pdfrwt>
<pdfrwt beam="2">  1       -2 0.25846018E+00 0.14807475E+04</pdfrwt>
<totfact> 0.65281608E+00</totfact>
</mgrwt>
</event>
<event>
 8    1  0.7326756E-052  0.1375009E+04  0.7818608E-02  0.8972109E-01
         -2   -1    0    0    0  501 -0.00000000000E+00  0.00000000000E+00  0.14125083973E+03  0.14125083975E+03  0.25500000000E-02 0. -1.
          2   -1    0    0  501    0  0.00000000000E+00 -0.00000000000E+00 -0.33462649911E+04  0.33462649911E+04  0.25500000000E-02 0.  1.
     200001    2    1    2    0    0 -0.14879641256E+03  0.75193077229E+02 -0.93290052839E+03  0.11282651687E+04  0.61227814245E+03 0.  0.
    5000001    2    3    3    0    0 -0.16701185336E+03  0.30288531868E+03 -0.71187994028E+03  0.79475855784E+03  0.72357725606E+02 0.  0.
        -11    1    4    4    0    0 -0.13876673018E+03  0.21107145086E+03 -0.49923304805E+03  0.55950066938E+03  0.51100000000E-03 0. -1.
     200002    1    4    4    0    0 -0.28245123180E+02  0.91813867815E+02 -0.21264689223E+03  0.23525788846E+03  0.30000000000E+02 0. -1.
     200000    1    3    3    0    0  0.18215440807E+02 -0.22769224145E+03 -0.22102058811E+03  0.33350661083E+03  0.10100000000E+03 0. -1.
    -200001    1    1    2    0    0  0.14879641256E+03 -0.75193077229E+02 -0.22721136230E+04  0.23592506622E+04  0.61300000000E+03 0.  1.
<mgrwt>
<rscale>  0 0.13750094E+04</rscale>
<asrwt>0</asrwt>
<pdfrwt beam="1">  1        2 0.47803781E+00 0.13750094E+04</pdfrwt>
<pdfrwt beam="2">  1       -2 0.20178694E-01 0.13750094E+04</pdfrwt>
<totfact> 0.30927718E+01</totfact>
</mgrwt>
</event>
<event>
 8    1  0.7326756E-052  0.1521842E+04  0.7818608E-02  0.8870057E-01
          2   -1    0    0  501    0  0.00000000000E+00  0.00000000000E+00  0.14823129498E+04  0.14823129498E+04  0.25500000000E-02 0.  1.
         -2   -1    0    0    0  501 -0.00000000000E+00 -0.00000000000E+00 -0.39060645051E+03  0.39060645052E+03  0.25500000000E-02 0. -1.
     200001    2    1    2    0    0  0.20675728429E+03 -0.40002475170E+03  0.56538885463E+03  0.94796121766E+03  0.61334944092E+03 0.  0.
    5000001    2    3    3    0    0  0.50277544997E+02 -0.32575694660E+03  0.64768805015E+03  0.73122226577E+03  0.80875038636E+02 0.  0.
        -11    1    4    4    0    0  0.49239580196E+02 -0.28212056025E+03  0.55068840728E+03  0.62070465496E+03  0.51100000000E-03 0. -1.
     200002    1    4    4    0    0  0.10379648019E+01 -0.43636386349E+02  0.96999642867E+02  0.11051761082E+03  0.30000000000E+02 0.  1.
     200000    1    3    3    0    0  0.15647973929E+03 -0.74267805100E+02 -0.82299195518E+02  0.21673895189E+03  0.10100000000E+03 0. -1.
    -200001    1    1    2    0    0 -0.20675728429E+03  0.40002475170E+03  0.52631764463E+03  0.92495818263E+03  0.61300000000E+03 0. -1.
<mgrwt>
<rscale>  0 0.15218423E+04</rscale>
<asrwt>0</asrwt>
<pdfrwt beam="1">  1        2 0.21175899E+00 0.15218423E+04</pdfrwt>
<pdfrwt beam="2">  1       -2 0.55800921E-01 0.15218423E+04</pdfrwt>
<totfact> 0.43539226E+01</totfact>
</mgrwt>
</event>
<event>
 8    1  0.7326756E-052  0.1642109E+04  0.7818608E-02  0.8795089E-01
         -2   -1    0    0    0  501 -0.00000000000E+00  0.00000000000E+00  0.19990861536E+04  0.19990861536E+04  0.25500000000E-02 0.  1.
          2   -1    0    0  501    0  0.00000000000E+00 -0.00000000000E+00 -0.33721926408E+03  0.33721926409E+03  0.25500000000E-02 0. -1.
     200001    2    1    2    0    0  0.41606826862E+03  0.35282721415E+03  0.78601775025E+03  0.11361052003E+04  0.61262653806E+03 0.  0.
    5000001    2    3    3    0    0  0.52958364672E+03  0.25095444138E+03  0.41673659366E+03  0.72399674910E+03  0.84053159904E+02 0.  0.
        -11    1    4    4    0    0  0.11996323695E+03  0.30289726424E+02  0.63618709218E+02  0.13912579167E+03  0.51100000000E-03 0. -1.
     200002    1    4    4    0    0  0.40962040977E+03  0.22066471496E+03  0.35311788444E+03  0.58487095743E+03  0.30000000000E+02 0. -1.
     200000    1    3    3    0    0 -0.11351537810E+03  0.10187277277E+03  0.36928115659E+03  0.41210845115E+03  0.10100000000E+03 0.  1.
    -200001    1    1    2    0    0 -0.41606826862E+03 -0.35282721415E+03  0.87584913929E+03  0.12002002175E+04  0.61300000000E+03 0.  1.
<mgrwt>
<rscale>  0 0.16421088E+04</rscale>
<asrwt>0</asrwt>
<pdfrwt beam="1">  1        2 0.48174180E-01 0.16421088E+04</pdfrwt>
<pdfrwt beam="2">  1       -2 0.28558374E+00 0.16421088E+04</pdfrwt>
<totfact> 0.39121783E+00</totfact>
</mgrwt>
</event>
<event>
 8    1  0.7326756E-052  0.1331122E+04  0.7818608E-02  0.9005243E-01
         -2   -1    0    0    0  501 -0.00000000000E+00  0.00000000000E+00  0.48343022998E+03  0.48343022999E+03  0.25500000000E-02 0. -1.
          2   -1    0    0  501    0  0.00000000000E+00 -0.00000000000E+00 -0.91630838326E+03  0.91630838326E+03  0.25500000000E-02 0.  1.
     200001    2    1    2    0    0  0.21698134754E+03 -0.38946330248E+02 -0.74150214397E+02  0.65606364664E+03  0.61345214347E+03 0.  0.
    5000001    2    3    3    0    0  0.78995531307E+02  0.23462932707E+03 -0.18044269293E+03  0.31638318392E+03  0.79041372380E+02 0.  0.
        -11    1    4    4    0    0  0.51158227277E+02  0.14652497773E+03 -0.14665750931E+03  0.21353022820E+03  0.51100000000E-03 0. -1.
     200002    1    4    4    0    0  0.27837304030E+02  0.88104349342E+02 -0.33785183617E+02  0.10285295572E+03  0.30000000000E+02 0.  1.
     200000    1    3    3    0    0  0.13798581623E+03 -0.27357565732E+03  0.10629247853E+03  0.33968046272E+03  0.10100000000E+03 0.  1.
    -200001    1    1    2    0    0 -0.21698134754E+03  0.38946330248E+02 -0.35872793888E+03  0.74367496660E+03  0.61300000000E+03 0. -1.
<mgrwt>
<rscale>  0 0.13311216E+04</rscale>
<asrwt>0</asrwt>
<pdfrwt beam="1">  1        2 0.13090120E+00 0.13311216E+04</pdfrwt>
<pdfrwt beam="2">  1       -2 0.69061462E-01 0.13311216E+04</pdfrwt>
<totfact> 0.59501042E+01</totfact>
</mgrwt>
</event>
<event>
 8    1  0.7326756E-052  0.1332387E+04  0.7818608E-02  0.9004269E-01
         -2   -1    0    0    0  501 -0.00000000000E+00  0.00000000000E+00  0.36846679993E+03  0.36846679993E+03  0.25500000000E-02 0. -1.
          2   -1    0    0  501    0  0.00000000000E+00 -0.00000000000E+00 -0.12044883485E+04  0.12044883485E+04  0.25500000000E-02 0.  1.
     200001    2    1    2    0    0 -0.23322629567E+02  0.84920494665E+02 -0.70792483195E+03  0.94055242526E+03  0.61296481262E+03 0.  0.
    5000001    2    3    3    0    0 -0.28274553444E+03  0.25204789570E+01 -0.20433420722E+03  0.35926547076E+03  0.85836007441E+02 0.  0.
        -11    1    4    4    0    0 -0.14642816040E+03 -0.35502583143E+02 -0.11018557461E+03  0.18666145939E+03  0.51100000000E-03 0. -1.
     200002    1    4    4    0    0 -0.13631737405E+03  0.38023062100E+02 -0.94148632613E+02  0.17260401137E+03  0.30000000000E+02 0. -1.
     200000    1    3    3    0    0  0.25942290488E+03  0.82400015708E+02 -0.50359062472E+03  0.58128695450E+03  0.10100000000E+03 0.  1.
    -200001    1    1    2    0    0  0.23322629567E+02 -0.84920494665E+02 -0.12809671662E+03  0.63240272317E+03  0.61300000000E+03 0. -1.
<mgrwt>
<rscale>  0 0.13323873E+04</rscale>
<asrwt>0</asrwt>
<pdfrwt beam="1">  1        2 0.17206976E+00 0.13323873E+04</pdfrwt>
<pdfrwt beam="2">  1       -2 0.52638115E-01 0.13323873E+04</pdfrwt>
<totfact> 0.70794677E+01</totfact>
</mgrwt>
</event>
<event>
 8    1  0.7326756E-052  0.1907301E+04  0.7818608E-02  0.8651231E-01
         -2   -1    0    0    0  501 -0.00000000000E+00  0.00000000000E+00  0.48303216888E+03  0.48303216889E+03  0.25500000000E-02 0. -1.
          2   -1    0    0  501    0  0.00000000000E+00 -0.00000000000E+00 -0.18827928479E+04  0.18827928479E+04  0.25500000000E-02 0.  1.
     200001    2    1    2    0    0 -0.24919126281E+03  0.67861278750E+03 -0.82857927308E+03  0.12591955398E+04  0.61352929427E+03 0.  0.
    5000001    2    3    3    0    0 -0.32161757827E+03  0.23291346986E+03 -0.14140019699E+03  0.43075753036E+03  0.88721379387E+02 0.  0.
        -11    1    4    4    0    0 -0.25938462150E+03  0.18078478886E+03 -0.13558474038E+03  0.34401561531E+03  0.51100000000E-03 0. -1.
     200002    1    4    4    0    0 -0.62232956764E+02  0.52128681008E+02 -0.58154566129E+01  0.86741915052E+02  0.30000000000E+02 0.  1.
     200000    1    3    3    0    0  0.72426315459E+02  0.44569931764E+03 -0.68717907609E+03  0.82843800947E+03  0.10100000000E+03 0. -1.
    -200001    1    1    2    0    0  0.24919126281E+03 -0.67861278750E+03 -0.57118140597E+03  0.11066294770E+04  0.61300000000E+03 0. -1.
<mgrwt>
<rscale>  0 0.19073012E+04</rscale>
<asrwt>0</asrwt>
<pdfrwt beam="1">  1        2 0.26897040E+00 0.19073012E+04</pdfrwt>
<pdfrwt beam="2">  1       -2 0.69004597E-01 0.19073012E+04</pdfrwt>
<totfact> 0.16610269E+01</totfact>
</mgrwt>
</event>
<event>
 8    1  0.7326756E-052  0.1610926E+04  0.7818608E-02  0.8813864E-01
         -2   -1    0    0    0  501 -0.00000000000E+00  0.00000000000E+00  0.26860003847E+03  0.26860003848E+03  0.25500000000E-02 0. -1.
          2   -1    0    0  501    0  0.00000000000E+00 -0.00000000000E+00 -0.24153788525E+04  0.24153788525E+04  0.25500000000E-02 0.  1.
     200001    2    1    2    0    0 -0.38247846001E+03 -0.21366395141E+03 -0.15500168884E+04  0.17228150900E+04  0.61122616389E+03 0.  0.
    5000001    2    3    3    0    0  0.68729205711E+02 -0.10955560272E+03 -0.93130033008E+03  0.94343194582E+03  0.77571887745E+02 0.  0.
        -11    1    4    4    0    0  0.30624842354E+02 -0.72655005174E+02 -0.34110670682E+03  0.35010058009E+03  0.51100000000E-03 0. -1.
     200002    1    4    4    0    0  0.38104363357E+02 -0.36900597546E+02 -0.59019362327E+03  0.59333136572E+03  0.30000000000E+02 0.  1.
     200000    1    3    3    0    0 -0.45120766572E+03 -0.10410834869E+03 -0.61871655834E+03  0.77938314418E+03  0.10100000000E+03 0. -1.
    -200001    1    1    2    0    0  0.38247846001E+03  0.21366395141E+03 -0.59676192565E+03  0.96116380103E+03  0.61300000000E+03 0. -1.
<mgrwt>
<rscale>  0 0.16109263E+04</rscale>
<asrwt>0</asrwt>
<pdfrwt beam="1">  1        2 0.34505411E+00 0.16109263E+04</pdfrwt>
<pdfrwt beam="2">  1       -2 0.38371435E-01 0.16109263E+04</pdfrwt>
<totfact> 0.30099806E+01</totfact>
</mgrwt>
</event>
<event>
 8    1  0.7326756E-052  0.1780688E+04  0.7818608E-02  0.8716637E-01
         -2   -1    0    0    0  501 -0.00000000000E+00  0.00000000000E+00  0.15002066021E+04  0.15002066021E+04  0.25500000000E-02 0. -1.
          2   -1    0    0  501    0  0.00000000000E+00 -0.00000000000E+00 -0.52840246983E+03  0.52840246983E+03  0.25500000000E-02 0.  1.
     200001    2    1    2    0    0  0.21842850628E+03 -0.48240435169E+03  0.90655663802E+03  0.12159275806E+04  0.61335957834E+03 0.  0.
    5000001    2    3    3    0    0 -0.10052581270E+02 -0.97623750957E+02 -0.61750162052E+02  0.14444320030E+03  0.86135384479E+02 0.  0.
        -11    1    4    4    0    0 -0.24762493207E+02 -0.91182906230E+02 -0.33602955653E+02  0.10028291024E+03  0.51100000000E-03 0. -1.
     200002    1    4    4    0    0  0.14709911936E+02 -0.64408447273E+01 -0.28147206399E+02  0.44160290059E+02  0.30000000000E+02 0.  1.
     200000    1    3    3    0    0  0.22848108755E+03 -0.38478060074E+03  0.96830680007E+03  0.10714843803E+04  0.10100000000E+03 0. -1.
    -200001    1    1    2    0    0 -0.21842850628E+03  0.48240435169E+03  0.65247494238E+02  0.81268149136E+03  0.61300000000E+03 0. -1.
<mgrwt>
<rscale>  0 0.17806885E+04</rscale>
<asrwt>0</asrwt>
<pdfrwt beam="1">  1        2 0.75486068E-01 0.17806885E+04</pdfrwt>
<pdfrwt beam="2">  1       -2 0.21431523E+00 0.17806885E+04</pdfrwt>
<totfact> 0.64118529E+00</totfact>
</mgrwt>
</event>
<event>
 8    1  0.7326756E-052  0.1780929E+04  0.7818608E-02  0.8716508E-01
         -2   -1    0    0    0  501 -0.00000000000E+00  0.00000000000E+00  0.47862771691E+03  0.47862771692E+03  0.25500000000E-02 0. -1.
          2   -1    0    0  501    0  0.00000000000E+00 -0.00000000000E+00 -0.16566670638E+04  0.16566670638E+04  0.25500000000E-02 0.  1.
     200001    2    1    2    0    0 -0.65077490764E+02  0.62064863157E+02 -0.13561922728E+04  0.14906285166E+04  0.61206924979E+03 0.  0.
    5000001    2    3    3    0    0  0.85351029895E+02  0.81184864790E+02 -0.69486623828E+02  0.19108754322E+03  0.13345515242E+03 0.  0.
        -11    1    4    4    0    0  0.84810921545E+02  0.11442746045E+02 -0.76571808405E+02  0.11483497156E+03  0.51100000000E-03 0. -1.
     200002    1    4    4    0    0  0.54010834931E+00  0.69742118745E+02  0.70851845773E+01  0.76252571659E+02  0.30000000000E+02 0. -1.
     200000    1    3    3    0    0 -0.15042852066E+03 -0.19120001633E+02 -0.12867056490E+04  0.12995409734E+04  0.10100000000E+03 0.  1.
    -200001    1    1    2    0    0  0.65077490764E+02 -0.62064863157E+02  0.17815292597E+03  0.64466626410E+03  0.61300000000E+03 0. -1.
<mgrwt>
<rscale>  0 0.17809287E+04</rscale>
<asrwt>0</asrwt>
<pdfrwt beam="1">  1        2 0.23666672E+00 0.17809287E+04</pdfrwt>
<pdfrwt beam="2">  1       -2 0.68375389E-01 0.17809287E+04</pdfrwt>
<totfact> 0.22418574E+01</totfact>
</mgrwt>
</event>
<event>
 8    1  0.7326756E-052  0.1385808E+04  0.7818608E-02  0.8964156E-01
          2   -1    0    0  501    0  0.00000000000E+00  0.00000000000E+00  0.12507557068E+04  0.12507557068E+04  0.25500000000E-02 0.  1.
         -2   -1    0    0    0  501 -0.00000000000E+00 -0.00000000000E+00 -0.38386045940E+03  0.38386045941E+03  0.25500000000E-02 0. -1.
     200001    2    1    2    0    0  0.29280696206E+03  0.99230757715E+02  0.32367421143E+03  0.75915014504E+03  0.61315682110E+03 0.  0.
    5000001    2    3    3    0    0  0.22661562965E+03  0.24426507969E+03  0.10968562843E+03  0.47382864096E+03  0.31853189973E+03 0.  0.
        -11    1    4    4    0    0  0.14077123809E+03  0.24184943124E+03 -0.55467916039E+02  0.28527947450E+03  0.51100000000E-03 0. -1.
     200002    1    4    4    0    0  0.85844391565E+02  0.24156484541E+01  0.16515354447E+03  0.18854916646E+03  0.30000000000E+02 0. -1.
     200000    1    3    3    0    0  0.66191332411E+02 -0.14503432198E+03  0.21398858300E+03  0.28532150408E+03  0.10100000000E+03 0.  1.
    -200001    1    1    2    0    0 -0.29280696206E+03 -0.99230757715E+02  0.54322103597E+03  0.87546602118E+03  0.61300000000E+03 0. -1.
<mgrwt>
<rscale>  0 0.13858076E+04</rscale>
<asrwt>0</asrwt>
<pdfrwt beam="1">  1        2 0.17867939E+00 0.13858076E+04</pdfrwt>
<pdfrwt beam="2">  1       -2 0.54837207E-01 0.13858076E+04</pdfrwt>
<totfact> 0.61017421E+01</totfact>
</mgrwt>
</event>
<event>
 8    1  0.7326756E-052  0.1438161E+04  0.7818608E-02  0.8926650E-01
         -2   -1    0    0    0  501 -0.00000000000E+00  0.00000000000E+00  0.97081010867E+02  0.97081010901E+02  0.25500000000E-02 0. -1.
          2   -1    0    0  501    0  0.00000000000E+00 -0.00000000000E+00 -0.53262405949E+04  0.53262405949E+04  0.25500000000E-02 0.  1.
     200001    2    1    2    0    0 -0.25675988169E+03 -0.73165151021E+02 -0.16252284366E+04  0.17578929144E+04  0.61444385525E+03 0.  0.
    5000001    2    3    3    0    0 -0.41681258549E+03 -0.36547701938E+02 -0.84784797838E+03  0.95696902141E+03  0.14790215533E+03 0.  0.
        -11    1    4    4    0    0 -0.47352828565E+02  0.32496244559E+02 -0.57400197345E+02  0.81197776688E+02  0.51100000000E-03 0. -1.
     200002    1    4    4    0    0 -0.36945975693E+03 -0.69043946497E+02 -0.79044778103E+03  0.87577124472E+03  0.30000000000E+02 0. -1.
     200000    1    3    3    0    0  0.16005270380E+03 -0.36617449083E+02 -0.77738045820E+03  0.80092389299E+03  0.10100000000E+03 0.  1.
    -200001    1    1    2    0    0  0.25675988169E+03  0.73165151021E+02 -0.36039311475E+04  0.36654286914E+04  0.61300000000E+03 0.  1.
<mgrwt>
<rscale>  0 0.14381611E+04</rscale>
<asrwt>0</asrwt>
<pdfrwt beam="1">  1        2 0.76089133E+00 0.14381611E+04</pdfrwt>
<pdfrwt beam="2">  1       -2 0.13868719E-01 0.14381611E+04</pdfrwt>
<totfact> 0.16515264E+00</totfact>
</mgrwt>
</event>
<event>
 8    1  0.7326756E-052  0.1766929E+04  0.7818608E-02  0.8724086E-01
          2   -1    0    0  501    0  0.00000000000E+00  0.00000000000E+00  0.22201854592E+04  0.22201854592E+04  0.25500000000E-02 0.  1.
         -2   -1    0    0    0  501 -0.00000000000E+00 -0.00000000000E+00 -0.35155167805E+03  0.35155167806E+03  0.25500000000E-02 0. -1.
     200001    2    1    2    0    0 -0.47163477663E+03  0.20017627643E+03  0.38192486765E+03  0.88396277508E+03  0.61074845806E+03 0.  0.
    5000001    2    3    3    0    0 -0.53396181295E+03  0.20479252251E+03  0.46327572500E+03  0.74000121362E+03  0.76955856235E+02 0.  0.
        -11    1    4    4    0    0 -0.27869348369E+03  0.12450394445E+03  0.21147814873E+03  0.37134121428E+03  0.51100000000E-03 0. -1.
     200002    1    4    4    0    0 -0.25526832926E+03  0.80288578061E+02  0.25179757627E+03  0.36865999934E+03  0.30000000000E+02 0. -1.
     200000    1    3    3    0    0  0.62327036321E+02 -0.46162460770E+01 -0.81350857358E+02  0.14396156146E+03  0.10100000000E+03 0. -1.
    -200001    1    1    2    0    0  0.47163477663E+03 -0.20017627643E+03  0.14867089135E+04  0.16877743622E+04  0.61300000000E+03 0.  1.
<mgrwt>
<rscale>  0 0.17669295E+04</rscale>
<asrwt>0</asrwt>
<pdfrwt beam="1">  1        2 0.31716935E+00 0.17669295E+04</pdfrwt>
<pdfrwt beam="2">  1       -2 0.50221669E-01 0.17669295E+04</pdfrwt>
<totfact> 0.21975769E+01</totfact>
</mgrwt>
</event>
<event>
 8    1  0.7326756E-052  0.1818614E+04  0.7818608E-02  0.8696463E-01
         -2   -1    0    0    0  501 -0.00000000000E+00  0.00000000000E+00  0.63521895645E+03  0.63521895646E+03  0.25500000000E-02 0. -1.
          2   -1    0    0  501    0  0.00000000000E+00 -0.00000000000E+00 -0.13016596719E+04  0.13016596719E+04  0.25500000000E-02 0.  1.
     200001    2    1    2    0    0 -0.97732615636E+02 -0.53591857128E+03  0.87855902550E+02  0.82265568517E+03  0.61015025816E+03 0.  0.
    5000001    2    3    3    0    0  0.13334547024E+03 -0.12454017450E+03 -0.16080122689E+03  0.27982916120E+03  0.13840540232E+03 0.  0.
        -11    1    4    4    0    0  0.89351879945E+02 -0.14752424777E+02 -0.18598728298E+02  0.92451636984E+02  0.51100000000E-03 0. -1.
     200002    1    4    4    0    0  0.43993590299E+02 -0.10978774972E+03 -0.14220249859E+03  0.18737752422E+03  0.30000000000E+02 0. -1.
     200000    1    3    3    0    0 -0.23107808588E+03 -0.41137839678E+03  0.24865712944E+03  0.54282652397E+03  0.10100000000E+03 0. -1.
    -200001    1    1    2    0    0  0.97732615636E+02  0.53591857128E+03 -0.75429661801E+03  0.11142229432E+04  0.61300000000E+03 0.  1.
<mgrwt>
<rscale>  0 0.18186136E+04</rscale>
<asrwt>0</asrwt>
<pdfrwt beam="1">  1        2 0.18595138E+00 0.18186136E+04</pdfrwt>
<pdfrwt beam="2">  1       -2 0.90745566E-01 0.18186136E+04</pdfrwt>
<totfact> 0.18371509E+01</totfact>
</mgrwt>
</event>
<event>
 8    1  0.7326756E-052  0.1526868E+04  0.7818608E-02  0.8866780E-01
          2   -1    0    0  501    0  0.00000000000E+00  0.00000000000E+00  0.51733942162E+03  0.51733942163E+03  0.25500000000E-02 0.  1.
         -2   -1    0    0    0  501 -0.00000000000E+00 -0.00000000000E+00 -0.11265936373E+04  0.11265936373E+04  0.25500000000E-02 0. -1.
     200001    2    1    2    0    0  0.29330468808E+03  0.33467292536E+03 -0.40831133387E+03  0.86023627524E+03  0.61258035950E+03 0.  0.
    5000001    2    3    3    0    0 -0.31438199578E+01 -0.11537995448E+00  0.12865651901E+03  0.15419066600E+03  0.84925642079E+02 0.  0.
        -11    1    4    4    0    0 -0.12298795658E+02  0.28104753913E+02  0.17551172463E+02  0.35343757896E+02  0.51100000000E-03 0. -1.
     200002    1    4    4    0    0  0.91549756997E+01 -0.28220133867E+02  0.11110534655E+03  0.11884690811E+03  0.30000000000E+02 0. -1.
     200000    1    3    3    0    0  0.29644850803E+03  0.33478830531E+03 -0.53696785288E+03  0.70604560923E+03  0.10100000000E+03 0. -1.
    -200001    1    1    2    0    0 -0.29330468808E+03 -0.33467292536E+03 -0.20094288180E+03  0.78369678369E+03  0.61300000000E+03 0.  1.
<mgrwt>
<rscale>  0 0.15268678E+04</rscale>
<asrwt>0</asrwt>
<pdfrwt beam="1">  1        2 0.73905632E-01 0.15268678E+04</pdfrwt>
<pdfrwt beam="2">  1       -2 0.16094195E+00 0.15268678E+04</pdfrwt>
<totfact> 0.15449013E+01</totfact>
</mgrwt>
</event>
<event>
 8    1  0.7326756E-052  0.1382119E+04  0.7818608E-02  0.8966864E-01
          2   -1    0    0  501    0  0.00000000000E+00  0.00000000000E+00  0.15159132188E+04  0.15159132188E+04  0.25500000000E-02 0.  1.
         -2   -1    0    0    0  501 -0.00000000000E+00 -0.00000000000E+00 -0.31503344239E+03  0.31503344241E+03  0.25500000000E-02 0. -1.
     200001    2    1    2    0    0 -0.18405669675E+03 -0.99699165880E+02  0.91979716567E+03  0.11248353206E+04  0.61270782696E+03 0.  0.
    5000001    2    3    3    0    0 -0.62273985140E+01  0.22652797897E+03  0.23190509379E+03  0.33651818145E+03  0.90060025360E+02 0.  0.
        -11    1    4    4    0    0 -0.12933593641E+02  0.20500083135E+03  0.18490895141E+03  0.27637644439E+03  0.51100000000E-03 0. -1.
     200002    1    4    4    0    0  0.67061951268E+01  0.21527147616E+02  0.46996142380E+02  0.60141737057E+02  0.30000000000E+02 0. -1.
     200000    1    3    3    0    0 -0.17782929824E+03 -0.32622714485E+03  0.68789207187E+03  0.78831713916E+03  0.10100000000E+03 0.  1.
    -200001    1    1    2    0    0  0.18405669675E+03  0.99699165880E+02  0.28108261077E+03  0.70611134064E+03  0.61300000000E+03 0. -1.
<mgrwt>
<rscale>  0 0.13821192E+04</rscale>
<asrwt>0</asrwt>
<pdfrwt beam="1">  1        2 0.21655903E+00 0.13821192E+04</pdfrwt>
<pdfrwt beam="2">  1       -2 0.45004778E-01 0.13821192E+04</pdfrwt>
<totfact> 0.65450437E+01</totfact>
</mgrwt>
</event>
<event>
 8    1  0.7326756E-052  0.1724782E+04  0.7818608E-02  0.8747355E-01
         -2   -1    0    0    0  501 -0.00000000000E+00  0.00000000000E+00  0.58888159078E+03  0.58888159078E+03  0.25500000000E-02 0.  1.
          2   -1    0    0  501    0  0.00000000000E+00 -0.00000000000E+00 -0.12629334332E+04  0.12629334332E+04  0.25500000000E-02 0. -1.
     200001    2    1    2    0    0  0.10979517269E+03 -0.51732825846E+03 -0.65476645513E+03  0.10419851448E+04  0.61427227218E+03 0.  0.
    5000001    2    3    3    0    0 -0.17198667478E+03 -0.44490375283E+03 -0.37378868485E+03  0.62509687927E+03  0.15332762951E+03 0.  0.
        -11    1    4    4    0    0 -0.17371753500E+03 -0.27627021890E+03 -0.27885313868E+03  0.42925760188E+03  0.51100000000E-03 0. -1.
     200002    1    4    4    0    0  0.17308602286E+01 -0.16863353393E+03 -0.94935546166E+02  0.19583927739E+03  0.30000000000E+02 0. -1.
     200000    1    3    3    0    0  0.28178184747E+03 -0.72424505622E+02 -0.28097777029E+03  0.41688826557E+03  0.10100000000E+03 0.  1.
    -200001    1    1    2    0    0 -0.10979517269E+03  0.51732825846E+03 -0.19285387266E+02  0.80982987911E+03  0.61300000000E+03 0. -1.
<mgrwt>
<rscale>  0 0.17247820E+04</rscale>
<asrwt>0</asrwt>
<pdfrwt beam="1">  1        2 0.18041906E+00 0.17247820E+04</pdfrwt>
<pdfrwt beam="2">  1       -2 0.84125942E-01 0.17247820E+04</pdfrwt>
<totfact> 0.23133467E+01</totfact>
</mgrwt>
</event>
<event>
 8    1  0.7326756E-052  0.1768275E+04  0.7818608E-02  0.8723355E-01
          2   -1    0    0  501    0  0.00000000000E+00  0.00000000000E+00  0.80669755972E+03  0.80669755972E+03  0.25500000000E-02 0.  1.
         -2   -1    0    0    0  501 -0.00000000000E+00 -0.00000000000E+00 -0.96901150123E+03  0.96901150123E+03  0.25500000000E-02 0. -1.
     200001    2    1    2    0    0 -0.62003171337E+03  0.96142554015E+02 -0.19325305229E+03  0.89797963518E+03  0.61264832221E+03 0.  0.
    5000001    2    3    3    0    0 -0.70995060930E+03  0.97289120366E+02 -0.90952788133E+02  0.72841234321E+03  0.93899368978E+02 0.  0.
        -11    1    4    4    0    0 -0.39939976270E+03  0.42806494663E+02 -0.90216964587E+02  0.41169365690E+03  0.51100000000E-03 0. -1.
     200002    1    4    4    0    0 -0.31055084660E+03  0.54482625703E+02 -0.73582354547E+00  0.31671868632E+03  0.30000000000E+02 0. -1.
     200000    1    3    3    0    0  0.89918895924E+02 -0.11465663508E+01 -0.10230026416E+03  0.16956729197E+03  0.10100000000E+03 0. -1.
    -200001    1    1    2    0    0  0.62003171337E+03 -0.96142554015E+02  0.30939110781E+02  0.87772942577E+03  0.61300000000E+03 0.  1.
<mgrwt>
<rscale>  0 0.17682751E+04</rscale>
<asrwt>0</asrwt>
<pdfrwt beam="1">  1        2 0.11524251E+00 0.17682751E+04</pdfrwt>
<pdfrwt beam="2">  1       -2 0.13843021E+00 0.17682751E+04</pdfrwt>
<totfact> 0.13197898E+01</totfact>
</mgrwt>
</event>
<event>
 8    1  0.7326756E-052  0.1288187E+04  0.7818608E-02  0.9038986E-01
         -2   -1    0    0    0  501 -0.00000000000E+00  0.00000000000E+00  0.36735556435E+03  0.36735556436E+03  0.25500000000E-02 0. -1.
          2   -1    0    0  501    0  0.00000000000E+00 -0.00000000000E+00 -0.11293048883E+04  0.11293048883E+04  0.25500000000E-02 0.  1.
     200001    2    1    2    0    0 -0.16452654879E+03 -0.63523494752E+02 -0.48553162777E+03  0.80147705069E+03  0.61279709657E+03 0.  0.
    5000001    2    3    3    0    0 -0.11439391980E+03  0.18902226287E+03 -0.47004998161E+03  0.52446925016E+03  0.72839717232E+02 0.  0.
        -11    1    4    4    0    0 -0.43743320780E+02  0.10526120611E+03 -0.28968644603E+03  0.31130633890E+03  0.51100000000E-03 0. -1.
     200002    1    4    4    0    0 -0.70650599019E+02  0.83761056768E+02 -0.18036353558E+03  0.21316291126E+03  0.30000000000E+02 0. -1.
     200000    1    3    3    0    0 -0.50132628986E+02 -0.25254575763E+03 -0.15481646166E+02  0.27700780053E+03  0.10100000000E+03 0. -1.
    -200001    1    1    2    0    0  0.16452654879E+03  0.63523494752E+02 -0.27641769621E+03  0.69518340200E+03  0.61300000000E+03 0. -1.
<mgrwt>
<rscale>  0 0.12881870E+04</rscale>
<asrwt>0</asrwt>
<pdfrwt beam="1">  1        2 0.16132927E+00 0.12881870E+04</pdfrwt>
<pdfrwt beam="2">  1       -2 0.52479367E-01 0.12881870E+04</pdfrwt>
<totfact> 0.78958718E+01</totfact>
</mgrwt>
</event>
<event>
 8    1  0.7326756E-052  0.1443644E+04  0.7818608E-02  0.8922819E-01
          2   -1    0    0  501    0  0.00000000000E+00  0.00000000000E+00  0.51270974648E+03  0.51270974648E+03  0.25500000000E-02 0.  1.
         -2   -1    0    0    0  501 -0.00000000000E+00 -0.00000000000E+00 -0.10162215825E+04  0.10162215825E+04  0.25500000000E-02 0. -1.
     200001    2    1    2    0    0 -0.12233647263E+03 -0.24153973221E+03 -0.53579653739E+03  0.85802227649E+03  0.61303885904E+03 0.  0.
    5000001    2    3    3    0    0 -0.17214993222E+03 -0.30062331594E+03 -0.56785509306E+02  0.36241677243E+03  0.90063009173E+02 0.  0.
        -11    1    4    4    0    0 -0.25862983410E+02 -0.58972671942E+02  0.21275075392E+02  0.67818130172E+02  0.51100000000E-03 0. -1.
     200002    1    4    4    0    0 -0.14628694881E+03 -0.24165064400E+03 -0.78060584698E+02  0.29459864226E+03  0.30000000000E+02 0. -1.
     200000    1    3    3    0    0  0.49813459582E+02  0.59083583738E+02 -0.47901102809E+03  0.49560550406E+03  0.10100000000E+03 0. -1.
    -200001    1    1    2    0    0  0.12233647263E+03  0.24153973221E+03  0.32284701374E+02  0.67090905249E+03  0.61300000000E+03 0.  1.
<mgrwt>
<rscale>  0 0.14436436E+04</rscale>
<asrwt>0</asrwt>
<pdfrwt beam="1">  1        2 0.73244250E-01 0.14436436E+04</pdfrwt>
<pdfrwt beam="2">  1       -2 0.14517451E+00 0.14436436E+04</pdfrwt>
<totfact> 0.20695385E+01</totfact>
</mgrwt>
</event>
<event>
 8    1  0.7326756E-052  0.1760886E+04  0.7818608E-02  0.8727381E-01
         -2   -1    0    0    0  501 -0.00000000000E+00  0.00000000000E+00  0.69972536901E+03  0.69972536901E+03  0.25500000000E-02 0. -1.
          2   -1    0    0  501    0  0.00000000000E+00 -0.00000000000E+00 -0.11078342140E+04  0.11078342140E+04  0.25500000000E-02 0.  1.
     200001    2    1    2    0    0 -0.61810114830E+03  0.11693548204E+03 -0.26876319211E+03  0.91822885289E+03  0.61252562098E+03 0.  0.
    5000001    2    3    3    0    0 -0.25799812590E+03  0.15200614444E+03  0.15734568904E+03  0.35018491383E+03  0.90569901736E+02 0.  0.
        -11    1    4    4    0    0 -0.20332773191E+03  0.96324085393E+02  0.13941021948E+03  0.26468038327E+03  0.51100000000E-03 0. -1.
     200002    1    4    4    0    0 -0.54670393985E+02  0.55682059047E+02  0.17935469561E+02  0.85504530562E+02  0.30000000000E+02 0. -1.
     200000    1    3    3    0    0 -0.36010302240E+03 -0.35070662397E+02 -0.42610888116E+03  0.56804393906E+03  0.10100000000E+03 0.  1.
    -200001    1    1    2    0    0  0.61810114830E+03 -0.11693548204E+03 -0.13934565283E+03  0.88933073007E+03  0.61300000000E+03 0.  1.
<mgrwt>
<rscale>  0 0.17608858E+04</rscale>
<asrwt>0</asrwt>
<pdfrwt beam="1">  1        2 0.15826203E+00 0.17608858E+04</pdfrwt>
<pdfrwt beam="2">  1       -2 0.99960767E-01 0.17608858E+04</pdfrwt>
<totfact> 0.18986144E+01</totfact>
</mgrwt>
</event>
<event>
 8    1  0.7326756E-052  0.1590672E+04  0.7818608E-02  0.8826299E-01
         -2   -1    0    0    0  501 -0.00000000000E+00  0.00000000000E+00  0.41023206159E+03  0.41023206160E+03  0.25500000000E-02 0. -1.
          2   -1    0    0  501    0  0.00000000000E+00 -0.00000000000E+00 -0.15419540963E+04  0.15419540963E+04  0.25500000000E-02 0.  1.
     200001    2    1    2    0    0 -0.14260802640E+03 -0.48531536954E+03 -0.60055494369E+03  0.99627008644E+03  0.61320452351E+03 0.  0.
    5000001    2    3    3    0    0 -0.27333920288E+03 -0.50096752147E+03 -0.59645226879E+03  0.83027773028E+03  0.89011364737E+02 0.  0.
        -11    1    4    4    0    0 -0.10427811812E+03 -0.26703923207E+03 -0.31727735320E+03  0.42760822752E+03  0.51100000000E-03 0. -1.
     200002    1    4    4    0    0 -0.16906108476E+03 -0.23392828940E+03 -0.27917491558E+03  0.40266950276E+03  0.30000000000E+02 0.  1.
     200000    1    3    3    0    0  0.13073117648E+03  0.15652151931E+02 -0.41026749003E+01  0.16599235617E+03  0.10100000000E+03 0.  1.
    -200001    1    1    2    0    0  0.14260802640E+03  0.48531536954E+03 -0.53116709105E+03  0.95591607149E+03  0.61300000000E+03 0.  1.
<mgrwt>
<rscale>  0 0.15906716E+04</rscale>
<asrwt>0</asrwt>
<pdfrwt beam="1">  1        2 0.22027915E+00 0.15906716E+04</pdfrwt>
<pdfrwt beam="2">  1       -2 0.58604581E-01 0.15906716E+04</pdfrwt>
<totfact> 0.36339619E+01</totfact>
</mgrwt>
</event>
<event>
 8    1  0.7326756E-052  0.2881455E+04  0.7818608E-02  0.8278417E-01
         -2   -1    0    0    0  501 -0.00000000000E+00  0.00000000000E+00  0.53399324335E+03  0.53399324336E+03  0.25500000000E-02 0. -1.
          2   -1    0    0  501    0  0.00000000000E+00 -0.00000000000E+00 -0.38871202923E+04  0.38871202923E+04  0.25500000000E-02 0.  1.
     200001    2    1    2    0    0  0.89883125826E+03  0.79756664610E+03 -0.90083237326E+03  0.16222694239E+04  0.61339133763E+03 0.  0.
    5000001    2    3    3    0    0  0.93084379924E+03  0.70199341662E+03 -0.90759853291E+03  0.14794204620E+04  0.75398083778E+02 0.  0.
        -11    1    4    4    0    0  0.63848171960E+03  0.50862413717E+03 -0.64667979061E+03  0.10414183457E+04  0.51100000000E-03 0. -1.
     200002    1    4    4    0    0  0.29236207964E+03  0.19336927945E+03 -0.26091874230E+03  0.43800211635E+03  0.30000000000E+02 0. -1.
     200000    1    3    3    0    0 -0.32012540983E+02  0.95573229474E+02  0.67661596459E+01  0.14284896180E+03  0.10100000000E+03 0. -1.
    -200001    1    1    2    0    0 -0.89883125826E+03 -0.79756664610E+03 -0.24522946757E+04  0.27988441118E+04  0.61300000000E+03 0.  1.
<mgrwt>
<rscale>  0 0.28814552E+04</rscale>
<asrwt>0</asrwt>
<pdfrwt beam="1">  1        2 0.55530288E+00 0.28814552E+04</pdfrwt>
<pdfrwt beam="2">  1       -2 0.76284751E-01 0.28814552E+04</pdfrwt>
<totfact> 0.90818014E-01</totfact>
</mgrwt>
</event>
<event>
 8    1  0.7326756E-052  0.2429465E+04  0.7818608E-02  0.8428554E-01
         -2   -1    0    0    0  501 -0.00000000000E+00  0.00000000000E+00  0.52527576855E+03  0.52527576855E+03  0.25500000000E-02 0. -1.
          2   -1    0    0  501    0  0.00000000000E+00 -0.00000000000E+00 -0.28091433299E+04  0.28091433299E+04  0.25500000000E-02 0.  1.
     200001    2    1    2    0    0 -0.48933466103E+03 -0.37700926725E+02 -0.24140231871E+04  0.25384421784E+04  0.61262629282E+03 0.  0.
    5000001    2    3    3    0    0  0.15829314547E+02 -0.42311541287E+02 -0.30829161351E+02  0.10019964236E+03  0.83956520975E+02 0.  0.
        -11    1    4    4    0    0 -0.10516839712E+01 -0.44969609286E+02 -0.44304919895E+02  0.63137134285E+02  0.51100000000E-03 0. -1.
     200002    1    4    4    0    0  0.16880998518E+02  0.26580679992E+01  0.13475758544E+02  0.37062508075E+02  0.30000000000E+02 0. -1.
     200000    1    3    3    0    0 -0.50516397558E+03  0.46106145616E+01 -0.23831940258E+04  0.24382425360E+04  0.10100000000E+03 0.  1.
    -200001    1    1    2    0    0  0.48933466103E+03  0.37700926725E+02  0.13015562577E+03  0.79597692007E+03  0.61300000000E+03 0. -1.
<mgrwt>
<rscale>  0 0.24294649E+04</rscale>
<asrwt>0</asrwt>
<pdfrwt beam="1">  1        2 0.40130618E+00 0.24294649E+04</pdfrwt>
<pdfrwt beam="2">  1       -2 0.75039397E-01 0.24294649E+04</pdfrwt>
<totfact> 0.43254805E+00</totfact>
</mgrwt>
</event>
<event>
 8    1  0.7326756E-052  0.1255467E+04  0.7818608E-02  0.9065645E-01
         -2   -1    0    0    0  501 -0.00000000000E+00  0.00000000000E+00  0.14261715322E+03  0.14261715324E+03  0.25500000000E-02 0. -1.
          2   -1    0    0  501    0  0.00000000000E+00 -0.00000000000E+00 -0.27629863616E+04  0.27629863616E+04  0.25500000000E-02 0.  1.
     200001    2    1    2    0    0 -0.52823854312E+02 -0.11420825386E+03 -0.14074111369E+04  0.15407334961E+04  0.61418214968E+03 0.  0.
    5000001    2    3    3    0    0 -0.14719181577E+02 -0.27000376819E+03 -0.12821868684E+04  0.13135632389E+04  0.91249809904E+02 0.  0.
        -11    1    4    4    0    0 -0.19842723410E+02 -0.15199461329E+02 -0.18986950922E+03  0.19150767042E+03  0.51100000000E-03 0. -1.
     200002    1    4    4    0    0  0.51235418330E+01 -0.25480430686E+03 -0.10923173592E+04  0.11220555685E+04  0.30000000000E+02 0. -1.
     200000    1    3    3    0    0 -0.38104672735E+02  0.15579551433E+03 -0.12522426849E+03  0.22717025727E+03  0.10100000000E+03 0.  1.
    -200001    1    1    2    0    0  0.52823854312E+02  0.11420825386E+03 -0.12129580715E+04  0.13648700187E+04  0.61300000000E+03 0.  1.
<mgrwt>
<rscale>  0 0.12554668E+04</rscale>
<asrwt>0</asrwt>
<pdfrwt beam="1">  1        2 0.39471230E+00 0.12554668E+04</pdfrwt>
<pdfrwt beam="2">  1       -2 0.20373881E-01 0.12554668E+04</pdfrwt>
<totfact> 0.65288683E+01</totfact>
</mgrwt>
</event>
<event>
 8    1  0.7326756E-052  0.1638455E+04  0.7818608E-02  0.8797266E-01
          2   -1    0    0  501    0  0.00000000000E+00  0.00000000000E+00  0.22725249211E+04  0.22725249211E+04  0.25500000000E-02 0.  1.
         -2   -1    0    0    0  501 -0.00000000000E+00 -0.00000000000E+00 -0.29532527138E+03  0.29532527139E+03  0.25500000000E-02 0. -1.
     200001    2    1    2    0    0 -0.22593590937E+03  0.40536824492E+03  0.54418176329E+03  0.94160306737E+03  0.61246395474E+03 0.  0.
    5000001    2    3    3    0    0 -0.42329086157E+03  0.27240469997E+03  0.35889607106E+03  0.62354635987E+03  0.81389182507E+02 0.  0.
        -11    1    4    4    0    0 -0.21285519063E+03  0.17603279289E+03  0.18384347381E+03  0.33180310308E+03  0.51100000000E-03 0. -1.
     200002    1    4    4    0    0 -0.21043567093E+03  0.96371907081E+02  0.17505259726E+03  0.29174325679E+03  0.30000000000E+02 0.  1.
     200000    1    3    3    0    0  0.19735495220E+03  0.13296354496E+03  0.18528569222E+03  0.31805670750E+03  0.10100000000E+03 0. -1.
    -200001    1    1    2    0    0  0.22593590937E+03 -0.40536824492E+03  0.14330178864E+04  0.16262471251E+04  0.61300000000E+03 0.  1.
<mgrwt>
<rscale>  0 0.16384554E+04</rscale>
<asrwt>0</asrwt>
<pdfrwt beam="1">  1        2 0.32464641E+00 0.16384554E+04</pdfrwt>
<pdfrwt beam="2">  1       -2 0.42189326E-01 0.16384554E+04</pdfrwt>
<totfact> 0.29597102E+01</totfact>
</mgrwt>
</event>
<event>
 8    1  0.7326756E-052  0.1799779E+04  0.7818608E-02  0.8706417E-01
         -2   -1    0    0    0  501 -0.00000000000E+00  0.00000000000E+00  0.57823884715E+03  0.57823884716E+03  0.25500000000E-02 0. -1.
          2   -1    0    0  501    0  0.00000000000E+00 -0.00000000000E+00 -0.14004610444E+04  0.14004610444E+04  0.25500000000E-02 0.  1.
     200001    2    1    2    0    0 -0.25965466673E+03 -0.24169215028E+03 -0.10216401480E+04  0.12429199241E+04  0.61258934377E+03 0.  0.
    5000001    2    3    3    0    0 -0.22854624890E+03  0.11162119177E+03 -0.16948016065E+03  0.31438575914E+03  0.73635605232E+02 0.  0.
        -11    1    4    4    0    0 -0.74678247990E+02  0.12828555791E+02 -0.74093342794E+02  0.10597752598E+03  0.51100000000E-03 0. -1.
     200002    1    4    4    0    0 -0.15386800091E+03  0.98792635978E+02 -0.95386817854E+02  0.20840823316E+03  0.30000000000E+02 0.  1.
     200000    1    3    3    0    0 -0.31108417831E+02 -0.35331334205E+03 -0.85215998740E+03  0.92853416494E+03  0.10100000000E+03 0. -1.
    -200001    1    1    2    0    0  0.25965466673E+03  0.24169215028E+03  0.19941795079E+03  0.73577996749E+03  0.61300000000E+03 0. -1.
<mgrwt>
<rscale>  0 0.17997789E+04</rscale>
<asrwt>0</asrwt>
<pdfrwt beam="1">  1        2 0.20006586E+00 0.17997789E+04</pdfrwt>
<pdfrwt beam="2">  1       -2 0.82605550E-01 0.17997789E+04</pdfrwt>
<totfact> 0.20135928E+01</totfact>
</mgrwt>
</event>
<event>
 8    1  0.7326756E-052  0.1641065E+04  0.7818608E-02  0.8795710E-01
          2   -1    0    0  501    0  0.00000000000E+00  0.00000000000E+00  0.29542153240E+04  0.29542153240E+04  0.25500000000E-02 0.  1.
         -2   -1    0    0    0  501 -0.00000000000E+00 -0.00000000000E+00 -0.22790265598E+03  0.22790265600E+03  0.25500000000E-02 0. -1.
     200001    2    1    2    0    0 -0.24685852958E+03  0.19675551930E+03  0.22259794729E+04  0.23302059105E+04  0.61255457189E+03 0.  0.
    5000001    2    3    3    0    0 -0.13625718785E+03  0.18401092755E+03  0.21326875169E+04  0.21532893469E+04  0.18940148959E+03 0.  0.
        -11    1    4    4    0    0  0.31667844029E+02  0.81648382255E+02  0.94569517519E+03  0.94974137271E+03  0.51100000000E-03 0. -1.
     200002    1    4    4    0    0 -0.16792503188E+03  0.10236254529E+03  0.11869923417E+04  0.12035479742E+04  0.30000000000E+02 0. -1.
     200000    1    3    3    0    0 -0.11060134173E+03  0.12744591751E+02  0.93291956062E+02  0.17691656361E+03  0.10100000000E+03 0. -1.
    -200001    1    1    2    0    0  0.24685852958E+03 -0.19675551930E+03  0.50033319507E+03  0.85191206946E+03  0.61300000000E+03 0. -1.
<mgrwt>
<rscale>  0 0.16410649E+04</rscale>
<asrwt>0</asrwt>
<pdfrwt beam="1">  1        2 0.42203076E+00 0.16410649E+04</pdfrwt>
<pdfrwt beam="2">  1       -2 0.32557522E-01 0.16410649E+04</pdfrwt>
<totfact> 0.21136680E+01</totfact>
</mgrwt>
</event>
<event>
 8    1  0.7326756E-052  0.1356419E+04  0.7818608E-02  0.8985983E-01
         -2   -1    0    0    0  501 -0.00000000000E+00  0.00000000000E+00  0.22526088617E+03  0.22526088618E+03  0.25500000000E-02 0. -1.
          2   -1    0    0  501    0  0.00000000000E+00 -0.00000000000E+00 -0.20419350690E+04  0.20419350690E+04  0.25500000000E-02 0.  1.
     200001    2    1    2    0    0  0.60305984064E+01 -0.25522770134E+03 -0.68272414531E+03  0.95312242784E+03  0.61412747554E+03 0.  0.
    5000001    2    3    3    0    0  0.28147981905E+03 -0.18127304022E+03 -0.46288151838E+03  0.57912597643E+03  0.95062047464E+02 0.  0.
        -11    1    4    4    0    0  0.73725518737E+02 -0.82145052368E+02 -0.19986588047E+03  0.22831914488E+03  0.51100000000E-03 0. -1.
     200002    1    4    4    0    0  0.20775430031E+03 -0.99127987847E+02 -0.26301563792E+03  0.35080683155E+03  0.30000000000E+02 0. -1.
     200000    1    3    3    0    0 -0.27544922065E+03 -0.73954661130E+02 -0.21984262693E+03  0.37399645142E+03  0.10100000000E+03 0. -1.
    -200001    1    1    2    0    0 -0.60305984064E+01  0.25522770134E+03 -0.11339500375E+04  0.13140735273E+04  0.61300000000E+03 0.  1.
<mgrwt>
<rscale>  0 0.13564190E+04</rscale>
<asrwt>0</asrwt>
<pdfrwt beam="1">  1        2 0.29170500E+00 0.13564190E+04</pdfrwt>
<pdfrwt beam="2">  1       -2 0.32180128E-01 0.13564190E+04</pdfrwt>
<totfact> 0.67051575E+01</totfact>
</mgrwt>
</event>
<event>
 8    1  0.7326756E-052  0.1387502E+04  0.7818608E-02  0.8962915E-01
         -2   -1    0    0    0  501 -0.00000000000E+00  0.00000000000E+00  0.16394016802E+03  0.16394016804E+03  0.25500000000E-02 0. -1.
          2   -1    0    0  501    0  0.00000000000E+00 -0.00000000000E+00 -0.29357673961E+04  0.29357673961E+04  0.25500000000E-02 0.  1.
     200001    2    1    2    0    0  0.27216065045E+03  0.11617008018E+03 -0.10881240979E+04  0.12836150175E+04  0.61325896136E+03 0.  0.
    5000001    2    3    3    0    0  0.32301720834E+03 -0.13304130662E+03 -0.85064239438E+03  0.92127365323E+03  0.55790275750E+02 0.  0.
        -11    1    4    4    0    0  0.58124355488E+02 -0.32121762160E+02 -0.12285748465E+03  0.13965747327E+03  0.51100000000E-03 0. -1.
     200002    1    4    4    0    0  0.26489285285E+03 -0.10091954446E+03 -0.72778490973E+03  0.78161617996E+03  0.30000000000E+02 0. -1.
     200000    1    3    3    0    0 -0.50856557884E+02  0.24921138680E+03 -0.23748170349E+03  0.36234136430E+03  0.10100000000E+03 0. -1.
    -200001    1    1    2    0    0 -0.27216065045E+03 -0.11617008018E+03 -0.16837031302E+04  0.18160925466E+04  0.61300000000E+03 0.  1.
<mgrwt>
<rscale>  0 0.13875016E+04</rscale>
<asrwt>0</asrwt>
<pdfrwt beam="1">  1        2 0.41939531E+00 0.13875016E+04</pdfrwt>
<pdfrwt beam="2">  1       -2 0.23420026E-01 0.13875016E+04</pdfrwt>
<totfact> 0.40569690E+01</totfact>
</mgrwt>
</event>
<event>
 8    1  0.7326756E-052  0.1434695E+04  0.7818608E-02  0.8929080E-01
          2   -1    0    0  501    0  0.00000000000E+00  0.00000000000E+00  0.37186957510E+04  0.37186957510E+04  0.25500000000E-02 0.  1.
         -2   -1    0    0    0  501 -0.00000000000E+00 -0.00000000000E+00 -0.13837855463E+03  0.13837855465E+03  0.25500000000E-02 0. -1.
     200001    2    1    2    0    0  0.13207223288E+03 -0.34284941620E+03  0.16449483894E+04  0.17939673729E+04  0.61438988797E+03 0.  0.
    5000001    2    3    3    0    0  0.31026861484E+03 -0.32287604742E+03  0.14074594175E+04  0.14797144528E+04  0.89984969320E+02 0.  0.
        -11    1    4    4    0    0  0.22776081068E+03 -0.20040169118E+03  0.86221020425E+03  0.91402530655E+03  0.51100000000E-03 0. -1.
     200002    1    4    4    0    0  0.82507804157E+02 -0.12247435624E+03  0.54524921322E+03  0.56568914626E+03  0.30000000000E+02 0. -1.
     200000    1    3    3    0    0 -0.17819638196E+03 -0.19973368785E+02  0.23748897190E+03  0.31425292007E+03  0.10100000000E+03 0. -1.
    -200001    1    1    2    0    0 -0.13207223288E+03  0.34284941620E+03  0.19353688070E+04  0.20631069328E+04  0.61300000000E+03 0.  1.
<mgrwt>
<rscale>  0 0.14346954E+04</rscale>
<asrwt>0</asrwt>
<pdfrwt beam="1">  1        2 0.53124225E+00 0.14346954E+04</pdfrwt>
<pdfrwt beam="2">  1       -2 0.19768365E-01 0.14346954E+04</pdfrwt>
<totfact> 0.18876864E+01</totfact>
</mgrwt>
</event>
<event>
 8    1  0.7326756E-052  0.1436443E+04  0.7818608E-02  0.8927854E-01
          2   -1    0    0  501    0  0.00000000000E+00  0.00000000000E+00  0.83611215167E+03  0.83611215167E+03  0.25500000000E-02 0.  1.
         -2   -1    0    0    0  501 -0.00000000000E+00 -0.00000000000E+00 -0.61695295016E+03  0.61695295016E+03  0.25500000000E-02 0. -1.
     200001    2    1    2    0    0 -0.14389499719E+03  0.33277565903E+03  0.17894561839E+03  0.73974081252E+03  0.61947520201E+03 0.  0.
    5000001    2    3    3    0    0  0.18532349617E+03  0.14727037127E+03 -0.91386336732E+02  0.26426484665E+03  0.73831471277E+02 0.  0.
        -11    1    4    4    0    0  0.36099347416E+02  0.36476264637E+02  0.70807246956E+01  0.51805573331E+02  0.51100000000E-03 0. -1.
     200002    1    4    4    0    0  0.14922414875E+03  0.11079410663E+03 -0.98467061428E+02  0.21245927332E+03  0.30000000000E+02 0. -1.
     200000    1    3    3    0    0 -0.32921849336E+03  0.18550528776E+03  0.27033195512E+03  0.47547596587E+03  0.10100000000E+03 0. -1.
    -200001    1    1    2    0    0  0.14389499719E+03 -0.33277565903E+03  0.40213583124E+02  0.71332428931E+03  0.61300000000E+03 0. -1.
<mgrwt>
<rscale>  0 0.14364426E+04</rscale>
<asrwt>0</asrwt>
<pdfrwt beam="1">  1        2 0.11944459E+00 0.14364426E+04</pdfrwt>
<pdfrwt beam="2">  1       -2 0.88136135E-01 0.14364426E+04</pdfrwt>
<totfact> 0.38705888E+01</totfact>
</mgrwt>
</event>
<event>
 8    1  0.7326756E-052  0.1251724E+04  0.7818608E-02  0.9068749E-01
         -2   -1    0    0    0  501 -0.00000000000E+00  0.00000000000E+00  0.19272953875E+03  0.19272953876E+03  0.25500000000E-02 0. -1.
          2   -1    0    0  501    0  0.00000000000E+00 -0.00000000000E+00 -0.20323991558E+04  0.20323991558E+04  0.25500000000E-02 0.  1.
     200001    2    1    2    0    0 -0.11025418737E+03 -0.43145639180E+02 -0.84118705725E+03  0.10475235170E+04  0.61293745304E+03 0.  0.
    5000001    2    3    3    0    0 -0.32610771973E+03  0.95858030871E+02 -0.50755988917E+03  0.61459990364E+03  0.67683037049E+02 0.  0.
        -11    1    4    4    0    0 -0.23113452662E+03  0.74215293771E+02 -0.38568007950E+03  0.45571943447E+03  0.51100000000E-03 0. -1.
     200002    1    4    4    0    0 -0.94973193108E+02  0.21642737099E+02 -0.12187980967E+03  0.15888046917E+03  0.30000000000E+02 0.  1.
     200000    1    3    3    0    0  0.21585353236E+03 -0.13900367005E+03 -0.33362716808E+03  0.43292361335E+03  0.10100000000E+03 0. -1.
    -200001    1    1    2    0    0  0.11025418737E+03  0.43145639180E+02 -0.99848255978E+03  0.11776051775E+04  0.61300000000E+03 0. -1.
<mgrwt>
<rscale>  0 0.12517242E+04</rscale>
<asrwt>0</asrwt>
<pdfrwt beam="1">  1        2 0.29034272E+00 0.12517242E+04</pdfrwt>
<pdfrwt beam="2">  1       -2 0.27532792E-01 0.12517242E+04</pdfrwt>
<totfact> 0.91355452E+01</totfact>
</mgrwt>
</event>
<event>
 8    1  0.7326756E-052  0.1399381E+04  0.7818608E-02  0.8954267E-01
          2   -1    0    0  501    0  0.00000000000E+00  0.00000000000E+00  0.66068384578E+03  0.66068384579E+03  0.25500000000E-02 0.  1.
         -2   -1    0    0    0  501 -0.00000000000E+00 -0.00000000000E+00 -0.74100007779E+03  0.74100007780E+03  0.25500000000E-02 0. -1.
     200001    2    1    2    0    0  0.38870691461E+02 -0.33284553558E+03 -0.84160466703E+01  0.69937649954E+03  0.61380744298E+03 0.  0.
    5000001    2    3    3    0    0 -0.10383188924E+03 -0.36573091205E+03 -0.20213239694E+03  0.43636984775E+03  0.70858851865E+02 0.  0.
        -11    1    4    4    0    0 -0.13436971724E+02 -0.13853975277E+03 -0.56687377154E+02  0.15029063190E+03  0.51100000000E-03 0. -1.
     200002    1    4    4    0    0 -0.90394917515E+02 -0.22719115927E+03 -0.14544501979E+03  0.28607921586E+03  0.30000000000E+02 0. -1.
     200000    1    3    3    0    0  0.14270258070E+03  0.32885376464E+02  0.19371635027E+03  0.26300665179E+03  0.10100000000E+03 0.  1.
    -200001    1    1    2    0    0 -0.38870691461E+02  0.33284553558E+03 -0.71900185338E+02  0.70230742404E+03  0.61300000000E+03 0. -1.
<mgrwt>
<rscale>  0 0.13993810E+04</rscale>
<asrwt>0</asrwt>
<pdfrwt beam="1">  1        2 0.94383406E-01 0.13993810E+04</pdfrwt>
<pdfrwt beam="2">  1       -2 0.10585715E+00 0.13993810E+04</pdfrwt>
<totfact> 0.33964451E+01</totfact>
</mgrwt>
</event>
<event>
 8    1  0.7326756E-052  0.1473309E+04  0.7818608E-02  0.8902398E-01
          2   -1    0    0  501    0  0.00000000000E+00  0.00000000000E+00  0.14924399160E+04  0.14924399160E+04  0.25500000000E-02 0.  1.
         -2   -1    0    0    0  501 -0.00000000000E+00 -0.00000000000E+00 -0.36360600215E+03  0.36360600216E+03  0.25500000000E-02 0. -1.
     200001    2    1    2    0    0  0.17526711504E+03 -0.10628464692E+03  0.10088561218E+04  0.11986429532E+04  0.61395379864E+03 0.  0.
    5000001    2    3    3    0    0  0.26499053162E+03 -0.45628486332E+02  0.22934722815E+03  0.40519189821E+03  0.19818774610E+03 0.  0.
        -11    1    4    4    0    0  0.13343893653E+03  0.62986611302E+01 -0.57887175034E+00  0.13358876453E+03  0.51100000000E-03 0. -1.
     200002    1    4    4    0    0  0.13155159508E+03 -0.51927147463E+02  0.22992609990E+03  0.27160313369E+03  0.30000000000E+02 0. -1.
     200000    1    3    3    0    0 -0.89723416576E+02 -0.60656160585E+02  0.77950889367E+03  0.79345105495E+03  0.10100000000E+03 0.  1.
    -200001    1    1    2    0    0 -0.17526711504E+03  0.10628464692E+03  0.11997779202E+03  0.65740296498E+03  0.61300000000E+03 0. -1.
<mgrwt>
<rscale>  0 0.14733094E+04</rscale>
<asrwt>0</asrwt>
<pdfrwt beam="1">  1        2 0.21320571E+00 0.14733094E+04</pdfrwt>
<pdfrwt beam="2">  1       -2 0.51943713E-01 0.14733094E+04</pdfrwt>
<totfact> 0.50048285E+01</totfact>
</mgrwt>
</event>
<event>
 8    1  0.7326756E-052  0.1290115E+04  0.7818608E-02  0.9037441E-01
         -2   -1    0    0    0  501 -0.00000000000E+00  0.00000000000E+00  0.10710326837E+03  0.10710326840E+03  0.25500000000E-02 0. -1.
          2   -1    0    0  501    0  0.00000000000E+00 -0.00000000000E+00 -0.38850306964E+04  0.38850306965E+04  0.25500000000E-02 0.  1.
     200001    2    1    2    0    0 -0.70485536602E+02  0.12410894650E+03 -0.14482880779E+04  0.15789701198E+04  0.61256594827E+03 0.  0.
    5000001    2    3    3    0    0  0.24711581954E+03  0.63940229352E+01 -0.80658490108E+03  0.84636422856E+03  0.68162254532E+02 0.  0.
        -11    1    4    4    0    0  0.11764316259E+03 -0.19804194684E+02 -0.32998736055E+03  0.35088997984E+03  0.51100000000E-03 0. -1.
     200002    1    4    4    0    0  0.12947265695E+03  0.26198217619E+02 -0.47659754053E+03  0.49547424871E+03  0.30000000000E+02 0. -1.
     200000    1    3    3    0    0 -0.31760135614E+03  0.11771492357E+03 -0.64170317685E+03  0.73260589120E+03  0.10100000000E+03 0. -1.
    -200001    1    1    2    0    0  0.70485536602E+02 -0.12410894650E+03 -0.23296393502E+04  0.24131638451E+04  0.61300000000E+03 0.  1.
<mgrwt>
<rscale>  0 0.12901155E+04</rscale>
<asrwt>0</asrwt>
<pdfrwt beam="1">  1        2 0.55500430E+00 0.12901155E+04</pdfrwt>
<pdfrwt beam="2">  1       -2 0.15300469E-01 0.12901155E+04</pdfrwt>
<totfact> 0.23290595E+01</totfact>
</mgrwt>
</event>
<event>
 8    1  0.7326756E-052  0.1267434E+04  0.7818608E-02  0.9055796E-01
          2   -1    0    0  501    0  0.00000000000E+00  0.00000000000E+00  0.63085736251E+03  0.63085736251E+03  0.25500000000E-02 0.  1.
         -2   -1    0    0    0  501 -0.00000000000E+00 -0.00000000000E+00 -0.63658982724E+03  0.63658982725E+03  0.25500000000E-02 0. -1.
     200001    2    1    2    0    0 -0.71720997531E+02  0.13599014203E+03  0.39993455622E+02  0.63380921741E+03  0.61357756426E+03 0.  0.
    5000001    2    3    3    0    0  0.52593111002E+02  0.26155660151E+02 -0.25634953681E+03  0.27949610707E+03  0.94619421701E+02 0.  0.
        -11    1    4    4    0    0 -0.23685313244E+02  0.22534569348E+01 -0.35680088066E+02  0.42885205098E+02  0.51100000000E-03 0. -1.
     200002    1    4    4    0    0  0.76278424246E+02  0.23902203217E+02 -0.22066944874E+03  0.23661090197E+03  0.30000000000E+02 0. -1.
     200000    1    3    3    0    0 -0.12431410853E+03  0.10983448188E+03  0.29634299243E+03  0.35431311033E+03  0.10100000000E+03 0.  1.
    -200001    1    1    2    0    0  0.71720997531E+02 -0.13599014203E+03 -0.45725920357E+02  0.63363797235E+03  0.61300000000E+03 0. -1.
<mgrwt>
<rscale>  0 0.12674342E+04</rscale>
<asrwt>0</asrwt>
<pdfrwt beam="1">  1        2 0.90122480E-01 0.12674342E+04</pdfrwt>
<pdfrwt beam="2">  1       -2 0.90941404E-01 0.12674342E+04</pdfrwt>
<totfact> 0.51869556E+01</totfact>
</mgrwt>
</event>
<event>
 8    1  0.7326756E-052  0.2209782E+04  0.7818608E-02  0.8514367E-01
         -2   -1    0    0    0  501 -0.00000000000E+00  0.00000000000E+00  0.71295494901E+03  0.71295494901E+03  0.25500000000E-02 0. -1.
          2   -1    0    0  501    0  0.00000000000E+00 -0.00000000000E+00 -0.17122885741E+04  0.17122885741E+04  0.25500000000E-02 0.  1.
     200001    2    1    2    0    0 -0.76972091842E+02 -0.82093559817E+03 -0.94503328826E+03  0.13963715749E+04  0.61392646140E+03 0.  0.
    5000001    2    3    3    0    0 -0.24987794490E+03 -0.60125904890E+03 -0.38516655441E+03  0.76248989825E+03  0.95321241422E+02 0.  0.
        -11    1    4    4    0    0 -0.21257410731E+03 -0.42979466265E+03 -0.29451291369E+03  0.56271578925E+03  0.51100000000E-03 0. -1.
     200002    1    4    4    0    0 -0.37303837592E+02 -0.17146438625E+03 -0.90653640722E+02  0.19977410900E+03  0.30000000000E+02 0.  1.
     200000    1    3    3    0    0  0.17290585306E+03 -0.21967654928E+03 -0.55986673385E+03  0.63388167665E+03  0.10100000000E+03 0.  1.
    -200001    1    1    2    0    0  0.76972091842E+02  0.82093559817E+03 -0.54300336844E+02  0.10288719482E+04  0.61300000000E+03 0. -1.
<mgrwt>
<rscale>  0 0.22097824E+04</rscale>
<asrwt>0</asrwt>
<pdfrwt beam="1">  1        2 0.24461265E+00 0.22097824E+04</pdfrwt>
<pdfrwt beam="2">  1       -2 0.10185071E+00 0.22097824E+04</pdfrwt>
<totfact> 0.82029464E+00</totfact>
</mgrwt>
</event>
<event>
 8    1  0.7326756E-052  0.2182989E+04  0.7818608E-02  0.8525542E-01
          2   -1    0    0  501    0  0.00000000000E+00  0.00000000000E+00  0.22498427438E+04  0.22498427438E+04  0.25500000000E-02 0.  1.
         -2   -1    0    0    0  501 -0.00000000000E+00 -0.00000000000E+00 -0.52953065431E+03  0.52953065431E+03  0.25500000000E-02 0. -1.
     200001    2    1    2    0    0 -0.14073953082E+03  0.89011233701E+03  0.78566344024E+03  0.13436001968E+04  0.61309612587E+03 0.  0.
    5000001    2    3    3    0    0  0.13774692075E+03  0.67231771210E+03  0.65360230304E+03  0.95292085734E+03  0.99382441249E+02 0.  0.
        -11    1    4    4    0    0  0.83950669375E+01  0.21681853259E+03  0.17221457669E+03  0.27701735262E+03  0.51100000000E-03 0. -1.
     200002    1    4    4    0    0  0.12935185381E+03  0.45549917951E+03  0.48138772635E+03  0.67590350472E+03  0.30000000000E+02 0. -1.
     200000    1    3    3    0    0 -0.27848645157E+03  0.21779462490E+03  0.13206113720E+03  0.39067933949E+03  0.10100000000E+03 0.  1.
    -200001    1    1    2    0    0  0.14073953082E+03 -0.89011233701E+03  0.93464864929E+03  0.14357732013E+04  0.61300000000E+03 0.  1.
<mgrwt>
<rscale>  0 0.21829894E+04</rscale>
<asrwt>0</asrwt>
<pdfrwt beam="1">  1        2 0.32140611E+00 0.21829894E+04</pdfrwt>
<pdfrwt beam="2">  1       -2 0.75647235E-01 0.21829894E+04</pdfrwt>
<totfact> 0.85821744E+00</totfact>
</mgrwt>
</event>
<event>
 8    1  0.7326756E-052  0.1624347E+04  0.7818608E-02  0.8805729E-01
         -2   -1    0    0    0  501 -0.00000000000E+00  0.00000000000E+00  0.26858636630E+03  0.26858636631E+03  0.25500000000E-02 0. -1.
          2   -1    0    0  501    0  0.00000000000E+00 -0.00000000000E+00 -0.24559158253E+04  0.24559158253E+04  0.25500000000E-02 0.  1.
     200001    2    1    2    0    0 -0.12567425735E+03  0.51598573677E+03 -0.10233190991E+04  0.13057970011E+04  0.61309748826E+03 0.  0.
    5000001    2    3    3    0    0  0.19657045721E+03  0.38878021546E+03 -0.53629215175E+03  0.69964590764E+03  0.11002328606E+03 0.  0.
        -11    1    4    4    0    0  0.51107399533E+02  0.58135245857E+02 -0.46438663879E+02  0.90267505788E+02  0.51100000000E-03 0. -1.
     200002    1    4    4    0    0  0.14546305767E+03  0.33064496960E+03 -0.48985348787E+03  0.60937840186E+03  0.30000000000E+02 0. -1.
     200000    1    3    3    0    0 -0.32224471455E+03  0.12720552131E+03 -0.48702694734E+03  0.60615109349E+03  0.10100000000E+03 0. -1.
    -200001    1    1    2    0    0  0.12567425735E+03 -0.51598573677E+03 -0.11640103599E+04  0.14187051905E+04  0.61300000000E+03 0.  1.
<mgrwt>
<rscale>  0 0.16243466E+04</rscale>
<asrwt>0</asrwt>
<pdfrwt beam="1">  1        2 0.35084510E+00 0.16243466E+04</pdfrwt>
<pdfrwt beam="2">  1       -2 0.38369482E-01 0.16243466E+04</pdfrwt>
<totfact> 0.28636524E+01</totfact>
</mgrwt>
</event>
<event>
 8    1  0.7326756E-052  0.1360755E+04  0.7818608E-02  0.8982727E-01
          2   -1    0    0  501    0  0.00000000000E+00  0.00000000000E+00  0.29378288493E+04  0.29378288493E+04  0.25500000000E-02 0.  1.
         -2   -1    0    0    0  501 -0.00000000000E+00 -0.00000000000E+00 -0.15756985215E+03  0.15756985217E+03  0.25500000000E-02 0. -1.
     200001    2    1    2    0    0  0.82933440985E+02 -0.17029477513E+03  0.87341327373E+03  0.10835070844E+04  0.61258353639E+03 0.  0.
    5000001    2    3    3    0    0 -0.40511665866E+02 -0.11736336530E+03  0.90188983200E+03  0.91305960586E+03  0.69693760136E+02 0.  0.
        -11    1    4    4    0    0 -0.13411858458E+02 -0.95468075211E+02  0.61121515769E+03  0.61877136353E+03  0.51100000000E-03 0. -1.
     200002    1    4    4    0    0 -0.27099807408E+02 -0.21895290092E+02  0.29067467431E+03  0.29428824234E+03  0.30000000000E+02 0.  1.
     200000    1    3    3    0    0  0.12344510685E+03 -0.52931409825E+02 -0.28476558279E+02  0.17044747849E+03  0.10100000000E+03 0. -1.
    -200001    1    1    2    0    0 -0.82933440985E+02  0.17029477513E+03  0.19068457234E+04  0.20118916171E+04  0.61300000000E+03 0.  1.
<mgrwt>
<rscale>  0 0.13607546E+04</rscale>
<asrwt>0</asrwt>
<pdfrwt beam="1">  1        2 0.41968980E+00 0.13607546E+04</pdfrwt>
<pdfrwt beam="2">  1       -2 0.22509981E-01 0.13607546E+04</pdfrwt>
<totfact> 0.43542974E+01</totfact>
</mgrwt>
</event>
<event>
 8    1  0.7326756E-052  0.1488447E+04  0.7818608E-02  0.8892172E-01
          2   -1    0    0  501    0  0.00000000000E+00  0.00000000000E+00  0.78720757037E+03  0.78720757037E+03  0.25500000000E-02 0.  1.
         -2   -1    0    0    0  501 -0.00000000000E+00 -0.00000000000E+00 -0.70358633103E+03  0.70358633104E+03  0.25500000000E-02 0. -1.
     200001    2    1    2    0    0  0.32177503781E+03 -0.26107119409E+03 -0.33608688927E+02  0.74165492938E+03  0.61418657341E+03 0.  0.
    5000001    2    3    3    0    0  0.79792625616E+02  0.18524674831E+03 -0.68224462728E+02  0.22285396049E+03  0.65773015226E+02 0.  0.
        -11    1    4    4    0    0 -0.69542489850E+01  0.34656122186E+02 -0.16893179580E+02  0.39176369160E+02  0.51100000000E-03 0. -1.
     200002    1    4    4    0    0  0.86746874601E+02  0.15059062612E+03 -0.51331283148E+02  0.18367759134E+03  0.30000000000E+02 0.  1.
     200000    1    3    3    0    0  0.24198241220E+03 -0.44631794239E+03  0.34615773801E+02  0.51880096888E+03  0.10100000000E+03 0.  1.
    -200001    1    1    2    0    0 -0.32177503781E+03  0.26107119409E+03  0.11722992826E+03  0.74913897203E+03  0.61300000000E+03 0.  1.
<mgrwt>
<rscale>  0 0.14884468E+04</rscale>
<asrwt>0</asrwt>
<pdfrwt beam="1">  1        2 0.11245822E+00 0.14884468E+04</pdfrwt>
<pdfrwt beam="2">  1       -2 0.10051233E+00 0.14884468E+04</pdfrwt>
<totfact> 0.30691662E+01</totfact>
</mgrwt>
</event>
<event>
 8    1  0.7326756E-052  0.1249369E+04  0.7818608E-02  0.9070709E-01
          2   -1    0    0  501    0  0.00000000000E+00  0.00000000000E+00  0.46558205739E+03  0.46558205740E+03  0.25500000000E-02 0.  1.
         -2   -1    0    0    0  501 -0.00000000000E+00 -0.00000000000E+00 -0.83815650539E+03  0.83815650539E+03  0.25500000000E-02 0. -1.
     200001    2    1    2    0    0 -0.11365581879E+03  0.10280520481E+02 -0.20681763401E+03  0.65855048507E+03  0.61472910571E+03 0.  0.
    5000001    2    3    3    0    0 -0.73410823492E+02  0.19709197594E+03 -0.32522067633E+03  0.41209874543E+03  0.14079237085E+03 0.  0.
        -11    1    4    4    0    0  0.11697122690E+02  0.46285372721E+02 -0.65607630092E+01  0.48189231356E+02  0.51100000000E-03 0. -1.
     200002    1    4    4    0    0 -0.85107946182E+02  0.15080660322E+03 -0.31865991332E+03  0.36390951408E+03  0.30000000000E+02 0. -1.
     200000    1    3    3    0    0 -0.40244995302E+02 -0.18681145546E+03  0.11840304232E+03  0.24645173964E+03  0.10100000000E+03 0. -1.
    -200001    1    1    2    0    0  0.11365581879E+03 -0.10280520481E+02 -0.16575681399E+03  0.64518807772E+03  0.61300000000E+03 0. -1.
<mgrwt>
<rscale>  0 0.12493688E+04</rscale>
<asrwt>0</asrwt>
<pdfrwt beam="1">  1        2 0.66511723E-01 0.12493688E+04</pdfrwt>
<pdfrwt beam="2">  1       -2 0.11973664E+00 0.12493688E+04</pdfrwt>
<totfact> 0.38291101E+01</totfact>
</mgrwt>
</event>
<event>
 8    1  0.7326756E-052  0.1576959E+04  0.7818608E-02  0.8834829E-01
         -2   -1    0    0    0  501 -0.00000000000E+00  0.00000000000E+00  0.46070953728E+03  0.46070953728E+03  0.25500000000E-02 0. -1.
          2   -1    0    0  501    0  0.00000000000E+00 -0.00000000000E+00 -0.13494407864E+04  0.13494407864E+04  0.25500000000E-02 0.  1.
     200001    2    1    2    0    0 -0.16348465155E+03 -0.19691543450E+03  0.42835148470E+02  0.66599654348E+03  0.61336255701E+03 0.  0.
    5000001    2    3    3    0    0 -0.26921485533E+03  0.72864212410E+02  0.16635323762E+03  0.33521315178E+03  0.83118142902E+02 0.  0.
        -11    1    4    4    0    0 -0.12962875953E+03  0.71926397437E+02  0.84662722330E+02  0.17071847732E+03  0.51100000000E-03 0. -1.
     200002    1    4    4    0    0 -0.13958609580E+03  0.93781497218E+00  0.81690515291E+02  0.16449467446E+03  0.30000000000E+02 0. -1.
     200000    1    3    3    0    0  0.10573020378E+03 -0.26977964690E+03 -0.12351808915E+03  0.33078339170E+03  0.10100000000E+03 0. -1.
    -200001    1    1    2    0    0  0.16348465155E+03  0.19691543450E+03 -0.93156639759E+03  0.11441537802E+04  0.61300000000E+03 0. -1.
<mgrwt>
<rscale>  0 0.15769594E+04</rscale>
<asrwt>0</asrwt>
<pdfrwt beam="1">  1        2 0.19277725E+00 0.15769594E+04</pdfrwt>
<pdfrwt beam="2">  1       -2 0.65815649E-01 0.15769594E+04</pdfrwt>
<totfact> 0.36065267E+01</totfact>
</mgrwt>
</event>
<event>
 8    1  0.7326756E-052  0.1254976E+04  0.7818608E-02  0.9066052E-01
         -2   -1    0    0    0  501 -0.00000000000E+00  0.00000000000E+00  0.56437353119E+03  0.56437353119E+03  0.25500000000E-02 0. -1.
          2   -1    0    0  501    0  0.00000000000E+00 -0.00000000000E+00 -0.69766068716E+03  0.69766068716E+03  0.25500000000E-02 0.  1.
     200001    2    1    2    0    0  0.39242557383E+02  0.12250058683E+03 -0.10212772794E+03  0.63490880662E+03  0.61329662304E+03 0.  0.
    5000001    2    3    3    0    0 -0.21134762712E+03  0.11454664871E+03  0.20126974648E+02  0.33825089252E+03  0.23710718454E+03 0.  0.
        -11    1    4    4    0    0  0.32978008776E+02  0.35958215657E+02  0.59414017426E+02  0.76880217241E+02  0.51100000000E-03 0. -1.
     200002    1    4    4    0    0 -0.24432563589E+03  0.78588433053E+02 -0.39287042778E+02  0.26137067528E+03  0.30000000000E+02 0. -1.
     200000    1    3    3    0    0  0.25059018450E+03  0.79539381175E+01 -0.12225470258E+03  0.29665791411E+03  0.10100000000E+03 0.  1.
    -200001    1    1    2    0    0 -0.39242557383E+02 -0.12250058683E+03 -0.31159428035E+02  0.62712541173E+03  0.61300000000E+03 0.  1.
<mgrwt>
<rscale>  0 0.12549761E+04</rscale>
<asrwt>0</asrwt>
<pdfrwt beam="1">  1        2 0.99665812E-01 0.12549761E+04</pdfrwt>
<pdfrwt beam="2">  1       -2 0.80624791E-01 0.12549761E+04</pdfrwt>
<totfact> 0.60445216E+01</totfact>
</mgrwt>
</event>
<event>
 8    1  0.7326756E-052  0.1422889E+04  0.7818608E-02  0.8937415E-01
         -2   -1    0    0    0  501 -0.00000000000E+00  0.00000000000E+00  0.48569591360E+03  0.48569591361E+03  0.25500000000E-02 0. -1.
          2   -1    0    0  501    0  0.00000000000E+00 -0.00000000000E+00 -0.10421196018E+04  0.10421196018E+04  0.25500000000E-02 0.  1.
     200001    2    1    2    0    0 -0.29547571397E+03 -0.20233831511E+03 -0.23149949528E+03  0.74705215663E+03  0.61339075401E+03 0.  0.
    5000001    2    3    3    0    0 -0.44840266756E+03 -0.81633138470E+02 -0.61860735957E+02  0.46968110287E+03  0.95103449790E+02 0.  0.
        -11    1    4    4    0    0 -0.15300673289E+03 -0.80889931916E+01  0.15959155871E+02  0.15404929982E+03  0.51100000000E-03 0. -1.
     200002    1    4    4    0    0 -0.29539593468E+03 -0.73544145278E+02 -0.77819891828E+02  0.31563180304E+03  0.30000000000E+02 0. -1.
     200000    1    3    3    0    0  0.15292695359E+03 -0.12070517664E+03 -0.16963875932E+03  0.27737105377E+03  0.10100000000E+03 0.  1.
    -200001    1    1    2    0    0  0.29547571397E+03  0.20233831511E+03 -0.32492419296E+03  0.78076335882E+03  0.61300000000E+03 0.  1.
<mgrwt>
<rscale>  0 0.14228889E+04</rscale>
<asrwt>0</asrwt>
<pdfrwt beam="1">  1        2 0.14887423E+00 0.14228889E+04</pdfrwt>
<pdfrwt beam="2">  1       -2 0.69385131E-01 0.14228889E+04</pdfrwt>
<totfact> 0.48810941E+01</totfact>
</mgrwt>
</event>
<event>
 8    1  0.7326756E-052  0.1722055E+04  0.7818608E-02  0.8748885E-01
         -2   -1    0    0    0  501 -0.00000000000E+00  0.00000000000E+00  0.20959544423E+03  0.20959544424E+03  0.25500000000E-02 0. -1.
          2   -1    0    0  501    0  0.00000000000E+00 -0.00000000000E+00 -0.35371391623E+04  0.35371391623E+04  0.25500000000E-02 0.  1.
     200001    2    1    2    0    0  0.43944513014E+03 -0.28754725746E+03 -0.10137113377E+04  0.12961459564E+04  0.61366783886E+03 0.  0.
    5000001    2    3    3    0    0  0.51555384914E+03 -0.38063744593E+03 -0.74590634007E+03  0.98569654499E+03  0.67385265765E+02 0.  0.
        -11    1    4    4    0    0  0.50024678308E+01 -0.82928938462E+01 -0.34610203054E+01  0.10284718497E+02  0.51100000000E-03 0. -1.
     200002    1    4    4    0    0  0.51055138130E+03 -0.37234455208E+03 -0.74244531976E+03  0.97541182649E+03  0.30000000000E+02 0. -1.
     200000    1    3    3    0    0 -0.76108718992E+02  0.93090188472E+02 -0.26780499760E+03  0.31044941139E+03  0.10100000000E+03 0.  1.
    -200001    1    1    2    0    0 -0.43944513014E+03  0.28754725746E+03 -0.23138323804E+04  0.24505886501E+04  0.61300000000E+03 0.  1.
<mgrwt>
<rscale>  0 0.17220549E+04</rscale>
<asrwt>0</asrwt>
<pdfrwt beam="1">  1        2 0.50530556E+00 0.17220549E+04</pdfrwt>
<pdfrwt beam="2">  1       -2 0.29942209E-01 0.17220549E+04</pdfrwt>
<totfact> 0.11251803E+01</totfact>
</mgrwt>
</event>
<event>
 8    1  0.7326756E-052  0.1559204E+04  0.7818608E-02  0.8846010E-01
         -2   -1    0    0    0  501 -0.00000000000E+00  0.00000000000E+00  0.19629422499E+03  0.19629422501E+03  0.25500000000E-02 0. -1.
          2   -1    0    0  501    0  0.00000000000E+00 -0.00000000000E+00 -0.30962679716E+04  0.30962679716E+04  0.25500000000E-02 0.  1.
     200001    2    1    2    0    0 -0.21213905170E+03 -0.10038771676E+03 -0.56374015895E+03  0.86586958174E+03  0.61387824106E+03 0.  0.
    5000001    2    3    3    0    0 -0.32849335213E+03  0.86665051708E+02 -0.50999903829E+03  0.61764353663E+03  0.77238628317E+02 0.  0.
        -11    1    4    4    0    0 -0.66439883656E+02 -0.65065788838E+01 -0.74429884161E+02  0.99982005209E+02  0.51100000000E-03 0. -1.
     200002    1    4    4    0    0 -0.26205346848E+03  0.93171630592E+02 -0.43556915413E+03  0.51766153143E+03  0.30000000000E+02 0. -1.
     200000    1    3    3    0    0  0.11635430043E+03 -0.18705276846E+03 -0.53741120658E+02  0.24822604511E+03  0.10100000000E+03 0.  1.
    -200001    1    1    2    0    0  0.21213905170E+03  0.10038771676E+03 -0.23362335876E+04  0.24266926148E+04  0.61300000000E+03 0.  1.
<mgrwt>
<rscale>  0 0.15592043E+04</rscale>
<asrwt>0</asrwt>
<pdfrwt beam="1">  1        2 0.44232397E+00 0.15592043E+04</pdfrwt>
<pdfrwt beam="2">  1       -2 0.28042034E-01 0.15592043E+04</pdfrwt>
<totfact> 0.23425283E+01</totfact>
</mgrwt>
</event>
<event>
 8    1  0.7326756E-052  0.1342283E+04  0.7818608E-02  0.8996691E-01
          2   -1    0    0  501    0  0.00000000000E+00  0.00000000000E+00  0.74608479187E+03  0.74608479188E+03  0.25500000000E-02 0.  1.
         -2   -1    0    0    0  501 -0.00000000000E+00 -0.00000000000E+00 -0.60372593000E+03  0.60372593001E+03  0.25500000000E-02 0. -1.
     200001    2    1    2    0    0 -0.47393307147E+02  0.13836839301E+03  0.30372046746E+03  0.69927363185E+03  0.61265451284E+03 0.  0.
    5000001    2    3    3    0    0 -0.28164736553E+03  0.19787827177E+02  0.25346352648E+03  0.41350611345E+03  0.16439814472E+03 0.  0.
        -11    1    4    4    0    0 -0.12906561758E+03  0.10440783647E+02  0.17368689147E+02  0.13064690952E+03  0.51100000000E-03 0. -1.
     200002    1    4    4    0    0 -0.15258174795E+03  0.93470435302E+01  0.23609483734E+03  0.28285920393E+03  0.30000000000E+02 0. -1.
     200000    1    3    3    0    0  0.23425405838E+03  0.11858056583E+03  0.50256940977E+02  0.28576751841E+03  0.10100000000E+03 0. -1.
    -200001    1    1    2    0    0  0.47393307147E+02 -0.13836839301E+03 -0.16136160559E+03  0.65053709003E+03  0.61300000000E+03 0. -1.
<mgrwt>
<rscale>  0 0.13422827E+04</rscale>
<asrwt>0</asrwt>
<pdfrwt beam="1">  1        2 0.10658354E+00 0.13422827E+04</pdfrwt>
<pdfrwt beam="2">  1       -2 0.86246561E-01 0.13422827E+04</pdfrwt>
<totfact> 0.47419244E+01</totfact>
</mgrwt>
</event>
<event>
 8    1  0.7326756E-052  0.1385467E+04  0.7818608E-02  0.8964406E-01
         -2   -1    0    0    0  501 -0.00000000000E+00  0.00000000000E+00  0.17116737528E+03  0.17116737530E+03  0.25500000000E-02 0. -1.
          2   -1    0    0  501    0  0.00000000000E+00 -0.00000000000E+00 -0.28035712291E+04  0.28035712291E+04  0.25500000000E-02 0.  1.
     200001    2    1    2    0    0 -0.30342691963E+03 -0.70736723501E+02 -0.14793571004E+04  0.16322195561E+04  0.61528178019E+03 0.  0.
    5000001    2    3    3    0    0 -0.15785561088E+02 -0.21645725287E+03 -0.18587730135E+03  0.29533399088E+03  0.74624853440E+02 0.  0.
        -11    1    4    4    0    0 -0.23331809259E+02 -0.56722694511E+02 -0.81611352460E+02  0.10208942279E+03  0.51100000000E-03 0. -1.
     200002    1    4    4    0    0  0.75462481702E+01 -0.15973455836E+03 -0.10426594889E+03  0.19324456808E+03  0.30000000000E+02 0. -1.
     200000    1    3    3    0    0 -0.28764135854E+03  0.14572052936E+03 -0.12934797991E+04  0.13368855652E+04  0.10100000000E+03 0.  1.
    -200001    1    1    2    0    0  0.30342691963E+03  0.70736723501E+02 -0.11530467534E+04  0.13425190483E+04  0.61300000000E+03 0.  1.
<mgrwt>
<rscale>  0 0.13854673E+04</rscale>
<asrwt>0</asrwt>
<pdfrwt beam="1">  1        2 0.40051015E+00 0.13854673E+04</pdfrwt>
<pdfrwt beam="2">  1       -2 0.24452484E-01 0.13854673E+04</pdfrwt>
<totfact> 0.44331690E+01</totfact>
</mgrwt>
</event>
<event>
 8    1  0.7326756E-052  0.1573514E+04  0.7818608E-02  0.8836987E-01
          2   -1    0    0  501    0  0.00000000000E+00  0.00000000000E+00  0.28216253731E+04  0.28216253731E+04  0.25500000000E-02 0.  1.
         -2   -1    0    0    0  501 -0.00000000000E+00 -0.00000000000E+00 -0.21937229371E+03  0.21937229372E+03  0.25500000000E-02 0. -1.
     200001    2    1    2    0    0  0.42478031087E+02  0.48311770989E+03  0.11260963552E+04  0.13706639340E+04  0.61271487164E+03 0.  0.
    5000001    2    3    3    0    0 -0.17959486818E+03  0.61087411880E+02  0.58226272337E+03  0.64033389614E+03  0.18711395181E+03 0.  0.
        -11    1    4    4    0    0 -0.47008583309E+02  0.97657285435E+02  0.14539657334E+03  0.18134750024E+03  0.51100000000E-03 0. -1.
     200002    1    4    4    0    0 -0.13258628488E+03 -0.36569873555E+02  0.43686615002E+03  0.45898639590E+03  0.30000000000E+02 0. -1.
     200000    1    3    3    0    0  0.22207289927E+03  0.42203029801E+03  0.54383363188E+03  0.73033003786E+03  0.10100000000E+03 0. -1.
    -200001    1    1    2    0    0 -0.42478031087E+02 -0.48311770989E+03  0.14761567241E+04  0.16703337328E+04  0.61300000000E+03 0. -1.
<mgrwt>
<rscale>  0 0.15735138E+04</rscale>
<asrwt>0</asrwt>
<pdfrwt beam="1">  1        2 0.40308927E+00 0.15735138E+04</pdfrwt>
<pdfrwt beam="2">  1       -2 0.31338904E-01 0.15735138E+04</pdfrwt>
<totfact> 0.27009329E+01</totfact>
</mgrwt>
</event>
<event>
 8    1  0.7326756E-052  0.2311607E+04  0.7818608E-02  0.8473359E-01
         -2   -1    0    0    0  501 -0.00000000000E+00  0.00000000000E+00  0.25884165892E+04  0.25884165892E+04  0.25500000000E-02 0.  1.
          2   -1    0    0  501    0  0.00000000000E+00 -0.00000000000E+00 -0.51610008816E+03  0.51610008817E+03  0.25500000000E-02 0. -1.
     200001    2    1    2    0    0 -0.16212795134E+03  0.79823974712E+03  0.17691641788E+04  0.20409648465E+04  0.61001921813E+03 0.  0.
    5000001    2    3    3    0    0 -0.47084540677E+02  0.66578363737E+03  0.16976423150E+04  0.18262650925E+04  0.88147334782E+02 0.  0.
        -11    1    4    4    0    0 -0.20727876005E+02  0.52745000457E+03  0.13801991585E+04  0.14776951205E+04  0.51100000000E-03 0. -1.
     200002    1    4    4    0    0 -0.26356664672E+02  0.13833363280E+03  0.31744315656E+03  0.34856997200E+03  0.30000000000E+02 0.  1.
     200000    1    3    3    0    0 -0.11504341066E+03  0.13245610976E+03  0.71521863767E+02  0.21469975395E+03  0.10100000000E+03 0.  1.
    -200001    1    1    2    0    0  0.16212795134E+03 -0.79823974712E+03  0.30315232221E+03  0.10635518309E+04  0.61300000000E+03 0. -1.
<mgrwt>
<rscale>  0 0.23116073E+04</rscale>
<asrwt>0</asrwt>
<pdfrwt beam="1">  1        2 0.73728582E-01 0.23116073E+04</pdfrwt>
<pdfrwt beam="2">  1       -2 0.36977381E+00 0.23116073E+04</pdfrwt>
<totfact> 0.68651490E-01</totfact>
</mgrwt>
</event>
<event>
 8    1  0.7326756E-052  0.1582537E+04  0.7818608E-02  0.8831349E-01
          2   -1    0    0  501    0  0.00000000000E+00  0.00000000000E+00  0.10888677902E+04  0.10888677902E+04  0.25500000000E-02 0.  1.
         -2   -1    0    0    0  501 -0.00000000000E+00 -0.00000000000E+00 -0.57500604971E+03  0.57500604972E+03  0.25500000000E-02 0. -1.
     200001    2    1    2    0    0  0.21173607381E+03  0.18789381965E+03 -0.17709089226E+03  0.69778854706E+03  0.61270826652E+03 0.  0.
    5000001    2    3    3    0    0  0.27950171646E+03  0.31507703308E+03 -0.26197108259E+03  0.50240840781E+03  0.79941315019E+02 0.  0.
        -11    1    4    4    0    0  0.62149651517E+02  0.77357593890E+02 -0.99022913477E+02  0.14018671089E+03  0.51100000000E-03 0. -1.
     200002    1    4    4    0    0  0.21735206494E+03  0.23771943919E+03 -0.16294816911E+03  0.36222169692E+03  0.30000000000E+02 0. -1.
     200000    1    3    3    0    0 -0.67765642654E+02 -0.12718321342E+03  0.84880190335E+02  0.19538013925E+03  0.10100000000E+03 0.  1.
    -200001    1    1    2    0    0 -0.21173607381E+03 -0.18789381965E+03  0.69095263278E+03  0.96608529290E+03  0.61300000000E+03 0.  1.
<mgrwt>
<rscale>  0 0.15825367E+04</rscale>
<asrwt>0</asrwt>
<pdfrwt beam="1">  1        2 0.15555254E+00 0.15825367E+04</pdfrwt>
<pdfrwt beam="2">  1       -2 0.82143721E-01 0.15825367E+04</pdfrwt>
<totfact> 0.31090571E+01</totfact>
</mgrwt>
</event>
<event>
 8    1  0.7326756E-052  0.1458664E+04  0.7818608E-02  0.8912416E-01
         -2   -1    0    0    0  501 -0.00000000000E+00  0.00000000000E+00  0.13056307366E+03  0.13056307369E+03  0.25500000000E-02 0. -1.
          2   -1    0    0  501    0  0.00000000000E+00 -0.00000000000E+00 -0.40740876134E+04  0.40740876134E+04  0.25500000000E-02 0.  1.
     200001    2    1    2    0    0  0.39269532816E+03 -0.44399005645E+02 -0.19722002248E+04  0.21027302683E+04  0.61296000021E+03 0.  0.
    5000001    2    3    3    0    0  0.11630139481E+03 -0.96839932967E+02 -0.84923040171E+02  0.19192943382E+03  0.81981691616E+02 0.  0.
        -11    1    4    4    0    0  0.45157763450E+02 -0.33561817461E+02 -0.71836974920E+02  0.91247850150E+02  0.51100000000E-03 0. -1.
     200002    1    4    4    0    0  0.71143631365E+02 -0.63278115506E+02 -0.13086065251E+02  0.10068158367E+03  0.30000000000E+02 0. -1.
     200000    1    3    3    0    0  0.27639393335E+03  0.52440927322E+02 -0.18872771847E+04  0.19108008345E+04  0.10100000000E+03 0.  1.
    -200001    1    1    2    0    0 -0.39269532816E+03  0.44399005645E+02 -0.19713243149E+04  0.21019204188E+04  0.61300000000E+03 0.  1.
<mgrwt>
<rscale>  0 0.14586643E+04</rscale>
<asrwt>0</asrwt>
<pdfrwt beam="1">  1        2 0.58201244E+00 0.14586643E+04</pdfrwt>
<pdfrwt beam="2">  1       -2 0.18651870E-01 0.14586643E+04</pdfrwt>
<totfact> 0.12107931E+01</totfact>
</mgrwt>
</event>
<event>
 8    1  0.7326756E-052  0.2430435E+04  0.7818608E-02  0.8428196E-01
         -2   -1    0    0    0  501 -0.00000000000E+00  0.00000000000E+00  0.14361577697E+04  0.14361577697E+04  0.25500000000E-02 0. -1.
          2   -1    0    0  501    0  0.00000000000E+00 -0.00000000000E+00 -0.10282669052E+04  0.10282669052E+04  0.25500000000E-02 0.  1.
     200001    2    1    2    0    0 -0.66938141715E+03  0.70766985807E+03 -0.19124158974E+03  0.11668897785E+04  0.61334354148E+03 0.  0.
    5000001    2    3    3    0    0 -0.43725379022E+03  0.62760345731E+03  0.91851913486E+02  0.77877021537E+03  0.11388282422E+03 0.  0.
        -11    1    4    4    0    0 -0.36211360164E+03  0.51159392516E+03  0.39742637499E+02  0.62803987293E+03  0.51100000000E-03 0. -1.
     200002    1    4    4    0    0 -0.75140188579E+02  0.11600953214E+03  0.52109275987E+02  0.15073034244E+03  0.30000000000E+02 0.  1.
     200000    1    3    3    0    0 -0.23212762693E+03  0.80066400767E+02 -0.28309350323E+03  0.38811956313E+03  0.10100000000E+03 0. -1.
    -200001    1    1    2    0    0  0.66938141715E+03 -0.70766985807E+03  0.59913245425E+03  0.12975348964E+04  0.61300000000E+03 0. -1.
<mgrwt>
<rscale>  0 0.24304349E+04</rscale>
<asrwt>0</asrwt>
<pdfrwt beam="1">  1        2 0.14689527E+00 0.24304349E+04</pdfrwt>
<pdfrwt beam="2">  1       -2 0.20516539E+00 0.24304349E+04</pdfrwt>
<totfact> 0.29933074E+00</totfact>
</mgrwt>
</event>
<event>
 8    1  0.7326756E-052  0.1377407E+04  0.7818608E-02  0.8970336E-01
         -2   -1    0    0    0  501 -0.00000000000E+00  0.00000000000E+00  0.16650737451E+04  0.16650737451E+04  0.25500000000E-02 0. -1.
          2   -1    0    0  501    0  0.00000000000E+00 -0.00000000000E+00 -0.28485996251E+03  0.28485996252E+03  0.25500000000E-02 0.  1.
     200001    2    1    2    0    0 -0.62537064142E+02  0.72168108262E+01  0.25584241441E+03  0.66777032477E+03  0.61359506100E+03 0.  0.
    5000001    2    3    3    0    0  0.15957590119E+03 -0.21686480412E+03  0.90250737790E+02  0.29740787677E+03  0.88382339772E+02 0.  0.
        -11    1    4    4    0    0  0.17191670681E+02 -0.39082244380E+01 -0.10484138241E+02  0.20512067521E+02  0.51100000000E-03 0. -1.
     200002    1    4    4    0    0  0.14238423051E+03 -0.21295657969E+03  0.10073487603E+03  0.27689580925E+03  0.30000000000E+02 0. -1.
     200000    1    3    3    0    0 -0.22211296533E+03  0.22408161495E+03  0.16559167662E+03  0.37036244801E+03  0.10100000000E+03 0.  1.
    -200001    1    1    2    0    0  0.62537064142E+02 -0.72168108262E+01  0.11243713682E+04  0.12821633829E+04  0.61300000000E+03 0. -1.
<mgrwt>
<rscale>  0 0.13774075E+04</rscale>
<asrwt>0</asrwt>
<pdfrwt beam="1">  1        2 0.40694280E-01 0.13774075E+04</pdfrwt>
<pdfrwt beam="2">  1       -2 0.23786768E+00 0.13774075E+04</pdfrwt>
<totfact> 0.94282917E+00</totfact>
</mgrwt>
</event>
<event>
 8    1  0.7326756E-052  0.2611009E+04  0.7818608E-02  0.8364471E-01
         -2   -1    0    0    0  501 -0.00000000000E+00  0.00000000000E+00  0.10362273509E+04  0.10362273509E+04  0.25500000000E-02 0. -1.
          2   -1    0    0  501    0  0.00000000000E+00 -0.00000000000E+00 -0.16447573217E+04  0.16447573217E+04  0.25500000000E-02 0.  1.
     200001    2    1    2    0    0 -0.52335724372E+03 -0.19293005138E+02  0.74891173717E+03  0.11021585217E+04  0.61612465639E+03 0.  0.
    5000001    2    3    3    0    0 -0.14366497804E+03 -0.26387179508E+03  0.14561021874E+03  0.34179102943E+03  0.73149311975E+02 0.  0.
        -11    1    4    4    0    0 -0.98775773565E+00 -0.44454570742E+02  0.32593495687E+02  0.55131846391E+02  0.51100000000E-03 0. -1.
     200002    1    4    4    0    0 -0.14267722030E+03 -0.21941722434E+03  0.11301672305E+03  0.28665918304E+03  0.30000000000E+02 0. -1.
     200000    1    3    3    0    0 -0.37969226568E+03  0.24457878994E+03  0.60330151843E+03  0.76036749224E+03  0.10100000000E+03 0. -1.
    -200001    1    1    2    0    0  0.52335724372E+03  0.19293005138E+02 -0.13574417080E+04  0.15788261510E+04  0.61300000000E+03 0.  1.
<mgrwt>
<rscale>  0 0.26110094E+04</rscale>
<asrwt>0</asrwt>
<pdfrwt beam="1">  1        2 0.23496533E+00 0.26110094E+04</pdfrwt>
<pdfrwt beam="2">  1       -2 0.14803248E+00 0.26110094E+04</pdfrwt>
<totfact> 0.33839960E+00</totfact>
</mgrwt>
</event>
<event>
 8    1  0.7326756E-052  0.2642216E+04  0.7818608E-02  0.8354001E-01
          2   -1    0    0  501    0  0.00000000000E+00  0.00000000000E+00  0.44358915188E+04  0.44358915188E+04  0.25500000000E-02 0.  1.
         -2   -1    0    0    0  501 -0.00000000000E+00 -0.00000000000E+00 -0.39345549371E+03  0.39345549372E+03  0.25500000000E-02 0. -1.
     200001    2    1    2    0    0  0.23109024079E+03  0.47532465955E+03  0.11266362415E+03  0.81708875132E+03  0.61286597553E+03 0.  0.
    5000001    2    3    3    0    0  0.37326327549E+03  0.19131583165E+03  0.18887393346E+03  0.47520690423E+03  0.11925191329E+03 0.  0.
        -11    1    4    4    0    0  0.17772417231E+03  0.52571252194E+02  0.13036316450E+03  0.22659252556E+03  0.51100000000E-03 0. -1.
     200002    1    4    4    0    0  0.19553910317E+03  0.13874457945E+03  0.58510768954E+02  0.24861437867E+03  0.30000000000E+02 0. -1.
     200000    1    3    3    0    0 -0.14217303470E+03  0.28400882790E+03 -0.76210309311E+02  0.34188184709E+03  0.10100000000E+03 0.  1.
    -200001    1    1    2    0    0 -0.23109024079E+03 -0.47532465955E+03  0.39297724009E+04  0.40122582612E+04  0.61300000000E+03 0.  1.
<mgrwt>
<rscale>  0 0.26422157E+04</rscale>
<asrwt>0</asrwt>
<pdfrwt beam="1">  1        2 0.63369879E+00 0.26422157E+04</pdfrwt>
<pdfrwt beam="2">  1       -2 0.56207927E-01 0.26422157E+04</pdfrwt>
<totfact> 0.71936419E-01</totfact>
</mgrwt>
</event>
<event>
 8    1  0.7326756E-052  0.1793265E+04  0.7818608E-02  0.8709890E-01
          2   -1    0    0  501    0  0.00000000000E+00  0.00000000000E+00  0.10280786777E+04  0.10280786777E+04  0.25500000000E-02 0.  1.
         -2   -1    0    0    0  501 -0.00000000000E+00 -0.00000000000E+00 -0.78199215096E+03  0.78199215097E+03  0.25500000000E-02 0. -1.
     200001    2    1    2    0    0  0.16028232758E+03 -0.97093418382E+02  0.75585120921E+03  0.99107962735E+03  0.61303362132E+03 0.  0.
    5000001    2    3    3    0    0  0.47354486472E+02  0.21723404863E+03  0.21474473743E+03  0.34722275846E+03  0.15816213982E+03 0.  0.
        -11    1    4    4    0    0  0.25472912420E+02  0.37110672512E+02 -0.19797770193E+02  0.49173397140E+02  0.51100000000E-03 0. -1.
     200002    1    4    4    0    0  0.21881574052E+02  0.18012337611E+03  0.23454250762E+03  0.29804936132E+03  0.30000000000E+02 0. -1.
     200000    1    3    3    0    0  0.11292784110E+03 -0.31432746701E+03  0.54110647178E+03  0.64385686889E+03  0.10100000000E+03 0.  1.
    -200001    1    1    2    0    0 -0.16028232758E+03  0.97093418382E+02 -0.50976468244E+03  0.81899120135E+03  0.61300000000E+03 0. -1.
<mgrwt>
<rscale>  0 0.17932646E+04</rscale>
<asrwt>0</asrwt>
<pdfrwt beam="1">  1        2 0.14686838E+00 0.17932646E+04</pdfrwt>
<pdfrwt beam="2">  1       -2 0.11171316E+00 0.17932646E+04</pdfrwt>
<totfact> 0.16185824E+01</totfact>
</mgrwt>
</event>
<event>
 8    1  0.7326756E-052  0.1326490E+04  0.7818608E-02  0.9008818E-01
          2   -1    0    0  501    0  0.00000000000E+00  0.00000000000E+00  0.85584652504E+03  0.85584652505E+03  0.25500000000E-02 0.  1.
         -2   -1    0    0    0  501 -0.00000000000E+00 -0.00000000000E+00 -0.51398697642E+03  0.51398697643E+03  0.25500000000E-02 0. -1.
     200001    2    1    2    0    0  0.15570029749E+02 -0.21493296642E+03  0.30434867215E+02  0.64928306045E+03  0.61172183675E+03 0.  0.
    5000001    2    3    3    0    0 -0.23979705994E+02  0.10190578875E+03 -0.20033600751E+03  0.24258025127E+03  0.88038890937E+02 0.  0.
        -11    1    4    4    0    0 -0.11353043690E+02  0.40217603240E+02 -0.15220287939E+03  0.15783555907E+03  0.51100000000E-03 0. -1.
     200002    1    4    4    0    0 -0.12626662304E+02  0.61688185510E+02 -0.48133128119E+02  0.84744692194E+02  0.30000000000E+02 0. -1.
     200000    1    3    3    0    0  0.39549735743E+02 -0.31683875517E+03  0.23077087473E+03  0.40670280918E+03  0.10100000000E+03 0.  1.
    -200001    1    1    2    0    0 -0.15570029749E+02  0.21493296642E+03  0.31142468140E+03  0.72055044103E+03  0.61300000000E+03 0.  1.
<mgrwt>
<rscale>  0 0.13264901E+04</rscale>
<asrwt>0</asrwt>
<pdfrwt beam="1">  1        2 0.12226379E+00 0.13264901E+04</pdfrwt>
<pdfrwt beam="2">  1       -2 0.73426710E-01 0.13264901E+04</pdfrwt>
<totfact> 0.57052367E+01</totfact>
</mgrwt>
</event>
<event>
 8    1  0.7326756E-052  0.1354600E+04  0.7818608E-02  0.8987353E-01
         -2   -1    0    0    0  501 -0.00000000000E+00  0.00000000000E+00  0.24463383900E+03  0.24463383901E+03  0.25500000000E-02 0. -1.
          2   -1    0    0  501    0  0.00000000000E+00 -0.00000000000E+00 -0.18751907393E+04  0.18751907393E+04  0.25500000000E-02 0.  1.
     200001    2    1    2    0    0  0.16469467948E+03  0.23353509382E+03 -0.76214261352E+03  0.10191087426E+04  0.61323591580E+03 0.  0.
    5000001    2    3    3    0    0  0.52449270978E+02  0.41107732407E+03 -0.36532591571E+03  0.55890795284E+03  0.84732418015E+02 0.  0.
        -11    1    4    4    0    0  0.60906937338E+02  0.32901289914E+03 -0.27705491217E+03  0.43441750329E+03  0.51100000000E-03 0. -1.
     200002    1    4    4    0    0 -0.84576663594E+01  0.82064424935E+02 -0.88271003549E+02  0.12449044954E+03  0.30000000000E+02 0. -1.
     200000    1    3    3    0    0  0.11224540850E+03 -0.17754223025E+03 -0.39681669781E+03  0.46020078977E+03  0.10100000000E+03 0.  1.
    -200001    1    1    2    0    0 -0.16469467948E+03 -0.23353509382E+03 -0.86841428681E+03  0.11007158357E+04  0.61300000000E+03 0. -1.
<mgrwt>
<rscale>  0 0.13545997E+04</rscale>
<asrwt>0</asrwt>
<pdfrwt beam="1">  1        2 0.26788438E+00 0.13545997E+04</pdfrwt>
<pdfrwt beam="2">  1       -2 0.34947692E-01 0.13545997E+04</pdfrwt>
<totfact> 0.69846637E+01</totfact>
</mgrwt>
</event>
<event>
 8    1  0.7326756E-052  0.1632820E+04  0.7818608E-02  0.8800635E-01
         -2   -1    0    0    0  501 -0.00000000000E+00  0.00000000000E+00  0.14335902704E+04  0.14335902704E+04  0.25500000000E-02 0. -1.
          2   -1    0    0  501    0  0.00000000000E+00 -0.00000000000E+00 -0.46493438318E+03  0.46493438318E+03  0.25500000000E-02 0.  1.
     200001    2    1    2    0    0  0.70267518148E+02 -0.40535721430E+03  0.89015913525E+03  0.11561078331E+04  0.61233164251E+03 0.  0.
    5000001    2    3    3    0    0 -0.13728261497E+03 -0.43118773587E+03  0.76980026544E+03  0.89451362227E+03  0.52846871541E+02 0.  0.
        -11    1    4    4    0    0 -0.53113204063E+01 -0.20918370276E+02  0.21530490130E+02  0.30485247989E+02  0.51100000000E-03 0. -1.
     200002    1    4    4    0    0 -0.13197129456E+03 -0.41026936559E+03  0.74826977530E+03  0.86402837428E+03  0.30000000000E+02 0. -1.
     200000    1    3    3    0    0  0.20755013312E+03  0.25830521565E+02  0.12035886981E+03  0.26159421084E+03  0.10100000000E+03 0.  1.
    -200001    1    1    2    0    0 -0.70267518148E+02  0.40535721430E+03  0.78496752003E+02  0.74241682051E+03  0.61300000000E+03 0.  1.
<mgrwt>
<rscale>  0 0.16328201E+04</rscale>
<asrwt>0</asrwt>
<pdfrwt beam="1">  1        2 0.66419197E-01 0.16328201E+04</pdfrwt>
<pdfrwt beam="2">  1       -2 0.20479861E+00 0.16328201E+04</pdfrwt>
<totfact> 0.86484265E+00</totfact>
</mgrwt>
</event>
<event>
 8    1  0.7326756E-052  0.1606099E+04  0.7818608E-02  0.8816810E-01
          2   -1    0    0  501    0  0.00000000000E+00  0.00000000000E+00  0.41927124209E+03  0.41927124210E+03  0.25500000000E-02 0.  1.
         -2   -1    0    0    0  501 -0.00000000000E+00 -0.00000000000E+00 -0.15381176744E+04  0.15381176744E+04  0.25500000000E-02 0. -1.
     200001    2    1    2    0    0 -0.31517864352E+03  0.15921869956E+03 -0.10226877504E+04  0.12434535807E+04  0.61286083326E+03 0.  0.
    5000001    2    3    3    0    0 -0.26491684531E+03 -0.19345872927E+03 -0.50416144073E+03  0.60628943311E+03  0.76163662751E+02 0.  0.
        -11    1    4    4    0    0 -0.77123064681E+02 -0.88049880902E+02 -0.21104012234E+03  0.24132691907E+03  0.51100000000E-03 0. -1.
     200002    1    4    4    0    0 -0.18779378063E+03 -0.10540884837E+03 -0.29312131840E+03  0.36496251404E+03  0.30000000000E+02 0. -1.
     200000    1    3    3    0    0 -0.50261798203E+02  0.35267742883E+03 -0.51852630966E+03  0.63716414759E+03  0.10100000000E+03 0. -1.
    -200001    1    1    2    0    0  0.31517864352E+03 -0.15921869956E+03 -0.96158681928E+02  0.71393533582E+03  0.61300000000E+03 0.  1.
<mgrwt>
<rscale>  0 0.16060990E+04</rscale>
<asrwt>0</asrwt>
<pdfrwt beam="1">  1        2 0.59895893E-01 0.16060990E+04</pdfrwt>
<pdfrwt beam="2">  1       -2 0.21973109E+00 0.16060990E+04</pdfrwt>
<totfact> 0.78135103E+00</totfact>
</mgrwt>
</event>
<event>
 8    1  0.7326756E-052  0.1539883E+04  0.7818608E-02  0.8858356E-01
         -2   -1    0    0    0  501 -0.00000000000E+00  0.00000000000E+00  0.10224436712E+03  0.10224436715E+03  0.25500000000E-02 0. -1.
          2   -1    0    0  501    0  0.00000000000E+00 -0.00000000000E+00 -0.57979732748E+04  0.57979732748E+04  0.25500000000E-02 0.  1.
     200001    2    1    2    0    0 -0.35295543798E+03 -0.23906549717E+03 -0.35666063473E+04  0.36439681588E+04  0.61326442298E+03 0.  0.
    5000001    2    3    3    0    0  0.16450565183E+02 -0.13172041647E+02 -0.36380343962E+03  0.41045055193E+03  0.18887188547E+03 0.  0.
        -11    1    4    4    0    0  0.53485187415E+02 -0.44741946511E+02 -0.34236565713E+03  0.34939483430E+03  0.51100000000E-03 0. -1.
     200002    1    4    4    0    0 -0.37034622231E+02  0.31569904864E+02 -0.21437782487E+02  0.61055717627E+02  0.30000000000E+02 0. -1.
     200000    1    3    3    0    0 -0.36940600317E+03 -0.22589345552E+03 -0.32028029077E+04  0.32335176069E+04  0.10100000000E+03 0. -1.
    -200001    1    1    2    0    0  0.35295543798E+03  0.23906549717E+03 -0.21291225604E+04  0.22562494832E+04  0.61300000000E+03 0.  1.
<mgrwt>
<rscale>  0 0.15398833E+04</rscale>
<asrwt>0</asrwt>
<pdfrwt beam="1">  1        2 0.82828169E+00 0.15398833E+04</pdfrwt>
<pdfrwt beam="2">  1       -2 0.14606342E-01 0.15398833E+04</pdfrwt>
<totfact> 0.36199803E-01</totfact>
</mgrwt>
</event>
<event>
 8    1  0.7326756E-052  0.1552999E+04  0.7818608E-02  0.8849955E-01
         -2   -1    0    0    0  501 -0.00000000000E+00  0.00000000000E+00  0.45202970095E+03  0.45202970096E+03  0.25500000000E-02 0. -1.
          2   -1    0    0  501    0  0.00000000000E+00 -0.00000000000E+00 -0.13338750226E+04  0.13338750226E+04  0.25500000000E-02 0.  1.
     200001    2    1    2    0    0 -0.84580720834E+02 -0.44310692693E+03 -0.25866539903E+03  0.80222801704E+03  0.61087179968E+03 0.  0.
    5000001    2    3    3    0    0 -0.33097250176E+03 -0.31629719407E+03 -0.15580170962E+03  0.48986355579E+03  0.78137178580E+02 0.  0.
        -11    1    4    4    0    0 -0.11024081646E+03 -0.13337836965E+03 -0.31130586193E+02  0.17581791860E+03  0.51100000000E-03 0. -1.
     200002    1    4    4    0    0 -0.22073168530E+03 -0.18291882441E+03 -0.12467112342E+03  0.31404563719E+03  0.30000000000E+02 0. -1.
     200000    1    3    3    0    0  0.24639178093E+03 -0.12680973286E+03 -0.10286368941E+03  0.31236446126E+03  0.10100000000E+03 0. -1.
    -200001    1    1    2    0    0  0.84580720834E+02  0.44310692693E+03 -0.62317992266E+03  0.98367670656E+03  0.61300000000E+03 0. -1.
<mgrwt>
<rscale>  0 0.15529986E+04</rscale>
<asrwt>0</asrwt>
<pdfrwt beam="1">  1        2 0.19055357E+00 0.15529986E+04</pdfrwt>
<pdfrwt beam="2">  1       -2 0.64575672E-01 0.15529986E+04</pdfrwt>
<totfact> 0.38385705E+01</totfact>
</mgrwt>
</event>
<event>
 8    1  0.7326756E-052  0.2161187E+04  0.7818608E-02  0.8534759E-01
         -2   -1    0    0    0  501 -0.00000000000E+00  0.00000000000E+00  0.47783003050E+03  0.47783003050E+03  0.25500000000E-02 0. -1.
          2   -1    0    0  501    0  0.00000000000E+00 -0.00000000000E+00 -0.24437188561E+04  0.24437188561E+04  0.25500000000E-02 0.  1.
     200001    2    1    2    0    0 -0.52214888701E+03 -0.50954004304E+03 -0.29382849199E+03  0.99701640443E+03  0.61272833486E+03 0.  0.
    5000001    2    3    3    0    0 -0.10113255667E+03 -0.49590526615E+03 -0.10120021012E+03  0.52294118622E+03  0.84120001809E+02 0.  0.
        -11    1    4    4    0    0 -0.53772555631E+02 -0.13251454560E+03 -0.60380741186E+01  0.14313647639E+03  0.51100000000E-03 0. -1.
     200002    1    4    4    0    0 -0.47360001044E+02 -0.36339072054E+03 -0.95162136003E+02  0.37980470983E+03  0.30000000000E+02 0. -1.
     200000    1    3    3    0    0 -0.42101633033E+03 -0.13634776894E+02 -0.19262828187E+03  0.47407521821E+03  0.10100000000E+03 0. -1.
    -200001    1    1    2    0    0  0.52214888701E+03  0.50954004304E+03 -0.16720603336E+04  0.19245324821E+04  0.61300000000E+03 0.  1.
<mgrwt>
<rscale>  0 0.21611869E+04</rscale>
<asrwt>0</asrwt>
<pdfrwt beam="1">  1        2 0.34910269E+00 0.21611869E+04</pdfrwt>
<pdfrwt beam="2">  1       -2 0.68261434E-01 0.21611869E+04</pdfrwt>
<totfact> 0.85342385E+00</totfact>
</mgrwt>
</event>
<event>
 8    1  0.7326756E-052  0.1811270E+04  0.7818608E-02  0.8700329E-01
         -2   -1    0    0    0  501 -0.00000000000E+00  0.00000000000E+00  0.32944381964E+03  0.32944381965E+03  0.25500000000E-02 0. -1.
          2   -1    0    0  501    0  0.00000000000E+00 -0.00000000000E+00 -0.24895752990E+04  0.24895752990E+04  0.25500000000E-02 0.  1.
     200001    2    1    2    0    0 -0.55789697748E+03  0.10436236626E+02 -0.16476247888E+04  0.18444473869E+04  0.61315639587E+03 0.  0.
    5000001    2    3    3    0    0 -0.17652349057E+03  0.17310911726E+03 -0.17037765833E+03  0.30679713826E+03  0.62997050602E+02 0.  0.
        -11    1    4    4    0    0 -0.13465904710E+03  0.11795358954E+03 -0.10958780264E+03  0.20989424656E+03  0.51100000000E-03 0. -1.
     200002    1    4    4    0    0 -0.41864443474E+02  0.55155527717E+02 -0.60789855683E+02  0.96902891696E+02  0.30000000000E+02 0. -1.
     200000    1    3    3    0    0 -0.38137348691E+03 -0.16267288063E+03 -0.14772471305E+04  0.15376502486E+04  0.10100000000E+03 0. -1.
    -200001    1    1    2    0    0  0.55789697748E+03 -0.10436236626E+02 -0.51250669060E+03  0.97457173180E+03  0.61300000000E+03 0.  1.
<mgrwt>
<rscale>  0 0.18112705E+04</rscale>
<asrwt>0</asrwt>
<pdfrwt beam="1">  1        2 0.35565360E+00 0.18112705E+04</pdfrwt>
<pdfrwt beam="2">  1       -2 0.47063404E-01 0.18112705E+04</pdfrwt>
<totfact> 0.18078044E+01</totfact>
</mgrwt>
</event>
<event>
 8    1  0.7326756E-052  0.1354666E+04  0.7818608E-02  0.8987304E-01
          2   -1    0    0  501    0  0.00000000000E+00  0.00000000000E+00  0.42571276853E+03  0.42571276854E+03  0.25500000000E-02 0.  1.
         -2   -1    0    0    0  501 -0.00000000000E+00 -0.00000000000E+00 -0.10776747528E+04  0.10776747528E+04  0.25500000000E-02 0. -1.
     200001    2    1    2    0    0  0.23397230618E+03 -0.15754337222E+03 -0.26826941922E+03  0.72714533059E+03  0.61417334387E+03 0.  0.
    5000001    2    3    3    0    0  0.18578645048E+03 -0.29952944596E+03  0.45427650003E+02  0.36508349463E+03  0.83593016977E+02 0.  0.
        -11    1    4    4    0    0  0.11971821628E+02 -0.89062183847E+01  0.18912764282E+02  0.24090203238E+02  0.51100000000E-03 0. -1.
     200002    1    4    4    0    0  0.17381462885E+03 -0.29062322757E+03  0.26514885720E+02  0.34099329139E+03  0.30000000000E+02 0. -1.
     200000    1    3    3    0    0  0.48185855700E+02  0.14198607373E+03 -0.31369706922E+03  0.36206183597E+03  0.10100000000E+03 0. -1.
    -200001    1    1    2    0    0 -0.23397230618E+03  0.15754337222E+03 -0.38369256500E+03  0.77624219070E+03  0.61300000000E+03 0.  1.
<mgrwt>
<rscale>  0 0.13546659E+04</rscale>
<asrwt>0</asrwt>
<pdfrwt beam="1">  1        2 0.60816110E-01 0.13546659E+04</pdfrwt>
<pdfrwt beam="2">  1       -2 0.15395353E+00 0.13546659E+04</pdfrwt>
<totfact> 0.22021360E+01</totfact>
</mgrwt>
</event>
<event>
 8    1  0.7326756E-052  0.1924248E+04  0.7818608E-02  0.8642880E-01
          2   -1    0    0  501    0  0.00000000000E+00  0.00000000000E+00  0.57064832927E+03  0.57064832927E+03  0.25500000000E-02 0.  1.
         -2   -1    0    0    0  501 -0.00000000000E+00 -0.00000000000E+00 -0.16221593956E+04  0.16221593956E+04  0.25500000000E-02 0. -1.
     200001    2    1    2    0    0  0.71972578189E+02 -0.27449373402E+03 -0.13061834996E+04  0.14708978204E+04  0.61392035425E+03 0.  0.
    5000001    2    3    3    0    0 -0.30674061237E+02  0.15697836529E+03 -0.64619290843E+03  0.66934115645E+03  0.69779679053E+02 0.  0.
        -11    1    4    4    0    0  0.82634079777E+01  0.53368557096E+01 -0.12504547930E+02  0.15910049009E+02  0.51100000000E-03 0. -1.
     200002    1    4    4    0    0 -0.38937469215E+02  0.15164150958E+03 -0.63368836050E+03  0.65343110744E+03  0.30000000000E+02 0. -1.
     200000    1    3    3    0    0  0.10264663943E+03 -0.43147209931E+03 -0.65999059115E+03  0.80155666392E+03  0.10100000000E+03 0. -1.
    -200001    1    1    2    0    0 -0.71972578189E+02  0.27449373402E+03  0.25467243321E+03  0.72190990454E+03  0.61300000000E+03 0.  1.
<mgrwt>
<rscale>  0 0.19242480E+04</rscale>
<asrwt>0</asrwt>
<pdfrwt beam="1">  1        2 0.81521191E-01 0.19242480E+04</pdfrwt>
<pdfrwt beam="2">  1       -2 0.23173705E+00 0.19242480E+04</pdfrwt>
<totfact> 0.45003725E+00</totfact>
</mgrwt>
</event>
<event>
 8    1  0.7326756E-052  0.2003220E+04  0.7818608E-02  0.8605117E-01
         -2   -1    0    0    0  501 -0.00000000000E+00  0.00000000000E+00  0.18334980167E+04  0.18334980167E+04  0.25500000000E-02 0. -1.
          2   -1    0    0  501    0  0.00000000000E+00 -0.00000000000E+00 -0.54716303420E+03  0.54716303420E+03  0.25500000000E-02 0.  1.
     200001    2    1    2    0    0 -0.29935324136E+03 -0.67922764238E+03  0.97163620755E+03  0.13678595540E+04  0.61318862209E+03 0.  0.
    5000001    2    3    3    0    0 -0.27836862804E+03 -0.68410354648E+03  0.10132524310E+04  0.12565175651E+04  0.81664845749E+02 0.  0.
        -11    1    4    4    0    0 -0.17522714923E+03 -0.37464770065E+03  0.60976373626E+03  0.73680205448E+03  0.51100000000E-03 0. -1.
     200002    1    4    4    0    0 -0.10314147881E+03 -0.30945584582E+03  0.40348869474E+03  0.51971551059E+03  0.30000000000E+02 0. -1.
     200000    1    3    3    0    0 -0.20984613322E+02  0.48759040991E+01 -0.41616223443E+02  0.11134198889E+03  0.10100000000E+03 0.  1.
    -200001    1    1    2    0    0  0.29935324136E+03  0.67922764238E+03  0.31469877497E+03  0.10128014970E+04  0.61300000000E+03 0.  1.
<mgrwt>
<rscale>  0 0.20032197E+04</rscale>
<asrwt>0</asrwt>
<pdfrwt beam="1">  1        2 0.78166147E-01 0.20032197E+04</pdfrwt>
<pdfrwt beam="2">  1       -2 0.26192829E+00 0.20032197E+04</pdfrwt>
<totfact> 0.30609979E+00</totfact>
</mgrwt>
</event>
<event>
 8    1  0.7326756E-052  0.1835142E+04  0.7818608E-02  0.8687831E-01
          2   -1    0    0  501    0  0.00000000000E+00  0.00000000000E+00  0.47820921385E+03  0.47820921386E+03  0.25500000000E-02 0.  1.
         -2   -1    0    0    0  501 -0.00000000000E+00 -0.00000000000E+00 -0.17606032824E+04  0.17606032824E+04  0.25500000000E-02 0. -1.
     200001    2    1    2    0    0 -0.39269738792E+02 -0.15382493465E+03  0.17011049914E+03  0.65428015450E+03  0.61150692208E+03 0.  0.
    5000001    2    3    3    0    0  0.23005943606E+03 -0.18187851877E+03  0.19398203426E+03  0.36428695080E+03  0.95230316580E+02 0.  0.
        -11    1    4    4    0    0  0.16371645190E+02 -0.34705924591E+02  0.58721709096E+02  0.70148208013E+02  0.51100000000E-03 0. -1.
     200002    1    4    4    0    0  0.21368779087E+03 -0.14717259418E+03  0.13526032517E+03  0.29413874279E+03  0.30000000000E+02 0. -1.
     200000    1    3    3    0    0 -0.26932917485E+03  0.28053584123E+02 -0.23871535124E+02  0.28999320371E+03  0.10100000000E+03 0. -1.
    -200001    1    1    2    0    0  0.39269738792E+02  0.15382493465E+03 -0.14525045677E+04  0.15845323418E+04  0.61300000000E+03 0. -1.
<mgrwt>
<rscale>  0 0.18351422E+04</rscale>
<asrwt>0</asrwt>
<pdfrwt beam="1">  1        2 0.68315603E-01 0.18351422E+04</pdfrwt>
<pdfrwt beam="2">  1       -2 0.25151475E+00 0.18351422E+04</pdfrwt>
<totfact> 0.41959423E+00</totfact>
</mgrwt>
</event>
<event>
 8    1  0.7326756E-052  0.1547900E+04  0.7818608E-02  0.8853210E-01
          2   -1    0    0  501    0  0.00000000000E+00  0.00000000000E+00  0.48089426954E+03  0.48089426954E+03  0.25500000000E-02 0.  1.
         -2   -1    0    0    0  501 -0.00000000000E+00 -0.00000000000E+00 -0.12455938986E+04  0.12455938986E+04  0.25500000000E-02 0. -1.
     200001    2    1    2    0    0  0.28218969613E+03  0.19597029582E+03 -0.19591324146E+02  0.70228566497E+03  0.61219764275E+03 0.  0.
    5000001    2    3    3    0    0 -0.55425615675E+02 -0.15600819992E+03 -0.56030870670E+02  0.20288422245E+03  0.10301452293E+03 0.  0.
        -11    1    4    4    0    0 -0.66046962381E+02 -0.14347261568E+03 -0.58876043558E+02  0.16856150567E+03  0.51100000000E-03 0. -1.
     200002    1    4    4    0    0  0.10621346706E+02 -0.12535584246E+02  0.28451728886E+01  0.34322716778E+02  0.30000000000E+02 0. -1.
     200000    1    3    3    0    0  0.33761531181E+03  0.35197849575E+03  0.36439546523E+02  0.49940144252E+03  0.10100000000E+03 0.  1.
    -200001    1    1    2    0    0 -0.28218969613E+03 -0.19597029582E+03 -0.74510830489E+03  0.10242025032E+04  0.61300000000E+03 0. -1.
<mgrwt>
<rscale>  0 0.15479005E+04</rscale>
<asrwt>0</asrwt>
<pdfrwt beam="1">  1        2 0.68699182E-01 0.15479005E+04</pdfrwt>
<pdfrwt beam="2">  1       -2 0.17794198E+00 0.15479005E+04</pdfrwt>
<totfact> 0.12680203E+01</totfact>
</mgrwt>
</event>
<event>
 8    1  0.7326756E-052  0.2325129E+04  0.7818608E-02  0.8468078E-01
          2   -1    0    0  501    0  0.00000000000E+00  0.00000000000E+00  0.24813020397E+04  0.24813020397E+04  0.25500000000E-02 0.  1.
         -2   -1    0    0    0  501 -0.00000000000E+00 -0.00000000000E+00 -0.54469651809E+03  0.54469651809E+03  0.25500000000E-02 0. -1.
     200001    2    1    2    0    0  0.12642149309E+03 -0.38093338844E+03  0.21431415551E+04  0.22647372534E+04  0.61227972462E+03 0.  0.
    5000001    2    3    3    0    0 -0.26046216731E+02 -0.34537227337E+03  0.19949214520E+04  0.20266591267E+04  0.87608238452E+02 0.  0.
        -11    1    4    4    0    0 -0.49163985473E+02 -0.14665970863E+03  0.82413868642E+03  0.83852891546E+03  0.51100000000E-03 0. -1.
     200002    1    4    4    0    0  0.23117768742E+02 -0.19871256474E+03  0.11707827656E+04  0.11881302112E+04  0.30000000000E+02 0. -1.
     200000    1    3    3    0    0  0.15246770982E+03 -0.35561115076E+02  0.14822010311E+03  0.23807812669E+03  0.10100000000E+03 0. -1.
    -200001    1    1    2    0    0 -0.12642149309E+03  0.38093338844E+03 -0.20653603357E+03  0.76126130436E+03  0.61300000000E+03 0. -1.
<mgrwt>
<rscale>  0 0.23251293E+04</rscale>
<asrwt>0</asrwt>
<pdfrwt beam="1">  1        2 0.35447173E+00 0.23251293E+04</pdfrwt>
<pdfrwt beam="2">  1       -2 0.77813786E-01 0.23251293E+04</pdfrwt>
<totfact> 0.60302429E+00</totfact>
</mgrwt>
</event>
<event>
 8    1  0.7326756E-052  0.1392008E+04  0.7818608E-02  0.8959624E-01
         -2   -1    0    0    0  501 -0.00000000000E+00  0.00000000000E+00  0.98177474743E+03  0.98177474744E+03  0.25500000000E-02 0. -1.
          2   -1    0    0  501    0  0.00000000000E+00 -0.00000000000E+00 -0.49341424502E+03  0.49341424503E+03  0.25500000000E-02 0.  1.
     200001    2    1    2    0    0 -0.41597031652E+02 -0.89567119537E+02  0.57682101052E+03  0.84801529767E+03  0.61372215616E+03 0.  0.
    5000001    2    3    3    0    0  0.12440757361E+03  0.55951973636E+02 -0.60713265823E+02  0.16582449668E+03  0.72137336568E+02 0.  0.
        -11    1    4    4    0    0  0.68864444399E+02  0.56548035263E+02 -0.22044574765E+02  0.91793002301E+02  0.51100000000E-03 0. -1.
     200002    1    4    4    0    0  0.55543129208E+02 -0.59606162704E+00 -0.38668691058E+02  0.74031494378E+02  0.30000000000E+02 0. -1.
     200000    1    3    3    0    0 -0.16600460526E+03 -0.14551909317E+03  0.63753427634E+03  0.68219080099E+03  0.10100000000E+03 0. -1.
    -200001    1    1    2    0    0  0.41597031652E+02  0.89567119537E+02 -0.88460508107E+02  0.62717369479E+03  0.61300000000E+03 0.  1.
<mgrwt>
<rscale>  0 0.13920081E+04</rscale>
<asrwt>0</asrwt>
<pdfrwt beam="1">  1        2 0.70487750E-01 0.13920081E+04</pdfrwt>
<pdfrwt beam="2">  1       -2 0.14025353E+00 0.13920081E+04</pdfrwt>
<totfact> 0.23756887E+01</totfact>
</mgrwt>
</event>
<event>
 8    1  0.7326756E-052  0.1333621E+04  0.7818608E-02  0.9003320E-01
         -2   -1    0    0    0  501 -0.00000000000E+00  0.00000000000E+00  0.43520151632E+03  0.43520151633E+03  0.25500000000E-02 0. -1.
          2   -1    0    0  501    0  0.00000000000E+00 -0.00000000000E+00 -0.10216788383E+04  0.10216788384E+04  0.25500000000E-02 0.  1.
     200001    2    1    2    0    0  0.18682682640E+03 -0.12834934529E+02 -0.49165275948E+03  0.80893769035E+03  0.61448250777E+03 0.  0.
    5000001    2    3    3    0    0  0.32331352630E+03  0.17560617769E+03 -0.20914575272E+03  0.42926693706E+03  0.71826119515E+02 0.  0.
        -11    1    4    4    0    0  0.22810927957E+03  0.14058886056E+03 -0.13463242973E+03  0.29987491104E+03  0.51100000000E-03 0. -1.
     200002    1    4    4    0    0  0.95204246733E+02  0.35017317134E+02 -0.74513322990E+02  0.12939202602E+03  0.30000000000E+02 0.  1.
     200000    1    3    3    0    0 -0.13648669990E+03 -0.18844111222E+03 -0.28250700677E+03  0.37967075328E+03  0.10100000000E+03 0.  1.
    -200001    1    1    2    0    0 -0.18682682640E+03  0.12834934529E+02 -0.94824562541E+02  0.64794266434E+03  0.61300000000E+03 0. -1.
<mgrwt>
<rscale>  0 0.13336209E+04</rscale>
<asrwt>0</asrwt>
<pdfrwt beam="1">  1        2 0.14595412E+00 0.13336209E+04</pdfrwt>
<pdfrwt beam="2">  1       -2 0.62171645E-01 0.13336209E+04</pdfrwt>
<totfact> 0.64029812E+01</totfact>
</mgrwt>
</event>
<event>
 8    1  0.7326756E-052  0.1300942E+04  0.7818608E-02  0.9028819E-01
         -2   -1    0    0    0  501 -0.00000000000E+00  0.00000000000E+00  0.40842962293E+03  0.40842962294E+03  0.25500000000E-02 0. -1.
          2   -1    0    0  501    0  0.00000000000E+00 -0.00000000000E+00 -0.10359492040E+04  0.10359492040E+04  0.25500000000E-02 0.  1.
     200001    2    1    2    0    0  0.16089891404E+03  0.71506102224E+02 -0.17255109949E+03  0.66094605864E+03  0.61324891137E+03 0.  0.
    5000001    2    3    3    0    0  0.33447496817E+03 -0.80716889500E+02 -0.16223935232E+03  0.40874015485E+03  0.14952653998E+03 0.  0.
        -11    1    4    4    0    0  0.99339901341E+02 -0.26242192284E+02 -0.12640169173E+03  0.16289400335E+03  0.51100000000E-03 0. -1.
     200002    1    4    4    0    0  0.23513506683E+03 -0.54474697216E+02 -0.35837660586E+02  0.24584615150E+03  0.30000000000E+02 0. -1.
     200000    1    3    3    0    0 -0.17357605413E+03  0.15222299172E+03 -0.10311747171E+02  0.25220590379E+03  0.10100000000E+03 0. -1.
    -200001    1    1    2    0    0 -0.16089891404E+03 -0.71506102224E+02 -0.45496848155E+03  0.78343276827E+03  0.61300000000E+03 0.  1.
<mgrwt>
<rscale>  0 0.13009417E+04</rscale>
<asrwt>0</asrwt>
<pdfrwt beam="1">  1        2 0.14799274E+00 0.13009417E+04</pdfrwt>
<pdfrwt beam="2">  1       -2 0.58347089E-01 0.13009417E+04</pdfrwt>
<totfact> 0.71937630E+01</totfact>
</mgrwt>
</event>
<event>
 8    1  0.7326756E-052  0.1686778E+04  0.7818608E-02  0.8768941E-01
          2   -1    0    0  501    0  0.00000000000E+00  0.00000000000E+00  0.18772337685E+04  0.18772337685E+04  0.25500000000E-02 0.  1.
         -2   -1    0    0    0  501 -0.00000000000E+00 -0.00000000000E+00 -0.37891126691E+03  0.37891126692E+03  0.25500000000E-02 0. -1.
     200001    2    1    2    0    0  0.53724894411E+03  0.93499158447E+02  0.10080227033E+04  0.13003514318E+04  0.61434970107E+03 0.  0.
    5000001    2    3    3    0    0 -0.30794161095E+02  0.18317390869E+03  0.17237733602E+03  0.28093065995E+03  0.12127295058E+03 0.  0.
        -11    1    4    4    0    0  0.68157505145E+01  0.16849457043E+03  0.11242424695E+03  0.20267236127E+03  0.51100000000E-03 0. -1.
     200002    1    4    4    0    0 -0.37609911609E+02  0.14679338257E+02  0.59953089071E+02  0.78258298679E+02  0.30000000000E+02 0. -1.
     200000    1    3    3    0    0  0.56804310520E+03 -0.89674750241E+02  0.83564536728E+03  0.10194207718E+04  0.10100000000E+03 0.  1.
    -200001    1    1    2    0    0 -0.53724894411E+03 -0.93499158447E+02  0.49029979832E+03  0.95579360367E+03  0.61300000000E+03 0. -1.
<mgrwt>
<rscale>  0 0.16867780E+04</rscale>
<asrwt>0</asrwt>
<pdfrwt beam="1">  1        2 0.26817625E+00 0.16867780E+04</pdfrwt>
<pdfrwt beam="2">  1       -2 0.54130181E-01 0.16867780E+04</pdfrwt>
<totfact> 0.28479734E+01</totfact>
</mgrwt>
</event>
<event>
 8    1  0.7326756E-052  0.1265271E+04  0.7818608E-02  0.9057568E-01
          2   -1    0    0  501    0  0.00000000000E+00  0.00000000000E+00  0.16443415007E+04  0.16443415007E+04  0.25500000000E-02 0.  1.
         -2   -1    0    0    0  501 -0.00000000000E+00 -0.00000000000E+00 -0.24339695624E+03  0.24339695626E+03  0.25500000000E-02 0. -1.
     200001    2    1    2    0    0  0.39803672834E+02  0.14408807424E+03  0.76716610808E+03  0.99342877237E+03  0.61319750724E+03 0.  0.
    5000001    2    3    3    0    0  0.18249868619E+03 -0.17083669608E+03  0.25052729222E+03  0.36362233874E+03  0.83464566703E+02 0.  0.
        -11    1    4    4    0    0  0.85535358027E+02 -0.12544697272E+03  0.15592616707E+03  0.21763779547E+03  0.51100000000E-03 0. -1.
     200002    1    4    4    0    0  0.96963328166E+02 -0.45389723357E+02  0.94601125149E+02  0.14598454327E+03  0.30000000000E+02 0. -1.
     200000    1    3    3    0    0 -0.14269501336E+03  0.31492477031E+03  0.51663881586E+03  0.62980643363E+03  0.10100000000E+03 0. -1.
    -200001    1    1    2    0    0 -0.39803672834E+02 -0.14408807424E+03  0.63377843635E+03  0.89430968455E+03  0.61300000000E+03 0. -1.
<mgrwt>
<rscale>  0 0.12652711E+04</rscale>
<asrwt>0</asrwt>
<pdfrwt beam="1">  1        2 0.23490592E+00 0.12652711E+04</pdfrwt>
<pdfrwt beam="2">  1       -2 0.34770995E-01 0.12652711E+04</pdfrwt>
<totfact> 0.93450060E+01</totfact>
</mgrwt>
</event>
<event>
 8    1  0.7326756E-052  0.1248313E+04  0.7818608E-02  0.9071589E-01
         -2   -1    0    0    0  501 -0.00000000000E+00  0.00000000000E+00  0.23977821086E+03  0.23977821087E+03  0.25500000000E-02 0.  1.
          2   -1    0    0  501    0  0.00000000000E+00 -0.00000000000E+00 -0.16247147152E+04  0.16247147152E+04  0.25500000000E-02 0. -1.
     200001    2    1    2    0    0  0.36170006690E+02 -0.46011292749E+02 -0.56197398237E+03  0.83664973716E+03  0.61704352957E+03 0.  0.
    5000001    2    3    3    0    0  0.26994272720E+03 -0.38215646390E+01 -0.96863237654E+02  0.30471114779E+03  0.10287233084E+03 0.  0.
        -11    1    4    4    0    0  0.11547925917E+01 -0.40156407581E+01  0.12348549913E+02  0.13036318569E+02  0.51100000000E-03 0. -1.
     200002    1    4    4    0    0  0.26878793461E+03  0.19407611903E+00 -0.10921178757E+03  0.29167482922E+03  0.30000000000E+02 0. -1.
     200000    1    3    3    0    0 -0.23377272051E+03 -0.42189728110E+02 -0.46511074471E+03  0.53193858937E+03  0.10100000000E+03 0. -1.
    -200001    1    1    2    0    0 -0.36170006690E+02  0.46011292749E+02 -0.82296252197E+03  0.10278431889E+04  0.61300000000E+03 0. -1.
<mgrwt>
<rscale>  0 0.12483128E+04</rscale>
<asrwt>0</asrwt>
<pdfrwt beam="1">  1        2 0.23210209E+00 0.12483128E+04</pdfrwt>
<pdfrwt beam="2">  1       -2 0.34254031E-01 0.12483128E+04</pdfrwt>
<totfact> 0.98568909E+01</totfact>
</mgrwt>
</event>
<event>
 8    1  0.7326756E-052  0.1787966E+04  0.7818608E-02  0.8712725E-01
          2   -1    0    0  501    0  0.00000000000E+00  0.00000000000E+00  0.41826785219E+03  0.41826785220E+03  0.25500000000E-02 0.  1.
         -2   -1    0    0    0  501 -0.00000000000E+00 -0.00000000000E+00 -0.19107517900E+04  0.19107517900E+04  0.25500000000E-02 0. -1.
     200001    2    1    2    0    0  0.16879116946E+03  0.59839593280E+03 -0.10048286443E+04  0.13289472265E+04  0.60815456526E+03 0.  0.
    5000001    2    3    3    0    0  0.61382406276E+02  0.56044915317E+03 -0.37543057217E+03  0.68139836068E+03  0.74057803939E+02 0.  0.
        -11    1    4    4    0    0  0.14752038609E+02  0.90962408590E+02 -0.91899430896E+02  0.13014333567E+03  0.51100000000E-03 0. -1.
     200002    1    4    4    0    0  0.46630367667E+02  0.46948674458E+03 -0.28353114127E+03  0.55125502501E+03  0.30000000000E+02 0. -1.
     200000    1    3    3    0    0  0.10740876318E+03  0.37946779630E+02 -0.62939807209E+03  0.64754886584E+03  0.10100000000E+03 0. -1.
    -200001    1    1    2    0    0 -0.16879116946E+03 -0.59839593280E+03 -0.48765529353E+03  0.10000724157E+04  0.61300000000E+03 0. -1.
<mgrwt>
<rscale>  0 0.17879665E+04</rscale>
<asrwt>0</asrwt>
<pdfrwt beam="1">  1        2 0.59752551E-01 0.17879665E+04</pdfrwt>
<pdfrwt beam="2">  1       -2 0.27296454E+00 0.17879665E+04</pdfrwt>
<totfact> 0.36255167E+00</totfact>
</mgrwt>
</event>
<event>
 8    1  0.7326756E-052  0.1957752E+04  0.7818608E-02  0.8626632E-01
          2   -1    0    0  501    0  0.00000000000E+00  0.00000000000E+00  0.37178717040E+04  0.37178717040E+04  0.25500000000E-02 0.  1.
         -2   -1    0    0    0  501 -0.00000000000E+00 -0.00000000000E+00 -0.25772768977E+03  0.25772768978E+03  0.25500000000E-02 0. -1.
     200001    2    1    2    0    0 -0.63562672426E+03 -0.35984475661E+02  0.87503122107E+03  0.12435866983E+04  0.61279035826E+03 0.  0.
    5000001    2    3    3    0    0 -0.42477432563E+03 -0.29998911576E+03  0.43987903235E+03  0.68348348336E+03  0.56827912377E+02 0.  0.
        -11    1    4    4    0    0 -0.44330727724E+02 -0.43039111129E+02  0.37470738202E+02  0.72260879659E+02  0.51100000000E-03 0. -1.
     200002    1    4    4    0    0 -0.38044359791E+03 -0.25695000464E+03  0.40240829415E+03  0.61122260370E+03  0.30000000000E+02 0. -1.
     200000    1    3    3    0    0 -0.21085239862E+03  0.26400464010E+03  0.43515218872E+03  0.56010321491E+03  0.10100000000E+03 0. -1.
    -200001    1    1    2    0    0  0.63562672426E+03  0.35984475661E+02  0.25851127932E+04  0.27320126955E+04  0.61300000000E+03 0. -1.
<mgrwt>
<rscale>  0 0.19577523E+04</rscale>
<asrwt>0</asrwt>
<pdfrwt beam="1">  1        2 0.53112450E+00 0.19577523E+04</pdfrwt>
<pdfrwt beam="2">  1       -2 0.36818243E-01 0.19577523E+04</pdfrwt>
<totfact> 0.57327715E+00</totfact>
</mgrwt>
</event>
<event>
 8    1  0.7326756E-052  0.1425345E+04  0.7818608E-02  0.8935674E-01
          2   -1    0    0  501    0  0.00000000000E+00  0.00000000000E+00  0.77127366206E+03  0.77127366206E+03  0.25500000000E-02 0.  1.
         -2   -1    0    0    0  501 -0.00000000000E+00 -0.00000000000E+00 -0.65852340951E+03  0.65852340951E+03  0.25500000000E-02 0. -1.
     200001    2    1    2    0    0  0.19341037281E+03  0.22301262178E+03 -0.15628300513E+03  0.69816185132E+03  0.61307698633E+03 0.  0.
    5000001    2    3    3    0    0  0.16919498907E+03  0.40089614973E+03 -0.14988181239E+02  0.44837361784E+03  0.10709616428E+03 0.  0.
        -11    1    4    4    0    0  0.16797668238E+03  0.34656932117E+03 -0.29370535735E+01  0.38514294292E+03  0.51100000000E-03 0. -1.
     200002    1    4    4    0    0  0.12183066903E+01  0.54326828560E+02 -0.12051127665E+02  0.63230674918E+02  0.30000000000E+02 0.  1.
     200000    1    3    3    0    0  0.24215383743E+02 -0.17788352795E+03 -0.14129482389E+03  0.24978823348E+03  0.10100000000E+03 0. -1.
    -200001    1    1    2    0    0 -0.19341037281E+03 -0.22301262178E+03  0.26903325768E+03  0.73163522026E+03  0.61300000000E+03 0.  1.
<mgrwt>
<rscale>  0 0.14253445E+04</rscale>
<asrwt>0</asrwt>
<pdfrwt beam="1">  1        2 0.11018195E+00 0.14253445E+04</pdfrwt>
<pdfrwt beam="2">  1       -2 0.94074773E-01 0.14253445E+04</pdfrwt>
<totfact> 0.36982054E+01</totfact>
</mgrwt>
</event>
<event>
 8    1  0.7326756E-052  0.1527001E+04  0.7818608E-02  0.8866693E-01
          2   -1    0    0  501    0  0.00000000000E+00  0.00000000000E+00  0.61426245946E+03  0.61426245946E+03  0.25500000000E-02 0. -1.
         -2   -1    0    0    0  501 -0.00000000000E+00 -0.00000000000E+00 -0.94899706727E+03  0.94899706727E+03  0.25500000000E-02 0.  1.
     200001    2    1    2    0    0 -0.64150937160E+02 -0.45166255169E+03 -0.10532832623E+03  0.76544335406E+03  0.60555352252E+03 0.  0.
    5000001    2    3    3    0    0 -0.22850769352E+03 -0.22087031414E+02 -0.15693714110E+03  0.29172113508E+03  0.88138251865E+02 0.  0.
        -11    1    4    4    0    0 -0.18876257090E+03 -0.24406026726E+02 -0.14793682614E+03  0.24106486024E+03  0.51100000000E-03 0. -1.
     200002    1    4    4    0    0 -0.39745122624E+02  0.23189953123E+01 -0.90003149561E+01  0.50656274843E+02  0.30000000000E+02 0.  1.
     200000    1    3    3    0    0  0.16435675636E+03 -0.42957552028E+03  0.51608814875E+02  0.47372221898E+03  0.10100000000E+03 0. -1.
    -200001    1    1    2    0    0  0.64150937160E+02  0.45166255169E+03 -0.22940628159E+03  0.79781617267E+03  0.61300000000E+03 0.  1.
<mgrwt>
<rscale>  0 0.15270013E+04</rscale>
<asrwt>0</asrwt>
<pdfrwt beam="1">  1        2 0.87751780E-01 0.15270013E+04</pdfrwt>
<pdfrwt beam="2">  1       -2 0.13557101E+00 0.15270013E+04</pdfrwt>
<totfact> 0.19888948E+01</totfact>
</mgrwt>
</event>
<event>
 8    1  0.7326756E-052  0.1756715E+04  0.7818608E-02  0.8729663E-01
          2   -1    0    0  501    0  0.00000000000E+00  0.00000000000E+00  0.21469356507E+04  0.21469356507E+04  0.25500000000E-02 0.  1.
         -2   -1    0    0    0  501 -0.00000000000E+00 -0.00000000000E+00 -0.35935480493E+03  0.35935480493E+03  0.25500000000E-02 0. -1.
     200001    2    1    2    0    0 -0.41672077696E+03  0.42861149291E+03  0.11728071098E+04  0.14522127714E+04  0.61325475864E+03 0.  0.
    5000001    2    3    3    0    0  0.42714398637E+02 -0.10349537528E+03  0.11871020325E+03  0.18117394902E+03  0.78715150336E+02 0.  0.
        -11    1    4    4    0    0  0.13596803865E+01 -0.33681132299E+02  0.79184483724E+02  0.86060733594E+02  0.51100000000E-03 0. -1.
     200002    1    4    4    0    0  0.41354718251E+02 -0.69814242981E+02  0.39525719524E+02  0.95113215425E+02  0.30000000000E+02 0. -1.
     200000    1    3    3    0    0 -0.45943517560E+03  0.53210686819E+03  0.10540969065E+04  0.12710388224E+04  0.10100000000E+03 0.  1.
    -200001    1    1    2    0    0  0.41672077696E+03 -0.42861149291E+03  0.61477373596E+03  0.10540776842E+04  0.61300000000E+03 0. -1.
<mgrwt>
<rscale>  0 0.17567147E+04</rscale>
<asrwt>0</asrwt>
<pdfrwt beam="1">  1        2 0.30670510E+00 0.17567147E+04</pdfrwt>
<pdfrwt beam="2">  1       -2 0.51336400E-01 0.17567147E+04</pdfrwt>
<totfact> 0.22942320E+01</totfact>
</mgrwt>
</event>
<event>
 8    1  0.7326756E-052  0.1250915E+04  0.7818608E-02  0.9069422E-01
         -2   -1    0    0    0  501 -0.00000000000E+00  0.00000000000E+00  0.33649211852E+03  0.33649211853E+03  0.25500000000E-02 0. -1.
          2   -1    0    0  501    0  0.00000000000E+00 -0.00000000000E+00 -0.11625751782E+04  0.11625751782E+04  0.25500000000E-02 0.  1.
     200001    2    1    2    0    0 -0.74219161864E+02 -0.59621779850E+02 -0.50933488189E+03  0.80253183552E+03  0.61283936272E+03 0.  0.
    5000001    2    3    3    0    0 -0.25718295977E+03 -0.20625661097E+03 -0.23579216472E+03  0.42836056036E+03  0.13860000130E+03 0.  0.
        -11    1    4    4    0    0 -0.12410756403E+03 -0.70210975484E+02 -0.28590220571E+02  0.14542925855E+03  0.51100000000E-03 0. -1.
     200002    1    4    4    0    0 -0.13307539574E+03 -0.13604563548E+03 -0.20720194415E+03  0.28293130181E+03  0.30000000000E+02 0. -1.
     200000    1    3    3    0    0  0.18296379791E+03  0.14663483112E+03 -0.27354271716E+03  0.37417127516E+03  0.10100000000E+03 0.  1.
    -200001    1    1    2    0    0  0.74219161864E+02  0.59621779850E+02 -0.31674817782E+03  0.69653546124E+03  0.61300000000E+03 0. -1.
<mgrwt>
<rscale>  0 0.12509155E+04</rscale>
<asrwt>0</asrwt>
<pdfrwt beam="1">  1        2 0.16608217E+00 0.12509155E+04</pdfrwt>
<pdfrwt beam="2">  1       -2 0.48070303E-01 0.12509155E+04</pdfrwt>
<totfact> 0.90550499E+01</totfact>
</mgrwt>
</event>
<event>
 8    1  0.7326756E-052  0.1356200E+04  0.7818608E-02  0.8986148E-01
          2   -1    0    0  501    0  0.00000000000E+00  0.00000000000E+00  0.34774104708E+03  0.34774104709E+03  0.25500000000E-02 0.  1.
         -2   -1    0    0    0  501 -0.00000000000E+00 -0.00000000000E+00 -0.13223038293E+04  0.13223038293E+04  0.25500000000E-02 0. -1.
     200001    2    1    2    0    0  0.13826720678E+03  0.24408858466E+03 -0.39833143968E+03  0.78319166545E+03  0.61320811424E+03 0.  0.
    5000001    2    3    3    0    0  0.22156951289E+03  0.11598362204E+03  0.37681497481E+02  0.31026626222E+03  0.17972203146E+03 0.  0.
        -11    1    4    4    0    0  0.18924946709E+03  0.60524490527E+01  0.18052709574E+02  0.19020487180E+03  0.51100000000E-03 0. -1.
     200002    1    4    4    0    0  0.32320045808E+02  0.10993117299E+03  0.19628787908E+02  0.12006139042E+03  0.30000000000E+02 0. -1.
     200000    1    3    3    0    0 -0.83302306118E+02  0.12810496262E+03 -0.43601293716E+03  0.47292540323E+03  0.10100000000E+03 0. -1.
    -200001    1    1    2    0    0 -0.13826720678E+03 -0.24408858466E+03 -0.57623134255E+03  0.88685321095E+03  0.61300000000E+03 0. -1.
<mgrwt>
<rscale>  0 0.13561996E+04</rscale>
<asrwt>0</asrwt>
<pdfrwt beam="1">  1        2 0.49677293E-01 0.13561996E+04</pdfrwt>
<pdfrwt beam="2">  1       -2 0.18890054E+00 0.13561996E+04</pdfrwt>
<totfact> 0.15579144E+01</totfact>
</mgrwt>
</event>
<event>
 8    1  0.7326756E-052  0.1605977E+04  0.7818608E-02  0.8816885E-01
          2   -1    0    0  501    0  0.00000000000E+00  0.00000000000E+00  0.15206977044E+04  0.15206977044E+04  0.25500000000E-02 0.  1.
         -2   -1    0    0    0  501 -0.00000000000E+00 -0.00000000000E+00 -0.42400957436E+03  0.42400957436E+03  0.25500000000E-02 0. -1.
     200001    2    1    2    0    0  0.92233792341E+02  0.50355517503E+03  0.44177184529E+03  0.91186691026E+03  0.61177120885E+03 0.  0.
    5000001    2    3    3    0    0 -0.10652454776E+03  0.52462889067E+03  0.41722055861E+03  0.68658321150E+03  0.10363667104E+03 0.  0.
        -11    1    4    4    0    0 -0.63337670335E+02  0.36889580151E+03  0.33712779660E+03  0.50373695923E+03  0.51100000000E-03 0. -1.
     200002    1    4    4    0    0 -0.43186877423E+02  0.15573308917E+03  0.80092762006E+02  0.18284625227E+03  0.30000000000E+02 0.  1.
     200000    1    3    3    0    0  0.19875834010E+03 -0.21073715639E+02  0.24551286683E+02  0.22528369876E+03  0.10100000000E+03 0. -1.
    -200001    1    1    2    0    0 -0.92233792341E+02 -0.50355517503E+03  0.65491628471E+03  0.10328403685E+04  0.61300000000E+03 0. -1.
<mgrwt>
<rscale>  0 0.16059768E+04</rscale>
<asrwt>0</asrwt>
<pdfrwt beam="1">  1        2 0.21724253E+00 0.16059768E+04</pdfrwt>
<pdfrwt beam="2">  1       -2 0.60572796E-01 0.16059768E+04</pdfrwt>
<totfact> 0.34743579E+01</totfact>
</mgrwt>
</event>
<event>
 8    1  0.7326756E-052  0.2596837E+04  0.7818608E-02  0.8369276E-01
         -2   -1    0    0    0  501 -0.00000000000E+00  0.00000000000E+00  0.58162082452E+03  0.58162082453E+03  0.25500000000E-02 0. -1.
          2   -1    0    0  501    0  0.00000000000E+00 -0.00000000000E+00 -0.28986077328E+04  0.28986077328E+04  0.25500000000E-02 0.  1.
     200001    2    1    2    0    0 -0.41553437254E+03 -0.99653754766E+03 -0.64968439409E+03  0.14014253987E+04  0.61330859884E+03 0.  0.
    5000001    2    3    3    0    0  0.55064591780E+02 -0.24464123100E+03  0.50617900184E+02  0.26677313492E+03  0.75659054470E+02 0.  0.
        -11    1    4    4    0    0  0.39144076088E+02 -0.19294529795E+03  0.20393171621E+02  0.19792935139E+03  0.51100000000E-03 0. -1.
     200002    1    4    4    0    0  0.15920515692E+02 -0.51695933054E+02  0.30224728564E+02  0.68843783532E+02  0.30000000000E+02 0. -1.
     200000    1    3    3    0    0 -0.47059896432E+03 -0.75189631666E+03 -0.70030229428E+03  0.11346522637E+04  0.10100000000E+03 0.  1.
    -200001    1    1    2    0    0  0.41553437254E+03  0.99653754766E+03 -0.16673025142E+04  0.20788031586E+04  0.61300000000E+03 0.  1.
<mgrwt>
<rscale>  0 0.25968370E+04</rscale>
<asrwt>0</asrwt>
<pdfrwt beam="1">  1        2 0.41408681E+00 0.25968370E+04</pdfrwt>
<pdfrwt beam="2">  1       -2 0.83088690E-01 0.25968370E+04</pdfrwt>
<totfact> 0.30320720E+00</totfact>
</mgrwt>
</event>
<event>
 8    1  0.7326756E-052  0.1384816E+04  0.7818608E-02  0.8964884E-01
          2   -1    0    0  501    0  0.00000000000E+00  0.00000000000E+00  0.39921493038E+03  0.39921493039E+03  0.25500000000E-02 0.  1.
         -2   -1    0    0    0  501 -0.00000000000E+00 -0.00000000000E+00 -0.12009284885E+04  0.12009284885E+04  0.25500000000E-02 0. -1.
     200001    2    1    2    0    0 -0.45829506706E+02  0.17197945626E+03 -0.92551096496E+02  0.64601676376E+03  0.61408035023E+03 0.  0.
    5000001    2    3    3    0    0  0.36026078813E+02  0.38135616681E+03 -0.57538397099E+02  0.39708739041E+03  0.87391785428E+02 0.  0.
        -11    1    4    4    0    0  0.22012131912E+02  0.16351957813E+03  0.13588030460E+02  0.16555307594E+03  0.51100000000E-03 0. -1.
     200002    1    4    4    0    0  0.14013946901E+02  0.21783658868E+03 -0.71126427559E+02  0.23153431446E+03  0.30000000000E+02 0.  1.
     200000    1    3    3    0    0 -0.81855585519E+02 -0.20937671055E+03 -0.35012699397E+02  0.24892937336E+03  0.10100000000E+03 0.  1.
    -200001    1    1    2    0    0  0.45829506706E+02 -0.17197945626E+03 -0.70916246164E+03  0.95412665514E+03  0.61300000000E+03 0. -1.
<mgrwt>
<rscale>  0 0.13848156E+04</rscale>
<asrwt>0</asrwt>
<pdfrwt beam="1">  1        2 0.57030705E-01 0.13848156E+04</pdfrwt>
<pdfrwt beam="2">  1       -2 0.17156121E+00 0.13848156E+04</pdfrwt>
<totfact> 0.17554510E+01</totfact>
</mgrwt>
</event>
<event>
 8    1  0.7326756E-052  0.1561748E+04  0.7818608E-02  0.8844399E-01
          2   -1    0    0  501    0  0.00000000000E+00  0.00000000000E+00  0.23126915102E+03  0.23126915104E+03  0.25500000000E-02 0.  1.
         -2   -1    0    0    0  501 -0.00000000000E+00 -0.00000000000E+00 -0.26365981997E+04  0.26365981997E+04  0.25500000000E-02 0. -1.
     200001    2    1    2    0    0 -0.24518379485E+03  0.34539437910E+02 -0.43684571376E+03  0.79133088203E+03  0.61160634497E+03 0.  0.
    5000001    2    3    3    0    0  0.79732944166E+02  0.11037918978E+03 -0.31481287077E+03  0.42198609728E+03  0.24581337388E+03 0.  0.
        -11    1    4    4    0    0  0.50088045874E+02  0.18354931550E+03 -0.17421714039E+03  0.25797436998E+03  0.51100000000E-03 0. -1.
     200002    1    4    4    0    0  0.29644898293E+02 -0.73170125724E+02 -0.14059573037E+03  0.16401172730E+03  0.30000000000E+02 0. -1.
     200000    1    3    3    0    0 -0.32491673901E+03 -0.75839751866E+02 -0.12203284299E+03  0.36934478475E+03  0.10100000000E+03 0.  1.
    -200001    1    1    2    0    0  0.24518379485E+03 -0.34539437910E+02 -0.19684833349E+04  0.20765364687E+04  0.61300000000E+03 0. -1.
<mgrwt>
<rscale>  0 0.15617475E+04</rscale>
<asrwt>0</asrwt>
<pdfrwt beam="1">  1        2 0.33038452E-01 0.15617475E+04</pdfrwt>
<pdfrwt beam="2">  1       -2 0.37665687E+00 0.15617475E+04</pdfrwt>
<totfact> 0.16312661E+00</totfact>
</mgrwt>
</event>
<event>
 8    1  0.7326756E-052  0.1462513E+04  0.7818608E-02  0.8909772E-01
         -2   -1    0    0    0  501 -0.00000000000E+00  0.00000000000E+00  0.85102236676E+03  0.85102236676E+03  0.25500000000E-02 0. -1.
          2   -1    0    0  501    0  0.00000000000E+00 -0.00000000000E+00 -0.62834512298E+03  0.62834512299E+03  0.25500000000E-02 0.  1.
     200001    2    1    2    0    0 -0.13511576265E+03 -0.36531713132E+03  0.22570024807E+02  0.72602508762E+03  0.61228273378E+03 0.  0.
    5000001    2    3    3    0    0 -0.46972624400E+02  0.96533248116E+02 -0.16396257761E+03  0.21020496629E+03  0.76008588725E+02 0.  0.
        -11    1    4    4    0    0  0.16794361420E+02  0.86532705037E+01 -0.23589717141E+02  0.30222581309E+02  0.51100000000E-03 0. -1.
     200002    1    4    4    0    0 -0.63766985820E+02  0.87879977612E+02 -0.14037286047E+03  0.17998238498E+03  0.30000000000E+02 0. -1.
     200000    1    3    3    0    0 -0.88143138250E+02 -0.46185037944E+03  0.18653260242E+03  0.51582012134E+03  0.10100000000E+03 0. -1.
    -200001    1    1    2    0    0  0.13511576265E+03  0.36531713132E+03  0.20010721897E+03  0.75334240213E+03  0.61300000000E+03 0. -1.
<mgrwt>
<rscale>  0 0.14625126E+04</rscale>
<asrwt>0</asrwt>
<pdfrwt beam="1">  1        2 0.89763589E-01 0.14625126E+04</pdfrwt>
<pdfrwt beam="2">  1       -2 0.12157462E+00 0.14625126E+04</pdfrwt>
<totfact> 0.25616613E+01</totfact>
</mgrwt>
</event>
<event>
 8    1  0.7326756E-052  0.1351417E+04  0.7818608E-02  0.8989756E-01
          2   -1    0    0  501    0  0.00000000000E+00  0.00000000000E+00  0.13438702982E+04  0.13438702982E+04  0.25500000000E-02 0.  1.
         -2   -1    0    0    0  501 -0.00000000000E+00 -0.00000000000E+00 -0.33975146338E+03  0.33975146339E+03  0.25500000000E-02 0. -1.
     200001    2    1    2    0    0  0.13689383421E+02 -0.20809099601E+03  0.74058831610E+03  0.98454623195E+03  0.61430527188E+03 0.  0.
    5000001    2    3    3    0    0  0.79703989332E+02  0.16512593047E+03  0.44854688519E+03  0.49552885008E+03  0.10361097536E+03 0.  0.
        -11    1    4    4    0    0  0.86639169841E+02  0.78599511458E+02  0.21886765194E+03  0.24816784243E+03  0.51100000000E-03 0. -1.
     200002    1    4    4    0    0 -0.69351805092E+01  0.86526419007E+02  0.22967923325E+03  0.24736100764E+03  0.30000000000E+02 0. -1.
     200000    1    3    3    0    0 -0.66014605911E+02 -0.37321692648E+03  0.29204143090E+03  0.48901738187E+03  0.10100000000E+03 0.  1.
    -200001    1    1    2    0    0 -0.13689383421E+02  0.20809099601E+03  0.26353051871E+03  0.69907552963E+03  0.61300000000E+03 0. -1.
<mgrwt>
<rscale>  0 0.13514169E+04</rscale>
<asrwt>0</asrwt>
<pdfrwt beam="1">  1        2 0.19198147E+00 0.13514169E+04</pdfrwt>
<pdfrwt beam="2">  1       -2 0.48535923E-01 0.13514169E+04</pdfrwt>
<totfact> 0.69753563E+01</totfact>
</mgrwt>
</event>
<event>
 8    1  0.7326756E-052  0.1264243E+04  0.7818608E-02  0.9058412E-01
         -2   -1    0    0    0  501 -0.00000000000E+00  0.00000000000E+00  0.21670152881E+03  0.21670152883E+03  0.25500000000E-02 0. -1.
          2   -1    0    0  501    0  0.00000000000E+00 -0.00000000000E+00 -0.18439066555E+04  0.18439066555E+04  0.25500000000E-02 0.  1.
     200001    2    1    2    0    0 -0.20629581788E+01  0.12842519147E+03 -0.67509837684E+03  0.92097072062E+03  0.61313290910E+03 0.  0.
    5000001    2    3    3    0    0  0.26830121868E+03  0.17001659662E+03 -0.28807930512E+03  0.43639730514E+03  0.81004535822E+02 0.  0.
        -11    1    4    4    0    0  0.30757857481E+02  0.46670403695E+02 -0.71688340749E+02  0.90903193439E+02  0.51100000000E-03 0. -1.
     200002    1    4    4    0    0  0.23754336120E+03  0.12334619293E+03 -0.21639096437E+03  0.34549411170E+03  0.30000000000E+02 0. -1.
     200000    1    3    3    0    0 -0.27036417686E+03 -0.41591405155E+02 -0.38701907172E+03  0.48457341547E+03  0.10100000000E+03 0. -1.
    -200001    1    1    2    0    0  0.20629581788E+01 -0.12842519147E+03 -0.95210674984E+03  0.11396374637E+04  0.61300000000E+03 0.  1.
<mgrwt>
<rscale>  0 0.12642427E+04</rscale>
<asrwt>0</asrwt>
<pdfrwt beam="1">  1        2 0.26341523E+00 0.12642427E+04</pdfrwt>
<pdfrwt beam="2">  1       -2 0.30957362E-01 0.12642427E+04</pdfrwt>
<totfact> 0.91756171E+01</totfact>
</mgrwt>
</event>
<event>
 8    1  0.7326756E-052  0.1297729E+04  0.7818608E-02  0.9031368E-01
          2   -1    0    0  501    0  0.00000000000E+00  0.00000000000E+00  0.14192974572E+04  0.14192974572E+04  0.25500000000E-02 0.  1.
         -2   -1    0    0    0  501 -0.00000000000E+00 -0.00000000000E+00 -0.29664339489E+03  0.29664339490E+03  0.25500000000E-02 0. -1.
     200001    2    1    2    0    0 -0.20417989902E+03  0.37334527819E+02  0.63377361261E+03  0.90485738399E+03  0.61156732679E+03 0.  0.
    5000001    2    3    3    0    0 -0.51594820984E+02  0.29869811738E+03  0.39737300796E+03  0.50776875677E+03  0.89672805357E+02 0.  0.
        -11    1    4    4    0    0 -0.67438079428E+01  0.64965223111E+02  0.14788570070E+03  0.16166675488E+03  0.51100000000E-03 0. -1.
     200002    1    4    4    0    0 -0.44851013041E+02  0.23373289427E+03  0.24948730725E+03  0.34610200189E+03  0.30000000000E+02 0. -1.
     200000    1    3    3    0    0 -0.15258507804E+03 -0.26136358956E+03  0.23640060466E+03  0.39708862722E+03  0.10100000000E+03 0.  1.
    -200001    1    1    2    0    0  0.20417989902E+03 -0.37334527819E+02  0.48888044969E+03  0.81108346809E+03  0.61300000000E+03 0.  1.
<mgrwt>
<rscale>  0 0.12977291E+04</rscale>
<asrwt>0</asrwt>
<pdfrwt beam="1">  1        2 0.20275679E+00 0.12977291E+04</pdfrwt>
<pdfrwt beam="2">  1       -2 0.42377626E-01 0.12977291E+04</pdfrwt>
<totfact> 0.83572009E+01</totfact>
</mgrwt>
</event>
<event>
 8    1  0.7326756E-052  0.1389288E+04  0.7818608E-02  0.8961609E-01
          2   -1    0    0  501    0  0.00000000000E+00  0.00000000000E+00  0.18153413427E+04  0.18153413427E+04  0.25500000000E-02 0.  1.
         -2   -1    0    0    0  501 -0.00000000000E+00 -0.00000000000E+00 -0.26580686903E+03  0.26580686904E+03  0.25500000000E-02 0. -1.
     200001    2    1    2    0    0  0.12461667960E+03  0.13210920486E+03  0.11811869512E+04  0.13432924968E+04  0.61339217416E+03 0.  0.
    5000001    2    3    3    0    0  0.23941234738E+03 -0.16873106065E+03  0.52096050267E+03  0.60181904879E+03  0.70695680489E+02 0.  0.
        -11    1    4    4    0    0  0.13484334952E+03 -0.11168407414E+03  0.26087034528E+03  0.31418051876E+03  0.51100000000E-03 0. -1.
     200002    1    4    4    0    0  0.10456899786E+03 -0.57046986515E+02  0.26009015740E+03  0.28763853003E+03  0.30000000000E+02 0.  1.
     200000    1    3    3    0    0 -0.11479566779E+03  0.30084026551E+03  0.66022644857E+03  0.74147344800E+03  0.10100000000E+03 0.  1.
    -200001    1    1    2    0    0 -0.12461667960E+03 -0.13210920486E+03  0.36834752247E+03  0.73785571500E+03  0.61300000000E+03 0.  1.
<mgrwt>
<rscale>  0 0.13892879E+04</rscale>
<asrwt>0</asrwt>
<pdfrwt beam="1">  1        2 0.25933449E+00 0.13892879E+04</pdfrwt>
<pdfrwt beam="2">  1       -2 0.37972409E-01 0.13892879E+04</pdfrwt>
<totfact> 0.63757265E+01</totfact>
</mgrwt>
</event>
<event>
 8    1  0.7326756E-052  0.1260911E+04  0.7818608E-02  0.9061150E-01
          2   -1    0    0  501    0  0.00000000000E+00  0.00000000000E+00  0.15113962839E+04  0.15113962839E+04  0.25500000000E-02 0.  1.
         -2   -1    0    0    0  501 -0.00000000000E+00 -0.00000000000E+00 -0.26298485461E+03  0.26298485462E+03  0.25500000000E-02 0. -1.
     200001    2    1    2    0    0  0.92438572740E+02  0.57177774223E+02  0.48319647054E+03  0.78790401224E+03  0.61278031607E+03 0.  0.
    5000001    2    3    3    0    0 -0.14179535998E+03  0.82187313740E+02  0.50077835396E+03  0.53099715182E+03  0.65714053174E+02 0.  0.
        -11    1    4    4    0    0 -0.10501753561E+03  0.48780056443E+02  0.37505742640E+03  0.39252547662E+03  0.51100000000E-03 0. -1.
     200002    1    4    4    0    0 -0.36777824370E+02  0.33407257297E+02  0.12572092756E+03  0.13847167520E+03  0.30000000000E+02 0.  1.
     200000    1    3    3    0    0  0.23423393272E+03 -0.25009539517E+02 -0.17581883428E+02  0.25690686042E+03  0.10100000000E+03 0. -1.
    -200001    1    1    2    0    0 -0.92438572740E+02 -0.57177774223E+02  0.76521495878E+03  0.98647712631E+03  0.61300000000E+03 0.  1.
<mgrwt>
<rscale>  0 0.12609113E+04</rscale>
<asrwt>0</asrwt>
<pdfrwt beam="1">  1        2 0.21591375E+00 0.12609113E+04</pdfrwt>
<pdfrwt beam="2">  1       -2 0.37569266E-01 0.12609113E+04</pdfrwt>
<totfact> 0.94643319E+01</totfact>
</mgrwt>
</event>
<event>
 8    1  0.7326756E-052  0.1436222E+04  0.7818608E-02  0.8928008E-01
         -2   -1    0    0    0  501 -0.00000000000E+00  0.00000000000E+00  0.20527139205E+03  0.20527139207E+03  0.25500000000E-02 0. -1.
          2   -1    0    0  501    0  0.00000000000E+00 -0.00000000000E+00 -0.25122040068E+04  0.25122040068E+04  0.25500000000E-02 0.  1.
     200001    2    1    2    0    0 -0.23623845692E+03 -0.15449011868E+03 -0.68898659339E+03  0.96442259496E+03  0.61297031779E+03 0.  0.
    5000001    2    3    3    0    0  0.46637374653E+02  0.34801306513E+02  0.73080728733E+02  0.12371005003E+03  0.81099987158E+02 0.  0.
        -11    1    4    4    0    0  0.20999860710E+02  0.35838841586E+00  0.67901140985E+02  0.71075224512E+02  0.51100000000E-03 0. -1.
     200002    1    4    4    0    0  0.25637513943E+02  0.34442918097E+02  0.51795877480E+01  0.52634825520E+02  0.30000000000E+02 0. -1.
     200000    1    3    3    0    0 -0.28287583157E+03 -0.18929142519E+03 -0.76206732213E+03  0.84071254492E+03  0.10100000000E+03 0. -1.
    -200001    1    1    2    0    0  0.23623845692E+03  0.15449011868E+03 -0.16179460214E+04  0.17530528039E+04  0.61300000000E+03 0.  1.
<mgrwt>
<rscale>  0 0.14362223E+04</rscale>
<asrwt>0</asrwt>
<pdfrwt beam="1">  1        2 0.35888627E+00 0.14362223E+04</pdfrwt>
<pdfrwt beam="2">  1       -2 0.29324486E-01 0.14362223E+04</pdfrwt>
<totfact> 0.45254121E+01</totfact>
</mgrwt>
</event>
<event>
 8    1  0.7326756E-052  0.1658402E+04  0.7818608E-02  0.8785451E-01
          2   -1    0    0  501    0  0.00000000000E+00  0.00000000000E+00  0.14205721094E+04  0.14205721094E+04  0.25500000000E-02 0.  1.
         -2   -1    0    0    0  501 -0.00000000000E+00 -0.00000000000E+00 -0.48401225714E+03  0.48401225715E+03  0.25500000000E-02 0. -1.
     200001    2    1    2    0    0  0.69350572365E+02 -0.17486856635E+03 -0.13367664215E+03  0.65696115767E+03  0.61509348935E+03 0.  0.
    5000001    2    3    3    0    0 -0.11812587677E+03 -0.25251022190E+03  0.12252843202E+03  0.31488267883E+03  0.80142060408E+02 0.  0.
        -11    1    4    4    0    0 -0.34664423101E+01  0.52909963214E+01  0.26280720259E+01  0.68496443117E+01  0.51100000000E-03 0. -1.
     200002    1    4    4    0    0 -0.11465943446E+03 -0.25780121822E+03  0.11990035999E+03  0.30803303451E+03  0.30000000000E+02 0. -1.
     200000    1    3    3    0    0  0.18747644913E+03  0.77641655551E+02 -0.25620507417E+03  0.34207847884E+03  0.10100000000E+03 0. -1.
    -200001    1    1    2    0    0 -0.69350572365E+02  0.17486856635E+03  0.10702364944E+04  0.12476232089E+04  0.61300000000E+03 0.  1.
<mgrwt>
<rscale>  0 0.16584020E+04</rscale>
<asrwt>0</asrwt>
<pdfrwt beam="1">  1        2 0.20293888E+00 0.16584020E+04</pdfrwt>
<pdfrwt beam="2">  1       -2 0.69144606E-01 0.16584020E+04</pdfrwt>
<totfact> 0.29466454E+01</totfact>
</mgrwt>
</event>
<event>
 8    1  0.7326756E-052  0.1249666E+04  0.7818608E-02  0.9070461E-01
         -2   -1    0    0    0  501 -0.00000000000E+00  0.00000000000E+00  0.44738288794E+03  0.44738288795E+03  0.25500000000E-02 0. -1.
          2   -1    0    0  501    0  0.00000000000E+00 -0.00000000000E+00 -0.87266739426E+03  0.87266739427E+03  0.25500000000E-02 0.  1.
     200001    2    1    2    0    0 -0.43717891881E+02 -0.10838086911E+03 -0.23955954415E+03  0.66895856177E+03  0.61356264172E+03 0.  0.
    5000001    2    3    3    0    0 -0.24760168832E+03  0.88409371964E+02 -0.23144499798E+03  0.36802360652E+03  0.11292375637E+03 0.  0.
        -11    1    4    4    0    0 -0.23405597441E+03  0.66694262073E+02 -0.21687772648E+03  0.32598507940E+03  0.51100000000E-03 0. -1.
     200002    1    4    4    0    0 -0.13545713914E+02  0.21715109891E+02 -0.14567271497E+02  0.42038527114E+02  0.30000000000E+02 0.  1.
     200000    1    3    3    0    0  0.20388379644E+03 -0.19679024107E+03 -0.81145461724E+01  0.30093495525E+03  0.10100000000E+03 0. -1.
    -200001    1    1    2    0    0  0.43717891881E+02  0.10838086911E+03 -0.18572496217E+03  0.65109172045E+03  0.61300000000E+03 0. -1.
<mgrwt>
<rscale>  0 0.12496663E+04</rscale>
<asrwt>0</asrwt>
<pdfrwt beam="1">  1        2 0.12466677E+00 0.12496663E+04</pdfrwt>
<pdfrwt beam="2">  1       -2 0.63911841E-01 0.12496663E+04</pdfrwt>
<totfact> 0.75554188E+01</totfact>
</mgrwt>
</event>
<event>
 8    1  0.7326756E-052  0.1314762E+04  0.7818608E-02  0.9017940E-01
          2   -1    0    0  501    0  0.00000000000E+00  0.00000000000E+00  0.38501131417E+03  0.38501131417E+03  0.25500000000E-02 0.  1.
         -2   -1    0    0    0  501 -0.00000000000E+00 -0.00000000000E+00 -0.11224332158E+04  0.11224332158E+04  0.25500000000E-02 0. -1.
     200001    2    1    2    0    0 -0.20170067711E+03 -0.53470871471E+02 -0.50053593000E+03  0.81793291965E+03  0.61231997075E+03 0.  0.
    5000001    2    3    3    0    0  0.14336793894E+03  0.15913331412E+03 -0.18689573107E+03  0.29558814471E+03  0.81021968774E+02 0.  0.
        -11    1    4    4    0    0  0.52487337910E+01  0.48791797213E+01 -0.38317669903E+02  0.38982039816E+02  0.51100000000E-03 0. -1.
     200002    1    4    4    0    0  0.13811920515E+03  0.15425413440E+03 -0.14857806117E+03  0.25660610490E+03  0.30000000000E+02 0. -1.
     200000    1    3    3    0    0 -0.34506861605E+03 -0.21260418559E+03 -0.31364019893E+03  0.52234477494E+03  0.10100000000E+03 0.  1.
    -200001    1    1    2    0    0  0.20170067711E+03  0.53470871471E+02 -0.23688597166E+03  0.68951161035E+03  0.61300000000E+03 0.  1.
<mgrwt>
<rscale>  0 0.13147616E+04</rscale>
<asrwt>0</asrwt>
<pdfrwt beam="1">  1        2 0.55001617E-01 0.13147616E+04</pdfrwt>
<pdfrwt beam="2">  1       -2 0.16034760E+00 0.13147616E+04</pdfrwt>
<totfact> 0.22140690E+01</totfact>
</mgrwt>
</event>
<event>
 8    1  0.7326756E-052  0.1799293E+04  0.7818608E-02  0.8706676E-01
          2   -1    0    0  501    0  0.00000000000E+00  0.00000000000E+00  0.10246927156E+04  0.10246927156E+04  0.25500000000E-02 0.  1.
         -2   -1    0    0    0  501 -0.00000000000E+00 -0.00000000000E+00 -0.78986005645E+03  0.78986005646E+03  0.25500000000E-02 0. -1.
     200001    2    1    2    0    0  0.20456281946E+03  0.51636751148E+03  0.47414715732E+03  0.95343618116E+03  0.61297933957E+03 0.  0.
    5000001    2    3    3    0    0  0.12386484074E+03  0.57645550827E+03  0.52574988810E+03  0.80182294641E+03  0.13734496994E+03 0.  0.
        -11    1    4    4    0    0 -0.28160616670E+02  0.11320507074E+03  0.11082059844E+03  0.16090249660E+03  0.51100000000E-03 0. -1.
     200002    1    4    4    0    0  0.15202545741E+03  0.46325043753E+03  0.41492928966E+03  0.64092044981E+03  0.30000000000E+02 0. -1.
     200000    1    3    3    0    0  0.80697978715E+02 -0.60087996792E+02 -0.51602730783E+02  0.15161323475E+03  0.10100000000E+03 0.  1.
    -200001    1    1    2    0    0 -0.20456281946E+03 -0.51636751148E+03 -0.23931449820E+03  0.86111659087E+03  0.61300000000E+03 0. -1.
<mgrwt>
<rscale>  0 0.17992930E+04</rscale>
<asrwt>0</asrwt>
<pdfrwt beam="1">  1        2 0.14638467E+00 0.17992930E+04</pdfrwt>
<pdfrwt beam="2">  1       -2 0.11283715E+00 0.17992930E+04</pdfrwt>
<totfact> 0.15864515E+01</totfact>
</mgrwt>
</event>
<event>
 8    1  0.7326756E-052  0.1338199E+04  0.7818608E-02  0.8999810E-01
          2   -1    0    0  501    0  0.00000000000E+00  0.00000000000E+00  0.16257432871E+04  0.16257432871E+04  0.25500000000E-02 0.  1.
         -2   -1    0    0    0  501 -0.00000000000E+00 -0.00000000000E+00 -0.27537801243E+03  0.27537801244E+03  0.25500000000E-02 0. -1.
     200001    2    1    2    0    0  0.19541225595E+03 -0.52858692413E+02  0.42487677683E+03  0.77272511435E+03  0.61286526718E+03 0.  0.
    5000001    2    3    3    0    0 -0.14168415676E+02  0.25060418809E+03  0.15830122821E+03  0.30659498136E+03  0.77058423600E+02 0.  0.
        -11    1    4    4    0    0 -0.11623333436E+02  0.42477907849E+02  0.11234644163E+01  0.44053793344E+02  0.51100000000E-03 0. -1.
     200002    1    4    4    0    0 -0.25450822397E+01  0.20812628024E+03  0.15717776380E+03  0.26254118801E+03  0.30000000000E+02 0.  1.
     200000    1    3    3    0    0  0.20958067163E+03 -0.30346288050E+03  0.26657554862E+03  0.46613013299E+03  0.10100000000E+03 0. -1.
    -200001    1    1    2    0    0 -0.19541225595E+03  0.52858692413E+02  0.92548849789E+03  0.11283961852E+04  0.61300000000E+03 0.  1.
<mgrwt>
<rscale>  0 0.13381987E+04</rscale>
<asrwt>0</asrwt>
<pdfrwt beam="1">  1        2 0.23224904E+00 0.13381987E+04</pdfrwt>
<pdfrwt beam="2">  1       -2 0.39339716E-01 0.13381987E+04</pdfrwt>
<totfact> 0.74937617E+01</totfact>
</mgrwt>
</event>
<event>
 8    1  0.7326756E-052  0.1455038E+04  0.7818608E-02  0.8914915E-01
         -2   -1    0    0    0  501 -0.00000000000E+00  0.00000000000E+00  0.38096316443E+03  0.38096316444E+03  0.25500000000E-02 0. -1.
          2   -1    0    0  501    0  0.00000000000E+00 -0.00000000000E+00 -0.13893302844E+04  0.13893302844E+04  0.25500000000E-02 0.  1.
     200001    2    1    2    0    0 -0.13174228331E+03 -0.28726780332E+03 -0.78597430287E+03  0.10456512025E+04  0.61298614383E+03 0.  0.
    5000001    2    3    3    0    0 -0.21953754819E+03 -0.37675597572E+03 -0.30564276529E+03  0.53905913041E+03  0.83817932442E+02 0.  0.
        -11    1    4    4    0    0 -0.60045374280E+02 -0.17192856006E+03 -0.13932524795E+03  0.22929544578E+03  0.51100000000E-03 0. -1.
     200002    1    4    4    0    0 -0.15949217391E+03 -0.20482741565E+03 -0.16631751734E+03  0.30976368463E+03  0.30000000000E+02 0. -1.
     200000    1    3    3    0    0  0.87795264879E+02  0.89488172392E+02 -0.48033153759E+03  0.50659207212E+03  0.10100000000E+03 0.  1.
    -200001    1    1    2    0    0  0.13174228331E+03  0.28726780332E+03 -0.22239281709E+03  0.72464224631E+03  0.61300000000E+03 0. -1.
<mgrwt>
<rscale>  0 0.14550377E+04</rscale>
<asrwt>0</asrwt>
<pdfrwt beam="1">  1        2 0.19847575E+00 0.14550377E+04</pdfrwt>
<pdfrwt beam="2">  1       -2 0.54423310E-01 0.14550377E+04</pdfrwt>
<totfact> 0.51717575E+01</totfact>
</mgrwt>
</event>
<event>
 8    1  0.7326756E-052  0.1263203E+04  0.7818608E-02  0.9059266E-01
          2   -1    0    0  501    0  0.00000000000E+00  0.00000000000E+00  0.47587343543E+03  0.47587343544E+03  0.25500000000E-02 0.  1.
         -2   -1    0    0    0  501 -0.00000000000E+00 -0.00000000000E+00 -0.83829099829E+03  0.83829099829E+03  0.25500000000E-02 0. -1.
     200001    2    1    2    0    0 -0.10533454261E+03 -0.10306029089E+03 -0.16180275230E+03  0.65255118444E+03  0.61475696680E+03 0.  0.
    5000001    2    3    3    0    0 -0.83460480032E+01 -0.77275128951E+02 -0.37779567463E+03  0.39385138707E+03  0.79675851139E+02 0.  0.
        -11    1    4    4    0    0 -0.23854482307E+02 -0.39518850572E+02 -0.27934199154E+03  0.28313022466E+03  0.51100000000E-03 0. -1.
     200002    1    4    4    0    0  0.15508434304E+02 -0.37756278379E+02 -0.98453683087E+02  0.11072116241E+03  0.30000000000E+02 0. -1.
     200000    1    3    3    0    0 -0.96988494608E+02 -0.25785161941E+02  0.21599292233E+03  0.25869979737E+03  0.10100000000E+03 0.  1.
    -200001    1    1    2    0    0  0.10533454261E+03  0.10306029089E+03 -0.20061481056E+03  0.66161324929E+03  0.61300000000E+03 0. -1.
<mgrwt>
<rscale>  0 0.12632029E+04</rscale>
<asrwt>0</asrwt>
<pdfrwt beam="1">  1        2 0.67981920E-01 0.12632029E+04</pdfrwt>
<pdfrwt beam="2">  1       -2 0.11975586E+00 0.12632029E+04</pdfrwt>
<totfact> 0.37300816E+01</totfact>
</mgrwt>
</event>
<event>
 8    1  0.7326756E-052  0.1566015E+04  0.7818608E-02  0.8841703E-01
          2   -1    0    0  501    0  0.00000000000E+00  0.00000000000E+00  0.67662905504E+03  0.67662905504E+03  0.25500000000E-02 0.  1.
         -2   -1    0    0    0  501 -0.00000000000E+00 -0.00000000000E+00 -0.90611021109E+03  0.90611021109E+03  0.25500000000E-02 0. -1.
     200001    2    1    2    0    0 -0.32599514236E+03  0.11821089611E+03 -0.46241136109E+03  0.84093597063E+03  0.61082107940E+03 0.  0.
    5000001    2    3    3    0    0  0.74251811770E+02 -0.16250859278E+03 -0.12693118200E+03  0.23948023137E+03  0.96523996880E+02 0.  0.
        -11    1    4    4    0    0  0.22288622790E+02 -0.76688048327E+02 -0.68508285233E+01  0.80154683667E+02  0.51100000000E-03 0. -1.
     200002    1    4    4    0    0  0.51963188979E+02 -0.85820544451E+02 -0.12008035347E+03  0.15932554770E+03  0.30000000000E+02 0. -1.
     200000    1    3    3    0    0 -0.40024695413E+03  0.28071948889E+03 -0.33548017909E+03  0.60145573927E+03  0.10100000000E+03 0. -1.
    -200001    1    1    2    0    0  0.32599514236E+03 -0.11821089611E+03  0.23293020504E+03  0.74180329550E+03  0.61300000000E+03 0.  1.
<mgrwt>
<rscale>  0 0.15660147E+04</rscale>
<asrwt>0</asrwt>
<pdfrwt beam="1">  1        2 0.96661295E-01 0.15660147E+04</pdfrwt>
<pdfrwt beam="2">  1       -2 0.12944431E+00 0.15660147E+04</pdfrwt>
<totfact> 0.19849533E+01</totfact>
</mgrwt>
</event>
<event>
 8    1  0.7326756E-052  0.1448035E+04  0.7818608E-02  0.8919764E-01
          2   -1    0    0  501    0  0.00000000000E+00  0.00000000000E+00  0.18824957789E+04  0.18824957789E+04  0.25500000000E-02 0.  1.
         -2   -1    0    0    0  501 -0.00000000000E+00 -0.00000000000E+00 -0.27846069600E+03  0.27846069601E+03  0.25500000000E-02 0. -1.
     200001    2    1    2    0    0 -0.48766325881E+02  0.25229834692E+03  0.12299908588E+04  0.13982568670E+04  0.61336134769E+03 0.  0.
    5000001    2    3    3    0    0 -0.19922499209E+03 -0.12533336962E+03  0.54844753405E+03  0.59829072574E+03  0.41929033941E+02 0.  0.
        -11    1    4    4    0    0 -0.44361391186E+02 -0.36727204822E+02  0.15060122185E+03  0.16123755339E+03  0.51100000000E-03 0. -1.
     200002    1    4    4    0    0 -0.15486360090E+03 -0.88606164797E+02  0.39784631220E+03  0.43705317234E+03  0.30000000000E+02 0. -1.
     200000    1    3    3    0    0  0.15045866621E+03  0.37763171654E+03  0.68154332477E+03  0.79996614123E+03  0.10100000000E+03 0.  1.
    -200001    1    1    2    0    0  0.48766325881E+02 -0.25229834692E+03  0.37404422410E+03  0.76269960796E+03  0.61300000000E+03 0. -1.
<mgrwt>
<rscale>  0 0.14480346E+04</rscale>
<asrwt>0</asrwt>
<pdfrwt beam="1">  1        2 0.26892797E+00 0.14480346E+04</pdfrwt>
<pdfrwt beam="2">  1       -2 0.39780099E-01 0.14480346E+04</pdfrwt>
<totfact> 0.53546700E+01</totfact>
</mgrwt>
</event>
<event>
 8    1  0.7326756E-052  0.1916416E+04  0.7818608E-02  0.8646728E-01
          2   -1    0    0  501    0  0.00000000000E+00  0.00000000000E+00  0.15360119184E+04  0.15360119184E+04  0.25500000000E-02 0.  1.
         -2   -1    0    0    0  501 -0.00000000000E+00 -0.00000000000E+00 -0.59775768206E+03  0.59775768207E+03  0.25500000000E-02 0. -1.
     200001    2    1    2    0    0  0.46626750323E+03  0.13071757437E+02 -0.16565691762E+03  0.78767707347E+03  0.61271257724E+03 0.  0.
    5000001    2    3    3    0    0  0.57717566304E+02 -0.10454840483E+03 -0.29897877260E+03  0.33081465375E+03  0.76081155756E+02 0.  0.
        -11    1    4    4    0    0 -0.94426074408E+01 -0.24505739872E+01 -0.59439095373E+02  0.60234327482E+02  0.51100000000E-03 0. -1.
     200002    1    4    4    0    0  0.67160173744E+02 -0.10209783084E+03 -0.23953967723E+03  0.27058032627E+03  0.30000000000E+02 0. -1.
     200000    1    3    3    0    0  0.40854993693E+03  0.11762016227E+03  0.13332185498E+03  0.45686241972E+03  0.10100000000E+03 0.  1.
    -200001    1    1    2    0    0 -0.46626750323E+03 -0.13071757437E+02  0.11039111540E+04  0.13460925270E+04  0.61300000000E+03 0.  1.
<mgrwt>
<rscale>  0 0.19164164E+04</rscale>
<asrwt>0</asrwt>
<pdfrwt beam="1">  1        2 0.21943027E+00 0.19164164E+04</pdfrwt>
<pdfrwt beam="2">  1       -2 0.85393957E-01 0.19164164E+04</pdfrwt>
<totfact> 0.15656002E+01</totfact>
</mgrwt>
</event>
<event>
 8    1  0.7326756E-052  0.1548113E+04  0.7818608E-02  0.8853074E-01
          2   -1    0    0  501    0  0.00000000000E+00  0.00000000000E+00  0.88180250301E+03  0.88180250302E+03  0.25500000000E-02 0.  1.
         -2   -1    0    0    0  501 -0.00000000000E+00 -0.00000000000E+00 -0.67947554574E+03  0.67947554574E+03  0.25500000000E-02 0. -1.
     200001    2    1    2    0    0 -0.16580559071E+03 -0.42642859041E+03  0.22439283961E+03  0.79604034727E+03  0.61155151164E+03 0.  0.
    5000001    2    3    3    0    0 -0.15093289485E+03  0.37692305033E+02  0.24025270971E+03  0.32055960303E+03  0.14434557825E+03 0.  0.
        -11    1    4    4    0    0 -0.70267271392E+02 -0.52331003097E+02  0.95388193442E+02  0.12951807118E+03  0.51100000000E-03 0. -1.
     200002    1    4    4    0    0 -0.80665623458E+02  0.90023308130E+02  0.14486451627E+03  0.19104153184E+03  0.30000000000E+02 0. -1.
     200000    1    3    3    0    0 -0.14872695857E+02 -0.46412089544E+03 -0.15859870106E+02  0.47548074424E+03  0.10100000000E+03 0. -1.
    -200001    1    1    2    0    0  0.16580559071E+03  0.42642859041E+03 -0.22065882335E+02  0.76523770149E+03  0.61300000000E+03 0.  1.
<mgrwt>
<rscale>  0 0.15481127E+04</rscale>
<asrwt>0</asrwt>
<pdfrwt beam="1">  1        2 0.12597179E+00 0.15481127E+04</pdfrwt>
<pdfrwt beam="2">  1       -2 0.97067935E-01 0.15481127E+04</pdfrwt>
<totfact> 0.28583767E+01</totfact>
</mgrwt>
</event>
<event>
 8    1  0.7326756E-052  0.1291389E+04  0.7818608E-02  0.9036422E-01
          2   -1    0    0  501    0  0.00000000000E+00  0.00000000000E+00  0.93790451487E+03  0.93790451487E+03  0.25500000000E-02 0.  1.
         -2   -1    0    0    0  501 -0.00000000000E+00 -0.00000000000E+00 -0.44452418318E+03  0.44452418319E+03  0.25500000000E-02 0. -1.
     200001    2    1    2    0    0  0.43685586365E+02 -0.72747578358E+02  0.49117836781E+02  0.62062898357E+03  0.61283532269E+03 0.  0.
    5000001    2    3    3    0    0 -0.16032692515E+03  0.72632615975E+02 -0.17646092761E+03  0.26871523745E+03  0.10044501000E+03 0.  0.
        -11    1    4    4    0    0 -0.11702822779E+03  0.61853247772E+01 -0.11306757141E+03  0.16284391314E+03  0.51100000000E-03 0. -1.
     200002    1    4    4    0    0 -0.43298697361E+02  0.66447291198E+02 -0.63393356202E+02  0.10587132431E+03  0.30000000000E+02 0.  1.
     200000    1    3    3    0    0  0.20401251152E+03 -0.14538019433E+03  0.22557876439E+03  0.35191374611E+03  0.10100000000E+03 0.  1.
    -200001    1    1    2    0    0 -0.43685586365E+02  0.72747578358E+02  0.44426249491E+03  0.76179971449E+03  0.61300000000E+03 0.  1.
<mgrwt>
<rscale>  0 0.12913888E+04</rscale>
<asrwt>0</asrwt>
<pdfrwt beam="1">  1        2 0.13398636E+00 0.12913888E+04</pdfrwt>
<pdfrwt beam="2">  1       -2 0.63503455E-01 0.12913888E+04</pdfrwt>
<totfact> 0.69248995E+01</totfact>
</mgrwt>
</event>
<event>
 8    1  0.7326756E-052  0.1434092E+04  0.7818608E-02  0.8929504E-01
         -2   -1    0    0    0  501 -0.00000000000E+00  0.00000000000E+00  0.65560046782E+03  0.65560046782E+03  0.25500000000E-02 0. -1.
          2   -1    0    0  501    0  0.00000000000E+00 -0.00000000000E+00 -0.78425053169E+03  0.78425053169E+03  0.25500000000E-02 0.  1.
     200001    2    1    2    0    0  0.89535186995E+02  0.14260754028E+03 -0.39739233190E+03  0.74967358255E+03  0.61297337191E+03 0.  0.
    5000001    2    3    3    0    0  0.19500221338E+03  0.12094252868E+03  0.72215071091E+02  0.25740863426E+03  0.91603657314E+02 0.  0.
        -11    1    4    4    0    0  0.11505305473E+03  0.27686766477E+02  0.52399408060E+02  0.12941970640E+03  0.51100000000E-03 0. -1.
     200002    1    4    4    0    0  0.79949158649E+02  0.93255762199E+02  0.19815663031E+02  0.12798892785E+03  0.30000000000E+02 0. -1.
     200000    1    3    3    0    0 -0.10546702638E+03  0.21665011608E+02 -0.46960740299E+03  0.49226494830E+03  0.10100000000E+03 0.  1.
    -200001    1    1    2    0    0 -0.89535186995E+02 -0.14260754028E+03  0.26874226803E+03  0.69017741696E+03  0.61300000000E+03 0. -1.
<mgrwt>
<rscale>  0 0.14340921E+04</rscale>
<asrwt>0</asrwt>
<pdfrwt beam="1">  1        2 0.11203579E+00 0.14340921E+04</pdfrwt>
<pdfrwt beam="2">  1       -2 0.93657210E-01 0.14340921E+04</pdfrwt>
<totfact> 0.36554889E+01</totfact>
</mgrwt>
</event>
<event>
 8    1  0.7326756E-052  0.1336782E+04  0.7818608E-02  0.9000895E-01
         -2   -1    0    0    0  501 -0.00000000000E+00  0.00000000000E+00  0.21697650793E+03  0.21697650794E+03  0.25500000000E-02 0. -1.
          2   -1    0    0  501    0  0.00000000000E+00 -0.00000000000E+00 -0.20589631003E+04  0.20589631003E+04  0.25500000000E-02 0.  1.
     200001    2    1    2    0    0  0.17075587411E+03  0.67324791601E+02 -0.12497703455E+04  0.14040570020E+04  0.61299261993E+03 0.  0.
    5000001    2    3    3    0    0  0.27962002928E+03 -0.16921727241E+03 -0.48717522963E+03  0.59192655485E+03  0.78838416537E+02 0.  0.
        -11    1    4    4    0    0  0.26542721840E+02 -0.10573090075E+02 -0.87656757281E+02  0.92195517319E+02  0.51100000000E-03 0. -1.
     200002    1    4    4    0    0  0.25307730744E+03 -0.15864418234E+03 -0.39951847235E+03  0.49973103753E+03  0.30000000000E+02 0. -1.
     200000    1    3    3    0    0 -0.10886415517E+03  0.23654206401E+03 -0.76259511589E+03  0.81213044710E+03  0.10100000000E+03 0.  1.
    -200001    1    1    2    0    0 -0.17075587411E+03 -0.67324791601E+02 -0.59221624683E+03  0.87188260627E+03  0.61300000000E+03 0. -1.
<mgrwt>
<rscale>  0 0.13367821E+04</rscale>
<asrwt>0</asrwt>
<pdfrwt beam="1">  1        2 0.29413757E+00 0.13367821E+04</pdfrwt>
<pdfrwt beam="2">  1       -2 0.30996645E-01 0.13367821E+04</pdfrwt>
<totfact> 0.70611823E+01</totfact>
</mgrwt>
</event>
