<event>
 4    1  0.2346411E-005  0.3845172E+03  0.7818608E-02  0.1049277E+00
          2   -1    0    0  501    0  0.00000000000E+00  0.00000000000E+00  0.29661113750E+03  0.29661113751E+03  0.25500000000E-02 0.  1.
         -2   -1    0    0    0  501 -0.00000000000E+00 -0.00000000000E+00 -0.12461893864E+03  0.12461893867E+03  0.25500000000E-02 0. -1.
    5000001    1    1    2    0    0 -0.25379556855E+02 -0.31166970010E+02  0.88149271198E+02  0.21149419836E+03  0.18800000000E+03 0.  0.
   -5000001    1    1    2    0    0  0.25379556855E+02  0.31166970010E+02  0.83842927662E+02  0.20973587782E+03  0.18800000000E+03 0.  0.
<mgrwt>
<rscale>  0 0.38451718E+03</rscale>
<asrwt>0</asrwt>
<pdfrwt beam="1">  1        2 0.42373020E-01 0.38451718E+03</pdfrwt>
<pdfrwt beam="2">  1       -2 0.17802705E-01 0.38451718E+03</pdfrwt>
<totfact> 0.30984904E+03</totfact>
</mgrwt>
</event>
<event>
 4    1  0.2346411E-005  0.5315987E+03  0.7818608E-02  0.1005845E+00
         -2   -1    0    0    0  501 -0.00000000000E+00  0.00000000000E+00  0.25087898571E+02  0.25087898701E+02  0.25500000000E-02 0.  1.
          2   -1    0    0  501    0  0.00000000000E+00 -0.00000000000E+00 -0.28160704205E+04  0.28160704205E+04  0.25500000000E-02 0. -1.
    5000001    1    1    2    0    0 -0.17635902808E+03 -0.19701290286E+02 -0.10653966660E+04  0.10963141446E+04  0.18800000000E+03 0.  0.
   -5000001    1    1    2    0    0  0.17635902808E+03  0.19701290286E+02 -0.17255858560E+04  0.17448441747E+04  0.18800000000E+03 0.  0.
<mgrwt>
<rscale>  0 0.53159868E+03</rscale>
<asrwt>0</asrwt>
<pdfrwt beam="1">  1        2 0.40229557E+00 0.53159868E+03</pdfrwt>
<pdfrwt beam="2">  1       -2 0.35839873E-02 0.53159868E+03</pdfrwt>
<totfact> 0.10911647E+03</totfact>
</mgrwt>
</event>
<event>
 4    1  0.2346411E-005  0.4918818E+03  0.7818608E-02  0.1015920E+00
          2   -1    0    0  501    0  0.00000000000E+00  0.00000000000E+00  0.14578714354E+04  0.14578714354E+04  0.25500000000E-02 0. -1.
         -2   -1    0    0    0  501 -0.00000000000E+00 -0.00000000000E+00 -0.41489886469E+02  0.41489886547E+02  0.25500000000E-02 0.  1.
    5000001    1    1    2    0    0 -0.14944922698E+03  0.52573543564E+02  0.72838079100E+03  0.76875329308E+03  0.18800000000E+03 0.  0.
   -5000001    1    1    2    0    0  0.14944922698E+03 -0.52573543564E+02  0.68800075791E+03  0.73060802885E+03  0.18800000000E+03 0.  0.
<mgrwt>
<rscale>  0 0.49188178E+03</rscale>
<asrwt>0</asrwt>
<pdfrwt beam="1">  1        2 0.20826731E+00 0.49188178E+03</pdfrwt>
<pdfrwt beam="2">  1       -2 0.59271276E-02 0.49188178E+03</pdfrwt>
<totfact> 0.24672670E+03</totfact>
</mgrwt>
</event>
<event>
 4    1  0.2346411E-005  0.8254448E+03  0.7818608E-02  0.9523900E-01
          2   -1    0    0  501    0  0.00000000000E+00  0.00000000000E+00  0.13332535429E+03  0.13332535431E+03  0.25500000000E-02 0.  1.
         -2   -1    0    0    0  501 -0.00000000000E+00 -0.00000000000E+00 -0.12776247544E+04  0.12776247544E+04  0.25500000000E-02 0. -1.
    5000001    1    1    2    0    0  0.16657942028E+03 -0.16812193684E+03 -0.10525330256E+04  0.10950723532E+04  0.18800000000E+03 0.  0.
   -5000001    1    1    2    0    0 -0.16657942028E+03  0.16812193684E+03 -0.91766374532E+02  0.31587775547E+03  0.18800000000E+03 0.  0.
<mgrwt>
<rscale>  0 0.82544478E+03</rscale>
<asrwt>0</asrwt>
<pdfrwt beam="1">  1        2 0.19046480E-01 0.82544478E+03</pdfrwt>
<pdfrwt beam="2">  1       -2 0.18251782E+00 0.82544478E+03</pdfrwt>
<totfact> 0.52998663E+01</totfact>
</mgrwt>
</event>
<event>
 4    1  0.2346411E-005  0.1337283E+04  0.7818608E-02  0.9000511E-01
         -2   -1    0    0    0  501 -0.00000000000E+00  0.00000000000E+00  0.16522888277E+03  0.16522888279E+03  0.25500000000E-02 0. -1.
          2   -1    0    0  501    0  0.00000000000E+00 -0.00000000000E+00 -0.27058307487E+04  0.27058307487E+04  0.25500000000E-02 0.  1.
    5000001    1    1    2    0    0  0.15872500626E+03 -0.62010650790E+03 -0.13665948109E+04  0.15207403085E+04  0.18800000000E+03 0.  0.
   -5000001    1    1    2    0    0 -0.15872500626E+03  0.62010650790E+03 -0.11740070550E+04  0.13503193230E+04  0.18800000000E+03 0.  0.
<mgrwt>
<rscale>  0 0.13372829E+04</rscale>
<asrwt>0</asrwt>
<pdfrwt beam="1">  1        2 0.38654722E+00 0.13372829E+04</pdfrwt>
<pdfrwt beam="2">  1       -2 0.23604128E-01 0.13372829E+04</pdfrwt>
<totfact> 0.53546129E+01</totfact>
</mgrwt>
</event>
<event>
 4    1  0.2346411E-005  0.8856744E+03  0.7818608E-02  0.9443668E-01
         -2   -1    0    0    0  501 -0.00000000000E+00  0.00000000000E+00  0.90902554031E+02  0.90902554067E+02  0.25500000000E-02 0. -1.
          2   -1    0    0  501    0  0.00000000000E+00 -0.00000000000E+00 -0.21573078260E+04  0.21573078260E+04  0.25500000000E-02 0.  1.
    5000001    1    1    2    0    0  0.26488598405E+03  0.12159743111E+03 -0.33428358817E+03  0.48170534264E+03  0.18800000000E+03 0.  0.
   -5000001    1    1    2    0    0 -0.26488598405E+03 -0.12159743111E+03 -0.17321216838E+04  0.17665050374E+04  0.18800000000E+03 0.  0.
<mgrwt>
<rscale>  0 0.88567441E+03</rscale>
<asrwt>0</asrwt>
<pdfrwt beam="1">  1        2 0.30818680E+00 0.88567441E+03</pdfrwt>
<pdfrwt beam="2">  1       -2 0.12986080E-01 0.88567441E+03</pdfrwt>
<totfact> 0.30103325E+02</totfact>
</mgrwt>
</event>
<event>
 4    1  0.2346411E-005  0.4430797E+03  0.7818608E-02  0.1029806E+00
          2   -1    0    0  501    0  0.00000000000E+00  0.00000000000E+00  0.15042706076E+04  0.15042706076E+04  0.25500000000E-02 0.  1.
         -2   -1    0    0    0  501 -0.00000000000E+00 -0.00000000000E+00 -0.32627046642E+02  0.32627046741E+02  0.25500000000E-02 0. -1.
    5000001    1    1    2    0    0  0.66514299973E+02  0.91609289964E+02  0.84100279530E+03  0.86916403274E+03  0.18800000000E+03 0.  0.
   -5000001    1    1    2    0    0 -0.66514299973E+02 -0.91609289964E+02  0.63064076568E+03  0.66773362162E+03  0.18800000000E+03 0.  0.
<mgrwt>
<rscale>  0 0.44307971E+03</rscale>
<asrwt>0</asrwt>
<pdfrwt beam="1">  1        2 0.21489574E+00 0.44307971E+03</pdfrwt>
<pdfrwt beam="2">  1       -2 0.46610080E-02 0.44307971E+03</pdfrwt>
<totfact> 0.33866712E+03</totfact>
</mgrwt>
</event>
<event>
 4    1  0.2346411E-005  0.1169379E+04  0.7818608E-02  0.9140089E-01
         -2   -1    0    0    0  501 -0.00000000000E+00  0.00000000000E+00  0.30813680501E+03  0.30813680502E+03  0.25500000000E-02 0. -1.
          2   -1    0    0  501    0  0.00000000000E+00 -0.00000000000E+00 -0.11094483066E+04  0.11094483066E+04  0.25500000000E-02 0.  1.
    5000001    1    1    2    0    0 -0.40573940905E+03 -0.28293448517E+03 -0.99192963022E+02  0.53838613919E+03  0.18800000000E+03 0.  0.
   -5000001    1    1    2    0    0  0.40573940905E+03  0.28293448517E+03 -0.70211853860E+03  0.87919897247E+03  0.18800000000E+03 0.  0.
<mgrwt>
<rscale>  0 0.11693791E+04</rscale>
<asrwt>0</asrwt>
<pdfrwt beam="1">  1        2 0.15849261E+00 0.11693791E+04</pdfrwt>
<pdfrwt beam="2">  1       -2 0.44019544E-01 0.11693791E+04</pdfrwt>
<totfact> 0.11663965E+02</totfact>
</mgrwt>
</event>
<event>
 4    1  0.2346411E-005  0.5557068E+03  0.7818608E-02  0.1000182E+00
          2   -1    0    0  501    0  0.00000000000E+00  0.00000000000E+00  0.57242653314E+03  0.57242653314E+03  0.25500000000E-02 0.  1.
         -2   -1    0    0    0  501 -0.00000000000E+00 -0.00000000000E+00 -0.13486886028E+03  0.13486886030E+03  0.25500000000E-02 0. -1.
    5000001    1    1    2    0    0  0.11599081491E+03 -0.15949500474E+03  0.28809584937E+03  0.39652962576E+03  0.18800000000E+03 0.  0.
   -5000001    1    1    2    0    0 -0.11599081491E+03  0.15949500474E+03  0.14946182348E+03  0.31076576768E+03  0.18800000000E+03 0.  0.
<mgrwt>
<rscale>  0 0.55570681E+03</rscale>
<asrwt>0</asrwt>
<pdfrwt beam="1">  1        2 0.81775220E-01 0.55570681E+03</pdfrwt>
<pdfrwt beam="2">  1       -2 0.19266980E-01 0.55570681E+03</pdfrwt>
<totfact> 0.13068218E+03</totfact>
</mgrwt>
</event>
<event>
 4    1  0.2346411E-005  0.6948710E+03  0.7818608E-02  0.9726044E-01
         -2   -1    0    0    0  501 -0.00000000000E+00  0.00000000000E+00  0.13083940999E+03  0.13083941001E+03  0.25500000000E-02 0. -1.
          2   -1    0    0  501    0  0.00000000000E+00 -0.00000000000E+00 -0.92259214349E+03  0.92259214349E+03  0.25500000000E-02 0.  1.
    5000001    1    1    2    0    0 -0.18703598201E+03 -0.21145843560E+03 -0.51003388967E+03  0.61251587503E+03  0.18800000000E+03 0.  0.
   -5000001    1    1    2    0    0  0.18703598201E+03  0.21145843560E+03 -0.28171884382E+03  0.44091567847E+03  0.18800000000E+03 0.  0.
<mgrwt>
<rscale>  0 0.69487096E+03</rscale>
<asrwt>0</asrwt>
<pdfrwt beam="1">  1        2 0.13179887E+00 0.69487096E+03</pdfrwt>
<pdfrwt beam="2">  1       -2 0.18691345E-01 0.69487096E+03</pdfrwt>
<totfact> 0.75790290E+02</totfact>
</mgrwt>
</event>
<event>
 4    1  0.2346411E-005  0.6717255E+03  0.7818608E-02  0.9766846E-01
         -2   -1    0    0    0  501 -0.00000000000E+00  0.00000000000E+00  0.74165742948E+03  0.74165742948E+03  0.25500000000E-02 0. -1.
          2   -1    0    0  501    0  0.00000000000E+00 -0.00000000000E+00 -0.15209688861E+03  0.15209688863E+03  0.25500000000E-02 0.  1.
    5000001    1    1    2    0    0  0.25108571019E+03 -0.35778586856E+02  0.44727401877E+03  0.54746889319E+03  0.18800000000E+03 0.  0.
   -5000001    1    1    2    0    0 -0.25108571019E+03  0.35778586856E+02  0.14228652210E+03  0.34628542492E+03  0.18800000000E+03 0.  0.
<mgrwt>
<rscale>  0 0.67172550E+03</rscale>
<asrwt>0</asrwt>
<pdfrwt beam="1">  1        2 0.21728127E-01 0.67172550E+03</pdfrwt>
<pdfrwt beam="2">  1       -2 0.10595106E+00 0.67172550E+03</pdfrwt>
<totfact> 0.18750522E+02</totfact>
</mgrwt>
</event>
<event>
 4    1  0.2346411E-005  0.9019197E+03  0.7818608E-02  0.9423185E-01
          2   -1    0    0  501    0  0.00000000000E+00  0.00000000000E+00  0.23218287516E+04  0.23218287516E+04  0.25500000000E-02 0.  1.
         -2   -1    0    0    0  501 -0.00000000000E+00 -0.00000000000E+00 -0.87588196277E+02  0.87588196314E+02  0.25500000000E-02 0. -1.
    5000001    1    1    2    0    0 -0.29825366458E+03  0.22691051909E+03  0.67349237547E+03  0.79333448931E+03  0.18800000000E+03 0.  0.
   -5000001    1    1    2    0    0  0.29825366458E+03 -0.22691051909E+03  0.15607481798E+04  0.16160824586E+04  0.18800000000E+03 0.  0.
<mgrwt>
<rscale>  0 0.90191971E+03</rscale>
<asrwt>0</asrwt>
<pdfrwt beam="1">  1        2 0.33168978E+00 0.90191971E+03</pdfrwt>
<pdfrwt beam="2">  1       -2 0.12512601E-01 0.90191971E+03</pdfrwt>
<totfact> 0.26358637E+02</totfact>
</mgrwt>
</event>
<event>
 4    1  0.2346411E-005  0.5421852E+03  0.7818608E-02  0.1003319E+00
          2   -1    0    0  501    0  0.00000000000E+00  0.00000000000E+00  0.21304982180E+04  0.21304982180E+04  0.25500000000E-02 0.  1.
         -2   -1    0    0    0  501 -0.00000000000E+00 -0.00000000000E+00 -0.34494845063E+02  0.34494845157E+02  0.25500000000E-02 0. -1.
    5000001    1    1    2    0    0  0.13093290977E+03  0.43325545451E+02  0.16002426017E+04  0.16171397323E+04  0.18800000000E+03 0.  0.
   -5000001    1    1    2    0    0 -0.13093290977E+03 -0.43325545451E+02  0.49576077127E+03  0.54785333081E+03  0.18800000000E+03 0.  0.
<mgrwt>
<rscale>  0 0.54218523E+03</rscale>
<asrwt>0</asrwt>
<pdfrwt beam="1">  1        2 0.30435696E+00 0.54218523E+03</pdfrwt>
<pdfrwt beam="2">  1       -2 0.49278339E-02 0.54218523E+03</pdfrwt>
<totfact> 0.14996466E+03</totfact>
</mgrwt>
</event>
<event>
 4    1  0.2346411E-005  0.8172243E+03  0.7818608E-02  0.9535415E-01
          2   -1    0    0  501    0  0.00000000000E+00  0.00000000000E+00  0.76370850533E+03  0.76370850534E+03  0.25500000000E-02 0.  1.
         -2   -1    0    0    0  501 -0.00000000000E+00 -0.00000000000E+00 -0.21862253755E+03  0.21862253757E+03  0.25500000000E-02 0. -1.
    5000001    1    1    2    0    0 -0.22787879588E+03 -0.24776235173E+03  0.43517311784E+03  0.58140740538E+03  0.18800000000E+03 0.  0.
   -5000001    1    1    2    0    0  0.22787879588E+03  0.24776235173E+03  0.10991284994E+03  0.40092363752E+03  0.18800000000E+03 0.  0.
<mgrwt>
<rscale>  0 0.81722431E+03</rscale>
<asrwt>0</asrwt>
<pdfrwt beam="1">  1        2 0.10910122E+00 0.81722431E+03</pdfrwt>
<pdfrwt beam="2">  1       -2 0.31231791E-01 0.81722431E+03</pdfrwt>
<totfact> 0.38458508E+02</totfact>
</mgrwt>
</event>
<event>
 4    1  0.2346411E-005  0.6367354E+03  0.7818608E-02  0.9831993E-01
         -2   -1    0    0    0  501 -0.00000000000E+00  0.00000000000E+00  0.25685179067E+03  0.25685179069E+03  0.25500000000E-02 0. -1.
          2   -1    0    0  501    0  0.00000000000E+00 -0.00000000000E+00 -0.39461667096E+03  0.39461667097E+03  0.25500000000E-02 0.  1.
    5000001    1    1    2    0    0 -0.19621325876E+03 -0.12344851483E+03 -0.18223777140E+03  0.34970528170E+03  0.18800000000E+03 0.  0.
   -5000001    1    1    2    0    0  0.19621325876E+03  0.12344851483E+03  0.44472891112E+02  0.30176317995E+03  0.18800000000E+03 0.  0.
<mgrwt>
<rscale>  0 0.63673542E+03</rscale>
<asrwt>0</asrwt>
<pdfrwt beam="1">  1        2 0.56373810E-01 0.63673542E+03</pdfrwt>
<pdfrwt beam="2">  1       -2 0.36693113E-01 0.63673542E+03</pdfrwt>
<totfact> 0.61777885E+02</totfact>
</mgrwt>
</event>
<event>
 4    1  0.2346411E-005  0.5612599E+03  0.7818608E-02  0.9989208E-01
          2   -1    0    0  501    0  0.00000000000E+00  0.00000000000E+00  0.11507595286E+04  0.11507595286E+04  0.25500000000E-02 0.  1.
         -2   -1    0    0    0  501 -0.00000000000E+00 -0.00000000000E+00 -0.68435821131E+02  0.68435821178E+02  0.25500000000E-02 0. -1.
    5000001    1    1    2    0    0  0.12196849689E+03  0.16080474480E+03  0.42881879338E+03  0.50986668624E+03  0.18800000000E+03 0.  0.
   -5000001    1    1    2    0    0 -0.12196849689E+03 -0.16080474480E+03  0.65350491410E+03  0.70932866355E+03  0.18800000000E+03 0.  0.
<mgrwt>
<rscale>  0 0.56125992E+03</rscale>
<asrwt>0</asrwt>
<pdfrwt beam="1">  1        2 0.16439423E+00 0.56125992E+03</pdfrwt>
<pdfrwt beam="2">  1       -2 0.97765452E-02 0.56125992E+03</pdfrwt>
<totfact> 0.16356098E+03</totfact>
</mgrwt>
</event>
<event>
 4    1  0.2346411E-005  0.6833903E+03  0.7818608E-02  0.9746066E-01
          2   -1    0    0  501    0  0.00000000000E+00  0.00000000000E+00  0.16803527055E+04  0.16803527055E+04  0.25500000000E-02 0.  1.
         -2   -1    0    0    0  501 -0.00000000000E+00 -0.00000000000E+00 -0.69482784202E+02  0.69482784249E+02  0.25500000000E-02 0. -1.
    5000001    1    1    2    0    0 -0.73738070125E+02  0.54122153075E+02  0.14974632695E+04  0.15119876831E+04  0.18800000000E+03 0.  0.
   -5000001    1    1    2    0    0  0.73738070125E+02 -0.54122153075E+02  0.11340665179E+03  0.23784780661E+03  0.18800000000E+03 0.  0.
<mgrwt>
<rscale>  0 0.68339033E+03</rscale>
<asrwt>0</asrwt>
<pdfrwt beam="1">  1        2 0.24005039E+00 0.68339033E+03</pdfrwt>
<pdfrwt beam="2">  1       -2 0.99261120E-02 0.68339033E+03</pdfrwt>
<totfact> 0.82909402E+02</totfact>
</mgrwt>
</event>
<event>
 4    1  0.2346411E-005  0.7042495E+03  0.7818608E-02  0.9709993E-01
          2   -1    0    0  501    0  0.00000000000E+00  0.00000000000E+00  0.14202630452E+04  0.14202630452E+04  0.25500000000E-02 0.  1.
         -2   -1    0    0    0  501 -0.00000000000E+00 -0.00000000000E+00 -0.87302014895E+02  0.87302014932E+02  0.25500000000E-02 0. -1.
    5000001    1    1    2    0    0  0.21702478463E+03  0.15561411027E+03  0.94830443662E+03  0.10029660079E+04  0.18800000000E+03 0.  0.
   -5000001    1    1    2    0    0 -0.21702478463E+03 -0.15561411027E+03  0.38465659366E+03  0.50459905223E+03  0.18800000000E+03 0.  0.
<mgrwt>
<rscale>  0 0.70424946E+03</rscale>
<asrwt>0</asrwt>
<pdfrwt beam="1">  1        2 0.20289472E+00 0.70424946E+03</pdfrwt>
<pdfrwt beam="2">  1       -2 0.12471716E-01 0.70424946E+03</pdfrwt>
<totfact> 0.77794859E+02</totfact>
</mgrwt>
</event>
<event>
 4    1  0.2346411E-005  0.5207062E+03  0.7818608E-02  0.1008511E+00
          2   -1    0    0  501    0  0.00000000000E+00  0.00000000000E+00  0.16252760453E+04  0.16252760454E+04  0.25500000000E-02 0.  1.
         -2   -1    0    0    0  501 -0.00000000000E+00 -0.00000000000E+00 -0.41705976134E+02  0.41705976212E+02  0.25500000000E-02 0. -1.
    5000001    1    1    2    0    0 -0.29099915598E+02  0.16496589666E+03  0.57993223709E+03  0.63223884076E+03  0.18800000000E+03 0.  0.
   -5000001    1    1    2    0    0  0.29099915598E+02 -0.16496589666E+03  0.10036378321E+04  0.10347431808E+04  0.18800000000E+03 0.  0.
<mgrwt>
<rscale>  0 0.52070615E+03</rscale>
<asrwt>0</asrwt>
<pdfrwt beam="1">  1        2 0.23218221E+00 0.52070615E+03</pdfrwt>
<pdfrwt beam="2">  1       -2 0.59579988E-02 0.52070615E+03</pdfrwt>
<totfact> 0.20054241E+03</totfact>
</mgrwt>
</event>
<event>
 4    1  0.2346411E-005  0.6027976E+03  0.7818608E-02  0.9899619E-01
          2   -1    0    0  501    0  0.00000000000E+00  0.00000000000E+00  0.35139069813E+02  0.35139069905E+02  0.25500000000E-02 0. -1.
         -2   -1    0    0    0  501 -0.00000000000E+00 -0.00000000000E+00 -0.25851918548E+04  0.25851918548E+04  0.25500000000E-02 0.  1.
    5000001    1    1    2    0    0  0.19596288116E+03 -0.95969506029E+02 -0.16610404390E+04  0.16858264848E+04  0.18800000000E+03 0.  0.
   -5000001    1    1    2    0    0 -0.19596288116E+03  0.95969506029E+02 -0.88901234601E+03  0.93450443992E+03  0.18800000000E+03 0.  0.
<mgrwt>
<rscale>  0 0.60279760E+03</rscale>
<asrwt>0</asrwt>
<pdfrwt beam="1">  1        2 0.50198688E-02 0.60279760E+03</pdfrwt>
<pdfrwt beam="2">  1       -2 0.36931300E+00 0.60279760E+03</pdfrwt>
<totfact> 0.20816574E+01</totfact>
</mgrwt>
</event>
<event>
 4    1  0.2346411E-005  0.5661670E+03  0.7818608E-02  0.9978197E-01
         -2   -1    0    0    0  501 -0.00000000000E+00  0.00000000000E+00  0.37115015172E+03  0.37115015173E+03  0.25500000000E-02 0. -1.
          2   -1    0    0  501    0  0.00000000000E+00 -0.00000000000E+00 -0.21591332559E+03  0.21591332561E+03  0.25500000000E-02 0.  1.
    5000001    1    1    2    0    0  0.29019542571E+02  0.20908241683E+03  0.93502848723E+02  0.29773205000E+03  0.18800000000E+03 0.  0.
   -5000001    1    1    2    0    0 -0.29019542571E+02 -0.20908241683E+03  0.61733977405E+02  0.28933142734E+03  0.18800000000E+03 0.  0.
<mgrwt>
<rscale>  0 0.56616698E+03</rscale>
<asrwt>0</asrwt>
<pdfrwt beam="1">  1        2 0.30844761E-01 0.56616698E+03</pdfrwt>
<pdfrwt beam="2">  1       -2 0.53021451E-01 0.56616698E+03</pdfrwt>
<totfact> 0.58267145E+02</totfact>
</mgrwt>
</event>
<event>
 4    1  0.2346411E-005  0.1259731E+04  0.7818608E-02  0.9062122E-01
         -2   -1    0    0    0  501 -0.00000000000E+00  0.00000000000E+00  0.31114702763E+03  0.31114702764E+03  0.25500000000E-02 0. -1.
          2   -1    0    0  501    0  0.00000000000E+00 -0.00000000000E+00 -0.12750589828E+04  0.12750589828E+04  0.25500000000E-02 0.  1.
    5000001    1    1    2    0    0  0.53761983676E+03 -0.48236806867E+02 -0.14875368247E+03  0.59062131392E+03  0.18800000000E+03 0.  0.
   -5000001    1    1    2    0    0 -0.53761983676E+03  0.48236806867E+02 -0.81515827274E+03  0.99558469656E+03  0.18800000000E+03 0.  0.
<mgrwt>
<rscale>  0 0.12597314E+04</rscale>
<asrwt>0</asrwt>
<pdfrwt beam="1">  1        2 0.18215128E+00 0.12597314E+04</pdfrwt>
<pdfrwt beam="2">  1       -2 0.44449576E-01 0.12597314E+04</pdfrwt>
<totfact> 0.91431901E+01</totfact>
</mgrwt>
</event>
<event>
 4    1  0.2346411E-005  0.5366770E+03  0.7818608E-02  0.1004626E+00
          2   -1    0    0  501    0  0.00000000000E+00  0.00000000000E+00  0.24092144826E+03  0.24092144828E+03  0.25500000000E-02 0.  1.
         -2   -1    0    0    0  501 -0.00000000000E+00 -0.00000000000E+00 -0.29887566083E+03  0.29887566084E+03  0.25500000000E-02 0. -1.
    5000001    1    1    2    0    0  0.14185531762E+03  0.10713598843E+03 -0.10052791051E+03  0.27758046031E+03  0.18800000000E+03 0.  0.
   -5000001    1    1    2    0    0 -0.14185531762E+03 -0.10713598843E+03  0.42573697941E+02  0.26221664880E+03  0.18800000000E+03 0.  0.
<mgrwt>
<rscale>  0 0.53667702E+03</rscale>
<asrwt>0</asrwt>
<pdfrwt beam="1">  1        2 0.34417350E-01 0.53667702E+03</pdfrwt>
<pdfrwt beam="2">  1       -2 0.42696523E-01 0.53667702E+03</pdfrwt>
<totfact> 0.79603548E+02</totfact>
</mgrwt>
</event>
<event>
 4    1  0.2346411E-005  0.1127956E+04  0.7818608E-02  0.9178364E-01
         -2   -1    0    0    0  501 -0.00000000000E+00  0.00000000000E+00  0.16968711292E+03  0.16968711293E+03  0.25500000000E-02 0. -1.
          2   -1    0    0  501    0  0.00000000000E+00 -0.00000000000E+00 -0.18744578653E+04  0.18744578653E+04  0.25500000000E-02 0.  1.
    5000001    1    1    2    0    0  0.34529717692E+03 -0.33600593588E+03 -0.44473980373E+03  0.68210528686E+03  0.18800000000E+03 0.  0.
   -5000001    1    1    2    0    0 -0.34529717692E+03  0.33600593588E+03 -0.12600309487E+04  0.13620396914E+04  0.18800000000E+03 0.  0.
<mgrwt>
<rscale>  0 0.11279563E+04</rscale>
<asrwt>0</asrwt>
<pdfrwt beam="1">  1        2 0.26777968E+00 0.11279563E+04</pdfrwt>
<pdfrwt beam="2">  1       -2 0.24241017E-01 0.11279563E+04</pdfrwt>
<totfact> 0.14001740E+02</totfact>
</mgrwt>
</event>
<event>
 4    1  0.2346411E-005  0.7436992E+03  0.7818608E-02  0.9645287E-01
          2   -1    0    0  501    0  0.00000000000E+00  0.00000000000E+00  0.17892997224E+04  0.17892997224E+04  0.25500000000E-02 0.  1.
         -2   -1    0    0    0  501 -0.00000000000E+00 -0.00000000000E+00 -0.77277229066E+02  0.77277229108E+02  0.25500000000E-02 0. -1.
    5000001    1    1    2    0    0 -0.79958458191E+02  0.24632726174E+03  0.13312802546E+04  0.13692047295E+04  0.18800000000E+03 0.  0.
   -5000001    1    1    2    0    0  0.79958458191E+02 -0.24632726174E+03  0.38074223877E+03  0.49737222208E+03  0.18800000000E+03 0.  0.
<mgrwt>
<rscale>  0 0.74369920E+03</rscale>
<asrwt>0</asrwt>
<pdfrwt beam="1">  1        2 0.25561427E+00 0.74369920E+03</pdfrwt>
<pdfrwt beam="2">  1       -2 0.11039603E-01 0.74369920E+03</pdfrwt>
<totfact> 0.61126736E+02</totfact>
</mgrwt>
</event>
<event>
 4    1  0.2346411E-005  0.6688819E+03  0.7818608E-02  0.9771980E-01
          2   -1    0    0  501    0  0.00000000000E+00  0.00000000000E+00  0.67392753410E+03  0.67392753411E+03  0.25500000000E-02 0.  1.
         -2   -1    0    0    0  501 -0.00000000000E+00 -0.00000000000E+00 -0.16596850694E+03  0.16596850696E+03  0.25500000000E-02 0. -1.
    5000001    1    1    2    0    0  0.65521547786E+02  0.19228493446E+03  0.48969881086E+03  0.56250821736E+03  0.18800000000E+03 0.  0.
   -5000001    1    1    2    0    0 -0.65521547786E+02 -0.19228493446E+03  0.18260216301E+02  0.27738782371E+03  0.18800000000E+03 0.  0.
<mgrwt>
<rscale>  0 0.66888189E+03</rscale>
<asrwt>0</asrwt>
<pdfrwt beam="1">  1        2 0.96275362E-01 0.66888189E+03</pdfrwt>
<pdfrwt beam="2">  1       -2 0.23709787E-01 0.66888189E+03</pdfrwt>
<totfact> 0.74633404E+02</totfact>
</mgrwt>
</event>
<event>
 4    1  0.2346411E-005  0.4519062E+03  0.7818608E-02  0.1027155E+00
          2   -1    0    0  501    0  0.00000000000E+00  0.00000000000E+00  0.63711887580E+02  0.63711887631E+02  0.25500000000E-02 0.  1.
         -2   -1    0    0    0  501 -0.00000000000E+00 -0.00000000000E+00 -0.80133884908E+03  0.80133884909E+03  0.25500000000E-02 0. -1.
    5000001    1    1    2    0    0  0.73584775957E+02 -0.10062368724E+03 -0.34378428708E+03  0.41118302704E+03  0.18800000000E+03 0.  0.
   -5000001    1    1    2    0    0 -0.73584775957E+02  0.10062368724E+03 -0.39384267442E+03  0.45386770967E+03  0.18800000000E+03 0.  0.
<mgrwt>
<rscale>  0 0.45190623E+03</rscale>
<asrwt>0</asrwt>
<pdfrwt beam="1">  1        2 0.91016987E-02 0.45190623E+03</pdfrwt>
<pdfrwt beam="2">  1       -2 0.11447697E+00 0.45190623E+03</pdfrwt>
<totfact> 0.45151358E+02</totfact>
</mgrwt>
</event>
<event>
 4    1  0.2346411E-005  0.6235200E+03  0.7818608E-02  0.9857776E-01
         -2   -1    0    0    0  501 -0.00000000000E+00  0.00000000000E+00  0.34845009223E+02  0.34845009317E+02  0.25500000000E-02 0. -1.
          2   -1    0    0  501    0  0.00000000000E+00 -0.00000000000E+00 -0.27893317905E+04  0.27893317905E+04  0.25500000000E-02 0.  1.
    5000001    1    1    2    0    0 -0.24647213426E+03 -0.30523728983E+02 -0.13181730414E+04  0.13544756838E+04  0.18800000000E+03 0.  0.
   -5000001    1    1    2    0    0  0.24647213426E+03  0.30523728983E+02 -0.14363137399E+04  0.14697011160E+04  0.18800000000E+03 0.  0.
<mgrwt>
<rscale>  0 0.62351998E+03</rscale>
<asrwt>0</asrwt>
<pdfrwt beam="1">  1        2 0.39847583E+00 0.62351998E+03</pdfrwt>
<pdfrwt beam="2">  1       -2 0.49778602E-02 0.62351998E+03</pdfrwt>
<totfact> 0.67467936E+02</totfact>
</mgrwt>
</event>
<event>
 4    1  0.2346411E-005  0.4557364E+03  0.7818608E-02  0.1026025E+00
          2   -1    0    0  501    0  0.00000000000E+00  0.00000000000E+00  0.45073106969E+02  0.45073107041E+02  0.25500000000E-02 0.  1.
         -2   -1    0    0    0  501 -0.00000000000E+00 -0.00000000000E+00 -0.11519930394E+04  0.11519930394E+04  0.25500000000E-02 0. -1.
    5000001    1    1    2    0    0  0.10324953098E+03  0.75664072886E+02 -0.59008172203E+03  0.63239699260E+03  0.18800000000E+03 0.  0.
   -5000001    1    1    2    0    0 -0.10324953098E+03 -0.75664072886E+02 -0.51683821038E+03  0.56466915383E+03  0.18800000000E+03 0.  0.
<mgrwt>
<rscale>  0 0.45573635E+03</rscale>
<asrwt>0</asrwt>
<pdfrwt beam="1">  1        2 0.64390160E-02 0.45573635E+03</pdfrwt>
<pdfrwt beam="2">  1       -2 0.16457042E+00 0.45573635E+03</pdfrwt>
<totfact> 0.28004697E+02</totfact>
</mgrwt>
</event>
<event>
 4    1  0.2346411E-005  0.6754636E+03  0.7818608E-02  0.9760138E-01
         -2   -1    0    0    0  501 -0.00000000000E+00  0.00000000000E+00  0.13596395794E+03  0.13596395797E+03  0.25500000000E-02 0. -1.
          2   -1    0    0  501    0  0.00000000000E+00 -0.00000000000E+00 -0.83891926437E+03  0.83891926437E+03  0.25500000000E-02 0.  1.
    5000001    1    1    2    0    0 -0.87364263849E+02  0.22174261872E+03 -0.56514394842E+03  0.64150914724E+03  0.18800000000E+03 0.  0.
   -5000001    1    1    2    0    0  0.87364263849E+02 -0.22174261872E+03 -0.13781135801E+03  0.33337407511E+03  0.18800000000E+03 0.  0.
<mgrwt>
<rscale>  0 0.67546364E+03</rscale>
<asrwt>0</asrwt>
<pdfrwt beam="1">  1        2 0.11984561E+00 0.67546364E+03</pdfrwt>
<pdfrwt beam="2">  1       -2 0.19423423E-01 0.67546364E+03</pdfrwt>
<totfact> 0.80514623E+02</totfact>
</mgrwt>
</event>
<event>
 4    1  0.2346411E-005  0.4699477E+03  0.7818608E-02  0.1021935E+00
         -2   -1    0    0    0  501 -0.00000000000E+00  0.00000000000E+00  0.19206414569E+02  0.19206414738E+02  0.25500000000E-02 0. -1.
          2   -1    0    0  501    0  0.00000000000E+00 -0.00000000000E+00 -0.28747011979E+04  0.28747011979E+04  0.25500000000E-02 0.  1.
    5000001    1    1    2    0    0  0.13127028385E+03  0.26047967107E+02 -0.11552408687E+04  0.11780644501E+04  0.18800000000E+03 0.  0.
   -5000001    1    1    2    0    0 -0.13127028385E+03 -0.26047967107E+02 -0.17002539146E+04  0.17158431625E+04  0.18800000000E+03 0.  0.
<mgrwt>
<rscale>  0 0.46994767E+03</rscale>
<asrwt>0</asrwt>
<pdfrwt beam="1">  1        2 0.41067133E+00 0.46994767E+03</pdfrwt>
<pdfrwt beam="2">  1       -2 0.27437754E-02 0.46994767E+03</pdfrwt>
<totfact> 0.15309844E+03</totfact>
</mgrwt>
</event>
<event>
 4    1  0.2346411E-005  0.6386574E+03  0.7818608E-02  0.9828299E-01
          2   -1    0    0  501    0  0.00000000000E+00  0.00000000000E+00  0.52804157725E+03  0.52804157726E+03  0.25500000000E-02 0.  1.
         -2   -1    0    0    0  501 -0.00000000000E+00 -0.00000000000E+00 -0.19311136519E+03  0.19311136521E+03  0.25500000000E-02 0. -1.
    5000001    1    1    2    0    0  0.52720868998E+02  0.18907911529E+03  0.35673649202E+03  0.44848113294E+03  0.18800000000E+03 0.  0.
   -5000001    1    1    2    0    0 -0.52720868998E+02 -0.18907911529E+03 -0.21806279953E+02  0.27267180953E+03  0.18800000000E+03 0.  0.
<mgrwt>
<rscale>  0 0.63865744E+03</rscale>
<asrwt>0</asrwt>
<pdfrwt beam="1">  1        2 0.75434512E-01 0.63865744E+03</pdfrwt>
<pdfrwt beam="2">  1       -2 0.27587338E-01 0.63865744E+03</pdfrwt>
<totfact> 0.75768026E+02</totfact>
</mgrwt>
</event>
<event>
 4    1  0.2346411E-005  0.4344311E+03  0.7818608E-02  0.1032469E+00
         -2   -1    0    0    0  501 -0.00000000000E+00  0.00000000000E+00  0.33098908290E+02  0.33098908388E+02  0.25500000000E-02 0. -1.
          2   -1    0    0  501    0  0.00000000000E+00 -0.00000000000E+00 -0.14255029600E+04  0.14255029600E+04  0.25500000000E-02 0.  1.
    5000001    1    1    2    0    0  0.43624994470E+02  0.86500565404E+02 -0.52990907474E+03  0.57055509414E+03  0.18800000000E+03 0.  0.
   -5000001    1    1    2    0    0 -0.43624994470E+02 -0.86500565404E+02 -0.86249497697E+03  0.88804677425E+03  0.18800000000E+03 0.  0.
<mgrwt>
<rscale>  0 0.43443108E+03</rscale>
<asrwt>0</asrwt>
<pdfrwt beam="1">  1        2 0.20364324E+00 0.43443108E+03</pdfrwt>
<pdfrwt beam="2">  1       -2 0.47284164E-02 0.43443108E+03</pdfrwt>
<totfact> 0.36393882E+03</totfact>
</mgrwt>
</event>
<event>
 4    1  0.2346411E-005  0.7985171E+03  0.7818608E-02  0.9562166E-01
         -2   -1    0    0    0  501 -0.00000000000E+00  0.00000000000E+00  0.25301882744E+03  0.25301882745E+03  0.25500000000E-02 0. -1.
          2   -1    0    0  501    0  0.00000000000E+00 -0.00000000000E+00 -0.63002186540E+03  0.63002186540E+03  0.25500000000E-02 0.  1.
    5000001    1    1    2    0    0  0.95177676809E+02  0.33412963075E+03 -0.25262172598E+03  0.46889565657E+03  0.18800000000E+03 0.  0.
   -5000001    1    1    2    0    0 -0.95177676809E+02 -0.33412963075E+03 -0.12438131197E+03  0.41414503628E+03  0.18800000000E+03 0.  0.
<mgrwt>
<rscale>  0 0.79851711E+03</rscale>
<asrwt>0</asrwt>
<pdfrwt beam="1">  1        2 0.90003123E-01 0.79851711E+03</pdfrwt>
<pdfrwt beam="2">  1       -2 0.36145547E-01 0.79851711E+03</pdfrwt>
<totfact> 0.37006093E+02</totfact>
</mgrwt>
</event>
<event>
 4    1  0.2346411E-005  0.6446600E+03  0.7818608E-02  0.9816851E-01
          2   -1    0    0  501    0  0.00000000000E+00  0.00000000000E+00  0.53730417307E+03  0.53730417307E+03  0.25500000000E-02 0.  1.
         -2   -1    0    0    0  501 -0.00000000000E+00 -0.00000000000E+00 -0.19336650645E+03  0.19336650646E+03  0.25500000000E-02 0. -1.
    5000001    1    1    2    0    0 -0.12988156771E+03 -0.19850019487E+03  0.29757450937E+03  0.42445981862E+03  0.18800000000E+03 0.  0.
   -5000001    1    1    2    0    0  0.12988156771E+03  0.19850019487E+03  0.46363157253E+02  0.30621086092E+03  0.18800000000E+03 0.  0.
<mgrwt>
<rscale>  0 0.64466001E+03</rscale>
<asrwt>0</asrwt>
<pdfrwt beam="1">  1        2 0.76757740E-01 0.64466001E+03</pdfrwt>
<pdfrwt beam="2">  1       -2 0.27623786E-01 0.64466001E+03</pdfrwt>
<totfact> 0.74078000E+02</totfact>
</mgrwt>
</event>
<event>
 4    1  0.2346411E-005  0.4224269E+03  0.7818608E-02  0.1036279E+00
          2   -1    0    0  501    0  0.00000000000E+00  0.00000000000E+00  0.54890463999E+03  0.54890464000E+03  0.25500000000E-02 0.  1.
         -2   -1    0    0    0  501 -0.00000000000E+00 -0.00000000000E+00 -0.81272990839E+02  0.81272990879E+02  0.25500000000E-02 0. -1.
    5000001    1    1    2    0    0 -0.62842975154E+02 -0.64653114697E+02  0.28413751982E+03  0.35243069522E+03  0.18800000000E+03 0.  0.
   -5000001    1    1    2    0    0  0.62842975154E+02  0.64653114697E+02  0.18349412934E+03  0.27774693566E+03  0.18800000000E+03 0.  0.
<mgrwt>
<rscale>  0 0.42242690E+03</rscale>
<asrwt>0</asrwt>
<pdfrwt beam="1">  1        2 0.78414950E-01 0.42242690E+03</pdfrwt>
<pdfrwt beam="2">  1       -2 0.11610427E-01 0.42242690E+03</pdfrwt>
<totfact> 0.32006435E+03</totfact>
</mgrwt>
</event>
<event>
 4    1  0.2346411E-005  0.6573837E+03  0.7818608E-02  0.9793022E-01
         -2   -1    0    0    0  501 -0.00000000000E+00  0.00000000000E+00  0.47066879440E+02  0.47066879510E+02  0.25500000000E-02 0. -1.
          2   -1    0    0  501    0  0.00000000000E+00 -0.00000000000E+00 -0.22954217197E+04  0.22954217197E+04  0.25500000000E-02 0.  1.
    5000001    1    1    2    0    0  0.33434811949E+01  0.16619746238E+03 -0.18805950898E+04  0.18972650493E+04  0.18800000000E+03 0.  0.
   -5000001    1    1    2    0    0 -0.33434811949E+01 -0.16619746238E+03 -0.36775975043E+03  0.44522354992E+03  0.18800000000E+03 0.  0.
<mgrwt>
<rscale>  0 0.65738372E+03</rscale>
<asrwt>0</asrwt>
<pdfrwt beam="1">  1        2 0.32791732E+00 0.65738372E+03</pdfrwt>
<pdfrwt beam="2">  1       -2 0.67238414E-02 0.65738372E+03</pdfrwt>
<totfact> 0.75659480E+02</totfact>
</mgrwt>
</event>
<event>
 4    1  0.2346411E-005  0.7623882E+03  0.7818608E-02  0.9616113E-01
          2   -1    0    0  501    0  0.00000000000E+00  0.00000000000E+00  0.90394493570E+03  0.90394493570E+03  0.25500000000E-02 0. -1.
         -2   -1    0    0    0  501 -0.00000000000E+00 -0.00000000000E+00 -0.16074978447E+03  0.16074978449E+03  0.25500000000E-02 0.  1.
    5000001    1    1    2    0    0  0.29176778318E+03  0.16873863214E+02  0.15277583352E+03  0.37960192553E+03  0.18800000000E+03 0.  0.
   -5000001    1    1    2    0    0 -0.29176778318E+03 -0.16873863214E+02  0.59041931771E+03  0.68509279465E+03  0.18800000000E+03 0.  0.
<mgrwt>
<rscale>  0 0.76238823E+03</rscale>
<asrwt>0</asrwt>
<pdfrwt beam="1">  1        2 0.12913499E+00 0.76238823E+03</pdfrwt>
<pdfrwt beam="2">  1       -2 0.22964255E-01 0.76238823E+03</pdfrwt>
<totfact> 0.54154228E+02</totfact>
</mgrwt>
</event>
<event>
 4    1  0.2346411E-005  0.5271529E+03  0.7818608E-02  0.1006925E+00
         -2   -1    0    0    0  501 -0.00000000000E+00  0.00000000000E+00  0.11671184839E+04  0.11671184839E+04  0.25500000000E-02 0. -1.
          2   -1    0    0  501    0  0.00000000000E+00 -0.00000000000E+00 -0.59524840184E+02  0.59524840239E+02  0.25500000000E-02 0.  1.
    5000001    1    1    2    0    0 -0.16539461170E+03  0.73795792782E+02  0.46902069650E+03  0.53677333239E+03  0.18800000000E+03 0.  0.
   -5000001    1    1    2    0    0  0.16539461170E+03 -0.73795792782E+02  0.63857294720E+03  0.68986999175E+03  0.18800000000E+03 0.  0.
<mgrwt>
<rscale>  0 0.52715289E+03</rscale>
<asrwt>0</asrwt>
<pdfrwt beam="1">  1        2 0.85035503E-02 0.52715289E+03</pdfrwt>
<pdfrwt beam="2">  1       -2 0.16673118E+00 0.52715289E+03</pdfrwt>
<totfact> 0.18781125E+02</totfact>
</mgrwt>
</event>
<event>
 4    1  0.2346411E-005  0.5192890E+03  0.7818608E-02  0.1008863E+00
          2   -1    0    0  501    0  0.00000000000E+00  0.00000000000E+00  0.20687796340E+04  0.20687796340E+04  0.25500000000E-02 0.  1.
         -2   -1    0    0    0  501 -0.00000000000E+00 -0.00000000000E+00 -0.32586969708E+02  0.32586969807E+02  0.25500000000E-02 0. -1.
    5000001    1    1    2    0    0 -0.36185014392E+02 -0.17389694696E+03  0.92566346438E+03  0.96111724192E+03  0.18800000000E+03 0.  0.
   -5000001    1    1    2    0    0  0.36185014392E+02  0.17389694696E+03  0.11105291999E+04  0.11402493619E+04  0.18800000000E+03 0.  0.
<mgrwt>
<rscale>  0 0.51928897E+03</rscale>
<asrwt>0</asrwt>
<pdfrwt beam="1">  1        2 0.29554003E+00 0.51928897E+03</pdfrwt>
<pdfrwt beam="2">  1       -2 0.46552801E-02 0.51928897E+03</pdfrwt>
<totfact> 0.17600475E+03</totfact>
</mgrwt>
</event>
<event>
 4    1  0.2346411E-005  0.6875367E+03  0.7818608E-02  0.9738787E-01
          2   -1    0    0  501    0  0.00000000000E+00  0.00000000000E+00  0.15021244880E+04  0.15021244880E+04  0.25500000000E-02 0.  1.
         -2   -1    0    0    0  501 -0.00000000000E+00 -0.00000000000E+00 -0.78673024483E+02  0.78673024525E+02  0.25500000000E-02 0. -1.
    5000001    1    1    2    0    0  0.12513960935E+03  0.20246448051E+02  0.13058095877E+04  0.13253499613E+04  0.18800000000E+03 0.  0.
   -5000001    1    1    2    0    0 -0.12513960935E+03 -0.20246448051E+02  0.11764187577E+03  0.25544755121E+03  0.18800000000E+03 0.  0.
<mgrwt>
<rscale>  0 0.68753669E+03</rscale>
<asrwt>0</asrwt>
<pdfrwt beam="1">  1        2 0.21458919E+00 0.68753669E+03</pdfrwt>
<pdfrwt beam="2">  1       -2 0.11239005E-01 0.68753669E+03</pdfrwt>
<totfact> 0.83679351E+02</totfact>
</mgrwt>
</event>
<event>
 4    1  0.2346411E-005  0.4013648E+03  0.7818608E-02  0.1043308E+00
         -2   -1    0    0    0  501 -0.00000000000E+00  0.00000000000E+00  0.82530704948E+02  0.82530704988E+02  0.25500000000E-02 0. -1.
          2   -1    0    0  501    0  0.00000000000E+00 -0.00000000000E+00 -0.48798100750E+03  0.48798100750E+03  0.25500000000E-02 0.  1.
    5000001    1    1    2    0    0  0.59532817754E+01 -0.40063219958E+02 -0.12120751999E+03  0.22732304340E+03  0.18800000000E+03 0.  0.
   -5000001    1    1    2    0    0 -0.59532817754E+01  0.40063219958E+02 -0.28424278256E+03  0.34318866909E+03  0.18800000000E+03 0.  0.
<mgrwt>
<rscale>  0 0.40136475E+03</rscale>
<asrwt>0</asrwt>
<pdfrwt beam="1">  1        2 0.69711571E-01 0.40136475E+03</pdfrwt>
<pdfrwt beam="2">  1       -2 0.11790101E-01 0.40136475E+03</pdfrwt>
<totfact> 0.35624045E+03</totfact>
</mgrwt>
</event>
<event>
 4    1  0.2346411E-005  0.5856250E+03  0.7818608E-02  0.9935687E-01
          2   -1    0    0  501    0  0.00000000000E+00  0.00000000000E+00  0.19076692725E+03  0.19076692727E+03  0.25500000000E-02 0.  1.
         -2   -1    0    0    0  501 -0.00000000000E+00 -0.00000000000E+00 -0.44944463933E+03  0.44944463934E+03  0.25500000000E-02 0. -1.
    5000001    1    1    2    0    0 -0.10925792912E+03  0.16697303613E+03 -0.24177430398E+03  0.36553536619E+03  0.18800000000E+03 0.  0.
   -5000001    1    1    2    0    0  0.10925792912E+03 -0.16697303613E+03 -0.16903408103E+02  0.27467620042E+03  0.18800000000E+03 0.  0.
<mgrwt>
<rscale>  0 0.58562504E+03</rscale>
<asrwt>0</asrwt>
<pdfrwt beam="1">  1        2 0.27252418E-01 0.58562504E+03</pdfrwt>
<pdfrwt beam="2">  1       -2 0.64206377E-01 0.58562504E+03</pdfrwt>
<totfact> 0.44892727E+02</totfact>
</mgrwt>
</event>
<event>
 4    1  0.2346411E-005  0.5550427E+03  0.7818608E-02  0.1000333E+00
          2   -1    0    0  501    0  0.00000000000E+00  0.00000000000E+00  0.81178173682E+03  0.81178173683E+03  0.25500000000E-02 0.  1.
         -2   -1    0    0    0  501 -0.00000000000E+00 -0.00000000000E+00 -0.94875381346E+02  0.94875381380E+02  0.25500000000E-02 0. -1.
    5000001    1    1    2    0    0 -0.14215833513E+03 -0.14638784623E+03  0.36821430607E+03  0.46104681862E+03  0.18800000000E+03 0.  0.
   -5000001    1    1    2    0    0  0.14215833513E+03  0.14638784623E+03  0.34869204941E+03  0.44561029958E+03  0.18800000000E+03 0.  0.
<mgrwt>
<rscale>  0 0.55504271E+03</rscale>
<asrwt>0</asrwt>
<pdfrwt beam="1">  1        2 0.11596882E+00 0.55504271E+03</pdfrwt>
<pdfrwt beam="2">  1       -2 0.13553626E-01 0.55504271E+03</pdfrwt>
<totfact> 0.15519080E+03</totfact>
</mgrwt>
</event>
<event>
 4    1  0.2346411E-005  0.5620868E+03  0.7818608E-02  0.9987344E-01
          2   -1    0    0  501    0  0.00000000000E+00  0.00000000000E+00  0.32256381870E+03  0.32256381871E+03  0.25500000000E-02 0.  1.
         -2   -1    0    0    0  501 -0.00000000000E+00 -0.00000000000E+00 -0.24486748990E+03  0.24486748991E+03  0.25500000000E-02 0. -1.
    5000001    1    1    2    0    0 -0.14928859842E+03 -0.14570048359E+03  0.27531036230E+02  0.28216604064E+03  0.18800000000E+03 0.  0.
   -5000001    1    1    2    0    0  0.14928859842E+03  0.14570048359E+03  0.50165292573E+02  0.28526526798E+03  0.18800000000E+03 0.  0.
<mgrwt>
<rscale>  0 0.56208680E+03</rscale>
<asrwt>0</asrwt>
<pdfrwt beam="1">  1        2 0.46080545E-01 0.56208680E+03</pdfrwt>
<pdfrwt beam="2">  1       -2 0.34981070E-01 0.56208680E+03</pdfrwt>
<totfact> 0.84652103E+02</totfact>
</mgrwt>
</event>
<event>
 4    1  0.2346411E-005  0.6535024E+03  0.7818608E-02  0.9800229E-01
          2   -1    0    0  501    0  0.00000000000E+00  0.00000000000E+00  0.42633801282E+03  0.42633801283E+03  0.25500000000E-02 0.  1.
         -2   -1    0    0    0  501 -0.00000000000E+00 -0.00000000000E+00 -0.25042651380E+03  0.25042651382E+03  0.25500000000E-02 0. -1.
    5000001    1    1    2    0    0 -0.99169836078E+01 -0.26128236200E+03  0.14520017321E+03  0.35326181446E+03  0.18800000000E+03 0.  0.
   -5000001    1    1    2    0    0  0.99169836078E+01  0.26128236200E+03  0.30711325809E+02  0.32350271218E+03  0.18800000000E+03 0.  0.
<mgrwt>
<rscale>  0 0.65350239E+03</rscale>
<asrwt>0</asrwt>
<pdfrwt beam="1">  1        2 0.60905431E-01 0.65350239E+03</pdfrwt>
<pdfrwt beam="2">  1       -2 0.35775216E-01 0.65350239E+03</pdfrwt>
<totfact> 0.59460822E+02</totfact>
</mgrwt>
</event>
<event>
 4    1  0.2346411E-005  0.5199309E+03  0.7818608E-02  0.1008704E+00
         -2   -1    0    0    0  501 -0.00000000000E+00  0.00000000000E+00  0.17443984574E+04  0.17443984574E+04  0.25500000000E-02 0. -1.
          2   -1    0    0  501    0  0.00000000000E+00 -0.00000000000E+00 -0.38742312323E+02  0.38742312407E+02  0.25500000000E-02 0.  1.
    5000001    1    1    2    0    0 -0.94167091647E+01  0.17432550033E+03  0.70895042664E+03  0.75394480031E+03  0.18800000000E+03 0.  0.
   -5000001    1    1    2    0    0  0.94167091647E+01 -0.17432550033E+03  0.99670571846E+03  0.10291959695E+04  0.18800000000E+03 0.  0.
<mgrwt>
<rscale>  0 0.51993088E+03</rscale>
<asrwt>0</asrwt>
<pdfrwt beam="1">  1        2 0.55346143E-02 0.51993088E+03</pdfrwt>
<pdfrwt beam="2">  1       -2 0.24919986E+00 0.51993088E+03</pdfrwt>
<totfact> 0.97870153E+01</totfact>
</mgrwt>
</event>
<event>
 4    1  0.2346411E-005  0.3904647E+03  0.7818608E-02  0.1047132E+00
         -2   -1    0    0    0  501 -0.00000000000E+00  0.00000000000E+00  0.33291871811E+02  0.33291871908E+02  0.25500000000E-02 0. -1.
          2   -1    0    0  501    0  0.00000000000E+00 -0.00000000000E+00 -0.11448938998E+04  0.11448938998E+04  0.25500000000E-02 0.  1.
    5000001    1    1    2    0    0  0.43304712241E+02  0.56101837830E+01 -0.64453953227E+03  0.67281645411E+03  0.18800000000E+03 0.  0.
   -5000001    1    1    2    0    0 -0.43304712241E+02 -0.56101837830E+01 -0.46706249573E+03  0.50536931761E+03  0.18800000000E+03 0.  0.
<mgrwt>
<rscale>  0 0.39046465E+03</rscale>
<asrwt>0</asrwt>
<pdfrwt beam="1">  1        2 0.16355625E+00 0.39046465E+03</pdfrwt>
<pdfrwt beam="2">  1       -2 0.47559824E-02 0.39046465E+03</pdfrwt>
<totfact> 0.51076467E+03</totfact>
</mgrwt>
</event>
<event>
 4    1  0.2346411E-005  0.5163012E+03  0.7818608E-02  0.1009610E+00
          2   -1    0    0  501    0  0.00000000000E+00  0.00000000000E+00  0.10788467336E+04  0.10788467336E+04  0.25500000000E-02 0.  1.
         -2   -1    0    0    0  501 -0.00000000000E+00 -0.00000000000E+00 -0.61771262773E+02  0.61771262826E+02  0.25500000000E-02 0. -1.
    5000001    1    1    2    0    0  0.11244050688E+03 -0.13563317425E+03  0.54405724929E+03  0.60198132533E+03  0.18800000000E+03 0.  0.
   -5000001    1    1    2    0    0 -0.11244050688E+03  0.13563317425E+03  0.47301822153E+03  0.53863667109E+03  0.18800000000E+03 0.  0.
<mgrwt>
<rscale>  0 0.51630117E+03</rscale>
<asrwt>0</asrwt>
<pdfrwt beam="1">  1        2 0.15412097E+00 0.51630117E+03</pdfrwt>
<pdfrwt beam="2">  1       -2 0.88244658E-02 0.51630117E+03</pdfrwt>
<totfact> 0.21228269E+03</totfact>
</mgrwt>
</event>
<event>
 4    1  0.2346411E-005  0.5997742E+03  0.7818608E-02  0.9905875E-01
         -2   -1    0    0    0  501 -0.00000000000E+00  0.00000000000E+00  0.63595534879E+02  0.63595534930E+02  0.25500000000E-02 0. -1.
          2   -1    0    0  501    0  0.00000000000E+00 -0.00000000000E+00 -0.14141285353E+04  0.14141285353E+04  0.25500000000E-02 0.  1.
    5000001    1    1    2    0    0  0.16760487448E+02  0.23302498840E+03 -0.68164459093E+03  0.74469114907E+03  0.18800000000E+03 0.  0.
   -5000001    1    1    2    0    0 -0.16760487448E+02 -0.23302498840E+03 -0.66888840948E+03  0.73303292115E+03  0.18800000000E+03 0.  0.
<mgrwt>
<rscale>  0 0.59977416E+03</rscale>
<asrwt>0</asrwt>
<pdfrwt beam="1">  1        2 0.20201834E+00 0.59977416E+03</pdfrwt>
<pdfrwt beam="2">  1       -2 0.90850773E-02 0.59977416E+03</pdfrwt>
<totfact> 0.13199494E+03</totfact>
</mgrwt>
</event>
<event>
 4    1  0.2346411E-005  0.6557677E+03  0.7818608E-02  0.9796016E-01
          2   -1    0    0  501    0  0.00000000000E+00  0.00000000000E+00  0.13409219821E+03  0.13409219824E+03  0.25500000000E-02 0.  1.
         -2   -1    0    0    0  501 -0.00000000000E+00 -0.00000000000E+00 -0.80174562343E+03  0.80174562343E+03  0.25500000000E-02 0. -1.
    5000001    1    1    2    0    0  0.16641226070E+03 -0.19810674204E+03 -0.23067572744E+03  0.39432805250E+03  0.18800000000E+03 0.  0.
   -5000001    1    1    2    0    0 -0.16641226070E+03  0.19810674204E+03 -0.43697769777E+03  0.54150976917E+03  0.18800000000E+03 0.  0.
<mgrwt>
<rscale>  0 0.65576774E+03</rscale>
<asrwt>0</asrwt>
<pdfrwt beam="1">  1        2 0.19156029E-01 0.65576774E+03</pdfrwt>
<pdfrwt beam="2">  1       -2 0.11453509E+00 0.65576774E+03</pdfrwt>
<totfact> 0.18014591E+02</totfact>
</mgrwt>
</event>
<event>
 4    1  0.2346411E-005  0.3982567E+03  0.7818608E-02  0.1044385E+00
         -2   -1    0    0    0  501 -0.00000000000E+00  0.00000000000E+00  0.31655541280E+02  0.31655541383E+02  0.25500000000E-02 0. -1.
          2   -1    0    0  501    0  0.00000000000E+00 -0.00000000000E+00 -0.12526115025E+04  0.12526115025E+04  0.25500000000E-02 0.  1.
    5000001    1    1    2    0    0 -0.14622778786E+02 -0.55282566569E+02 -0.71437746892E+03  0.74091103105E+03  0.18800000000E+03 0.  0.
   -5000001    1    1    2    0    0  0.14622778786E+02  0.55282566569E+02 -0.50657849227E+03  0.54335601281E+03  0.18800000000E+03 0.  0.
<mgrwt>
<rscale>  0 0.39825668E+03</rscale>
<asrwt>0</asrwt>
<pdfrwt beam="1">  1        2 0.17894447E+00 0.39825668E+03</pdfrwt>
<pdfrwt beam="2">  1       -2 0.45222210E-02 0.39825668E+03</pdfrwt>
<totfact> 0.48125155E+03</totfact>
</mgrwt>
</event>
<event>
 4    1  0.2346411E-005  0.4875105E+03  0.7818608E-02  0.1017091E+00
          2   -1    0    0  501    0  0.00000000000E+00  0.00000000000E+00  0.11977478688E+04  0.11977478688E+04  0.25500000000E-02 0.  1.
         -2   -1    0    0    0  501 -0.00000000000E+00 -0.00000000000E+00 -0.49606960763E+02  0.49606960829E+02  0.25500000000E-02 0. -1.
    5000001    1    1    2    0    0  0.70755277308E+02 -0.13543074111E+03  0.64295567916E+03  0.68708354679E+03  0.18800000000E+03 0.  0.
   -5000001    1    1    2    0    0 -0.70755277308E+02  0.13543074111E+03  0.50518522891E+03  0.56027128287E+03  0.18800000000E+03 0.  0.
<mgrwt>
<rscale>  0 0.48751054E+03</rscale>
<asrwt>0</asrwt>
<pdfrwt beam="1">  1        2 0.17110683E+00 0.48751054E+03</pdfrwt>
<pdfrwt beam="2">  1       -2 0.70867089E-02 0.48751054E+03</pdfrwt>
<totfact> 0.25726619E+03</totfact>
</mgrwt>
</event>
<event>
 4    1  0.2346411E-005  0.4271613E+03  0.7818608E-02  0.1034760E+00
          2   -1    0    0  501    0  0.00000000000E+00  0.00000000000E+00  0.44361454235E+03  0.44361454235E+03  0.25500000000E-02 0.  1.
         -2   -1    0    0    0  501 -0.00000000000E+00 -0.00000000000E+00 -0.10282956323E+03  0.10282956326E+03  0.25500000000E-02 0. -1.
    5000001    1    1    2    0    0 -0.79420313819E+02  0.62377288658E+02  0.18141014661E+03  0.28009311609E+03  0.18800000000E+03 0.  0.
   -5000001    1    1    2    0    0  0.79420313819E+02 -0.62377288658E+02  0.15937483251E+03  0.26635098953E+03  0.18800000000E+03 0.  0.
<mgrwt>
<rscale>  0 0.42716128E+03</rscale>
<asrwt>0</asrwt>
<pdfrwt beam="1">  1        2 0.63373507E-01 0.42716128E+03</pdfrwt>
<pdfrwt beam="2">  1       -2 0.14689937E-01 0.42716128E+03</pdfrwt>
<totfact> 0.27603197E+03</totfact>
</mgrwt>
</event>
<event>
 4    1  0.2346411E-005  0.4658008E+03  0.7818608E-02  0.1023112E+00
          2   -1    0    0  501    0  0.00000000000E+00  0.00000000000E+00  0.29698857497E+03  0.29698857498E+03  0.25500000000E-02 0.  1.
         -2   -1    0    0    0  501 -0.00000000000E+00 -0.00000000000E+00 -0.18264202128E+03  0.18264202129E+03  0.25500000000E-02 0. -1.
    5000001    1    1    2    0    0 -0.56860762420E+02  0.11473867850E+03  0.56837842131E+01  0.22753992188E+03  0.18800000000E+03 0.  0.
   -5000001    1    1    2    0    0  0.56860762420E+02 -0.11473867850E+03  0.10866276949E+03  0.25209067440E+03  0.18800000000E+03 0.  0.
<mgrwt>
<rscale>  0 0.46580079E+03</rscale>
<asrwt>0</asrwt>
<pdfrwt beam="1">  1        2 0.42426939E-01 0.46580079E+03</pdfrwt>
<pdfrwt beam="2">  1       -2 0.26091718E-01 0.46580079E+03</pdfrwt>
<totfact> 0.15912136E+03</totfact>
</mgrwt>
</event>
<event>
 4    1  0.2346411E-005  0.4845870E+03  0.7818608E-02  0.1017882E+00
          2   -1    0    0  501    0  0.00000000000E+00  0.00000000000E+00  0.12491247621E+03  0.12491247623E+03  0.25500000000E-02 0.  1.
         -2   -1    0    0    0  501 -0.00000000000E+00 -0.00000000000E+00 -0.46997821639E+03  0.46997821639E+03  0.25500000000E-02 0. -1.
    5000001    1    1    2    0    0  0.10803188949E+03 -0.10624228952E+03 -0.14786313681E+03  0.28313569266E+03  0.18800000000E+03 0.  0.
   -5000001    1    1    2    0    0 -0.10803188949E+03  0.10624228952E+03 -0.19720260337E+03  0.31175499997E+03  0.18800000000E+03 0.  0.
<mgrwt>
<rscale>  0 0.48458701E+03</rscale>
<asrwt>0</asrwt>
<pdfrwt beam="1">  1        2 0.17844640E-01 0.48458701E+03</pdfrwt>
<pdfrwt beam="2">  1       -2 0.67139744E-01 0.48458701E+03</pdfrwt>
<totfact> 0.66626302E+02</totfact>
</mgrwt>
</event>
<event>
 4    1  0.2346411E-005  0.6180251E+03  0.7818608E-02  0.9868700E-01
          2   -1    0    0  501    0  0.00000000000E+00  0.00000000000E+00  0.37378047947E+04  0.37378047947E+04  0.25500000000E-02 0.  1.
         -2   -1    0    0    0  501 -0.00000000000E+00 -0.00000000000E+00 -0.25546751343E+02  0.25546751470E+02  0.25500000000E-02 0. -1.
    5000001    1    1    2    0    0  0.21310507643E+03  0.11066698624E+03  0.21596077244E+04  0.21810342682E+04  0.18800000000E+03 0.  0.
   -5000001    1    1    2    0    0 -0.21310507643E+03 -0.11066698624E+03  0.15526503189E+04  0.15823172780E+04  0.18800000000E+03 0.  0.
<mgrwt>
<rscale>  0 0.61802514E+03</rscale>
<asrwt>0</asrwt>
<pdfrwt beam="1">  1        2 0.53397212E+00 0.61802514E+03</pdfrwt>
<pdfrwt beam="2">  1       -2 0.36495359E-02 0.61802514E+03</pdfrwt>
<totfact> 0.31277518E+02</totfact>
</mgrwt>
</event>
<event>
 4    1  0.2346411E-005  0.1030026E+04  0.7818608E-02  0.9276213E-01
          2   -1    0    0  501    0  0.00000000000E+00  0.00000000000E+00  0.97436816665E+03  0.97436816666E+03  0.25500000000E-02 0.  1.
         -2   -1    0    0    0  501 -0.00000000000E+00 -0.00000000000E+00 -0.27221564336E+03  0.27221564337E+03  0.25500000000E-02 0. -1.
    5000001    1    1    2    0    0 -0.32852461766E+03 -0.34548068897E+03  0.28925977396E+03  0.58847306454E+03  0.18800000000E+03 0.  0.
   -5000001    1    1    2    0    0  0.32852461766E+03  0.34548068897E+03  0.41289274934E+03  0.65811074548E+03  0.18800000000E+03 0.  0.
<mgrwt>
<rscale>  0 0.10300257E+04</rscale>
<asrwt>0</asrwt>
<pdfrwt beam="1">  1        2 0.13919545E+00 0.10300257E+04</pdfrwt>
<pdfrwt beam="2">  1       -2 0.38887949E-01 0.10300257E+04</pdfrwt>
<totfact> 0.18122241E+02</totfact>
</mgrwt>
</event>
<event>
 4    1  0.2346411E-005  0.5522083E+03  0.7818608E-02  0.1000984E+00
          2   -1    0    0  501    0  0.00000000000E+00  0.00000000000E+00  0.10547025581E+04  0.10547025581E+04  0.25500000000E-02 0.  1.
         -2   -1    0    0    0  501 -0.00000000000E+00 -0.00000000000E+00 -0.72279629434E+02  0.72279629479E+02  0.25500000000E-02 0. -1.
    5000001    1    1    2    0    0  0.26300254845E+02 -0.14744600061E+03  0.76847984322E+03  0.80519394927E+03  0.18800000000E+03 0.  0.
   -5000001    1    1    2    0    0 -0.26300254845E+02  0.14744600061E+03  0.21394308541E+03  0.32178823828E+03  0.18800000000E+03 0.  0.
<mgrwt>
<rscale>  0 0.55220833E+03</rscale>
<asrwt>0</asrwt>
<pdfrwt beam="1">  1        2 0.15067179E+00 0.55220833E+03</pdfrwt>
<pdfrwt beam="2">  1       -2 0.10325661E-01 0.55220833E+03</pdfrwt>
<totfact> 0.17022159E+03</totfact>
</mgrwt>
</event>
<event>
 4    1  0.2346411E-005  0.4914817E+03  0.7818608E-02  0.1016027E+00
         -2   -1    0    0    0  501 -0.00000000000E+00  0.00000000000E+00  0.52288148601E+02  0.52288148663E+02  0.25500000000E-02 0.  1.
          2   -1    0    0  501    0  0.00000000000E+00 -0.00000000000E+00 -0.11549186556E+04  0.11549186556E+04  0.25500000000E-02 0. -1.
    5000001    1    1    2    0    0  0.92786859036E+02 -0.80673700264E+02 -0.79604198873E+03  0.82713027689E+03  0.18800000000E+03 0.  0.
   -5000001    1    1    2    0    0 -0.92786859036E+02  0.80673700264E+02 -0.30658851823E+03  0.38007652734E+03  0.18800000000E+03 0.  0.
<mgrwt>
<rscale>  0 0.49148167E+03</rscale>
<asrwt>0</asrwt>
<pdfrwt beam="1">  1        2 0.16498836E+00 0.49148167E+03</pdfrwt>
<pdfrwt beam="2">  1       -2 0.74697362E-02 0.49148167E+03</pdfrwt>
<totfact> 0.25023479E+03</totfact>
</mgrwt>
</event>
<event>
 4    1  0.2346411E-005  0.1019385E+04  0.7818608E-02  0.9287536E-01
          2   -1    0    0  501    0  0.00000000000E+00  0.00000000000E+00  0.22704451708E+04  0.22704451708E+04  0.25500000000E-02 0.  1.
         -2   -1    0    0    0  501 -0.00000000000E+00 -0.00000000000E+00 -0.11442084508E+03  0.11442084511E+03  0.25500000000E-02 0. -1.
    5000001    1    1    2    0    0  0.32133047979E+03  0.31895518244E+03  0.14043436949E+04  0.14874511418E+04  0.18800000000E+03 0.  0.
   -5000001    1    1    2    0    0 -0.32133047979E+03 -0.31895518244E+03  0.75168063082E+03  0.89741487418E+03  0.18800000000E+03 0.  0.
<mgrwt>
<rscale>  0 0.10193846E+04</rscale>
<asrwt>0</asrwt>
<pdfrwt beam="1">  1        2 0.32434930E+00 0.10193846E+04</pdfrwt>
<pdfrwt beam="2">  1       -2 0.16345836E-01 0.10193846E+04</pdfrwt>
<totfact> 0.17680017E+02</totfact>
</mgrwt>
</event>
<event>
 4    1  0.2346411E-005  0.9613899E+03  0.7818608E-02  0.9351936E-01
          2   -1    0    0  501    0  0.00000000000E+00  0.00000000000E+00  0.19360452144E+04  0.19360452144E+04  0.25500000000E-02 0.  1.
         -2   -1    0    0    0  501 -0.00000000000E+00 -0.00000000000E+00 -0.11935033789E+03  0.11935033792E+03  0.25500000000E-02 0. -1.
    5000001    1    1    2    0    0 -0.30096422721E+03 -0.32423340265E+03  0.89956231900E+03  0.10199329053E+04  0.18800000000E+03 0.  0.
   -5000001    1    1    2    0    0  0.30096422721E+03  0.32423340265E+03  0.91713255753E+03  0.10354626471E+04  0.18800000000E+03 0.  0.
<mgrwt>
<rscale>  0 0.96138993E+03</rscale>
<asrwt>0</asrwt>
<pdfrwt beam="1">  1        2 0.27657790E+00 0.96138993E+03</pdfrwt>
<pdfrwt beam="2">  1       -2 0.17050048E-01 0.96138993E+03</pdfrwt>
<totfact> 0.24469852E+02</totfact>
</mgrwt>
</event>
<event>
 4    1  0.2346411E-005  0.4664037E+03  0.7818608E-02  0.1022940E+00
          2   -1    0    0  501    0  0.00000000000E+00  0.00000000000E+00  0.19041304546E+03  0.19041304547E+03  0.25500000000E-02 0.  1.
         -2   -1    0    0    0  501 -0.00000000000E+00 -0.00000000000E+00 -0.28560601535E+03  0.28560601536E+03  0.25500000000E-02 0. -1.
    5000001    1    1    2    0    0  0.64115307669E+02 -0.90348837614E+02 -0.13154439695E+03  0.25479720074E+03  0.18800000000E+03 0.  0.
   -5000001    1    1    2    0    0 -0.64115307669E+02  0.90348837614E+02  0.36351427056E+02  0.22122186010E+03  0.18800000000E+03 0.  0.
<mgrwt>
<rscale>  0 0.46640374E+03</rscale>
<asrwt>0</asrwt>
<pdfrwt beam="1">  1        2 0.27201864E-01 0.46640374E+03</pdfrwt>
<pdfrwt beam="2">  1       -2 0.40800859E-01 0.46640374E+03</pdfrwt>
<totfact> 0.11310735E+03</totfact>
</mgrwt>
</event>
<event>
 4    1  0.2346411E-005  0.5590935E+03  0.7818608E-02  0.9994108E-01
          2   -1    0    0  501    0  0.00000000000E+00  0.00000000000E+00  0.29583767690E+04  0.29583767690E+04  0.25500000000E-02 0.  1.
         -2   -1    0    0    0  501 -0.00000000000E+00 -0.00000000000E+00 -0.26415294648E+02  0.26415294771E+02  0.25500000000E-02 0. -1.
    5000001    1    1    2    0    0 -0.25963944524E+02 -0.18557265615E+03  0.19341712740E+04  0.19522996323E+04  0.18800000000E+03 0.  0.
   -5000001    1    1    2    0    0  0.25963944524E+02  0.18557265615E+03  0.99779020043E+03  0.10324924315E+04  0.18800000000E+03 0.  0.
<mgrwt>
<rscale>  0 0.55909353E+03</rscale>
<asrwt>0</asrwt>
<pdfrwt beam="1">  1        2 0.42262496E+00 0.55909353E+03</pdfrwt>
<pdfrwt beam="2">  1       -2 0.37736161E-02 0.55909353E+03</pdfrwt>
<totfact> 0.84458180E+02</totfact>
</mgrwt>
</event>
<event>
 4    1  0.2346411E-005  0.5173516E+03  0.7818608E-02  0.1009347E+00
         -2   -1    0    0    0  501 -0.00000000000E+00  0.00000000000E+00  0.77582506951E+02  0.77582506993E+02  0.25500000000E-02 0. -1.
          2   -1    0    0  501    0  0.00000000000E+00 -0.00000000000E+00 -0.86247767065E+03  0.86247767066E+03  0.25500000000E-02 0.  1.
    5000001    1    1    2    0    0  0.13249540497E+03  0.80546610861E+02 -0.55008641618E+03  0.60164927834E+03  0.18800000000E+03 0.  0.
   -5000001    1    1    2    0    0 -0.13249540497E+03 -0.80546610861E+02 -0.23480874752E+03  0.33841089931E+03  0.18800000000E+03 0.  0.
<mgrwt>
<rscale>  0 0.51735164E+03</rscale>
<asrwt>0</asrwt>
<pdfrwt beam="1">  1        2 0.12321109E+00 0.51735164E+03</pdfrwt>
<pdfrwt beam="2">  1       -2 0.11083216E-01 0.51735164E+03</pdfrwt>
<totfact> 0.19986158E+03</totfact>
</mgrwt>
</event>
<event>
 4    1  0.2346411E-005  0.4353623E+03  0.7818608E-02  0.1032179E+00
          2   -1    0    0  501    0  0.00000000000E+00  0.00000000000E+00  0.54219535102E+03  0.54219535102E+03  0.25500000000E-02 0.  1.
         -2   -1    0    0    0  501 -0.00000000000E+00 -0.00000000000E+00 -0.87394836249E+02  0.87394836287E+02  0.25500000000E-02 0. -1.
    5000001    1    1    2    0    0  0.27264832458E+02  0.80250314526E+02  0.32819029222E+03  0.38760334361E+03  0.18800000000E+03 0.  0.
   -5000001    1    1    2    0    0 -0.27264832458E+02 -0.80250314526E+02  0.12661022255E+03  0.24198684370E+03  0.18800000000E+03 0.  0.
<mgrwt>
<rscale>  0 0.43536226E+03</rscale>
<asrwt>0</asrwt>
<pdfrwt beam="1">  1        2 0.77456484E-01 0.43536226E+03</pdfrwt>
<pdfrwt beam="2">  1       -2 0.12484976E-01 0.43536226E+03</pdfrwt>
<totfact> 0.28838433E+03</totfact>
</mgrwt>
</event>
<event>
 4    1  0.2346411E-005  0.4255599E+03  0.7818608E-02  0.1035272E+00
          2   -1    0    0  501    0  0.00000000000E+00  0.00000000000E+00  0.37572402284E+03  0.37572402285E+03  0.25500000000E-02 0.  1.
         -2   -1    0    0    0  501 -0.00000000000E+00 -0.00000000000E+00 -0.12050147135E+03  0.12050147137E+03  0.25500000000E-02 0. -1.
    5000001    1    1    2    0    0  0.86990783668E+02 -0.32473818114E+02  0.16980488476E+03  0.26981409191E+03  0.18800000000E+03 0.  0.
   -5000001    1    1    2    0    0 -0.86990783668E+02  0.32473818114E+02  0.85417666739E+02  0.22641140231E+03  0.18800000000E+03 0.  0.
<mgrwt>
<rscale>  0 0.42555986E+03</rscale>
<asrwt>0</asrwt>
<pdfrwt beam="1">  1        2 0.53674860E-01 0.42555986E+03</pdfrwt>
<pdfrwt beam="2">  1       -2 0.17214496E-01 0.42555986E+03</pdfrwt>
<totfact> 0.25386453E+03</totfact>
</mgrwt>
</event>
<event>
 4    1  0.2346411E-005  0.5629264E+03  0.7818608E-02  0.9985455E-01
         -2   -1    0    0    0  501 -0.00000000000E+00  0.00000000000E+00  0.32400644334E+02  0.32400644434E+02  0.25500000000E-02 0. -1.
          2   -1    0    0  501    0  0.00000000000E+00 -0.00000000000E+00 -0.24450601051E+04  0.24450601051E+04  0.25500000000E-02 0.  1.
    5000001    1    1    2    0    0 -0.25155450176E+02 -0.19526749020E+03 -0.89156057200E+03  0.93219442336E+03  0.18800000000E+03 0.  0.
   -5000001    1    1    2    0    0  0.25155450176E+02  0.19526749020E+03 -0.15210988888E+04  0.15452663262E+04  0.18800000000E+03 0.  0.
<mgrwt>
<rscale>  0 0.56292636E+03</rscale>
<asrwt>0</asrwt>
<pdfrwt beam="1">  1        2 0.34929418E+00 0.56292636E+03</pdfrwt>
<pdfrwt beam="2">  1       -2 0.46286650E-02 0.56292636E+03</pdfrwt>
<totfact> 0.11447468E+03</totfact>
</mgrwt>
</event>
<event>
 4    1  0.2346411E-005  0.9695707E+03  0.7818608E-02  0.9342564E-01
         -2   -1    0    0    0  501 -0.00000000000E+00  0.00000000000E+00  0.25935918480E+03  0.25935918481E+03  0.25500000000E-02 0. -1.
          2   -1    0    0  501    0  0.00000000000E+00 -0.00000000000E+00 -0.90614418448E+03  0.90614418448E+03  0.25500000000E-02 0.  1.
    5000001    1    1    2    0    0 -0.15481305183E+03 -0.20297289214E+03 -0.76425961678E+03  0.82740669432E+03  0.18800000000E+03 0.  0.
   -5000001    1    1    2    0    0  0.15481305183E+03  0.20297289214E+03  0.11747461711E+03  0.33809667497E+03  0.18800000000E+03 0.  0.
<mgrwt>
<rscale>  0 0.96957066E+03</rscale>
<asrwt>0</asrwt>
<pdfrwt beam="1">  1        2 0.12944917E+00 0.96957066E+03</pdfrwt>
<pdfrwt beam="2">  1       -2 0.37051312E-01 0.96957066E+03</pdfrwt>
<totfact> 0.22070972E+02</totfact>
</mgrwt>
</event>
<event>
 4    1  0.2346411E-005  0.4833211E+03  0.7818608E-02  0.1018226E+00
         -2   -1    0    0    0  501 -0.00000000000E+00  0.00000000000E+00  0.17977101284E+03  0.17977101286E+03  0.25500000000E-02 0. -1.
          2   -1    0    0  501    0  0.00000000000E+00 -0.00000000000E+00 -0.32485665554E+03  0.32485665555E+03  0.25500000000E-02 0.  1.
    5000001    1    1    2    0    0 -0.14734182900E+03  0.33490653578E+02 -0.56896483057E+02  0.24781535109E+03  0.18800000000E+03 0.  0.
   -5000001    1    1    2    0    0  0.14734182900E+03 -0.33490653578E+02 -0.88189159638E+02  0.25681231732E+03  0.18800000000E+03 0.  0.
<mgrwt>
<rscale>  0 0.48332105E+03</rscale>
<asrwt>0</asrwt>
<pdfrwt beam="1">  1        2 0.46408093E-01 0.48332105E+03</pdfrwt>
<pdfrwt beam="2">  1       -2 0.25681573E-01 0.48332105E+03</pdfrwt>
<totfact> 0.14842512E+03</totfact>
</mgrwt>
</event>
<event>
 4    1  0.2346411E-005  0.4094242E+03  0.7818608E-02  0.1040564E+00
          2   -1    0    0  501    0  0.00000000000E+00  0.00000000000E+00  0.35878100552E+03  0.35878100553E+03  0.25500000000E-02 0.  1.
         -2   -1    0    0    0  501 -0.00000000000E+00 -0.00000000000E+00 -0.11680394390E+03  0.11680394393E+03  0.25500000000E-02 0. -1.
    5000001    1    1    2    0    0 -0.61972791134E+02  0.21653632725E+02  0.65846052089E+02  0.20973604656E+03  0.18800000000E+03 0.  0.
   -5000001    1    1    2    0    0  0.61972791134E+02 -0.21653632725E+02  0.17613100953E+03  0.26584890289E+03  0.18800000000E+03 0.  0.
<mgrwt>
<rscale>  0 0.40942416E+03</rscale>
<asrwt>0</asrwt>
<pdfrwt beam="1">  1        2 0.51254429E-01 0.40942416E+03</pdfrwt>
<pdfrwt beam="2">  1       -2 0.16686278E-01 0.40942416E+03</pdfrwt>
<totfact> 0.28132524E+03</totfact>
</mgrwt>
</event>
<event>
 4    1  0.2346411E-005  0.6192679E+03  0.7818608E-02  0.9866218E-01
         -2   -1    0    0    0  501 -0.00000000000E+00  0.00000000000E+00  0.14490407426E+03  0.14490407428E+03  0.25500000000E-02 0. -1.
          2   -1    0    0  501    0  0.00000000000E+00 -0.00000000000E+00 -0.66163211620E+03  0.66163211620E+03  0.25500000000E-02 0.  1.
    5000001    1    1    2    0    0  0.23999163969E+03  0.12490092940E+02 -0.32699952646E+03  0.44724118756E+03  0.18800000000E+03 0.  0.
   -5000001    1    1    2    0    0 -0.23999163969E+03 -0.12490092940E+02 -0.18972851548E+03  0.35929500293E+03  0.18800000000E+03 0.  0.
<mgrwt>
<rscale>  0 0.61926792E+03</rscale>
<asrwt>0</asrwt>
<pdfrwt beam="1">  1        2 0.94518872E-01 0.61926792E+03</pdfrwt>
<pdfrwt beam="2">  1       -2 0.20700582E-01 0.61926792E+03</pdfrwt>
<totfact> 0.97107945E+02</totfact>
</mgrwt>
</event>
<event>
 4    1  0.2346411E-005  0.5282117E+03  0.7818608E-02  0.1006667E+00
         -2   -1    0    0    0  501 -0.00000000000E+00  0.00000000000E+00  0.17631377135E+03  0.17631377136E+03  0.25500000000E-02 0. -1.
          2   -1    0    0  501    0  0.00000000000E+00 -0.00000000000E+00 -0.39561231413E+03  0.39561231414E+03  0.25500000000E-02 0.  1.
    5000001    1    1    2    0    0 -0.82248692459E+02  0.13338159865E+03 -0.21712315126E+03  0.32717267777E+03  0.18800000000E+03 0.  0.
   -5000001    1    1    2    0    0  0.82248692459E+02 -0.13338159865E+03 -0.21753915321E+01  0.24475340773E+03  0.18800000000E+03 0.  0.
<mgrwt>
<rscale>  0 0.52821170E+03</rscale>
<asrwt>0</asrwt>
<pdfrwt beam="1">  1        2 0.56516044E-01 0.52821170E+03</pdfrwt>
<pdfrwt beam="2">  1       -2 0.25187682E-01 0.52821170E+03</pdfrwt>
<totfact> 0.12373849E+03</totfact>
</mgrwt>
</event>
<event>
 4    1  0.2346411E-005  0.9441983E+03  0.7818608E-02  0.9371958E-01
          2   -1    0    0  501    0  0.00000000000E+00  0.00000000000E+00  0.23813488074E+04  0.23813488074E+04  0.25500000000E-02 0.  1.
         -2   -1    0    0    0  501 -0.00000000000E+00 -0.00000000000E+00 -0.93593003943E+02  0.93593003978E+02  0.25500000000E-02 0. -1.
    5000001    1    1    2    0    0 -0.23233018016E+03  0.36534410845E+03  0.11673165851E+04  0.12591368631E+04  0.18800000000E+03 0.  0.
   -5000001    1    1    2    0    0  0.23233018016E+03 -0.36534410845E+03  0.11204392184E+04  0.12158049483E+04  0.18800000000E+03 0.  0.
<mgrwt>
<rscale>  0 0.94419826E+03</rscale>
<asrwt>0</asrwt>
<pdfrwt beam="1">  1        2 0.34019263E+00 0.94419826E+03</pdfrwt>
<pdfrwt beam="2">  1       -2 0.13370431E-01 0.94419826E+03</pdfrwt>
<totfact> 0.21918367E+02</totfact>
</mgrwt>
</event>
<event>
 4    1  0.2346411E-005  0.4680751E+03  0.7818608E-02  0.1022465E+00
          2   -1    0    0  501    0  0.00000000000E+00  0.00000000000E+00  0.17366766859E+04  0.17366766859E+04  0.25500000000E-02 0.  1.
         -2   -1    0    0    0  501 -0.00000000000E+00 -0.00000000000E+00 -0.31539309999E+02  0.31539310102E+02  0.25500000000E-02 0. -1.
    5000001    1    1    2    0    0 -0.67335299689E+02  0.12204123401E+03  0.84797443705E+03  0.87967764054E+03  0.18800000000E+03 0.  0.
   -5000001    1    1    2    0    0  0.67335299689E+02 -0.12204123401E+03  0.85716293881E+03  0.88853835542E+03  0.18800000000E+03 0.  0.
<mgrwt>
<rscale>  0 0.46807514E+03</rscale>
<asrwt>0</asrwt>
<pdfrwt beam="1">  1        2 0.24809681E+00 0.46807514E+03</pdfrwt>
<pdfrwt beam="2">  1       -2 0.45056132E-02 0.46807514E+03</pdfrwt>
<totfact> 0.27176508E+03</totfact>
</mgrwt>
</event>
<event>
 4    1  0.2346411E-005  0.4557624E+03  0.7818608E-02  0.1026017E+00
          2   -1    0    0  501    0  0.00000000000E+00  0.00000000000E+00  0.30318818712E+04  0.30318818712E+04  0.25500000000E-02 0.  1.
         -2   -1    0    0    0  501 -0.00000000000E+00 -0.00000000000E+00 -0.17127925173E+02  0.17127925363E+02  0.25500000000E-02 0. -1.
    5000001    1    1    2    0    0 -0.10236433580E+03  0.33608503669E+02  0.19793764634E+04  0.19912014395E+04  0.18800000000E+03 0.  0.
   -5000001    1    1    2    0    0  0.10236433580E+03 -0.33608503669E+02  0.10353774826E+04  0.10578083570E+04  0.18800000000E+03 0.  0.
<mgrwt>
<rscale>  0 0.45576242E+03</rscale>
<asrwt>0</asrwt>
<pdfrwt beam="1">  1        2 0.43312678E+00 0.45576242E+03</pdfrwt>
<pdfrwt beam="2">  1       -2 0.24468420E-02 0.45576242E+03</pdfrwt>
<totfact> 0.14998831E+03</totfact>
</mgrwt>
</event>
<event>
 4    1  0.2346411E-005  0.5505566E+03  0.7818608E-02  0.1001365E+00
          2   -1    0    0  501    0  0.00000000000E+00  0.00000000000E+00  0.16545250803E+04  0.16545250803E+04  0.25500000000E-02 0.  1.
         -2   -1    0    0    0  501 -0.00000000000E+00 -0.00000000000E+00 -0.45800538544E+02  0.45800538615E+02  0.25500000000E-02 0. -1.
    5000001    1    1    2    0    0 -0.93628093701E+02 -0.17721465482E+03  0.85443644891E+03  0.89753935793E+03  0.18800000000E+03 0.  0.
   -5000001    1    1    2    0    0  0.93628093701E+02  0.17721465482E+03  0.75428809283E+03  0.80278626097E+03  0.18800000000E+03 0.  0.
<mgrwt>
<rscale>  0 0.55055659E+03</rscale>
<asrwt>0</asrwt>
<pdfrwt beam="1">  1        2 0.23636069E+00 0.55055659E+03</pdfrwt>
<pdfrwt beam="2">  1       -2 0.65429351E-02 0.55055659E+03</pdfrwt>
<totfact> 0.16719044E+03</totfact>
</mgrwt>
</event>
<event>
 4    1  0.2346411E-005  0.4282211E+03  0.7818608E-02  0.1034423E+00
         -2   -1    0    0    0  501 -0.00000000000E+00  0.00000000000E+00  0.38233745437E+02  0.38233745522E+02  0.25500000000E-02 0. -1.
          2   -1    0    0  501    0  0.00000000000E+00 -0.00000000000E+00 -0.11990280817E+04  0.11990280817E+04  0.25500000000E-02 0.  1.
    5000001    1    1    2    0    0  0.62667806693E+02  0.80573004018E+02 -0.55454288005E+03  0.59437451896E+03  0.18800000000E+03 0.  0.
   -5000001    1    1    2    0    0 -0.62667806693E+02 -0.80573004018E+02 -0.60625145622E+03  0.64288730828E+03  0.18800000000E+03 0.  0.
<mgrwt>
<rscale>  0 0.42822113E+03</rscale>
<asrwt>0</asrwt>
<pdfrwt beam="1">  1        2 0.17128970E+00 0.42822113E+03</pdfrwt>
<pdfrwt beam="2">  1       -2 0.54619644E-02 0.42822113E+03</pdfrwt>
<totfact> 0.38541989E+03</totfact>
</mgrwt>
</event>
<event>
 4    1  0.2346411E-005  0.1005123E+04  0.7818608E-02  0.9302944E-01
          2   -1    0    0  501    0  0.00000000000E+00  0.00000000000E+00  0.31705586183E+03  0.31705586184E+03  0.25500000000E-02 0.  1.
         -2   -1    0    0    0  501 -0.00000000000E+00 -0.00000000000E+00 -0.79660453205E+03  0.79660453205E+03  0.25500000000E-02 0. -1.
    5000001    1    1    2    0    0  0.62699471395E+02  0.40657711868E+03 -0.48249102465E+03  0.66134542111E+03  0.18800000000E+03 0.  0.
   -5000001    1    1    2    0    0 -0.62699471395E+02 -0.40657711868E+03  0.29423544296E+01  0.45231497278E+03  0.18800000000E+03 0.  0.
<mgrwt>
<rscale>  0 0.10051231E+04</rscale>
<asrwt>0</asrwt>
<pdfrwt beam="1">  1        2 0.45293695E-01 0.10051231E+04</pdfrwt>
<pdfrwt beam="2">  1       -2 0.11380065E+00 0.10051231E+04</pdfrwt>
<totfact> 0.67725695E+01</totfact>
</mgrwt>
</event>
<event>
 4    1  0.2346411E-005  0.7682855E+03  0.7818608E-02  0.9607092E-01
         -2   -1    0    0    0  501 -0.00000000000E+00  0.00000000000E+00  0.10664310053E+03  0.10664310056E+03  0.25500000000E-02 0. -1.
          2   -1    0    0  501    0  0.00000000000E+00 -0.00000000000E+00 -0.13837338184E+04  0.13837338184E+04  0.25500000000E-02 0.  1.
    5000001    1    1    2    0    0  0.27016837927E+02 -0.31761309037E+03 -0.83839641914E+03  0.91643905435E+03  0.18800000000E+03 0.  0.
   -5000001    1    1    2    0    0 -0.27016837927E+02  0.31761309037E+03 -0.43869429877E+03  0.57393786465E+03  0.18800000000E+03 0.  0.
<mgrwt>
<rscale>  0 0.76828553E+03</rscale>
<asrwt>0</asrwt>
<pdfrwt beam="1">  1        2 0.19767625E+00 0.76828553E+03</pdfrwt>
<pdfrwt beam="2">  1       -2 0.15234729E-01 0.76828553E+03</pdfrwt>
<totfact> 0.58024416E+02</totfact>
</mgrwt>
</event>
<event>
 4    1  0.2346411E-005  0.6529653E+03  0.7818608E-02  0.9801231E-01
         -2   -1    0    0    0  501 -0.00000000000E+00  0.00000000000E+00  0.13916583808E+03  0.13916583810E+03  0.25500000000E-02 0. -1.
          2   -1    0    0  501    0  0.00000000000E+00 -0.00000000000E+00 -0.76592744964E+03  0.76592744964E+03  0.25500000000E-02 0.  1.
    5000001    1    1    2    0    0  0.23947700420E+03  0.10779240878E+03 -0.37954566554E+03  0.49836467688E+03  0.18800000000E+03 0.  0.
   -5000001    1    1    2    0    0 -0.23947700420E+03 -0.10779240878E+03 -0.24721594602E+03  0.40672861086E+03  0.18800000000E+03 0.  0.
<mgrwt>
<rscale>  0 0.65296535E+03</rscale>
<asrwt>0</asrwt>
<pdfrwt beam="1">  1        2 0.10941820E+00 0.65296535E+03</pdfrwt>
<pdfrwt beam="2">  1       -2 0.19880834E-01 0.65296535E+03</pdfrwt>
<totfact> 0.86944085E+02</totfact>
</mgrwt>
</event>
<event>
 4    1  0.2346411E-005  0.6996937E+03  0.7818608E-02  0.9717756E-01
          2   -1    0    0  501    0  0.00000000000E+00  0.00000000000E+00  0.72822156994E+03  0.72822156994E+03  0.25500000000E-02 0.  1.
         -2   -1    0    0    0  501 -0.00000000000E+00 -0.00000000000E+00 -0.16807085192E+03  0.16807085194E+03  0.25500000000E-02 0. -1.
    5000001    1    1    2    0    0 -0.17847501735E+03  0.14923056097E+03  0.47636118001E+02  0.30287999585E+03  0.18800000000E+03 0.  0.
   -5000001    1    1    2    0    0  0.17847501735E+03 -0.14923056097E+03  0.51251460002E+03  0.59341242604E+03  0.18800000000E+03 0.  0.
<mgrwt>
<rscale>  0 0.69969370E+03</rscale>
<asrwt>0</asrwt>
<pdfrwt beam="1">  1        2 0.10403165E+00 0.69969370E+03</pdfrwt>
<pdfrwt beam="2">  1       -2 0.24010122E-01 0.69969370E+03</pdfrwt>
<totfact> 0.66290613E+02</totfact>
</mgrwt>
</event>
<event>
 4    1  0.2346411E-005  0.1074613E+04  0.7818608E-02  0.9230295E-01
          2   -1    0    0  501    0  0.00000000000E+00  0.00000000000E+00  0.13340566251E+04  0.13340566251E+04  0.25500000000E-02 0.  1.
         -2   -1    0    0    0  501 -0.00000000000E+00 -0.00000000000E+00 -0.21640632465E+03  0.21640632466E+03  0.25500000000E-02 0. -1.
    5000001    1    1    2    0    0 -0.28103981571E+03 -0.41430498666E+03  0.48354567634E+03  0.72096631066E+03  0.18800000000E+03 0.  0.
   -5000001    1    1    2    0    0  0.28103981571E+03  0.41430498666E+03  0.63410462413E+03  0.82949663913E+03  0.18800000000E+03 0.  0.
<mgrwt>
<rscale>  0 0.10746130E+04</rscale>
<asrwt>0</asrwt>
<pdfrwt beam="1">  1        2 0.19057952E+00 0.10746130E+04</pdfrwt>
<pdfrwt beam="2">  1       -2 0.30915190E-01 0.10746130E+04</pdfrwt>
<totfact> 0.17290544E+02</totfact>
</mgrwt>
</event>
<event>
 4    1  0.2346411E-005  0.4514382E+03  0.7818608E-02  0.1027294E+00
          2   -1    0    0  501    0  0.00000000000E+00  0.00000000000E+00  0.53234477348E+03  0.53234477349E+03  0.25500000000E-02 0.  1.
         -2   -1    0    0    0  501 -0.00000000000E+00 -0.00000000000E+00 -0.95706963349E+02  0.95706963383E+02  0.25500000000E-02 0. -1.
    5000001    1    1    2    0    0 -0.11278378252E+03 -0.51384937534E+02  0.24007314884E+03  0.32914998131E+03  0.18800000000E+03 0.  0.
   -5000001    1    1    2    0    0  0.11278378252E+03  0.51384937534E+02  0.19656466129E+03  0.29890175556E+03  0.18800000000E+03 0.  0.
<mgrwt>
<rscale>  0 0.45143815E+03</rscale>
<asrwt>0</asrwt>
<pdfrwt beam="1">  1        2 0.76049253E-01 0.45143815E+03</pdfrwt>
<pdfrwt beam="2">  1       -2 0.13672423E-01 0.45143815E+03</pdfrwt>
<totfact> 0.25361982E+03</totfact>
</mgrwt>
</event>
<event>
 4    1  0.2346411E-005  0.7144900E+03  0.7818608E-02  0.9692768E-01
          2   -1    0    0  501    0  0.00000000000E+00  0.00000000000E+00  0.47131865526E+03  0.47131865527E+03  0.25500000000E-02 0.  1.
         -2   -1    0    0    0  501 -0.00000000000E+00 -0.00000000000E+00 -0.27078066422E+03  0.27078066423E+03  0.25500000000E-02 0. -1.
    5000001    1    1    2    0    0 -0.24770246578E+03 -0.13404761334E+03  0.21848591849E+03  0.40299549721E+03  0.18800000000E+03 0.  0.
   -5000001    1    1    2    0    0  0.24770246578E+03  0.13404761334E+03 -0.17947927443E+02  0.33910382229E+03  0.18800000000E+03 0.  0.
<mgrwt>
<rscale>  0 0.71448997E+03</rscale>
<asrwt>0</asrwt>
<pdfrwt beam="1">  1        2 0.67331237E-01 0.71448997E+03</pdfrwt>
<pdfrwt beam="2">  1       -2 0.38682952E-01 0.71448997E+03</pdfrwt>
<totfact> 0.45643378E+02</totfact>
</mgrwt>
</event>
<event>
 4    1  0.2346411E-005  0.4243631E+03  0.7818608E-02  0.1035656E+00
          2   -1    0    0  501    0  0.00000000000E+00  0.00000000000E+00  0.32119540820E+03  0.32119540821E+03  0.25500000000E-02 0.  1.
         -2   -1    0    0    0  501 -0.00000000000E+00 -0.00000000000E+00 -0.14016701045E+03  0.14016701048E+03  0.25500000000E-02 0. -1.
    5000001    1    1    2    0    0  0.94412950157E+02 -0.93047352884E+01  0.62234416193E+02  0.21958484878E+03  0.18800000000E+03 0.  0.
   -5000001    1    1    2    0    0 -0.94412950157E+02  0.93047352884E+01  0.11879398156E+03  0.24177756991E+03  0.18800000000E+03 0.  0.
<mgrwt>
<rscale>  0 0.42436305E+03</rscale>
<asrwt>0</asrwt>
<pdfrwt beam="1">  1        2 0.45885058E-01 0.42436305E+03</pdfrwt>
<pdfrwt beam="2">  1       -2 0.20023859E-01 0.42436305E+03</pdfrwt>
<totfact> 0.23262549E+03</totfact>
</mgrwt>
</event>
<event>
 4    1  0.2346411E-005  0.4963532E+03  0.7818608E-02  0.1014735E+00
          2   -1    0    0  501    0  0.00000000000E+00  0.00000000000E+00  0.67381712024E+03  0.67381712025E+03  0.25500000000E-02 0.  1.
         -2   -1    0    0    0  501 -0.00000000000E+00 -0.00000000000E+00 -0.91407026442E+02  0.91407026478E+02  0.25500000000E-02 0. -1.
    5000001    1    1    2    0    0  0.36150003144E+02  0.13805843775E+03  0.17297957505E+03  0.29263097639E+03  0.18800000000E+03 0.  0.
   -5000001    1    1    2    0    0 -0.36150003144E+02 -0.13805843775E+03  0.40943051875E+03  0.47259317033E+03  0.18800000000E+03 0.  0.
<mgrwt>
<rscale>  0 0.49635318E+03</rscale>
<asrwt>0</asrwt>
<pdfrwt beam="1">  1        2 0.96259592E-01 0.49635318E+03</pdfrwt>
<pdfrwt beam="2">  1       -2 0.13058146E-01 0.49635318E+03</pdfrwt>
<totfact> 0.20796976E+03</totfact>
</mgrwt>
</event>
<event>
 4    1  0.2346411E-005  0.6342736E+03  0.7818608E-02  0.9836745E-01
          2   -1    0    0  501    0  0.00000000000E+00  0.00000000000E+00  0.14663075870E+04  0.14663075870E+04  0.25500000000E-02 0.  1.
         -2   -1    0    0    0  501 -0.00000000000E+00 -0.00000000000E+00 -0.68591161640E+02  0.68591161688E+02  0.25500000000E-02 0. -1.
    5000001    1    1    2    0    0 -0.21632813208E+03 -0.11577609373E+03  0.52723443989E+03  0.61116455985E+03  0.18800000000E+03 0.  0.
   -5000001    1    1    2    0    0  0.21632813208E+03  0.11577609373E+03  0.87048198546E+03  0.92373418884E+03  0.18800000000E+03 0.  0.
<mgrwt>
<rscale>  0 0.63427357E+03</rscale>
<asrwt>0</asrwt>
<pdfrwt beam="1">  1        2 0.20947250E+00 0.63427357E+03</pdfrwt>
<pdfrwt beam="2">  1       -2 0.97987377E-02 0.63427357E+03</pdfrwt>
<totfact> 0.10951554E+03</totfact>
</mgrwt>
</event>
<event>
 4    1  0.2346411E-005  0.6249187E+03  0.7818608E-02  0.9855015E-01
          2   -1    0    0  501    0  0.00000000000E+00  0.00000000000E+00  0.41173971392E+03  0.41173971393E+03  0.25500000000E-02 0.  1.
         -2   -1    0    0    0  501 -0.00000000000E+00 -0.00000000000E+00 -0.23711788126E+03  0.23711788127E+03  0.25500000000E-02 0. -1.
    5000001    1    1    2    0    0 -0.42552000832E+02 -0.43368138032E+02  0.33864856857E+03  0.39206928108E+03  0.18800000000E+03 0.  0.
   -5000001    1    1    2    0    0  0.42552000832E+02  0.43368138032E+02 -0.16402673591E+03  0.25678831411E+03  0.18800000000E+03 0.  0.
<mgrwt>
<rscale>  0 0.62491871E+03</rscale>
<asrwt>0</asrwt>
<pdfrwt beam="1">  1        2 0.58819958E-01 0.62491871E+03</pdfrwt>
<pdfrwt beam="2">  1       -2 0.33873984E-01 0.62491871E+03</pdfrwt>
<totfact> 0.68599892E+02</totfact>
</mgrwt>
</event>
<event>
 4    1  0.2346411E-005  0.4482169E+03  0.7818608E-02  0.1028255E+00
          2   -1    0    0  501    0  0.00000000000E+00  0.00000000000E+00  0.76992287678E+03  0.76992287678E+03  0.25500000000E-02 0.  1.
         -2   -1    0    0    0  501 -0.00000000000E+00 -0.00000000000E+00 -0.65233278375E+02  0.65233278425E+02  0.25500000000E-02 0. -1.
    5000001    1    1    2    0    0  0.45047496135E+02  0.89267918966E+02  0.48254242139E+03  0.52743646699E+03  0.18800000000E+03 0.  0.
   -5000001    1    1    2    0    0 -0.45047496135E+02 -0.89267918966E+02  0.22214717701E+03  0.30771968822E+03  0.18800000000E+03 0.  0.
<mgrwt>
<rscale>  0 0.44821688E+03</rscale>
<asrwt>0</asrwt>
<pdfrwt beam="1">  1        2 0.10998898E+00 0.44821688E+03</pdfrwt>
<pdfrwt beam="2">  1       -2 0.93190401E-02 0.44821688E+03</pdfrwt>
<totfact> 0.30548878E+03</totfact>
</mgrwt>
</event>
<event>
 4    1  0.2346411E-005  0.4463540E+03  0.7818608E-02  0.1028815E+00
         -2   -1    0    0    0  501 -0.00000000000E+00  0.00000000000E+00  0.20296443925E+03  0.20296443927E+03  0.25500000000E-02 0. -1.
          2   -1    0    0  501    0  0.00000000000E+00 -0.00000000000E+00 -0.24540243234E+03  0.24540243235E+03  0.25500000000E-02 0.  1.
    5000001    1    1    2    0    0 -0.49137878445E+00 -0.11050959003E+03  0.26443437006E+02  0.21967217917E+03  0.18800000000E+03 0.  0.
   -5000001    1    1    2    0    0  0.49137878445E+00  0.11050959003E+03 -0.68881430097E+02  0.22869469245E+03  0.18800000000E+03 0.  0.
<mgrwt>
<rscale>  0 0.44635397E+03</rscale>
<asrwt>0</asrwt>
<pdfrwt beam="1">  1        2 0.35057490E-01 0.44635397E+03</pdfrwt>
<pdfrwt beam="2">  1       -2 0.28994920E-01 0.44635397E+03</pdfrwt>
<totfact> 0.16204262E+03</totfact>
</mgrwt>
</event>
<event>
 4    1  0.2346411E-005  0.5392814E+03  0.7818608E-02  0.1004006E+00
          2   -1    0    0  501    0  0.00000000000E+00  0.00000000000E+00  0.69873827600E+03  0.69873827601E+03  0.25500000000E-02 0.  1.
         -2   -1    0    0    0  501 -0.00000000000E+00 -0.00000000000E+00 -0.10405341537E+03  0.10405341540E+03  0.25500000000E-02 0. -1.
    5000001    1    1    2    0    0 -0.81201559823E+02 -0.17241208135E+03  0.24927816185E+03  0.36579122610E+03  0.18800000000E+03 0.  0.
   -5000001    1    1    2    0    0  0.81201559823E+02  0.17241208135E+03  0.34540669878E+03  0.43700046531E+03  0.18800000000E+03 0.  0.
<mgrwt>
<rscale>  0 0.53928139E+03</rscale>
<asrwt>0</asrwt>
<pdfrwt beam="1">  1        2 0.99819753E-01 0.53928139E+03</pdfrwt>
<pdfrwt beam="2">  1       -2 0.14864774E-01 0.53928139E+03</pdfrwt>
<totfact> 0.16040089E+03</totfact>
</mgrwt>
</event>
<event>
 4    1  0.2346411E-005  0.4085666E+03  0.7818608E-02  0.1040853E+00
          2   -1    0    0  501    0  0.00000000000E+00  0.00000000000E+00  0.56977213467E+03  0.56977213468E+03  0.25500000000E-02 0.  1.
         -2   -1    0    0    0  501 -0.00000000000E+00 -0.00000000000E+00 -0.73242739139E+02  0.73242739183E+02  0.25500000000E-02 0. -1.
    5000001    1    1    2    0    0 -0.56838774716E+02 -0.55138422029E+02  0.26527226799E+03  0.33464050571E+03  0.18800000000E+03 0.  0.
   -5000001    1    1    2    0    0  0.56838774716E+02  0.55138422029E+02  0.23125712754E+03  0.30837436815E+03  0.18800000000E+03 0.  0.
<mgrwt>
<rscale>  0 0.40856663E+03</rscale>
<asrwt>0</asrwt>
<pdfrwt beam="1">  1        2 0.81396019E-01 0.40856663E+03</pdfrwt>
<pdfrwt beam="2">  1       -2 0.10463249E-01 0.40856663E+03</pdfrwt>
<totfact> 0.36279064E+03</totfact>
</mgrwt>
</event>
<event>
 4    1  0.2346411E-005  0.6515700E+03  0.7818608E-02  0.9803838E-01
         -2   -1    0    0    0  501 -0.00000000000E+00  0.00000000000E+00  0.30279916130E+03  0.30279916131E+03  0.25500000000E-02 0. -1.
          2   -1    0    0  501    0  0.00000000000E+00 -0.00000000000E+00 -0.35051571068E+03  0.35051571069E+03  0.25500000000E-02 0.  1.
    5000001    1    1    2    0    0 -0.11985351465E+03 -0.22350112199E+03 -0.10453645482E+03  0.33254997654E+03  0.18800000000E+03 0.  0.
   -5000001    1    1    2    0    0  0.11985351465E+03  0.22350112199E+03  0.56819905434E+02  0.32076489546E+03  0.18800000000E+03 0.  0.
<mgrwt>
<rscale>  0 0.65156999E+03</rscale>
<asrwt>0</asrwt>
<pdfrwt beam="1">  1        2 0.50073673E-01 0.65156999E+03</pdfrwt>
<pdfrwt beam="2">  1       -2 0.43257023E-01 0.65156999E+03</pdfrwt>
<totfact> 0.51172368E+02</totfact>
</mgrwt>
</event>
<event>
 4    1  0.2346411E-005  0.6287115E+03  0.7818608E-02  0.9847566E-01
         -2   -1    0    0    0  501 -0.00000000000E+00  0.00000000000E+00  0.93655550087E+02  0.93655550121E+02  0.25500000000E-02 0. -1.
          2   -1    0    0  501    0  0.00000000000E+00 -0.00000000000E+00 -0.10551380602E+04  0.10551380602E+04  0.25500000000E-02 0.  1.
    5000001    1    1    2    0    0  0.21193996193E+03  0.64854805860E+02 -0.69963296081E+03  0.75759816074E+03  0.18800000000E+03 0.  0.
   -5000001    1    1    2    0    0 -0.21193996193E+03 -0.64854805860E+02 -0.26184954930E+03  0.39119544958E+03  0.18800000000E+03 0.  0.
<mgrwt>
<rscale>  0 0.62871149E+03</rscale>
<asrwt>0</asrwt>
<pdfrwt beam="1">  1        2 0.15073400E+00 0.62871149E+03</pdfrwt>
<pdfrwt beam="2">  1       -2 0.13379365E-01 0.62871149E+03</pdfrwt>
<totfact> 0.11097335E+03</totfact>
</mgrwt>
</event>
<event>
 4    1  0.2346411E-005  0.8049330E+03  0.7818608E-02  0.9552904E-01
         -2   -1    0    0    0  501 -0.00000000000E+00  0.00000000000E+00  0.24867904812E+03  0.24867904813E+03  0.25500000000E-02 0. -1.
          2   -1    0    0  501    0  0.00000000000E+00 -0.00000000000E+00 -0.65135881471E+03  0.65135881471E+03  0.25500000000E-02 0.  1.
    5000001    1    1    2    0    0 -0.33900035580E+03 -0.48895194152E+02 -0.30930564987E+03  0.49832315448E+03  0.18800000000E+03 0.  0.
   -5000001    1    1    2    0    0  0.33900035580E+03  0.48895194152E+02 -0.93374116717E+02  0.40171470837E+03  0.18800000000E+03 0.  0.
<mgrwt>
<rscale>  0 0.80493302E+03</rscale>
<asrwt>0</asrwt>
<pdfrwt beam="1">  1        2 0.93051259E-01 0.80493302E+03</pdfrwt>
<pdfrwt beam="2">  1       -2 0.35525578E-01 0.80493302E+03</pdfrwt>
<totfact> 0.36737472E+02</totfact>
</mgrwt>
</event>
<event>
 4    1  0.2346411E-005  0.4984874E+03  0.7818608E-02  0.1014174E+00
         -2   -1    0    0    0  501 -0.00000000000E+00  0.00000000000E+00  0.74740416654E+03  0.74740416654E+03  0.25500000000E-02 0. -1.
          2   -1    0    0  501    0  0.00000000000E+00 -0.00000000000E+00 -0.83117589391E+02  0.83117589430E+02  0.25500000000E-02 0.  1.
    5000001    1    1    2    0    0  0.51345724881E+02 -0.13210238039E+03  0.46842658798E+03  0.52426604954E+03  0.18800000000E+03 0.  0.
   -5000001    1    1    2    0    0 -0.51345724881E+02  0.13210238039E+03  0.19585998917E+03  0.30625570644E+03  0.18800000000E+03 0.  0.
<mgrwt>
<rscale>  0 0.49848744E+03</rscale>
<asrwt>0</asrwt>
<pdfrwt beam="1">  1        2 0.11873941E-01 0.49848744E+03</pdfrwt>
<pdfrwt beam="2">  1       -2 0.10677202E+00 0.49848744E+03</pdfrwt>
<totfact> 0.38199677E+02</totfact>
</mgrwt>
</event>
<event>
 4    1  0.2346411E-005  0.7414737E+03  0.7818608E-02  0.9648822E-01
          2   -1    0    0  501    0  0.00000000000E+00  0.00000000000E+00  0.47883347275E+03  0.47883347275E+03  0.25500000000E-02 0.  1.
         -2   -1    0    0    0  501 -0.00000000000E+00 -0.00000000000E+00 -0.28704306388E+03  0.28704306389E+03  0.25500000000E-02 0. -1.
    5000001    1    1    2    0    0  0.31027760979E+02  0.30238872805E+03  0.19762601153E+03  0.40841364478E+03  0.18800000000E+03 0.  0.
   -5000001    1    1    2    0    0 -0.31027760979E+02 -0.30238872805E+03 -0.58356026602E+01  0.35746289187E+03  0.18800000000E+03 0.  0.
<mgrwt>
<rscale>  0 0.74147374E+03</rscale>
<asrwt>0</asrwt>
<pdfrwt beam="1">  1        2 0.68404781E-01 0.74147374E+03</pdfrwt>
<pdfrwt beam="2">  1       -2 0.41006152E-01 0.74147374E+03</pdfrwt>
<totfact> 0.39989928E+02</totfact>
</mgrwt>
</event>
<event>
 4    1  0.2346411E-005  0.5224240E+03  0.7818608E-02  0.1008086E+00
          2   -1    0    0  501    0  0.00000000000E+00  0.00000000000E+00  0.11456425728E+03  0.11456425731E+03  0.25500000000E-02 0.  1.
         -2   -1    0    0    0  501 -0.00000000000E+00 -0.00000000000E+00 -0.59557594130E+03  0.59557594130E+03  0.25500000000E-02 0. -1.
    5000001    1    1    2    0    0 -0.64697488364E+02  0.16653894853E+03 -0.28277010798E+03  0.38369769395E+03  0.18800000000E+03 0.  0.
   -5000001    1    1    2    0    0  0.64697488364E+02 -0.16653894853E+03 -0.19824157604E+03  0.32644250466E+03  0.18800000000E+03 0.  0.
<mgrwt>
<rscale>  0 0.52242402E+03</rscale>
<asrwt>0</asrwt>
<pdfrwt beam="1">  1        2 0.16366323E-01 0.52242402E+03</pdfrwt>
<pdfrwt beam="2">  1       -2 0.85082276E-01 0.52242402E+03</pdfrwt>
<totfact> 0.43797924E+02</totfact>
</mgrwt>
</event>
<event>
 4    1  0.2346411E-005  0.9114712E+03  0.7818608E-02  0.9411354E-01
         -2   -1    0    0    0  501 -0.00000000000E+00  0.00000000000E+00  0.14580567229E+03  0.14580567231E+03  0.25500000000E-02 0. -1.
          2   -1    0    0  501    0  0.00000000000E+00 -0.00000000000E+00 -0.14244640923E+04  0.14244640923E+04  0.25500000000E-02 0.  1.
    5000001    1    1    2    0    0  0.89780288934E+02 -0.37392596522E+03 -0.90882170165E+03  0.10045805160E+04  0.18800000000E+03 0.  0.
   -5000001    1    1    2    0    0 -0.89780288934E+02  0.37392596522E+03 -0.36983671836E+03  0.56568924861E+03  0.18800000000E+03 0.  0.
<mgrwt>
<rscale>  0 0.91147122E+03</rscale>
<asrwt>0</asrwt>
<pdfrwt beam="1">  1        2 0.20349486E+00 0.91147122E+03</pdfrwt>
<pdfrwt beam="2">  1       -2 0.20829383E-01 0.91147122E+03</pdfrwt>
<totfact> 0.31913870E+02</totfact>
</mgrwt>
</event>
<event>
 4    1  0.2346411E-005  0.6760864E+03  0.7818608E-02  0.9759025E-01
          2   -1    0    0  501    0  0.00000000000E+00  0.00000000000E+00  0.13123919451E+04  0.13123919451E+04  0.25500000000E-02 0. -1.
         -2   -1    0    0    0  501 -0.00000000000E+00 -0.00000000000E+00 -0.87072472796E+02  0.87072472834E+02  0.25500000000E-02 0.  1.
    5000001    1    1    2    0    0 -0.13727207693E+03 -0.22534642737E+03  0.81232750004E+03  0.87455394502E+03  0.18800000000E+03 0.  0.
   -5000001    1    1    2    0    0  0.13727207693E+03  0.22534642737E+03  0.41299197230E+03  0.52491047296E+03  0.18800000000E+03 0.  0.
<mgrwt>
<rscale>  0 0.67608642E+03</rscale>
<asrwt>0</asrwt>
<pdfrwt beam="1">  1        2 0.18748455E+00 0.67608642E+03</pdfrwt>
<pdfrwt beam="2">  1       -2 0.12438925E-01 0.67608642E+03</pdfrwt>
<totfact> 0.89403979E+02</totfact>
</mgrwt>
</event>
<event>
 4    1  0.2346411E-005  0.1016675E+04  0.7818608E-02  0.9290443E-01
          2   -1    0    0  501    0  0.00000000000E+00  0.00000000000E+00  0.14623091599E+04  0.14623091599E+04  0.25500000000E-02 0.  1.
         -2   -1    0    0    0  501 -0.00000000000E+00 -0.00000000000E+00 -0.17671162807E+03  0.17671162809E+03  0.25500000000E-02 0. -1.
    5000001    1    1    2    0    0  0.19715664225E+03  0.71676550458E+02 -0.39375356490E+02  0.28443397857E+03  0.18800000000E+03 0.  0.
   -5000001    1    1    2    0    0 -0.19715664225E+03 -0.71676550458E+02  0.13249728883E+04  0.13545868094E+04  0.18800000000E+03 0.  0.
<mgrwt>
<rscale>  0 0.10166750E+04</rscale>
<asrwt>0</asrwt>
<pdfrwt beam="1">  1        2 0.20890129E+00 0.10166750E+04</pdfrwt>
<pdfrwt beam="2">  1       -2 0.25244521E-01 0.10166750E+04</pdfrwt>
<totfact> 0.21476425E+02</totfact>
</mgrwt>
</event>
<event>
 4    1  0.2346411E-005  0.6500434E+03  0.7818608E-02  0.9806698E-01
         -2   -1    0    0    0  501 -0.00000000000E+00  0.00000000000E+00  0.90232276544E+02  0.90232276580E+02  0.25500000000E-02 0. -1.
          2   -1    0    0  501    0  0.00000000000E+00 -0.00000000000E+00 -0.11707462439E+04  0.11707462439E+04  0.25500000000E-02 0.  1.
    5000001    1    1    2    0    0  0.19757897445E+03  0.17562290396E+03 -0.57973843503E+03  0.66432033582E+03  0.18800000000E+03 0.  0.
   -5000001    1    1    2    0    0 -0.19757897445E+03 -0.17562290396E+03 -0.50077553230E+03  0.59665818463E+03  0.18800000000E+03 0.  0.
<mgrwt>
<rscale>  0 0.65004338E+03</rscale>
<asrwt>0</asrwt>
<pdfrwt beam="1">  1        2 0.16724945E+00 0.65004338E+03</pdfrwt>
<pdfrwt beam="2">  1       -2 0.12890326E-01 0.65004338E+03</pdfrwt>
<totfact> 0.10110016E+03</totfact>
</mgrwt>
</event>
<event>
 4    1  0.2346411E-005  0.6616181E+03  0.7818608E-02  0.9785220E-01
          2   -1    0    0  501    0  0.00000000000E+00  0.00000000000E+00  0.17022710633E+04  0.17022710633E+04  0.25500000000E-02 0.  1.
         -2   -1    0    0    0  501 -0.00000000000E+00 -0.00000000000E+00 -0.64287417853E+02  0.64287417903E+02  0.25500000000E-02 0. -1.
    5000001    1    1    2    0    0  0.27139482986E+03 -0.17208243021E+02  0.85050912576E+03  0.91250263030E+03  0.18800000000E+03 0.  0.
   -5000001    1    1    2    0    0 -0.27139482986E+03  0.17208243021E+02  0.78747451967E+03  0.85405585089E+03  0.18800000000E+03 0.  0.
<mgrwt>
<rscale>  0 0.66161805E+03</rscale>
<asrwt>0</asrwt>
<pdfrwt beam="1">  1        2 0.24318155E+00 0.66161805E+03</pdfrwt>
<pdfrwt beam="2">  1       -2 0.91839179E-02 0.66161805E+03</pdfrwt>
<totfact> 0.91728697E+02</totfact>
</mgrwt>
</event>
<event>
 4    1  0.2346411E-005  0.6217947E+03  0.7818608E-02  0.9861193E-01
          2   -1    0    0  501    0  0.00000000000E+00  0.00000000000E+00  0.28547162300E+04  0.28547162300E+04  0.25500000000E-02 0.  1.
         -2   -1    0    0    0  501 -0.00000000000E+00 -0.00000000000E+00 -0.33858759063E+02  0.33858759159E+02  0.25500000000E-02 0. -1.
    5000001    1    1    2    0    0  0.11067202565E+03 -0.21424060425E+03  0.11490444625E+04  0.11890309124E+04  0.18800000000E+03 0.  0.
   -5000001    1    1    2    0    0 -0.11067202565E+03  0.21424060425E+03  0.16718130085E+04  0.16995440768E+04  0.18800000000E+03 0.  0.
<mgrwt>
<rscale>  0 0.62179466E+03</rscale>
<asrwt>0</asrwt>
<pdfrwt beam="1">  1        2 0.40781660E+00 0.62179466E+03</pdfrwt>
<pdfrwt beam="2">  1       -2 0.48369656E-02 0.62179466E+03</pdfrwt>
<totfact> 0.65125337E+02</totfact>
</mgrwt>
</event>
<event>
 4    1  0.2346411E-005  0.6210270E+03  0.7818608E-02  0.9862717E-01
          2   -1    0    0  501    0  0.00000000000E+00  0.00000000000E+00  0.17273303742E+03  0.17273303744E+03  0.25500000000E-02 0.  1.
         -2   -1    0    0    0  501 -0.00000000000E+00 -0.00000000000E+00 -0.55819456427E+03  0.55819456428E+03  0.25500000000E-02 0. -1.
    5000001    1    1    2    0    0 -0.15920455566E+03 -0.73403400395E+01 -0.41503300969E+03  0.48269697562E+03  0.18800000000E+03 0.  0.
   -5000001    1    1    2    0    0  0.15920455566E+03  0.73403400395E+01  0.29571482839E+02  0.24823062610E+03  0.18800000000E+03 0.  0.
<mgrwt>
<rscale>  0 0.62102703E+03</rscale>
<asrwt>0</asrwt>
<pdfrwt beam="1">  1        2 0.24676149E-01 0.62102703E+03</pdfrwt>
<pdfrwt beam="2">  1       -2 0.79742079E-01 0.62102703E+03</pdfrwt>
<totfact> 0.31292521E+02</totfact>
</mgrwt>
</event>
<event>
 4    1  0.2346411E-005  0.4301577E+03  0.7818608E-02  0.1033810E+00
         -2   -1    0    0    0  501 -0.00000000000E+00  0.00000000000E+00  0.27440820299E+02  0.27440820418E+02  0.25500000000E-02 0. -1.
          2   -1    0    0  501    0  0.00000000000E+00 -0.00000000000E+00 -0.16857702033E+04  0.16857702033E+04  0.25500000000E-02 0.  1.
    5000001    1    1    2    0    0  0.44006363139E+02 -0.70635954826E+02 -0.10807068322E+04  0.11000896578E+04  0.18800000000E+03 0.  0.
   -5000001    1    1    2    0    0 -0.44006363139E+02  0.70635954826E+02 -0.57762255081E+03  0.61312136589E+03  0.18800000000E+03 0.  0.
<mgrwt>
<rscale>  0 0.43015773E+03</rscale>
<asrwt>0</asrwt>
<pdfrwt beam="1">  1        2 0.24082425E+00 0.43015773E+03</pdfrwt>
<pdfrwt beam="2">  1       -2 0.39201182E-02 0.43015773E+03</pdfrwt>
<totfact> 0.35684188E+03</totfact>
</mgrwt>
</event>
<event>
 4    1  0.2346411E-005  0.7528733E+03  0.7818608E-02  0.9630853E-01
          2   -1    0    0  501    0  0.00000000000E+00  0.00000000000E+00  0.86831218978E+03  0.86831218978E+03  0.25500000000E-02 0.  1.
         -2   -1    0    0    0  501 -0.00000000000E+00 -0.00000000000E+00 -0.16319537671E+03  0.16319537673E+03  0.25500000000E-02 0. -1.
    5000001    1    1    2    0    0  0.49278456296E+02  0.29041753342E+03  0.16079496048E+03  0.38466833674E+03  0.18800000000E+03 0.  0.
   -5000001    1    1    2    0    0 -0.49278456296E+02 -0.29041753342E+03  0.54432185258E+03  0.64683922977E+03  0.18800000000E+03 0.  0.
<mgrwt>
<rscale>  0 0.75287326E+03</rscale>
<asrwt>0</asrwt>
<pdfrwt beam="1">  1        2 0.12404460E+00 0.75287326E+03</pdfrwt>
<pdfrwt beam="2">  1       -2 0.23313626E-01 0.75287326E+03</pdfrwt>
<totfact> 0.55651571E+02</totfact>
</mgrwt>
</event>
<event>
 4    1  0.2346411E-005  0.5443463E+03  0.7818608E-02  0.1002811E+00
          2   -1    0    0  501    0  0.00000000000E+00  0.00000000000E+00  0.61888580366E+03  0.61888580367E+03  0.25500000000E-02 0.  1.
         -2   -1    0    0    0  501 -0.00000000000E+00 -0.00000000000E+00 -0.11969611938E+03  0.11969611940E+03  0.25500000000E-02 0. -1.
    5000001    1    1    2    0    0 -0.24035002694E+02 -0.18142043063E+03  0.15134755639E+03  0.30288799387E+03  0.18800000000E+03 0.  0.
   -5000001    1    1    2    0    0  0.24035002694E+02  0.18142043063E+03  0.34784212790E+03  0.43569392920E+03  0.18800000000E+03 0.  0.
<mgrwt>
<rscale>  0 0.54434632E+03</rscale>
<asrwt>0</asrwt>
<pdfrwt beam="1">  1        2 0.88412258E-01 0.54434632E+03</pdfrwt>
<pdfrwt beam="2">  1       -2 0.17099446E-01 0.54434632E+03</pdfrwt>
<totfact> 0.14640066E+03</totfact>
</mgrwt>
</event>
<event>
 4    1  0.2346411E-005  0.7023418E+03  0.7818608E-02  0.9713236E-01
         -2   -1    0    0    0  501 -0.00000000000E+00  0.00000000000E+00  0.60313262178E+03  0.60313262179E+03  0.25500000000E-02 0.  1.
          2   -1    0    0  501    0  0.00000000000E+00 -0.00000000000E+00 -0.20446747746E+03  0.20446747747E+03  0.25500000000E-02 0. -1.
    5000001    1    1    2    0    0 -0.26078474111E+03  0.68005620819E+02  0.56899478174E+02  0.33348912468E+03  0.18800000000E+03 0.  0.
   -5000001    1    1    2    0    0  0.26078474111E+03 -0.68005620819E+02  0.34176566615E+03  0.47411097458E+03  0.18800000000E+03 0.  0.
<mgrwt>
<rscale>  0 0.70234181E+03</rscale>
<asrwt>0</asrwt>
<pdfrwt beam="1">  1        2 0.29209640E-01 0.70234181E+03</pdfrwt>
<pdfrwt beam="2">  1       -2 0.86161803E-01 0.70234181E+03</pdfrwt>
<totfact> 0.21634423E+02</totfact>
</mgrwt>
</event>
<event>
 4    1  0.2346411E-005  0.4893588E+03  0.7818608E-02  0.1016594E+00
          2   -1    0    0  501    0  0.00000000000E+00  0.00000000000E+00  0.14978901786E+03  0.14978901788E+03  0.25500000000E-02 0.  1.
         -2   -1    0    0    0  501 -0.00000000000E+00 -0.00000000000E+00 -0.39968226966E+03  0.39968226967E+03  0.25500000000E-02 0. -1.
    5000001    1    1    2    0    0 -0.35919770208E+02 -0.15238582023E+03 -0.12889201785E+03  0.27652996287E+03  0.18800000000E+03 0.  0.
   -5000001    1    1    2    0    0  0.35919770208E+02  0.15238582023E+03 -0.12100123396E+03  0.27294132468E+03  0.18800000000E+03 0.  0.
<mgrwt>
<rscale>  0 0.48935882E+03</rscale>
<asrwt>0</asrwt>
<pdfrwt beam="1">  1        2 0.21398431E-01 0.48935882E+03</pdfrwt>
<pdfrwt beam="2">  1       -2 0.57097467E-01 0.48935882E+03</pdfrwt>
<totfact> 0.75839072E+02</totfact>
</mgrwt>
</event>
<event>
 4    1  0.2346411E-005  0.5151082E+03  0.7818608E-02  0.1009909E+00
          2   -1    0    0  501    0  0.00000000000E+00  0.00000000000E+00  0.62376302187E+02  0.62376302239E+02  0.25500000000E-02 0.  1.
         -2   -1    0    0    0  501 -0.00000000000E+00 -0.00000000000E+00 -0.10634505607E+04  0.10634505607E+04  0.25500000000E-02 0. -1.
    5000001    1    1    2    0    0  0.75125709213E+02  0.15871235768E+03 -0.47318386876E+03  0.53859117920E+03  0.18800000000E+03 0.  0.
   -5000001    1    1    2    0    0 -0.75125709213E+02 -0.15871235768E+03 -0.52789038980E+03  0.58723568378E+03  0.18800000000E+03 0.  0.
<mgrwt>
<rscale>  0 0.51510820E+03</rscale>
<asrwt>0</asrwt>
<pdfrwt beam="1">  1        2 0.89109010E-02 0.51510820E+03</pdfrwt>
<pdfrwt beam="2">  1       -2 0.15192150E+00 0.51510820E+03</pdfrwt>
<totfact> 0.22703838E+02</totfact>
</mgrwt>
</event>
<event>
 4    1  0.2346411E-005  0.5683801E+03  0.7818608E-02  0.9973270E-01
         -2   -1    0    0    0  501 -0.00000000000E+00  0.00000000000E+00  0.45336680708E+03  0.45336680709E+03  0.25500000000E-02 0. -1.
          2   -1    0    0  501    0  0.00000000000E+00 -0.00000000000E+00 -0.17814270663E+03  0.17814270665E+03  0.25500000000E-02 0.  1.
    5000001    1    1    2    0    0  0.12508398543E+03  0.38410750967E+02  0.32451816106E+03  0.39721206686E+03  0.18800000000E+03 0.  0.
   -5000001    1    1    2    0    0 -0.12508398543E+03 -0.38410750967E+02 -0.49294060608E+02  0.23429744687E+03  0.18800000000E+03 0.  0.
<mgrwt>
<rscale>  0 0.56838012E+03</rscale>
<asrwt>0</asrwt>
<pdfrwt beam="1">  1        2 0.25448958E-01 0.56838012E+03</pdfrwt>
<pdfrwt beam="2">  1       -2 0.64766687E-01 0.56838012E+03</pdfrwt>
<totfact> 0.47647354E+02</totfact>
</mgrwt>
</event>
<event>
 4    1  0.2346411E-005  0.7000239E+03  0.7818608E-02  0.9717191E-01
          2   -1    0    0  501    0  0.00000000000E+00  0.00000000000E+00  0.22281587695E+04  0.22281587695E+04  0.25500000000E-02 0.  1.
         -2   -1    0    0    0  501 -0.00000000000E+00 -0.00000000000E+00 -0.54981876143E+02  0.54981876202E+02  0.25500000000E-02 0. -1.
    5000001    1    1    2    0    0  0.23858476794E+02 -0.26490832629E+03  0.15045046662E+04  0.15393582880E+04  0.18800000000E+03 0.  0.
   -5000001    1    1    2    0    0 -0.23858476794E+02  0.26490832629E+03  0.66867222722E+03  0.74378235775E+03  0.18800000000E+03 0.  0.
<mgrwt>
<rscale>  0 0.70002386E+03</rscale>
<asrwt>0</asrwt>
<pdfrwt beam="1">  1        2 0.31830831E+00 0.70002386E+03</pdfrwt>
<pdfrwt beam="2">  1       -2 0.78545558E-02 0.70002386E+03</pdfrwt>
<totfact> 0.63751991E+02</totfact>
</mgrwt>
</event>
<event>
 4    1  0.2346411E-005  0.5770499E+03  0.7818608E-02  0.9954198E-01
          2   -1    0    0  501    0  0.00000000000E+00  0.00000000000E+00  0.91728207000E+03  0.91728207001E+03  0.25500000000E-02 0.  1.
         -2   -1    0    0    0  501 -0.00000000000E+00 -0.00000000000E+00 -0.90753606454E+02  0.90753606489E+02  0.25500000000E-02 0. -1.
    5000001    1    1    2    0    0 -0.11240658695E+03 -0.14014834331E+03  0.19489852646E+03  0.32497112878E+03  0.18800000000E+03 0.  0.
   -5000001    1    1    2    0    0  0.11240658695E+03  0.14014834331E+03  0.63162993709E+03  0.68306454772E+03  0.18800000000E+03 0.  0.
<mgrwt>
<rscale>  0 0.57704993E+03</rscale>
<asrwt>0</asrwt>
<pdfrwt beam="1">  1        2 0.13104030E+00 0.57704993E+03</pdfrwt>
<pdfrwt beam="2">  1       -2 0.12964801E-01 0.57704993E+03</pdfrwt>
<totfact> 0.14227418E+03</totfact>
</mgrwt>
</event>
<event>
 4    1  0.2346411E-005  0.6724173E+03  0.7818608E-02  0.9765601E-01
         -2   -1    0    0    0  501 -0.00000000000E+00  0.00000000000E+00  0.60060307401E+02  0.60060307455E+02  0.25500000000E-02 0. -1.
          2   -1    0    0  501    0  0.00000000000E+00 -0.00000000000E+00 -0.18820459062E+04  0.18820459062E+04  0.25500000000E-02 0.  1.
    5000001    1    1    2    0    0  0.25913506571E+03  0.62487362191E+02 -0.11462847230E+04  0.11917920619E+04  0.18800000000E+03 0.  0.
   -5000001    1    1    2    0    0 -0.25913506571E+03 -0.62487362191E+02 -0.67570087581E+03  0.75031415172E+03  0.18800000000E+03 0.  0.
<mgrwt>
<rscale>  0 0.67241730E+03</rscale>
<asrwt>0</asrwt>
<pdfrwt beam="1">  1        2 0.26886366E+00 0.67241730E+03</pdfrwt>
<pdfrwt beam="2">  1       -2 0.85800451E-02 0.67241730E+03</pdfrwt>
<totfact> 0.82907187E+02</totfact>
</mgrwt>
</event>
<event>
 4    1  0.2346411E-005  0.6173106E+03  0.7818608E-02  0.9870129E-01
          2   -1    0    0  501    0  0.00000000000E+00  0.00000000000E+00  0.16913309875E+04  0.16913309875E+04  0.25500000000E-02 0.  1.
         -2   -1    0    0    0  501 -0.00000000000E+00 -0.00000000000E+00 -0.56327293885E+02  0.56327293943E+02  0.25500000000E-02 0. -1.
    5000001    1    1    2    0    0 -0.13699386752E+03  0.20160937486E+03  0.88146416863E+03  0.93366843170E+03  0.18800000000E+03 0.  0.
   -5000001    1    1    2    0    0  0.13699386752E+03 -0.20160937486E+03  0.75353952494E+03  0.81398984971E+03  0.18800000000E+03 0.  0.
<mgrwt>
<rscale>  0 0.61731061E+03</rscale>
<asrwt>0</asrwt>
<pdfrwt beam="1">  1        2 0.24161869E+00 0.61731061E+03</pdfrwt>
<pdfrwt beam="2">  1       -2 0.80467571E-02 0.61731061E+03</pdfrwt>
<totfact> 0.11509957E+03</totfact>
</mgrwt>
</event>
<event>
 4    1  0.2346411E-005  0.4788659E+03  0.7818608E-02  0.1019447E+00
         -2   -1    0    0    0  501 -0.00000000000E+00  0.00000000000E+00  0.21721467299E+02  0.21721467449E+02  0.25500000000E-02 0. -1.
          2   -1    0    0  501    0  0.00000000000E+00 -0.00000000000E+00 -0.26392382695E+04  0.26392382695E+04  0.25500000000E-02 0.  1.
    5000001    1    1    2    0    0 -0.18981733996E+02  0.11557570010E+03 -0.18139710447E+04  0.18274443904E+04  0.18800000000E+03 0.  0.
   -5000001    1    1    2    0    0  0.18981733996E+02 -0.11557570010E+03 -0.80354575747E+03  0.83351534661E+03  0.18800000000E+03 0.  0.
<mgrwt>
<rscale>  0 0.47886586E+03</rscale>
<asrwt>0</asrwt>
<pdfrwt beam="1">  1        2 0.37703383E+00 0.47886586E+03</pdfrwt>
<pdfrwt beam="2">  1       -2 0.31030685E-02 0.47886586E+03</pdfrwt>
<totfact> 0.16868586E+03</totfact>
</mgrwt>
</event>
<event>
 4    1  0.2346411E-005  0.1002006E+04  0.7818608E-02  0.9306347E-01
         -2   -1    0    0    0  501 -0.00000000000E+00  0.00000000000E+00  0.74815344301E+03  0.74815344302E+03  0.25500000000E-02 0. -1.
          2   -1    0    0  501    0  0.00000000000E+00 -0.00000000000E+00 -0.33549804272E+03  0.33549804273E+03  0.25500000000E-02 0.  1.
    5000001    1    1    2    0    0  0.42441577380E+03 -0.12501857897E+03  0.53759672056E+02  0.48372770902E+03  0.18800000000E+03 0.  0.
   -5000001    1    1    2    0    0 -0.42441577380E+03  0.12501857897E+03  0.35889572823E+03  0.59992377673E+03  0.18800000000E+03 0.  0.
<mgrwt>
<rscale>  0 0.10020060E+04</rscale>
<asrwt>0</asrwt>
<pdfrwt beam="1">  1        2 0.47928293E-01 0.10020060E+04</pdfrwt>
<pdfrwt beam="2">  1       -2 0.10687906E+00 0.10020060E+04</pdfrwt>
<totfact> 0.74065466E+01</totfact>
</mgrwt>
</event>
<event>
 4    1  0.2346411E-005  0.8818896E+03  0.7818608E-02  0.9448508E-01
         -2   -1    0    0    0  501 -0.00000000000E+00  0.00000000000E+00  0.99195097485E+02  0.99195097517E+02  0.25500000000E-02 0. -1.
          2   -1    0    0  501    0  0.00000000000E+00 -0.00000000000E+00 -0.19600999297E+04  0.19600999297E+04  0.25500000000E-02 0.  1.
    5000001    1    1    2    0    0  0.32172118806E+03  0.22451638441E+03 -0.76245260454E+03  0.87783261724E+03  0.18800000000E+03 0.  0.
   -5000001    1    1    2    0    0 -0.32172118806E+03 -0.22451638441E+03 -0.10984522276E+04  0.11814624100E+04  0.18800000000E+03 0.  0.
<mgrwt>
<rscale>  0 0.88188957E+03</rscale>
<asrwt>0</asrwt>
<pdfrwt beam="1">  1        2 0.28001425E+00 0.88188957E+03</pdfrwt>
<pdfrwt beam="2">  1       -2 0.14170729E-01 0.88188957E+03</pdfrwt>
<totfact> 0.32765837E+02</totfact>
</mgrwt>
</event>
<event>
 4    1  0.2346411E-005  0.5811747E+03  0.7818608E-02  0.9945251E-01
         -2   -1    0    0    0  501 -0.00000000000E+00  0.00000000000E+00  0.53839831334E+03  0.53839831335E+03  0.25500000000E-02 0. -1.
          2   -1    0    0  501    0  0.00000000000E+00 -0.00000000000E+00 -0.15683742173E+03  0.15683742176E+03  0.25500000000E-02 0.  1.
    5000001    1    1    2    0    0  0.71153669220E+02 -0.20682898359E+03  0.14838607851E+03  0.32435089238E+03  0.18800000000E+03 0.  0.
   -5000001    1    1    2    0    0 -0.71153669220E+02  0.20682898359E+03  0.23317481310E+03  0.37088484272E+03  0.18800000000E+03 0.  0.
<mgrwt>
<rscale>  0 0.58117468E+03</rscale>
<asrwt>0</asrwt>
<pdfrwt beam="1">  1        2 0.22405346E-01 0.58117468E+03</pdfrwt>
<pdfrwt beam="2">  1       -2 0.76914046E-01 0.58117468E+03</pdfrwt>
<totfact> 0.37931227E+02</totfact>
</mgrwt>
</event>
<event>
 4    1  0.2346411E-005  0.7415506E+03  0.7818608E-02  0.9648700E-01
          2   -1    0    0  501    0  0.00000000000E+00  0.00000000000E+00  0.47437542862E+04  0.47437542862E+04  0.25500000000E-02 0.  1.
         -2   -1    0    0    0  501 -0.00000000000E+00 -0.00000000000E+00 -0.28980066186E+02  0.28980066298E+02  0.25500000000E-02 0. -1.
    5000001    1    1    2    0    0  0.27084947563E+03 -0.16930345656E+03  0.22907442764E+04  0.23205336539E+04  0.18800000000E+03 0.  0.
   -5000001    1    1    2    0    0 -0.27084947563E+03  0.16930345656E+03  0.24240299437E+04  0.24522006987E+04  0.18800000000E+03 0.  0.
<mgrwt>
<rscale>  0 0.74155057E+03</rscale>
<asrwt>0</asrwt>
<pdfrwt beam="1">  1        2 0.67767887E+00 0.74155057E+03</pdfrwt>
<pdfrwt beam="2">  1       -2 0.41400114E-02 0.74155057E+03</pdfrwt>
<totfact> 0.47380573E+01</totfact>
</mgrwt>
</event>
<event>
 4    1  0.2346411E-005  0.7316777E+03  0.7818608E-02  0.9664542E-01
          2   -1    0    0  501    0  0.00000000000E+00  0.00000000000E+00  0.24816262952E+03  0.24816262953E+03  0.25500000000E-02 0.  1.
         -2   -1    0    0    0  501 -0.00000000000E+00 -0.00000000000E+00 -0.53931597545E+03  0.53931597545E+03  0.25500000000E-02 0. -1.
    5000001    1    1    2    0    0  0.20418962142E+03  0.21795331128E+02 -0.40100671403E+03  0.48817908871E+03  0.18800000000E+03 0.  0.
   -5000001    1    1    2    0    0 -0.20418962142E+03 -0.21795331128E+02  0.10985336810E+03  0.29929951627E+03  0.18800000000E+03 0.  0.
<mgrwt>
<rscale>  0 0.73167772E+03</rscale>
<asrwt>0</asrwt>
<pdfrwt beam="1">  1        2 0.35451804E-01 0.73167772E+03</pdfrwt>
<pdfrwt beam="2">  1       -2 0.77045139E-01 0.73167772E+03</pdfrwt>
<totfact> 0.22371690E+02</totfact>
</mgrwt>
</event>
<event>
 4    1  0.2346411E-005  0.4581328E+03  0.7818608E-02  0.1025324E+00
          2   -1    0    0  501    0  0.00000000000E+00  0.00000000000E+00  0.23294019018E+04  0.23294019018E+04  0.25500000000E-02 0.  1.
         -2   -1    0    0    0  501 -0.00000000000E+00 -0.00000000000E+00 -0.22525703062E+02  0.22525703207E+02  0.25500000000E-02 0. -1.
    5000001    1    1    2    0    0 -0.18423119187E+01 -0.12761838878E+03  0.13020120664E+04  0.13216918205E+04  0.18800000000E+03 0.  0.
   -5000001    1    1    2    0    0  0.18423119187E+01  0.12761838878E+03  0.10048641324E+04  0.10302357845E+04  0.18800000000E+03 0.  0.
<mgrwt>
<rscale>  0 0.45813280E+03</rscale>
<asrwt>0</asrwt>
<pdfrwt beam="1">  1        2 0.33277142E+00 0.45813280E+03</pdfrwt>
<pdfrwt beam="2">  1       -2 0.32179603E-02 0.45813280E+03</pdfrwt>
<totfact> 0.22976886E+03</totfact>
</mgrwt>
</event>
<event>
 4    1  0.2346411E-005  0.7420621E+03  0.7818608E-02  0.9647887E-01
         -2   -1    0    0    0  501 -0.00000000000E+00  0.00000000000E+00  0.81406398879E+02  0.81406398919E+02  0.25500000000E-02 0. -1.
          2   -1    0    0  501    0  0.00000000000E+00 -0.00000000000E+00 -0.16910713944E+04  0.16910713944E+04  0.25500000000E-02 0.  1.
    5000001    1    1    2    0    0 -0.29290999382E+03  0.12489850932E+03 -0.87744429551E+03  0.95218086193E+03  0.18800000000E+03 0.  0.
   -5000001    1    1    2    0    0  0.29290999382E+03 -0.12489850932E+03 -0.73222069997E+03  0.82029693135E+03  0.18800000000E+03 0.  0.
<mgrwt>
<rscale>  0 0.74206208E+03</rscale>
<asrwt>0</asrwt>
<pdfrwt beam="1">  1        2 0.24158161E+00 0.74206208E+03</pdfrwt>
<pdfrwt beam="2">  1       -2 0.11629487E-01 0.74206208E+03</pdfrwt>
<totfact> 0.62988759E+02</totfact>
</mgrwt>
</event>
<event>
 4    1  0.2346411E-005  0.4589594E+03  0.7818608E-02  0.1025083E+00
         -2   -1    0    0    0  501 -0.00000000000E+00  0.00000000000E+00  0.10807586087E+02  0.10807586388E+02  0.25500000000E-02 0. -1.
          2   -1    0    0  501    0  0.00000000000E+00 -0.00000000000E+00 -0.48725890931E+04  0.48725890931E+04  0.25500000000E-02 0.  1.
    5000001    1    1    2    0    0  0.10140914565E+03  0.65851857743E+01 -0.33204574126E+04  0.33273275475E+04  0.18800000000E+03 0.  0.
   -5000001    1    1    2    0    0 -0.10140914565E+03 -0.65851857743E+01 -0.15413240944E+04  0.15560691320E+04  0.18800000000E+03 0.  0.
<mgrwt>
<rscale>  0 0.45895937E+03</rscale>
<asrwt>0</asrwt>
<pdfrwt beam="1">  1        2 0.69608275E+00 0.45895937E+03</pdfrwt>
<pdfrwt beam="2">  1       -2 0.15439440E-02 0.45895937E+03</pdfrwt>
<totfact> 0.17221508E+02</totfact>
</mgrwt>
</event>
<event>
 4    1  0.2346411E-005  0.5256023E+03  0.7818608E-02  0.1007304E+00
         -2   -1    0    0    0  501 -0.00000000000E+00  0.00000000000E+00  0.11310847292E+03  0.11310847295E+03  0.25500000000E-02 0. -1.
          2   -1    0    0  501    0  0.00000000000E+00 -0.00000000000E+00 -0.61060352770E+03  0.61060352771E+03  0.25500000000E-02 0.  1.
    5000001    1    1    2    0    0 -0.84696099823E+01 -0.16189697355E+03 -0.36749889886E+03  0.44348822420E+03  0.18800000000E+03 0.  0.
   -5000001    1    1    2    0    0  0.84696099823E+01  0.16189697355E+03 -0.12999615592E+03  0.28022377646E+03  0.18800000000E+03 0.  0.
<mgrwt>
<rscale>  0 0.52560225E+03</rscale>
<asrwt>0</asrwt>
<pdfrwt beam="1">  1        2 0.87229074E-01 0.52560225E+03</pdfrwt>
<pdfrwt beam="2">  1       -2 0.16158354E-01 0.52560225E+03</pdfrwt>
<totfact> 0.16375746E+03</totfact>
</mgrwt>
</event>
<event>
 4    1  0.2346411E-005  0.5025599E+03  0.7818608E-02  0.1013113E+00
         -2   -1    0    0    0  501 -0.00000000000E+00  0.00000000000E+00  0.18683431258E+03  0.18683431260E+03  0.25500000000E-02 0. -1.
          2   -1    0    0  501    0  0.00000000000E+00 -0.00000000000E+00 -0.33795513504E+03  0.33795513505E+03  0.25500000000E-02 0.  1.
    5000001    1    1    2    0    0  0.78452549757E+02 -0.11351366989E+03 -0.17328105592E+03  0.29053481746E+03  0.18800000000E+03 0.  0.
   -5000001    1    1    2    0    0 -0.78452549757E+02  0.11351366989E+03  0.22160233465E+02  0.23425463018E+03  0.18800000000E+03 0.  0.
<mgrwt>
<rscale>  0 0.50255991E+03</rscale>
<asrwt>0</asrwt>
<pdfrwt beam="1">  1        2 0.48279305E-01 0.50255991E+03</pdfrwt>
<pdfrwt beam="2">  1       -2 0.26690616E-01 0.50255991E+03</pdfrwt>
<totfact> 0.13261815E+03</totfact>
</mgrwt>
</event>
<event>
 4    1  0.2346411E-005  0.4889619E+03  0.7818608E-02  0.1016701E+00
          2   -1    0    0  501    0  0.00000000000E+00  0.00000000000E+00  0.10820911204E+04  0.10820911204E+04  0.25500000000E-02 0.  1.
         -2   -1    0    0    0  501 -0.00000000000E+00 -0.00000000000E+00 -0.55236511587E+02  0.55236511646E+02  0.25500000000E-02 0. -1.
    5000001    1    1    2    0    0 -0.95754376501E+02 -0.12060038165E+03  0.57556193752E+03  0.62476307237E+03  0.18800000000E+03 0.  0.
   -5000001    1    1    2    0    0  0.95754376501E+02  0.12060038165E+03  0.45129267126E+03  0.51256455965E+03  0.18800000000E+03 0.  0.
<mgrwt>
<rscale>  0 0.48896192E+03</rscale>
<asrwt>0</asrwt>
<pdfrwt beam="1">  1        2 0.15458444E+00 0.48896192E+03</pdfrwt>
<pdfrwt beam="2">  1       -2 0.78909303E-02 0.48896192E+03</pdfrwt>
<totfact> 0.25258041E+03</totfact>
</mgrwt>
</event>
<event>
 4    1  0.2346411E-005  0.7227994E+03  0.7818608E-02  0.9679017E-01
          2   -1    0    0  501    0  0.00000000000E+00  0.00000000000E+00  0.14795102916E+04  0.14795102916E+04  0.25500000000E-02 0.  1.
         -2   -1    0    0    0  501 -0.00000000000E+00 -0.00000000000E+00 -0.88279040726E+02  0.88279040762E+02  0.25500000000E-02 0. -1.
    5000001    1    1    2    0    0 -0.27797134865E+03 -0.13415515573E+03  0.69620100950E+03  0.78441412666E+03  0.18800000000E+03 0.  0.
   -5000001    1    1    2    0    0  0.27797134865E+03  0.13415515573E+03  0.69503024138E+03  0.78337520571E+03  0.18800000000E+03 0.  0.
<mgrwt>
<rscale>  0 0.72279942E+03</rscale>
<asrwt>0</asrwt>
<pdfrwt beam="1">  1        2 0.21135861E+00 0.72279942E+03</pdfrwt>
<pdfrwt beam="2">  1       -2 0.12611292E-01 0.72279942E+03</pdfrwt>
<totfact> 0.70994688E+02</totfact>
</mgrwt>
</event>
<event>
 4    1  0.2346411E-005  0.6976765E+03  0.7818608E-02  0.9721214E-01
          2   -1    0    0  501    0  0.00000000000E+00  0.00000000000E+00  0.27717529549E+04  0.27717529549E+04  0.25500000000E-02 0.  1.
         -2   -1    0    0    0  501 -0.00000000000E+00 -0.00000000000E+00 -0.43902941969E+02  0.43902942043E+02  0.25500000000E-02 0. -1.
    5000001    1    1    2    0    0 -0.28128303263E+03  0.14805973845E+02  0.10261544675E+04  0.10805907424E+04  0.18800000000E+03 0.  0.
   -5000001    1    1    2    0    0  0.28128303263E+03 -0.14805973845E+02  0.17016955455E+04  0.17350651546E+04  0.18800000000E+03 0.  0.
<mgrwt>
<rscale>  0 0.69767646E+03</rscale>
<asrwt>0</asrwt>
<pdfrwt beam="1">  1        2 0.39596479E+00 0.69767646E+03</pdfrwt>
<pdfrwt beam="2">  1       -2 0.62718476E-02 0.69767646E+03</pdfrwt>
<totfact> 0.47722109E+02</totfact>
</mgrwt>
</event>
<event>
 4    1  0.2346411E-005  0.1006999E+04  0.7818608E-02  0.9300902E-01
         -2   -1    0    0    0  501 -0.00000000000E+00  0.00000000000E+00  0.16111145593E+03  0.16111145595E+03  0.25500000000E-02 0. -1.
          2   -1    0    0  501    0  0.00000000000E+00 -0.00000000000E+00 -0.15735170334E+04  0.15735170334E+04  0.25500000000E-02 0.  1.
    5000001    1    1    2    0    0 -0.45673313866E+03  0.50201887777E+02 -0.85075763908E+03  0.98501672572E+03  0.18800000000E+03 0.  0.
   -5000001    1    1    2    0    0  0.45673313866E+03 -0.50201887777E+02 -0.56164793843E+03  0.74961176367E+03  0.18800000000E+03 0.  0.
<mgrwt>
<rscale>  0 0.10069987E+04</rscale>
<asrwt>0</asrwt>
<pdfrwt beam="1">  1        2 0.22478814E+00 0.10069987E+04</pdfrwt>
<pdfrwt beam="2">  1       -2 0.23015923E-01 0.10069987E+04</pdfrwt>
<totfact> 0.22166557E+02</totfact>
</mgrwt>
</event>
<event>
 4    1  0.2346411E-005  0.5775513E+03  0.7818608E-02  0.9953107E-01
          2   -1    0    0  501    0  0.00000000000E+00  0.00000000000E+00  0.21606703640E+04  0.21606703640E+04  0.25500000000E-02 0.  1.
         -2   -1    0    0    0  501 -0.00000000000E+00 -0.00000000000E+00 -0.38595135005E+02  0.38595135090E+02  0.25500000000E-02 0. -1.
    5000001    1    1    2    0    0  0.17525020565E+03 -0.35072150759E+02  0.15442778604E+04  0.15659121305E+04  0.18800000000E+03 0.  0.
   -5000001    1    1    2    0    0 -0.17525020565E+03  0.35072150759E+02  0.57779736854E+03  0.63335336854E+03  0.18800000000E+03 0.  0.
<mgrwt>
<rscale>  0 0.57755126E+03</rscale>
<asrwt>0</asrwt>
<pdfrwt beam="1">  1        2 0.30866719E+00 0.57755126E+03</pdfrwt>
<pdfrwt beam="2">  1       -2 0.55135908E-02 0.57755126E+03</pdfrwt>
<totfact> 0.12141519E+03</totfact>
</mgrwt>
</event>
<event>
 4    1  0.2346411E-005  0.4135204E+03  0.7818608E-02  0.1039196E+00
         -2   -1    0    0    0  501 -0.00000000000E+00  0.00000000000E+00  0.94107124171E+02  0.94107124205E+02  0.25500000000E-02 0. -1.
          2   -1    0    0  501    0  0.00000000000E+00 -0.00000000000E+00 -0.45426723996E+03  0.45426723997E+03  0.25500000000E-02 0.  1.
    5000001    1    1    2    0    0  0.50332729468E+02  0.54603495150E+02 -0.12241540633E+03  0.23631431832E+03  0.18800000000E+03 0.  0.
   -5000001    1    1    2    0    0 -0.50332729468E+02 -0.54603495150E+02 -0.23774470947E+03  0.31206004585E+03  0.18800000000E+03 0.  0.
<mgrwt>
<rscale>  0 0.41352042E+03</rscale>
<asrwt>0</asrwt>
<pdfrwt beam="1">  1        2 0.64895319E-01 0.41352042E+03</pdfrwt>
<pdfrwt beam="2">  1       -2 0.13443875E-01 0.41352042E+03</pdfrwt>
<totfact> 0.31129736E+03</totfact>
</mgrwt>
</event>
<event>
 4    1  0.2346411E-005  0.9966578E+03  0.7818608E-02  0.9312218E-01
         -2   -1    0    0    0  501 -0.00000000000E+00  0.00000000000E+00  0.13504258860E+03  0.13504258862E+03  0.25500000000E-02 0. -1.
          2   -1    0    0  501    0  0.00000000000E+00 -0.00000000000E+00 -0.18389137845E+04  0.18389137845E+04  0.25500000000E-02 0.  1.
    5000001    1    1    2    0    0 -0.14547617810E+03  0.34277470667E+03 -0.31196122381E+03  0.52088542222E+03  0.18800000000E+03 0.  0.
   -5000001    1    1    2    0    0  0.14547617810E+03 -0.34277470667E+03 -0.13919099721E+04  0.14530709509E+04  0.18800000000E+03 0.  0.
<mgrwt>
<rscale>  0 0.99665777E+03</rscale>
<asrwt>0</asrwt>
<pdfrwt beam="1">  1        2 0.26270196E+00 0.99665777E+03</pdfrwt>
<pdfrwt beam="2">  1       -2 0.19291799E-01 0.99665777E+03</pdfrwt>
<totfact> 0.22092406E+02</totfact>
</mgrwt>
</event>
<event>
 4    1  0.2346411E-005  0.5221446E+03  0.7818608E-02  0.1008155E+00
         -2   -1    0    0    0  501 -0.00000000000E+00  0.00000000000E+00  0.12011989557E+03  0.12011989560E+03  0.25500000000E-02 0. -1.
          2   -1    0    0  501    0  0.00000000000E+00 -0.00000000000E+00 -0.56742253733E+03  0.56742253734E+03  0.25500000000E-02 0.  1.
    5000001    1    1    2    0    0 -0.14363915102E+03 -0.13691112006E+02 -0.79436336133E+02  0.24994756200E+03  0.18800000000E+03 0.  0.
   -5000001    1    1    2    0    0  0.14363915102E+03  0.13691112006E+02 -0.36786630563E+03  0.43759487093E+03  0.18800000000E+03 0.  0.
<mgrwt>
<rscale>  0 0.52214456E+03</rscale>
<asrwt>0</asrwt>
<pdfrwt beam="1">  1        2 0.81060361E-01 0.52214456E+03</pdfrwt>
<pdfrwt beam="2">  1       -2 0.17159985E-01 0.52214456E+03</pdfrwt>
<totfact> 0.16106782E+03</totfact>
</mgrwt>
</event>
<event>
 4    1  0.2346411E-005  0.6952913E+03  0.7818608E-02  0.9725319E-01
          2   -1    0    0  501    0  0.00000000000E+00  0.00000000000E+00  0.37083090321E+03  0.37083090322E+03  0.25500000000E-02 0.  1.
         -2   -1    0    0    0  501 -0.00000000000E+00 -0.00000000000E+00 -0.32590995290E+03  0.32590995291E+03  0.25500000000E-02 0. -1.
    5000001    1    1    2    0    0  0.17471048480E+03 -0.29673089007E+02 -0.21063841939E+03  0.33334185070E+03  0.18800000000E+03 0.  0.
   -5000001    1    1    2    0    0 -0.17471048480E+03  0.29673089007E+02  0.25555936970E+03  0.36339900543E+03  0.18800000000E+03 0.  0.
<mgrwt>
<rscale>  0 0.69529125E+03</rscale>
<asrwt>0</asrwt>
<pdfrwt beam="1">  1        2 0.52975843E-01 0.69529125E+03</pdfrwt>
<pdfrwt beam="2">  1       -2 0.46558565E-01 0.69529125E+03</pdfrwt>
<totfact> 0.41490709E+02</totfact>
</mgrwt>
</event>
<event>
 4    1  0.2346411E-005  0.4734094E+03  0.7818608E-02  0.1020962E+00
          2   -1    0    0  501    0  0.00000000000E+00  0.00000000000E+00  0.22496185884E+04  0.22496185884E+04  0.25500000000E-02 0.  1.
         -2   -1    0    0    0  501 -0.00000000000E+00 -0.00000000000E+00 -0.24906053246E+02  0.24906053376E+02  0.25500000000E-02 0. -1.
    5000001    1    1    2    0    0  0.14016682055E+03 -0.15664001237E+01  0.95771734809E+03  0.98600999489E+03  0.18800000000E+03 0.  0.
   -5000001    1    1    2    0    0 -0.14016682055E+03  0.15664001237E+01  0.12669951870E+04  0.12885146469E+04  0.18800000000E+03 0.  0.
<mgrwt>
<rscale>  0 0.47340942E+03</rscale>
<asrwt>0</asrwt>
<pdfrwt beam="1">  1        2 0.32137400E+00 0.47340942E+03</pdfrwt>
<pdfrwt beam="2">  1       -2 0.35580086E-02 0.47340942E+03</pdfrwt>
<totfact> 0.21615414E+03</totfact>
</mgrwt>
</event>
<event>
 4    1  0.2346411E-005  0.6609935E+03  0.7818608E-02  0.9786367E-01
          2   -1    0    0  501    0  0.00000000000E+00  0.00000000000E+00  0.66454956163E+03  0.66454956163E+03  0.25500000000E-02 0.  1.
         -2   -1    0    0    0  501 -0.00000000000E+00 -0.00000000000E+00 -0.16436411554E+03  0.16436411556E+03  0.25500000000E-02 0. -1.
    5000001    1    1    2    0    0  0.15076263600E+03 -0.22472460096E+03  0.21803281724E+03  0.39511115915E+03  0.18800000000E+03 0.  0.
   -5000001    1    1    2    0    0 -0.15076263600E+03  0.22472460096E+03  0.28215262885E+03  0.43380251804E+03  0.18800000000E+03 0.  0.
<mgrwt>
<rscale>  0 0.66099350E+03</rscale>
<asrwt>0</asrwt>
<pdfrwt beam="1">  1        2 0.94935651E-01 0.66099350E+03</pdfrwt>
<pdfrwt beam="2">  1       -2 0.23480588E-01 0.66099350E+03</pdfrwt>
<totfact> 0.77253233E+02</totfact>
</mgrwt>
</event>
<event>
 4    1  0.2346411E-005  0.1028259E+04  0.7818608E-02  0.9278083E-01
          2   -1    0    0  501    0  0.00000000000E+00  0.00000000000E+00  0.19195408432E+04  0.19195408432E+04  0.25500000000E-02 0.  1.
         -2   -1    0    0    0  501 -0.00000000000E+00 -0.00000000000E+00 -0.13770432939E+03  0.13770432942E+03  0.25500000000E-02 0. -1.
    5000001    1    1    2    0    0  0.87133856805E+02  0.42466239007E+03  0.12963004350E+04  0.13797352182E+04  0.18800000000E+03 0.  0.
   -5000001    1    1    2    0    0 -0.87133856805E+02 -0.42466239007E+03  0.48553607886E+03  0.67750995447E+03  0.18800000000E+03 0.  0.
<mgrwt>
<rscale>  0 0.10282589E+04</rscale>
<asrwt>0</asrwt>
<pdfrwt beam="1">  1        2 0.27422012E+00 0.10282589E+04</pdfrwt>
<pdfrwt beam="2">  1       -2 0.19672047E-01 0.10282589E+04</pdfrwt>
<totfact> 0.19375034E+02</totfact>
</mgrwt>
</event>
<event>
 4    1  0.2346411E-005  0.5496295E+03  0.7818608E-02  0.1001580E+00
          2   -1    0    0  501    0  0.00000000000E+00  0.00000000000E+00  0.77558558025E+03  0.77558558026E+03  0.25500000000E-02 0.  1.
         -2   -1    0    0    0  501 -0.00000000000E+00 -0.00000000000E+00 -0.97375628698E+02  0.97375628731E+02  0.25500000000E-02 0. -1.
    5000001    1    1    2    0    0 -0.14943634393E+03 -0.23204093372E+02  0.13014313095E+03  0.27413661807E+03  0.18800000000E+03 0.  0.
   -5000001    1    1    2    0    0  0.14943634393E+03  0.23204093372E+02  0.54806682061E+03  0.59882459092E+03  0.18800000000E+03 0.  0.
<mgrwt>
<rscale>  0 0.54962945E+03</rscale>
<asrwt>0</asrwt>
<pdfrwt beam="1">  1        2 0.11079794E+00 0.54962945E+03</pdfrwt>
<pdfrwt beam="2">  1       -2 0.13910804E-01 0.54962945E+03</pdfrwt>
<totfact> 0.15748300E+03</totfact>
</mgrwt>
</event>
<event>
 4    1  0.2346411E-005  0.9055480E+03  0.7818608E-02  0.9418673E-01
         -2   -1    0    0    0  501 -0.00000000000E+00  0.00000000000E+00  0.13920511696E+03  0.13920511699E+03  0.25500000000E-02 0. -1.
          2   -1    0    0  501    0  0.00000000000E+00 -0.00000000000E+00 -0.14726778063E+04  0.14726778063E+04  0.25500000000E-02 0.  1.
    5000001    1    1    2    0    0 -0.24693892280E+03 -0.31993267739E+03 -0.52517770384E+03  0.68883333998E+03  0.18800000000E+03 0.  0.
   -5000001    1    1    2    0    0  0.24693892280E+03  0.31993267739E+03 -0.80829498545E+03  0.92304958326E+03  0.18800000000E+03 0.  0.
<mgrwt>
<rscale>  0 0.90554798E+03</rscale>
<asrwt>0</asrwt>
<pdfrwt beam="1">  1        2 0.21038253E+00 0.90554798E+03</pdfrwt>
<pdfrwt beam="2">  1       -2 0.19886446E-01 0.90554798E+03</pdfrwt>
<totfact> 0.32642022E+02</totfact>
</mgrwt>
</event>
<event>
 4    1  0.2346411E-005  0.7544813E+03  0.7818608E-02  0.9628346E-01
          2   -1    0    0  501    0  0.00000000000E+00  0.00000000000E+00  0.11969439149E+04  0.11969439149E+04  0.25500000000E-02 0.  1.
         -2   -1    0    0    0  501 -0.00000000000E+00 -0.00000000000E+00 -0.11889488469E+03  0.11889488472E+03  0.25500000000E-02 0. -1.
    5000001    1    1    2    0    0  0.13651651726E+02 -0.18049892109E+03  0.10140938310E+04  0.10471373006E+04  0.18800000000E+03 0.  0.
   -5000001    1    1    2    0    0 -0.13651651726E+02  0.18049892109E+03  0.63955199227E+02  0.26870149910E+03  0.18800000000E+03 0.  0.
<mgrwt>
<rscale>  0 0.75448130E+03</rscale>
<asrwt>0</asrwt>
<pdfrwt beam="1">  1        2 0.17099198E+00 0.75448130E+03</pdfrwt>
<pdfrwt beam="2">  1       -2 0.16984984E-01 0.75448130E+03</pdfrwt>
<totfact> 0.61122160E+02</totfact>
</mgrwt>
</event>
<event>
 4    1  0.2346411E-005  0.4249480E+03  0.7818608E-02  0.1035468E+00
         -2   -1    0    0    0  501 -0.00000000000E+00  0.00000000000E+00  0.36358694070E+02  0.36358694159E+02  0.25500000000E-02 0. -1.
          2   -1    0    0  501    0  0.00000000000E+00 -0.00000000000E+00 -0.12416619110E+04  0.12416619110E+04  0.25500000000E-02 0.  1.
    5000001    1    1    2    0    0  0.77580687797E+02 -0.95485247925E+01 -0.41993002860E+03  0.46668529692E+03  0.18800000000E+03 0.  0.
   -5000001    1    1    2    0    0 -0.77580687797E+02  0.95485247925E+01 -0.78537318831E+03  0.81133530822E+03  0.18800000000E+03 0.  0.
<mgrwt>
<rscale>  0 0.42494802E+03</rscale>
<asrwt>0</asrwt>
<pdfrwt beam="1">  1        2 0.17738025E+00 0.42494802E+03</pdfrwt>
<pdfrwt beam="2">  1       -2 0.51941000E-02 0.42494802E+03</pdfrwt>
<totfact> 0.39463541E+03</totfact>
</mgrwt>
</event>
<event>
 4    1  0.2346411E-005  0.4597710E+03  0.7818608E-02  0.1024848E+00
          2   -1    0    0  501    0  0.00000000000E+00  0.00000000000E+00  0.54425385811E+03  0.54425385811E+03  0.25500000000E-02 0.  1.
         -2   -1    0    0    0  501 -0.00000000000E+00 -0.00000000000E+00 -0.97100518523E+02  0.97100518556E+02  0.25500000000E-02 0. -1.
    5000001    1    1    2    0    0 -0.93455272656E+02 -0.87740681741E+02  0.26922812649E+03  0.35250545998E+03  0.18800000000E+03 0.  0.
   -5000001    1    1    2    0    0  0.93455272656E+02  0.87740681741E+02  0.17792521309E+03  0.28884891669E+03  0.18800000000E+03 0.  0.
<mgrwt>
<rscale>  0 0.45977095E+03</rscale>
<asrwt>0</asrwt>
<pdfrwt beam="1">  1        2 0.77750551E-01 0.45977095E+03</pdfrwt>
<pdfrwt beam="2">  1       -2 0.13871503E-01 0.45977095E+03</pdfrwt>
<totfact> 0.24148331E+03</totfact>
</mgrwt>
</event>
<event>
 4    1  0.2346411E-005  0.7578742E+03  0.7818608E-02  0.9623077E-01
         -2   -1    0    0    0  501 -0.00000000000E+00  0.00000000000E+00  0.93411709678E+02  0.93411709713E+02  0.25500000000E-02 0. -1.
          2   -1    0    0  501    0  0.00000000000E+00 -0.00000000000E+00 -0.15372090076E+04  0.15372090076E+04  0.25500000000E-02 0.  1.
    5000001    1    1    2    0    0  0.23920945817E+03  0.22122708220E+03 -0.62361314529E+03  0.72828561825E+03  0.18800000000E+03 0.  0.
   -5000001    1    1    2    0    0 -0.23920945817E+03 -0.22122708220E+03 -0.82018415265E+03  0.90233509908E+03  0.18800000000E+03 0.  0.
<mgrwt>
<rscale>  0 0.75787419E+03</rscale>
<asrwt>0</asrwt>
<pdfrwt beam="1">  1        2 0.21960127E+00 0.75787419E+03</pdfrwt>
<pdfrwt beam="2">  1       -2 0.13344531E-01 0.75787419E+03</pdfrwt>
<totfact> 0.60167281E+02</totfact>
</mgrwt>
</event>
<event>
 4    1  0.2346411E-005  0.5978130E+03  0.7818608E-02  0.9909954E-01
         -2   -1    0    0    0  501 -0.00000000000E+00  0.00000000000E+00  0.49513275390E+03  0.49513275391E+03  0.25500000000E-02 0. -1.
          2   -1    0    0  501    0  0.00000000000E+00 -0.00000000000E+00 -0.18044675900E+03  0.18044675901E+03  0.25500000000E-02 0.  1.
    5000001    1    1    2    0    0 -0.18768933817E+03 -0.10128323924E+03  0.26162675052E+03  0.38636529192E+03  0.18800000000E+03 0.  0.
   -5000001    1    1    2    0    0  0.18768933817E+03  0.10128323924E+03  0.53059244381E+02  0.28921422100E+03  0.18800000000E+03 0.  0.
<mgrwt>
<rscale>  0 0.59781302E+03</rscale>
<asrwt>0</asrwt>
<pdfrwt beam="1">  1        2 0.25778109E-01 0.59781302E+03</pdfrwt>
<pdfrwt beam="2">  1       -2 0.70733250E-01 0.59781302E+03</pdfrwt>
<totfact> 0.38809408E+02</totfact>
</mgrwt>
</event>
<event>
 4    1  0.2346411E-005  0.4008673E+03  0.7818608E-02  0.1043480E+00
         -2   -1    0    0    0  501 -0.00000000000E+00  0.00000000000E+00  0.65605250820E+02  0.65605250870E+02  0.25500000000E-02 0. -1.
          2   -1    0    0  501    0  0.00000000000E+00 -0.00000000000E+00 -0.61235416533E+03  0.61235416533E+03  0.25500000000E-02 0.  1.
    5000001    1    1    2    0    0 -0.60341474431E+02  0.10936965757E+02 -0.21808029347E+03  0.29438703293E+03  0.18800000000E+03 0.  0.
   -5000001    1    1    2    0    0  0.60341474431E+02 -0.10936965757E+02 -0.32866862103E+03  0.38357238327E+03  0.18800000000E+03 0.  0.
<mgrwt>
<rscale>  0 0.40086730E+03</rscale>
<asrwt>0</asrwt>
<pdfrwt beam="1">  1        2 0.87479163E-01 0.40086730E+03</pdfrwt>
<pdfrwt beam="2">  1       -2 0.93721791E-02 0.40086730E+03</pdfrwt>
<totfact> 0.39815595E+03</totfact>
</mgrwt>
</event>
<event>
 4    1  0.2346411E-005  0.4403467E+03  0.7818608E-02  0.1030640E+00
          2   -1    0    0  501    0  0.00000000000E+00  0.00000000000E+00  0.24770452113E+04  0.24770452113E+04  0.25500000000E-02 0.  1.
         -2   -1    0    0    0  501 -0.00000000000E+00 -0.00000000000E+00 -0.19570210707E+02  0.19570210873E+02  0.25500000000E-02 0. -1.
    5000001    1    1    2    0    0  0.44827614910E+02  0.10546421047E+03  0.12303627848E+04  0.12499075154E+04  0.18800000000E+03 0.  0.
   -5000001    1    1    2    0    0 -0.44827614910E+02 -0.10546421047E+03  0.12271122157E+04  0.12467079067E+04  0.18800000000E+03 0.  0.
<mgrwt>
<rscale>  0 0.44034667E+03</rscale>
<asrwt>0</asrwt>
<pdfrwt beam="1">  1        2 0.35386359E+00 0.44034667E+03</pdfrwt>
<pdfrwt beam="2">  1       -2 0.27957445E-02 0.44034667E+03</pdfrwt>
<totfact> 0.23957828E+03</totfact>
</mgrwt>
</event>
<event>
 4    1  0.2346411E-005  0.7309970E+03  0.7818608E-02  0.9665644E-01
         -2   -1    0    0    0  501 -0.00000000000E+00  0.00000000000E+00  0.49865205835E+02  0.49865205900E+02  0.25500000000E-02 0. -1.
          2   -1    0    0  501    0  0.00000000000E+00 -0.00000000000E+00 -0.26790054441E+04  0.26790054441E+04  0.25500000000E-02 0.  1.
    5000001    1    1    2    0    0  0.87995395109E+02  0.15029524121E+03 -0.34172255939E+03  0.42714184610E+03  0.18800000000E+03 0.  0.
   -5000001    1    1    2    0    0 -0.87995395109E+02 -0.15029524121E+03 -0.22874176789E+04  0.23017288039E+04  0.18800000000E+03 0.  0.
<mgrwt>
<rscale>  0 0.73099701E+03</rscale>
<asrwt>0</asrwt>
<pdfrwt beam="1">  1        2 0.38271497E+00 0.73099701E+03</pdfrwt>
<pdfrwt beam="2">  1       -2 0.71236025E-02 0.73099701E+03</pdfrwt>
<totfact> 0.43545307E+02</totfact>
</mgrwt>
</event>
<event>
 4    1  0.2346411E-005  0.6902386E+03  0.7818608E-02  0.9734073E-01
         -2   -1    0    0    0  501 -0.00000000000E+00  0.00000000000E+00  0.68078697933E+02  0.68078697981E+02  0.25500000000E-02 0. -1.
          2   -1    0    0  501    0  0.00000000000E+00 -0.00000000000E+00 -0.17495537193E+04  0.17495537193E+04  0.25500000000E-02 0.  1.
    5000001    1    1    2    0    0 -0.20536855172E+03 -0.19357111386E+03 -0.10097092870E+04  0.10651304439E+04  0.18800000000E+03 0.  0.
   -5000001    1    1    2    0    0  0.20536855172E+03  0.19357111386E+03 -0.67176573437E+03  0.75250197344E+03  0.18800000000E+03 0.  0.
<mgrwt>
<rscale>  0 0.69023862E+03</rscale>
<asrwt>0</asrwt>
<pdfrwt beam="1">  1        2 0.24993622E+00 0.69023862E+03</pdfrwt>
<pdfrwt beam="2">  1       -2 0.97255293E-02 0.69023862E+03</pdfrwt>
<totfact> 0.78980513E+02</totfact>
</mgrwt>
</event>
<event>
 4    1  0.2346411E-005  0.7452368E+03  0.7818608E-02  0.9642853E-01
         -2   -1    0    0    0  501 -0.00000000000E+00  0.00000000000E+00  0.18717980084E+03  0.18717980085E+03  0.25500000000E-02 0. -1.
          2   -1    0    0  501    0  0.00000000000E+00 -0.00000000000E+00 -0.74177054523E+03  0.74177054523E+03  0.25500000000E-02 0.  1.
    5000001    1    1    2    0    0  0.28485646233E+03  0.13429552731E+03 -0.19534723156E+03  0.41555148136E+03  0.18800000000E+03 0.  0.
   -5000001    1    1    2    0    0 -0.28485646233E+03 -0.13429552731E+03 -0.35924351283E+03  0.51339886472E+03  0.18800000000E+03 0.  0.
<mgrwt>
<rscale>  0 0.74523678E+03</rscale>
<asrwt>0</asrwt>
<pdfrwt beam="1">  1        2 0.10596722E+00 0.74523678E+03</pdfrwt>
<pdfrwt beam="2">  1       -2 0.26739972E-01 0.74523678E+03</pdfrwt>
<totfact> 0.53265388E+02</totfact>
</mgrwt>
</event>
<event>
 4    1  0.2346411E-005  0.4639174E+03  0.7818608E-02  0.1023651E+00
          2   -1    0    0  501    0  0.00000000000E+00  0.00000000000E+00  0.13999734469E+03  0.13999734471E+03  0.25500000000E-02 0.  1.
         -2   -1    0    0    0  501 -0.00000000000E+00 -0.00000000000E+00 -0.38432752245E+03  0.38432752246E+03  0.25500000000E-02 0. -1.
    5000001    1    1    2    0    0  0.12392821680E+03  0.55653657600E+02 -0.11956311723E+03  0.26094994065E+03  0.18800000000E+03 0.  0.
   -5000001    1    1    2    0    0 -0.12392821680E+03 -0.55653657600E+02 -0.12476706054E+03  0.26337492652E+03  0.18800000000E+03 0.  0.
<mgrwt>
<rscale>  0 0.46391737E+03</rscale>
<asrwt>0</asrwt>
<pdfrwt beam="1">  1        2 0.19999621E-01 0.46391737E+03</pdfrwt>
<pdfrwt beam="2">  1       -2 0.54903932E-01 0.46391737E+03</pdfrwt>
<totfact> 0.88925086E+02</totfact>
</mgrwt>
</event>
<event>
 4    1  0.2346411E-005  0.5983165E+03  0.7818608E-02  0.9908905E-01
         -2   -1    0    0    0  501 -0.00000000000E+00  0.00000000000E+00  0.18297125434E+03  0.18297125436E+03  0.25500000000E-02 0. -1.
          2   -1    0    0  501    0  0.00000000000E+00 -0.00000000000E+00 -0.48912422303E+03  0.48912422304E+03  0.25500000000E-02 0.  1.
    5000001    1    1    2    0    0  0.11605458766E+03 -0.16136920370E+03 -0.17146654297E+02  0.27412897507E+03  0.18800000000E+03 0.  0.
   -5000001    1    1    2    0    0 -0.11605458766E+03  0.16136920370E+03 -0.28900631439E+03  0.39796650233E+03  0.18800000000E+03 0.  0.
<mgrwt>
<rscale>  0 0.59831655E+03</rscale>
<asrwt>0</asrwt>
<pdfrwt beam="1">  1        2 0.69874888E-01 0.59831655E+03</pdfrwt>
<pdfrwt beam="2">  1       -2 0.26138751E-01 0.59831655E+03</pdfrwt>
<totfact> 0.91259140E+02</totfact>
</mgrwt>
</event>
<event>
 4    1  0.2346411E-005  0.6742014E+03  0.7818608E-02  0.9762398E-01
         -2   -1    0    0    0  501 -0.00000000000E+00  0.00000000000E+00  0.10461452602E+03  0.10461452605E+03  0.25500000000E-02 0. -1.
          2   -1    0    0  501    0  0.00000000000E+00 -0.00000000000E+00 -0.10862437410E+04  0.10862437410E+04  0.25500000000E-02 0.  1.
    5000001    1    1    2    0    0  0.15991744210E+03  0.12513781654E+03 -0.15078083719E+03  0.31513794167E+03  0.18800000000E+03 0.  0.
   -5000001    1    1    2    0    0 -0.15991744210E+03 -0.12513781654E+03 -0.83084837783E+03  0.87572032543E+03  0.18800000000E+03 0.  0.
<mgrwt>
<rscale>  0 0.67420138E+03</rscale>
<asrwt>0</asrwt>
<pdfrwt beam="1">  1        2 0.15517767E+00 0.67420138E+03</pdfrwt>
<pdfrwt beam="2">  1       -2 0.14944933E-01 0.67420138E+03</pdfrwt>
<totfact> 0.88250868E+02</totfact>
</mgrwt>
</event>
<event>
 4    1  0.2346411E-005  0.5305458E+03  0.7818608E-02  0.1006100E+00
         -2   -1    0    0    0  501 -0.00000000000E+00  0.00000000000E+00  0.43566299779E+03  0.43566299780E+03  0.25500000000E-02 0. -1.
          2   -1    0    0  501    0  0.00000000000E+00 -0.00000000000E+00 -0.16152327626E+03  0.16152327628E+03  0.25500000000E-02 0.  1.
    5000001    1    1    2    0    0  0.92702770542E+02  0.11813359231E+03  0.11342161009E+02  0.24087754963E+03  0.18800000000E+03 0.  0.
   -5000001    1    1    2    0    0 -0.92702770542E+02 -0.11813359231E+03  0.26279756052E+03  0.35630872444E+03  0.18800000000E+03 0.  0.
<mgrwt>
<rscale>  0 0.53054581E+03</rscale>
<asrwt>0</asrwt>
<pdfrwt beam="1">  1        2 0.23074754E-01 0.53054581E+03</pdfrwt>
<pdfrwt beam="2">  1       -2 0.62237570E-01 0.53054581E+03</pdfrwt>
<totfact> 0.58031959E+02</totfact>
</mgrwt>
</event>
<event>
 4    1  0.2346411E-005  0.5559727E+03  0.7818608E-02  0.1000121E+00
          2   -1    0    0  501    0  0.00000000000E+00  0.00000000000E+00  0.81007743907E+03  0.81007743907E+03  0.25500000000E-02 0.  1.
         -2   -1    0    0    0  501 -0.00000000000E+00 -0.00000000000E+00 -0.95393852427E+02  0.95393852461E+02  0.25500000000E-02 0. -1.
    5000001    1    1    2    0    0  0.23455206026E+02  0.14050903795E+03  0.59691847737E+03  0.64183222501E+03  0.18800000000E+03 0.  0.
   -5000001    1    1    2    0    0 -0.23455206026E+02 -0.14050903795E+03  0.11776510927E+03  0.26363906652E+03  0.18800000000E+03 0.  0.
<mgrwt>
<rscale>  0 0.55597269E+03</rscale>
<asrwt>0</asrwt>
<pdfrwt beam="1">  1        2 0.11572535E+00 0.55597269E+03</pdfrwt>
<pdfrwt beam="2">  1       -2 0.13627694E-01 0.55597269E+03</pdfrwt>
<totfact> 0.15420315E+03</totfact>
</mgrwt>
</event>
<event>
 4    1  0.2346411E-005  0.5112957E+03  0.7818608E-02  0.1010872E+00
          2   -1    0    0  501    0  0.00000000000E+00  0.00000000000E+00  0.12647958214E+04  0.12647958214E+04  0.25500000000E-02 0.  1.
         -2   -1    0    0    0  501 -0.00000000000E+00 -0.00000000000E+00 -0.51673013353E+02  0.51673013416E+02  0.25500000000E-02 0. -1.
    5000001    1    1    2    0    0  0.10275693041E+03 -0.13808494812E+03  0.65710643069E+03  0.70481153573E+03  0.18800000000E+03 0.  0.
   -5000001    1    1    2    0    0 -0.10275693041E+03  0.13808494812E+03  0.55601637740E+03  0.61165729913E+03  0.18800000000E+03 0.  0.
<mgrwt>
<rscale>  0 0.51129565E+03</rscale>
<asrwt>0</asrwt>
<pdfrwt beam="1">  1        2 0.18068510E+00 0.51129565E+03</pdfrwt>
<pdfrwt beam="2">  1       -2 0.73818597E-02 0.51129565E+03</pdfrwt>
<totfact> 0.22151003E+03</totfact>
</mgrwt>
</event>
<event>
 4    1  0.2346411E-005  0.5520113E+03  0.7818608E-02  0.1001029E+00
          2   -1    0    0  501    0  0.00000000000E+00  0.00000000000E+00  0.23757121452E+04  0.23757121452E+04  0.25500000000E-02 0.  1.
         -2   -1    0    0    0  501 -0.00000000000E+00 -0.00000000000E+00 -0.32065807870E+02  0.32065807972E+02  0.25500000000E-02 0. -1.
    5000001    1    1    2    0    0  0.10772572324E+03 -0.16505605254E+03  0.97740124896E+03  0.10146455211E+04  0.18800000000E+03 0.  0.
   -5000001    1    1    2    0    0 -0.10772572324E+03  0.16505605254E+03  0.13662450884E+04  0.13931324321E+04  0.18800000000E+03 0.  0.
<mgrwt>
<rscale>  0 0.55201134E+03</rscale>
<asrwt>0</asrwt>
<pdfrwt beam="1">  1        2 0.33938740E+00 0.55201134E+03</pdfrwt>
<pdfrwt beam="2">  1       -2 0.45808304E-02 0.55201134E+03</pdfrwt>
<totfact> 0.12625363E+03</totfact>
</mgrwt>
</event>
<event>
 4    1  0.2346411E-005  0.5529083E+03  0.7818608E-02  0.1000823E+00
         -2   -1    0    0    0  501 -0.00000000000E+00  0.00000000000E+00  0.74465777069E+03  0.74465777069E+03  0.25500000000E-02 0. -1.
          2   -1    0    0  501    0  0.00000000000E+00 -0.00000000000E+00 -0.10263357793E+03  0.10263357796E+03  0.25500000000E-02 0.  1.
    5000001    1    1    2    0    0  0.11301192698E+03  0.15630646991E+03  0.41646004861E+03  0.49597014050E+03  0.18800000000E+03 0.  0.
   -5000001    1    1    2    0    0 -0.11301192698E+03 -0.15630646991E+03  0.22556414414E+03  0.35132120816E+03  0.18800000000E+03 0.  0.
<mgrwt>
<rscale>  0 0.55290828E+03</rscale>
<asrwt>0</asrwt>
<pdfrwt beam="1">  1        2 0.14661940E-01 0.55290828E+03</pdfrwt>
<pdfrwt beam="2">  1       -2 0.10637968E+00 0.55290828E+03</pdfrwt>
<totfact> 0.29725223E+02</totfact>
</mgrwt>
</event>
<event>
 4    1  0.2346411E-005  0.6095140E+03  0.7818608E-02  0.9885862E-01
         -2   -1    0    0    0  501 -0.00000000000E+00  0.00000000000E+00  0.20533965451E+03  0.20533965452E+03  0.25500000000E-02 0. -1.
          2   -1    0    0  501    0  0.00000000000E+00 -0.00000000000E+00 -0.45230828902E+03  0.45230828902E+03  0.25500000000E-02 0.  1.
    5000001    1    1    2    0    0 -0.15345130591E+03 -0.16398019493E+03 -0.32594086675E+02  0.29469167294E+03  0.18800000000E+03 0.  0.
   -5000001    1    1    2    0    0  0.15345130591E+03  0.16398019493E+03 -0.21437454784E+03  0.36295627061E+03  0.18800000000E+03 0.  0.
<mgrwt>
<rscale>  0 0.60951400E+03</rscale>
<asrwt>0</asrwt>
<pdfrwt beam="1">  1        2 0.64615470E-01 0.60951400E+03</pdfrwt>
<pdfrwt beam="2">  1       -2 0.29334236E-01 0.60951400E+03</pdfrwt>
<totfact> 0.80761494E+02</totfact>
</mgrwt>
</event>
<event>
 4    1  0.2346411E-005  0.5286230E+03  0.7818608E-02  0.1006567E+00
          2   -1    0    0  501    0  0.00000000000E+00  0.00000000000E+00  0.12719623142E+04  0.12719623142E+04  0.25500000000E-02 0.  1.
         -2   -1    0    0    0  501 -0.00000000000E+00 -0.00000000000E+00 -0.54923465708E+02  0.54923465768E+02  0.25500000000E-02 0. -1.
    5000001    1    1    2    0    0  0.29914203354E+02 -0.18285570352E+03  0.64270728725E+03  0.69480049292E+03  0.18800000000E+03 0.  0.
   -5000001    1    1    2    0    0 -0.29914203354E+02  0.18285570352E+03  0.57433156126E+03  0.63208528707E+03  0.18800000000E+03 0.  0.
<mgrwt>
<rscale>  0 0.52862304E+03</rscale>
<asrwt>0</asrwt>
<pdfrwt beam="1">  1        2 0.18170891E+00 0.52862304E+03</pdfrwt>
<pdfrwt beam="2">  1       -2 0.78462090E-02 0.52862304E+03</pdfrwt>
<totfact> 0.19925622E+03</totfact>
</mgrwt>
</event>
<event>
 4    1  0.2346411E-005  0.6111840E+03  0.7818608E-02  0.9882471E-01
          2   -1    0    0  501    0  0.00000000000E+00  0.00000000000E+00  0.25854100803E+03  0.25854100804E+03  0.25500000000E-02 0.  1.
         -2   -1    0    0    0  501 -0.00000000000E+00 -0.00000000000E+00 -0.36120568653E+03  0.36120568654E+03  0.25500000000E-02 0. -1.
    5000001    1    1    2    0    0 -0.20981560629E+02 -0.19459505967E+03 -0.19378185969E+03  0.33347094668E+03  0.18800000000E+03 0.  0.
   -5000001    1    1    2    0    0  0.20981560629E+02  0.19459505967E+03  0.91117181186E+02  0.28627574791E+03  0.18800000000E+03 0.  0.
<mgrwt>
<rscale>  0 0.61118404E+03</rscale>
<asrwt>0</asrwt>
<pdfrwt beam="1">  1        2 0.36934430E-01 0.61118404E+03</pdfrwt>
<pdfrwt beam="2">  1       -2 0.51600812E-01 0.61118404E+03</pdfrwt>
<totfact> 0.50352540E+02</totfact>
</mgrwt>
</event>
<event>
 4    1  0.2346411E-005  0.7461040E+03  0.7818608E-02  0.9641482E-01
          2   -1    0    0  501    0  0.00000000000E+00  0.00000000000E+00  0.71667299215E+03  0.71667299215E+03  0.25500000000E-02 0.  1.
         -2   -1    0    0    0  501 -0.00000000000E+00 -0.00000000000E+00 -0.19418592901E+03  0.19418592903E+03  0.25500000000E-02 0. -1.
    5000001    1    1    2    0    0  0.30935312895E+03 -0.84853103960E+02  0.29836134892E+03  0.47672098986E+03  0.18800000000E+03 0.  0.
   -5000001    1    1    2    0    0 -0.30935312895E+03  0.84853103960E+02  0.22412571421E+03  0.43413793132E+03  0.18800000000E+03 0.  0.
<mgrwt>
<rscale>  0 0.74610404E+03</rscale>
<asrwt>0</asrwt>
<pdfrwt beam="1">  1        2 0.10238186E+00 0.74610404E+03</pdfrwt>
<pdfrwt beam="2">  1       -2 0.27740847E-01 0.74610404E+03</pdfrwt>
<totfact> 0.51992453E+02</totfact>
</mgrwt>
</event>
<event>
 4    1  0.2346411E-005  0.5650851E+03  0.7818608E-02  0.9980614E-01
          2   -1    0    0  501    0  0.00000000000E+00  0.00000000000E+00  0.15186637324E+04  0.15186637324E+04  0.25500000000E-02 0.  1.
         -2   -1    0    0    0  501 -0.00000000000E+00 -0.00000000000E+00 -0.52566146086E+02  0.52566146148E+02  0.25500000000E-02 0. -1.
    5000001    1    1    2    0    0  0.10502978235E+03 -0.77703962132E+02  0.11934504932E+04  0.12152107804E+04  0.18800000000E+03 0.  0.
   -5000001    1    1    2    0    0 -0.10502978235E+03  0.77703962132E+02  0.27264709310E+03  0.35601909821E+03  0.18800000000E+03 0.  0.
<mgrwt>
<rscale>  0 0.56508513E+03</rscale>
<asrwt>0</asrwt>
<pdfrwt beam="1">  1        2 0.21695196E+00 0.56508513E+03</pdfrwt>
<pdfrwt beam="2">  1       -2 0.75094497E-02 0.56508513E+03</pdfrwt>
<totfact> 0.15789095E+03</totfact>
</mgrwt>
</event>
<event>
 4    1  0.2346411E-005  0.5100124E+03  0.7818608E-02  0.1011198E+00
         -2   -1    0    0    0  501 -0.00000000000E+00  0.00000000000E+00  0.59608820224E+02  0.59608820278E+02  0.25500000000E-02 0. -1.
          2   -1    0    0  501    0  0.00000000000E+00 -0.00000000000E+00 -0.10909152405E+04  0.10909152405E+04  0.25500000000E-02 0.  1.
    5000001    1    1    2    0    0  0.11185976712E+03 -0.58431165692E+02 -0.25105766843E+03  0.33808395630E+03  0.18800000000E+03 0.  0.
   -5000001    1    1    2    0    0 -0.11185976712E+03  0.58431165692E+02 -0.78024875180E+03  0.81244010444E+03  0.18800000000E+03 0.  0.
<mgrwt>
<rscale>  0 0.51001243E+03</rscale>
<asrwt>0</asrwt>
<pdfrwt beam="1">  1        2 0.15584502E+00 0.51001243E+03</pdfrwt>
<pdfrwt beam="2">  1       -2 0.85155464E-02 0.51001243E+03</pdfrwt>
<totfact> 0.22112060E+03</totfact>
</mgrwt>
</event>
<event>
 4    1  0.2346411E-005  0.6305787E+03  0.7818608E-02  0.9843920E-01
          2   -1    0    0  501    0  0.00000000000E+00  0.00000000000E+00  0.33098754769E+03  0.33098754770E+03  0.25500000000E-02 0.  1.
         -2   -1    0    0    0  501 -0.00000000000E+00 -0.00000000000E+00 -0.30033565857E+03  0.30033565858E+03  0.25500000000E-02 0. -1.
    5000001    1    1    2    0    0  0.99663065965E+02 -0.23256157934E+03  0.22097673245E+02  0.31599038287E+03  0.18800000000E+03 0.  0.
   -5000001    1    1    2    0    0 -0.99663065965E+02  0.23256157934E+03  0.85542158736E+01  0.31533282340E+03  0.18800000000E+03 0.  0.
<mgrwt>
<rscale>  0 0.63057866E+03</rscale>
<asrwt>0</asrwt>
<pdfrwt beam="1">  1        2 0.47283935E-01 0.63057866E+03</pdfrwt>
<pdfrwt beam="2">  1       -2 0.42905094E-01 0.63057866E+03</pdfrwt>
<totfact> 0.55431639E+02</totfact>
</mgrwt>
</event>
<event>
 4    1  0.2346411E-005  0.4573169E+03  0.7818608E-02  0.1025562E+00
         -2   -1    0    0    0  501 -0.00000000000E+00  0.00000000000E+00  0.77691403150E+02  0.77691403192E+02  0.25500000000E-02 0. -1.
          2   -1    0    0  501    0  0.00000000000E+00 -0.00000000000E+00 -0.67297910373E+03  0.67297910373E+03  0.25500000000E-02 0.  1.
    5000001    1    1    2    0    0 -0.10912802431E+03  0.70920986581E+02 -0.29533477284E+03  0.37350413663E+03  0.18800000000E+03 0.  0.
   -5000001    1    1    2    0    0  0.10912802431E+03 -0.70920986581E+02 -0.29995292774E+03  0.37716637030E+03  0.18800000000E+03 0.  0.
<mgrwt>
<rscale>  0 0.45731692E+03</rscale>
<asrwt>0</asrwt>
<pdfrwt beam="1">  1        2 0.96139868E-01 0.45731692E+03</pdfrwt>
<pdfrwt beam="2">  1       -2 0.11098772E-01 0.45731692E+03</pdfrwt>
<totfact> 0.27169711E+03</totfact>
</mgrwt>
</event>
<event>
 4    1  0.2346411E-005  0.4551650E+03  0.7818608E-02  0.1026193E+00
         -2   -1    0    0    0  501 -0.00000000000E+00  0.00000000000E+00  0.51951792724E+03  0.51951792725E+03  0.25500000000E-02 0. -1.
          2   -1    0    0  501    0  0.00000000000E+00 -0.00000000000E+00 -0.99695872500E+02  0.99695872533E+02  0.25500000000E-02 0.  1.
    5000001    1    1    2    0    0  0.31023417852E+02 -0.11088185369E+03  0.13304384287E+03  0.25749155726E+03  0.18800000000E+03 0.  0.
   -5000001    1    1    2    0    0 -0.31023417852E+02  0.11088185369E+03  0.28677821187E+03  0.36172224253E+03  0.18800000000E+03 0.  0.
<mgrwt>
<rscale>  0 0.45516499E+03</rscale>
<asrwt>0</asrwt>
<pdfrwt beam="1">  1        2 0.14242268E-01 0.45516499E+03</pdfrwt>
<pdfrwt beam="2">  1       -2 0.74216847E-01 0.45516499E+03</pdfrwt>
<totfact> 0.70203064E+02</totfact>
</mgrwt>
</event>
<event>
 4    1  0.2346411E-005  0.4014656E+03  0.7818608E-02  0.1043273E+00
         -2   -1    0    0    0  501 -0.00000000000E+00  0.00000000000E+00  0.35977926747E+02  0.35977926837E+02  0.25500000000E-02 0. -1.
          2   -1    0    0  501    0  0.00000000000E+00 -0.00000000000E+00 -0.11199551943E+04  0.11199551943E+04  0.25500000000E-02 0.  1.
    5000001    1    1    2    0    0 -0.11004518954E+02  0.58353543268E+02 -0.65061930471E+03  0.67983506464E+03  0.18800000000E+03 0.  0.
   -5000001    1    1    2    0    0  0.11004518954E+02 -0.58353543268E+02 -0.43335796288E+03  0.47609805654E+03  0.18800000000E+03 0.  0.
<mgrwt>
<rscale>  0 0.40146564E+03</rscale>
<asrwt>0</asrwt>
<pdfrwt beam="1">  1        2 0.15999358E+00 0.40146564E+03</pdfrwt>
<pdfrwt beam="2">  1       -2 0.51397045E-02 0.40146564E+03</pdfrwt>
<totfact> 0.46853420E+03</totfact>
</mgrwt>
</event>
<event>
 4    1  0.2346411E-005  0.4137565E+03  0.7818608E-02  0.1039118E+00
         -2   -1    0    0    0  501 -0.00000000000E+00  0.00000000000E+00  0.15852381831E+02  0.15852382036E+02  0.25500000000E-02 0. -1.
          2   -1    0    0  501    0  0.00000000000E+00 -0.00000000000E+00 -0.26998217382E+04  0.26998217382E+04  0.25500000000E-02 0.  1.
    5000001    1    1    2    0    0 -0.62687338767E+02  0.23343504077E+02 -0.17002788927E+04  0.17119482862E+04  0.18800000000E+03 0.  0.
   -5000001    1    1    2    0    0  0.62687338767E+02 -0.23343504077E+02 -0.98369046368E+03  0.10037258341E+04  0.18800000000E+03 0.  0.
<mgrwt>
<rscale>  0 0.41375648E+03</rscale>
<asrwt>0</asrwt>
<pdfrwt beam="1">  1        2 0.38568852E+00 0.41375648E+03</pdfrwt>
<pdfrwt beam="2">  1       -2 0.22646277E-02 0.41375648E+03</pdfrwt>
<totfact> 0.25313849E+03</totfact>
</mgrwt>
</event>
<event>
 4    1  0.2346411E-005  0.6048460E+03  0.7818608E-02  0.9895403E-01
         -2   -1    0    0    0  501 -0.00000000000E+00  0.00000000000E+00  0.32326787182E+02  0.32326787282E+02  0.25500000000E-02 0. -1.
          2   -1    0    0  501    0  0.00000000000E+00 -0.00000000000E+00 -0.28292223094E+04  0.28292223094E+04  0.25500000000E-02 0.  1.
    5000001    1    1    2    0    0  0.18993040500E+03 -0.12661773225E+03 -0.10988546899E+04  0.11379504552E+04  0.18800000000E+03 0.  0.
   -5000001    1    1    2    0    0 -0.18993040500E+03  0.12661773225E+03 -0.16980408323E+04  0.17235986415E+04  0.18800000000E+03 0.  0.
<mgrwt>
<rscale>  0 0.60484599E+03</rscale>
<asrwt>0</asrwt>
<pdfrwt beam="1">  1        2 0.40417446E+00 0.60484599E+03</pdfrwt>
<pdfrwt beam="2">  1       -2 0.46181142E-02 0.60484599E+03</pdfrwt>
<totfact> 0.72294319E+02</totfact>
</mgrwt>
</event>
<event>
 4    1  0.2346411E-005  0.5560220E+03  0.7818608E-02  0.1000110E+00
          2   -1    0    0  501    0  0.00000000000E+00  0.00000000000E+00  0.41569681051E+03  0.41569681052E+03  0.25500000000E-02 0.  1.
         -2   -1    0    0    0  501 -0.00000000000E+00 -0.00000000000E+00 -0.18592905058E+03  0.18592905060E+03  0.25500000000E-02 0. -1.
    5000001    1    1    2    0    0  0.67891494878E+02 -0.96457983286E+02 -0.66278123499E+02  0.23162510069E+03  0.18800000000E+03 0.  0.
   -5000001    1    1    2    0    0 -0.67891494878E+02  0.96457983286E+02  0.29604588343E+03  0.37000076042E+03  0.18800000000E+03 0.  0.
<mgrwt>
<rscale>  0 0.55602199E+03</rscale>
<asrwt>0</asrwt>
<pdfrwt beam="1">  1        2 0.59385259E-01 0.55602199E+03</pdfrwt>
<pdfrwt beam="2">  1       -2 0.26561293E-01 0.55602199E+03</pdfrwt>
<totfact> 0.10643792E+03</totfact>
</mgrwt>
</event>
<event>
 4    1  0.2346411E-005  0.1154304E+04  0.7818608E-02  0.9153822E-01
          2   -1    0    0  501    0  0.00000000000E+00  0.00000000000E+00  0.11940998862E+04  0.11940998862E+04  0.25500000000E-02 0.  1.
         -2   -1    0    0    0  501 -0.00000000000E+00 -0.00000000000E+00 -0.27895837581E+03  0.27895837583E+03  0.25500000000E-02 0. -1.
    5000001    1    1    2    0    0 -0.40371748411E+03 -0.21402304743E+03  0.83820962307E+03  0.97300207812E+03  0.18800000000E+03 0.  0.
   -5000001    1    1    2    0    0  0.40371748411E+03  0.21402304743E+03  0.76931887343E+02  0.50005618394E+03  0.18800000000E+03 0.  0.
<mgrwt>
<rscale>  0 0.11543035E+04</rscale>
<asrwt>0</asrwt>
<pdfrwt beam="1">  1        2 0.17058570E+00 0.11543035E+04</pdfrwt>
<pdfrwt beam="2">  1       -2 0.39851196E-01 0.11543035E+04</pdfrwt>
<totfact> 0.12685505E+02</totfact>
</mgrwt>
</event>
<event>
 4    1  0.2346411E-005  0.6813332E+03  0.7818608E-02  0.9749698E-01
         -2   -1    0    0    0  501 -0.00000000000E+00  0.00000000000E+00  0.75939563083E+02  0.75939563126E+02  0.25500000000E-02 0. -1.
          2   -1    0    0  501    0  0.00000000000E+00 -0.00000000000E+00 -0.15282382653E+04  0.15282382653E+04  0.25500000000E-02 0.  1.
    5000001    1    1    2    0    0  0.23185088271E+03  0.16243712708E+03 -0.66998186559E+03  0.75123921109E+03  0.18800000000E+03 0.  0.
   -5000001    1    1    2    0    0 -0.23185088271E+03 -0.16243712708E+03 -0.78231683662E+03  0.85293861733E+03  0.18800000000E+03 0.  0.
<mgrwt>
<rscale>  0 0.68133324E+03</rscale>
<asrwt>0</asrwt>
<pdfrwt beam="1">  1        2 0.21831973E+00 0.68133324E+03</pdfrwt>
<pdfrwt beam="2">  1       -2 0.10848510E-01 0.68133324E+03</pdfrwt>
<totfact> 0.85952890E+02</totfact>
</mgrwt>
</event>
<event>
 4    1  0.2346411E-005  0.5933995E+03  0.7818608E-02  0.9919195E-01
          2   -1    0    0  501    0  0.00000000000E+00  0.00000000000E+00  0.57405571460E+03  0.57405571461E+03  0.25500000000E-02 0.  1.
         -2   -1    0    0    0  501 -0.00000000000E+00 -0.00000000000E+00 -0.15334877007E+03  0.15334877009E+03  0.25500000000E-02 0. -1.
    5000001    1    1    2    0    0  0.24165866087E+02  0.16014681212E+03  0.40973679276E+03  0.47901902870E+03  0.18800000000E+03 0.  0.
   -5000001    1    1    2    0    0 -0.24165866087E+02 -0.16014681212E+03  0.10970151773E+02  0.24838545599E+03  0.18800000000E+03 0.  0.
<mgrwt>
<rscale>  0 0.59339949E+03</rscale>
<asrwt>0</asrwt>
<pdfrwt beam="1">  1        2 0.82007960E-01 0.59339949E+03</pdfrwt>
<pdfrwt beam="2">  1       -2 0.21906967E-01 0.59339949E+03</pdfrwt>
<totfact> 0.10405525E+03</totfact>
</mgrwt>
</event>
<event>
 4    1  0.2346411E-005  0.4202426E+03  0.7818608E-02  0.1036987E+00
         -2   -1    0    0    0  501 -0.00000000000E+00  0.00000000000E+00  0.95154133217E+02  0.95154133251E+02  0.25500000000E-02 0. -1.
          2   -1    0    0  501    0  0.00000000000E+00 -0.00000000000E+00 -0.46399413902E+03  0.46399413903E+03  0.25500000000E-02 0.  1.
    5000001    1    1    2    0    0 -0.73898381114E+02  0.57521568964E+02 -0.17629844022E+03  0.27421677857E+03  0.18800000000E+03 0.  0.
   -5000001    1    1    2    0    0  0.73898381114E+02 -0.57521568964E+02 -0.19254156558E+03  0.28493149370E+03  0.18800000000E+03 0.  0.
<mgrwt>
<rscale>  0 0.42024260E+03</rscale>
<asrwt>0</asrwt>
<pdfrwt beam="1">  1        2 0.66284876E-01 0.42024260E+03</pdfrwt>
<pdfrwt beam="2">  1       -2 0.13593448E-01 0.42024260E+03</pdfrwt>
<totfact> 0.29861621E+03</totfact>
</mgrwt>
</event>
<event>
 4    1  0.2346411E-005  0.6342607E+03  0.7818608E-02  0.9836769E-01
         -2   -1    0    0    0  501 -0.00000000000E+00  0.00000000000E+00  0.39135450457E+02  0.39135450540E+02  0.25500000000E-02 0. -1.
          2   -1    0    0  501    0  0.00000000000E+00 -0.00000000000E+00 -0.25698355932E+04  0.25698355932E+04  0.25500000000E-02 0.  1.
    5000001    1    1    2    0    0  0.34799512209E+02 -0.25297583761E+03 -0.12470035560E+04  0.12866894145E+04  0.18800000000E+03 0.  0.
   -5000001    1    1    2    0    0 -0.34799512209E+02  0.25297583761E+03 -0.12836965867E+04  0.13222816293E+04  0.18800000000E+03 0.  0.
<mgrwt>
<rscale>  0 0.63426075E+03</rscale>
<asrwt>0</asrwt>
<pdfrwt beam="1">  1        2 0.36711926E+00 0.63426075E+03</pdfrwt>
<pdfrwt beam="2">  1       -2 0.55907802E-02 0.63426075E+03</pdfrwt>
<totfact> 0.73282984E+02</totfact>
</mgrwt>
</event>
<event>
 4    1  0.2346411E-005  0.4309334E+03  0.7818608E-02  0.1033566E+00
         -2   -1    0    0    0  501 -0.00000000000E+00  0.00000000000E+00  0.31148024926E+02  0.31148025030E+02  0.25500000000E-02 0. -1.
          2   -1    0    0  501    0  0.00000000000E+00 -0.00000000000E+00 -0.14904926005E+04  0.14904926005E+04  0.25500000000E-02 0.  1.
    5000001    1    1    2    0    0  0.94459131299E+02  0.38108165530E+02 -0.82356998346E+03  0.85087383167E+03  0.18800000000E+03 0.  0.
   -5000001    1    1    2    0    0 -0.94459131299E+02 -0.38108165530E+02 -0.63577459206E+03  0.67076679381E+03  0.18800000000E+03 0.  0.
<mgrwt>
<rscale>  0 0.43093341E+03</rscale>
<asrwt>0</asrwt>
<pdfrwt beam="1">  1        2 0.21292747E+00 0.43093341E+03</pdfrwt>
<pdfrwt beam="2">  1       -2 0.44497188E-02 0.43093341E+03</pdfrwt>
<totfact> 0.36963663E+03</totfact>
</mgrwt>
</event>
<event>
 4    1  0.2346411E-005  0.5594708E+03  0.7818608E-02  0.9993253E-01
         -2   -1    0    0    0  501 -0.00000000000E+00  0.00000000000E+00  0.67348308791E+02  0.67348308839E+02  0.25500000000E-02 0. -1.
          2   -1    0    0  501    0  0.00000000000E+00 -0.00000000000E+00 -0.11618982256E+04  0.11618982257E+04  0.25500000000E-02 0.  1.
    5000001    1    1    2    0    0 -0.19500349303E+02  0.13832919744E+03 -0.21122695680E+03  0.31539825264E+03  0.18800000000E+03 0.  0.
   -5000001    1    1    2    0    0  0.19500349303E+02 -0.13832919744E+03 -0.88332296005E+03  0.91384828185E+03  0.18800000000E+03 0.  0.
<mgrwt>
<rscale>  0 0.55947075E+03</rscale>
<asrwt>0</asrwt>
<pdfrwt beam="1">  1        2 0.16598545E+00 0.55947075E+03</pdfrwt>
<pdfrwt beam="2">  1       -2 0.96211877E-02 0.55947075E+03</pdfrwt>
<totfact> 0.16542590E+03</totfact>
</mgrwt>
</event>
<event>
 4    1  0.2346411E-005  0.5149950E+03  0.7818608E-02  0.1009937E+00
         -2   -1    0    0    0  501 -0.00000000000E+00  0.00000000000E+00  0.25612327264E+03  0.25612327265E+03  0.25500000000E-02 0. -1.
          2   -1    0    0  501    0  0.00000000000E+00 -0.00000000000E+00 -0.25887905366E+03  0.25887905367E+03  0.25500000000E-02 0.  1.
    5000001    1    1    2    0    0  0.20236285902E+02  0.17348183383E+03  0.19964779238E+02  0.25738695838E+03  0.18800000000E+03 0.  0.
   -5000001    1    1    2    0    0 -0.20236285902E+02 -0.17348183383E+03 -0.22720560258E+02  0.25761536793E+03  0.18800000000E+03 0.  0.
<mgrwt>
<rscale>  0 0.51499495E+03</rscale>
<asrwt>0</asrwt>
<pdfrwt beam="1">  1        2 0.36982722E-01 0.51499495E+03</pdfrwt>
<pdfrwt beam="2">  1       -2 0.36589039E-01 0.51499495E+03</pdfrwt>
<totfact> 0.99064576E+02</totfact>
</mgrwt>
</event>
<event>
 4    1  0.2346411E-005  0.6871835E+03  0.7818608E-02  0.9739405E-01
          2   -1    0    0  501    0  0.00000000000E+00  0.00000000000E+00  0.64219093627E+03  0.64219093628E+03  0.25500000000E-02 0.  1.
         -2   -1    0    0    0  501 -0.00000000000E+00 -0.00000000000E+00 -0.18383206721E+03  0.18383206723E+03  0.25500000000E-02 0. -1.
    5000001    1    1    2    0    0 -0.19475730481E+03 -0.20740640208E+03  0.17870136702E+03  0.38500130126E+03  0.18800000000E+03 0.  0.
   -5000001    1    1    2    0    0  0.19475730481E+03  0.20740640208E+03  0.27965750204E+03  0.44102170224E+03  0.18800000000E+03 0.  0.
<mgrwt>
<rscale>  0 0.68718349E+03</rscale>
<asrwt>0</asrwt>
<pdfrwt beam="1">  1        2 0.91741562E-01 0.68718349E+03</pdfrwt>
<pdfrwt beam="2">  1       -2 0.26261724E-01 0.68718349E+03</pdfrwt>
<totfact> 0.65791895E+02</totfact>
</mgrwt>
</event>
<event>
 4    1  0.2346411E-005  0.7827959E+03  0.7818608E-02  0.9585259E-01
         -2   -1    0    0    0  501 -0.00000000000E+00  0.00000000000E+00  0.10059766380E+03  0.10059766383E+03  0.25500000000E-02 0. -1.
          2   -1    0    0  501    0  0.00000000000E+00 -0.00000000000E+00 -0.15228220466E+04  0.15228220466E+04  0.25500000000E-02 0.  1.
    5000001    1    1    2    0    0 -0.24934514397E+03  0.23062630660E+03 -0.81453272046E+03  0.90231316449E+03  0.18800000000E+03 0.  0.
   -5000001    1    1    2    0    0  0.24934514397E+03 -0.23062630660E+03 -0.60769166232E+03  0.72110654593E+03  0.18800000000E+03 0.  0.
<mgrwt>
<rscale>  0 0.78279586E+03</rscale>
<asrwt>0</asrwt>
<pdfrwt beam="1">  1        2 0.21754599E+00 0.78279586E+03</pdfrwt>
<pdfrwt beam="2">  1       -2 0.14371096E-01 0.78279586E+03</pdfrwt>
<totfact> 0.53994166E+02</totfact>
</mgrwt>
</event>
<event>
 4    1  0.2346411E-005  0.7610855E+03  0.7818608E-02  0.9618118E-01
          2   -1    0    0  501    0  0.00000000000E+00  0.00000000000E+00  0.13391068982E+04  0.13391068982E+04  0.25500000000E-02 0.  1.
         -2   -1    0    0    0  501 -0.00000000000E+00 -0.00000000000E+00 -0.10814131259E+03  0.10814131262E+03  0.25500000000E-02 0. -1.
    5000001    1    1    2    0    0 -0.15635467540E+03  0.26821898249E+03  0.83296459759E+03  0.90860454981E+03  0.18800000000E+03 0.  0.
   -5000001    1    1    2    0    0  0.15635467540E+03 -0.26821898249E+03  0.39800098801E+03  0.53864366100E+03  0.18800000000E+03 0.  0.
<mgrwt>
<rscale>  0 0.76108548E+03</rscale>
<asrwt>0</asrwt>
<pdfrwt beam="1">  1        2 0.19130097E+00 0.76108548E+03</pdfrwt>
<pdfrwt beam="2">  1       -2 0.15448760E-01 0.76108548E+03</pdfrwt>
<totfact> 0.59922095E+02</totfact>
</mgrwt>
</event>
<event>
 4    1  0.2346411E-005  0.4512158E+03  0.7818608E-02  0.1027360E+00
         -2   -1    0    0    0  501 -0.00000000000E+00  0.00000000000E+00  0.65026595251E+03  0.65026595251E+03  0.25500000000E-02 0. -1.
          2   -1    0    0  501    0  0.00000000000E+00 -0.00000000000E+00 -0.78273997800E+02  0.78273997841E+02  0.25500000000E-02 0.  1.
    5000001    1    1    2    0    0 -0.86432574656E+02  0.81330900566E+02  0.22409888910E+03  0.31567327642E+03  0.18800000000E+03 0.  0.
   -5000001    1    1    2    0    0  0.86432574656E+02 -0.81330900566E+02  0.34789306561E+03  0.41286667393E+03  0.18800000000E+03 0.  0.
<mgrwt>
<rscale>  0 0.45121576E+03</rscale>
<asrwt>0</asrwt>
<pdfrwt beam="1">  1        2 0.11182000E-01 0.45121576E+03</pdfrwt>
<pdfrwt beam="2">  1       -2 0.92895136E-01 0.45121576E+03</pdfrwt>
<totfact> 0.57075779E+02</totfact>
</mgrwt>
</event>
<event>
 4    1  0.2346411E-005  0.4684167E+03  0.7818608E-02  0.1022368E+00
         -2   -1    0    0    0  501 -0.00000000000E+00  0.00000000000E+00  0.32482825264E+02  0.32482825364E+02  0.25500000000E-02 0. -1.
          2   -1    0    0  501    0  0.00000000000E+00 -0.00000000000E+00 -0.16886936839E+04  0.16886936839E+04  0.25500000000E-02 0.  1.
    5000001    1    1    2    0    0 -0.30247560561E+02 -0.13541533434E+03 -0.88704744700E+03  0.91730551123E+03  0.18800000000E+03 0.  0.
   -5000001    1    1    2    0    0  0.30247560561E+02  0.13541533434E+03 -0.76916341167E+03  0.80387099808E+03  0.18800000000E+03 0.  0.
<mgrwt>
<rscale>  0 0.46841666E+03</rscale>
<asrwt>0</asrwt>
<pdfrwt beam="1">  1        2 0.24124190E+00 0.46841666E+03</pdfrwt>
<pdfrwt beam="2">  1       -2 0.46404047E-02 0.46841666E+03</pdfrwt>
<totfact> 0.27458998E+03</totfact>
</mgrwt>
</event>
<event>
 4    1  0.2346411E-005  0.5574194E+03  0.7818608E-02  0.9997911E-01
         -2   -1    0    0    0  501 -0.00000000000E+00  0.00000000000E+00  0.10776607065E+03  0.10776607068E+03  0.25500000000E-02 0.  1.
          2   -1    0    0  501    0  0.00000000000E+00 -0.00000000000E+00 -0.72081223633E+03  0.72081223634E+03  0.25500000000E-02 0. -1.
    5000001    1    1    2    0    0  0.16985981346E+03 -0.65531217543E+02 -0.44900886973E+03  0.51971113303E+03  0.18800000000E+03 0.  0.
   -5000001    1    1    2    0    0 -0.16985981346E+03  0.65531217543E+02 -0.16403729595E+03  0.30886717398E+03  0.18800000000E+03 0.  0.
<mgrwt>
<rscale>  0 0.55741942E+03</rscale>
<asrwt>0</asrwt>
<pdfrwt beam="1">  1        2 0.10297317E+00 0.55741942E+03</pdfrwt>
<pdfrwt beam="2">  1       -2 0.15395153E-01 0.55741942E+03</pdfrwt>
<totfact> 0.14555043E+03</totfact>
</mgrwt>
</event>
<event>
 4    1  0.2346411E-005  0.4713019E+03  0.7818608E-02  0.1021553E+00
         -2   -1    0    0    0  501 -0.00000000000E+00  0.00000000000E+00  0.20889983574E+02  0.20889983730E+02  0.25500000000E-02 0. -1.
          2   -1    0    0  501    0  0.00000000000E+00 -0.00000000000E+00 -0.26582776961E+04  0.26582776961E+04  0.25500000000E-02 0.  1.
    5000001    1    1    2    0    0  0.29719184214E+01  0.14159930118E+03 -0.12543338214E+04  0.12762274601E+04  0.18800000000E+03 0.  0.
   -5000001    1    1    2    0    0 -0.29719184214E+01 -0.14159930118E+03 -0.13830538911E+04  0.14029402197E+04  0.18800000000E+03 0.  0.
<mgrwt>
<rscale>  0 0.47130193E+03</rscale>
<asrwt>0</asrwt>
<pdfrwt beam="1">  1        2 0.37975374E+00 0.47130193E+03</pdfrwt>
<pdfrwt beam="2">  1       -2 0.29842851E-02 0.47130193E+03</pdfrwt>
<totfact> 0.17503410E+03</totfact>
</mgrwt>
</event>
<event>
 4    1  0.2346411E-005  0.1009416E+04  0.7818608E-02  0.9298277E-01
         -2   -1    0    0    0  501 -0.00000000000E+00  0.00000000000E+00  0.46733300045E+03  0.46733300046E+03  0.25500000000E-02 0. -1.
          2   -1    0    0  501    0  0.00000000000E+00 -0.00000000000E+00 -0.54507208557E+03  0.54507208557E+03  0.25500000000E-02 0.  1.
    5000001    1    1    2    0    0  0.36530944723E+03 -0.28684047841E+03  0.21788642346E+02  0.50154481079E+03  0.18800000000E+03 0.  0.
   -5000001    1    1    2    0    0 -0.36530944723E+03  0.28684047841E+03 -0.99527727464E+02  0.51086027525E+03  0.18800000000E+03 0.  0.
<mgrwt>
<rscale>  0 0.10094160E+04</rscale>
<asrwt>0</asrwt>
<pdfrwt beam="1">  1        2 0.77867441E-01 0.10094160E+04</pdfrwt>
<pdfrwt beam="2">  1       -2 0.66761857E-01 0.10094160E+04</pdfrwt>
<totfact> 0.12504399E+02</totfact>
</mgrwt>
</event>
<event>
 4    1  0.2346411E-005  0.4349824E+03  0.7818608E-02  0.1032298E+00
          2   -1    0    0  501    0  0.00000000000E+00  0.00000000000E+00  0.17511574032E+04  0.17511574032E+04  0.25500000000E-02 0.  1.
         -2   -1    0    0    0  501 -0.00000000000E+00 -0.00000000000E+00 -0.27012085157E+02  0.27012085277E+02  0.25500000000E-02 0. -1.
    5000001    1    1    2    0    0  0.94886919757E+02  0.24371191277E+01  0.10840634273E+04  0.11043310109E+04  0.18800000000E+03 0.  0.
   -5000001    1    1    2    0    0 -0.94886919757E+02 -0.24371191277E+01  0.64008189073E+03  0.67383847762E+03  0.18800000000E+03 0.  0.
<mgrwt>
<rscale>  0 0.43498236E+03</rscale>
<asrwt>0</asrwt>
<pdfrwt beam="1">  1        2 0.25016536E+00 0.43498236E+03</pdfrwt>
<pdfrwt beam="2">  1       -2 0.38588691E-02 0.43498236E+03</pdfrwt>
<totfact> 0.33888729E+03</totfact>
</mgrwt>
</event>
<event>
 4    1  0.2346411E-005  0.6824453E+03  0.7818608E-02  0.9747733E-01
          2   -1    0    0  501    0  0.00000000000E+00  0.00000000000E+00  0.34083172342E+03  0.34083172343E+03  0.25500000000E-02 0.  1.
         -2   -1    0    0    0  501 -0.00000000000E+00 -0.00000000000E+00 -0.34161400857E+03  0.34161400858E+03  0.25500000000E-02 0. -1.
    5000001    1    1    2    0    0  0.51308414947E+02 -0.26228609606E+03  0.97906132876E+02  0.34111018818E+03  0.18800000000E+03 0.  0.
   -5000001    1    1    2    0    0 -0.51308414947E+02  0.26228609606E+03 -0.98688418019E+02  0.34133554383E+03  0.18800000000E+03 0.  0.
<mgrwt>
<rscale>  0 0.68244528E+03</rscale>
<asrwt>0</asrwt>
<pdfrwt beam="1">  1        2 0.48690246E-01 0.68244528E+03</pdfrwt>
<pdfrwt beam="2">  1       -2 0.48802001E-01 0.68244528E+03</pdfrwt>
<totfact> 0.41461527E+02</totfact>
</mgrwt>
</event>
<event>
 4    1  0.2346411E-005  0.4421024E+03  0.7818608E-02  0.1030104E+00
         -2   -1    0    0    0  501 -0.00000000000E+00  0.00000000000E+00  0.30482715999E+02  0.30482716105E+02  0.25500000000E-02 0. -1.
          2   -1    0    0  501    0  0.00000000000E+00 -0.00000000000E+00 -0.16029947404E+04  0.16029947404E+04  0.25500000000E-02 0.  1.
    5000001    1    1    2    0    0 -0.10149325431E+03 -0.36472152981E+02 -0.62569031206E+03  0.66216573848E+03  0.18800000000E+03 0.  0.
   -5000001    1    1    2    0    0  0.10149325431E+03  0.36472152981E+02 -0.94682171237E+03  0.97131171805E+03  0.18800000000E+03 0.  0.
<mgrwt>
<rscale>  0 0.44210240E+03</rscale>
<asrwt>0</asrwt>
<pdfrwt beam="1">  1        2 0.22899920E+00 0.44210240E+03</pdfrwt>
<pdfrwt beam="2">  1       -2 0.43546747E-02 0.44210240E+03</pdfrwt>
<totfact> 0.33462777E+03</totfact>
</mgrwt>
</event>
<event>
 4    1  0.2346411E-005  0.3998130E+03  0.7818608E-02  0.1043844E+00
         -2   -1    0    0    0  501 -0.00000000000E+00  0.00000000000E+00  0.98078787882E+02  0.98078787915E+02  0.25500000000E-02 0. -1.
          2   -1    0    0  501    0  0.00000000000E+00 -0.00000000000E+00 -0.40745420420E+03  0.40745420421E+03  0.25500000000E-02 0.  1.
    5000001    1    1    2    0    0 -0.14783348237E+02  0.62705699939E+02 -0.18204319108E+03  0.26950746856E+03  0.18800000000E+03 0.  0.
   -5000001    1    1    2    0    0  0.14783348237E+02 -0.62705699939E+02 -0.12733222524E+03  0.23602552356E+03  0.18800000000E+03 0.  0.
<mgrwt>
<rscale>  0 0.39981303E+03</rscale>
<asrwt>0</asrwt>
<pdfrwt beam="1">  1        2 0.58207742E-01 0.39981303E+03</pdfrwt>
<pdfrwt beam="2">  1       -2 0.14011256E-01 0.39981303E+03</pdfrwt>
<totfact> 0.32761096E+03</totfact>
</mgrwt>
</event>
<event>
 4    1  0.2346411E-005  0.6362771E+03  0.7818608E-02  0.9832875E-01
         -2   -1    0    0    0  501 -0.00000000000E+00  0.00000000000E+00  0.32421560397E+03  0.32421560398E+03  0.25500000000E-02 0. -1.
          2   -1    0    0  501    0  0.00000000000E+00 -0.00000000000E+00 -0.31217540036E+03  0.31217540037E+03  0.25500000000E-02 0.  1.
    5000001    1    1    2    0    0 -0.24686981899E+03  0.48403515148E+01 -0.63992425778E+02  0.31687089972E+03  0.18800000000E+03 0.  0.
   -5000001    1    1    2    0    0  0.24686981899E+03 -0.48403515148E+01  0.76032629389E+02  0.31952010463E+03  0.18800000000E+03 0.  0.
<mgrwt>
<rscale>  0 0.63627710E+03</rscale>
<asrwt>0</asrwt>
<pdfrwt beam="1">  1        2 0.44596485E-01 0.63627710E+03</pdfrwt>
<pdfrwt beam="2">  1       -2 0.46316515E-01 0.63627710E+03</pdfrwt>
<totfact> 0.50805280E+02</totfact>
</mgrwt>
</event>
<event>
 4    1  0.2346411E-005  0.5871078E+03  0.7818608E-02  0.9932520E-01
          2   -1    0    0  501    0  0.00000000000E+00  0.00000000000E+00  0.95913043646E+03  0.95913043646E+03  0.25500000000E-02 0.  1.
         -2   -1    0    0    0  501 -0.00000000000E+00 -0.00000000000E+00 -0.89845850382E+02  0.89845850418E+02  0.25500000000E-02 0. -1.
    5000001    1    1    2    0    0  0.29743065853E+02  0.17390297660E+03  0.68543444644E+03  0.73231910777E+03  0.18800000000E+03 0.  0.
   -5000001    1    1    2    0    0 -0.29743065853E+02 -0.17390297660E+03  0.18385013964E+03  0.31665717911E+03  0.18800000000E+03 0.  0.
<mgrwt>
<rscale>  0 0.58710779E+03</rscale>
<asrwt>0</asrwt>
<pdfrwt beam="1">  1        2 0.13701863E+00 0.58710779E+03</pdfrwt>
<pdfrwt beam="2">  1       -2 0.12835122E-01 0.58710779E+03</pdfrwt>
<totfact> 0.13612176E+03</totfact>
</mgrwt>
</event>
<event>
 4    1  0.2346411E-005  0.7463603E+03  0.7818608E-02  0.9641078E-01
          2   -1    0    0  501    0  0.00000000000E+00  0.00000000000E+00  0.87292565322E+03  0.87292565322E+03  0.25500000000E-02 0.  1.
         -2   -1    0    0    0  501 -0.00000000000E+00 -0.00000000000E+00 -0.15953641481E+03  0.15953641483E+03  0.25500000000E-02 0. -1.
    5000001    1    1    2    0    0 -0.19773427877E+03 -0.23401200291E+03  0.49543479815E+03  0.61209484700E+03  0.18800000000E+03 0.  0.
   -5000001    1    1    2    0    0  0.19773427877E+03  0.23401200291E+03  0.21795444026E+03  0.42036722105E+03  0.18800000000E+03 0.  0.
<mgrwt>
<rscale>  0 0.74636031E+03</rscale>
<asrwt>0</asrwt>
<pdfrwt beam="1">  1        2 0.12470367E+00 0.74636031E+03</pdfrwt>
<pdfrwt beam="2">  1       -2 0.22790916E-01 0.74636031E+03</pdfrwt>
<totfact> 0.57552635E+02</totfact>
</mgrwt>
</event>
<event>
 4    1  0.2346411E-005  0.7362578E+03  0.7818608E-02  0.9657160E-01
          2   -1    0    0  501    0  0.00000000000E+00  0.00000000000E+00  0.30835435118E+04  0.30835435118E+04  0.25500000000E-02 0.  1.
         -2   -1    0    0    0  501 -0.00000000000E+00 -0.00000000000E+00 -0.43949071771E+02  0.43949071845E+02  0.25500000000E-02 0. -1.
    5000001    1    1    2    0    0 -0.29814216596E+03  0.13169639483E+02  0.19675887707E+04  0.19989526660E+04  0.18800000000E+03 0.  0.
   -5000001    1    1    2    0    0  0.29814216596E+03 -0.13169639483E+02  0.10720056693E+04  0.11285399176E+04  0.18800000000E+03 0.  0.
<mgrwt>
<rscale>  0 0.73625777E+03</rscale>
<asrwt>0</asrwt>
<pdfrwt beam="1">  1        2 0.44050624E+00 0.73625777E+03</pdfrwt>
<pdfrwt beam="2">  1       -2 0.62784385E-02 0.73625777E+03</pdfrwt>
<totfact> 0.32178525E+02</totfact>
</mgrwt>
</event>
<event>
 4    1  0.2346411E-005  0.4530563E+03  0.7818608E-02  0.1026815E+00
         -2   -1    0    0    0  501 -0.00000000000E+00  0.00000000000E+00  0.72365242783E+02  0.72365242828E+02  0.25500000000E-02 0. -1.
          2   -1    0    0  501    0  0.00000000000E+00 -0.00000000000E+00 -0.70911122864E+03  0.70911122864E+03  0.25500000000E-02 0.  1.
    5000001    1    1    2    0    0  0.62360635064E+02 -0.10977793279E+03 -0.30877490812E+03  0.38291772904E+03  0.18800000000E+03 0.  0.
   -5000001    1    1    2    0    0 -0.62360635064E+02  0.10977793279E+03 -0.32797107774E+03  0.39855874243E+03  0.18800000000E+03 0.  0.
<mgrwt>
<rscale>  0 0.45305632E+03</rscale>
<asrwt>0</asrwt>
<pdfrwt beam="1">  1        2 0.10130160E+00 0.45305632E+03</pdfrwt>
<pdfrwt beam="2">  1       -2 0.10337892E-01 0.45305632E+03</pdfrwt>
<totfact> 0.28614455E+03</totfact>
</mgrwt>
</event>
<event>
 4    1  0.2346411E-005  0.5002376E+03  0.7818608E-02  0.1013717E+00
          2   -1    0    0  501    0  0.00000000000E+00  0.00000000000E+00  0.26836986839E+03  0.26836986840E+03  0.25500000000E-02 0.  1.
         -2   -1    0    0    0  501 -0.00000000000E+00 -0.00000000000E+00 -0.23310890904E+03  0.23310890906E+03  0.25500000000E-02 0. -1.
    5000001    1    1    2    0    0  0.12662643860E+03 -0.74420938080E+02 -0.57673654168E+02  0.24544445678E+03  0.18800000000E+03 0.  0.
   -5000001    1    1    2    0    0 -0.12662643860E+03  0.74420938080E+02  0.92934613511E+02  0.25603432068E+03  0.18800000000E+03 0.  0.
<mgrwt>
<rscale>  0 0.50023757E+03</rscale>
<asrwt>0</asrwt>
<pdfrwt beam="1">  1        2 0.38338553E-01 0.50023757E+03</pdfrwt>
<pdfrwt beam="2">  1       -2 0.33301273E-01 0.50023757E+03</pdfrwt>
<totfact> 0.11372807E+03</totfact>
</mgrwt>
</event>
<event>
 4    1  0.2346411E-005  0.4568300E+03  0.7818608E-02  0.1025705E+00
         -2   -1    0    0    0  501 -0.00000000000E+00  0.00000000000E+00  0.20889664665E+03  0.20889664666E+03  0.25500000000E-02 0. -1.
          2   -1    0    0  501    0  0.00000000000E+00 -0.00000000000E+00 -0.24975701984E+03  0.24975701985E+03  0.25500000000E-02 0.  1.
    5000001    1    1    2    0    0  0.35594006557E+02 -0.12220442965E+03  0.47407578664E+01  0.22708441319E+03  0.18800000000E+03 0.  0.
   -5000001    1    1    2    0    0 -0.35594006557E+02  0.12220442965E+03 -0.45601131055E+02  0.23156925332E+03  0.18800000000E+03 0.  0.
<mgrwt>
<rscale>  0 0.45682996E+03</rscale>
<asrwt>0</asrwt>
<pdfrwt beam="1">  1        2 0.35679574E-01 0.45682996E+03</pdfrwt>
<pdfrwt beam="2">  1       -2 0.29842378E-01 0.45682996E+03</pdfrwt>
<totfact> 0.15079239E+03</totfact>
</mgrwt>
</event>
<event>
 4    1  0.2346411E-005  0.4407764E+03  0.7818608E-02  0.1030509E+00
          2   -1    0    0  501    0  0.00000000000E+00  0.00000000000E+00  0.13595125573E+04  0.13595125573E+04  0.25500000000E-02 0.  1.
         -2   -1    0    0    0  501 -0.00000000000E+00 -0.00000000000E+00 -0.35726749013E+02  0.35726749104E+02  0.25500000000E-02 0. -1.
    5000001    1    1    2    0    0 -0.74182242608E+02  0.41970006978E+02  0.41746897701E+03  0.46571325230E+03  0.18800000000E+03 0.  0.
   -5000001    1    1    2    0    0  0.74182242608E+02 -0.41970006978E+02  0.90631683131E+03  0.92952605413E+03  0.18800000000E+03 0.  0.
<mgrwt>
<rscale>  0 0.44077642E+03</rscale>
<asrwt>0</asrwt>
<pdfrwt beam="1">  1        2 0.19421608E+00 0.44077642E+03</pdfrwt>
<pdfrwt beam="2">  1       -2 0.51038212E-02 0.44077642E+03</pdfrwt>
<totfact> 0.35048563E+03</totfact>
</mgrwt>
</event>
<event>
 4    1  0.2346411E-005  0.5859523E+03  0.7818608E-02  0.9934987E-01
          2   -1    0    0  501    0  0.00000000000E+00  0.00000000000E+00  0.18072091853E+03  0.18072091854E+03  0.25500000000E-02 0. -1.
         -2   -1    0    0    0  501 -0.00000000000E+00 -0.00000000000E+00 -0.47495898167E+03  0.47495898168E+03  0.25500000000E-02 0.  1.
    5000001    1    1    2    0    0 -0.35938749059E+02  0.19061821100E+03 -0.20202037975E+02  0.27088561864E+03  0.18800000000E+03 0.  0.
   -5000001    1    1    2    0    0  0.35938749059E+02 -0.19061821100E+03 -0.27403602517E+03  0.38479428158E+03  0.18800000000E+03 0.  0.
<mgrwt>
<rscale>  0 0.58595230E+03</rscale>
<asrwt>0</asrwt>
<pdfrwt beam="1">  1        2 0.25817274E-01 0.58595230E+03</pdfrwt>
<pdfrwt beam="2">  1       -2 0.67851283E-01 0.58595230E+03</pdfrwt>
<totfact> 0.42407353E+02</totfact>
</mgrwt>
</event>
<event>
 4    1  0.2346411E-005  0.6730937E+03  0.7818608E-02  0.9764385E-01
         -2   -1    0    0    0  501 -0.00000000000E+00  0.00000000000E+00  0.98348202072E+02  0.98348202105E+02  0.25500000000E-02 0. -1.
          2   -1    0    0  501    0  0.00000000000E+00 -0.00000000000E+00 -0.11516608285E+04  0.11516608285E+04  0.25500000000E-02 0.  1.
    5000001    1    1    2    0    0 -0.32234578300E+01  0.27760032304E+03 -0.47259425158E+03  0.57944944271E+03  0.18800000000E+03 0.  0.
   -5000001    1    1    2    0    0  0.32234578300E+01 -0.27760032304E+03 -0.58071837483E+03  0.67055958787E+03  0.18800000000E+03 0.  0.
<mgrwt>
<rscale>  0 0.67309367E+03</rscale>
<asrwt>0</asrwt>
<pdfrwt beam="1">  1        2 0.16452297E+00 0.67309367E+03</pdfrwt>
<pdfrwt beam="2">  1       -2 0.14049744E-01 0.67309367E+03</pdfrwt>
<totfact> 0.89724074E+02</totfact>
</mgrwt>
</event>
<event>
 4    1  0.2346411E-005  0.5861304E+03  0.7818608E-02  0.9934606E-01
         -2   -1    0    0    0  501 -0.00000000000E+00  0.00000000000E+00  0.37164629655E+02  0.37164629743E+02  0.25500000000E-02 0. -1.
          2   -1    0    0  501    0  0.00000000000E+00 -0.00000000000E+00 -0.23109936283E+04  0.23109936283E+04  0.25500000000E-02 0.  1.
    5000001    1    1    2    0    0 -0.49822796462E+02 -0.21484268243E+03 -0.13117031848E+04  0.13433350045E+04  0.18800000000E+03 0.  0.
   -5000001    1    1    2    0    0  0.49822796462E+02  0.21484268243E+03 -0.96212581383E+03  0.10048232535E+04  0.18800000000E+03 0.  0.
<mgrwt>
<rscale>  0 0.58613044E+03</rscale>
<asrwt>0</asrwt>
<pdfrwt beam="1">  1        2 0.33014186E+00 0.58613044E+03</pdfrwt>
<pdfrwt beam="2">  1       -2 0.53092343E-02 0.58613044E+03</pdfrwt>
<totfact> 0.10809194E+03</totfact>
</mgrwt>
</event>
<event>
 4    1  0.2346411E-005  0.6345331E+03  0.7818608E-02  0.9836242E-01
          2   -1    0    0  501    0  0.00000000000E+00  0.00000000000E+00  0.15900319296E+04  0.15900319296E+04  0.25500000000E-02 0.  1.
         -2   -1    0    0    0  501 -0.00000000000E+00 -0.00000000000E+00 -0.63305691398E+02  0.63305691450E+02  0.25500000000E-02 0. -1.
    5000001    1    1    2    0    0 -0.10824811143E+03  0.11372078600E+03  0.12887900140E+04  0.13118588990E+04  0.18800000000E+03 0.  0.
   -5000001    1    1    2    0    0  0.10824811143E+03 -0.11372078600E+03  0.23793622418E+03  0.34147872200E+03  0.18800000000E+03 0.  0.
<mgrwt>
<rscale>  0 0.63453312E+03</rscale>
<asrwt>0</asrwt>
<pdfrwt beam="1">  1        2 0.22714744E+00 0.63453312E+03</pdfrwt>
<pdfrwt beam="2">  1       -2 0.90436695E-02 0.63453312E+03</pdfrwt>
<totfact> 0.10748934E+03</totfact>
</mgrwt>
</event>
<event>
 4    1  0.2346411E-005  0.5295004E+03  0.7818608E-02  0.1006353E+00
         -2   -1    0    0    0  501 -0.00000000000E+00  0.00000000000E+00  0.30573089002E+04  0.30573089002E+04  0.25500000000E-02 0. -1.
          2   -1    0    0  501    0  0.00000000000E+00 -0.00000000000E+00 -0.22926259193E+02  0.22926259334E+02  0.25500000000E-02 0.  1.
    5000001    1    1    2    0    0  0.13664078764E+03  0.59001047971E+02  0.21700936495E+04  0.21833007754E+04  0.18800000000E+03 0.  0.
   -5000001    1    1    2    0    0 -0.13664078764E+03 -0.59001047971E+02  0.86428899159E+03  0.89693438416E+03  0.18800000000E+03 0.  0.
<mgrwt>
<rscale>  0 0.52950036E+03</rscale>
<asrwt>0</asrwt>
<pdfrwt beam="1">  1        2 0.32751844E-02 0.52950036E+03</pdfrwt>
<pdfrwt beam="2">  1       -2 0.43675781E+00 0.52950036E+03</pdfrwt>
<totfact> 0.13822744E+01</totfact>
</mgrwt>
</event>
<event>
 4    1  0.2346411E-005  0.4924027E+03  0.7818608E-02  0.1015781E+00
         -2   -1    0    0    0  501 -0.00000000000E+00  0.00000000000E+00  0.29459782295E+03  0.29459782297E+03  0.25500000000E-02 0. -1.
          2   -1    0    0  501    0  0.00000000000E+00 -0.00000000000E+00 -0.20575544936E+03  0.20575544938E+03  0.25500000000E-02 0.  1.
    5000001    1    1    2    0    0  0.12258734549E+03 -0.43786792392E+02  0.13714234918E+03  0.26664014027E+03  0.18800000000E+03 0.  0.
   -5000001    1    1    2    0    0 -0.12258734549E+03  0.43786792392E+02 -0.48299975590E+02  0.23371313207E+03  0.18800000000E+03 0.  0.
<mgrwt>
<rscale>  0 0.49240271E+03</rscale>
<asrwt>0</asrwt>
<pdfrwt beam="1">  1        2 0.29393636E-01 0.49240271E+03</pdfrwt>
<pdfrwt beam="2">  1       -2 0.42085403E-01 0.49240271E+03</pdfrwt>
<totfact> 0.97635233E+02</totfact>
</mgrwt>
</event>
<event>
 4    1  0.2346411E-005  0.6046982E+03  0.7818608E-02  0.9895707E-01
         -2   -1    0    0    0  501 -0.00000000000E+00  0.00000000000E+00  0.13765354613E+03  0.13765354615E+03  0.25500000000E-02 0.  1.
          2   -1    0    0  501    0  0.00000000000E+00 -0.00000000000E+00 -0.66409452862E+03  0.66409452862E+03  0.25500000000E-02 0. -1.
    5000001    1    1    2    0    0  0.61393062662E+02 -0.19235780901E+03 -0.99218279704E+02  0.29318748585E+03  0.18800000000E+03 0.  0.
   -5000001    1    1    2    0    0 -0.61393062662E+02  0.19235780901E+03 -0.42722270278E+03  0.50856058892E+03  0.18800000000E+03 0.  0.
<mgrwt>
<rscale>  0 0.60469816E+03</rscale>
<asrwt>0</asrwt>
<pdfrwt beam="1">  1        2 0.94870645E-01 0.60469816E+03</pdfrwt>
<pdfrwt beam="2">  1       -2 0.19664793E-01 0.60469816E+03</pdfrwt>
<totfact> 0.10575483E+03</totfact>
</mgrwt>
</event>
<event>
 4    1  0.2346411E-005  0.7805876E+03  0.7818608E-02  0.9588549E-01
         -2   -1    0    0    0  501 -0.00000000000E+00  0.00000000000E+00  0.85869048689E+02  0.85869048727E+02  0.25500000000E-02 0. -1.
          2   -1    0    0  501    0  0.00000000000E+00 -0.00000000000E+00 -0.17739714749E+04  0.17739714749E+04  0.25500000000E-02 0.  1.
    5000001    1    1    2    0    0 -0.27655656123E+03  0.23295994990E+02 -0.36777222970E+03  0.49762098818E+03  0.18800000000E+03 0.  0.
   -5000001    1    1    2    0    0  0.27655656123E+03 -0.23295994990E+02 -0.13203301965E+04  0.13622195355E+04  0.18800000000E+03 0.  0.
<mgrwt>
<rscale>  0 0.78058758E+03</rscale>
<asrwt>0</asrwt>
<pdfrwt beam="1">  1        2 0.25342447E+00 0.78058758E+03</pdfrwt>
<pdfrwt beam="2">  1       -2 0.12267008E-01 0.78058758E+03</pdfrwt>
<totfact> 0.52194037E+02</totfact>
</mgrwt>
</event>
<event>
 4    1  0.2346411E-005  0.5862547E+03  0.7818608E-02  0.9934341E-01
          2   -1    0    0  501    0  0.00000000000E+00  0.00000000000E+00  0.31213316387E+03  0.31213316388E+03  0.25500000000E-02 0.  1.
         -2   -1    0    0    0  501 -0.00000000000E+00 -0.00000000000E+00 -0.27527876370E+03  0.27527876371E+03  0.25500000000E-02 0. -1.
    5000001    1    1    2    0    0 -0.14751030821E+03  0.16199633301E+03 -0.32442384800E+02  0.29051439081E+03  0.18800000000E+03 0.  0.
   -5000001    1    1    2    0    0  0.14751030821E+03 -0.16199633301E+03  0.69296784974E+02  0.29689753678E+03  0.18800000000E+03 0.  0.
<mgrwt>
<rscale>  0 0.58625466E+03</rscale>
<asrwt>0</asrwt>
<pdfrwt beam="1">  1        2 0.44590452E-01 0.58625466E+03</pdfrwt>
<pdfrwt beam="2">  1       -2 0.39325537E-01 0.58625466E+03</pdfrwt>
<totfact> 0.70146526E+02</totfact>
</mgrwt>
</event>
<event>
 4    1  0.2346411E-005  0.4635619E+03  0.7818608E-02  0.1023753E+00
         -2   -1    0    0    0  501 -0.00000000000E+00  0.00000000000E+00  0.10201145621E+02  0.10201145939E+02  0.25500000000E-02 0. -1.
          2   -1    0    0  501    0  0.00000000000E+00 -0.00000000000E+00 -0.52663119997E+04  0.52663119997E+04  0.25500000000E-02 0.  1.
    5000001    1    1    2    0    0  0.27440112868E+02  0.13246163513E+03 -0.27294635012E+04  0.27392725401E+04  0.18800000000E+03 0.  0.
   -5000001    1    1    2    0    0 -0.27440112868E+02 -0.13246163513E+03 -0.25266473529E+04  0.25372406056E+04  0.18800000000E+03 0.  0.
<mgrwt>
<rscale>  0 0.46356193E+03</rscale>
<asrwt>0</asrwt>
<pdfrwt beam="1">  1        2 0.75232854E+00 0.46356193E+03</pdfrwt>
<pdfrwt beam="2">  1       -2 0.14573099E-02 0.46356193E+03</pdfrwt>
<totfact> 0.78045473E+01</totfact>
</mgrwt>
</event>
<event>
 4    1  0.2346411E-005  0.9231112E+03  0.7818608E-02  0.9397144E-01
         -2   -1    0    0    0  501 -0.00000000000E+00  0.00000000000E+00  0.68879542891E+02  0.68879542938E+02  0.25500000000E-02 0. -1.
          2   -1    0    0  501    0  0.00000000000E+00 -0.00000000000E+00 -0.30928424593E+04  0.30928424593E+04  0.25500000000E-02 0.  1.
    5000001    1    1    2    0    0  0.16728939000E+03 -0.27429449619E+03 -0.24466330143E+04  0.24747889440E+04  0.18800000000E+03 0.  0.
   -5000001    1    1    2    0    0 -0.16728939000E+03  0.27429449619E+03 -0.57732990212E+03  0.68693305826E+03  0.18800000000E+03 0.  0.
<mgrwt>
<rscale>  0 0.92311121E+03</rscale>
<asrwt>0</asrwt>
<pdfrwt beam="1">  1        2 0.44183455E+00 0.92311121E+03</pdfrwt>
<pdfrwt beam="2">  1       -2 0.98399367E-02 0.92311121E+03</pdfrwt>
<totfact> 0.15198060E+02</totfact>
</mgrwt>
</event>
<event>
 4    1  0.2346411E-005  0.1004754E+04  0.7818608E-02  0.9303346E-01
          2   -1    0    0  501    0  0.00000000000E+00  0.00000000000E+00  0.32655251399E+03  0.32655251400E+03  0.25500000000E-02 0.  1.
         -2   -1    0    0    0  501 -0.00000000000E+00 -0.00000000000E+00 -0.77286994631E+03  0.77286994632E+03  0.25500000000E-02 0. -1.
    5000001    1    1    2    0    0 -0.21626509263E+02  0.37899527246E+03  0.72348721326E+02  0.42974813545E+03  0.18800000000E+03 0.  0.
   -5000001    1    1    2    0    0  0.21626509263E+02 -0.37899527246E+03 -0.51866615365E+03  0.66967432487E+03  0.18800000000E+03 0.  0.
<mgrwt>
<rscale>  0 0.10047539E+04</rscale>
<asrwt>0</asrwt>
<pdfrwt beam="1">  1        2 0.46650360E-01 0.10047539E+04</pdfrwt>
<pdfrwt beam="2">  1       -2 0.11040999E+00 0.10047539E+04</pdfrwt>
<totfact> 0.70545132E+01</totfact>
</mgrwt>
</event>
<event>
 4    1  0.2346411E-005  0.5682284E+03  0.7818608E-02  0.9973607E-01
         -2   -1    0    0    0  501 -0.00000000000E+00  0.00000000000E+00  0.65646049619E+02  0.65646049668E+02  0.25500000000E-02 0. -1.
          2   -1    0    0  501    0  0.00000000000E+00 -0.00000000000E+00 -0.12296378992E+04  0.12296378992E+04  0.25500000000E-02 0.  1.
    5000001    1    1    2    0    0 -0.12413916177E+03 -0.15202860285E+03 -0.77070935517E+03  0.81722710290E+03  0.18800000000E+03 0.  0.
   -5000001    1    1    2    0    0  0.12413916177E+03  0.15202860285E+03 -0.39328249440E+03  0.47805684596E+03  0.18800000000E+03 0.  0.
<mgrwt>
<rscale>  0 0.56822837E+03</rscale>
<asrwt>0</asrwt>
<pdfrwt beam="1">  1        2 0.17566254E+00 0.56822837E+03</pdfrwt>
<pdfrwt beam="2">  1       -2 0.93780079E-02 0.56822837E+03</pdfrwt>
<totfact> 0.15794741E+03</totfact>
</mgrwt>
</event>
<event>
 4    1  0.2346411E-005  0.4360861E+03  0.7818608E-02  0.1031954E+00
          2   -1    0    0  501    0  0.00000000000E+00  0.00000000000E+00  0.26301139351E+03  0.26301139352E+03  0.25500000000E-02 0.  1.
         -2   -1    0    0    0  501 -0.00000000000E+00 -0.00000000000E+00 -0.18076319525E+03  0.18076319527E+03  0.25500000000E-02 0. -1.
    5000001    1    1    2    0    0 -0.97678770578E+02  0.51380916364E+02  0.45398038239E+02  0.22267941679E+03  0.18800000000E+03 0.  0.
   -5000001    1    1    2    0    0  0.97678770578E+02 -0.51380916364E+02  0.36850160016E+02  0.22109517200E+03  0.18800000000E+03 0.  0.
<mgrwt>
<rscale>  0 0.43608614E+03</rscale>
<asrwt>0</asrwt>
<pdfrwt beam="1">  1        2 0.37573056E-01 0.43608614E+03</pdfrwt>
<pdfrwt beam="2">  1       -2 0.25823314E-01 0.43608614E+03</pdfrwt>
<totfact> 0.18509740E+03</totfact>
</mgrwt>
</event>
<event>
 4    1  0.2346411E-005  0.5616052E+03  0.7818608E-02  0.9988429E-01
         -2   -1    0    0    0  501 -0.00000000000E+00  0.00000000000E+00  0.61859021824E+02  0.61859021876E+02  0.25500000000E-02 0. -1.
          2   -1    0    0  501    0  0.00000000000E+00 -0.00000000000E+00 -0.12746741520E+04  0.12746741520E+04  0.25500000000E-02 0.  1.
    5000001    1    1    2    0    0  0.73799251217E+02 -0.18854450963E+03 -0.48716013183E+03  0.56005745745E+03  0.18800000000E+03 0.  0.
   -5000001    1    1    2    0    0 -0.73799251217E+02  0.18854450963E+03 -0.72565499836E+03  0.77647571645E+03  0.18800000000E+03 0.  0.
<mgrwt>
<rscale>  0 0.56160519E+03</rscale>
<asrwt>0</asrwt>
<pdfrwt beam="1">  1        2 0.18209629E+00 0.56160519E+03</pdfrwt>
<pdfrwt beam="2">  1       -2 0.88370039E-02 0.56160519E+03</pdfrwt>
<totfact> 0.16416247E+03</totfact>
</mgrwt>
</event>
<event>
 4    1  0.2346411E-005  0.5725420E+03  0.7818608E-02  0.9964069E-01
         -2   -1    0    0    0  501 -0.00000000000E+00  0.00000000000E+00  0.25025091437E+02  0.25025091567E+02  0.25500000000E-02 0. -1.
          2   -1    0    0  501    0  0.00000000000E+00 -0.00000000000E+00 -0.32747570945E+04  0.32747570945E+04  0.25500000000E-02 0.  1.
    5000001    1    1    2    0    0  0.14083687381E+03  0.11724638503E+03 -0.22826339355E+04  0.22976821850E+04  0.18800000000E+03 0.  0.
   -5000001    1    1    2    0    0 -0.14083687381E+03 -0.11724638503E+03 -0.96709806749E+03  0.10021000010E+04  0.18800000000E+03 0.  0.
<mgrwt>
<rscale>  0 0.57254204E+03</rscale>
<asrwt>0</asrwt>
<pdfrwt beam="1">  1        2 0.46782217E+00 0.57254204E+03</pdfrwt>
<pdfrwt beam="2">  1       -2 0.35750151E-02 0.57254204E+03</pdfrwt>
<totfact> 0.61224639E+02</totfact>
</mgrwt>
</event>
<event>
 4    1  0.2346411E-005  0.4366469E+03  0.7818608E-02  0.1031781E+00
         -2   -1    0    0    0  501 -0.00000000000E+00  0.00000000000E+00  0.51062352186E+03  0.51062352187E+03  0.25500000000E-02 0. -1.
          2   -1    0    0  501    0  0.00000000000E+00 -0.00000000000E+00 -0.93346916494E+02  0.93346916529E+02  0.25500000000E-02 0.  1.
    5000001    1    1    2    0    0  0.55935515920E+02  0.46763286110E+02  0.92865583192E+02  0.22199910678E+03  0.18800000000E+03 0.  0.
   -5000001    1    1    2    0    0 -0.55935515920E+02 -0.46763286110E+02  0.32441102218E+03  0.38197133162E+03  0.18800000000E+03 0.  0.
<mgrwt>
<rscale>  0 0.43664691E+03</rscale>
<asrwt>0</asrwt>
<pdfrwt beam="1">  1        2 0.13335274E-01 0.43664691E+03</pdfrwt>
<pdfrwt beam="2">  1       -2 0.72946217E-01 0.43664691E+03</pdfrwt>
<totfact> 0.78960839E+02</totfact>
</mgrwt>
</event>
<event>
 4    1  0.2346411E-005  0.7288283E+03  0.7818608E-02  0.9669164E-01
          2   -1    0    0  501    0  0.00000000000E+00  0.00000000000E+00  0.21447647204E+04  0.21447647204E+04  0.25500000000E-02 0.  1.
         -2   -1    0    0    0  501 -0.00000000000E+00 -0.00000000000E+00 -0.61917124816E+02  0.61917124869E+02  0.25500000000E-02 0. -1.
    5000001    1    1    2    0    0  0.12895767304E+03  0.27201853099E+03  0.79121127863E+03  0.86716979310E+03  0.18800000000E+03 0.  0.
   -5000001    1    1    2    0    0 -0.12895767304E+03 -0.27201853099E+03  0.12916363170E+04  0.13395120522E+04  0.18800000000E+03 0.  0.
<mgrwt>
<rscale>  0 0.72882828E+03</rscale>
<asrwt>0</asrwt>
<pdfrwt beam="1">  1        2 0.30639489E+00 0.72882828E+03</pdfrwt>
<pdfrwt beam="2">  1       -2 0.88453055E-02 0.72882828E+03</pdfrwt>
<totfact> 0.57959960E+02</totfact>
</mgrwt>
</event>
<event>
 4    1  0.2346411E-005  0.1370353E+04  0.7818608E-02  0.8975562E-01
          2   -1    0    0  501    0  0.00000000000E+00  0.00000000000E+00  0.21243054613E+04  0.21243054613E+04  0.25500000000E-02 0.  1.
         -2   -1    0    0    0  501 -0.00000000000E+00 -0.00000000000E+00 -0.22099791852E+03  0.22099791854E+03  0.25500000000E-02 0. -1.
    5000001    1    1    2    0    0 -0.95949008305E+02  0.53839583346E+03  0.15805928897E+04  0.16830609522E+04  0.18800000000E+03 0.  0.
   -5000001    1    1    2    0    0  0.95949008305E+02 -0.53839583346E+03  0.32271465301E+03  0.66224242763E+03  0.18800000000E+03 0.  0.
<mgrwt>
<rscale>  0 0.13703534E+04</rscale>
<asrwt>0</asrwt>
<pdfrwt beam="1">  1        2 0.30347221E+00 0.13703534E+04</pdfrwt>
<pdfrwt beam="2">  1       -2 0.31571131E-01 0.13703534E+04</pdfrwt>
<totfact> 0.62987311E+01</totfact>
</mgrwt>
</event>
<event>
 4    1  0.2346411E-005  0.7881188E+03  0.7818608E-02  0.9577376E-01
         -2   -1    0    0    0  501 -0.00000000000E+00  0.00000000000E+00  0.11893021299E+03  0.11893021302E+03  0.25500000000E-02 0. -1.
          2   -1    0    0  501    0  0.00000000000E+00 -0.00000000000E+00 -0.13056631214E+04  0.13056631214E+04  0.25500000000E-02 0.  1.
    5000001    1    1    2    0    0  0.28743136108E+03 -0.13981695052E+03 -0.83434721922E+03  0.91304153750E+03  0.18800000000E+03 0.  0.
   -5000001    1    1    2    0    0 -0.28743136108E+03  0.13981695052E+03 -0.35238568916E+03  0.51155179690E+03  0.18800000000E+03 0.  0.
<mgrwt>
<rscale>  0 0.78811876E+03</rscale>
<asrwt>0</asrwt>
<pdfrwt beam="1">  1        2 0.18652329E+00 0.78811876E+03</pdfrwt>
<pdfrwt beam="2">  1       -2 0.16990031E-01 0.78811876E+03</pdfrwt>
<totfact> 0.53070305E+02</totfact>
</mgrwt>
</event>
<event>
 4    1  0.2346411E-005  0.5078418E+03  0.7818608E-02  0.1011752E+00
          2   -1    0    0  501    0  0.00000000000E+00  0.00000000000E+00  0.10047871223E+04  0.10047871223E+04  0.25500000000E-02 0.  1.
         -2   -1    0    0    0  501 -0.00000000000E+00 -0.00000000000E+00 -0.64168640199E+02  0.64168640249E+02  0.25500000000E-02 0. -1.
    5000001    1    1    2    0    0  0.41467388292E+02  0.16554182620E+03  0.46428803812E+03  0.52917957525E+03  0.18800000000E+03 0.  0.
   -5000001    1    1    2    0    0 -0.41467388292E+02 -0.16554182620E+03  0.47633044393E+03  0.53977618726E+03  0.18800000000E+03 0.  0.
<mgrwt>
<rscale>  0 0.50784180E+03</rscale>
<asrwt>0</asrwt>
<pdfrwt beam="1">  1        2 0.14354101E+00 0.50784180E+03</pdfrwt>
<pdfrwt beam="2">  1       -2 0.91669494E-02 0.50784180E+03</pdfrwt>
<totfact> 0.22101072E+03</totfact>
</mgrwt>
</event>
<event>
 4    1  0.2346411E-005  0.5621533E+03  0.7818608E-02  0.9987194E-01
         -2   -1    0    0    0  501 -0.00000000000E+00  0.00000000000E+00  0.55611518136E+02  0.55611518195E+02  0.25500000000E-02 0. -1.
          2   -1    0    0  501    0  0.00000000000E+00 -0.00000000000E+00 -0.14206425890E+04  0.14206425890E+04  0.25500000000E-02 0.  1.
    5000001    1    1    2    0    0 -0.17305140832E+03 -0.73080596884E+02 -0.44222612818E+03  0.51594138427E+03  0.18800000000E+03 0.  0.
   -5000001    1    1    2    0    0  0.17305140832E+03  0.73080596884E+02 -0.92280494269E+03  0.96031272293E+03  0.18800000000E+03 0.  0.
<mgrwt>
<rscale>  0 0.56215333E+03</rscale>
<asrwt>0</asrwt>
<pdfrwt beam="1">  1        2 0.20294892E+00 0.56215333E+03</pdfrwt>
<pdfrwt beam="2">  1       -2 0.79445035E-02 0.56215333E+03</pdfrwt>
<totfact> 0.16248248E+03</totfact>
</mgrwt>
</event>
<event>
 4    1  0.2346411E-005  0.1032086E+04  0.7818608E-02  0.9274037E-01
         -2   -1    0    0    0  501 -0.00000000000E+00  0.00000000000E+00  0.12630056898E+03  0.12630056901E+03  0.25500000000E-02 0. -1.
          2   -1    0    0  501    0  0.00000000000E+00 -0.00000000000E+00 -0.21084652837E+04  0.21084652837E+04  0.25500000000E-02 0.  1.
    5000001    1    1    2    0    0  0.23816931295E+03 -0.30958257073E+03 -0.38483826160E+03  0.57966410733E+03  0.18800000000E+03 0.  0.
   -5000001    1    1    2    0    0 -0.23816931295E+03  0.30958257073E+03 -0.15973264531E+04  0.16551017453E+04  0.18800000000E+03 0.  0.
<mgrwt>
<rscale>  0 0.10320860E+04</rscale>
<asrwt>0</asrwt>
<pdfrwt beam="1">  1        2 0.30120930E+00 0.10320860E+04</pdfrwt>
<pdfrwt beam="2">  1       -2 0.18042940E-01 0.10320860E+04</pdfrwt>
<totfact> 0.18033233E+02</totfact>
</mgrwt>
</event>
<event>
 4    1  0.2346411E-005  0.5796301E+03  0.7818608E-02  0.9948592E-01
          2   -1    0    0  501    0  0.00000000000E+00  0.00000000000E+00  0.50307294765E+03  0.50307294765E+03  0.25500000000E-02 0.  1.
         -2   -1    0    0    0  501 -0.00000000000E+00 -0.00000000000E+00 -0.16695940959E+03  0.16695940961E+03  0.25500000000E-02 0. -1.
    5000001    1    1    2    0    0 -0.13010997314E+03  0.17652377764E+03  0.14071352759E+03  0.32129977595E+03  0.18800000000E+03 0.  0.
   -5000001    1    1    2    0    0  0.13010997314E+03 -0.17652377764E+03  0.19540001046E+03  0.34873258131E+03  0.18800000000E+03 0.  0.
<mgrwt>
<rscale>  0 0.57963010E+03</rscale>
<asrwt>0</asrwt>
<pdfrwt beam="1">  1        2 0.71867564E-01 0.57963010E+03</pdfrwt>
<pdfrwt beam="2">  1       -2 0.23851344E-01 0.57963010E+03</pdfrwt>
<totfact> 0.10419696E+03</totfact>
</mgrwt>
</event>
<event>
 4    1  0.2346411E-005  0.5155178E+03  0.7818608E-02  0.1009806E+00
         -2   -1    0    0    0  501 -0.00000000000E+00  0.00000000000E+00  0.70652346156E+02  0.70652346203E+02  0.25500000000E-02 0. -1.
          2   -1    0    0  501    0  0.00000000000E+00 -0.00000000000E+00 -0.94037440651E+03  0.94037440651E+03  0.25500000000E-02 0.  1.
    5000001    1    1    2    0    0 -0.12413390358E+03 -0.24702805851E+02 -0.67566572651E+03  0.71266235246E+03  0.18800000000E+03 0.  0.
   -5000001    1    1    2    0    0  0.12413390358E+03  0.24702805851E+02 -0.19405633384E+03  0.29836440025E+03  0.18800000000E+03 0.  0.
<mgrwt>
<rscale>  0 0.51551783E+03</rscale>
<asrwt>0</asrwt>
<pdfrwt beam="1">  1        2 0.13433919E+00 0.51551783E+03</pdfrwt>
<pdfrwt beam="2">  1       -2 0.10093193E-01 0.51551783E+03</pdfrwt>
<totfact> 0.20734441E+03</totfact>
</mgrwt>
</event>
<event>
 4    1  0.2346411E-005  0.4556006E+03  0.7818608E-02  0.1026065E+00
          2   -1    0    0  501    0  0.00000000000E+00  0.00000000000E+00  0.71068749722E+03  0.71068749722E+03  0.25500000000E-02 0.  1.
         -2   -1    0    0    0  501 -0.00000000000E+00 -0.00000000000E+00 -0.73017998770E+02  0.73017998815E+02  0.25500000000E-02 0. -1.
    5000001    1    1    2    0    0 -0.71940523543E+01 -0.10995326085E+03  0.20463504057E+03  0.29893305904E+03  0.18800000000E+03 0.  0.
   -5000001    1    1    2    0    0  0.71940523543E+01  0.10995326085E+03  0.43303445788E+03  0.48477243699E+03  0.18800000000E+03 0.  0.
<mgrwt>
<rscale>  0 0.45560061E+03</rscale>
<asrwt>0</asrwt>
<pdfrwt beam="1">  1        2 0.10152678E+00 0.45560061E+03</pdfrwt>
<pdfrwt beam="2">  1       -2 0.10431143E-01 0.45560061E+03</pdfrwt>
<totfact> 0.28127703E+03</totfact>
</mgrwt>
</event>
<event>
 4    1  0.2346411E-005  0.5380909E+03  0.7818608E-02  0.1004289E+00
         -2   -1    0    0    0  501 -0.00000000000E+00  0.00000000000E+00  0.58632243664E+02  0.58632243719E+02  0.25500000000E-02 0.  1.
          2   -1    0    0  501    0  0.00000000000E+00 -0.00000000000E+00 -0.12345674768E+04  0.12345674768E+04  0.25500000000E-02 0. -1.
    5000001    1    1    2    0    0  0.17335097530E+03 -0.34955044786E+02 -0.40542599232E+03  0.48061070633E+03  0.18800000000E+03 0.  0.
   -5000001    1    1    2    0    0 -0.17335097530E+03  0.34955044786E+02 -0.77050924079E+03  0.81258901416E+03  0.18800000000E+03 0.  0.
<mgrwt>
<rscale>  0 0.53809093E+03</rscale>
<asrwt>0</asrwt>
<pdfrwt beam="1">  1        2 0.17636677E+00 0.53809093E+03</pdfrwt>
<pdfrwt beam="2">  1       -2 0.83760356E-02 0.53809093E+03</pdfrwt>
<totfact> 0.18823654E+03</totfact>
</mgrwt>
</event>
<event>
 4    1  0.2346411E-005  0.5021300E+03  0.7818608E-02  0.1013224E+00
         -2   -1    0    0    0  501 -0.00000000000E+00  0.00000000000E+00  0.10246814679E+03  0.10246814683E+03  0.25500000000E-02 0. -1.
          2   -1    0    0  501    0  0.00000000000E+00 -0.00000000000E+00 -0.61515340710E+03  0.61515340710E+03  0.25500000000E-02 0.  1.
    5000001    1    1    2    0    0 -0.12509272430E+03 -0.93187054831E+02 -0.17353037243E+03  0.29964780496E+03  0.18800000000E+03 0.  0.
   -5000001    1    1    2    0    0  0.12509272430E+03  0.93187054831E+02 -0.33915488787E+03  0.41797374897E+03  0.18800000000E+03 0.  0.
<mgrwt>
<rscale>  0 0.50212998E+03</rscale>
<asrwt>0</asrwt>
<pdfrwt beam="1">  1        2 0.87879057E-01 0.50212998E+03</pdfrwt>
<pdfrwt beam="2">  1       -2 0.14638307E-01 0.50212998E+03</pdfrwt>
<totfact> 0.19167328E+03</totfact>
</mgrwt>
</event>
<event>
 4    1  0.2346411E-005  0.4791173E+03  0.7818608E-02  0.1019378E+00
         -2   -1    0    0    0  501 -0.00000000000E+00  0.00000000000E+00  0.27433647126E+03  0.27433647128E+03  0.25500000000E-02 0. -1.
          2   -1    0    0  501    0  0.00000000000E+00 -0.00000000000E+00 -0.20918961468E+03  0.20918961469E+03  0.25500000000E-02 0.  1.
    5000001    1    1    2    0    0 -0.82423630521E+02  0.10412313147E+03  0.99585192475E+02  0.25079173020E+03  0.18800000000E+03 0.  0.
   -5000001    1    1    2    0    0  0.82423630521E+02 -0.10412313147E+03 -0.34438335886E+02  0.23273435577E+03  0.18800000000E+03 0.  0.
<mgrwt>
<rscale>  0 0.47911727E+03</rscale>
<asrwt>0</asrwt>
<pdfrwt beam="1">  1        2 0.29884231E-01 0.47911727E+03</pdfrwt>
<pdfrwt beam="2">  1       -2 0.39190925E-01 0.47911727E+03</pdfrwt>
<totfact> 0.11003367E+03</totfact>
</mgrwt>
</event>
<event>
 4    1  0.2346411E-005  0.4831994E+03  0.7818608E-02  0.1018260E+00
         -2   -1    0    0    0  501 -0.00000000000E+00  0.00000000000E+00  0.30915255659E+03  0.30915255660E+03  0.25500000000E-02 0. -1.
          2   -1    0    0  501    0  0.00000000000E+00 -0.00000000000E+00 -0.18880781826E+03  0.18880781828E+03  0.25500000000E-02 0.  1.
    5000001    1    1    2    0    0 -0.10425990376E+03  0.46027882600E-01  0.17379606431E+03  0.27644023155E+03  0.18800000000E+03 0.  0.
   -5000001    1    1    2    0    0  0.10425990376E+03 -0.46027882600E-01 -0.53451325988E+02  0.22152014333E+03  0.18800000000E+03 0.  0.
<mgrwt>
<rscale>  0 0.48319942E+03</rscale>
<asrwt>0</asrwt>
<pdfrwt beam="1">  1        2 0.26972546E-01 0.48319942E+03</pdfrwt>
<pdfrwt beam="2">  1       -2 0.44164650E-01 0.48319942E+03</pdfrwt>
<totfact> 0.97828446E+02</totfact>
</mgrwt>
</event>
<event>
 4    1  0.2346411E-005  0.1050392E+04  0.7818608E-02  0.9254939E-01
          2   -1    0    0  501    0  0.00000000000E+00  0.00000000000E+00  0.51574745178E+03  0.51574745179E+03  0.25500000000E-02 0.  1.
         -2   -1    0    0    0  501 -0.00000000000E+00 -0.00000000000E+00 -0.53481758448E+03  0.53481758448E+03  0.25500000000E-02 0. -1.
    5000001    1    1    2    0    0 -0.32344776662E+03  0.33970239558E+03 -0.15263425736E+03  0.52788009227E+03  0.18800000000E+03 0.  0.
   -5000001    1    1    2    0    0  0.32344776662E+03 -0.33970239558E+03  0.13356412466E+03  0.52268494400E+03  0.18800000000E+03 0.  0.
<mgrwt>
<rscale>  0 0.10503919E+04</rscale>
<asrwt>0</asrwt>
<pdfrwt beam="1">  1        2 0.73678207E-01 0.10503919E+04</pdfrwt>
<pdfrwt beam="2">  1       -2 0.76402512E-01 0.10503919E+04</pdfrwt>
<totfact> 0.98952477E+01</totfact>
</mgrwt>
</event>
<event>
 4    1  0.2346411E-005  0.5175554E+03  0.7818608E-02  0.1009296E+00
          2   -1    0    0  501    0  0.00000000000E+00  0.00000000000E+00  0.58632547591E+03  0.58632547592E+03  0.25500000000E-02 0.  1.
         -2   -1    0    0    0  501 -0.00000000000E+00 -0.00000000000E+00 -0.11421281987E+03  0.11421281990E+03  0.25500000000E-02 0. -1.
    5000001    1    1    2    0    0  0.96380531635E+02  0.14694017516E+03  0.19920428775E+03  0.32543351120E+03  0.18800000000E+03 0.  0.
   -5000001    1    1    2    0    0 -0.96380531635E+02 -0.14694017516E+03  0.27290836829E+03  0.37510478461E+03  0.18800000000E+03 0.  0.
<mgrwt>
<rscale>  0 0.51755535E+03</rscale>
<asrwt>0</asrwt>
<pdfrwt beam="1">  1        2 0.83760782E-01 0.51755535E+03</pdfrwt>
<pdfrwt beam="2">  1       -2 0.16316117E-01 0.51755535E+03</pdfrwt>
<totfact> 0.16891681E+03</totfact>
</mgrwt>
</event>
<event>
 4    1  0.2346411E-005  0.5830017E+03  0.7818608E-02  0.9941314E-01
          2   -1    0    0  501    0  0.00000000000E+00  0.00000000000E+00  0.42764073661E+03  0.42764073662E+03  0.25500000000E-02 0.  1.
         -2   -1    0    0    0  501 -0.00000000000E+00 -0.00000000000E+00 -0.19870122605E+03  0.19870122607E+03  0.25500000000E-02 0. -1.
    5000001    1    1    2    0    0  0.85531052273E+02 -0.15398876865E+03  0.26099269144E+03  0.36672781018E+03  0.18800000000E+03 0.  0.
   -5000001    1    1    2    0    0 -0.85531052273E+02  0.15398876865E+03 -0.32053180891E+02  0.25961415250E+03  0.18800000000E+03 0.  0.
<mgrwt>
<rscale>  0 0.58300168E+03</rscale>
<asrwt>0</asrwt>
<pdfrwt beam="1">  1        2 0.61091533E-01 0.58300168E+03</pdfrwt>
<pdfrwt beam="2">  1       -2 0.28385890E-01 0.58300168E+03</pdfrwt>
<totfact> 0.91372293E+02</totfact>
</mgrwt>
</event>
<event>
 4    1  0.2346411E-005  0.5451476E+03  0.7818608E-02  0.1002623E+00
         -2   -1    0    0    0  501 -0.00000000000E+00  0.00000000000E+00  0.58254213143E+02  0.58254213199E+02  0.25500000000E-02 0. -1.
          2   -1    0    0  501    0  0.00000000000E+00 -0.00000000000E+00 -0.12753838111E+04  0.12753838111E+04  0.25500000000E-02 0.  1.
    5000001    1    1    2    0    0  0.56244334091E+02  0.21518199444E+02 -0.10683671879E+04  0.10864524409E+04  0.18800000000E+03 0.  0.
   -5000001    1    1    2    0    0 -0.56244334091E+02 -0.21518199444E+02 -0.14876241005E+03  0.24718558346E+03  0.18800000000E+03 0.  0.
<mgrwt>
<rscale>  0 0.54514761E+03</rscale>
<asrwt>0</asrwt>
<pdfrwt beam="1">  1        2 0.18219767E+00 0.54514761E+03</pdfrwt>
<pdfrwt beam="2">  1       -2 0.83220312E-02 0.54514761E+03</pdfrwt>
<totfact> 0.18060460E+03</totfact>
</mgrwt>
</event>
<event>
 4    1  0.2346411E-005  0.6616613E+03  0.7818608E-02  0.9785140E-01
          2   -1    0    0  501    0  0.00000000000E+00  0.00000000000E+00  0.28899391094E+04  0.28899391094E+04  0.25500000000E-02 0.  1.
         -2   -1    0    0    0  501 -0.00000000000E+00 -0.00000000000E+00 -0.37872392748E+02  0.37872392834E+02  0.25500000000E-02 0. -1.
    5000001    1    1    2    0    0  0.11354674704E+03  0.16819247753E+03  0.22289293955E+04  0.22460302365E+04  0.18800000000E+03 0.  0.
   -5000001    1    1    2    0    0 -0.11354674704E+03 -0.16819247753E+03  0.62313732116E+03  0.68178126572E+03  0.18800000000E+03 0.  0.
<mgrwt>
<rscale>  0 0.66166127E+03</rscale>
<asrwt>0</asrwt>
<pdfrwt beam="1">  1        2 0.41284859E+00 0.66166127E+03</pdfrwt>
<pdfrwt beam="2">  1       -2 0.54103399E-02 0.66166127E+03</pdfrwt>
<totfact> 0.52198113E+02</totfact>
</mgrwt>
</event>
<event>
 4    1  0.2346411E-005  0.4050238E+03  0.7818608E-02  0.1042054E+00
         -2   -1    0    0    0  501 -0.00000000000E+00  0.00000000000E+00  0.18208546463E+03  0.18208546465E+03  0.25500000000E-02 0. -1.
          2   -1    0    0  501    0  0.00000000000E+00 -0.00000000000E+00 -0.22522978929E+03  0.22522978930E+03  0.25500000000E-02 0.  1.
    5000001    1    1    2    0    0 -0.24180368369E+02  0.58737251263E+02 -0.62202668695E+02  0.20796135913E+03  0.18800000000E+03 0.  0.
   -5000001    1    1    2    0    0  0.24180368369E+02 -0.58737251263E+02  0.19058344040E+02  0.19935389482E+03  0.18800000000E+03 0.  0.
<mgrwt>
<rscale>  0 0.40502381E+03</rscale>
<asrwt>0</asrwt>
<pdfrwt beam="1">  1        2 0.32175684E-01 0.40502381E+03</pdfrwt>
<pdfrwt beam="2">  1       -2 0.26012209E-01 0.40502381E+03</pdfrwt>
<totfact> 0.21654653E+03</totfact>
</mgrwt>
</event>
<event>
 4    1  0.2346411E-005  0.1016663E+04  0.7818608E-02  0.9290455E-01
          2   -1    0    0  501    0  0.00000000000E+00  0.00000000000E+00  0.30159072012E+04  0.30159072012E+04  0.25500000000E-02 0.  1.
         -2   -1    0    0    0  501 -0.00000000000E+00 -0.00000000000E+00 -0.85679408019E+02  0.85679408057E+02  0.25500000000E-02 0. -1.
    5000001    1    1    2    0    0  0.37050572076E+03 -0.17151006865E+03  0.21894147103E+04  0.22350773961E+04  0.18800000000E+03 0.  0.
   -5000001    1    1    2    0    0 -0.37050572076E+03  0.17151006865E+03  0.74081308287E+03  0.86650921317E+03  0.18800000000E+03 0.  0.
<mgrwt>
<rscale>  0 0.10166635E+04</rscale>
<asrwt>0</asrwt>
<pdfrwt beam="1">  1        2 0.43084398E+00 0.10166635E+04</pdfrwt>
<pdfrwt beam="2">  1       -2 0.12239913E-01 0.10166635E+04</pdfrwt>
<totfact> 0.11603932E+02</totfact>
</mgrwt>
</event>
<event>
 4    1  0.2346411E-005  0.6138915E+03  0.7818608E-02  0.9876998E-01
         -2   -1    0    0    0  501 -0.00000000000E+00  0.00000000000E+00  0.11898359262E+04  0.11898359262E+04  0.25500000000E-02 0. -1.
          2   -1    0    0  501    0  0.00000000000E+00 -0.00000000000E+00 -0.79183756539E+02  0.79183756580E+02  0.25500000000E-02 0.  1.
    5000001    1    1    2    0    0 -0.12087791389E+03  0.68246451590E+02  0.96670192999E+03  0.99454797253E+03  0.18800000000E+03 0.  0.
   -5000001    1    1    2    0    0  0.12087791389E+03 -0.68246451590E+02  0.14395023964E+03  0.27447171022E+03  0.18800000000E+03 0.  0.
<mgrwt>
<rscale>  0 0.61389145E+03</rscale>
<asrwt>0</asrwt>
<pdfrwt beam="1">  1        2 0.11311967E-01 0.61389145E+03</pdfrwt>
<pdfrwt beam="2">  1       -2 0.16997654E+00 0.61389145E+03</pdfrwt>
<totfact> 0.12354019E+02</totfact>
</mgrwt>
</event>
<event>
 4    1  0.2346411E-005  0.6727943E+03  0.7818608E-02  0.9764923E-01
          2   -1    0    0  501    0  0.00000000000E+00  0.00000000000E+00  0.22978408546E+04  0.22978408546E+04  0.25500000000E-02 0.  1.
         -2   -1    0    0    0  501 -0.00000000000E+00 -0.00000000000E+00 -0.49247555855E+02  0.49247555921E+02  0.25500000000E-02 0. -1.
    5000001    1    1    2    0    0  0.24063741269E+03  0.13652330080E+03  0.12488179822E+04  0.12928400244E+04  0.18800000000E+03 0.  0.
   -5000001    1    1    2    0    0 -0.24063741269E+03 -0.13652330080E+03  0.99977531651E+03  0.10542483861E+04  0.18800000000E+03 0.  0.
<mgrwt>
<rscale>  0 0.67279431E+03</rscale>
<asrwt>0</asrwt>
<pdfrwt beam="1">  1        2 0.32826301E+00 0.67279431E+03</pdfrwt>
<pdfrwt beam="2">  1       -2 0.70353644E-02 0.67279431E+03</pdfrwt>
<totfact> 0.70153963E+02</totfact>
</mgrwt>
</event>
<event>
 4    1  0.2346411E-005  0.4925575E+03  0.7818608E-02  0.1015740E+00
         -2   -1    0    0    0  501 -0.00000000000E+00  0.00000000000E+00  0.19215836996E+03  0.19215836998E+03  0.25500000000E-02 0. -1.
          2   -1    0    0  501    0  0.00000000000E+00 -0.00000000000E+00 -0.31564179952E+03  0.31564179953E+03  0.25500000000E-02 0.  1.
    5000001    1    1    2    0    0  0.66339103263E+02  0.14456774019E+03 -0.58735032021E+02  0.25316893986E+03  0.18800000000E+03 0.  0.
   -5000001    1    1    2    0    0 -0.66339103263E+02 -0.14456774019E+03 -0.64748397540E+02  0.25463122964E+03  0.18800000000E+03 0.  0.
<mgrwt>
<rscale>  0 0.49255746E+03</rscale>
<asrwt>0</asrwt>
<pdfrwt beam="1">  1        2 0.45091685E-01 0.49255746E+03</pdfrwt>
<pdfrwt beam="2">  1       -2 0.27451196E-01 0.49255746E+03</pdfrwt>
<totfact> 0.13584745E+03</totfact>
</mgrwt>
</event>
<event>
 4    1  0.2346411E-005  0.5332325E+03  0.7818608E-02  0.1005451E+00
         -2   -1    0    0    0  501 -0.00000000000E+00  0.00000000000E+00  0.14645100070E+03  0.14645100072E+03  0.25500000000E-02 0. -1.
          2   -1    0    0  501    0  0.00000000000E+00 -0.00000000000E+00 -0.48537898055E+03  0.48537898055E+03  0.25500000000E-02 0.  1.
    5000001    1    1    2    0    0  0.28031984361E+02  0.17994341435E+03 -0.10933880583E+03  0.28366247368E+03  0.18800000000E+03 0.  0.
   -5000001    1    1    2    0    0 -0.28031984361E+02 -0.17994341435E+03 -0.22958917402E+03  0.34816750759E+03  0.18800000000E+03 0.  0.
<mgrwt>
<rscale>  0 0.53323255E+03</rscale>
<asrwt>0</asrwt>
<pdfrwt beam="1">  1        2 0.69339853E-01 0.53323255E+03</pdfrwt>
<pdfrwt beam="2">  1       -2 0.20921572E-01 0.53323255E+03</pdfrwt>
<totfact> 0.13677619E+03</totfact>
</mgrwt>
</event>
<event>
 4    1  0.2346411E-005  0.4685702E+03  0.7818608E-02  0.1022325E+00
          2   -1    0    0  501    0  0.00000000000E+00  0.00000000000E+00  0.23627068183E+04  0.23627068183E+04  0.25500000000E-02 0.  1.
         -2   -1    0    0    0  501 -0.00000000000E+00 -0.00000000000E+00 -0.23231618206E+02  0.23231618346E+02  0.25500000000E-02 0. -1.
    5000001    1    1    2    0    0 -0.79314035769E+02  0.11294124198E+03  0.12834903894E+04  0.13045068111E+04  0.18800000000E+03 0.  0.
   -5000001    1    1    2    0    0  0.79314035769E+02 -0.11294124198E+03  0.10559848107E+04  0.10814316256E+04  0.18800000000E+03 0.  0.
<mgrwt>
<rscale>  0 0.46857018E+03</rscale>
<asrwt>0</asrwt>
<pdfrwt beam="1">  1        2 0.33752954E+00 0.46857018E+03</pdfrwt>
<pdfrwt beam="2">  1       -2 0.33188027E-02 0.46857018E+03</pdfrwt>
<totfact> 0.21085994E+03</totfact>
</mgrwt>
</event>
<event>
 4    1  0.2346411E-005  0.8651491E+03  0.7818608E-02  0.9470227E-01
          2   -1    0    0  501    0  0.00000000000E+00  0.00000000000E+00  0.13637996950E+04  0.13637996950E+04  0.25500000000E-02 0.  1.
         -2   -1    0    0    0  501 -0.00000000000E+00 -0.00000000000E+00 -0.13720544708E+03  0.13720544710E+03  0.25500000000E-02 0. -1.
    5000001    1    1    2    0    0 -0.38016150108E+03  0.14170051423E+02  0.75900532419E+03  0.86957267632E+03  0.18800000000E+03 0.  0.
   -5000001    1    1    2    0    0  0.38016150108E+03 -0.14170051423E+02  0.46758892376E+03  0.63143246581E+03  0.18800000000E+03 0.  0.
<mgrwt>
<rscale>  0 0.86514911E+03</rscale>
<asrwt>0</asrwt>
<pdfrwt beam="1">  1        2 0.19482853E+00 0.86514911E+03</pdfrwt>
<pdfrwt beam="2">  1       -2 0.19600778E-01 0.86514911E+03</pdfrwt>
<totfact> 0.38376930E+02</totfact>
</mgrwt>
</event>
<event>
 4    1  0.2346411E-005  0.4790363E+03  0.7818608E-02  0.1019400E+00
          2   -1    0    0  501    0  0.00000000000E+00  0.00000000000E+00  0.34683113520E+03  0.34683113521E+03  0.25500000000E-02 0.  1.
         -2   -1    0    0    0  501 -0.00000000000E+00 -0.00000000000E+00 -0.16540885884E+03  0.16540885886E+03  0.25500000000E-02 0. -1.
    5000001    1    1    2    0    0  0.12782093573E+03 -0.19271078655E+00  0.10073881811E+02  0.22756034769E+03  0.18800000000E+03 0.  0.
   -5000001    1    1    2    0    0 -0.12782093573E+03  0.19271078655E+00  0.17134839455E+03  0.28467964638E+03  0.18800000000E+03 0.  0.
<mgrwt>
<rscale>  0 0.47903629E+03</rscale>
<asrwt>0</asrwt>
<pdfrwt beam="1">  1        2 0.49547304E-01 0.47903629E+03</pdfrwt>
<pdfrwt beam="2">  1       -2 0.23629838E-01 0.47903629E+03</pdfrwt>
<totfact> 0.16024789E+03</totfact>
</mgrwt>
</event>
<event>
 4    1  0.2346411E-005  0.5958877E+03  0.7818608E-02  0.9913975E-01
         -2   -1    0    0    0  501 -0.00000000000E+00  0.00000000000E+00  0.77576394115E+02  0.77576394157E+02  0.25500000000E-02 0. -1.
          2   -1    0    0  501    0  0.00000000000E+00 -0.00000000000E+00 -0.11442982268E+04  0.11442982268E+04  0.25500000000E-02 0.  1.
    5000001    1    1    2    0    0  0.10838024044E+02  0.66281217552E+02 -0.98687118227E+03  0.10068611587E+04  0.18800000000E+03 0.  0.
   -5000001    1    1    2    0    0 -0.10838024044E+02 -0.66281217552E+02 -0.79850650404E+02  0.21501346222E+03  0.18800000000E+03 0.  0.
<mgrwt>
<rscale>  0 0.59588767E+03</rscale>
<asrwt>0</asrwt>
<pdfrwt beam="1">  1        2 0.16347117E+00 0.59588767E+03</pdfrwt>
<pdfrwt beam="2">  1       -2 0.11082343E-01 0.59588767E+03</pdfrwt>
<totfact> 0.13445418E+03</totfact>
</mgrwt>
</event>
<event>
 4    1  0.2346411E-005  0.6820197E+03  0.7818608E-02  0.9748485E-01
         -2   -1    0    0    0  501 -0.00000000000E+00  0.00000000000E+00  0.12757097977E+03  0.12757097979E+03  0.25500000000E-02 0. -1.
          2   -1    0    0  501    0  0.00000000000E+00 -0.00000000000E+00 -0.91155303207E+03  0.91155303208E+03  0.25500000000E-02 0.  1.
    5000001    1    1    2    0    0 -0.10250878239E+03 -0.23284702751E+03 -0.19796137194E+03  0.37317354336E+03  0.18800000000E+03 0.  0.
   -5000001    1    1    2    0    0  0.10250878239E+03  0.23284702751E+03 -0.58602068037E+03  0.66595046851E+03  0.18800000000E+03 0.  0.
<mgrwt>
<rscale>  0 0.68201969E+03</rscale>
<asrwt>0</asrwt>
<pdfrwt beam="1">  1        2 0.13022186E+00 0.68201969E+03</pdfrwt>
<pdfrwt beam="2">  1       -2 0.18224426E-01 0.68201969E+03</pdfrwt>
<totfact> 0.80508965E+02</totfact>
</mgrwt>
</event>
<event>
 4    1  0.2346411E-005  0.8059106E+03  0.7818608E-02  0.9551501E-01
          2   -1    0    0  501    0  0.00000000000E+00  0.00000000000E+00  0.19868488480E+04  0.19868488480E+04  0.25500000000E-02 0.  1.
         -2   -1    0    0    0  501 -0.00000000000E+00 -0.00000000000E+00 -0.81723867198E+02  0.81723867238E+02  0.25500000000E-02 0. -1.
    5000001    1    1    2    0    0 -0.31960165448E+03 -0.26977115784E+02  0.55363281854E+03  0.66687800990E+03  0.18800000000E+03 0.  0.
   -5000001    1    1    2    0    0  0.31960165448E+03  0.26977115784E+02  0.13514921623E+04  0.14016947054E+04  0.18800000000E+03 0.  0.
<mgrwt>
<rscale>  0 0.80591059E+03</rscale>
<asrwt>0</asrwt>
<pdfrwt beam="1">  1        2 0.28383556E+00 0.80591059E+03</pdfrwt>
<pdfrwt beam="2">  1       -2 0.11674838E-01 0.80591059E+03</pdfrwt>
<totfact> 0.44087290E+02</totfact>
</mgrwt>
</event>
<event>
 4    1  0.2346411E-005  0.5867305E+03  0.7818608E-02  0.9933325E-01
          2   -1    0    0  501    0  0.00000000000E+00  0.00000000000E+00  0.27333396725E+04  0.27333396725E+04  0.25500000000E-02 0.  1.
         -2   -1    0    0    0  501 -0.00000000000E+00 -0.00000000000E+00 -0.31486455539E+02  0.31486455643E+02  0.25500000000E-02 0. -1.
    5000001    1    1    2    0    0  0.10567589079E+03  0.30593104381E+02  0.22769285939E+04  0.22873240159E+04  0.18800000000E+03 0.  0.
   -5000001    1    1    2    0    0 -0.10567589079E+03 -0.30593104381E+02  0.42492462307E+03  0.47750211227E+03  0.18800000000E+03 0.  0.
<mgrwt>
<rscale>  0 0.58673053E+03</rscale>
<asrwt>0</asrwt>
<pdfrwt beam="1">  1        2 0.39047714E+00 0.58673053E+03</pdfrwt>
<pdfrwt beam="2">  1       -2 0.44980645E-02 0.58673053E+03</pdfrwt>
<totfact> 0.84741007E+02</totfact>
</mgrwt>
</event>
<event>
 4    1  0.2346411E-005  0.7640624E+03  0.7818608E-02  0.9613543E-01
         -2   -1    0    0    0  501 -0.00000000000E+00  0.00000000000E+00  0.10528804732E+03  0.10528804735E+03  0.25500000000E-02 0. -1.
          2   -1    0    0  501    0  0.00000000000E+00 -0.00000000000E+00 -0.13861765365E+04  0.13861765365E+04  0.25500000000E-02 0.  1.
    5000001    1    1    2    0    0 -0.98235654563E+02  0.29238036893E+03 -0.88321219529E+03  0.95422445257E+03  0.18800000000E+03 0.  0.
   -5000001    1    1    2    0    0  0.98235654563E+02 -0.29238036893E+03 -0.39767629393E+03  0.53724013133E+03  0.18800000000E+03 0.  0.
<mgrwt>
<rscale>  0 0.76406236E+03</rscale>
<asrwt>0</asrwt>
<pdfrwt beam="1">  1        2 0.19802521E+00 0.76406236E+03</pdfrwt>
<pdfrwt beam="2">  1       -2 0.15041151E-01 0.76406236E+03</pdfrwt>
<totfact> 0.59126917E+02</totfact>
</mgrwt>
</event>
<event>
 4    1  0.2346411E-005  0.7162725E+03  0.7818608E-02  0.9689802E-01
         -2   -1    0    0    0  501 -0.00000000000E+00  0.00000000000E+00  0.11691678733E+03  0.11691678736E+03  0.25500000000E-02 0. -1.
          2   -1    0    0  501    0  0.00000000000E+00 -0.00000000000E+00 -0.10970329810E+04  0.10970329810E+04  0.25500000000E-02 0.  1.
    5000001    1    1    2    0    0 -0.29889870025E+03  0.40626428268E+02 -0.56444934303E+03  0.66703673102E+03  0.18800000000E+03 0.  0.
   -5000001    1    1    2    0    0  0.29889870025E+03 -0.40626428268E+02 -0.41566685063E+03  0.54691303733E+03  0.18800000000E+03 0.  0.
<mgrwt>
<rscale>  0 0.71627249E+03</rscale>
<asrwt>0</asrwt>
<pdfrwt beam="1">  1        2 0.15671899E+00 0.71627249E+03</pdfrwt>
<pdfrwt beam="2">  1       -2 0.16702399E-01 0.71627249E+03</pdfrwt>
<totfact> 0.71910904E+02</totfact>
</mgrwt>
</event>
<event>
 4    1  0.2346411E-005  0.7287171E+03  0.7818608E-02  0.9669345E-01
         -2   -1    0    0    0  501 -0.00000000000E+00  0.00000000000E+00  0.59894179458E+02  0.59894179512E+02  0.25500000000E-02 0. -1.
          2   -1    0    0  501    0  0.00000000000E+00 -0.00000000000E+00 -0.22165282463E+04  0.22165282463E+04  0.25500000000E-02 0.  1.
    5000001    1    1    2    0    0  0.27654361447E+03  0.14135815502E+03 -0.98179773297E+03  0.10467708857E+04  0.18800000000E+03 0.  0.
   -5000001    1    1    2    0    0 -0.27654361447E+03 -0.14135815502E+03 -0.11748363339E+04  0.12296515401E+04  0.18800000000E+03 0.  0.
<mgrwt>
<rscale>  0 0.72871707E+03</rscale>
<asrwt>0</asrwt>
<pdfrwt beam="1">  1        2 0.31664684E+00 0.72871707E+03</pdfrwt>
<pdfrwt beam="2">  1       -2 0.85563128E-02 0.72871707E+03</pdfrwt>
<totfact> 0.56232353E+02</totfact>
</mgrwt>
</event>
<event>
 4    1  0.2346411E-005  0.5324031E+03  0.7818608E-02  0.1005651E+00
         -2   -1    0    0    0  501 -0.00000000000E+00  0.00000000000E+00  0.12463009626E+03  0.12463009629E+03  0.25500000000E-02 0. -1.
          2   -1    0    0  501    0  0.00000000000E+00 -0.00000000000E+00 -0.56858873774E+03  0.56858873775E+03  0.25500000000E-02 0.  1.
    5000001    1    1    2    0    0 -0.31230375389E+01  0.18821315618E+03 -0.23400651614E+03  0.35431200250E+03  0.18800000000E+03 0.  0.
   -5000001    1    1    2    0    0  0.31230375389E+01 -0.18821315618E+03 -0.20995212534E+03  0.33890683153E+03  0.18800000000E+03 0.  0.
<mgrwt>
<rscale>  0 0.53240311E+03</rscale>
<asrwt>0</asrwt>
<pdfrwt beam="1">  1        2 0.81226961E-01 0.53240311E+03</pdfrwt>
<pdfrwt beam="2">  1       -2 0.17804300E-01 0.53240311E+03</pdfrwt>
<totfact> 0.15088411E+03</totfact>
</mgrwt>
</event>
<event>
 4    1  0.2346411E-005  0.5184923E+03  0.7818608E-02  0.1009062E+00
         -2   -1    0    0    0  501 -0.00000000000E+00  0.00000000000E+00  0.10400236892E+03  0.10400236895E+03  0.25500000000E-02 0. -1.
          2   -1    0    0  501    0  0.00000000000E+00 -0.00000000000E+00 -0.64622156580E+03  0.64622156580E+03  0.25500000000E-02 0.  1.
    5000001    1    1    2    0    0  0.13426146816E+03 -0.11370625784E+03 -0.31474175367E+03  0.40664680794E+03  0.18800000000E+03 0.  0.
   -5000001    1    1    2    0    0 -0.13426146816E+03  0.11370625784E+03 -0.22747744321E+03  0.34357712682E+03  0.18800000000E+03 0.  0.
<mgrwt>
<rscale>  0 0.51849233E+03</rscale>
<asrwt>0</asrwt>
<pdfrwt beam="1">  1        2 0.92317364E-01 0.51849233E+03</pdfrwt>
<pdfrwt beam="2">  1       -2 0.14857482E-01 0.51849233E+03</pdfrwt>
<totfact> 0.17638109E+03</totfact>
</mgrwt>
</event>
<event>
 4    1  0.2346411E-005  0.1287238E+04  0.7818608E-02  0.9039748E-01
          2   -1    0    0  501    0  0.00000000000E+00  0.00000000000E+00  0.62980735602E+03  0.62980735603E+03  0.25500000000E-02 0.  1.
         -2   -1    0    0    0  501 -0.00000000000E+00 -0.00000000000E+00 -0.65773313746E+03  0.65773313746E+03  0.25500000000E-02 0. -1.
    5000001    1    1    2    0    0  0.32212156173E+03 -0.34428829029E+03  0.38186301290E+03  0.63518508167E+03  0.18800000000E+03 0.  0.
   -5000001    1    1    2    0    0 -0.32212156173E+03  0.34428829029E+03 -0.40978879433E+03  0.65235541181E+03  0.18800000000E+03 0.  0.
<mgrwt>
<rscale>  0 0.12872376E+04</rscale>
<asrwt>0</asrwt>
<pdfrwt beam="1">  1        2 0.89972480E-01 0.12872376E+04</pdfrwt>
<pdfrwt beam="2">  1       -2 0.93961876E-01 0.12872376E+04</pdfrwt>
<totfact> 0.48110025E+01</totfact>
</mgrwt>
</event>
<event>
 4    1  0.2346411E-005  0.4300457E+03  0.7818608E-02  0.1033846E+00
         -2   -1    0    0    0  501 -0.00000000000E+00  0.00000000000E+00  0.69045748057E+02  0.69045748104E+02  0.25500000000E-02 0. -1.
          2   -1    0    0  501    0  0.00000000000E+00 -0.00000000000E+00 -0.66962598118E+03  0.66962598118E+03  0.25500000000E-02 0.  1.
    5000001    1    1    2    0    0 -0.88805818023E+02 -0.45071542232E+02 -0.24671376901E+03  0.32577538436E+03  0.18800000000E+03 0.  0.
   -5000001    1    1    2    0    0  0.88805818023E+02  0.45071542232E+02 -0.35386646411E+03  0.41289634493E+03  0.18800000000E+03 0.  0.
<mgrwt>
<rscale>  0 0.43004570E+03</rscale>
<asrwt>0</asrwt>
<pdfrwt beam="1">  1        2 0.95660851E-01 0.43004570E+03</pdfrwt>
<pdfrwt beam="2">  1       -2 0.98636787E-02 0.43004570E+03</pdfrwt>
<totfact> 0.33049726E+03</totfact>
</mgrwt>
</event>
<event>
 4    1  0.2346411E-005  0.5680106E+03  0.7818608E-02  0.9974090E-01
          2   -1    0    0  501    0  0.00000000000E+00  0.00000000000E+00  0.24536256595E+04  0.24536256595E+04  0.25500000000E-02 0.  1.
         -2   -1    0    0    0  501 -0.00000000000E+00 -0.00000000000E+00 -0.32873402116E+02  0.32873402215E+02  0.25500000000E-02 0. -1.
    5000001    1    1    2    0    0 -0.13471659838E+03  0.51703023424E+02  0.18954779291E+04  0.19102362011E+04  0.18800000000E+03 0.  0.
   -5000001    1    1    2    0    0  0.13471659838E+03 -0.51703023424E+02  0.52527432833E+03  0.57626286061E+03  0.18800000000E+03 0.  0.
<mgrwt>
<rscale>  0 0.56801064E+03</rscale>
<asrwt>0</asrwt>
<pdfrwt beam="1">  1        2 0.35051812E+00 0.56801064E+03</pdfrwt>
<pdfrwt beam="2">  1       -2 0.46961980E-02 0.56801064E+03</pdfrwt>
<totfact> 0.11078190E+03</totfact>
</mgrwt>
</event>
<event>
 4    1  0.2346411E-005  0.1029217E+04  0.7818608E-02  0.9277068E-01
         -2   -1    0    0    0  501 -0.00000000000E+00  0.00000000000E+00  0.78549018075E+02  0.78549018116E+02  0.25500000000E-02 0. -1.
          2   -1    0    0  501    0  0.00000000000E+00 -0.00000000000E+00 -0.33714249727E+04  0.33714249727E+04  0.25500000000E-02 0.  1.
    5000001    1    1    2    0    0 -0.27224592672E+03 -0.37792801589E+03 -0.12712091360E+04  0.13668445769E+04  0.18800000000E+03 0.  0.
   -5000001    1    1    2    0    0  0.27224592672E+03  0.37792801589E+03 -0.20216668186E+04  0.20831294139E+04  0.18800000000E+03 0.  0.
<mgrwt>
<rscale>  0 0.10292174E+04</rscale>
<asrwt>0</asrwt>
<pdfrwt beam="1">  1        2 0.48163205E+00 0.10292174E+04</pdfrwt>
<pdfrwt beam="2">  1       -2 0.11221290E-01 0.10292174E+04</pdfrwt>
<totfact> 0.83965496E+01</totfact>
</mgrwt>
</event>
<event>
 4    1  0.2346411E-005  0.7642307E+03  0.7818608E-02  0.9613285E-01
         -2   -1    0    0    0  501 -0.00000000000E+00  0.00000000000E+00  0.95151028275E+02  0.95151028309E+02  0.25500000000E-02 0. -1.
          2   -1    0    0  501    0  0.00000000000E+00 -0.00000000000E+00 -0.15345301906E+04  0.15345301906E+04  0.25500000000E-02 0.  1.
    5000001    1    1    2    0    0  0.30137129149E+03 -0.15048894938E+02 -0.42101758089E+03  0.55104530484E+03  0.18800000000E+03 0.  0.
   -5000001    1    1    2    0    0 -0.30137129149E+03  0.15048894938E+02 -0.10183615814E+04  0.10786359141E+04  0.18800000000E+03 0.  0.
<mgrwt>
<rscale>  0 0.76423066E+03</rscale>
<asrwt>0</asrwt>
<pdfrwt beam="1">  1        2 0.21921858E+00 0.76423066E+03</pdfrwt>
<pdfrwt beam="2">  1       -2 0.13593005E-01 0.76423066E+03</pdfrwt>
<totfact> 0.58508766E+02</totfact>
</mgrwt>
</event>
<event>
 4    1  0.2346411E-005  0.4388796E+03  0.7818608E-02  0.1031091E+00
         -2   -1    0    0    0  501 -0.00000000000E+00  0.00000000000E+00  0.59619038902E+02  0.59619038956E+02  0.25500000000E-02 0. -1.
          2   -1    0    0  501    0  0.00000000000E+00 -0.00000000000E+00 -0.80769194598E+03  0.80769194598E+03  0.25500000000E-02 0.  1.
    5000001    1    1    2    0    0  0.65835796018E+02  0.31746964331E+02 -0.20326318494E+03  0.28636016506E+03  0.18800000000E+03 0.  0.
   -5000001    1    1    2    0    0 -0.65835796018E+02 -0.31746964331E+02 -0.54480972214E+03  0.58095081988E+03  0.18800000000E+03 0.  0.
<mgrwt>
<rscale>  0 0.43887956E+03</rscale>
<asrwt>0</asrwt>
<pdfrwt beam="1">  1        2 0.11538456E+00 0.43887956E+03</pdfrwt>
<pdfrwt beam="2">  1       -2 0.85170061E-02 0.43887956E+03</pdfrwt>
<totfact> 0.33197334E+03</totfact>
</mgrwt>
</event>
<event>
 4    1  0.2346411E-005  0.5790659E+03  0.7818608E-02  0.9949815E-01
          2   -1    0    0  501    0  0.00000000000E+00  0.00000000000E+00  0.97029403512E+02  0.97029403546E+02  0.25500000000E-02 0.  1.
         -2   -1    0    0    0  501 -0.00000000000E+00 -0.00000000000E+00 -0.86395798829E+03  0.86395798830E+03  0.25500000000E-02 0. -1.
    5000001    1    1    2    0    0  0.16994230911E+03 -0.84679664420E+02 -0.19840952754E+03  0.33280831512E+03  0.18800000000E+03 0.  0.
   -5000001    1    1    2    0    0 -0.16994230911E+03  0.84679664420E+02 -0.56851905724E+03  0.62817907673E+03  0.18800000000E+03 0.  0.
<mgrwt>
<rscale>  0 0.57906590E+03</rscale>
<asrwt>0</asrwt>
<pdfrwt beam="1">  1        2 0.13861344E-01 0.57906590E+03</pdfrwt>
<pdfrwt beam="2">  1       -2 0.12342257E+00 0.57906590E+03</pdfrwt>
<totfact> 0.22159169E+02</totfact>
</mgrwt>
</event>
<event>
 4    1  0.2346411E-005  0.7737217E+03  0.7818608E-02  0.9598853E-01
         -2   -1    0    0    0  501 -0.00000000000E+00  0.00000000000E+00  0.47780468773E+03  0.47780468774E+03  0.25500000000E-02 0. -1.
          2   -1    0    0  501    0  0.00000000000E+00 -0.00000000000E+00 -0.31322700497E+03  0.31322700498E+03  0.25500000000E-02 0.  1.
    5000001    1    1    2    0    0 -0.20329126496E+03 -0.26986642450E+03  0.95305766203E+02  0.39822407581E+03  0.18800000000E+03 0.  0.
   -5000001    1    1    2    0    0  0.20329126496E+03  0.26986642450E+03  0.69271916562E+02  0.39280761691E+03  0.18800000000E+03 0.  0.
<mgrwt>
<rscale>  0 0.77372174E+03</rscale>
<asrwt>0</asrwt>
<pdfrwt beam="1">  1        2 0.44746715E-01 0.77372174E+03</pdfrwt>
<pdfrwt beam="2">  1       -2 0.68257812E-01 0.77372174E+03</pdfrwt>
<totfact> 0.22499460E+02</totfact>
</mgrwt>
</event>
<event>
 4    1  0.2346411E-005  0.6683250E+03  0.7818608E-02  0.9772988E-01
          2   -1    0    0  501    0  0.00000000000E+00  0.00000000000E+00  0.23233160058E+03  0.23233160060E+03  0.25500000000E-02 0.  1.
         -2   -1    0    0    0  501 -0.00000000000E+00 -0.00000000000E+00 -0.48062591842E+03  0.48062591843E+03  0.25500000000E-02 0. -1.
    5000001    1    1    2    0    0  0.21008504803E+03 -0.14631038378E+03 -0.13396149411E+02  0.31790865453E+03  0.18800000000E+03 0.  0.
   -5000001    1    1    2    0    0 -0.21008504803E+03  0.14631038378E+03 -0.23489816843E+03  0.39504886449E+03  0.18800000000E+03 0.  0.
<mgrwt>
<rscale>  0 0.66832504E+03</rscale>
<asrwt>0</asrwt>
<pdfrwt beam="1">  1        2 0.33190229E-01 0.66832504E+03</pdfrwt>
<pdfrwt beam="2">  1       -2 0.68660845E-01 0.66832504E+03</pdfrwt>
<totfact> 0.31076698E+02</totfact>
</mgrwt>
</event>
<event>
 4    1  0.2346411E-005  0.1105136E+04  0.7818608E-02  0.9200200E-01
          2   -1    0    0  501    0  0.00000000000E+00  0.00000000000E+00  0.11188684431E+04  0.11188684431E+04  0.25500000000E-02 0.  1.
         -2   -1    0    0    0  501 -0.00000000000E+00 -0.00000000000E+00 -0.27289322432E+03  0.27289322433E+03  0.25500000000E-02 0. -1.
    5000001    1    1    2    0    0 -0.32828675144E+02  0.44619495156E+03  0.75575348579E+03  0.89815087151E+03  0.18800000000E+03 0.  0.
   -5000001    1    1    2    0    0  0.32828675144E+02 -0.44619495156E+03  0.90221732943E+02  0.49361079588E+03  0.18800000000E+03 0.  0.
<mgrwt>
<rscale>  0 0.11051364E+04</rscale>
<asrwt>0</asrwt>
<pdfrwt beam="1">  1        2 0.15983835E+00 0.11051364E+04</pdfrwt>
<pdfrwt beam="2">  1       -2 0.38984746E-01 0.11051364E+04</pdfrwt>
<totfact> 0.14681008E+02</totfact>
</mgrwt>
</event>
<event>
 4    1  0.2346411E-005  0.7207940E+03  0.7818608E-02  0.9682318E-01
         -2   -1    0    0    0  501 -0.00000000000E+00  0.00000000000E+00  0.56988442892E+02  0.56988442949E+02  0.25500000000E-02 0. -1.
          2   -1    0    0  501    0  0.00000000000E+00 -0.00000000000E+00 -0.22791640107E+04  0.22791640107E+04  0.25500000000E-02 0.  1.
    5000001    1    1    2    0    0 -0.25357744074E+03  0.59941853661E+02 -0.58201193036E+03  0.66481308001E+03  0.18800000000E+03 0.  0.
   -5000001    1    1    2    0    0  0.25357744074E+03 -0.59941853661E+02 -0.16401636375E+04  0.16713393737E+04  0.18800000000E+03 0.  0.
<mgrwt>
<rscale>  0 0.72079403E+03</rscale>
<asrwt>0</asrwt>
<pdfrwt beam="1">  1        2 0.32559480E+00 0.72079403E+03</pdfrwt>
<pdfrwt beam="2">  1       -2 0.81412076E-02 0.72079403E+03</pdfrwt>
<totfact> 0.56632563E+02</totfact>
</mgrwt>
</event>
<event>
 4    1  0.2346411E-005  0.5421579E+03  0.7818608E-02  0.1003326E+00
         -2   -1    0    0    0  501 -0.00000000000E+00  0.00000000000E+00  0.54659825927E+02  0.54659825987E+02  0.25500000000E-02 0. -1.
          2   -1    0    0  501    0  0.00000000000E+00 -0.00000000000E+00 -0.13443842601E+04  0.13443842601E+04  0.25500000000E-02 0.  1.
    5000001    1    1    2    0    0 -0.12276158261E+03  0.15168952290E+03 -0.62492501488E+03  0.68114271027E+03  0.18800000000E+03 0.  0.
   -5000001    1    1    2    0    0  0.12276158261E+03 -0.15168952290E+03 -0.66479941929E+03  0.71790137583E+03  0.18800000000E+03 0.  0.
<mgrwt>
<rscale>  0 0.54215795E+03</rscale>
<asrwt>0</asrwt>
<pdfrwt beam="1">  1        2 0.19205487E+00 0.54215795E+03</pdfrwt>
<pdfrwt beam="2">  1       -2 0.78085474E-02 0.54215795E+03</pdfrwt>
<totfact> 0.18342983E+03</totfact>
</mgrwt>
</event>
<event>
 4    1  0.2346411E-005  0.5341508E+03  0.7818608E-02  0.1005230E+00
          2   -1    0    0  501    0  0.00000000000E+00  0.00000000000E+00  0.14388858919E+04  0.14388858919E+04  0.25500000000E-02 0.  1.
         -2   -1    0    0    0  501 -0.00000000000E+00 -0.00000000000E+00 -0.49572560139E+02  0.49572560205E+02  0.25500000000E-02 0. -1.
    5000001    1    1    2    0    0 -0.16040137537E+03  0.94568245329E+02  0.79564900684E+03  0.83849454162E+03  0.18800000000E+03 0.  0.
   -5000001    1    1    2    0    0  0.16040137537E+03 -0.94568245329E+02  0.59366432489E+03  0.64996391045E+03  0.18800000000E+03 0.  0.
<mgrwt>
<rscale>  0 0.53415076E+03</rscale>
<asrwt>0</asrwt>
<pdfrwt beam="1">  1        2 0.20555515E+00 0.53415076E+03</pdfrwt>
<pdfrwt beam="2">  1       -2 0.70817934E-02 0.53415076E+03</pdfrwt>
<totfact> 0.19081213E+03</totfact>
</mgrwt>
</event>
<event>
 4    1  0.2346411E-005  0.9939585E+03  0.7818608E-02  0.9315196E-01
          2   -1    0    0  501    0  0.00000000000E+00  0.00000000000E+00  0.23417909430E+04  0.23417909430E+04  0.25500000000E-02 0.  1.
         -2   -1    0    0    0  501 -0.00000000000E+00 -0.00000000000E+00 -0.10546986404E+03  0.10546986407E+03  0.25500000000E-02 0. -1.
    5000001    1    1    2    0    0 -0.47400280370E+01 -0.38351006553E+03  0.17436687192E+04  0.17952233957E+04  0.18800000000E+03 0.  0.
   -5000001    1    1    2    0    0  0.47400280370E+01  0.38351006553E+03  0.49265235979E+03  0.65203741138E+03  0.18800000000E+03 0.  0.
<mgrwt>
<rscale>  0 0.99395849E+03</rscale>
<asrwt>0</asrwt>
<pdfrwt beam="1">  1        2 0.33454150E+00 0.99395849E+03</pdfrwt>
<pdfrwt beam="2">  1       -2 0.15067126E-01 0.99395849E+03</pdfrwt>
<totfact> 0.18706132E+02</totfact>
</mgrwt>
</event>
<event>
 4    1  0.2346411E-005  0.4259916E+03  0.7818608E-02  0.1035134E+00
          2   -1    0    0  501    0  0.00000000000E+00  0.00000000000E+00  0.16468985735E+03  0.16468985737E+03  0.25500000000E-02 0.  1.
         -2   -1    0    0    0  501 -0.00000000000E+00 -0.00000000000E+00 -0.27547059528E+03  0.27547059529E+03  0.25500000000E-02 0. -1.
    5000001    1    1    2    0    0  0.43256750759E+02  0.38811837676E+02 -0.13962304440E+03  0.24128012715E+03  0.18800000000E+03 0.  0.
   -5000001    1    1    2    0    0 -0.43256750759E+02 -0.38811837676E+02  0.28842306470E+02  0.19888032550E+03  0.18800000000E+03 0.  0.
<mgrwt>
<rscale>  0 0.42599161E+03</rscale>
<asrwt>0</asrwt>
<pdfrwt beam="1">  1        2 0.23527122E-01 0.42599161E+03</pdfrwt>
<pdfrwt beam="2">  1       -2 0.39352942E-01 0.42599161E+03</pdfrwt>
<totfact> 0.14286922E+03</totfact>
</mgrwt>
</event>
<event>
 4    1  0.2346411E-005  0.9012357E+03  0.7818608E-02  0.9424038E-01
          2   -1    0    0  501    0  0.00000000000E+00  0.00000000000E+00  0.39583618727E+03  0.39583618728E+03  0.25500000000E-02 0.  1.
         -2   -1    0    0    0  501 -0.00000000000E+00 -0.00000000000E+00 -0.51298096336E+03  0.51298096337E+03  0.25500000000E-02 0. -1.
    5000001    1    1    2    0    0  0.17090576658E+03  0.37194654216E+03 -0.45840112599E+02  0.45276740960E+03  0.18800000000E+03 0.  0.
   -5000001    1    1    2    0    0 -0.17090576658E+03 -0.37194654216E+03 -0.71304663494E+02  0.45604974105E+03  0.18800000000E+03 0.  0.
<mgrwt>
<rscale>  0 0.90123566E+03</rscale>
<asrwt>0</asrwt>
<pdfrwt beam="1">  1        2 0.56548027E-01 0.90123566E+03</pdfrwt>
<pdfrwt beam="2">  1       -2 0.73282995E-01 0.90123566E+03</pdfrwt>
<totfact> 0.14764250E+02</totfact>
</mgrwt>
</event>
<event>
 4    1  0.2346411E-005  0.5430064E+03  0.7818608E-02  0.1003126E+00
         -2   -1    0    0    0  501 -0.00000000000E+00  0.00000000000E+00  0.13669263919E+03  0.13669263921E+03  0.25500000000E-02 0. -1.
          2   -1    0    0  501    0  0.00000000000E+00 -0.00000000000E+00 -0.53926821713E+03  0.53926821714E+03  0.25500000000E-02 0.  1.
    5000001    1    1    2    0    0 -0.12571426477E+03  0.12898343452E+03 -0.10543287718E+03  0.28089303007E+03  0.18800000000E+03 0.  0.
   -5000001    1    1    2    0    0  0.12571426477E+03 -0.12898343452E+03 -0.29714270076E+03  0.39506782629E+03  0.18800000000E+03 0.  0.
<mgrwt>
<rscale>  0 0.54300643E+03</rscale>
<asrwt>0</asrwt>
<pdfrwt beam="1">  1        2 0.77038315E-01 0.54300643E+03</pdfrwt>
<pdfrwt beam="2">  1       -2 0.19527520E-01 0.54300643E+03</pdfrwt>
<totfact> 0.13679530E+03</totfact>
</mgrwt>
</event>
<event>
 4    1  0.2346411E-005  0.5090569E+03  0.7818608E-02  0.1011442E+00
         -2   -1    0    0    0  501 -0.00000000000E+00  0.00000000000E+00  0.70643652475E+02  0.70643652521E+02  0.25500000000E-02 0. -1.
          2   -1    0    0  501    0  0.00000000000E+00 -0.00000000000E+00 -0.91706370452E+03  0.91706370452E+03  0.25500000000E-02 0.  1.
    5000001    1    1    2    0    0 -0.16798724548E+03  0.23221788200E+02 -0.37254843037E+03  0.45043900704E+03  0.18800000000E+03 0.  0.
   -5000001    1    1    2    0    0  0.16798724548E+03 -0.23221788200E+02 -0.47387162167E+03  0.53726835000E+03  0.18800000000E+03 0.  0.
<mgrwt>
<rscale>  0 0.50905689E+03</rscale>
<asrwt>0</asrwt>
<pdfrwt beam="1">  1        2 0.13100909E+00 0.50905689E+03</pdfrwt>
<pdfrwt beam="2">  1       -2 0.10091951E-01 0.50905689E+03</pdfrwt>
<totfact> 0.21452822E+03</totfact>
</mgrwt>
</event>
<event>
 4    1  0.2346411E-005  0.5126805E+03  0.7818608E-02  0.1010521E+00
         -2   -1    0    0    0  501 -0.00000000000E+00  0.00000000000E+00  0.20299703162E+03  0.20299703164E+03  0.25500000000E-02 0. -1.
          2   -1    0    0  501    0  0.00000000000E+00 -0.00000000000E+00 -0.32370092198E+03  0.32370092199E+03  0.25500000000E-02 0.  1.
    5000001    1    1    2    0    0 -0.80872275257E+02  0.14776098934E+03 -0.14491860790E+02  0.25283917597E+03  0.18800000000E+03 0.  0.
   -5000001    1    1    2    0    0  0.80872275257E+02 -0.14776098934E+03 -0.10621202957E+03  0.27385877766E+03  0.18800000000E+03 0.  0.
<mgrwt>
<rscale>  0 0.51268051E+03</rscale>
<asrwt>0</asrwt>
<pdfrwt beam="1">  1        2 0.46242989E-01 0.51268051E+03</pdfrwt>
<pdfrwt beam="2">  1       -2 0.28999576E-01 0.51268051E+03</pdfrwt>
<totfact> 0.11957151E+03</totfact>
</mgrwt>
</event>
<event>
 4    1  0.2346411E-005  0.7396734E+03  0.7818608E-02  0.9651692E-01
         -2   -1    0    0    0  501 -0.00000000000E+00  0.00000000000E+00  0.24717142172E+03  0.24717142173E+03  0.25500000000E-02 0. -1.
          2   -1    0    0  501    0  0.00000000000E+00 -0.00000000000E+00 -0.55337787915E+03  0.55337787916E+03  0.25500000000E-02 0.  1.
    5000001    1    1    2    0    0  0.22374264346E+03 -0.18381150920E+03 -0.95697289305E+01  0.34537374123E+03  0.18800000000E+03 0.  0.
   -5000001    1    1    2    0    0 -0.22374264346E+03  0.18381150920E+03 -0.29663672850E+03  0.45517555966E+03  0.18800000000E+03 0.  0.
<mgrwt>
<rscale>  0 0.73967343E+03</rscale>
<asrwt>0</asrwt>
<pdfrwt beam="1">  1        2 0.79053983E-01 0.73967343E+03</pdfrwt>
<pdfrwt beam="2">  1       -2 0.35310203E-01 0.73967343E+03</pdfrwt>
<totfact> 0.45191441E+02</totfact>
</mgrwt>
</event>
<event>
 4    1  0.2346411E-005  0.4280406E+03  0.7818608E-02  0.1034481E+00
         -2   -1    0    0    0  501 -0.00000000000E+00  0.00000000000E+00  0.69832393310E+02  0.69832393357E+02  0.25500000000E-02 0. -1.
          2   -1    0    0  501    0  0.00000000000E+00 -0.00000000000E+00 -0.65592327832E+03  0.65592327832E+03  0.25500000000E-02 0.  1.
    5000001    1    1    2    0    0 -0.62813035613E+02  0.69645745398E+02 -0.22386688522E+03  0.30701203493E+03  0.18800000000E+03 0.  0.
   -5000001    1    1    2    0    0  0.62813035613E+02 -0.69645745398E+02 -0.36222399979E+03  0.41874363675E+03  0.18800000000E+03 0.  0.
<mgrwt>
<rscale>  0 0.42804062E+03</rscale>
<asrwt>0</asrwt>
<pdfrwt beam="1">  1        2 0.93703322E-01 0.42804062E+03</pdfrwt>
<pdfrwt beam="2">  1       -2 0.99760566E-02 0.42804062E+03</pdfrwt>
<totfact> 0.33260433E+03</totfact>
</mgrwt>
</event>
<event>
 4    1  0.2346411E-005  0.6787574E+03  0.7818608E-02  0.9754266E-01
          2   -1    0    0  501    0  0.00000000000E+00  0.00000000000E+00  0.17254160490E+04  0.17254160490E+04  0.25500000000E-02 0.  1.
         -2   -1    0    0    0  501 -0.00000000000E+00 -0.00000000000E+00 -0.66753707700E+02  0.66753707748E+02  0.25500000000E-02 0. -1.
    5000001    1    1    2    0    0 -0.18592384656E+03 -0.10969845311E+03  0.34799778538E+03  0.45060835097E+03  0.18800000000E+03 0.  0.
   -5000001    1    1    2    0    0  0.18592384656E+03  0.10969845311E+03  0.13106645559E+04  0.13415614058E+04  0.18800000000E+03 0.  0.
<mgrwt>
<rscale>  0 0.67875745E+03</rscale>
<asrwt>0</asrwt>
<pdfrwt beam="1">  1        2 0.24648797E+00 0.67875745E+03</pdfrwt>
<pdfrwt beam="2">  1       -2 0.95362452E-02 0.67875745E+03</pdfrwt>
<totfact> 0.83927752E+02</totfact>
</mgrwt>
</event>
<event>
 4    1  0.2346411E-005  0.5914670E+03  0.7818608E-02  0.9923269E-01
         -2   -1    0    0    0  501 -0.00000000000E+00  0.00000000000E+00  0.20700997471E+03  0.20700997472E+03  0.25500000000E-02 0. -1.
          2   -1    0    0  501    0  0.00000000000E+00 -0.00000000000E+00 -0.42248353237E+03  0.42248353237E+03  0.25500000000E-02 0.  1.
    5000001    1    1    2    0    0 -0.21994934473E+02 -0.20125102619E+03  0.45374480282E+01  0.27631565486E+03  0.18800000000E+03 0.  0.
   -5000001    1    1    2    0    0  0.21994934473E+02  0.20125102619E+03 -0.22001100569E+03  0.35317785224E+03  0.18800000000E+03 0.  0.
<mgrwt>
<rscale>  0 0.59146701E+03</rscale>
<asrwt>0</asrwt>
<pdfrwt beam="1">  1        2 0.60354790E-01 0.59146701E+03</pdfrwt>
<pdfrwt beam="2">  1       -2 0.29572854E-01 0.59146701E+03</pdfrwt>
<totfact> 0.85899186E+02</totfact>
</mgrwt>
</event>
<event>
 4    1  0.2346411E-005  0.7377053E+03  0.7818608E-02  0.9654839E-01
          2   -1    0    0  501    0  0.00000000000E+00  0.00000000000E+00  0.49756984977E+03  0.49756984978E+03  0.25500000000E-02 0.  1.
         -2   -1    0    0    0  501 -0.00000000000E+00 -0.00000000000E+00 -0.27343354621E+03  0.27343354622E+03  0.25500000000E-02 0. -1.
    5000001    1    1    2    0    0  0.17375235642E+03 -0.24940288403E+03  0.20737991436E+03  0.41320952168E+03  0.18800000000E+03 0.  0.
   -5000001    1    1    2    0    0 -0.17375235642E+03  0.24940288403E+03  0.16756389206E+02  0.35779387432E+03  0.18800000000E+03 0.  0.
<mgrwt>
<rscale>  0 0.73770533E+03</rscale>
<asrwt>0</asrwt>
<pdfrwt beam="1">  1        2 0.71081407E-01 0.73770533E+03</pdfrwt>
<pdfrwt beam="2">  1       -2 0.39061935E-01 0.73770533E+03</pdfrwt>
<totfact> 0.42080005E+02</totfact>
</mgrwt>
</event>
<event>
 4    1  0.2346411E-005  0.9111389E+03  0.7818608E-02  0.9411763E-01
          2   -1    0    0  501    0  0.00000000000E+00  0.00000000000E+00  0.99869437043E+03  0.99869437044E+03  0.25500000000E-02 0.  1.
         -2   -1    0    0    0  501 -0.00000000000E+00 -0.00000000000E+00 -0.20781486363E+03  0.20781486365E+03  0.25500000000E-02 0. -1.
    5000001    1    1    2    0    0 -0.31108849175E+03 -0.19583992853E+03  0.65039183166E+03  0.77037838884E+03  0.18800000000E+03 0.  0.
   -5000001    1    1    2    0    0  0.31108849175E+03  0.19583992853E+03  0.14048767514E+03  0.43613084524E+03  0.18800000000E+03 0.  0.
<mgrwt>
<rscale>  0 0.91113892E+03</rscale>
<asrwt>0</asrwt>
<pdfrwt beam="1">  1        2 0.14267062E+00 0.91113892E+03</pdfrwt>
<pdfrwt beam="2">  1       -2 0.29687838E-01 0.91113892E+03</pdfrwt>
<totfact> 0.29395057E+02</totfact>
</mgrwt>
</event>
<event>
 4    1  0.2346411E-005  0.5964109E+03  0.7818608E-02  0.9912880E-01
         -2   -1    0    0    0  501 -0.00000000000E+00  0.00000000000E+00  0.11054144723E+03  0.11054144726E+03  0.25500000000E-02 0. -1.
          2   -1    0    0  501    0  0.00000000000E+00 -0.00000000000E+00 -0.80446288796E+03  0.80446288797E+03  0.25500000000E-02 0.  1.
    5000001    1    1    2    0    0 -0.18266732962E+03  0.74400965389E+02 -0.53284180747E+03  0.59847075848E+03  0.18800000000E+03 0.  0.
   -5000001    1    1    2    0    0  0.18266732962E+03 -0.74400965389E+02 -0.16107963326E+03  0.31653357675E+03  0.18800000000E+03 0.  0.
<mgrwt>
<rscale>  0 0.59641090E+03</rscale>
<asrwt>0</asrwt>
<pdfrwt beam="1">  1        2 0.11492327E+00 0.59641090E+03</pdfrwt>
<pdfrwt beam="2">  1       -2 0.15791636E-01 0.59641090E+03</pdfrwt>
<totfact> 0.12143464E+03</totfact>
</mgrwt>
</event>
<event>
 4    1  0.2346411E-005  0.5917366E+03  0.7818608E-02  0.9922700E-01
          2   -1    0    0  501    0  0.00000000000E+00  0.00000000000E+00  0.19130484212E+03  0.19130484214E+03  0.25500000000E-02 0.  1.
         -2   -1    0    0    0  501 -0.00000000000E+00 -0.00000000000E+00 -0.45758407399E+03  0.45758407399E+03  0.25500000000E-02 0. -1.
    5000001    1    1    2    0    0 -0.29918606563E+02 -0.22305200762E+03 -0.17626658038E+03  0.34214211737E+03  0.18800000000E+03 0.  0.
   -5000001    1    1    2    0    0  0.29918606563E+02  0.22305200762E+03 -0.90012651489E+02  0.30674679876E+03  0.18800000000E+03 0.  0.
<mgrwt>
<rscale>  0 0.59173659E+03</rscale>
<asrwt>0</asrwt>
<pdfrwt beam="1">  1        2 0.27329263E-01 0.59173659E+03</pdfrwt>
<pdfrwt beam="2">  1       -2 0.65369153E-01 0.59173659E+03</pdfrwt>
<totfact> 0.43062174E+02</totfact>
</mgrwt>
</event>
<event>
 4    1  0.2346411E-005  0.6472191E+03  0.7818608E-02  0.9812011E-01
          2   -1    0    0  501    0  0.00000000000E+00  0.00000000000E+00  0.73728092653E+03  0.73728092653E+03  0.25500000000E-02 0.  1.
         -2   -1    0    0    0  501 -0.00000000000E+00 -0.00000000000E+00 -0.14203965478E+03  0.14203965481E+03  0.25500000000E-02 0. -1.
    5000001    1    1    2    0    0 -0.30252060578E+02 -0.24464468596E+03  0.42370786895E+03  0.52501292151E+03  0.18800000000E+03 0.  0.
   -5000001    1    1    2    0    0  0.30252060578E+02  0.24464468596E+03  0.17153340279E+03  0.35430765983E+03  0.18800000000E+03 0.  0.
<mgrwt>
<rscale>  0 0.64721906E+03</rscale>
<asrwt>0</asrwt>
<pdfrwt beam="1">  1        2 0.10532585E+00 0.64721906E+03</pdfrwt>
<pdfrwt beam="2">  1       -2 0.20291379E-01 0.64721906E+03</pdfrwt>
<totfact> 0.88016334E+02</totfact>
</mgrwt>
</event>
<event>
 4    1  0.2346411E-005  0.5337945E+03  0.7818608E-02  0.1005316E+00
         -2   -1    0    0    0  501 -0.00000000000E+00  0.00000000000E+00  0.42657702046E+02  0.42657702122E+02  0.25500000000E-02 0. -1.
          2   -1    0    0  501    0  0.00000000000E+00 -0.00000000000E+00 -0.16699010435E+04  0.16699010435E+04  0.25500000000E-02 0.  1.
    5000001    1    1    2    0    0  0.44651971324E+02 -0.94401954720E+02 -0.13207381278E+04  0.13381325532E+04  0.18800000000E+03 0.  0.
   -5000001    1    1    2    0    0 -0.44651971324E+02  0.94401954720E+02 -0.30650521359E+03  0.37442619240E+03  0.18800000000E+03 0.  0.
<mgrwt>
<rscale>  0 0.53379450E+03</rscale>
<asrwt>0</asrwt>
<pdfrwt beam="1">  1        2 0.23855725E+00 0.53379450E+03</pdfrwt>
<pdfrwt beam="2">  1       -2 0.60939585E-02 0.53379450E+03</pdfrwt>
<totfact> 0.18366363E+03</totfact>
</mgrwt>
</event>
<event>
 4    1  0.2346411E-005  0.1100902E+04  0.7818608E-02  0.9204314E-01
         -2   -1    0    0    0  501 -0.00000000000E+00  0.00000000000E+00  0.80715432718E+03  0.80715432719E+03  0.25500000000E-02 0. -1.
          2   -1    0    0  501    0  0.00000000000E+00 -0.00000000000E+00 -0.37538807695E+03  0.37538807696E+03  0.25500000000E-02 0.  1.
    5000001    1    1    2    0    0  0.45364806047E+03 -0.17822892770E+03  0.29554630913E+02  0.52323951461E+03  0.18800000000E+03 0.  0.
   -5000001    1    1    2    0    0 -0.45364806047E+03  0.17822892770E+03  0.40221161932E+03  0.65930288954E+03  0.18800000000E+03 0.  0.
<mgrwt>
<rscale>  0 0.11009016E+04</rscale>
<asrwt>0</asrwt>
<pdfrwt beam="1">  1        2 0.53626870E-01 0.11009016E+04</pdfrwt>
<pdfrwt beam="2">  1       -2 0.11530776E+00 0.11009016E+04</pdfrwt>
<totfact> 0.54037943E+01</totfact>
</mgrwt>
</event>
<event>
 4    1  0.2346411E-005  0.5296940E+03  0.7818608E-02  0.1006306E+00
         -2   -1    0    0    0  501 -0.00000000000E+00  0.00000000000E+00  0.69946428486E+02  0.69946428533E+02  0.25500000000E-02 0. -1.
          2   -1    0    0  501    0  0.00000000000E+00 -0.00000000000E+00 -0.10028237915E+04  0.10028237915E+04  0.25500000000E-02 0.  1.
    5000001    1    1    2    0    0  0.17467004387E+03  0.55737839275E+02 -0.53611516905E+03  0.59697554844E+03  0.18800000000E+03 0.  0.
   -5000001    1    1    2    0    0 -0.17467004387E+03 -0.55737839275E+02 -0.39676219393E+03  0.47579467156E+03  0.18800000000E+03 0.  0.
<mgrwt>
<rscale>  0 0.52969403E+03</rscale>
<asrwt>0</asrwt>
<pdfrwt beam="1">  1        2 0.14326053E+00 0.52969403E+03</pdfrwt>
<pdfrwt beam="2">  1       -2 0.99923476E-02 0.52969403E+03</pdfrwt>
<totfact> 0.19286430E+03</totfact>
</mgrwt>
</event>
<event>
 4    1  0.2346411E-005  0.7369614E+03  0.7818608E-02  0.9656031E-01
         -2   -1    0    0    0  501 -0.00000000000E+00  0.00000000000E+00  0.12017539892E+03  0.12017539895E+03  0.25500000000E-02 0. -1.
          2   -1    0    0  501    0  0.00000000000E+00 -0.00000000000E+00 -0.11298322635E+04  0.11298322635E+04  0.25500000000E-02 0.  1.
    5000001    1    1    2    0    0  0.30447481739E+03 -0.45570450831E+01 -0.65374703609E+03  0.74528844636E+03  0.18800000000E+03 0.  0.
   -5000001    1    1    2    0    0 -0.30447481739E+03  0.45570450831E+01 -0.35590982852E+03  0.50471921613E+03  0.18800000000E+03 0.  0.
<mgrwt>
<rscale>  0 0.73696145E+03</rscale>
<asrwt>0</asrwt>
<pdfrwt beam="1">  1        2 0.16140460E+00 0.73696145E+03</pdfrwt>
<pdfrwt beam="2">  1       -2 0.17167915E-01 0.73696145E+03</pdfrwt>
<totfact> 0.65601400E+02</totfact>
</mgrwt>
</event>
<event>
 4    1  0.2346411E-005  0.3987897E+03  0.7818608E-02  0.1044200E+00
          2   -1    0    0  501    0  0.00000000000E+00  0.00000000000E+00  0.31880270644E+02  0.31880270746E+02  0.25500000000E-02 0.  1.
         -2   -1    0    0    0  501 -0.00000000000E+00 -0.00000000000E+00 -0.12471134093E+04  0.12471134093E+04  0.25500000000E-02 0. -1.
    5000001    1    1    2    0    0  0.41834774940E+02 -0.42412087246E+02 -0.51326964648E+03  0.54985331093E+03  0.18800000000E+03 0.  0.
   -5000001    1    1    2    0    0 -0.41834774940E+02  0.42412087246E+02 -0.70196349222E+03  0.72914036916E+03  0.18800000000E+03 0.  0.
<mgrwt>
<rscale>  0 0.39878973E+03</rscale>
<asrwt>0</asrwt>
<pdfrwt beam="1">  1        2 0.45543252E-02 0.39878973E+03</pdfrwt>
<pdfrwt beam="2">  1       -2 0.17815903E+00 0.39878973E+03</pdfrwt>
<totfact> 0.35751542E+02</totfact>
</mgrwt>
</event>
<event>
 4    1  0.2346411E-005  0.4748906E+03  0.7818608E-02  0.1020549E+00
         -2   -1    0    0    0  501 -0.00000000000E+00  0.00000000000E+00  0.34835520229E+02  0.34835520323E+02  0.25500000000E-02 0. -1.
          2   -1    0    0  501    0  0.00000000000E+00 -0.00000000000E+00 -0.16184707912E+04  0.16184707912E+04  0.25500000000E-02 0.  1.
    5000001    1    1    2    0    0 -0.13521076125E+03  0.51970952080E+02 -0.81724465210E+03  0.85100866694E+03  0.18800000000E+03 0.  0.
   -5000001    1    1    2    0    0  0.13521076125E+03 -0.51970952080E+02 -0.76639061889E+03  0.80229764460E+03  0.18800000000E+03 0.  0.
<mgrwt>
<rscale>  0 0.47489061E+03</rscale>
<asrwt>0</asrwt>
<pdfrwt beam="1">  1        2 0.23121007E+00 0.47489061E+03</pdfrwt>
<pdfrwt beam="2">  1       -2 0.49765039E-02 0.47489061E+03</pdfrwt>
<totfact> 0.26756137E+03</totfact>
</mgrwt>
</event>
<event>
 4    1  0.2346411E-005  0.4580302E+03  0.7818608E-02  0.1025354E+00
          2   -1    0    0  501    0  0.00000000000E+00  0.00000000000E+00  0.10232824007E+04  0.10232824007E+04  0.25500000000E-02 0. -1.
         -2   -1    0    0    0  501 -0.00000000000E+00 -0.00000000000E+00 -0.51254584440E+02  0.51254584503E+02  0.25500000000E-02 0.  1.
    5000001    1    1    2    0    0 -0.93500421230E+02 -0.89991664508E+02  0.44796204160E+03  0.50284671538E+03  0.18800000000E+03 0.  0.
   -5000001    1    1    2    0    0  0.93500421230E+02  0.89991664508E+02  0.52406577470E+03  0.57169026987E+03  0.18800000000E+03 0.  0.
<mgrwt>
<rscale>  0 0.45803019E+03</rscale>
<asrwt>0</asrwt>
<pdfrwt beam="1">  1        2 0.14618319E+00 0.45803019E+03</pdfrwt>
<pdfrwt beam="2">  1       -2 0.73220838E-02 0.45803019E+03</pdfrwt>
<totfact> 0.30781982E+03</totfact>
</mgrwt>
</event>
<event>
 4    1  0.2346411E-005  0.4543305E+03  0.7818608E-02  0.1026438E+00
          2   -1    0    0  501    0  0.00000000000E+00  0.00000000000E+00  0.13998993472E+03  0.13998993475E+03  0.25500000000E-02 0.  1.
         -2   -1    0    0    0  501 -0.00000000000E+00 -0.00000000000E+00 -0.36862693924E+03  0.36862693925E+03  0.25500000000E-02 0. -1.
    5000001    1    1    2    0    0  0.57166636480E+02 -0.24239405938E+02 -0.23900179139E+03  0.31035693873E+03  0.18800000000E+03 0.  0.
   -5000001    1    1    2    0    0 -0.57166636480E+02  0.24239405938E+02  0.10364786872E+02  0.19825993527E+03  0.18800000000E+03 0.  0.
<mgrwt>
<rscale>  0 0.45433055E+03</rscale>
<asrwt>0</asrwt>
<pdfrwt beam="1">  1        2 0.19998562E-01 0.45433055E+03</pdfrwt>
<pdfrwt beam="2">  1       -2 0.52660991E-01 0.45433055E+03</pdfrwt>
<totfact> 0.96846243E+02</totfact>
</mgrwt>
</event>
<event>
 4    1  0.2346411E-005  0.6193429E+03  0.7818608E-02  0.9866069E-01
          2   -1    0    0  501    0  0.00000000000E+00  0.00000000000E+00  0.14659923733E+04  0.14659923733E+04  0.25500000000E-02 0.  1.
         -2   -1    0    0    0  501 -0.00000000000E+00 -0.00000000000E+00 -0.65413993126E+02  0.65413993176E+02  0.25500000000E-02 0. -1.
    5000001    1    1    2    0    0 -0.38523892224E+02  0.19268226353E+03  0.10665547524E+04  0.11006786928E+04  0.18800000000E+03 0.  0.
   -5000001    1    1    2    0    0  0.38523892224E+02 -0.19268226353E+03  0.33402362779E+03  0.43072767367E+03  0.18800000000E+03 0.  0.
<mgrwt>
<rscale>  0 0.61934293E+03</rscale>
<asrwt>0</asrwt>
<pdfrwt beam="1">  1        2 0.20942748E+00 0.61934293E+03</pdfrwt>
<pdfrwt beam="2">  1       -2 0.93448561E-02 0.61934293E+03</pdfrwt>
<totfact> 0.11835576E+03</totfact>
</mgrwt>
</event>
<event>
 4    1  0.2346411E-005  0.5757662E+03  0.7818608E-02  0.9956999E-01
         -2   -1    0    0    0  501 -0.00000000000E+00  0.00000000000E+00  0.48741800461E+02  0.48741800528E+02  0.25500000000E-02 0. -1.
          2   -1    0    0  501    0  0.00000000000E+00 -0.00000000000E+00 -0.17003203551E+04  0.17003203551E+04  0.25500000000E-02 0.  1.
    5000001    1    1    2    0    0  0.15352283636E+03 -0.40589719256E+02 -0.37198751071E+03  0.44602185453E+03  0.18800000000E+03 0.  0.
   -5000001    1    1    2    0    0 -0.15352283636E+03  0.40589719256E+02 -0.12795910439E+04  0.13030403011E+04  0.18800000000E+03 0.  0.
<mgrwt>
<rscale>  0 0.57576619E+03</rscale>
<asrwt>0</asrwt>
<pdfrwt beam="1">  1        2 0.24290287E+00 0.57576619E+03</pdfrwt>
<pdfrwt beam="2">  1       -2 0.69631154E-02 0.57576619E+03</pdfrwt>
<totfact> 0.14353097E+03</totfact>
</mgrwt>
</event>
<event>
 4    1  0.2346411E-005  0.5050105E+03  0.7818608E-02  0.1012479E+00
         -2   -1    0    0    0  501 -0.00000000000E+00  0.00000000000E+00  0.23264950525E+02  0.23264950665E+02  0.25500000000E-02 0. -1.
          2   -1    0    0  501    0  0.00000000000E+00 -0.00000000000E+00 -0.27405562952E+04  0.27405562952E+04  0.25500000000E-02 0.  1.
    5000001    1    1    2    0    0 -0.33946025273E+02  0.13163018537E+03 -0.19041733785E+04  0.19182541786E+04  0.18800000000E+03 0.  0.
   -5000001    1    1    2    0    0  0.33946025273E+02 -0.13163018537E+03 -0.81311796623E+03  0.84556706732E+03  0.18800000000E+03 0.  0.
<mgrwt>
<rscale>  0 0.50501052E+03</rscale>
<asrwt>0</asrwt>
<pdfrwt beam="1">  1        2 0.39150784E+00 0.50501052E+03</pdfrwt>
<pdfrwt beam="2">  1       -2 0.33235661E-02 0.50501052E+03</pdfrwt>
<totfact> 0.13439638E+03</totfact>
</mgrwt>
</event>
<event>
 4    1  0.2346411E-005  0.7001757E+03  0.7818608E-02  0.9716932E-01
         -2   -1    0    0    0  501 -0.00000000000E+00  0.00000000000E+00  0.27269807619E+03  0.27269807620E+03  0.25500000000E-02 0.  1.
          2   -1    0    0  501    0  0.00000000000E+00 -0.00000000000E+00 -0.44944028544E+03  0.44944028544E+03  0.25500000000E-02 0. -1.
    5000001    1    1    2    0    0  0.16370374970E+02  0.29455319686E+03 -0.10250972738E+03  0.36452958613E+03  0.18800000000E+03 0.  0.
   -5000001    1    1    2    0    0 -0.16370374970E+02 -0.29455319686E+03 -0.74232481869E+02  0.35760877551E+03  0.18800000000E+03 0.  0.
<mgrwt>
<rscale>  0 0.70017570E+03</rscale>
<asrwt>0</asrwt>
<pdfrwt beam="1">  1        2 0.64205755E-01 0.70017570E+03</pdfrwt>
<pdfrwt beam="2">  1       -2 0.38956868E-01 0.70017570E+03</pdfrwt>
<totfact> 0.47528028E+02</totfact>
</mgrwt>
</event>
<event>
 4    1  0.2346411E-005  0.6305659E+03  0.7818608E-02  0.9843945E-01
          2   -1    0    0  501    0  0.00000000000E+00  0.00000000000E+00  0.40624989188E+03  0.40624989189E+03  0.25500000000E-02 0.  1.
         -2   -1    0    0    0  501 -0.00000000000E+00 -0.00000000000E+00 -0.24468521254E+03  0.24468521255E+03  0.25500000000E-02 0. -1.
    5000001    1    1    2    0    0 -0.19383866178E+03 -0.14161442208E+03  0.16356808656E+03  0.34601530354E+03  0.18800000000E+03 0.  0.
   -5000001    1    1    2    0    0  0.19383866178E+03  0.14161442208E+03 -0.20034072160E+01  0.30491980090E+03  0.18800000000E+03 0.  0.
<mgrwt>
<rscale>  0 0.63056591E+03</rscale>
<asrwt>0</asrwt>
<pdfrwt beam="1">  1        2 0.58035698E-01 0.63056591E+03</pdfrwt>
<pdfrwt beam="2">  1       -2 0.34955031E-01 0.63056591E+03</pdfrwt>
<totfact> 0.65610290E+02</totfact>
</mgrwt>
</event>
<event>
 4    1  0.2346411E-005  0.6102354E+03  0.7818608E-02  0.9884396E-01
         -2   -1    0    0    0  501 -0.00000000000E+00  0.00000000000E+00  0.71120826570E+02  0.71120826616E+02  0.25500000000E-02 0. -1.
          2   -1    0    0  501    0  0.00000000000E+00 -0.00000000000E+00 -0.13089949866E+04  0.13089949866E+04  0.25500000000E-02 0.  1.
    5000001    1    1    2    0    0 -0.21001649043E+03 -0.49680230827E+02 -0.85804580201E+03  0.90452288525E+03  0.18800000000E+03 0.  0.
   -5000001    1    1    2    0    0  0.21001649043E+03  0.49680230827E+02 -0.37982835805E+03  0.47559292801E+03  0.18800000000E+03 0.  0.
<mgrwt>
<rscale>  0 0.61023538E+03</rscale>
<asrwt>0</asrwt>
<pdfrwt beam="1">  1        2 0.18699927E+00 0.61023538E+03</pdfrwt>
<pdfrwt beam="2">  1       -2 0.10160119E-01 0.61023538E+03</pdfrwt>
<totfact> 0.12538822E+03</totfact>
</mgrwt>
</event>
<event>
 4    1  0.2346411E-005  0.4482465E+03  0.7818608E-02  0.1028246E+00
         -2   -1    0    0    0  501 -0.00000000000E+00  0.00000000000E+00  0.45612154864E+02  0.45612154935E+02  0.25500000000E-02 0. -1.
          2   -1    0    0  501    0  0.00000000000E+00 -0.00000000000E+00 -0.11012683143E+04  0.11012683143E+04  0.25500000000E-02 0.  1.
    5000001    1    1    2    0    0  0.55326840038E+02 -0.10317031897E+03 -0.43986130562E+03  0.49247044798E+03  0.18800000000E+03 0.  0.
   -5000001    1    1    2    0    0 -0.55326840038E+02  0.10317031897E+03 -0.61579485382E+03  0.65441002127E+03  0.18800000000E+03 0.  0.
<mgrwt>
<rscale>  0 0.44824645E+03</rscale>
<asrwt>0</asrwt>
<pdfrwt beam="1">  1        2 0.15732403E+00 0.44824645E+03</pdfrwt>
<pdfrwt beam="2">  1       -2 0.65160228E-02 0.44824645E+03</pdfrwt>
<totfact> 0.33271219E+03</totfact>
</mgrwt>
</event>
<event>
 4    1  0.2346411E-005  0.7136832E+03  0.7818608E-02  0.9694114E-01
          2   -1    0    0  501    0  0.00000000000E+00  0.00000000000E+00  0.41193634863E+03  0.41193634863E+03  0.25500000000E-02 0.  1.
         -2   -1    0    0    0  501 -0.00000000000E+00 -0.00000000000E+00 -0.30911553243E+03  0.30911553244E+03  0.25500000000E-02 0. -1.
    5000001    1    1    2    0    0 -0.10140480505E+03 -0.25482882771E+03  0.18225141107E+03  0.37918365307E+03  0.18800000000E+03 0.  0.
   -5000001    1    1    2    0    0  0.10140480505E+03  0.25482882771E+03 -0.79430594866E+02  0.34186822801E+03  0.18800000000E+03 0.  0.
<mgrwt>
<rscale>  0 0.71368319E+03</rscale>
<asrwt>0</asrwt>
<pdfrwt beam="1">  1        2 0.58848050E-01 0.71368319E+03</pdfrwt>
<pdfrwt beam="2">  1       -2 0.44159362E-01 0.71368319E+03</pdfrwt>
<totfact> 0.40983093E+02</totfact>
</mgrwt>
</event>
<event>
 4    1  0.2346411E-005  0.8514693E+03  0.7818608E-02  0.9488367E-01
          2   -1    0    0  501    0  0.00000000000E+00  0.00000000000E+00  0.41034818511E+03  0.41034818512E+03  0.25500000000E-02 0.  1.
         -2   -1    0    0    0  501 -0.00000000000E+00 -0.00000000000E+00 -0.44169801294E+03  0.44169801295E+03  0.25500000000E-02 0. -1.
    5000001    1    1    2    0    0 -0.16060950511E+03 -0.97351374614E+02  0.31716626362E+03  0.41377668137E+03  0.18800000000E+03 0.  0.
   -5000001    1    1    2    0    0  0.16060950511E+03  0.97351374614E+02 -0.34851609144E+03  0.43826951670E+03  0.18800000000E+03 0.  0.
<mgrwt>
<rscale>  0 0.85146927E+03</rscale>
<asrwt>0</asrwt>
<pdfrwt beam="1">  1        2 0.58621170E-01 0.85146927E+03</pdfrwt>
<pdfrwt beam="2">  1       -2 0.63099716E-01 0.85146927E+03</pdfrwt>
<totfact> 0.19660442E+02</totfact>
</mgrwt>
</event>
<event>
 4    1  0.2346411E-005  0.4994586E+03  0.7818608E-02  0.1013920E+00
          2   -1    0    0  501    0  0.00000000000E+00  0.00000000000E+00  0.10043770031E+03  0.10043770034E+03  0.25500000000E-02 0.  1.
         -2   -1    0    0    0  501 -0.00000000000E+00 -0.00000000000E+00 -0.62092940418E+03  0.62092940419E+03  0.25500000000E-02 0. -1.
    5000001    1    1    2    0    0 -0.96531148316E+02  0.55693425181E+02 -0.43476524818E+03  0.48660542664E+03  0.18800000000E+03 0.  0.
   -5000001    1    1    2    0    0  0.96531148316E+02 -0.55693425181E+02 -0.85726455686E+02  0.23476167790E+03  0.18800000000E+03 0.  0.
<mgrwt>
<rscale>  0 0.49945859E+03</rscale>
<asrwt>0</asrwt>
<pdfrwt beam="1">  1        2 0.14348243E-01 0.49945859E+03</pdfrwt>
<pdfrwt beam="2">  1       -2 0.88704198E-01 0.49945859E+03</pdfrwt>
<totfact> 0.46692659E+02</totfact>
</mgrwt>
</event>
<event>
 4    1  0.2346411E-005  0.5725031E+03  0.7818608E-02  0.9964155E-01
         -2   -1    0    0    0  501 -0.00000000000E+00  0.00000000000E+00  0.67923694763E+02  0.67923694811E+02  0.25500000000E-02 0. -1.
          2   -1    0    0  501    0  0.00000000000E+00 -0.00000000000E+00 -0.12063528395E+04  0.12063528395E+04  0.25500000000E-02 0.  1.
    5000001    1    1    2    0    0 -0.14048298328E+03 -0.15442426352E+03 -0.44702612905E+03  0.52797602390E+03  0.18800000000E+03 0.  0.
   -5000001    1    1    2    0    0  0.14048298328E+03  0.15442426352E+03 -0.69140301569E+03  0.74630051042E+03  0.18800000000E+03 0.  0.
<mgrwt>
<rscale>  0 0.57250307E+03</rscale>
<asrwt>0</asrwt>
<pdfrwt beam="1">  1        2 0.17233611E+00 0.57250307E+03</pdfrwt>
<pdfrwt beam="2">  1       -2 0.97033857E-02 0.57250307E+03</pdfrwt>
<totfact> 0.15400153E+03</totfact>
</mgrwt>
</event>
<event>
 4    1  0.2346411E-005  0.6456124E+03  0.7818608E-02  0.9815047E-01
         -2   -1    0    0    0  501 -0.00000000000E+00  0.00000000000E+00  0.71808908485E+02  0.71808908530E+02  0.25500000000E-02 0. -1.
          2   -1    0    0  501    0  0.00000000000E+00 -0.00000000000E+00 -0.14511269408E+04  0.14511269408E+04  0.25500000000E-02 0.  1.
    5000001    1    1    2    0    0 -0.11612302305E+03  0.21267318055E+03 -0.45206012387E+03  0.54627538275E+03  0.18800000000E+03 0.  0.
   -5000001    1    1    2    0    0  0.11612302305E+03 -0.21267318055E+03 -0.92725790848E+03  0.97666046661E+03  0.18800000000E+03 0.  0.
<mgrwt>
<rscale>  0 0.64561240E+03</rscale>
<asrwt>0</asrwt>
<pdfrwt beam="1">  1        2 0.20730383E+00 0.64561240E+03</pdfrwt>
<pdfrwt beam="2">  1       -2 0.10258416E-01 0.64561240E+03</pdfrwt>
<totfact> 0.10350216E+03</totfact>
</mgrwt>
</event>
<event>
 4    1  0.2346411E-005  0.4647450E+03  0.7818608E-02  0.1023414E+00
         -2   -1    0    0    0  501 -0.00000000000E+00  0.00000000000E+00  0.37945152125E+03  0.37945152125E+03  0.25500000000E-02 0. -1.
          2   -1    0    0  501    0  0.00000000000E+00 -0.00000000000E+00 -0.14230268535E+03  0.14230268537E+03  0.25500000000E-02 0.  1.
    5000001    1    1    2    0    0 -0.15830586239E+02 -0.32588733215E+02 -0.29261526098E+02  0.19368239441E+03  0.18800000000E+03 0.  0.
   -5000001    1    1    2    0    0  0.15830586239E+02  0.32588733215E+02  0.26641036200E+03  0.32807181222E+03  0.18800000000E+03 0.  0.
<mgrwt>
<rscale>  0 0.46474496E+03</rscale>
<asrwt>0</asrwt>
<pdfrwt beam="1">  1        2 0.20328955E-01 0.46474496E+03</pdfrwt>
<pdfrwt beam="2">  1       -2 0.54207360E-01 0.46474496E+03</pdfrwt>
<totfact> 0.89570745E+02</totfact>
</mgrwt>
</event>
<event>
 4    1  0.2346411E-005  0.5330325E+03  0.7818608E-02  0.1005499E+00
          2   -1    0    0  501    0  0.00000000000E+00  0.00000000000E+00  0.20129054997E+04  0.20129054997E+04  0.25500000000E-02 0.  1.
         -2   -1    0    0    0  501 -0.00000000000E+00 -0.00000000000E+00 -0.35287759150E+02  0.35287759242E+02  0.25500000000E-02 0. -1.
    5000001    1    1    2    0    0 -0.30255602754E+02 -0.17683993857E+03  0.76150907045E+03  0.80462900131E+03  0.18800000000E+03 0.  0.
   -5000001    1    1    2    0    0  0.30255602754E+02  0.17683993857E+03  0.12161086701E+04  0.12435642577E+04  0.18800000000E+03 0.  0.
<mgrwt>
<rscale>  0 0.53303255E+03</rscale>
<asrwt>0</asrwt>
<pdfrwt beam="1">  1        2 0.28755791E+00 0.53303255E+03</pdfrwt>
<pdfrwt beam="2">  1       -2 0.50411088E-02 0.53303255E+03</pdfrwt>
<totfact> 0.16586704E+03</totfact>
</mgrwt>
</event>
<event>
 4    1  0.2346411E-005  0.7439745E+03  0.7818608E-02  0.9644851E-01
         -2   -1    0    0    0  501 -0.00000000000E+00  0.00000000000E+00  0.60773247454E+02  0.60773247507E+02  0.25500000000E-02 0. -1.
          2   -1    0    0  501    0  0.00000000000E+00 -0.00000000000E+00 -0.22768986887E+04  0.22768986887E+04  0.25500000000E-02 0.  1.
    5000001    1    1    2    0    0  0.20072064201E+03  0.20142883273E+03 -0.15758953184E+04  0.16123437616E+04  0.18800000000E+03 0.  0.
   -5000001    1    1    2    0    0 -0.20072064201E+03 -0.20142883273E+03 -0.64023012283E+03  0.72532817467E+03  0.18800000000E+03 0.  0.
<mgrwt>
<rscale>  0 0.74397454E+03</rscale>
<asrwt>0</asrwt>
<pdfrwt beam="1">  1        2 0.32527119E+00 0.74397454E+03</pdfrwt>
<pdfrwt beam="2">  1       -2 0.86818939E-02 0.74397454E+03</pdfrwt>
<totfact> 0.51129354E+02</totfact>
</mgrwt>
</event>
<event>
 4    1  0.2346411E-005  0.4961563E+03  0.7818608E-02  0.1014787E+00
          2   -1    0    0  501    0  0.00000000000E+00  0.00000000000E+00  0.21183096824E+04  0.21183096824E+04  0.25500000000E-02 0.  1.
         -2   -1    0    0    0  501 -0.00000000000E+00 -0.00000000000E+00 -0.29052773768E+02  0.29052773880E+02  0.25500000000E-02 0. -1.
    5000001    1    1    2    0    0  0.93189175257E+02 -0.10815164532E+03  0.13747433765E+04  0.13948635603E+04  0.18800000000E+03 0.  0.
   -5000001    1    1    2    0    0 -0.93189175257E+02  0.10815164532E+03  0.71451353212E+03  0.75249889591E+03  0.18800000000E+03 0.  0.
<mgrwt>
<rscale>  0 0.49615631E+03</rscale>
<asrwt>0</asrwt>
<pdfrwt beam="1">  1        2 0.30261567E+00 0.49615631E+03</pdfrwt>
<pdfrwt beam="2">  1       -2 0.41503962E-02 0.49615631E+03</pdfrwt>
<totfact> 0.19854316E+03</totfact>
</mgrwt>
</event>
<event>
 4    1  0.2346411E-005  0.4115855E+03  0.7818608E-02  0.1039840E+00
          2   -1    0    0  501    0  0.00000000000E+00  0.00000000000E+00  0.14581157355E+04  0.14581157355E+04  0.25500000000E-02 0.  1.
         -2   -1    0    0    0  501 -0.00000000000E+00 -0.00000000000E+00 -0.29044779434E+02  0.29044779546E+02  0.25500000000E-02 0. -1.
    5000001    1    1    2    0    0 -0.60655263127E+01  0.81346923653E+02  0.78237775537E+03  0.80877256673E+03  0.18800000000E+03 0.  0.
   -5000001    1    1    2    0    0  0.60655263127E+01 -0.81346923653E+02  0.64669320069E+03  0.67838794831E+03  0.18800000000E+03 0.  0.
<mgrwt>
<rscale>  0 0.41158547E+03</rscale>
<asrwt>0</asrwt>
<pdfrwt beam="1">  1        2 0.20830229E+00 0.41158547E+03</pdfrwt>
<pdfrwt beam="2">  1       -2 0.41492534E-02 0.41158547E+03</pdfrwt>
<totfact> 0.42741693E+03</totfact>
</mgrwt>
</event>
<event>
 4    1  0.2346411E-005  0.5343729E+03  0.7818608E-02  0.1005177E+00
          2   -1    0    0  501    0  0.00000000000E+00  0.00000000000E+00  0.81542180446E+03  0.81542180446E+03  0.25500000000E-02 0.  1.
         -2   -1    0    0    0  501 -0.00000000000E+00 -0.00000000000E+00 -0.87548054102E+02  0.87548054139E+02  0.25500000000E-02 0. -1.
    5000001    1    1    2    0    0  0.15686567651E+03  0.10613868385E+03  0.34175433377E+03  0.43360383454E+03  0.18800000000E+03 0.  0.
   -5000001    1    1    2    0    0 -0.15686567651E+03 -0.10613868385E+03  0.38611941659E+03  0.46936602406E+03  0.18800000000E+03 0.  0.
<mgrwt>
<rscale>  0 0.53437287E+03</rscale>
<asrwt>0</asrwt>
<pdfrwt beam="1">  1        2 0.11648883E+00 0.53437287E+03</pdfrwt>
<pdfrwt beam="2">  1       -2 0.12506864E-01 0.53437287E+03</pdfrwt>
<totfact> 0.17629290E+03</totfact>
</mgrwt>
</event>
<event>
 4    1  0.2346411E-005  0.7061765E+03  0.7818608E-02  0.9706727E-01
         -2   -1    0    0    0  501 -0.00000000000E+00  0.00000000000E+00  0.44230673352E+03  0.44230673353E+03  0.25500000000E-02 0. -1.
          2   -1    0    0  501    0  0.00000000000E+00 -0.00000000000E+00 -0.28186620953E+03  0.28186620954E+03  0.25500000000E-02 0.  1.
    5000001    1    1    2    0    0  0.80348608480E+02 -0.27870646411E+03  0.63132847088E+01  0.34571237985E+03  0.18800000000E+03 0.  0.
   -5000001    1    1    2    0    0 -0.80348608480E+02  0.27870646411E+03  0.15412723928E+03  0.37846056322E+03  0.18800000000E+03 0.  0.
<mgrwt>
<rscale>  0 0.70617653E+03</rscale>
<asrwt>0</asrwt>
<pdfrwt beam="1">  1        2 0.40266602E-01 0.70617653E+03</pdfrwt>
<pdfrwt beam="2">  1       -2 0.63186676E-01 0.70617653E+03</pdfrwt>
<totfact> 0.29924103E+02</totfact>
</mgrwt>
</event>
<event>
 4    1  0.2346411E-005  0.4226269E+03  0.7818608E-02  0.1036215E+00
          2   -1    0    0  501    0  0.00000000000E+00  0.00000000000E+00  0.12354886471E+04  0.12354886471E+04  0.25500000000E-02 0.  1.
         -2   -1    0    0    0  501 -0.00000000000E+00 -0.00000000000E+00 -0.36142279707E+02  0.36142279796E+02  0.25500000000E-02 0. -1.
    5000001    1    1    2    0    0 -0.65181506843E+02 -0.65087909396E+02  0.68606042838E+03  0.71729211356E+03  0.18800000000E+03 0.  0.
   -5000001    1    1    2    0    0  0.65181506843E+02  0.65087909396E+02  0.51328593897E+03  0.55433881330E+03  0.18800000000E+03 0.  0.
<mgrwt>
<rscale>  0 0.42262691E+03</rscale>
<asrwt>0</asrwt>
<pdfrwt beam="1">  1        2 0.17649836E+00 0.42262691E+03</pdfrwt>
<pdfrwt beam="2">  1       -2 0.51631835E-02 0.42262691E+03</pdfrwt>
<totfact> 0.40137480E+03</totfact>
</mgrwt>
</event>
<event>
 4    1  0.2346411E-005  0.4985058E+03  0.7818608E-02  0.1014170E+00
          2   -1    0    0  501    0  0.00000000000E+00  0.00000000000E+00  0.34832879449E+04  0.34832879449E+04  0.25500000000E-02 0.  1.
         -2   -1    0    0    0  501 -0.00000000000E+00 -0.00000000000E+00 -0.17835739089E+02  0.17835739271E+02  0.25500000000E-02 0. -1.
    5000001    1    1    2    0    0 -0.10044379969E+03 -0.12789558089E+03  0.18616132368E+04  0.18781357991E+04  0.18800000000E+03 0.  0.
   -5000001    1    1    2    0    0  0.10044379969E+03  0.12789558089E+03  0.16038389690E+04  0.16229878850E+04  0.18800000000E+03 0.  0.
<mgrwt>
<rscale>  0 0.49850583E+03</rscale>
<asrwt>0</asrwt>
<pdfrwt beam="1">  1        2 0.49761273E+00 0.49850583E+03</pdfrwt>
<pdfrwt beam="2">  1       -2 0.25479619E-02 0.49850583E+03</pdfrwt>
<totfact> 0.78177580E+02</totfact>
</mgrwt>
</event>
<event>
 4    1  0.2346411E-005  0.1119460E+04  0.7818608E-02  0.9186430E-01
          2   -1    0    0  501    0  0.00000000000E+00  0.00000000000E+00  0.38641162352E+03  0.38641162353E+03  0.25500000000E-02 0.  1.
         -2   -1    0    0    0  501 -0.00000000000E+00 -0.00000000000E+00 -0.81078730110E+03  0.81078730110E+03  0.25500000000E-02 0. -1.
    5000001    1    1    2    0    0 -0.27234378121E+03 -0.19978416217E+03 -0.64510608154E+03  0.75205764610E+03  0.18800000000E+03 0.  0.
   -5000001    1    1    2    0    0  0.27234378121E+03  0.19978416217E+03  0.22073040397E+03  0.44514127853E+03  0.18800000000E+03 0.  0.
<mgrwt>
<rscale>  0 0.11194599E+04</rscale>
<asrwt>0</asrwt>
<pdfrwt beam="1">  1        2 0.55201661E-01 0.11194599E+04</pdfrwt>
<pdfrwt beam="2">  1       -2 0.11582676E+00 0.11194599E+04</pdfrwt>
<totfact> 0.51687187E+01</totfact>
</mgrwt>
</event>
<event>
 4    1  0.2346411E-005  0.7692702E+03  0.7818608E-02  0.9605594E-01
         -2   -1    0    0    0  501 -0.00000000000E+00  0.00000000000E+00  0.10090246892E+03  0.10090246895E+03  0.25500000000E-02 0. -1.
          2   -1    0    0  501    0  0.00000000000E+00 -0.00000000000E+00 -0.14662095026E+04  0.14662095026E+04  0.25500000000E-02 0.  1.
    5000001    1    1    2    0    0  0.11598232968E+03  0.29215386240E+03 -0.44339236277E+03  0.57510570113E+03  0.18800000000E+03 0.  0.
   -5000001    1    1    2    0    0 -0.11598232968E+03 -0.29215386240E+03 -0.92191467088E+03  0.99200627039E+03  0.18800000000E+03 0.  0.
<mgrwt>
<rscale>  0 0.76927020E+03</rscale>
<asrwt>0</asrwt>
<pdfrwt beam="1">  1        2 0.20945849E+00 0.76927020E+03</pdfrwt>
<pdfrwt beam="2">  1       -2 0.14414639E-01 0.76927020E+03</pdfrwt>
<totfact> 0.57573937E+02</totfact>
</mgrwt>
</event>
<event>
 4    1  0.2346411E-005  0.4515690E+03  0.7818608E-02  0.1027255E+00
         -2   -1    0    0    0  501 -0.00000000000E+00  0.00000000000E+00  0.56840644637E+02  0.56840644694E+02  0.25500000000E-02 0. -1.
          2   -1    0    0  501    0  0.00000000000E+00 -0.00000000000E+00 -0.89686948809E+03  0.89686948809E+03  0.25500000000E-02 0.  1.
    5000001    1    1    2    0    0 -0.11589939293E+03  0.10716027206E+02 -0.32352764560E+03  0.39186941701E+03  0.18800000000E+03 0.  0.
   -5000001    1    1    2    0    0  0.11589939293E+03 -0.10716027206E+02 -0.51650119785E+03  0.56184071578E+03  0.18800000000E+03 0.  0.
<mgrwt>
<rscale>  0 0.45156900E+03</rscale>
<asrwt>0</asrwt>
<pdfrwt beam="1">  1        2 0.12812420E+00 0.45156900E+03</pdfrwt>
<pdfrwt beam="2">  1       -2 0.81200926E-02 0.45156900E+03</pdfrwt>
<totfact> 0.31279636E+03</totfact>
</mgrwt>
</event>
<event>
 4    1  0.2346411E-005  0.2222596E+04  0.7818608E-02  0.8509082E-01
         -2   -1    0    0    0  501 -0.00000000000E+00  0.00000000000E+00  0.13852249471E+04  0.13852249471E+04  0.25500000000E-02 0. -1.
          2   -1    0    0  501    0  0.00000000000E+00 -0.00000000000E+00 -0.89153988116E+03  0.89153988117E+03  0.25500000000E-02 0.  1.
    5000001    1    1    2    0    0 -0.81018787035E+03  0.63489255931E+03 -0.13664258499E+03  0.10552289530E+04  0.18800000000E+03 0.  0.
   -5000001    1    1    2    0    0  0.81018787035E+03 -0.63489255931E+03  0.63032765091E+03  0.12215358753E+04  0.18800000000E+03 0.  0.
<mgrwt>
<rscale>  0 0.22225960E+04</rscale>
<asrwt>0</asrwt>
<pdfrwt beam="1">  1        2 0.12736284E+00 0.22225960E+04</pdfrwt>
<pdfrwt beam="2">  1       -2 0.19788928E+00 0.22225960E+04</pdfrwt>
<totfact> 0.41435716E+00</totfact>
</mgrwt>
</event>
<event>
 4    1  0.2346411E-005  0.4574600E+03  0.7818608E-02  0.1025520E+00
          2   -1    0    0  501    0  0.00000000000E+00  0.00000000000E+00  0.10252374498E+04  0.10252374498E+04  0.25500000000E-02 0.  1.
         -2   -1    0    0    0  501 -0.00000000000E+00 -0.00000000000E+00 -0.51029550396E+02  0.51029550460E+02  0.25500000000E-02 0. -1.
    5000001    1    1    2    0    0  0.67264973375E+02  0.82518220781E+02  0.31042287661E+03  0.37820655167E+03  0.18800000000E+03 0.  0.
   -5000001    1    1    2    0    0 -0.67264973375E+02 -0.82518220781E+02  0.66378502281E+03  0.69806044861E+03  0.18800000000E+03 0.  0.
<mgrwt>
<rscale>  0 0.45745997E+03</rscale>
<asrwt>0</asrwt>
<pdfrwt beam="1">  1        2 0.14646248E+00 0.45745997E+03</pdfrwt>
<pdfrwt beam="2">  1       -2 0.72899365E-02 0.45745997E+03</pdfrwt>
<totfact> 0.30912771E+03</totfact>
</mgrwt>
</event>
<event>
 4    1  0.2346411E-005  0.7077027E+03  0.7818608E-02  0.9704150E-01
         -2   -1    0    0    0  501 -0.00000000000E+00  0.00000000000E+00  0.37666678413E+03  0.37666678414E+03  0.25500000000E-02 0. -1.
          2   -1    0    0  501    0  0.00000000000E+00 -0.00000000000E+00 -0.33241784755E+03  0.33241784756E+03  0.25500000000E-02 0.  1.
    5000001    1    1    2    0    0 -0.22763901597E+02  0.26616751463E+03  0.15841737651E+03  0.36304738842E+03  0.18800000000E+03 0.  0.
   -5000001    1    1    2    0    0  0.22763901597E+02 -0.26616751463E+03 -0.11416843993E+03  0.34603724328E+03  0.18800000000E+03 0.  0.
<mgrwt>
<rscale>  0 0.70770265E+03</rscale>
<asrwt>0</asrwt>
<pdfrwt beam="1">  1        2 0.47488264E-01 0.70770265E+03</pdfrwt>
<pdfrwt beam="2">  1       -2 0.53809541E-01 0.70770265E+03</pdfrwt>
<totfact> 0.34898805E+02</totfact>
</mgrwt>
</event>
<event>
 4    1  0.2346411E-005  0.5193694E+03  0.7818608E-02  0.1008843E+00
          2   -1    0    0  501    0  0.00000000000E+00  0.00000000000E+00  0.96133476078E+03  0.96133476079E+03  0.25500000000E-02 0.  1.
         -2   -1    0    0    0  501 -0.00000000000E+00 -0.00000000000E+00 -0.70148454973E+02  0.70148455019E+02  0.25500000000E-02 0. -1.
    5000001    1    1    2    0    0 -0.98677281616E+02 -0.11510897996E+03  0.63509897094E+03  0.67947184347E+03  0.18800000000E+03 0.  0.
   -5000001    1    1    2    0    0  0.98677281616E+02  0.11510897996E+03  0.25608733487E+03  0.35201137234E+03  0.18800000000E+03 0.  0.
<mgrwt>
<rscale>  0 0.51936942E+03</rscale>
<asrwt>0</asrwt>
<pdfrwt beam="1">  1        2 0.13733354E+00 0.51936942E+03</pdfrwt>
<pdfrwt beam="2">  1       -2 0.10021208E-01 0.51936942E+03</pdfrwt>
<totfact> 0.20354468E+03</totfact>
</mgrwt>
</event>
<event>
 4    1  0.2346411E-005  0.5981038E+03  0.7818608E-02  0.9909348E-01
         -2   -1    0    0    0  501 -0.00000000000E+00  0.00000000000E+00  0.41828258603E+03  0.41828258603E+03  0.25500000000E-02 0. -1.
          2   -1    0    0  501    0  0.00000000000E+00 -0.00000000000E+00 -0.21380772775E+03  0.21380772777E+03  0.25500000000E-02 0.  1.
    5000001    1    1    2    0    0  0.21707608704E+03 -0.76778013304E+02  0.67649114910E+02  0.30485618517E+03  0.18800000000E+03 0.  0.
   -5000001    1    1    2    0    0 -0.21707608704E+03  0.76778013304E+02  0.13682574336E+03  0.32723412863E+03  0.18800000000E+03 0.  0.
<mgrwt>
<rscale>  0 0.59810383E+03</rscale>
<asrwt>0</asrwt>
<pdfrwt beam="1">  1        2 0.30543961E-01 0.59810383E+03</pdfrwt>
<pdfrwt beam="2">  1       -2 0.59754655E-01 0.59810383E+03</pdfrwt>
<totfact> 0.45951769E+02</totfact>
</mgrwt>
</event>
<event>
 4    1  0.2346411E-005  0.4192052E+03  0.7818608E-02  0.1037325E+00
          2   -1    0    0  501    0  0.00000000000E+00  0.00000000000E+00  0.59435267675E+03  0.59435267676E+03  0.25500000000E-02 0.  1.
         -2   -1    0    0    0  501 -0.00000000000E+00 -0.00000000000E+00 -0.73917822576E+02  0.73917822620E+02  0.25500000000E-02 0. -1.
    5000001    1    1    2    0    0  0.23299355167E+02 -0.45562746118E+02  0.38339410186E+03  0.43006262465E+03  0.18800000000E+03 0.  0.
   -5000001    1    1    2    0    0 -0.23299355167E+02  0.45562746118E+02  0.13704075232E+03  0.23820787473E+03  0.18800000000E+03 0.  0.
<mgrwt>
<rscale>  0 0.41920523E+03</rscale>
<asrwt>0</asrwt>
<pdfrwt beam="1">  1        2 0.84907527E-01 0.41920523E+03</pdfrwt>
<pdfrwt beam="2">  1       -2 0.10559689E-01 0.41920523E+03</pdfrwt>
<totfact> 0.34059106E+03</totfact>
</mgrwt>
</event>
<event>
 4    1  0.2346411E-005  0.5285049E+03  0.7818608E-02  0.1006595E+00
          2   -1    0    0  501    0  0.00000000000E+00  0.00000000000E+00  0.33912584780E+03  0.33912584781E+03  0.25500000000E-02 0.  1.
         -2   -1    0    0    0  501 -0.00000000000E+00 -0.00000000000E+00 -0.20590985593E+03  0.20590985595E+03  0.25500000000E-02 0. -1.
    5000001    1    1    2    0    0  0.11534781639E+03  0.14517434408E+03  0.77157603804E+02  0.27509635539E+03  0.18800000000E+03 0.  0.
   -5000001    1    1    2    0    0 -0.11534781639E+03 -0.14517434408E+03  0.56058388069E+02  0.26993934837E+03  0.18800000000E+03 0.  0.
<mgrwt>
<rscale>  0 0.52850489E+03</rscale>
<asrwt>0</asrwt>
<pdfrwt beam="1">  1        2 0.48446550E-01 0.52850489E+03</pdfrwt>
<pdfrwt beam="2">  1       -2 0.29415693E-01 0.52850489E+03</pdfrwt>
<totfact> 0.11067653E+03</totfact>
</mgrwt>
</event>
<event>
 4    1  0.2346411E-005  0.9353459E+03  0.7818608E-02  0.9382445E-01
          2   -1    0    0  501    0  0.00000000000E+00  0.00000000000E+00  0.44182119457E+04  0.44182119457E+04  0.25500000000E-02 0.  1.
         -2   -1    0    0    0  501 -0.00000000000E+00 -0.00000000000E+00 -0.49503734801E+02  0.49503734867E+02  0.25500000000E-02 0. -1.
    5000001    1    1    2    0    0  0.37246233136E+03  0.10015007397E+03  0.30730440284E+04  0.31028538196E+04  0.18800000000E+03 0.  0.
   -5000001    1    1    2    0    0 -0.37246233136E+03 -0.10015007397E+03  0.12956641825E+04  0.13648618610E+04  0.18800000000E+03 0.  0.
<mgrwt>
<rscale>  0 0.93534591E+03</rscale>
<asrwt>0</asrwt>
<pdfrwt beam="1">  1        2 0.63117292E+00 0.93534591E+03</pdfrwt>
<pdfrwt beam="2">  1       -2 0.70719645E-02 0.93534591E+03</pdfrwt>
<totfact> 0.36286150E+01</totfact>
</mgrwt>
</event>
<event>
 4    1  0.2346411E-005  0.5344099E+03  0.7818608E-02  0.1005168E+00
         -2   -1    0    0    0  501 -0.00000000000E+00  0.00000000000E+00  0.57720929680E+02  0.57720929737E+02  0.25500000000E-02 0. -1.
          2   -1    0    0  501    0  0.00000000000E+00 -0.00000000000E+00 -0.12369598679E+04  0.12369598679E+04  0.25500000000E-02 0.  1.
    5000001    1    1    2    0    0 -0.11634483872E+03  0.55174396113E+02 -0.92769782702E+03  0.95527357010E+03  0.18800000000E+03 0.  0.
   -5000001    1    1    2    0    0  0.11634483872E+03 -0.55174396113E+02 -0.25154111123E+03  0.33940722756E+03  0.18800000000E+03 0.  0.
<mgrwt>
<rscale>  0 0.53440986E+03</rscale>
<asrwt>0</asrwt>
<pdfrwt beam="1">  1        2 0.17670854E+00 0.53440986E+03</pdfrwt>
<pdfrwt beam="2">  1       -2 0.82458478E-02 0.53440986E+03</pdfrwt>
<totfact> 0.19242278E+03</totfact>
</mgrwt>
</event>
<event>
 4    1  0.2346411E-005  0.5499089E+03  0.7818608E-02  0.1001515E+00
         -2   -1    0    0    0  501 -0.00000000000E+00  0.00000000000E+00  0.83651416005E+03  0.83651416005E+03  0.25500000000E-02 0. -1.
          2   -1    0    0  501    0  0.00000000000E+00 -0.00000000000E+00 -0.90374970560E+02  0.90374970596E+02  0.25500000000E-02 0.  1.
    5000001    1    1    2    0    0 -0.48070281167E+02  0.18566468564E+03  0.47241331398E+03  0.54341555614E+03  0.18800000000E+03 0.  0.
   -5000001    1    1    2    0    0  0.48070281167E+02 -0.18566468564E+03  0.27372587550E+03  0.38347357451E+03  0.18800000000E+03 0.  0.
<mgrwt>
<rscale>  0 0.54990887E+03</rscale>
<asrwt>0</asrwt>
<pdfrwt beam="1">  1        2 0.12910710E-01 0.54990887E+03</pdfrwt>
<pdfrwt beam="2">  1       -2 0.11950202E+00 0.54990887E+03</pdfrwt>
<totfact> 0.26207905E+02</totfact>
</mgrwt>
</event>
<event>
 4    1  0.2346411E-005  0.4664130E+03  0.7818608E-02  0.1022938E+00
         -2   -1    0    0    0  501 -0.00000000000E+00  0.00000000000E+00  0.24807166337E+03  0.24807166338E+03  0.25500000000E-02 0. -1.
          2   -1    0    0  501    0  0.00000000000E+00 -0.00000000000E+00 -0.21923207246E+03  0.21923207247E+03  0.25500000000E-02 0.  1.
    5000001    1    1    2    0    0  0.70644438633E+02 -0.28645162321E+02  0.12966156419E+03  0.24076399910E+03  0.18800000000E+03 0.  0.
   -5000001    1    1    2    0    0 -0.70644438633E+02  0.28645162321E+02 -0.10082197327E+03  0.22653973676E+03  0.18800000000E+03 0.  0.
<mgrwt>
<rscale>  0 0.46641297E+03</rscale>
<asrwt>0</asrwt>
<pdfrwt beam="1">  1        2 0.31318868E-01 0.46641297E+03</pdfrwt>
<pdfrwt beam="2">  1       -2 0.35438809E-01 0.46641297E+03</pdfrwt>
<totfact> 0.12651238E+03</totfact>
</mgrwt>
</event>
<event>
 4    1  0.2346411E-005  0.6808627E+03  0.7818608E-02  0.9750531E-01
          2   -1    0    0  501    0  0.00000000000E+00  0.00000000000E+00  0.13622432226E+04  0.13622432226E+04  0.25500000000E-02 0.  1.
         -2   -1    0    0    0  501 -0.00000000000E+00 -0.00000000000E+00 -0.85075479725E+02  0.85075479763E+02  0.25500000000E-02 0. -1.
    5000001    1    1    2    0    0 -0.25538910011E+03 -0.88198282707E+02  0.45391621035E+03  0.56070175276E+03  0.18800000000E+03 0.  0.
   -5000001    1    1    2    0    0  0.25538910011E+03  0.88198282707E+02  0.82325153251E+03  0.88661694959E+03  0.18800000000E+03 0.  0.
<mgrwt>
<rscale>  0 0.68086268E+03</rscale>
<asrwt>0</asrwt>
<pdfrwt beam="1">  1        2 0.19460616E+00 0.68086268E+03</pdfrwt>
<pdfrwt beam="2">  1       -2 0.12153641E-01 0.68086268E+03</pdfrwt>
<totfact> 0.87290665E+02</totfact>
</mgrwt>
</event>
<event>
 4    1  0.2346411E-005  0.5188095E+03  0.7818608E-02  0.1008983E+00
         -2   -1    0    0    0  501 -0.00000000000E+00  0.00000000000E+00  0.10944750189E+03  0.10944750192E+03  0.25500000000E-02 0. -1.
          2   -1    0    0  501    0  0.00000000000E+00 -0.00000000000E+00 -0.61482277440E+03  0.61482277441E+03  0.25500000000E-02 0.  1.
    5000001    1    1    2    0    0 -0.10567221974E+03 -0.14384457936E+03 -0.26585294122E+03  0.37132151485E+03  0.18800000000E+03 0.  0.
   -5000001    1    1    2    0    0  0.10567221974E+03  0.14384457936E+03 -0.23952233130E+03  0.35294876147E+03  0.18800000000E+03 0.  0.
<mgrwt>
<rscale>  0 0.51880947E+03</rscale>
<asrwt>0</asrwt>
<pdfrwt beam="1">  1        2 0.87831824E-01 0.51880947E+03</pdfrwt>
<pdfrwt beam="2">  1       -2 0.15635358E-01 0.51880947E+03</pdfrwt>
<totfact> 0.17171669E+03</totfact>
</mgrwt>
</event>
<event>
 4    1  0.2346411E-005  0.5395677E+03  0.7818608E-02  0.1003938E+00
         -2   -1    0    0    0  501 -0.00000000000E+00  0.00000000000E+00  0.64962841344E+02  0.64962841394E+02  0.25500000000E-02 0. -1.
          2   -1    0    0  501    0  0.00000000000E+00 -0.00000000000E+00 -0.11203840261E+04  0.11203840261E+04  0.25500000000E-02 0.  1.
    5000001    1    1    2    0    0  0.12152248221E+03 -0.87889740257E+02 -0.25912874428E+03  0.35353079956E+03  0.18800000000E+03 0.  0.
   -5000001    1    1    2    0    0 -0.12152248221E+03  0.87889740257E+02 -0.79629244050E+03  0.83181606796E+03  0.18800000000E+03 0.  0.
<mgrwt>
<rscale>  0 0.53956771E+03</rscale>
<asrwt>0</asrwt>
<pdfrwt beam="1">  1        2 0.16005485E+00 0.53956771E+03</pdfrwt>
<pdfrwt beam="2">  1       -2 0.92804066E-02 0.53956771E+03</pdfrwt>
<totfact> 0.18520621E+03</totfact>
</mgrwt>
</event>
<event>
 4    1  0.2346411E-005  0.6485471E+03  0.7818608E-02  0.9809509E-01
         -2   -1    0    0    0  501 -0.00000000000E+00  0.00000000000E+00  0.99199582828E+02  0.99199582861E+02  0.25500000000E-02 0. -1.
          2   -1    0    0  501    0  0.00000000000E+00 -0.00000000000E+00 -0.10600178958E+04  0.10600178958E+04  0.25500000000E-02 0.  1.
    5000001    1    1    2    0    0 -0.17852679180E+03  0.19467204949E+03 -0.46906076613E+03  0.57020261712E+03  0.18800000000E+03 0.  0.
   -5000001    1    1    2    0    0  0.17852679180E+03 -0.19467204949E+03 -0.49175754681E+03  0.58901486152E+03  0.18800000000E+03 0.  0.
<mgrwt>
<rscale>  0 0.64854709E+03</rscale>
<asrwt>0</asrwt>
<pdfrwt beam="1">  1        2 0.15143112E+00 0.64854709E+03</pdfrwt>
<pdfrwt beam="2">  1       -2 0.14171370E-01 0.64854709E+03</pdfrwt>
<totfact> 0.10008132E+03</totfact>
</mgrwt>
</event>
<event>
 4    1  0.2346411E-005  0.5555265E+03  0.7818608E-02  0.1000223E+00
         -2   -1    0    0    0  501 -0.00000000000E+00  0.00000000000E+00  0.58010744562E+02  0.58010744618E+02  0.25500000000E-02 0. -1.
          2   -1    0    0  501    0  0.00000000000E+00 -0.00000000000E+00 -0.13299679899E+04  0.13299679899E+04  0.25500000000E-02 0.  1.
    5000001    1    1    2    0    0 -0.18933038673E+03  0.59511137108E+02 -0.51304715317E+03  0.58133377001E+03  0.18800000000E+03 0.  0.
   -5000001    1    1    2    0    0  0.18933038673E+03 -0.59511137108E+02 -0.75891009220E+03  0.80664496454E+03  0.18800000000E+03 0.  0.
<mgrwt>
<rscale>  0 0.55552654E+03</rscale>
<asrwt>0</asrwt>
<pdfrwt beam="1">  1        2 0.18999541E+00 0.55552654E+03</pdfrwt>
<pdfrwt beam="2">  1       -2 0.82872500E-02 0.55552654E+03</pdfrwt>
<totfact> 0.16980737E+03</totfact>
</mgrwt>
</event>
<event>
 4    1  0.2346411E-005  0.1083847E+04  0.7818608E-02  0.9221080E-01
         -2   -1    0    0    0  501 -0.00000000000E+00  0.00000000000E+00  0.15461004227E+03  0.15461004229E+03  0.25500000000E-02 0. -1.
          2   -1    0    0  501    0  0.00000000000E+00 -0.00000000000E+00 -0.18994953823E+04  0.18994953823E+04  0.25500000000E-02 0.  1.
    5000001    1    1    2    0    0 -0.40346273318E+03 -0.75771820725E+02 -0.30447238982E+03  0.54458331047E+03  0.18800000000E+03 0.  0.
   -5000001    1    1    2    0    0  0.40346273318E+03  0.75771820725E+02 -0.14404129503E+04  0.15095221142E+04  0.18800000000E+03 0.  0.
<mgrwt>
<rscale>  0 0.10838470E+04</rscale>
<asrwt>0</asrwt>
<pdfrwt beam="1">  1        2 0.27135647E+00 0.10838470E+04</pdfrwt>
<pdfrwt beam="2">  1       -2 0.22087150E-01 0.10838470E+04</pdfrwt>
<totfact> 0.16108188E+02</totfact>
</mgrwt>
</event>
<event>
 4    1  0.2346411E-005  0.5442752E+03  0.7818608E-02  0.1002828E+00
          2   -1    0    0  501    0  0.00000000000E+00  0.00000000000E+00  0.20478319536E+03  0.20478319537E+03  0.25500000000E-02 0.  1.
         -2   -1    0    0    0  501 -0.00000000000E+00 -0.00000000000E+00 -0.36164522646E+03  0.36164522647E+03  0.25500000000E-02 0. -1.
    5000001    1    1    2    0    0 -0.34259546693E+02 -0.18613299444E+03 -0.13443256803E+03  0.29872282053E+03  0.18800000000E+03 0.  0.
   -5000001    1    1    2    0    0  0.34259546693E+02  0.18613299444E+03 -0.22429463074E+02  0.26770560131E+03  0.18800000000E+03 0.  0.
<mgrwt>
<rscale>  0 0.54427517E+03</rscale>
<asrwt>0</asrwt>
<pdfrwt beam="1">  1        2 0.29254742E-01 0.54427517E+03</pdfrwt>
<pdfrwt beam="2">  1       -2 0.51663604E-01 0.54427517E+03</pdfrwt>
<totfact> 0.65209204E+02</totfact>
</mgrwt>
</event>
<event>
 4    1  0.2346411E-005  0.1125350E+04  0.7818608E-02  0.9180830E-01
         -2   -1    0    0    0  501 -0.00000000000E+00  0.00000000000E+00  0.13731060915E+03  0.13731060918E+03  0.25500000000E-02 0. -1.
          2   -1    0    0  501    0  0.00000000000E+00 -0.00000000000E+00 -0.23057460500E+04  0.23057460500E+04  0.25500000000E-02 0.  1.
    5000001    1    1    2    0    0 -0.35161498470E+03 -0.39603755483E+03 -0.10235654877E+04  0.11676939453E+04  0.18800000000E+03 0.  0.
   -5000001    1    1    2    0    0  0.35161498470E+03  0.39603755483E+03 -0.11448699531E+04  0.12753627138E+04  0.18800000000E+03 0.  0.
<mgrwt>
<rscale>  0 0.11253504E+04</rscale>
<asrwt>0</asrwt>
<pdfrwt beam="1">  1        2 0.32939227E+00 0.11253504E+04</pdfrwt>
<pdfrwt beam="2">  1       -2 0.19615803E-01 0.11253504E+04</pdfrwt>
<totfact> 0.12263272E+02</totfact>
</mgrwt>
</event>
<event>
 4    1  0.2346411E-005  0.6858630E+03  0.7818608E-02  0.9741718E-01
          2   -1    0    0  501    0  0.00000000000E+00  0.00000000000E+00  0.20901385995E+03  0.20901385997E+03  0.25500000000E-02 0.  1.
         -2   -1    0    0    0  501 -0.00000000000E+00 -0.00000000000E+00 -0.56265173632E+03  0.56265173632E+03  0.25500000000E-02 0. -1.
    5000001    1    1    2    0    0 -0.14969981339E+03  0.23606724655E+03 -0.24903812835E+03  0.41892931193E+03  0.18800000000E+03 0.  0.
   -5000001    1    1    2    0    0  0.14969981339E+03 -0.23606724655E+03 -0.10459974802E+03  0.35273628436E+03  0.18800000000E+03 0.  0.
<mgrwt>
<rscale>  0 0.68586299E+03</rscale>
<asrwt>0</asrwt>
<pdfrwt beam="1">  1        2 0.29859123E-01 0.68586299E+03</pdfrwt>
<pdfrwt beam="2">  1       -2 0.80378819E-01 0.68586299E+03</pdfrwt>
<totfact> 0.24708014E+02</totfact>
</mgrwt>
</event>
<event>
 4    1  0.2346411E-005  0.5582545E+03  0.7818608E-02  0.9996012E-01
         -2   -1    0    0    0  501 -0.00000000000E+00  0.00000000000E+00  0.12245809121E+03  0.12245809123E+03  0.25500000000E-02 0. -1.
          2   -1    0    0  501    0  0.00000000000E+00 -0.00000000000E+00 -0.63623408204E+03  0.63623408205E+03  0.25500000000E-02 0.  1.
    5000001    1    1    2    0    0 -0.93814204782E+02 -0.13501609661E+03 -0.87483547789E+02  0.26462770546E+03  0.18800000000E+03 0.  0.
   -5000001    1    1    2    0    0  0.93814204782E+02  0.13501609661E+03 -0.42629244305E+03  0.49406446782E+03  0.18800000000E+03 0.  0.
<mgrwt>
<rscale>  0 0.55825446E+03</rscale>
<asrwt>0</asrwt>
<pdfrwt beam="1">  1        2 0.90890581E-01 0.55825446E+03</pdfrwt>
<pdfrwt beam="2">  1       -2 0.17494013E-01 0.55825446E+03</pdfrwt>
<totfact> 0.13626063E+03</totfact>
</mgrwt>
</event>
<event>
 4    1  0.2346411E-005  0.5896205E+03  0.7818608E-02  0.9927177E-01
         -2   -1    0    0    0  501 -0.00000000000E+00  0.00000000000E+00  0.41960705159E+02  0.41960705237E+02  0.25500000000E-02 0. -1.
          2   -1    0    0  501    0  0.00000000000E+00 -0.00000000000E+00 -0.20712972592E+04  0.20712972592E+04  0.25500000000E-02 0.  1.
    5000001    1    1    2    0    0 -0.20841900525E+03 -0.88383766245E+02 -0.95066208209E+03  0.99516459252E+03  0.18800000000E+03 0.  0.
   -5000001    1    1    2    0    0  0.20841900525E+03  0.88383766245E+02 -0.10786744720E+04  0.11180933719E+04  0.18800000000E+03 0.  0.
<mgrwt>
<rscale>  0 0.58962053E+03</rscale>
<asrwt>0</asrwt>
<pdfrwt beam="1">  1        2 0.29589954E+00 0.58962053E+03</pdfrwt>
<pdfrwt beam="2">  1       -2 0.59943878E-02 0.58962053E+03</pdfrwt>
<totfact> 0.11807501E+03</totfact>
</mgrwt>
</event>
<event>
 4    1  0.2346411E-005  0.8025459E+03  0.7818608E-02  0.9556339E-01
         -2   -1    0    0    0  501 -0.00000000000E+00  0.00000000000E+00  0.84630777110E+02  0.84630777149E+02  0.25500000000E-02 0. -1.
          2   -1    0    0  501    0  0.00000000000E+00 -0.00000000000E+00 -0.19026172346E+04  0.19026172346E+04  0.25500000000E-02 0.  1.
    5000001    1    1    2    0    0  0.32203460903E+03  0.10113177914E+03 -0.64067255133E+03  0.74815723227E+03  0.18800000000E+03 0.  0.
   -5000001    1    1    2    0    0 -0.32203460903E+03 -0.10113177914E+03 -0.11773139062E+04  0.12390907795E+04  0.18800000000E+03 0.  0.
<mgrwt>
<rscale>  0 0.80254589E+03</rscale>
<asrwt>0</asrwt>
<pdfrwt beam="1">  1        2 0.27180244E+00 0.80254589E+03</pdfrwt>
<pdfrwt beam="2">  1       -2 0.12090112E-01 0.80254589E+03</pdfrwt>
<totfact> 0.45923912E+02</totfact>
</mgrwt>
</event>
<event>
 4    1  0.2346411E-005  0.8115241E+03  0.7818608E-02  0.9543485E-01
          2   -1    0    0  501    0  0.00000000000E+00  0.00000000000E+00  0.23390220424E+04  0.23390220424E+04  0.25500000000E-02 0.  1.
         -2   -1    0    0    0  501 -0.00000000000E+00 -0.00000000000E+00 -0.70389598230E+02  0.70389598276E+02  0.25500000000E-02 0. -1.
    5000001    1    1    2    0    0 -0.26200978543E+03  0.24610219707E+03  0.11072018251E+04  0.11791756869E+04  0.18800000000E+03 0.  0.
   -5000001    1    1    2    0    0  0.26200978543E+03 -0.24610219707E+03  0.11614306191E+04  0.12302359538E+04  0.18800000000E+03 0.  0.
<mgrwt>
<rscale>  0 0.81152405E+03</rscale>
<asrwt>0</asrwt>
<pdfrwt beam="1">  1        2 0.33414596E+00 0.81152405E+03</pdfrwt>
<pdfrwt beam="2">  1       -2 0.10055658E-01 0.81152405E+03</pdfrwt>
<totfact> 0.37277083E+02</totfact>
</mgrwt>
</event>
<event>
 4    1  0.2346411E-005  0.5781311E+03  0.7818608E-02  0.9951845E-01
          2   -1    0    0  501    0  0.00000000000E+00  0.00000000000E+00  0.11850143411E+04  0.11850143411E+04  0.25500000000E-02 0.  1.
         -2   -1    0    0    0  501 -0.00000000000E+00 -0.00000000000E+00 -0.70512978071E+02  0.70512978118E+02  0.25500000000E-02 0. -1.
    5000001    1    1    2    0    0 -0.15805355965E+03  0.71221623628E+02  0.84991852956E+03  0.88755785968E+03  0.18800000000E+03 0.  0.
   -5000001    1    1    2    0    0  0.15805355965E+03 -0.71221623628E+02  0.26458283349E+03  0.36796945956E+03  0.18800000000E+03 0.  0.
<mgrwt>
<rscale>  0 0.57813109E+03</rscale>
<asrwt>0</asrwt>
<pdfrwt beam="1">  1        2 0.16928775E+00 0.57813109E+03</pdfrwt>
<pdfrwt beam="2">  1       -2 0.10073283E-01 0.57813109E+03</pdfrwt>
<totfact> 0.14898433E+03</totfact>
</mgrwt>
</event>
<event>
 4    1  0.2346411E-005  0.7086452E+03  0.7818608E-02  0.9702561E-01
         -2   -1    0    0    0  501 -0.00000000000E+00  0.00000000000E+00  0.12487131147E+03  0.12487131149E+03  0.25500000000E-02 0. -1.
          2   -1    0    0  501    0  0.00000000000E+00 -0.00000000000E+00 -0.10053909976E+04  0.10053909976E+04  0.25500000000E-02 0.  1.
    5000001    1    1    2    0    0  0.23411473018E+03 -0.15433077909E+03 -0.61184099105E+03  0.69879975285E+03  0.18800000000E+03 0.  0.
   -5000001    1    1    2    0    0 -0.23411473018E+03  0.15433077909E+03 -0.26867869513E+03  0.43146255629E+03  0.18800000000E+03 0.  0.
<mgrwt>
<rscale>  0 0.70864516E+03</rscale>
<asrwt>0</asrwt>
<pdfrwt beam="1">  1        2 0.14362728E+00 0.70864516E+03</pdfrwt>
<pdfrwt beam="2">  1       -2 0.17838759E-01 0.70864516E+03</pdfrwt>
<totfact> 0.72893217E+02</totfact>
</mgrwt>
</event>
<event>
 4    1  0.2346411E-005  0.5748116E+03  0.7818608E-02  0.9959087E-01
         -2   -1    0    0    0  501 -0.00000000000E+00  0.00000000000E+00  0.46015116050E+02  0.46015116121E+02  0.25500000000E-02 0. -1.
          2   -1    0    0  501    0  0.00000000000E+00 -0.00000000000E+00 -0.17951077541E+04  0.17951077541E+04  0.25500000000E-02 0.  1.
    5000001    1    1    2    0    0  0.69744732566E+01  0.20826548961E+03 -0.67619448699E+03  0.73212440315E+03  0.18800000000E+03 0.  0.
   -5000001    1    1    2    0    0 -0.69744732566E+01 -0.20826548961E+03 -0.10728981511E+04  0.11089984671E+04  0.18800000000E+03 0.  0.
<mgrwt>
<rscale>  0 0.57481159E+03</rscale>
<asrwt>0</asrwt>
<pdfrwt beam="1">  1        2 0.25644392E+00 0.57481159E+03</pdfrwt>
<pdfrwt beam="2">  1       -2 0.65735891E-02 0.57481159E+03</pdfrwt>
<totfact> 0.14073115E+03</totfact>
</mgrwt>
</event>
<event>
 4    1  0.2346411E-005  0.6965111E+03  0.7818608E-02  0.9723217E-01
         -2   -1    0    0    0  501 -0.00000000000E+00  0.00000000000E+00  0.10629525721E+03  0.10629525724E+03  0.25500000000E-02 0. -1.
          2   -1    0    0  501    0  0.00000000000E+00 -0.00000000000E+00 -0.11409910858E+04  0.11409910858E+04  0.25500000000E-02 0.  1.
    5000001    1    1    2    0    0 -0.25776892277E+03  0.13904896994E+03 -0.49480226085E+03  0.60494025402E+03  0.18800000000E+03 0.  0.
   -5000001    1    1    2    0    0  0.25776892277E+03 -0.13904896994E+03 -0.53989356772E+03  0.64234608900E+03  0.18800000000E+03 0.  0.
<mgrwt>
<rscale>  0 0.69651114E+03</rscale>
<asrwt>0</asrwt>
<pdfrwt beam="1">  1        2 0.16299872E+00 0.69651114E+03</pdfrwt>
<pdfrwt beam="2">  1       -2 0.15185037E-01 0.69651114E+03</pdfrwt>
<totfact> 0.79777650E+02</totfact>
</mgrwt>
</event>
<event>
 4    1  0.2346411E-005  0.5376958E+03  0.7818608E-02  0.1004383E+00
          2   -1    0    0  501    0  0.00000000000E+00  0.00000000000E+00  0.45344843641E+02  0.45344843713E+02  0.25500000000E-02 0.  1.
         -2   -1    0    0    0  501 -0.00000000000E+00 -0.00000000000E+00 -0.15939890074E+04  0.15939890074E+04  0.25500000000E-02 0. -1.
    5000001    1    1    2    0    0  0.19119887892E+03 -0.93602812642E+01 -0.82629126268E+03  0.86876111616E+03  0.18800000000E+03 0.  0.
   -5000001    1    1    2    0    0 -0.19119887892E+03  0.93602812642E+01 -0.72235290109E+03  0.77057273497E+03  0.18800000000E+03 0.  0.
<mgrwt>
<rscale>  0 0.53769576E+03</rscale>
<asrwt>0</asrwt>
<pdfrwt beam="1">  1        2 0.64778358E-02 0.53769576E+03</pdfrwt>
<pdfrwt beam="2">  1       -2 0.22771268E+00 0.53769576E+03</pdfrwt>
<totfact> 0.10702680E+02</totfact>
</mgrwt>
</event>
<event>
 4    1  0.2346411E-005  0.1059890E+04  0.7818608E-02  0.9245192E-01
         -2   -1    0    0    0  501 -0.00000000000E+00  0.00000000000E+00  0.19433504684E+03  0.19433504686E+03  0.25500000000E-02 0. -1.
          2   -1    0    0  501    0  0.00000000000E+00 -0.00000000000E+00 -0.14451420362E+04  0.14451420362E+04  0.25500000000E-02 0.  1.
    5000001    1    1    2    0    0 -0.40510862283E+03  0.23710937715E+03 -0.38002673232E+03  0.63253313771E+03  0.18800000000E+03 0.  0.
   -5000001    1    1    2    0    0  0.40510862283E+03 -0.23710937715E+03 -0.87078025700E+03  0.10069439453E+04  0.18800000000E+03 0.  0.
<mgrwt>
<rscale>  0 0.10598901E+04</rscale>
<asrwt>0</asrwt>
<pdfrwt beam="1">  1        2 0.20644886E+00 0.10598901E+04</pdfrwt>
<pdfrwt beam="2">  1       -2 0.27762150E-01 0.10598901E+04</pdfrwt>
<totfact> 0.18393498E+02</totfact>
</mgrwt>
</event>
<event>
 4    1  0.2346411E-005  0.8673312E+03  0.7818608E-02  0.9467366E-01
         -2   -1    0    0    0  501 -0.00000000000E+00  0.00000000000E+00  0.43779597606E+03  0.43779597607E+03  0.25500000000E-02 0. -1.
          2   -1    0    0  501    0  0.00000000000E+00 -0.00000000000E+00 -0.42957417215E+03  0.42957417216E+03  0.25500000000E-02 0.  1.
    5000001    1    1    2    0    0 -0.10134424016E+03  0.35914288895E+03  0.12016599441E+03  0.43478516064E+03  0.18800000000E+03 0.  0.
   -5000001    1    1    2    0    0  0.10134424016E+03 -0.35914288895E+03 -0.11194419050E+03  0.43258498759E+03  0.18800000000E+03 0.  0.
<mgrwt>
<rscale>  0 0.86733118E+03</rscale>
<asrwt>0</asrwt>
<pdfrwt beam="1">  1        2 0.61367739E-01 0.86733118E+03</pdfrwt>
<pdfrwt beam="2">  1       -2 0.62542282E-01 0.86733118E+03</pdfrwt>
<totfact> 0.19018536E+02</totfact>
</mgrwt>
</event>
<event>
 4    1  0.2346411E-005  0.6248244E+03  0.7818608E-02  0.9855201E-01
          2   -1    0    0  501    0  0.00000000000E+00  0.00000000000E+00  0.34553228647E+04  0.34553228647E+04  0.25500000000E-02 0.  1.
         -2   -1    0    0    0  501 -0.00000000000E+00 -0.00000000000E+00 -0.28246676949E+02  0.28246677064E+02  0.25500000000E-02 0. -1.
    5000001    1    1    2    0    0 -0.20277670246E+03  0.84619697027E+02  0.10543689813E+04  0.10933054619E+04  0.18800000000E+03 0.  0.
   -5000001    1    1    2    0    0  0.20277670246E+03 -0.84619697027E+02  0.23727072064E+04  0.23902640799E+04  0.18800000000E+03 0.  0.
<mgrwt>
<rscale>  0 0.62482442E+03</rscale>
<asrwt>0</asrwt>
<pdfrwt beam="1">  1        2 0.49361812E+00 0.62482442E+03</pdfrwt>
<pdfrwt beam="2">  1       -2 0.40352349E-02 0.62482442E+03</pdfrwt>
<totfact> 0.39748416E+02</totfact>
</mgrwt>
</event>
<event>
 4    1  0.2346411E-005  0.4582281E+03  0.7818608E-02  0.1025296E+00
          2   -1    0    0  501    0  0.00000000000E+00  0.00000000000E+00  0.13642007939E+04  0.13642007939E+04  0.25500000000E-02 0.  1.
         -2   -1    0    0    0  501 -0.00000000000E+00 -0.00000000000E+00 -0.38479120212E+02  0.38479120296E+02  0.25500000000E-02 0. -1.
    5000001    1    1    2    0    0  0.62041117886E+02 -0.44290135291E+02  0.98881403250E+03  0.10094096826E+04  0.18800000000E+03 0.  0.
   -5000001    1    1    2    0    0 -0.62041117886E+02  0.44290135291E+02  0.33690764116E+03  0.39327023160E+03  0.18800000000E+03 0.  0.
<mgrwt>
<rscale>  0 0.45822809E+03</rscale>
<asrwt>0</asrwt>
<pdfrwt beam="1">  1        2 0.19488581E+00 0.45822809E+03</pdfrwt>
<pdfrwt beam="2">  1       -2 0.54970177E-02 0.45822809E+03</pdfrwt>
<totfact> 0.31072779E+03</totfact>
</mgrwt>
</event>
<event>
 4    1  0.2346411E-005  0.5948586E+03  0.7818608E-02  0.9916131E-01
         -2   -1    0    0    0  501 -0.00000000000E+00  0.00000000000E+00  0.48972184629E+02  0.48972184695E+02  0.25500000000E-02 0. -1.
          2   -1    0    0  501    0  0.00000000000E+00 -0.00000000000E+00 -0.18064167956E+04  0.18064167956E+04  0.25500000000E-02 0.  1.
    5000001    1    1    2    0    0  0.22215193627E+03 -0.43495578379E+02 -0.74359796649E+03  0.79970324740E+03  0.18800000000E+03 0.  0.
   -5000001    1    1    2    0    0 -0.22215193627E+03  0.43495578379E+02 -0.10138466445E+04  0.10556857329E+04  0.18800000000E+03 0.  0.
<mgrwt>
<rscale>  0 0.59485856E+03</rscale>
<asrwt>0</asrwt>
<pdfrwt beam="1">  1        2 0.25805950E+00 0.59485856E+03</pdfrwt>
<pdfrwt beam="2">  1       -2 0.69960275E-02 0.59485856E+03</pdfrwt>
<totfact> 0.12579059E+03</totfact>
</mgrwt>
</event>
<event>
 4    1  0.2346411E-005  0.6717382E+03  0.7818608E-02  0.9766823E-01
          2   -1    0    0  501    0  0.00000000000E+00  0.00000000000E+00  0.10376418716E+04  0.10376418716E+04  0.25500000000E-02 0.  1.
         -2   -1    0    0    0  501 -0.00000000000E+00 -0.00000000000E+00 -0.10871579872E+03  0.10871579875E+03  0.25500000000E-02 0. -1.
    5000001    1    1    2    0    0 -0.15525344167E+03  0.21183966565E+03  0.62165501384E+03  0.70055594446E+03  0.18800000000E+03 0.  0.
   -5000001    1    1    2    0    0  0.15525344167E+03 -0.21183966565E+03  0.30727105907E+03  0.44580172592E+03  0.18800000000E+03 0.  0.
<mgrwt>
<rscale>  0 0.67173824E+03</rscale>
<asrwt>0</asrwt>
<pdfrwt beam="1">  1        2 0.14823456E+00 0.67173824E+03</pdfrwt>
<pdfrwt beam="2">  1       -2 0.15530827E-01 0.67173824E+03</pdfrwt>
<totfact> 0.88387723E+02</totfact>
</mgrwt>
</event>
<event>
 4    1  0.2346411E-005  0.5940331E+03  0.7818608E-02  0.9917863E-01
         -2   -1    0    0    0  501 -0.00000000000E+00  0.00000000000E+00  0.42888596439E+02  0.42888596515E+02  0.25500000000E-02 0. -1.
          2   -1    0    0  501    0  0.00000000000E+00 -0.00000000000E+00 -0.20569296287E+04  0.20569296287E+04  0.25500000000E-02 0.  1.
    5000001    1    1    2    0    0 -0.11428842111E+03  0.17547060165E+03 -0.67124599139E+03  0.72785091619E+03  0.18800000000E+03 0.  0.
   -5000001    1    1    2    0    0  0.11428842111E+03 -0.17547060165E+03 -0.13427950408E+04  0.13719673090E+04  0.18800000000E+03 0.  0.
<mgrwt>
<rscale>  0 0.59403308E+03</rscale>
<asrwt>0</asrwt>
<pdfrwt beam="1">  1        2 0.29384703E+00 0.59403308E+03</pdfrwt>
<pdfrwt beam="2">  1       -2 0.61269436E-02 0.59403308E+03</pdfrwt>
<totfact> 0.11598035E+03</totfact>
</mgrwt>
</event>
<event>
 4    1  0.2346411E-005  0.1006289E+04  0.7818608E-02  0.9301674E-01
          2   -1    0    0  501    0  0.00000000000E+00  0.00000000000E+00  0.54318859317E+03  0.54318859318E+03  0.25500000000E-02 0.  1.
         -2   -1    0    0    0  501 -0.00000000000E+00 -0.00000000000E+00 -0.46605280974E+03  0.46605280975E+03  0.25500000000E-02 0. -1.
    5000001    1    1    2    0    0  0.35134980322E+03 -0.14962781530E+03  0.30763724125E+03  0.52518552868E+03  0.18800000000E+03 0.  0.
   -5000001    1    1    2    0    0 -0.35134980322E+03  0.14962781530E+03 -0.23050145782E+03  0.48405587425E+03  0.18800000000E+03 0.  0.
<mgrwt>
<rscale>  0 0.10062894E+04</rscale>
<asrwt>0</asrwt>
<pdfrwt beam="1">  1        2 0.77598371E-01 0.10062894E+04</pdfrwt>
<pdfrwt beam="2">  1       -2 0.66578973E-01 0.10062894E+04</pdfrwt>
<totfact> 0.12631676E+02</totfact>
</mgrwt>
</event>
<event>
 4    1  0.2346411E-005  0.9095114E+03  0.7818608E-02  0.9413769E-01
         -2   -1    0    0    0  501 -0.00000000000E+00  0.00000000000E+00  0.32096890912E+03  0.32096890913E+03  0.25500000000E-02 0. -1.
          2   -1    0    0  501    0  0.00000000000E+00 -0.00000000000E+00 -0.64430774494E+03  0.64430774494E+03  0.25500000000E-02 0.  1.
    5000001    1    1    2    0    0 -0.68464679983E+02 -0.39925854156E+03 -0.25274444682E+03  0.51314574033E+03  0.18800000000E+03 0.  0.
   -5000001    1    1    2    0    0  0.68464679983E+02  0.39925854156E+03 -0.70594388988E+02  0.45213091375E+03  0.18800000000E+03 0.  0.
<mgrwt>
<rscale>  0 0.90951142E+03</rscale>
<asrwt>0</asrwt>
<pdfrwt beam="1">  1        2 0.92043964E-01 0.90951142E+03</pdfrwt>
<pdfrwt beam="2">  1       -2 0.45852701E-01 0.90951142E+03</pdfrwt>
<totfact> 0.22509327E+02</totfact>
</mgrwt>
</event>
<event>
 4    1  0.2346411E-005  0.4395689E+03  0.7818608E-02  0.1030879E+00
         -2   -1    0    0    0  501 -0.00000000000E+00  0.00000000000E+00  0.76974377290E+03  0.76974377290E+03  0.25500000000E-02 0. -1.
          2   -1    0    0  501    0  0.00000000000E+00 -0.00000000000E+00 -0.62754915333E+02  0.62754915385E+02  0.25500000000E-02 0.  1.
    5000001    1    1    2    0    0 -0.10896182434E+03  0.32930973665E+02  0.35731856980E+03  0.41949694697E+03  0.18800000000E+03 0.  0.
   -5000001    1    1    2    0    0  0.10896182434E+03 -0.32930973665E+02  0.34967028777E+03  0.41300174132E+03  0.18800000000E+03 0.  0.
<mgrwt>
<rscale>  0 0.43956890E+03</rscale>
<asrwt>0</asrwt>
<pdfrwt beam="1">  1        2 0.89649891E-02 0.43956890E+03</pdfrwt>
<pdfrwt beam="2">  1       -2 0.10996338E+00 0.43956890E+03</pdfrwt>
<totfact> 0.50708313E+02</totfact>
</mgrwt>
</event>
<event>
 4    1  0.2346411E-005  0.5992257E+03  0.7818608E-02  0.9907014E-01
         -2   -1    0    0    0  501 -0.00000000000E+00  0.00000000000E+00  0.97067997550E+02  0.97067997584E+02  0.25500000000E-02 0. -1.
          2   -1    0    0  501    0  0.00000000000E+00 -0.00000000000E+00 -0.92479361209E+03  0.92479361210E+03  0.25500000000E-02 0.  1.
    5000001    1    1    2    0    0 -0.18276443242E+03  0.11995732442E+03 -0.27499554047E+03  0.39844591191E+03  0.18800000000E+03 0.  0.
   -5000001    1    1    2    0    0  0.18276443242E+03 -0.11995732442E+03 -0.55273007407E+03  0.62341569776E+03  0.18800000000E+03 0.  0.
<mgrwt>
<rscale>  0 0.59922571E+03</rscale>
<asrwt>0</asrwt>
<pdfrwt beam="1">  1        2 0.13211337E+00 0.59922571E+03</pdfrwt>
<pdfrwt beam="2">  1       -2 0.13866857E-01 0.59922571E+03</pdfrwt>
<totfact> 0.12577331E+03</totfact>
</mgrwt>
</event>
<event>
 4    1  0.2346411E-005  0.4027548E+03  0.7818608E-02  0.1042830E+00
          2   -1    0    0  501    0  0.00000000000E+00  0.00000000000E+00  0.93611183217E+02  0.93611183252E+02  0.25500000000E-02 0.  1.
         -2   -1    0    0    0  501 -0.00000000000E+00 -0.00000000000E+00 -0.43320533109E+03  0.43320533109E+03  0.25500000000E-02 0. -1.
    5000001    1    1    2    0    0 -0.34247283832E+01 -0.71705871225E+02 -0.17953317023E+03  0.26968429681E+03  0.18800000000E+03 0.  0.
   -5000001    1    1    2    0    0  0.34247283832E+01  0.71705871225E+02 -0.16006097764E+03  0.25713221754E+03  0.18800000000E+03 0.  0.
<mgrwt>
<rscale>  0 0.40275483E+03</rscale>
<asrwt>0</asrwt>
<pdfrwt beam="1">  1        2 0.13373026E-01 0.40275483E+03</pdfrwt>
<pdfrwt beam="2">  1       -2 0.61886475E-01 0.40275483E+03</pdfrwt>
<totfact> 0.11182114E+03</totfact>
</mgrwt>
</event>
<event>
 4    1  0.2346411E-005  0.5226972E+03  0.7818608E-02  0.1008019E+00
          2   -1    0    0  501    0  0.00000000000E+00  0.00000000000E+00  0.36627663068E+03  0.36627663069E+03  0.25500000000E-02 0.  1.
         -2   -1    0    0    0  501 -0.00000000000E+00 -0.00000000000E+00 -0.18647954431E+03  0.18647954432E+03  0.25500000000E-02 0. -1.
    5000001    1    1    2    0    0 -0.18052947327E+03 -0.17798989372E+02  0.97480542340E+02  0.27884431297E+03  0.18800000000E+03 0.  0.
   -5000001    1    1    2    0    0  0.18052947327E+03  0.17798989372E+02  0.82316544035E+02  0.27391186204E+03  0.18800000000E+03 0.  0.
<mgrwt>
<rscale>  0 0.52269723E+03</rscale>
<asrwt>0</asrwt>
<pdfrwt beam="1">  1        2 0.52325232E-01 0.52269723E+03</pdfrwt>
<pdfrwt beam="2">  1       -2 0.26639935E-01 0.52269723E+03</pdfrwt>
<totfact> 0.12180227E+03</totfact>
</mgrwt>
</event>
<event>
 4    1  0.2346411E-005  0.6483172E+03  0.7818608E-02  0.9809942E-01
          2   -1    0    0  501    0  0.00000000000E+00  0.00000000000E+00  0.24039833707E+04  0.24039833707E+04  0.25500000000E-02 0.  1.
         -2   -1    0    0    0  501 -0.00000000000E+00 -0.00000000000E+00 -0.43710288189E+02  0.43710288263E+02  0.25500000000E-02 0. -1.
    5000001    1    1    2    0    0  0.22547492190E+03 -0.10994300907E+03  0.14916609253E+04  0.15242449678E+04  0.18800000000E+03 0.  0.
   -5000001    1    1    2    0    0 -0.22547492190E+03  0.10994300907E+03  0.86861215723E+03  0.92344869123E+03  0.18800000000E+03 0.  0.
<mgrwt>
<rscale>  0 0.64831722E+03</rscale>
<asrwt>0</asrwt>
<pdfrwt beam="1">  1        2 0.34342622E+00 0.64831722E+03</pdfrwt>
<pdfrwt beam="2">  1       -2 0.62443265E-02 0.64831722E+03</pdfrwt>
<totfact> 0.74907341E+02</totfact>
</mgrwt>
</event>
<event>
 4    1  0.2346411E-005  0.4048119E+03  0.7818608E-02  0.1042126E+00
          2   -1    0    0  501    0  0.00000000000E+00  0.00000000000E+00  0.35638616860E+03  0.35638616861E+03  0.25500000000E-02 0.  1.
         -2   -1    0    0    0  501 -0.00000000000E+00 -0.00000000000E+00 -0.11495441190E+03  0.11495441193E+03  0.25500000000E-02 0. -1.
    5000001    1    1    2    0    0 -0.67319608052E+02  0.15187164920E+02  0.86539179624E+02  0.21816417950E+03  0.18800000000E+03 0.  0.
   -5000001    1    1    2    0    0  0.67319608052E+02 -0.15187164920E+02  0.15489257708E+03  0.25317640103E+03  0.18800000000E+03 0.  0.
<mgrwt>
<rscale>  0 0.40481187E+03</rscale>
<asrwt>0</asrwt>
<pdfrwt beam="1">  1        2 0.50912311E-01 0.40481187E+03</pdfrwt>
<pdfrwt beam="2">  1       -2 0.16422059E-01 0.40481187E+03</pdfrwt>
<totfact> 0.29106694E+03</totfact>
</mgrwt>
</event>
<event>
 4    1  0.2346411E-005  0.5389898E+03  0.7818608E-02  0.1004075E+00
         -2   -1    0    0    0  501 -0.00000000000E+00  0.00000000000E+00  0.62052486873E+02  0.62052486925E+02  0.25500000000E-02 0.  1.
          2   -1    0    0  501    0  0.00000000000E+00 -0.00000000000E+00 -0.11704204387E+04  0.11704204387E+04  0.25500000000E-02 0. -1.
    5000001    1    1    2    0    0  0.16303219747E+03  0.62358578862E+02 -0.36540969922E+03  0.44647098232E+03  0.18800000000E+03 0.  0.
   -5000001    1    1    2    0    0 -0.16303219747E+03 -0.62358578862E+02 -0.74295825261E+03  0.78600194331E+03  0.18800000000E+03 0.  0.
<mgrwt>
<rscale>  0 0.53898979E+03</rscale>
<asrwt>0</asrwt>
<pdfrwt beam="1">  1        2 0.16720291E+00 0.53898979E+03</pdfrwt>
<pdfrwt beam="2">  1       -2 0.88646417E-02 0.53898979E+03</pdfrwt>
<totfact> 0.18669153E+03</totfact>
</mgrwt>
</event>
<event>
 4    1  0.2346411E-005  0.8790199E+03  0.7818608E-02  0.9452194E-01
         -2   -1    0    0    0  501 -0.00000000000E+00  0.00000000000E+00  0.19276096088E+03  0.19276096089E+03  0.25500000000E-02 0. -1.
          2   -1    0    0  501    0  0.00000000000E+00 -0.00000000000E+00 -0.10021168202E+04  0.10021168202E+04  0.25500000000E-02 0.  1.
    5000001    1    1    2    0    0 -0.27851251928E+03  0.17825411071E+03 -0.10537451184E+03  0.39470436928E+03  0.18800000000E+03 0.  0.
   -5000001    1    1    2    0    0  0.27851251928E+03 -0.17825411071E+03 -0.70398134750E+03  0.80017341184E+03  0.18800000000E+03 0.  0.
<mgrwt>
<rscale>  0 0.87901991E+03</rscale>
<asrwt>0</asrwt>
<pdfrwt beam="1">  1        2 0.14315954E+00 0.87901991E+03</pdfrwt>
<pdfrwt beam="2">  1       -2 0.27537281E-01 0.87901991E+03</pdfrwt>
<totfact> 0.33655033E+02</totfact>
</mgrwt>
</event>
<event>
 4    1  0.2346411E-005  0.9525496E+03  0.7818608E-02  0.9362175E-01
         -2   -1    0    0    0  501 -0.00000000000E+00  0.00000000000E+00  0.94265973689E+02  0.94265973723E+02  0.25500000000E-02 0. -1.
          2   -1    0    0  501    0  0.00000000000E+00 -0.00000000000E+00 -0.24063578923E+04  0.24063578923E+04  0.25500000000E-02 0.  1.
    5000001    1    1    2    0    0 -0.34471528239E+03  0.98053052874E+02 -0.49686364560E+03  0.64082798738E+03  0.18800000000E+03 0.  0.
   -5000001    1    1    2    0    0  0.34471528239E+03 -0.98053052874E+02 -0.18152282730E+04  0.18597958786E+04  0.18800000000E+03 0.  0.
<mgrwt>
<rscale>  0 0.95254957E+03</rscale>
<asrwt>0</asrwt>
<pdfrwt beam="1">  1        2 0.34376537E+00 0.95254957E+03</pdfrwt>
<pdfrwt beam="2">  1       -2 0.13466569E-01 0.95254957E+03</pdfrwt>
<totfact> 0.21008806E+02</totfact>
</mgrwt>
</event>
<event>
 4    1  0.2346411E-005  0.5849585E+03  0.7818608E-02  0.9937113E-01
         -2   -1    0    0    0  501 -0.00000000000E+00  0.00000000000E+00  0.63836230008E+02  0.63836230059E+02  0.25500000000E-02 0. -1.
          2   -1    0    0  501    0  0.00000000000E+00 -0.00000000000E+00 -0.13400560003E+04  0.13400560003E+04  0.25500000000E-02 0.  1.
    5000001    1    1    2    0    0 -0.18144664569E+03  0.73795097679E+02 -0.37705670831E+03  0.46463357924E+03  0.18800000000E+03 0.  0.
   -5000001    1    1    2    0    0  0.18144664569E+03 -0.73795097679E+02 -0.89916306199E+03  0.93925865113E+03  0.18800000000E+03 0.  0.
<mgrwt>
<rscale>  0 0.58495854E+03</rscale>
<asrwt>0</asrwt>
<pdfrwt beam="1">  1        2 0.19143655E+00 0.58495854E+03</pdfrwt>
<pdfrwt beam="2">  1       -2 0.91194623E-02 0.58495854E+03</pdfrwt>
<totfact> 0.14375934E+03</totfact>
</mgrwt>
</event>
<event>
 4    1  0.2346411E-005  0.5216758E+03  0.7818608E-02  0.1008271E+00
         -2   -1    0    0    0  501 -0.00000000000E+00  0.00000000000E+00  0.92461766044E+02  0.92461766079E+02  0.25500000000E-02 0. -1.
          2   -1    0    0  501    0  0.00000000000E+00 -0.00000000000E+00 -0.73583282727E+03  0.73583282727E+03  0.25500000000E-02 0.  1.
    5000001    1    1    2    0    0  0.16749513249E+03  0.11010504176E+02 -0.42839124379E+03  0.49703008799E+03  0.18800000000E+03 0.  0.
   -5000001    1    1    2    0    0 -0.16749513249E+03 -0.11010504176E+02 -0.21497981743E+03  0.33126450536E+03  0.18800000000E+03 0.  0.
<mgrwt>
<rscale>  0 0.52167577E+03</rscale>
<asrwt>0</asrwt>
<pdfrwt beam="1">  1        2 0.10511897E+00 0.52167577E+03</pdfrwt>
<pdfrwt beam="2">  1       -2 0.13208824E-01 0.52167577E+03</pdfrwt>
<totfact> 0.18330306E+03</totfact>
</mgrwt>
</event>
<event>
 4    1  0.2346411E-005  0.7015139E+03  0.7818608E-02  0.9714647E-01
         -2   -1    0    0    0  501 -0.00000000000E+00  0.00000000000E+00  0.13979316141E+03  0.13979316144E+03  0.25500000000E-02 0. -1.
          2   -1    0    0  501    0  0.00000000000E+00 -0.00000000000E+00 -0.88008921751E+03  0.88008921751E+03  0.25500000000E-02 0.  1.
    5000001    1    1    2    0    0  0.22588883690E+03  0.18400817257E+03 -0.29319547516E+03  0.45408409008E+03  0.18800000000E+03 0.  0.
   -5000001    1    1    2    0    0 -0.22588883690E+03 -0.18400817257E+03 -0.44710058094E+03  0.56579828887E+03  0.18800000000E+03 0.  0.
<mgrwt>
<rscale>  0 0.70151395E+03</rscale>
<asrwt>0</asrwt>
<pdfrwt beam="1">  1        2 0.12572703E+00 0.70151395E+03</pdfrwt>
<pdfrwt beam="2">  1       -2 0.19970452E-01 0.70151395E+03</pdfrwt>
<totfact> 0.71960259E+02</totfact>
</mgrwt>
</event>
<event>
 4    1  0.2346411E-005  0.7122531E+03  0.7818608E-02  0.9696504E-01
          2   -1    0    0  501    0  0.00000000000E+00  0.00000000000E+00  0.89926573009E+03  0.89926573009E+03  0.25500000000E-02 0.  1.
         -2   -1    0    0    0  501 -0.00000000000E+00 -0.00000000000E+00 -0.14103298995E+03  0.14103298998E+03  0.25500000000E-02 0. -1.
    5000001    1    1    2    0    0  0.27726408357E+03 -0.41143536967E+02  0.54509554857E+03  0.64112504221E+03  0.18800000000E+03 0.  0.
   -5000001    1    1    2    0    0 -0.27726408357E+03  0.41143536967E+02  0.21313719156E+03  0.39917367786E+03  0.18800000000E+03 0.  0.
<mgrwt>
<rscale>  0 0.71225314E+03</rscale>
<asrwt>0</asrwt>
<pdfrwt beam="1">  1        2 0.12846653E+00 0.71225314E+03</pdfrwt>
<pdfrwt beam="2">  1       -2 0.20147570E-01 0.71225314E+03</pdfrwt>
<totfact> 0.68820326E+02</totfact>
</mgrwt>
</event>
<event>
 4    1  0.2346411E-005  0.4117299E+03  0.7818608E-02  0.1039792E+00
         -2   -1    0    0    0  501 -0.00000000000E+00  0.00000000000E+00  0.12673949504E+03  0.12673949507E+03  0.25500000000E-02 0. -1.
          2   -1    0    0  501    0  0.00000000000E+00 -0.00000000000E+00 -0.33438960382E+03  0.33438960383E+03  0.25500000000E-02 0.  1.
    5000001    1    1    2    0    0  0.69344535959E+02 -0.10004043386E+02 -0.15548543516E+03  0.25382763068E+03  0.18800000000E+03 0.  0.
   -5000001    1    1    2    0    0 -0.69344535959E+02  0.10004043386E+02 -0.52164673623E+02  0.20730146822E+03  0.18800000000E+03 0.  0.
<mgrwt>
<rscale>  0 0.41172986E+03</rscale>
<asrwt>0</asrwt>
<pdfrwt beam="1">  1        2 0.47769943E-01 0.41172986E+03</pdfrwt>
<pdfrwt beam="2">  1       -2 0.18105642E-01 0.41172986E+03</pdfrwt>
<totfact> 0.26453383E+03</totfact>
</mgrwt>
</event>
<event>
 4    1  0.2346411E-005  0.7426632E+03  0.7818608E-02  0.9646931E-01
          2   -1    0    0  501    0  0.00000000000E+00  0.00000000000E+00  0.18323477613E+04  0.18323477613E+04  0.25500000000E-02 0.  1.
         -2   -1    0    0    0  501 -0.00000000000E+00 -0.00000000000E+00 -0.75251637591E+02  0.75251637634E+02  0.25500000000E-02 0. -1.
    5000001    1    1    2    0    0 -0.28414693277E+03  0.91862173856E+02  0.11754959515E+04  0.12273193840E+04  0.18800000000E+03 0.  0.
   -5000001    1    1    2    0    0  0.28414693277E+03 -0.91862173856E+02  0.58160017224E+03  0.68028001495E+03  0.18800000000E+03 0.  0.
<mgrwt>
<rscale>  0 0.74266323E+03</rscale>
<asrwt>0</asrwt>
<pdfrwt beam="1">  1        2 0.26176395E+00 0.74266323E+03</pdfrwt>
<pdfrwt beam="2">  1       -2 0.10750235E-01 0.74266323E+03</pdfrwt>
<totfact> 0.60712320E+02</totfact>
</mgrwt>
</event>
<event>
 4    1  0.2346411E-005  0.6585001E+03  0.7818608E-02  0.9790959E-01
          2   -1    0    0  501    0  0.00000000000E+00  0.00000000000E+00  0.46303140146E+04  0.46303140146E+04  0.25500000000E-02 0.  1.
         -2   -1    0    0    0  501 -0.00000000000E+00 -0.00000000000E+00 -0.23412146629E+02  0.23412146767E+02  0.25500000000E-02 0. -1.
    5000001    1    1    2    0    0 -0.13321929388E+03 -0.92810142646E+02  0.38306853359E+04  0.38387309420E+04  0.18800000000E+03 0.  0.
   -5000001    1    1    2    0    0  0.13321929388E+03  0.92810142646E+02  0.77621653213E+03  0.81499521936E+03  0.18800000000E+03 0.  0.
<mgrwt>
<rscale>  0 0.65850009E+03</rscale>
<asrwt>0</asrwt>
<pdfrwt beam="1">  1        2 0.66147378E+00 0.65850009E+03</pdfrwt>
<pdfrwt beam="2">  1       -2 0.33445906E-02 0.65850009E+03</pdfrwt>
<totfact> 0.82893399E+01</totfact>
</mgrwt>
</event>
<event>
 4    1  0.2346411E-005  0.6624230E+03  0.7818608E-02  0.9783744E-01
         -2   -1    0    0    0  501 -0.00000000000E+00  0.00000000000E+00  0.29903222848E+02  0.29903222956E+02  0.25500000000E-02 0. -1.
          2   -1    0    0  501    0  0.00000000000E+00 -0.00000000000E+00 -0.36685360688E+04  0.36685360688E+04  0.25500000000E-02 0.  1.
    5000001    1    1    2    0    0  0.20539554225E+03 -0.12936801994E+03 -0.25129294860E+04  0.25316164826E+04  0.18800000000E+03 0.  0.
   -5000001    1    1    2    0    0 -0.20539554225E+03  0.12936801994E+03 -0.11257033599E+04  0.11668228091E+04  0.18800000000E+03 0.  0.
<mgrwt>
<rscale>  0 0.66242298E+03</rscale>
<asrwt>0</asrwt>
<pdfrwt beam="1">  1        2 0.52407630E+00 0.66242298E+03</pdfrwt>
<pdfrwt beam="2">  1       -2 0.42718913E-02 0.66242298E+03</pdfrwt>
<totfact> 0.26959249E+02</totfact>
</mgrwt>
</event>
<event>
 4    1  0.2346411E-005  0.1351493E+04  0.7818608E-02  0.8989699E-01
         -2   -1    0    0    0  501 -0.00000000000E+00  0.00000000000E+00  0.50900864355E+03  0.50900864355E+03  0.25500000000E-02 0. -1.
          2   -1    0    0  501    0  0.00000000000E+00 -0.00000000000E+00 -0.89710291943E+03  0.89710291943E+03  0.25500000000E-02 0.  1.
    5000001    1    1    2    0    0  0.61090646575E+03 -0.15472816972E+03 -0.35570220007E+03  0.74767343910E+03  0.18800000000E+03 0.  0.
   -5000001    1    1    2    0    0 -0.61090646575E+03  0.15472816972E+03 -0.32392075813E+02  0.65843812388E+03  0.18800000000E+03 0.  0.
<mgrwt>
<rscale>  0 0.13514927E+04</rscale>
<asrwt>0</asrwt>
<pdfrwt beam="1">  1        2 0.12815756E+00 0.13514927E+04</pdfrwt>
<pdfrwt beam="2">  1       -2 0.72715520E-01 0.13514927E+04</pdfrwt>
<totfact> 0.54627380E+01</totfact>
</mgrwt>
</event>
<event>
 4    1  0.2346411E-005  0.4289046E+03  0.7818608E-02  0.1034207E+00
         -2   -1    0    0    0  501 -0.00000000000E+00  0.00000000000E+00  0.39553992581E+02  0.39553992663E+02  0.25500000000E-02 0. -1.
          2   -1    0    0  501    0  0.00000000000E+00 -0.00000000000E+00 -0.11627093456E+04  0.11627093456E+04  0.25500000000E-02 0.  1.
    5000001    1    1    2    0    0 -0.76850595951E+02  0.51931127993E+02 -0.43488055561E+03  0.48277111948E+03  0.18800000000E+03 0.  0.
   -5000001    1    1    2    0    0  0.76850595951E+02 -0.51931127993E+02 -0.68827479743E+03  0.71949221882E+03  0.18800000000E+03 0.  0.
<mgrwt>
<rscale>  0 0.42890464E+03</rscale>
<asrwt>0</asrwt>
<pdfrwt beam="1">  1        2 0.16610131E+00 0.42890464E+03</pdfrwt>
<pdfrwt beam="2">  1       -2 0.56505711E-02 0.42890464E+03</pdfrwt>
<totfact> 0.38313953E+03</totfact>
</mgrwt>
</event>
<event>
 4    1  0.2346411E-005  0.4306104E+03  0.7818608E-02  0.1033667E+00
         -2   -1    0    0    0  501 -0.00000000000E+00  0.00000000000E+00  0.12781457973E+02  0.12781458227E+02  0.25500000000E-02 0. -1.
          2   -1    0    0  501    0  0.00000000000E+00 -0.00000000000E+00 -0.36268414938E+04  0.36268414938E+04  0.25500000000E-02 0.  1.
    5000001    1    1    2    0    0  0.19195070402E+01  0.91530337103E+02 -0.13735004171E+04  0.13893267733E+04  0.18800000000E+03 0.  0.
   -5000001    1    1    2    0    0 -0.19195070402E+01 -0.91530337103E+02 -0.22405596187E+04  0.22502961787E+04  0.18800000000E+03 0.  0.
<mgrwt>
<rscale>  0 0.43061037E+03</rscale>
<asrwt>0</asrwt>
<pdfrwt beam="1">  1        2 0.51811955E+00 0.43061037E+03</pdfrwt>
<pdfrwt beam="2">  1       -2 0.18259249E-02 0.43061037E+03</pdfrwt>
<totfact> 0.10659726E+03</totfact>
</mgrwt>
</event>
<event>
 4    1  0.2346411E-005  0.4188914E+03  0.7818608E-02  0.1037428E+00
         -2   -1    0    0    0  501 -0.00000000000E+00  0.00000000000E+00  0.88320802709E+02  0.88320802746E+02  0.25500000000E-02 0. -1.
          2   -1    0    0  501    0  0.00000000000E+00 -0.00000000000E+00 -0.49668358360E+03  0.49668358360E+03  0.25500000000E-02 0.  1.
    5000001    1    1    2    0    0  0.75050345738E+02  0.37875987193E+02 -0.15088591965E+03  0.25529924706E+03  0.18800000000E+03 0.  0.
   -5000001    1    1    2    0    0 -0.75050345738E+02 -0.37875987193E+02 -0.25747686124E+03  0.32970513929E+03  0.18800000000E+03 0.  0.
<mgrwt>
<rscale>  0 0.41889136E+03</rscale>
<asrwt>0</asrwt>
<pdfrwt beam="1">  1        2 0.70954796E-01 0.41889136E+03</pdfrwt>
<pdfrwt beam="2">  1       -2 0.12617258E-01 0.41889136E+03</pdfrwt>
<totfact> 0.31284326E+03</totfact>
</mgrwt>
</event>
<event>
 4    1  0.2346411E-005  0.7608939E+03  0.7818608E-02  0.9618413E-01
          2   -1    0    0  501    0  0.00000000000E+00  0.00000000000E+00  0.11461608497E+04  0.11461608497E+04  0.25500000000E-02 0.  1.
         -2   -1    0    0    0  501 -0.00000000000E+00 -0.00000000000E+00 -0.12628233041E+03  0.12628233043E+03  0.25500000000E-02 0. -1.
    5000001    1    1    2    0    0  0.30819108278E+03 -0.11436527894E+03  0.44884413184E+03  0.58725311001E+03  0.18800000000E+03 0.  0.
   -5000001    1    1    2    0    0 -0.30819108278E+03  0.11436527894E+03  0.57103438741E+03  0.68519007008E+03  0.18800000000E+03 0.  0.
<mgrwt>
<rscale>  0 0.76089385E+03</rscale>
<asrwt>0</asrwt>
<pdfrwt beam="1">  1        2 0.16373727E+00 0.76089385E+03</pdfrwt>
<pdfrwt beam="2">  1       -2 0.18040332E-01 0.76089385E+03</pdfrwt>
<totfact> 0.58888487E+02</totfact>
</mgrwt>
</event>
<event>
 4    1  0.2346411E-005  0.1420945E+04  0.7818608E-02  0.8938795E-01
          2   -1    0    0  501    0  0.00000000000E+00  0.00000000000E+00  0.42092870051E+04  0.42092870051E+04  0.25500000000E-02 0.  1.
         -2   -1    0    0    0  501 -0.00000000000E+00 -0.00000000000E+00 -0.11991849148E+03  0.11991849151E+03  0.25500000000E-02 0. -1.
    5000001    1    1    2    0    0  0.25887882314E+03  0.53216543244E+03  0.30966109632E+04  0.31582529585E+04  0.18800000000E+03 0.  0.
   -5000001    1    1    2    0    0 -0.25887882314E+03 -0.53216543244E+03  0.99275755041E+03  0.11709525381E+04  0.18800000000E+03 0.  0.
<mgrwt>
<rscale>  0 0.14209452E+04</rscale>
<asrwt>0</asrwt>
<pdfrwt beam="1">  1        2 0.60132670E+00 0.14209452E+04</pdfrwt>
<pdfrwt beam="2">  1       -2 0.17131214E-01 0.14209452E+04</pdfrwt>
<totfact> 0.11304623E+01</totfact>
</mgrwt>
</event>
<event>
 4    1  0.2346411E-005  0.5431904E+03  0.7818608E-02  0.1003082E+00
          2   -1    0    0  501    0  0.00000000000E+00  0.00000000000E+00  0.14712037015E+04  0.14712037015E+04  0.25500000000E-02 0.  1.
         -2   -1    0    0    0  501 -0.00000000000E+00 -0.00000000000E+00 -0.50138508842E+02  0.50138508907E+02  0.25500000000E-02 0. -1.
    5000001    1    1    2    0    0  0.17982369154E+03  0.28596845641E+02  0.50729709423E+03  0.57083157011E+03  0.18800000000E+03 0.  0.
   -5000001    1    1    2    0    0 -0.17982369154E+03 -0.28596845641E+02  0.91376809845E+03  0.95051064032E+03  0.18800000000E+03 0.  0.
<mgrwt>
<rscale>  0 0.54319043E+03</rscale>
<asrwt>0</asrwt>
<pdfrwt beam="1">  1        2 0.21017199E+00 0.54319043E+03</pdfrwt>
<pdfrwt beam="2">  1       -2 0.71626429E-02 0.54319043E+03</pdfrwt>
<totfact> 0.18022449E+03</totfact>
</mgrwt>
</event>
<event>
 4    1  0.2346411E-005  0.5867179E+03  0.7818608E-02  0.9933352E-01
         -2   -1    0    0    0  501 -0.00000000000E+00  0.00000000000E+00  0.64086205934E+03  0.64086205935E+03  0.25500000000E-02 0. -1.
          2   -1    0    0  501    0  0.00000000000E+00 -0.00000000000E+00 -0.13428704010E+03  0.13428704012E+03  0.25500000000E-02 0.  1.
    5000001    1    1    2    0    0 -0.19715948876E+03  0.19483532993E+02  0.11183066970E+03  0.29512975240E+03  0.18800000000E+03 0.  0.
   -5000001    1    1    2    0    0  0.19715948876E+03 -0.19483532993E+02  0.39474434954E+03  0.48001934707E+03  0.18800000000E+03 0.  0.
<mgrwt>
<rscale>  0 0.58671788E+03</rscale>
<asrwt>0</asrwt>
<pdfrwt beam="1">  1        2 0.19183863E-01 0.58671788E+03</pdfrwt>
<pdfrwt beam="2">  1       -2 0.91551723E-01 0.58671788E+03</pdfrwt>
<totfact> 0.30653717E+02</totfact>
</mgrwt>
</event>
<event>
 4    1  0.2346411E-005  0.6132620E+03  0.7818608E-02  0.9878267E-01
         -2   -1    0    0    0  501 -0.00000000000E+00  0.00000000000E+00  0.79718481942E+03  0.79718481943E+03  0.25500000000E-02 0. -1.
          2   -1    0    0  501    0  0.00000000000E+00 -0.00000000000E+00 -0.11794325593E+03  0.11794325595E+03  0.25500000000E-02 0.  1.
    5000001    1    1    2    0    0  0.16514682167E+03  0.12785910250E+03  0.15651282713E+03  0.32165460957E+03  0.18800000000E+03 0.  0.
   -5000001    1    1    2    0    0 -0.16514682167E+03 -0.12785910250E+03  0.52272873636E+03  0.59347346581E+03  0.18800000000E+03 0.  0.
<mgrwt>
<rscale>  0 0.61326201E+03</rscale>
<asrwt>0</asrwt>
<pdfrwt beam="1">  1        2 0.16849036E-01 0.61326201E+03</pdfrwt>
<pdfrwt beam="2">  1       -2 0.11388355E+00 0.61326201E+03</pdfrwt>
<totfact> 0.21302163E+02</totfact>
</mgrwt>
</event>
<event>
 4    1  0.2346411E-005  0.4565756E+03  0.7818608E-02  0.1025779E+00
         -2   -1    0    0    0  501 -0.00000000000E+00  0.00000000000E+00  0.14062650150E+03  0.14062650152E+03  0.25500000000E-02 0. -1.
          2   -1    0    0  501    0  0.00000000000E+00 -0.00000000000E+00 -0.37059393879E+03  0.37059393880E+03  0.25500000000E-02 0.  1.
    5000001    1    1    2    0    0  0.47294414705E+02 -0.27977834688E+02 -0.24628693827E+03  0.31467566932E+03  0.18800000000E+03 0.  0.
   -5000001    1    1    2    0    0 -0.47294414705E+02  0.27977834688E+02  0.16319500985E+02  0.19654477100E+03  0.18800000000E+03 0.  0.
<mgrwt>
<rscale>  0 0.45657564E+03</rscale>
<asrwt>0</asrwt>
<pdfrwt beam="1">  1        2 0.52941991E-01 0.45657564E+03</pdfrwt>
<pdfrwt beam="2">  1       -2 0.20089500E-01 0.45657564E+03</pdfrwt>
<totfact> 0.19794333E+03</totfact>
</mgrwt>
</event>
<event>
 4    1  0.2346411E-005  0.4215432E+03  0.7818608E-02  0.1036565E+00
         -2   -1    0    0    0  501 -0.00000000000E+00  0.00000000000E+00  0.92466763851E+02  0.92466763886E+02  0.25500000000E-02 0. -1.
          2   -1    0    0  501    0  0.00000000000E+00 -0.00000000000E+00 -0.48043918700E+03  0.48043918700E+03  0.25500000000E-02 0.  1.
    5000001    1    1    2    0    0  0.66343937636E+02 -0.86636071817E+01 -0.10176883548E+03  0.22400328574E+03  0.18800000000E+03 0.  0.
   -5000001    1    1    2    0    0 -0.66343937636E+02  0.86636071817E+01 -0.28620358767E+03  0.34890266515E+03  0.18800000000E+03 0.  0.
<mgrwt>
<rscale>  0 0.42154315E+03</rscale>
<asrwt>0</asrwt>
<pdfrwt beam="1">  1        2 0.68634168E-01 0.42154315E+03</pdfrwt>
<pdfrwt beam="2">  1       -2 0.13209538E-01 0.42154315E+03</pdfrwt>
<totfact> 0.30115713E+03</totfact>
</mgrwt>
</event>
<event>
 4    1  0.2346411E-005  0.6594144E+03  0.7818608E-02  0.9789272E-01
          2   -1    0    0  501    0  0.00000000000E+00  0.00000000000E+00  0.29459240915E+03  0.29459240916E+03  0.25500000000E-02 0.  1.
         -2   -1    0    0    0  501 -0.00000000000E+00 -0.00000000000E+00 -0.36900762713E+03  0.36900762714E+03  0.25500000000E-02 0. -1.
    5000001    1    1    2    0    0 -0.10399901985E+03 -0.24669577939E+03  0.41414214870E+01  0.32716319333E+03  0.18800000000E+03 0.  0.
   -5000001    1    1    2    0    0  0.10399901985E+03  0.24669577939E+03 -0.78556639465E+02  0.33643684296E+03  0.18800000000E+03 0.  0.
<mgrwt>
<rscale>  0 0.65941442E+03</rscale>
<asrwt>0</asrwt>
<pdfrwt beam="1">  1        2 0.42084630E-01 0.65941442E+03</pdfrwt>
<pdfrwt beam="2">  1       -2 0.52715375E-01 0.65941442E+03</pdfrwt>
<totfact> 0.41665523E+02</totfact>
</mgrwt>
</event>
<event>
 4    1  0.2346411E-005  0.5870856E+03  0.7818608E-02  0.9932568E-01
          2   -1    0    0  501    0  0.00000000000E+00  0.00000000000E+00  0.23385138948E+03  0.23385138950E+03  0.25500000000E-02 0.  1.
         -2   -1    0    0    0  501 -0.00000000000E+00 -0.00000000000E+00 -0.36847063020E+03  0.36847063021E+03  0.25500000000E-02 0. -1.
    5000001    1    1    2    0    0 -0.16385071306E+02  0.17805640364E+03 -0.20817114974E+03  0.33264362465E+03  0.18800000000E+03 0.  0.
   -5000001    1    1    2    0    0  0.16385071306E+02 -0.17805640364E+03  0.73551909020E+02  0.26967839506E+03  0.18800000000E+03 0.  0.
<mgrwt>
<rscale>  0 0.58708558E+03</rscale>
<asrwt>0</asrwt>
<pdfrwt beam="1">  1        2 0.33407342E-01 0.58708558E+03</pdfrwt>
<pdfrwt beam="2">  1       -2 0.52638661E-01 0.58708558E+03</pdfrwt>
<totfact> 0.54078077E+02</totfact>
</mgrwt>
</event>
<event>
 4    1  0.2346411E-005  0.1819238E+04  0.7818608E-02  0.8696135E-01
         -2   -1    0    0    0  501 -0.00000000000E+00  0.00000000000E+00  0.13073868839E+04  0.13073868839E+04  0.25500000000E-02 0. -1.
          2   -1    0    0  501    0  0.00000000000E+00 -0.00000000000E+00 -0.63287086631E+03  0.63287086632E+03  0.25500000000E-02 0.  1.
    5000001    1    1    2    0    0  0.41253549775E+03  0.22056605430E+03 -0.47022533306E+03  0.68941336298E+03  0.18800000000E+03 0.  0.
   -5000001    1    1    2    0    0 -0.41253549775E+03 -0.22056605430E+03  0.11447413506E+04  0.12508443872E+04  0.18800000000E+03 0.  0.
<mgrwt>
<rscale>  0 0.18192384E+04</rscale>
<asrwt>0</asrwt>
<pdfrwt beam="1">  1        2 0.90410124E-01 0.18192384E+04</pdfrwt>
<pdfrwt beam="2">  1       -2 0.18676955E+00 0.18192384E+04</pdfrwt>
<totfact> 0.78380363E+00</totfact>
</mgrwt>
</event>
<event>
 4    1  0.2346411E-005  0.7288775E+03  0.7818608E-02  0.9669084E-01
          2   -1    0    0  501    0  0.00000000000E+00  0.00000000000E+00  0.32373715185E+04  0.32373715185E+04  0.25500000000E-02 0.  1.
         -2   -1    0    0    0  501 -0.00000000000E+00 -0.00000000000E+00 -0.41025757985E+02  0.41025758064E+02  0.25500000000E-02 0. -1.
    5000001    1    1    2    0    0 -0.12274448781E+02  0.21450136527E+03  0.57932690642E+03  0.64585227591E+03  0.18800000000E+03 0.  0.
   -5000001    1    1    2    0    0  0.12274448781E+02 -0.21450136527E+03  0.26170188540E+04  0.26325450006E+04  0.18800000000E+03 0.  0.
<mgrwt>
<rscale>  0 0.72887755E+03</rscale>
<asrwt>0</asrwt>
<pdfrwt beam="1">  1        2 0.46248162E+00 0.72887755E+03</pdfrwt>
<pdfrwt beam="2">  1       -2 0.58608229E-02 0.72887755E+03</pdfrwt>
<totfact> 0.29416697E+02</totfact>
</mgrwt>
</event>
<event>
 4    1  0.2346411E-005  0.4244491E+03  0.7818608E-02  0.1035628E+00
         -2   -1    0    0    0  501 -0.00000000000E+00  0.00000000000E+00  0.19947096794E+03  0.19947096796E+03  0.25500000000E-02 0. -1.
          2   -1    0    0  501    0  0.00000000000E+00 -0.00000000000E+00 -0.22579358878E+03  0.22579358879E+03  0.25500000000E-02 0.  1.
    5000001    1    1    2    0    0  0.44013918979E+02  0.55624737709E+02 -0.81585477076E+02  0.21686753233E+03  0.18800000000E+03 0.  0.
   -5000001    1    1    2    0    0 -0.44013918979E+02 -0.55624737709E+02  0.55262856241E+02  0.20839702442E+03  0.18800000000E+03 0.  0.
<mgrwt>
<rscale>  0 0.42444913E+03</rscale>
<asrwt>0</asrwt>
<pdfrwt beam="1">  1        2 0.32256227E-01 0.42444913E+03</pdfrwt>
<pdfrwt beam="2">  1       -2 0.28495853E-01 0.42444913E+03</pdfrwt>
<totfact> 0.18328444E+03</totfact>
</mgrwt>
</event>
<event>
 4    1  0.2346411E-005  0.8433728E+03  0.7818608E-02  0.9499275E-01
          2   -1    0    0  501    0  0.00000000000E+00  0.00000000000E+00  0.11396800098E+04  0.11396800098E+04  0.25500000000E-02 0.  1.
         -2   -1    0    0    0  501 -0.00000000000E+00 -0.00000000000E+00 -0.15602572458E+03  0.15602572460E+03  0.25500000000E-02 0. -1.
    5000001    1    1    2    0    0 -0.11452206791E+03  0.35636107693E+03  0.56657087225E+03  0.70459568156E+03  0.18800000000E+03 0.  0.
   -5000001    1    1    2    0    0  0.11452206791E+03 -0.35636107693E+03  0.41708341293E+03  0.59111005281E+03  0.18800000000E+03 0.  0.
<mgrwt>
<rscale>  0 0.84337275E+03</rscale>
<asrwt>0</asrwt>
<pdfrwt beam="1">  1        2 0.16281143E+00 0.84337275E+03</pdfrwt>
<pdfrwt beam="2">  1       -2 0.22289389E-01 0.84337275E+03</pdfrwt>
<totfact> 0.40865697E+02</totfact>
</mgrwt>
</event>
<event>
 4    1  0.2346411E-005  0.8049112E+03  0.7818608E-02  0.9552935E-01
          2   -1    0    0  501    0  0.00000000000E+00  0.00000000000E+00  0.98186034231E+03  0.98186034231E+03  0.25500000000E-02 0.  1.
         -2   -1    0    0    0  501 -0.00000000000E+00 -0.00000000000E+00 -0.16496286288E+03  0.16496286290E+03  0.25500000000E-02 0. -1.
    5000001    1    1    2    0    0 -0.21564976975E+03 -0.27734547207E+03  0.48906119408E+03  0.63083293004E+03  0.18800000000E+03 0.  0.
   -5000001    1    1    2    0    0  0.21564976975E+03  0.27734547207E+03  0.32783628535E+03  0.51599027516E+03  0.18800000000E+03 0.  0.
<mgrwt>
<rscale>  0 0.80491116E+03</rscale>
<asrwt>0</asrwt>
<pdfrwt beam="1">  1        2 0.14026577E+00 0.80491116E+03</pdfrwt>
<pdfrwt beam="2">  1       -2 0.23566123E-01 0.80491116E+03</pdfrwt>
<totfact> 0.46070500E+02</totfact>
</mgrwt>
</event>
<event>
 4    1  0.2346411E-005  0.9539739E+03  0.7818608E-02  0.9360518E-01
          2   -1    0    0  501    0  0.00000000000E+00  0.00000000000E+00  0.19520953077E+04  0.19520953077E+04  0.25500000000E-02 0.  1.
         -2   -1    0    0    0  501 -0.00000000000E+00 -0.00000000000E+00 -0.11654992209E+03  0.11654992211E+03  0.25500000000E-02 0. -1.
    5000001    1    1    2    0    0  0.19809934028E+02  0.43575463115E+03  0.82330128960E+03  0.95049647317E+03  0.18800000000E+03 0.  0.
   -5000001    1    1    2    0    0 -0.19809934028E+02 -0.43575463115E+03  0.10122440960E+04  0.11181487566E+04  0.18800000000E+03 0.  0.
<mgrwt>
<rscale>  0 0.95397391E+03</rscale>
<asrwt>0</asrwt>
<pdfrwt beam="1">  1        2 0.27887074E+00 0.95397391E+03</pdfrwt>
<pdfrwt beam="2">  1       -2 0.16649990E-01 0.95397391E+03</pdfrwt>
<totfact> 0.25025365E+02</totfact>
</mgrwt>
</event>
<event>
 4    1  0.2346411E-005  0.8147674E+03  0.7818608E-02  0.9538885E-01
         -2   -1    0    0    0  501 -0.00000000000E+00  0.00000000000E+00  0.85082744401E+02  0.85082744439E+02  0.25500000000E-02 0. -1.
          2   -1    0    0  501    0  0.00000000000E+00 -0.00000000000E+00 -0.19505889860E+04  0.19505889860E+04  0.25500000000E-02 0.  1.
    5000001    1    1    2    0    0 -0.29716444405E+03  0.19930293454E+03 -0.80562303611E+03  0.90133281469E+03  0.18800000000E+03 0.  0.
   -5000001    1    1    2    0    0  0.29716444405E+03 -0.19930293454E+03 -0.10598832055E+04  0.11343389158E+04  0.18800000000E+03 0.  0.
<mgrwt>
<rscale>  0 0.81476736E+03</rscale>
<asrwt>0</asrwt>
<pdfrwt beam="1">  1        2 0.27865554E+00 0.81476736E+03</pdfrwt>
<pdfrwt beam="2">  1       -2 0.12154679E-01 0.81476736E+03</pdfrwt>
<totfact> 0.43005226E+02</totfact>
</mgrwt>
</event>
<event>
 4    1  0.2346411E-005  0.4853712E+03  0.7818608E-02  0.1017669E+00
          2   -1    0    0  501    0  0.00000000000E+00  0.00000000000E+00  0.24127221340E+04  0.24127221340E+04  0.25500000000E-02 0. -1.
         -2   -1    0    0    0  501 -0.00000000000E+00 -0.00000000000E+00 -0.24410725218E+02  0.24410725352E+02  0.25500000000E-02 0.  1.
    5000001    1    1    2    0    0  0.18078628517E+02 -0.66217112746E+02  0.18833701280E+04  0.18939742822E+04  0.18800000000E+03 0.  0.
   -5000001    1    1    2    0    0 -0.18078628517E+02  0.66217112746E+02  0.50494128078E+03  0.54315857709E+03  0.18800000000E+03 0.  0.
<mgrwt>
<rscale>  0 0.48537119E+03</rscale>
<asrwt>0</asrwt>
<pdfrwt beam="1">  1        2 0.34467447E+00 0.48537119E+03</pdfrwt>
<pdfrwt beam="2">  1       -2 0.34872477E-02 0.48537119E+03</pdfrwt>
<totfact> 0.18436266E+03</totfact>
</mgrwt>
</event>
<event>
 4    1  0.2346411E-005  0.7404403E+03  0.7818608E-02  0.9650469E-01
         -2   -1    0    0    0  501 -0.00000000000E+00  0.00000000000E+00  0.88956716385E+02  0.88956716421E+02  0.25500000000E-02 0. -1.
          2   -1    0    0  501    0  0.00000000000E+00 -0.00000000000E+00 -0.15407825241E+04  0.15407825241E+04  0.25500000000E-02 0.  1.
    5000001    1    1    2    0    0 -0.43382480806E+02 -0.27732011134E+03 -0.10592123282E+04  0.11117838099E+04  0.18800000000E+03 0.  0.
   -5000001    1    1    2    0    0  0.43382480806E+02  0.27732011134E+03 -0.39261347950E+03  0.51795543059E+03  0.18800000000E+03 0.  0.
<mgrwt>
<rscale>  0 0.74044029E+03</rscale>
<asrwt>0</asrwt>
<pdfrwt beam="1">  1        2 0.22011177E+00 0.74044029E+03</pdfrwt>
<pdfrwt beam="2">  1       -2 0.12708103E-01 0.74044029E+03</pdfrwt>
<totfact> 0.65048204E+02</totfact>
</mgrwt>
</event>
<event>
 4    1  0.2346411E-005  0.4592295E+03  0.7818608E-02  0.1025005E+00
         -2   -1    0    0    0  501 -0.00000000000E+00  0.00000000000E+00  0.11118380811E+03  0.11118380814E+03  0.25500000000E-02 0. -1.
          2   -1    0    0  501    0  0.00000000000E+00 -0.00000000000E+00 -0.47419623081E+03  0.47419623081E+03  0.25500000000E-02 0.  1.
    5000001    1    1    2    0    0 -0.12528429480E+03 -0.37454258862E+01 -0.12943411842E+03  0.26039849030E+03  0.18800000000E+03 0.  0.
   -5000001    1    1    2    0    0  0.12528429480E+03  0.37454258862E+01 -0.23357830428E+03  0.32498154866E+03  0.18800000000E+03 0.  0.
<mgrwt>
<rscale>  0 0.45922954E+03</rscale>
<asrwt>0</asrwt>
<pdfrwt beam="1">  1        2 0.67742317E-01 0.45922954E+03</pdfrwt>
<pdfrwt beam="2">  1       -2 0.15883401E-01 0.45922954E+03</pdfrwt>
<totfact> 0.22502955E+03</totfact>
</mgrwt>
</event>
<event>
 4    1  0.2346411E-005  0.8641420E+03  0.7818608E-02  0.9471550E-01
          2   -1    0    0  501    0  0.00000000000E+00  0.00000000000E+00  0.86440049391E+03  0.86440049391E+03  0.25500000000E-02 0.  1.
         -2   -1    0    0    0  501 -0.00000000000E+00 -0.00000000000E+00 -0.21597089439E+03  0.21597089441E+03  0.25500000000E-02 0. -1.
    5000001    1    1    2    0    0 -0.15009726921E+03  0.35491995797E+03  0.39088800096E+03  0.58020237511E+03  0.18800000000E+03 0.  0.
   -5000001    1    1    2    0    0  0.15009726921E+03 -0.35491995797E+03  0.25754159855E+03  0.50016901321E+03  0.18800000000E+03 0.  0.
<mgrwt>
<rscale>  0 0.86414200E+03</rscale>
<asrwt>0</asrwt>
<pdfrwt beam="1">  1        2 0.12348579E+00 0.86414200E+03</pdfrwt>
<pdfrwt beam="2">  1       -2 0.30852984E-01 0.86414200E+03</pdfrwt>
<totfact> 0.33436784E+02</totfact>
</mgrwt>
</event>
<event>
 4    1  0.2346411E-005  0.8650390E+03  0.7818608E-02  0.9470371E-01
         -2   -1    0    0    0  501 -0.00000000000E+00  0.00000000000E+00  0.82344812783E+02  0.82344812823E+02  0.25500000000E-02 0. -1.
          2   -1    0    0  501    0  0.00000000000E+00 -0.00000000000E+00 -0.22718265735E+04  0.22718265735E+04  0.25500000000E-02 0.  1.
    5000001    1    1    2    0    0  0.26065967710E+03  0.28900358892E+03 -0.10506403997E+04  0.11360703284E+04  0.18800000000E+03 0.  0.
   -5000001    1    1    2    0    0 -0.26065967710E+03 -0.28900358892E+03 -0.11388413611E+04  0.12181010579E+04  0.18800000000E+03 0.  0.
<mgrwt>
<rscale>  0 0.86503904E+03</rscale>
<asrwt>0</asrwt>
<pdfrwt beam="1">  1        2 0.32454661E+00 0.86503904E+03</pdfrwt>
<pdfrwt beam="2">  1       -2 0.11763546E-01 0.86503904E+03</pdfrwt>
<totfact> 0.31059602E+02</totfact>
</mgrwt>
</event>
<event>
 4    1  0.2346411E-005  0.6933370E+03  0.7818608E-02  0.9728695E-01
          2   -1    0    0  501    0  0.00000000000E+00  0.00000000000E+00  0.64024027215E+03  0.64024027216E+03  0.25500000000E-02 0.  1.
         -2   -1    0    0    0  501 -0.00000000000E+00 -0.00000000000E+00 -0.18770930833E+03  0.18770930835E+03  0.25500000000E-02 0. -1.
    5000001    1    1    2    0    0 -0.10415408681E+03 -0.26646427237E+03  0.29149476929E+03  0.44962704853E+03  0.18800000000E+03 0.  0.
   -5000001    1    1    2    0    0  0.10415408681E+03  0.26646427237E+03  0.16103619453E+03  0.37832253197E+03  0.18800000000E+03 0.  0.
<mgrwt>
<rscale>  0 0.69333703E+03</rscale>
<asrwt>0</asrwt>
<pdfrwt beam="1">  1        2 0.91462898E-01 0.69333703E+03</pdfrwt>
<pdfrwt beam="2">  1       -2 0.26815615E-01 0.69333703E+03</pdfrwt>
<totfact> 0.63566872E+02</totfact>
</mgrwt>
</event>
<event>
 4    1  0.2346411E-005  0.5537783E+03  0.7818608E-02  0.1000623E+00
         -2   -1    0    0    0  501 -0.00000000000E+00  0.00000000000E+00  0.14315449063E+03  0.14315449066E+03  0.25500000000E-02 0. -1.
          2   -1    0    0  501    0  0.00000000000E+00 -0.00000000000E+00 -0.53555844313E+03  0.53555844314E+03  0.25500000000E-02 0.  1.
    5000001    1    1    2    0    0  0.14210562542E+03  0.12686548688E+03 -0.10923816980E+03  0.28907756447E+03  0.18800000000E+03 0.  0.
   -5000001    1    1    2    0    0 -0.14210562542E+03 -0.12686548688E+03 -0.28316578270E+03  0.38963536933E+03  0.18800000000E+03 0.  0.
<mgrwt>
<rscale>  0 0.55377828E+03</rscale>
<asrwt>0</asrwt>
<pdfrwt beam="1">  1        2 0.76508348E-01 0.55377828E+03</pdfrwt>
<pdfrwt beam="2">  1       -2 0.20450642E-01 0.55377828E+03</pdfrwt>
<totfact> 0.12724133E+03</totfact>
</mgrwt>
</event>
<event>
 4    1  0.2346411E-005  0.6021117E+03  0.7818608E-02  0.9901035E-01
         -2   -1    0    0    0  501 -0.00000000000E+00  0.00000000000E+00  0.61953957204E+02  0.61953957256E+02  0.25500000000E-02 0. -1.
          2   -1    0    0  501    0  0.00000000000E+00 -0.00000000000E+00 -0.14629352025E+04  0.14629352025E+04  0.25500000000E-02 0.  1.
    5000001    1    1    2    0    0 -0.40023320433E+02 -0.16000390869E+03 -0.27604914784E+03  0.37249194488E+03  0.18800000000E+03 0.  0.
   -5000001    1    1    2    0    0  0.40023320433E+02  0.16000390869E+03 -0.11249320974E+04  0.11523972148E+04  0.18800000000E+03 0.  0.
<mgrwt>
<rscale>  0 0.60211170E+03</rscale>
<asrwt>0</asrwt>
<pdfrwt beam="1">  1        2 0.20899072E+00 0.60211170E+03</pdfrwt>
<pdfrwt beam="2">  1       -2 0.88505662E-02 0.60211170E+03</pdfrwt>
<totfact> 0.12973410E+03</totfact>
</mgrwt>
</event>
<event>
 4    1  0.2346411E-005  0.6456523E+03  0.7818608E-02  0.9814972E-01
          2   -1    0    0  501    0  0.00000000000E+00  0.00000000000E+00  0.10602613479E+04  0.10602613479E+04  0.25500000000E-02 0.  1.
         -2   -1    0    0    0  501 -0.00000000000E+00 -0.00000000000E+00 -0.98293422412E+02  0.98293422445E+02  0.25500000000E-02 0. -1.
    5000001    1    1    2    0    0  0.79392866428E+02 -0.19419533475E+03  0.19807414826E+03  0.34437250687E+03  0.18800000000E+03 0.  0.
   -5000001    1    1    2    0    0 -0.79392866428E+02  0.19419533475E+03  0.76389377724E+03  0.81418226350E+03  0.18800000000E+03 0.  0.
<mgrwt>
<rscale>  0 0.64565228E+03</rscale>
<asrwt>0</asrwt>
<pdfrwt beam="1">  1        2 0.15146591E+00 0.64565228E+03</pdfrwt>
<pdfrwt beam="2">  1       -2 0.14041917E-01 0.64565228E+03</pdfrwt>
<totfact> 0.10160640E+03</totfact>
</mgrwt>
</event>
<event>
 4    1  0.2346411E-005  0.6118184E+03  0.7818608E-02  0.9881185E-01
          2   -1    0    0  501    0  0.00000000000E+00  0.00000000000E+00  0.72997849699E+03  0.72997849699E+03  0.25500000000E-02 0.  1.
         -2   -1    0    0    0  501 -0.00000000000E+00 -0.00000000000E+00 -0.12819616396E+03  0.12819616398E+03  0.25500000000E-02 0. -1.
    5000001    1    1    2    0    0  0.11205545898E+03  0.21335204598E+03  0.31868462738E+03  0.44156473267E+03  0.18800000000E+03 0.  0.
   -5000001    1    1    2    0    0 -0.11205545898E+03 -0.21335204598E+03  0.28309770565E+03  0.41660992830E+03  0.18800000000E+03 0.  0.
<mgrwt>
<rscale>  0 0.61181841E+03</rscale>
<asrwt>0</asrwt>
<pdfrwt beam="1">  1        2 0.10428264E+00 0.61181841E+03</pdfrwt>
<pdfrwt beam="2">  1       -2 0.18313738E-01 0.61181841E+03</pdfrwt>
<totfact> 0.10653952E+03</totfact>
</mgrwt>
</event>
<event>
 4    1  0.2346411E-005  0.6057851E+03  0.7818608E-02  0.9893476E-01
         -2   -1    0    0    0  501 -0.00000000000E+00  0.00000000000E+00  0.61481545687E+02  0.61481545740E+02  0.25500000000E-02 0. -1.
          2   -1    0    0  501    0  0.00000000000E+00 -0.00000000000E+00 -0.14922186303E+04  0.14922186303E+04  0.25500000000E-02 0.  1.
    5000001    1    1    2    0    0  0.20665968102E+03 -0.97478205131E+02 -0.54935664228E+03  0.62397671803E+03  0.18800000000E+03 0.  0.
   -5000001    1    1    2    0    0 -0.20665968102E+03  0.97478205131E+02 -0.88138044229E+03  0.92972345796E+03  0.18800000000E+03 0.  0.
<mgrwt>
<rscale>  0 0.60578514E+03</rscale>
<asrwt>0</asrwt>
<pdfrwt beam="1">  1        2 0.21317407E+00 0.60578514E+03</pdfrwt>
<pdfrwt beam="2">  1       -2 0.87830788E-02 0.60578514E+03</pdfrwt>
<totfact> 0.12676708E+03</totfact>
</mgrwt>
</event>
<event>
 4    1  0.2346411E-005  0.5269918E+03  0.7818608E-02  0.1006964E+00
         -2   -1    0    0    0  501 -0.00000000000E+00  0.00000000000E+00  0.35177026026E+02  0.35177026119E+02  0.25500000000E-02 0. -1.
          2   -1    0    0  501    0  0.00000000000E+00 -0.00000000000E+00 -0.19737340426E+04  0.19737340426E+04  0.25500000000E-02 0.  1.
    5000001    1    1    2    0    0  0.10463898716E+03 -0.14404295951E+03 -0.11555775232E+04  0.11842301735E+04  0.18800000000E+03 0.  0.
   -5000001    1    1    2    0    0 -0.10463898716E+03  0.14404295951E+03 -0.78297949338E+03  0.82468089518E+03  0.18800000000E+03 0.  0.
<mgrwt>
<rscale>  0 0.52699182E+03</rscale>
<asrwt>0</asrwt>
<pdfrwt beam="1">  1        2 0.28196194E+00 0.52699182E+03</pdfrwt>
<pdfrwt beam="2">  1       -2 0.50252907E-02 0.52699182E+03</pdfrwt>
<totfact> 0.17441227E+03</totfact>
</mgrwt>
</event>
<event>
 4    1  0.2346411E-005  0.7446342E+03  0.7818608E-02  0.9643806E-01
         -2   -1    0    0    0  501 -0.00000000000E+00  0.00000000000E+00  0.64797269362E+02  0.64797269412E+02  0.25500000000E-02 0. -1.
          2   -1    0    0  501    0  0.00000000000E+00 -0.00000000000E+00 -0.21392877896E+04  0.21392877896E+04  0.25500000000E-02 0.  1.
    5000001    1    1    2    0    0  0.91544321526E+02 -0.28234672286E+03 -0.14018847177E+04  0.14452421238E+04  0.18800000000E+03 0.  0.
   -5000001    1    1    2    0    0 -0.91544321526E+02  0.28234672286E+03 -0.67260580260E+03  0.75884293527E+03  0.18800000000E+03 0.  0.
<mgrwt>
<rscale>  0 0.74463416E+03</rscale>
<asrwt>0</asrwt>
<pdfrwt beam="1">  1        2 0.30561250E+00 0.74463416E+03</pdfrwt>
<pdfrwt beam="2">  1       -2 0.92567541E-02 0.74463416E+03</pdfrwt>
<totfact> 0.54144883E+02</totfact>
</mgrwt>
</event>
<event>
 4    1  0.2346411E-005  0.6697220E+03  0.7818608E-02  0.9770460E-01
         -2   -1    0    0    0  501 -0.00000000000E+00  0.00000000000E+00  0.16554986211E+04  0.16554986211E+04  0.25500000000E-02 0. -1.
          2   -1    0    0  501    0  0.00000000000E+00 -0.00000000000E+00 -0.67733007830E+02  0.67733007878E+02  0.25500000000E-02 0.  1.
    5000001    1    1    2    0    0  0.17784945585E+03  0.11474766932E+03  0.12540961502E+04  0.12856510453E+04  0.18800000000E+03 0.  0.
   -5000001    1    1    2    0    0 -0.17784945585E+03 -0.11474766932E+03  0.33366946311E+03  0.43758058363E+03  0.18800000000E+03 0.  0.
<mgrwt>
<rscale>  0 0.66972204E+03</rscale>
<asrwt>0</asrwt>
<pdfrwt beam="1">  1        2 0.96761434E-02 0.66972204E+03</pdfrwt>
<pdfrwt beam="2">  1       -2 0.23649982E+00 0.66972204E+03</pdfrwt>
<totfact> 0.55645553E+01</totfact>
</mgrwt>
</event>
<event>
 4    1  0.2346411E-005  0.5514654E+03  0.7818608E-02  0.1001155E+00
          2   -1    0    0  501    0  0.00000000000E+00  0.00000000000E+00  0.16928662007E+04  0.16928662007E+04  0.25500000000E-02 0.  1.
         -2   -1    0    0    0  501 -0.00000000000E+00 -0.00000000000E+00 -0.44911115090E+02  0.44911115163E+02  0.25500000000E-02 0. -1.
    5000001    1    1    2    0    0  0.43176098379E+01  0.19432865438E+03  0.99374038633E+03  0.10298768000E+04  0.18800000000E+03 0.  0.
   -5000001    1    1    2    0    0 -0.43176098379E+01 -0.19432865438E+03  0.65421469928E+03  0.70790051591E+03  0.18800000000E+03 0.  0.
<mgrwt>
<rscale>  0 0.55146535E+03</rscale>
<asrwt>0</asrwt>
<pdfrwt beam="1">  1        2 0.24183803E+00 0.55146535E+03</pdfrwt>
<pdfrwt beam="2">  1       -2 0.64158735E-02 0.55146535E+03</pdfrwt>
<totfact> 0.16484693E+03</totfact>
</mgrwt>
</event>
<event>
 4    1  0.2346411E-005  0.7362481E+03  0.7818608E-02  0.9657175E-01
          2   -1    0    0  501    0  0.00000000000E+00  0.00000000000E+00  0.34411668391E+03  0.34411668392E+03  0.25500000000E-02 0.  1.
         -2   -1    0    0    0  501 -0.00000000000E+00 -0.00000000000E+00 -0.39380634007E+03  0.39380634008E+03  0.25500000000E-02 0. -1.
    5000001    1    1    2    0    0  0.43081924807E+01  0.24041118054E+03  0.18142722906E+03  0.35507173317E+03  0.18800000000E+03 0.  0.
   -5000001    1    1    2    0    0 -0.43081924807E+01 -0.24041118054E+03 -0.23111688522E+03  0.38285129082E+03  0.18800000000E+03 0.  0.
<mgrwt>
<rscale>  0 0.73624814E+03</rscale>
<asrwt>0</asrwt>
<pdfrwt beam="1">  1        2 0.49159526E-01 0.73624814E+03</pdfrwt>
<pdfrwt beam="2">  1       -2 0.56258048E-01 0.73624814E+03</pdfrwt>
<totfact> 0.30601437E+02</totfact>
</mgrwt>
</event>
<event>
 4    1  0.2346411E-005  0.5958278E+03  0.7818608E-02  0.9914100E-01
          2   -1    0    0  501    0  0.00000000000E+00  0.00000000000E+00  0.12345279115E+04  0.12345279115E+04  0.25500000000E-02 0.  1.
         -2   -1    0    0    0  501 -0.00000000000E+00 -0.00000000000E+00 -0.71892001642E+02  0.71892001687E+02  0.25500000000E-02 0. -1.
    5000001    1    1    2    0    0 -0.22366947055E+03  0.58138566212E+02  0.57968047611E+03  0.65175269798E+03  0.18800000000E+03 0.  0.
   -5000001    1    1    2    0    0  0.22366947055E+03 -0.58138566212E+02  0.58295543377E+03  0.65466721523E+03  0.18800000000E+03 0.  0.
<mgrwt>
<rscale>  0 0.59582777E+03</rscale>
<asrwt>0</asrwt>
<pdfrwt beam="1">  1        2 0.17636114E+00 0.59582777E+03</pdfrwt>
<pdfrwt beam="2">  1       -2 0.10270285E-01 0.59582777E+03</pdfrwt>
<totfact> 0.13541501E+03</totfact>
</mgrwt>
</event>
<event>
 4    1  0.2346411E-005  0.4581439E+03  0.7818608E-02  0.1025321E+00
         -2   -1    0    0    0  501 -0.00000000000E+00  0.00000000000E+00  0.29064971992E+03  0.29064971993E+03  0.25500000000E-02 0. -1.
          2   -1    0    0  501    0  0.00000000000E+00 -0.00000000000E+00 -0.18054021958E+03  0.18054021960E+03  0.25500000000E-02 0.  1.
    5000001    1    1    2    0    0 -0.69983820383E+02 -0.95453519723E+02  0.11251015009E+03  0.24902137141E+03  0.18800000000E+03 0.  0.
   -5000001    1    1    2    0    0  0.69983820383E+02  0.95453519723E+02 -0.24006497471E+01  0.22216856812E+03  0.18800000000E+03 0.  0.
<mgrwt>
<rscale>  0 0.45814393E+03</rscale>
<asrwt>0</asrwt>
<pdfrwt beam="1">  1        2 0.25791460E-01 0.45814393E+03</pdfrwt>
<pdfrwt beam="2">  1       -2 0.41521389E-01 0.45814393E+03</pdfrwt>
<totfact> 0.11609112E+03</totfact>
</mgrwt>
</event>
<event>
 4    1  0.2346411E-005  0.5078456E+03  0.7818608E-02  0.1011751E+00
         -2   -1    0    0    0  501 -0.00000000000E+00  0.00000000000E+00  0.36389711555E+02  0.36389711644E+02  0.25500000000E-02 0. -1.
          2   -1    0    0  501    0  0.00000000000E+00 -0.00000000000E+00 -0.17718411898E+04  0.17718411898E+04  0.25500000000E-02 0.  1.
    5000001    1    1    2    0    0 -0.29817378523E+02 -0.16305115964E+03 -0.10127093113E+04  0.10432635841E+04  0.18800000000E+03 0.  0.
   -5000001    1    1    2    0    0  0.29817378523E+02  0.16305115964E+03 -0.72274216693E+03  0.76496731732E+03  0.18800000000E+03 0.  0.
<mgrwt>
<rscale>  0 0.50784561E+03</rscale>
<asrwt>0</asrwt>
<pdfrwt beam="1">  1        2 0.25312012E+00 0.50784561E+03</pdfrwt>
<pdfrwt beam="2">  1       -2 0.51985313E-02 0.50784561E+03</pdfrwt>
<totfact> 0.20905240E+03</totfact>
</mgrwt>
</event>
<event>
 4    1  0.2346411E-005  0.4345134E+03  0.7818608E-02  0.1032444E+00
          2   -1    0    0  501    0  0.00000000000E+00  0.00000000000E+00  0.19035678818E+03  0.19035678819E+03  0.25500000000E-02 0.  1.
         -2   -1    0    0    0  501 -0.00000000000E+00 -0.00000000000E+00 -0.24795788424E+03  0.24795788425E+03  0.25500000000E-02 0. -1.
    5000001    1    1    2    0    0 -0.30617011307E+02  0.10430265069E+03 -0.22418898144E+02  0.21831869209E+03  0.18800000000E+03 0.  0.
   -5000001    1    1    2    0    0  0.30617011307E+02 -0.10430265069E+03 -0.35182197916E+02  0.21999598035E+03  0.18800000000E+03 0.  0.
<mgrwt>
<rscale>  0 0.43451337E+03</rscale>
<asrwt>0</asrwt>
<pdfrwt beam="1">  1        2 0.27193827E-01 0.43451337E+03</pdfrwt>
<pdfrwt beam="2">  1       -2 0.35422555E-01 0.43451337E+03</pdfrwt>
<totfact> 0.14819636E+03</totfact>
</mgrwt>
</event>
<event>
 4    1  0.2346411E-005  0.5080562E+03  0.7818608E-02  0.1011697E+00
          2   -1    0    0  501    0  0.00000000000E+00  0.00000000000E+00  0.60301769926E+03  0.60301769926E+03  0.25500000000E-02 0.  1.
         -2   -1    0    0    0  501 -0.00000000000E+00 -0.00000000000E+00 -0.10701225886E+03  0.10701225889E+03  0.25500000000E-02 0. -1.
    5000001    1    1    2    0    0  0.23104108697E+02  0.13696173030E+03  0.38701404841E+03  0.45212408592E+03  0.18800000000E+03 0.  0.
   -5000001    1    1    2    0    0 -0.23104108697E+02 -0.13696173030E+03  0.10899139199E+03  0.25790587223E+03  0.18800000000E+03 0.  0.
<mgrwt>
<rscale>  0 0.50805624E+03</rscale>
<asrwt>0</asrwt>
<pdfrwt beam="1">  1        2 0.86145382E-01 0.50805624E+03</pdfrwt>
<pdfrwt beam="2">  1       -2 0.15287466E-01 0.50805624E+03</pdfrwt>
<totfact> 0.18244544E+03</totfact>
</mgrwt>
</event>
<event>
 4    1  0.2346411E-005  0.4437070E+03  0.7818608E-02  0.1029615E+00
          2   -1    0    0  501    0  0.00000000000E+00  0.00000000000E+00  0.10391444905E+04  0.10391444905E+04  0.25500000000E-02 0.  1.
         -2   -1    0    0    0  501 -0.00000000000E+00 -0.00000000000E+00 -0.47364907474E+02  0.47364907543E+02  0.25500000000E-02 0. -1.
    5000001    1    1    2    0    0  0.47491416364E+02  0.10763741571E+03  0.51011229995E+03  0.55623718543E+03  0.18800000000E+03 0.  0.
   -5000001    1    1    2    0    0 -0.47491416364E+02 -0.10763741571E+03  0.48166728305E+03  0.53027221260E+03  0.18800000000E+03 0.  0.
<mgrwt>
<rscale>  0 0.44370703E+03</rscale>
<asrwt>0</asrwt>
<pdfrwt beam="1">  1        2 0.14844921E+00 0.44370703E+03</pdfrwt>
<pdfrwt beam="2">  1       -2 0.67664157E-02 0.44370703E+03</pdfrwt>
<totfact> 0.34090273E+03</totfact>
</mgrwt>
</event>
<event>
 4    1  0.2346411E-005  0.5138942E+03  0.7818608E-02  0.1010215E+00
         -2   -1    0    0    0  501 -0.00000000000E+00  0.00000000000E+00  0.67532528508E+02  0.67532528556E+02  0.25500000000E-02 0. -1.
          2   -1    0    0  501    0  0.00000000000E+00 -0.00000000000E+00 -0.97762971773E+03  0.97762971773E+03  0.25500000000E-02 0.  1.
    5000001    1    1    2    0    0 -0.15315939295E+03  0.81961043424E+02 -0.50063469717E+03  0.56227618863E+03  0.18800000000E+03 0.  0.
   -5000001    1    1    2    0    0  0.15315939295E+03 -0.81961043424E+02 -0.40946249205E+03  0.48288605766E+03  0.18800000000E+03 0.  0.
<mgrwt>
<rscale>  0 0.51389418E+03</rscale>
<asrwt>0</asrwt>
<pdfrwt beam="1">  1        2 0.13966138E+00 0.51389418E+03</pdfrwt>
<pdfrwt beam="2">  1       -2 0.96475046E-02 0.51389418E+03</pdfrwt>
<totfact> 0.21147659E+03</totfact>
</mgrwt>
</event>
<event>
 4    1  0.2346411E-005  0.9011696E+03  0.7818608E-02  0.9424121E-01
         -2   -1    0    0    0  501 -0.00000000000E+00  0.00000000000E+00  0.40636233168E+03  0.40636233169E+03  0.25500000000E-02 0. -1.
          2   -1    0    0  501    0  0.00000000000E+00 -0.00000000000E+00 -0.49961974886E+03  0.49961974887E+03  0.25500000000E-02 0.  1.
    5000001    1    1    2    0    0  0.23889668274E+03 -0.33150642937E+03 -0.73501745783E+02  0.45575722086E+03  0.18800000000E+03 0.  0.
   -5000001    1    1    2    0    0 -0.23889668274E+03  0.33150642937E+03 -0.19755671399E+02  0.45022485969E+03  0.18800000000E+03 0.  0.
<mgrwt>
<rscale>  0 0.90116956E+03</rscale>
<asrwt>0</asrwt>
<pdfrwt beam="1">  1        2 0.71374250E-01 0.90116956E+03</pdfrwt>
<pdfrwt beam="2">  1       -2 0.58051762E-01 0.90116956E+03</pdfrwt>
<totfact> 0.18723861E+02</totfact>
</mgrwt>
</event>
<event>
 4    1  0.2346411E-005  0.4839699E+03  0.7818608E-02  0.1018050E+00
         -2   -1    0    0    0  501 -0.00000000000E+00  0.00000000000E+00  0.14537231452E+03  0.14537231455E+03  0.25500000000E-02 0. -1.
          2   -1    0    0  501    0  0.00000000000E+00 -0.00000000000E+00 -0.40280513513E+03  0.40280513514E+03  0.25500000000E-02 0.  1.
    5000001    1    1    2    0    0 -0.12755850847E+02  0.13329084588E+03 -0.21104788082E+03  0.31275288859E+03  0.18800000000E+03 0.  0.
   -5000001    1    1    2    0    0  0.12755850847E+02 -0.13329084588E+03 -0.46384939794E+02  0.23542456109E+03  0.18800000000E+03 0.  0.
<mgrwt>
<rscale>  0 0.48396989E+03</rscale>
<asrwt>0</asrwt>
<pdfrwt beam="1">  1        2 0.57543591E-01 0.48396989E+03</pdfrwt>
<pdfrwt beam="2">  1       -2 0.20767474E-01 0.48396989E+03</pdfrwt>
<totfact> 0.17053756E+03</totfact>
</mgrwt>
</event>
<event>
 4    1  0.2346411E-005  0.5093186E+03  0.7818608E-02  0.1011375E+00
          2   -1    0    0  501    0  0.00000000000E+00  0.00000000000E+00  0.15058258317E+04  0.15058258317E+04  0.25500000000E-02 0. -1.
         -2   -1    0    0    0  501 -0.00000000000E+00 -0.00000000000E+00 -0.43066975981E+02  0.43066976057E+02  0.25500000000E-02 0.  1.
    5000001    1    1    2    0    0 -0.93611663054E+02 -0.10506290076E+03  0.10309865537E+04  0.10573923730E+04  0.18800000000E+03 0.  0.
   -5000001    1    1    2    0    0  0.93611663054E+02  0.10506290076E+03  0.43177230204E+03  0.49150043478E+03  0.18800000000E+03 0.  0.
<mgrwt>
<rscale>  0 0.50931862E+03</rscale>
<asrwt>0</asrwt>
<pdfrwt beam="1">  1        2 0.21511804E+00 0.50931862E+03</pdfrwt>
<pdfrwt beam="2">  1       -2 0.61524234E-02 0.50931862E+03</pdfrwt>
<totfact> 0.21973052E+03</totfact>
</mgrwt>
</event>
<event>
 4    1  0.2346411E-005  0.5535713E+03  0.7818608E-02  0.1000671E+00
         -2   -1    0    0    0  501 -0.00000000000E+00  0.00000000000E+00  0.49026311104E+02  0.49026311171E+02  0.25500000000E-02 0. -1.
          2   -1    0    0  501    0  0.00000000000E+00 -0.00000000000E+00 -0.15626362674E+04  0.15626362674E+04  0.25500000000E-02 0.  1.
    5000001    1    1    2    0    0 -0.12432351401E+03  0.15910358514E+03 -0.82164505965E+03  0.86672653760E+03  0.18800000000E+03 0.  0.
   -5000001    1    1    2    0    0  0.12432351401E+03 -0.15910358514E+03 -0.69196489663E+03  0.74493604095E+03  0.18800000000E+03 0.  0.
<mgrwt>
<rscale>  0 0.55357128E+03</rscale>
<asrwt>0</asrwt>
<pdfrwt beam="1">  1        2 0.22323372E+00 0.55357128E+03</pdfrwt>
<pdfrwt beam="2">  1       -2 0.70037597E-02 0.55357128E+03</pdfrwt>
<totfact> 0.16736884E+03</totfact>
</mgrwt>
</event>
<event>
 4    1  0.2346411E-005  0.5589412E+03  0.7818608E-02  0.9994453E-01
         -2   -1    0    0    0  501 -0.00000000000E+00  0.00000000000E+00  0.17120334337E+03  0.17120334339E+03  0.25500000000E-02 0. -1.
          2   -1    0    0  501    0  0.00000000000E+00 -0.00000000000E+00 -0.45620491050E+03  0.45620491050E+03  0.25500000000E-02 0.  1.
    5000001    1    1    2    0    0  0.60337584822E+02  0.14057205335E+03  0.13677986986E+02  0.24275957994E+03  0.18800000000E+03 0.  0.
   -5000001    1    1    2    0    0 -0.60337584822E+02 -0.14057205335E+03 -0.29867955411E+03  0.38464867395E+03  0.18800000000E+03 0.  0.
<mgrwt>
<rscale>  0 0.55894116E+03</rscale>
<asrwt>0</asrwt>
<pdfrwt beam="1">  1        2 0.65172129E-01 0.55894116E+03</pdfrwt>
<pdfrwt beam="2">  1       -2 0.24457621E-01 0.55894116E+03</pdfrwt>
<totfact> 0.11128393E+03</totfact>
</mgrwt>
</event>
<event>
 4    1  0.2346411E-005  0.2020717E+04  0.7818608E-02  0.8596996E-01
          2   -1    0    0  501    0  0.00000000000E+00  0.00000000000E+00  0.22494985340E+04  0.22494985340E+04  0.25500000000E-02 0. -1.
         -2   -1    0    0    0  501 -0.00000000000E+00 -0.00000000000E+00 -0.45380083056E+03  0.45380083057E+03  0.25500000000E-02 0.  1.
    5000001    1    1    2    0    0  0.74823543178E+03 -0.40633385998E+03  0.21502836365E+03  0.89807831747E+03  0.18800000000E+03 0.  0.
   -5000001    1    1    2    0    0 -0.74823543178E+03  0.40633385998E+03  0.15806693397E+04  0.18052210471E+04  0.18800000000E+03 0.  0.
<mgrwt>
<rscale>  0 0.20207170E+04</rscale>
<asrwt>0</asrwt>
<pdfrwt beam="1">  1        2 0.32135694E+00 0.20207170E+04</pdfrwt>
<pdfrwt beam="2">  1       -2 0.64828690E-01 0.20207170E+04</pdfrwt>
<totfact> 0.12184996E+01</totfact>
</mgrwt>
</event>
<event>
 4    1  0.2346411E-005  0.4956480E+03  0.7818608E-02  0.1014921E+00
         -2   -1    0    0    0  501 -0.00000000000E+00  0.00000000000E+00  0.83709112185E+02  0.83709112223E+02  0.25500000000E-02 0. -1.
          2   -1    0    0  501    0  0.00000000000E+00 -0.00000000000E+00 -0.73369248073E+03  0.73369248073E+03  0.25500000000E-02 0.  1.
    5000001    1    1    2    0    0 -0.87310034798E+02 -0.13337997852E+03 -0.28264058782E+03  0.37502394954E+03  0.18800000000E+03 0.  0.
   -5000001    1    1    2    0    0  0.87310034798E+02  0.13337997852E+03 -0.36734278072E+03  0.44237764341E+03  0.18800000000E+03 0.  0.
<mgrwt>
<rscale>  0 0.49564805E+03</rscale>
<asrwt>0</asrwt>
<pdfrwt beam="1">  1        2 0.10481321E+00 0.49564805E+03</pdfrwt>
<pdfrwt beam="2">  1       -2 0.11958445E-01 0.49564805E+03</pdfrwt>
<totfact> 0.21669919E+03</totfact>
</mgrwt>
</event>
<event>
 4    1  0.2346411E-005  0.8105204E+03  0.7818608E-02  0.9544913E-01
          2   -1    0    0  501    0  0.00000000000E+00  0.00000000000E+00  0.93747662307E+03  0.93747662307E+03  0.25500000000E-02 0.  1.
         -2   -1    0    0    0  501 -0.00000000000E+00 -0.00000000000E+00 -0.17518925741E+03  0.17518925743E+03  0.25500000000E-02 0. -1.
    5000001    1    1    2    0    0  0.10569845523E+03 -0.29166986707E+03  0.13309810315E+03  0.38639692009E+03  0.18800000000E+03 0.  0.
   -5000001    1    1    2    0    0 -0.10569845523E+03  0.29166986707E+03  0.62918926251E+03  0.72626896040E+03  0.18800000000E+03 0.  0.
<mgrwt>
<rscale>  0 0.81052041E+03</rscale>
<asrwt>0</asrwt>
<pdfrwt beam="1">  1        2 0.13392523E+00 0.81052041E+03</pdfrwt>
<pdfrwt beam="2">  1       -2 0.25027037E-01 0.81052041E+03</pdfrwt>
<totfact> 0.44085463E+02</totfact>
</mgrwt>
</event>
<event>
 4    1  0.2346411E-005  0.5369866E+03  0.7818608E-02  0.1004552E+00
          2   -1    0    0  501    0  0.00000000000E+00  0.00000000000E+00  0.41581006833E+03  0.41581006834E+03  0.25500000000E-02 0.  1.
         -2   -1    0    0    0  501 -0.00000000000E+00 -0.00000000000E+00 -0.17336921455E+03  0.17336921457E+03  0.25500000000E-02 0. -1.
    5000001    1    1    2    0    0 -0.61766283686E+02  0.14313492813E+03  0.24360559566E+03  0.34494980459E+03  0.18800000000E+03 0.  0.
   -5000001    1    1    2    0    0  0.61766283686E+02 -0.14313492813E+03 -0.11647418815E+01  0.24422947831E+03  0.18800000000E+03 0.  0.
<mgrwt>
<rscale>  0 0.53698665E+03</rscale>
<asrwt>0</asrwt>
<pdfrwt beam="1">  1        2 0.59401438E-01 0.53698665E+03</pdfrwt>
<pdfrwt beam="2">  1       -2 0.24767031E-01 0.53698665E+03</pdfrwt>
<totfact> 0.12067862E+03</totfact>
</mgrwt>
</event>
<event>
 4    1  0.2346411E-005  0.4472722E+03  0.7818608E-02  0.1028539E+00
          2   -1    0    0  501    0  0.00000000000E+00  0.00000000000E+00  0.82897059415E+03  0.82897059415E+03  0.25500000000E-02 0.  1.
         -2   -1    0    0    0  501 -0.00000000000E+00 -0.00000000000E+00 -0.60331589406E+02  0.60331589460E+02  0.25500000000E-02 0. -1.
    5000001    1    1    2    0    0 -0.47762657158E+02  0.11060688034E+03  0.40899020795E+03  0.46597440230E+03  0.18800000000E+03 0.  0.
   -5000001    1    1    2    0    0  0.47762657158E+02 -0.11060688034E+03  0.35964879679E+03  0.42332778131E+03  0.18800000000E+03 0.  0.
<mgrwt>
<rscale>  0 0.44727224E+03</rscale>
<asrwt>0</asrwt>
<pdfrwt beam="1">  1        2 0.11842437E+00 0.44727224E+03</pdfrwt>
<pdfrwt beam="2">  1       -2 0.86187982E-02 0.44727224E+03</pdfrwt>
<totfact> 0.31520353E+03</totfact>
</mgrwt>
</event>
<event>
 4    1  0.2346411E-005  0.5630762E+03  0.7818608E-02  0.9985118E-01
         -2   -1    0    0    0  501 -0.00000000000E+00  0.00000000000E+00  0.51012329622E+02  0.51012329686E+02  0.25500000000E-02 0. -1.
          2   -1    0    0  501    0  0.00000000000E+00 -0.00000000000E+00 -0.15538144027E+04  0.15538144027E+04  0.25500000000E-02 0.  1.
    5000001    1    1    2    0    0  0.27243404824E+02 -0.18855833926E+03 -0.50255492375E+03  0.56938730386E+03  0.18800000000E+03 0.  0.
   -5000001    1    1    2    0    0 -0.27243404824E+02  0.18855833926E+03 -0.10002471493E+04  0.10354394285E+04  0.18800000000E+03 0.  0.
<mgrwt>
<rscale>  0 0.56307617E+03</rscale>
<asrwt>0</asrwt>
<pdfrwt beam="1">  1        2 0.22197346E+00 0.56307617E+03</pdfrwt>
<pdfrwt beam="2">  1       -2 0.72874766E-02 0.56307617E+03</pdfrwt>
<totfact> 0.15879690E+03</totfact>
</mgrwt>
</event>
<event>
 4    1  0.2346411E-005  0.5116446E+03  0.7818608E-02  0.1010783E+00
         -2   -1    0    0    0  501 -0.00000000000E+00  0.00000000000E+00  0.54556851706E+03  0.54556851707E+03  0.25500000000E-02 0. -1.
          2   -1    0    0  501    0  0.00000000000E+00 -0.00000000000E+00 -0.11995750541E+03  0.11995750544E+03  0.25500000000E-02 0.  1.
    5000001    1    1    2    0    0  0.16989277619E+03 -0.24790480051E+02  0.18034082832E+03  0.31200150266E+03  0.18800000000E+03 0.  0.
   -5000001    1    1    2    0    0 -0.16989277619E+03  0.24790480051E+02  0.24527018333E+03  0.35352451985E+03  0.18800000000E+03 0.  0.
<mgrwt>
<rscale>  0 0.51164456E+03</rscale>
<asrwt>0</asrwt>
<pdfrwt beam="1">  1        2 0.17136786E-01 0.51164456E+03</pdfrwt>
<pdfrwt beam="2">  1       -2 0.77938360E-01 0.51164456E+03</pdfrwt>
<totfact> 0.50472860E+02</totfact>
</mgrwt>
</event>
<event>
 4    1  0.2346411E-005  0.4373272E+03  0.7818608E-02  0.1031570E+00
         -2   -1    0    0    0  501 -0.00000000000E+00  0.00000000000E+00  0.10029802442E+04  0.10029802442E+04  0.25500000000E-02 0. -1.
          2   -1    0    0  501    0  0.00000000000E+00 -0.00000000000E+00 -0.47671702017E+02  0.47671702085E+02  0.25500000000E-02 0.  1.
    5000001    1    1    2    0    0  0.12348671318E+02 -0.10447152036E+03  0.56764115155E+03  0.60714682342E+03  0.18800000000E+03 0.  0.
   -5000001    1    1    2    0    0 -0.12348671318E+02  0.10447152036E+03  0.38766739058E+03  0.44350512282E+03  0.18800000000E+03 0.  0.
<mgrwt>
<rscale>  0 0.43732722E+03</rscale>
<asrwt>0</asrwt>
<pdfrwt beam="1">  1        2 0.68102440E-02 0.43732722E+03</pdfrwt>
<pdfrwt beam="2">  1       -2 0.14328287E+00 0.43732722E+03</pdfrwt>
<totfact> 0.37506254E+02</totfact>
</mgrwt>
</event>
<event>
 4    1  0.2346411E-005  0.5233473E+03  0.7818608E-02  0.1007858E+00
          2   -1    0    0  501    0  0.00000000000E+00  0.00000000000E+00  0.12668573882E+04  0.12668573882E+04  0.25500000000E-02 0.  1.
         -2   -1    0    0    0  501 -0.00000000000E+00 -0.00000000000E+00 -0.54049572205E+02  0.54049572265E+02  0.25500000000E-02 0. -1.
    5000001    1    1    2    0    0 -0.38144323403E+02 -0.86502361448E+02  0.99897038085E+03  0.10208934664E+04  0.18800000000E+03 0.  0.
   -5000001    1    1    2    0    0  0.38144323403E+02  0.86502361448E+02  0.21383743513E+03  0.30001349404E+03  0.18800000000E+03 0.  0.
<mgrwt>
<rscale>  0 0.52334730E+03</rscale>
<asrwt>0</asrwt>
<pdfrwt beam="1">  1        2 0.18097963E+00 0.52334730E+03</pdfrwt>
<pdfrwt beam="2">  1       -2 0.77213673E-02 0.52334730E+03</pdfrwt>
<totfact> 0.20572444E+03</totfact>
</mgrwt>
</event>
<event>
 4    1  0.2346411E-005  0.4579289E+03  0.7818608E-02  0.1025384E+00
         -2   -1    0    0    0  501 -0.00000000000E+00  0.00000000000E+00  0.88469222533E+02  0.88469222569E+02  0.25500000000E-02 0. -1.
          2   -1    0    0  501    0  0.00000000000E+00 -0.00000000000E+00 -0.59257578847E+03  0.59257578848E+03  0.25500000000E-02 0.  1.
    5000001    1    1    2    0    0 -0.59168921588E+02 -0.11514391070E+03 -0.27872563686E+03  0.36026526629E+03  0.18800000000E+03 0.  0.
   -5000001    1    1    2    0    0  0.59168921588E+02  0.11514391070E+03 -0.22538092908E+03  0.32077974476E+03  0.18800000000E+03 0.  0.
<mgrwt>
<rscale>  0 0.45792890E+03</rscale>
<asrwt>0</asrwt>
<pdfrwt beam="1">  1        2 0.84653682E-01 0.45792890E+03</pdfrwt>
<pdfrwt beam="2">  1       -2 0.12638461E-01 0.45792890E+03</pdfrwt>
<totfact> 0.25531434E+03</totfact>
</mgrwt>
</event>
<event>
 4    1  0.2346411E-005  0.6690733E+03  0.7818608E-02  0.9771633E-01
          2   -1    0    0  501    0  0.00000000000E+00  0.00000000000E+00  0.69175623435E+03  0.69175623435E+03  0.25500000000E-02 0.  1.
         -2   -1    0    0    0  501 -0.00000000000E+00 -0.00000000000E+00 -0.16178354873E+03  0.16178354875E+03  0.25500000000E-02 0. -1.
    5000001    1    1    2    0    0  0.25804453252E+03 -0.95707037718E+02  0.22836761236E+03  0.40403289990E+03  0.18800000000E+03 0.  0.
   -5000001    1    1    2    0    0 -0.25804453252E+03  0.95707037718E+02  0.30160507326E+03  0.44950688320E+03  0.18800000000E+03 0.  0.
<mgrwt>
<rscale>  0 0.66907332E+03</rscale>
<asrwt>0</asrwt>
<pdfrwt beam="1">  1        2 0.98822319E-01 0.66907332E+03</pdfrwt>
<pdfrwt beam="2">  1       -2 0.23111936E-01 0.66907332E+03</pdfrwt>
<totfact> 0.75660934E+02</totfact>
</mgrwt>
</event>
<event>
 4    1  0.2346411E-005  0.8197751E+03  0.7818608E-02  0.9531827E-01
          2   -1    0    0  501    0  0.00000000000E+00  0.00000000000E+00  0.14874525213E+04  0.14874525213E+04  0.25500000000E-02 0.  1.
         -2   -1    0    0    0  501 -0.00000000000E+00 -0.00000000000E+00 -0.11295001843E+03  0.11295001846E+03  0.25500000000E-02 0. -1.
    5000001    1    1    2    0    0  0.26290538832E+03 -0.17204391742E+03  0.10469386551E+04  0.11091180732E+04  0.18800000000E+03 0.  0.
   -5000001    1    1    2    0    0 -0.26290538832E+03  0.17204391742E+03  0.32756384778E+03  0.49128446658E+03  0.18800000000E+03 0.  0.
<mgrwt>
<rscale>  0 0.81977507E+03</rscale>
<asrwt>0</asrwt>
<pdfrwt beam="1">  1        2 0.21249323E+00 0.81977507E+03</pdfrwt>
<pdfrwt beam="2">  1       -2 0.16135716E-01 0.81977507E+03</pdfrwt>
<totfact> 0.46222955E+02</totfact>
</mgrwt>
</event>
<event>
 4    1  0.2346411E-005  0.6268556E+03  0.7818608E-02  0.9851204E-01
          2   -1    0    0  501    0  0.00000000000E+00  0.00000000000E+00  0.15348320134E+04  0.15348320134E+04  0.25500000000E-02 0.  1.
         -2   -1    0    0    0  501 -0.00000000000E+00 -0.00000000000E+00 -0.64005034850E+02  0.64005034901E+02  0.25500000000E-02 0. -1.
    5000001    1    1    2    0    0 -0.16314994909E+03 -0.17262693779E+03  0.94065110901E+03  0.98822389893E+03  0.18800000000E+03 0.  0.
   -5000001    1    1    2    0    0  0.16314994909E+03  0.17262693779E+03  0.53017586949E+03  0.61061314932E+03  0.18800000000E+03 0.  0.
<mgrwt>
<rscale>  0 0.62685557E+03</rscale>
<asrwt>0</asrwt>
<pdfrwt beam="1">  1        2 0.21926170E+00 0.62685557E+03</pdfrwt>
<pdfrwt beam="2">  1       -2 0.91435773E-02 0.62685557E+03</pdfrwt>
<totfact> 0.11281779E+03</totfact>
</mgrwt>
</event>
<event>
 4    1  0.2346411E-005  0.7247605E+03  0.7818608E-02  0.9675801E-01
          2   -1    0    0  501    0  0.00000000000E+00  0.00000000000E+00  0.11037324882E+04  0.11037324882E+04  0.25500000000E-02 0.  1.
         -2   -1    0    0    0  501 -0.00000000000E+00 -0.00000000000E+00 -0.11897759324E+03  0.11897759327E+03  0.25500000000E-02 0. -1.
    5000001    1    1    2    0    0  0.35598603998E+02  0.20594545662E+03  0.87817333802E+03  0.92207006421E+03  0.18800000000E+03 0.  0.
   -5000001    1    1    2    0    0 -0.35598603998E+02 -0.20594545662E+03  0.10658155696E+03  0.30064001728E+03  0.18800000000E+03 0.  0.
<mgrwt>
<rscale>  0 0.72476047E+03</rscale>
<asrwt>0</asrwt>
<pdfrwt beam="1">  1        2 0.15767607E+00 0.72476047E+03</pdfrwt>
<pdfrwt beam="2">  1       -2 0.16996799E-01 0.72476047E+03</pdfrwt>
<totfact> 0.69144065E+02</totfact>
</mgrwt>
</event>
<event>
 4    1  0.2346411E-005  0.7081059E+03  0.7818608E-02  0.9703470E-01
          2   -1    0    0  501    0  0.00000000000E+00  0.00000000000E+00  0.18563461757E+04  0.18563461757E+04  0.25500000000E-02 0.  1.
         -2   -1    0    0    0  501 -0.00000000000E+00 -0.00000000000E+00 -0.67527001643E+02  0.67527001691E+02  0.25500000000E-02 0. -1.
    5000001    1    1    2    0    0 -0.15262121059E+03  0.16209399612E+03  0.34803130000E+03  0.45391351960E+03  0.18800000000E+03 0.  0.
   -5000001    1    1    2    0    0  0.15262121059E+03 -0.16209399612E+03  0.14407878740E+04  0.14699596578E+04  0.18800000000E+03 0.  0.
<mgrwt>
<rscale>  0 0.70810590E+03</rscale>
<asrwt>0</asrwt>
<pdfrwt beam="1">  1        2 0.26519229E+00 0.70810590E+03</pdfrwt>
<pdfrwt beam="2">  1       -2 0.96467154E-02 0.70810590E+03</pdfrwt>
<totfact> 0.70567658E+02</totfact>
</mgrwt>
</event>
<event>
 4    1  0.2346411E-005  0.4819207E+03  0.7818608E-02  0.1018609E+00
          2   -1    0    0  501    0  0.00000000000E+00  0.00000000000E+00  0.12910912335E+04  0.12910912335E+04  0.25500000000E-02 0. -1.
         -2   -1    0    0    0  501 -0.00000000000E+00 -0.00000000000E+00 -0.44971176817E+02  0.44971176889E+02  0.25500000000E-02 0.  1.
    5000001    1    1    2    0    0  0.11928458697E+03 -0.76470599262E+02  0.48057729454E+03  0.53514026317E+03  0.18800000000E+03 0.  0.
   -5000001    1    1    2    0    0 -0.11928458697E+03  0.76470599262E+02  0.76554276215E+03  0.80092214722E+03  0.18800000000E+03 0.  0.
<mgrwt>
<rscale>  0 0.48192071E+03</rscale>
<asrwt>0</asrwt>
<pdfrwt beam="1">  1        2 0.18444159E+00 0.48192071E+03</pdfrwt>
<pdfrwt beam="2">  1       -2 0.64244545E-02 0.48192071E+03</pdfrwt>
<totfact> 0.26673126E+03</totfact>
</mgrwt>
</event>
<event>
 4    1  0.2346411E-005  0.4718777E+03  0.7818608E-02  0.1021392E+00
          2   -1    0    0  501    0  0.00000000000E+00  0.00000000000E+00  0.32218125363E+03  0.32218125364E+03  0.25500000000E-02 0.  1.
         -2   -1    0    0    0  501 -0.00000000000E+00 -0.00000000000E+00 -0.17278209662E+03  0.17278209664E+03  0.25500000000E-02 0. -1.
    5000001    1    1    2    0    0 -0.94739455326E+02  0.88179888781E+02  0.13738880411E+03  0.26640371746E+03  0.18800000000E+03 0.  0.
   -5000001    1    1    2    0    0  0.94739455326E+02 -0.88179888781E+02  0.12010352899E+02  0.22855963283E+03  0.18800000000E+03 0.  0.
<mgrwt>
<rscale>  0 0.47187775E+03</rscale>
<asrwt>0</asrwt>
<pdfrwt beam="1">  1        2 0.46025893E-01 0.47187775E+03</pdfrwt>
<pdfrwt beam="2">  1       -2 0.24683157E-01 0.47187775E+03</pdfrwt>
<totfact> 0.16076099E+03</totfact>
</mgrwt>
</event>
<event>
 4    1  0.2346411E-005  0.4973912E+03  0.7818608E-02  0.1014462E+00
          2   -1    0    0  501    0  0.00000000000E+00  0.00000000000E+00  0.23994090074E+04  0.23994090074E+04  0.25500000000E-02 0.  1.
         -2   -1    0    0    0  501 -0.00000000000E+00 -0.00000000000E+00 -0.25776968955E+02  0.25776969081E+02  0.25500000000E-02 0. -1.
    5000001    1    1    2    0    0 -0.14497000627E+03 -0.72052833945E+02  0.11027060580E+04  0.11302710135E+04  0.18800000000E+03 0.  0.
   -5000001    1    1    2    0    0  0.14497000627E+03  0.72052833945E+02  0.12709259805E+04  0.12949149630E+04  0.18800000000E+03 0.  0.
<mgrwt>
<rscale>  0 0.49739116E+03</rscale>
<asrwt>0</asrwt>
<pdfrwt beam="1">  1        2 0.34277256E+00 0.49739116E+03</pdfrwt>
<pdfrwt beam="2">  1       -2 0.36824258E-02 0.49739116E+03</pdfrwt>
<totfact> 0.17222021E+03</totfact>
</mgrwt>
</event>
<event>
 4    1  0.2346411E-005  0.4758924E+03  0.7818608E-02  0.1020270E+00
         -2   -1    0    0    0  501 -0.00000000000E+00  0.00000000000E+00  0.10010102244E+03  0.10010102247E+03  0.25500000000E-02 0. -1.
          2   -1    0    0  501    0  0.00000000000E+00 -0.00000000000E+00 -0.56561245816E+03  0.56561245817E+03  0.25500000000E-02 0.  1.
    5000001    1    1    2    0    0 -0.14227007678E+03  0.99387086681E+01 -0.18998509608E+03  0.30294865804E+03  0.18800000000E+03 0.  0.
   -5000001    1    1    2    0    0  0.14227007678E+03 -0.99387086681E+01 -0.27552633965E+03  0.36276482260E+03  0.18800000000E+03 0.  0.
<mgrwt>
<rscale>  0 0.47589236E+03</rscale>
<asrwt>0</asrwt>
<pdfrwt beam="1">  1        2 0.80801778E-01 0.47589236E+03</pdfrwt>
<pdfrwt beam="2">  1       -2 0.14300146E-01 0.47589236E+03</pdfrwt>
<totfact> 0.21970151E+03</totfact>
</mgrwt>
</event>
<event>
 4    1  0.2346411E-005  0.7816512E+03  0.7818608E-02  0.9586963E-01
         -2   -1    0    0    0  501 -0.00000000000E+00  0.00000000000E+00  0.45543751145E+03  0.45543751146E+03  0.25500000000E-02 0. -1.
          2   -1    0    0  501    0  0.00000000000E+00 -0.00000000000E+00 -0.33538001346E+03  0.33538001347E+03  0.25500000000E-02 0.  1.
    5000001    1    1    2    0    0  0.22402816872E+03 -0.81488244877E+02 -0.18897055118E+03  0.35760707998E+03  0.18800000000E+03 0.  0.
   -5000001    1    1    2    0    0 -0.22402816872E+03  0.81488244877E+02  0.30902804918E+03  0.43321044495E+03  0.18800000000E+03 0.  0.
<mgrwt>
<rscale>  0 0.78165117E+03</rscale>
<asrwt>0</asrwt>
<pdfrwt beam="1">  1        2 0.47911430E-01 0.78165117E+03</pdfrwt>
<pdfrwt beam="2">  1       -2 0.65062502E-01 0.78165117E+03</pdfrwt>
<totfact> 0.23122283E+02</totfact>
</mgrwt>
</event>
<event>
 4    1  0.2346411E-005  0.9194835E+03  0.7818608E-02  0.9401549E-01
         -2   -1    0    0    0  501 -0.00000000000E+00  0.00000000000E+00  0.42784680642E+03  0.42784680643E+03  0.25500000000E-02 0. -1.
          2   -1    0    0  501    0  0.00000000000E+00 -0.00000000000E+00 -0.49401442177E+03  0.49401442177E+03  0.25500000000E-02 0.  1.
    5000001    1    1    2    0    0 -0.22519049582E+03 -0.34048253026E+03  0.64013828134E+02  0.45396132325E+03  0.18800000000E+03 0.  0.
   -5000001    1    1    2    0    0  0.22519049582E+03  0.34048253026E+03 -0.13018144348E+03  0.46789990494E+03  0.18800000000E+03 0.  0.
<mgrwt>
<rscale>  0 0.91948353E+03</rscale>
<asrwt>0</asrwt>
<pdfrwt beam="1">  1        2 0.70573489E-01 0.91948353E+03</pdfrwt>
<pdfrwt beam="2">  1       -2 0.61120972E-01 0.91948353E+03</pdfrwt>
<totfact> 0.17000325E+02</totfact>
</mgrwt>
</event>
<event>
 4    1  0.2346411E-005  0.6691021E+03  0.7818608E-02  0.9771581E-01
          2   -1    0    0  501    0  0.00000000000E+00  0.00000000000E+00  0.49673401951E+03  0.49673401952E+03  0.25500000000E-02 0.  1.
         -2   -1    0    0    0  501 -0.00000000000E+00 -0.00000000000E+00 -0.22532059500E+03  0.22532059501E+03  0.25500000000E-02 0. -1.
    5000001    1    1    2    0    0  0.27500070523E+03  0.92801697690E+00  0.10237272302E+03  0.34849737949E+03  0.18800000000E+03 0.  0.
   -5000001    1    1    2    0    0 -0.27500070523E+03 -0.92801697690E+00  0.16904070150E+03  0.37355723505E+03  0.18800000000E+03 0.  0.
<mgrwt>
<rscale>  0 0.66910210E+03</rscale>
<asrwt>0</asrwt>
<pdfrwt beam="1">  1        2 0.70962004E-01 0.66910210E+03</pdfrwt>
<pdfrwt beam="2">  1       -2 0.32188656E-01 0.66910210E+03</pdfrwt>
<totfact> 0.61065306E+02</totfact>
</mgrwt>
</event>
<event>
 4    1  0.2346411E-005  0.7332351E+03  0.7818608E-02  0.9662025E-01
         -2   -1    0    0    0  501 -0.00000000000E+00  0.00000000000E+00  0.14802570037E+03  0.14802570040E+03  0.25500000000E-02 0. -1.
          2   -1    0    0  501    0  0.00000000000E+00 -0.00000000000E+00 -0.90800734681E+03  0.90800734682E+03  0.25500000000E-02 0.  1.
    5000001    1    1    2    0    0  0.29410032089E+03  0.70492389384E+02 -0.25443173740E+03  0.43765704004E+03  0.18800000000E+03 0.  0.
   -5000001    1    1    2    0    0 -0.29410032089E+03 -0.70492389384E+02 -0.50554990904E+03  0.61837600717E+03  0.18800000000E+03 0.  0.
<mgrwt>
<rscale>  0 0.73323509E+03</rscale>
<asrwt>0</asrwt>
<pdfrwt beam="1">  1        2 0.12971533E+00 0.73323509E+03</pdfrwt>
<pdfrwt beam="2">  1       -2 0.21146529E-01 0.73323509E+03</pdfrwt>
<totfact> 0.62355229E+02</totfact>
</mgrwt>
</event>
<event>
 4    1  0.2346411E-005  0.6935451E+03  0.7818608E-02  0.9728335E-01
         -2   -1    0    0    0  501 -0.00000000000E+00  0.00000000000E+00  0.69985082825E+02  0.69985082871E+02  0.25500000000E-02 0. -1.
          2   -1    0    0  501    0  0.00000000000E+00 -0.00000000000E+00 -0.17182402736E+04  0.17182402736E+04  0.25500000000E-02 0.  1.
    5000001    1    1    2    0    0 -0.27363272992E+03  0.64395113096E+02 -0.10219349506E+04  0.10764370138E+04  0.18800000000E+03 0.  0.
   -5000001    1    1    2    0    0  0.27363272992E+03 -0.64395113096E+02 -0.62632024018E+03  0.71178834266E+03  0.18800000000E+03 0.  0.
<mgrwt>
<rscale>  0 0.69354506E+03</rscale>
<asrwt>0</asrwt>
<pdfrwt beam="1">  1        2 0.24546287E+00 0.69354506E+03</pdfrwt>
<pdfrwt beam="2">  1       -2 0.99978700E-02 0.69354506E+03</pdfrwt>
<totfact> 0.78330602E+02</totfact>
</mgrwt>
</event>
<event>
 4    1  0.2346411E-005  0.3942717E+03  0.7818608E-02  0.1045781E+00
          2   -1    0    0  501    0  0.00000000000E+00  0.00000000000E+00  0.35968256650E+04  0.35968256650E+04  0.25500000000E-02 0.  1.
         -2   -1    0    0    0  501 -0.00000000000E+00 -0.00000000000E+00 -0.10804676757E+02  0.10804677058E+02  0.25500000000E-02 0. -1.
    5000001    1    1    2    0    0 -0.70325312677E+01 -0.51697266588E+02  0.15347769745E+04  0.15471284450E+04  0.18800000000E+03 0.  0.
   -5000001    1    1    2    0    0  0.70325312677E+01  0.51697266588E+02  0.20512440138E+04  0.20605018971E+04  0.18800000000E+03 0.  0.
<mgrwt>
<rscale>  0 0.39427168E+03</rscale>
<asrwt>0</asrwt>
<pdfrwt beam="1">  1        2 0.51383267E+00 0.39427168E+03</pdfrwt>
<pdfrwt beam="2">  1       -2 0.15435240E-02 0.39427168E+03</pdfrwt>
<totfact> 0.14321509E+03</totfact>
</mgrwt>
</event>
<event>
 4    1  0.2346411E-005  0.7348148E+03  0.7818608E-02  0.9659479E-01
         -2   -1    0    0    0  501 -0.00000000000E+00  0.00000000000E+00  0.55760439922E+02  0.55760439980E+02  0.25500000000E-02 0. -1.
          2   -1    0    0  501    0  0.00000000000E+00 -0.00000000000E+00 -0.24208594320E+04  0.24208594320E+04  0.25500000000E-02 0.  1.
    5000001    1    1    2    0    0 -0.11073357787E+03 -0.23748218442E+03 -0.17758210673E+04  0.18048668029E+04  0.18800000000E+03 0.  0.
   -5000001    1    1    2    0    0  0.11073357787E+03  0.23748218442E+03 -0.58927792483E+03  0.67175306912E+03  0.18800000000E+03 0.  0.
<mgrwt>
<rscale>  0 0.73481477E+03</rscale>
<asrwt>0</asrwt>
<pdfrwt beam="1">  1        2 0.34583700E+00 0.73481477E+03</pdfrwt>
<pdfrwt beam="2">  1       -2 0.79657786E-02 0.73481477E+03</pdfrwt>
<totfact> 0.49590251E+02</totfact>
</mgrwt>
</event>
<event>
 4    1  0.2346411E-005  0.4311264E+03  0.7818608E-02  0.1033505E+00
          2   -1    0    0  501    0  0.00000000000E+00  0.00000000000E+00  0.41420329122E+03  0.41420329123E+03  0.25500000000E-02 0.  1.
         -2   -1    0    0    0  501 -0.00000000000E+00 -0.00000000000E+00 -0.11218523107E+03  0.11218523110E+03  0.25500000000E-02 0. -1.
    5000001    1    1    2    0    0  0.27481718080E+02 -0.81764505619E+02  0.76913566842E+02  0.22068161675E+03  0.18800000000E+03 0.  0.
   -5000001    1    1    2    0    0 -0.27481718080E+02  0.81764505619E+02  0.22510449331E+03  0.30570690558E+03  0.18800000000E+03 0.  0.
<mgrwt>
<rscale>  0 0.43112639E+03</rscale>
<asrwt>0</asrwt>
<pdfrwt beam="1">  1        2 0.59171900E-01 0.43112639E+03</pdfrwt>
<pdfrwt beam="2">  1       -2 0.16026461E-01 0.43112639E+03</pdfrwt>
<totfact> 0.25739290E+03</totfact>
</mgrwt>
</event>
<event>
 4    1  0.2346411E-005  0.6418789E+03  0.7818608E-02  0.9822138E-01
         -2   -1    0    0    0  501 -0.00000000000E+00  0.00000000000E+00  0.10398733976E+03  0.10398733979E+03  0.25500000000E-02 0. -1.
          2   -1    0    0  501    0  0.00000000000E+00 -0.00000000000E+00 -0.99052569461E+03  0.99052569461E+03  0.25500000000E-02 0.  1.
    5000001    1    1    2    0    0  0.21211743229E+03  0.57885537583E+02 -0.68024244399E+03  0.73920113849E+03  0.18800000000E+03 0.  0.
   -5000001    1    1    2    0    0 -0.21211743229E+03 -0.57885537583E+02 -0.20629591086E+03  0.35531189592E+03  0.18800000000E+03 0.  0.
<mgrwt>
<rscale>  0 0.64187890E+03</rscale>
<asrwt>0</asrwt>
<pdfrwt beam="1">  1        2 0.14150366E+00 0.64187890E+03</pdfrwt>
<pdfrwt beam="2">  1       -2 0.14855335E-01 0.64187890E+03</pdfrwt>
<totfact> 0.10185300E+03</totfact>
</mgrwt>
</event>
<event>
 4    1  0.2346411E-005  0.5860867E+03  0.7818608E-02  0.9934700E-01
          2   -1    0    0  501    0  0.00000000000E+00  0.00000000000E+00  0.11863970586E+04  0.11863970586E+04  0.25500000000E-02 0.  1.
         -2   -1    0    0    0  501 -0.00000000000E+00 -0.00000000000E+00 -0.72382520712E+02  0.72382520757E+02  0.25500000000E-02 0. -1.
    5000001    1    1    2    0    0 -0.10876949037E+03 -0.16174827748E+03  0.79749138546E+03  0.84221720310E+03  0.18800000000E+03 0.  0.
   -5000001    1    1    2    0    0  0.10876949037E+03  0.16174827748E+03  0.31652315245E+03  0.41656237629E+03  0.18800000000E+03 0.  0.
<mgrwt>
<rscale>  0 0.58608672E+03</rscale>
<asrwt>0</asrwt>
<pdfrwt beam="1">  1        2 0.16948529E+00 0.58608672E+03</pdfrwt>
<pdfrwt beam="2">  1       -2 0.10340360E-01 0.58608672E+03</pdfrwt>
<totfact> 0.14250970E+03</totfact>
</mgrwt>
</event>
<event>
 4    1  0.2346411E-005  0.5047215E+03  0.7818608E-02  0.1012554E+00
         -2   -1    0    0    0  501 -0.00000000000E+00  0.00000000000E+00  0.26171493591E+02  0.26171493715E+02  0.25500000000E-02 0. -1.
          2   -1    0    0  501    0  0.00000000000E+00 -0.00000000000E+00 -0.24334093118E+04  0.24334093118E+04  0.25500000000E-02 0.  1.
    5000001    1    1    2    0    0  0.13142781480E+03  0.10000946947E+03 -0.13627844727E+04  0.13855687221E+04  0.18800000000E+03 0.  0.
   -5000001    1    1    2    0    0 -0.13142781480E+03 -0.10000946947E+03 -0.10444533455E+04  0.10740120834E+04  0.18800000000E+03 0.  0.
<mgrwt>
<rscale>  0 0.50472153E+03</rscale>
<asrwt>0</asrwt>
<pdfrwt beam="1">  1        2 0.34762976E+00 0.50472153E+03</pdfrwt>
<pdfrwt beam="2">  1       -2 0.37387864E-02 0.50472153E+03</pdfrwt>
<totfact> 0.16165985E+03</totfact>
</mgrwt>
</event>
<event>
 4    1  0.2346411E-005  0.4783340E+03  0.7818608E-02  0.1019594E+00
         -2   -1    0    0    0  501 -0.00000000000E+00  0.00000000000E+00  0.67085713411E+02  0.67085713459E+02  0.25500000000E-02 0. -1.
          2   -1    0    0  501    0  0.00000000000E+00 -0.00000000000E+00 -0.85265335784E+03  0.85265335784E+03  0.25500000000E-02 0.  1.
    5000001    1    1    2    0    0  0.63863403279E+02 -0.54222363893E+02 -0.15856335060E+03  0.25981711871E+03  0.18800000000E+03 0.  0.
   -5000001    1    1    2    0    0 -0.63863403279E+02  0.54222363893E+02 -0.62700429383E+03  0.65992195259E+03  0.18800000000E+03 0.  0.
<mgrwt>
<rscale>  0 0.47833402E+03</rscale>
<asrwt>0</asrwt>
<pdfrwt beam="1">  1        2 0.12180762E+00 0.47833402E+03</pdfrwt>
<pdfrwt beam="2">  1       -2 0.95836738E-02 0.47833402E+03</pdfrwt>
<totfact> 0.25663392E+03</totfact>
</mgrwt>
</event>
<event>
 4    1  0.2346411E-005  0.7339647E+03  0.7818608E-02  0.9660849E-01
         -2   -1    0    0    0  501 -0.00000000000E+00  0.00000000000E+00  0.54180040362E+03  0.54180040363E+03  0.25500000000E-02 0. -1.
          2   -1    0    0  501    0  0.00000000000E+00 -0.00000000000E+00 -0.24857133588E+03  0.24857133589E+03  0.25500000000E-02 0.  1.
    5000001    1    1    2    0    0 -0.10120376084E+03 -0.27496197928E+03  0.21561590791E+02  0.34879104555E+03  0.18800000000E+03 0.  0.
   -5000001    1    1    2    0    0  0.10120376084E+03  0.27496197928E+03  0.27166747696E+03  0.44158069398E+03  0.18800000000E+03 0.  0.
<mgrwt>
<rscale>  0 0.73396471E+03</rscale>
<asrwt>0</asrwt>
<pdfrwt beam="1">  1        2 0.35510190E-01 0.73396471E+03</pdfrwt>
<pdfrwt beam="2">  1       -2 0.77400059E-01 0.73396471E+03</pdfrwt>
<totfact> 0.22101462E+02</totfact>
</mgrwt>
</event>
<event>
 4    1  0.2346411E-005  0.6245875E+03  0.7818608E-02  0.9855668E-01
          2   -1    0    0  501    0  0.00000000000E+00  0.00000000000E+00  0.20726639666E+04  0.20726639666E+04  0.25500000000E-02 0.  1.
         -2   -1    0    0    0  501 -0.00000000000E+00 -0.00000000000E+00 -0.47054117496E+02  0.47054117565E+02  0.25500000000E-02 0. -1.
    5000001    1    1    2    0    0 -0.22264509951E+03 -0.98127462721E+02  0.11981795918E+04  0.12370037079E+04  0.18800000000E+03 0.  0.
   -5000001    1    1    2    0    0  0.22264509951E+03  0.98127462721E+02  0.82743025730E+03  0.88271437621E+03  0.18800000000E+03 0.  0.
<mgrwt>
<rscale>  0 0.62458746E+03</rscale>
<asrwt>0</asrwt>
<pdfrwt beam="1">  1        2 0.29609501E+00 0.62458746E+03</pdfrwt>
<pdfrwt beam="2">  1       -2 0.67220133E-02 0.62458746E+03</pdfrwt>
<totfact> 0.98267626E+02</totfact>
</mgrwt>
</event>
<event>
 4    1  0.2346411E-005  0.5012619E+03  0.7818608E-02  0.1013450E+00
          2   -1    0    0  501    0  0.00000000000E+00  0.00000000000E+00  0.12957150975E+03  0.12957150977E+03  0.25500000000E-02 0.  1.
         -2   -1    0    0    0  501 -0.00000000000E+00 -0.00000000000E+00 -0.48479695712E+03  0.48479695712E+03  0.25500000000E-02 0. -1.
    5000001    1    1    2    0    0 -0.13172384977E+03 -0.85271172276E+02 -0.11218667355E+03  0.26935514686E+03  0.18800000000E+03 0.  0.
   -5000001    1    1    2    0    0  0.13172384977E+03  0.85271172276E+02 -0.24303877382E+03  0.34501332003E+03  0.18800000000E+03 0.  0.
<mgrwt>
<rscale>  0 0.50126190E+03</rscale>
<asrwt>0</asrwt>
<pdfrwt beam="1">  1        2 0.18510216E-01 0.50126190E+03</pdfrwt>
<pdfrwt beam="2">  1       -2 0.69256707E-01 0.50126190E+03</pdfrwt>
<totfact> 0.59681702E+02</totfact>
</mgrwt>
</event>
<event>
 4    1  0.2346411E-005  0.6954265E+03  0.7818608E-02  0.9725086E-01
         -2   -1    0    0    0  501 -0.00000000000E+00  0.00000000000E+00  0.65005962188E+03  0.65005962188E+03  0.25500000000E-02 0. -1.
          2   -1    0    0  501    0  0.00000000000E+00 -0.00000000000E+00 -0.18598987610E+03  0.18598987612E+03  0.25500000000E-02 0.  1.
    5000001    1    1    2    0    0  0.39609641818E+02  0.26578940905E+03  0.37092837525E+03  0.49512098850E+03  0.18800000000E+03 0.  0.
   -5000001    1    1    2    0    0 -0.39609641818E+02 -0.26578940905E+03  0.93141370528E+02  0.34092850950E+03  0.18800000000E+03 0.  0.
<mgrwt>
<rscale>  0 0.69542651E+03</rscale>
<asrwt>0</asrwt>
<pdfrwt beam="1">  1        2 0.26569982E-01 0.69542651E+03</pdfrwt>
<pdfrwt beam="2">  1       -2 0.92865662E-01 0.69542651E+03</pdfrwt>
<totfact> 0.20282195E+02</totfact>
</mgrwt>
</event>
<event>
 4    1  0.2346411E-005  0.5901568E+03  0.7818608E-02  0.9926041E-01
          2   -1    0    0  501    0  0.00000000000E+00  0.00000000000E+00  0.59118854251E+03  0.59118854252E+03  0.25500000000E-02 0.  1.
         -2   -1    0    0    0  501 -0.00000000000E+00 -0.00000000000E+00 -0.14728169837E+03  0.14728169839E+03  0.25500000000E-02 0. -1.
    5000001    1    1    2    0    0  0.10601044724E+03  0.13009370745E+03  0.29867188225E+02  0.25376886447E+03  0.18800000000E+03 0.  0.
   -5000001    1    1    2    0    0 -0.10601044724E+03 -0.13009370745E+03  0.41403965592E+03  0.48470137643E+03  0.18800000000E+03 0.  0.
<mgrwt>
<rscale>  0 0.59015677E+03</rscale>
<asrwt>0</asrwt>
<pdfrwt beam="1">  1        2 0.84455505E-01 0.59015677E+03</pdfrwt>
<pdfrwt beam="2">  1       -2 0.21040243E-01 0.59015677E+03</pdfrwt>
<totfact> 0.10793492E+03</totfact>
</mgrwt>
</event>
<event>
 4    1  0.2346411E-005  0.1273395E+04  0.7818608E-02  0.9050933E-01
         -2   -1    0    0    0  501 -0.00000000000E+00  0.00000000000E+00  0.80427671144E+03  0.80427671145E+03  0.25500000000E-02 0. -1.
          2   -1    0    0  501    0  0.00000000000E+00 -0.00000000000E+00 -0.50403516590E+03  0.50403516591E+03  0.25500000000E-02 0.  1.
    5000001    1    1    2    0    0  0.29262038985E+03 -0.36737723771E+03  0.54730477733E+03  0.74530480116E+03  0.18800000000E+03 0.  0.
   -5000001    1    1    2    0    0 -0.29262038985E+03  0.36737723771E+03 -0.24706323178E+03  0.56300707619E+03  0.18800000000E+03 0.  0.
<mgrwt>
<rscale>  0 0.12733951E+04</rscale>
<asrwt>0</asrwt>
<pdfrwt beam="1">  1        2 0.72005023E-01 0.12733951E+04</pdfrwt>
<pdfrwt beam="2">  1       -2 0.11489667E+00 0.12733951E+04</pdfrwt>
<totfact> 0.38647648E+01</totfact>
</mgrwt>
</event>
<event>
 4    1  0.2346411E-005  0.5245188E+03  0.7818608E-02  0.1007570E+00
          2   -1    0    0  501    0  0.00000000000E+00  0.00000000000E+00  0.74650670412E+03  0.74650670412E+03  0.25500000000E-02 0.  1.
         -2   -1    0    0    0  501 -0.00000000000E+00 -0.00000000000E+00 -0.92135805610E+02  0.92135805645E+02  0.25500000000E-02 0. -1.
    5000001    1    1    2    0    0 -0.39234976143E+02 -0.17298737760E+03  0.25618401815E+03  0.36392068822E+03  0.18800000000E+03 0.  0.
   -5000001    1    1    2    0    0  0.39234976143E+02  0.17298737760E+03  0.39818688036E+03  0.47472182155E+03  0.18800000000E+03 0.  0.
<mgrwt>
<rscale>  0 0.52451881E+03</rscale>
<asrwt>0</asrwt>
<pdfrwt beam="1">  1        2 0.10664381E+00 0.52451881E+03</pdfrwt>
<pdfrwt beam="2">  1       -2 0.13162258E-01 0.52451881E+03</pdfrwt>
<totfact> 0.18111676E+03</totfact>
</mgrwt>
</event>
<event>
 4    1  0.2346411E-005  0.4783491E+03  0.7818608E-02  0.1019590E+00
          2   -1    0    0  501    0  0.00000000000E+00  0.00000000000E+00  0.33673236566E+03  0.33673236567E+03  0.25500000000E-02 0.  1.
         -2   -1    0    0    0  501 -0.00000000000E+00 -0.00000000000E+00 -0.16988112211E+03  0.16988112213E+03  0.25500000000E-02 0. -1.
    5000001    1    1    2    0    0  0.26691565205E+02  0.14415213716E+03  0.63103454706E+02  0.24661371474E+03  0.18800000000E+03 0.  0.
   -5000001    1    1    2    0    0 -0.26691565205E+02 -0.14415213716E+03  0.10374778885E+03  0.25999977306E+03  0.18800000000E+03 0.  0.
<mgrwt>
<rscale>  0 0.47834913E+03</rscale>
<asrwt>0</asrwt>
<pdfrwt beam="1">  1        2 0.48104623E-01 0.47834913E+03</pdfrwt>
<pdfrwt beam="2">  1       -2 0.24268732E-01 0.47834913E+03</pdfrwt>
<totfact> 0.15786674E+03</totfact>
</mgrwt>
</event>
<event>
 4    1  0.2346411E-005  0.6039618E+03  0.7818608E-02  0.9897221E-01
          2   -1    0    0  501    0  0.00000000000E+00  0.00000000000E+00  0.94175990008E+03  0.94175990008E+03  0.25500000000E-02 0.  1.
         -2   -1    0    0    0  501 -0.00000000000E+00 -0.00000000000E+00 -0.96831966746E+02  0.96831966780E+02  0.25500000000E-02 0. -1.
    5000001    1    1    2    0    0 -0.15191511038E+03 -0.91175217583E+02  0.15353345458E+03  0.30051230048E+03  0.18800000000E+03 0.  0.
   -5000001    1    1    2    0    0  0.15191511038E+03  0.91175217583E+02  0.69139447875E+03  0.73807956638E+03  0.18800000000E+03 0.  0.
<mgrwt>
<rscale>  0 0.60396180E+03</rscale>
<asrwt>0</asrwt>
<pdfrwt beam="1">  1        2 0.13453713E+00 0.60396180E+03</pdfrwt>
<pdfrwt beam="2">  1       -2 0.13833138E-01 0.60396180E+03</pdfrwt>
<totfact> 0.12319189E+03</totfact>
</mgrwt>
</event>
<event>
 4    1  0.2346411E-005  0.4902016E+03  0.7818608E-02  0.1016369E+00
         -2   -1    0    0    0  501 -0.00000000000E+00  0.00000000000E+00  0.16239412164E+03  0.16239412166E+03  0.25500000000E-02 0. -1.
          2   -1    0    0  501    0  0.00000000000E+00 -0.00000000000E+00 -0.36992967081E+03  0.36992967082E+03  0.25500000000E-02 0.  1.
    5000001    1    1    2    0    0  0.11862431515E+03 -0.10135515530E+03 -0.12509758225E+03  0.27447768713E+03  0.18800000000E+03 0.  0.
   -5000001    1    1    2    0    0 -0.11862431515E+03  0.10135515530E+03 -0.82437966921E+02  0.25784610534E+03  0.18800000000E+03 0.  0.
<mgrwt>
<rscale>  0 0.49020161E+03</rscale>
<asrwt>0</asrwt>
<pdfrwt beam="1">  1        2 0.52847095E-01 0.49020161E+03</pdfrwt>
<pdfrwt beam="2">  1       -2 0.23199160E-01 0.49020161E+03</pdfrwt>
<totfact> 0.15424941E+03</totfact>
</mgrwt>
</event>
<event>
 4    1  0.2346411E-005  0.9257460E+03  0.7818608E-02  0.9393958E-01
         -2   -1    0    0    0  501 -0.00000000000E+00  0.00000000000E+00  0.70856783181E+02  0.70856783227E+02  0.25500000000E-02 0. -1.
          2   -1    0    0  501    0  0.00000000000E+00 -0.00000000000E+00 -0.30237250583E+04  0.30237250583E+04  0.25500000000E-02 0.  1.
    5000001    1    1    2    0    0  0.27344428365E+03 -0.32143916793E+03 -0.13811488019E+04  0.14563690905E+04  0.18800000000E+03 0.  0.
   -5000001    1    1    2    0    0 -0.27344428365E+03  0.32143916793E+03 -0.15717194732E+04  0.16382127510E+04  0.18800000000E+03 0.  0.
<mgrwt>
<rscale>  0 0.92574604E+03</rscale>
<asrwt>0</asrwt>
<pdfrwt beam="1">  1        2 0.43196064E+00 0.92574604E+03</pdfrwt>
<pdfrwt beam="2">  1       -2 0.10122399E-01 0.92574604E+03</pdfrwt>
<totfact> 0.15849193E+02</totfact>
</mgrwt>
</event>
<event>
 4    1  0.2346411E-005  0.7410662E+03  0.7818608E-02  0.9649471E-01
          2   -1    0    0  501    0  0.00000000000E+00  0.00000000000E+00  0.53005613955E+03  0.53005613956E+03  0.25500000000E-02 0.  1.
         -2   -1    0    0    0  501 -0.00000000000E+00 -0.00000000000E+00 -0.25901932659E+03  0.25901932660E+03  0.25500000000E-02 0. -1.
    5000001    1    1    2    0    0  0.28777079122E+03 -0.65921125342E+02  0.26502504216E+03  0.43902152113E+03  0.18800000000E+03 0.  0.
   -5000001    1    1    2    0    0 -0.28777079122E+03  0.65921125342E+02  0.60117708032E+01  0.35005394503E+03  0.18800000000E+03 0.  0.
<mgrwt>
<rscale>  0 0.74106622E+03</rscale>
<asrwt>0</asrwt>
<pdfrwt beam="1">  1        2 0.75722305E-01 0.74106622E+03</pdfrwt>
<pdfrwt beam="2">  1       -2 0.37002761E-01 0.74106622E+03</pdfrwt>
<totfact> 0.43435081E+02</totfact>
</mgrwt>
</event>
<event>
 4    1  0.2346411E-005  0.4828939E+03  0.7818608E-02  0.1018343E+00
          2   -1    0    0  501    0  0.00000000000E+00  0.00000000000E+00  0.14295172839E+04  0.14295172839E+04  0.25500000000E-02 0.  1.
         -2   -1    0    0    0  501 -0.00000000000E+00 -0.00000000000E+00 -0.40780640197E+02  0.40780640277E+02  0.25500000000E-02 0. -1.
    5000001    1    1    2    0    0  0.12761620882E+03 -0.74449850441E+02  0.79644527882E+03  0.83156344265E+03  0.18800000000E+03 0.  0.
   -5000001    1    1    2    0    0 -0.12761620882E+03  0.74449850441E+02  0.59229136484E+03  0.63873448150E+03  0.18800000000E+03 0.  0.
<mgrwt>
<rscale>  0 0.48289390E+03</rscale>
<asrwt>0</asrwt>
<pdfrwt beam="1">  1        2 0.20421672E+00 0.48289390E+03</pdfrwt>
<pdfrwt beam="2">  1       -2 0.58258067E-02 0.48289390E+03</pdfrwt>
<totfact> 0.26226465E+03</totfact>
</mgrwt>
</event>
<event>
 4    1  0.2346411E-005  0.4438113E+03  0.7818608E-02  0.1029584E+00
          2   -1    0    0  501    0  0.00000000000E+00  0.00000000000E+00  0.20754892990E+04  0.20754892990E+04  0.25500000000E-02 0.  1.
         -2   -1    0    0    0  501 -0.00000000000E+00 -0.00000000000E+00 -0.23725550105E+02  0.23725550242E+02  0.25500000000E-02 0. -1.
    5000001    1    1    2    0    0  0.11007779728E+03 -0.41737519514E+02  0.99634945837E+03  0.10207425656E+04  0.18800000000E+03 0.  0.
   -5000001    1    1    2    0    0 -0.11007779728E+03  0.41737519514E+02  0.10554142905E+04  0.10784722837E+04  0.18800000000E+03 0.  0.
<mgrwt>
<rscale>  0 0.44381134E+03</rscale>
<asrwt>0</asrwt>
<pdfrwt beam="1">  1        2 0.29649856E+00 0.44381134E+03</pdfrwt>
<pdfrwt beam="2">  1       -2 0.33893634E-02 0.44381134E+03</pdfrwt>
<totfact> 0.28453167E+03</totfact>
</mgrwt>
</event>
<event>
 4    1  0.2346411E-005  0.7868646E+03  0.7818608E-02  0.9579227E-01
         -2   -1    0    0    0  501 -0.00000000000E+00  0.00000000000E+00  0.27309761105E+03  0.27309761106E+03  0.25500000000E-02 0. -1.
          2   -1    0    0  501    0  0.00000000000E+00 -0.00000000000E+00 -0.56678989931E+03  0.56678989932E+03  0.25500000000E-02 0.  1.
    5000001    1    1    2    0    0  0.29652113941E+03 -0.13667456550E+03 -0.26779667326E+03  0.46223779722E+03  0.18800000000E+03 0.  0.
   -5000001    1    1    2    0    0 -0.29652113941E+03  0.13667456550E+03 -0.25895614998E+02  0.37764971316E+03  0.18800000000E+03 0.  0.
<mgrwt>
<rscale>  0 0.78686458E+03</rscale>
<asrwt>0</asrwt>
<pdfrwt beam="1">  1        2 0.80969985E-01 0.78686458E+03</pdfrwt>
<pdfrwt beam="2">  1       -2 0.39013945E-01 0.78686458E+03</pdfrwt>
<totfact> 0.36221735E+02</totfact>
</mgrwt>
</event>
<event>
 4    1  0.2346411E-005  0.4184341E+03  0.7818608E-02  0.1037577E+00
         -2   -1    0    0    0  501 -0.00000000000E+00  0.00000000000E+00  0.23857265488E+02  0.23857265624E+02  0.25500000000E-02 0. -1.
          2   -1    0    0  501    0  0.00000000000E+00 -0.00000000000E+00 -0.18347355397E+04  0.18347355397E+04  0.25500000000E-02 0.  1.
    5000001    1    1    2    0    0  0.39261784527E+02  0.81406858887E+02 -0.83392664863E+03  0.85961981113E+03  0.18800000000E+03 0.  0.
   -5000001    1    1    2    0    0 -0.39261784527E+02 -0.81406858887E+02 -0.97695162561E+03  0.99897299422E+03  0.18800000000E+03 0.  0.
<mgrwt>
<rscale>  0 0.41843410E+03</rscale>
<asrwt>0</asrwt>
<pdfrwt beam="1">  1        2 0.26210499E+00 0.41843410E+03</pdfrwt>
<pdfrwt beam="2">  1       -2 0.34081820E-02 0.41843410E+03</pdfrwt>
<totfact> 0.37180446E+03</totfact>
</mgrwt>
</event>
<event>
 4    1  0.2346411E-005  0.5656898E+03  0.7818608E-02  0.9979262E-01
          2   -1    0    0  501    0  0.00000000000E+00  0.00000000000E+00  0.38129080934E+03  0.38129080935E+03  0.25500000000E-02 0.  1.
         -2   -1    0    0    0  501 -0.00000000000E+00 -0.00000000000E+00 -0.20981686836E+03  0.20981686838E+03  0.25500000000E-02 0. -1.
    5000001    1    1    2    0    0  0.11639059152E+03 -0.13247090893E+03 -0.35951383810E+02  0.26025336406E+03  0.18800000000E+03 0.  0.
   -5000001    1    1    2    0    0 -0.11639059152E+03  0.13247090893E+03  0.20742532479E+03  0.33085431366E+03  0.18800000000E+03 0.  0.
<mgrwt>
<rscale>  0 0.56568982E+03</rscale>
<asrwt>0</asrwt>
<pdfrwt beam="1">  1        2 0.54470115E-01 0.56568982E+03</pdfrwt>
<pdfrwt beam="2">  1       -2 0.29973838E-01 0.56568982E+03</pdfrwt>
<totfact> 0.93928980E+02</totfact>
</mgrwt>
</event>
<event>
 4    1  0.2346411E-005  0.6576856E+03  0.7818608E-02  0.9792464E-01
         -2   -1    0    0    0  501 -0.00000000000E+00  0.00000000000E+00  0.78179691760E+02  0.78179691801E+02  0.25500000000E-02 0. -1.
          2   -1    0    0  501    0  0.00000000000E+00 -0.00000000000E+00 -0.13831928323E+04  0.13831928323E+04  0.25500000000E-02 0.  1.
    5000001    1    1    2    0    0  0.20177236121E+03 -0.17830153793E+03 -0.69034998886E+03  0.76448062846E+03  0.18800000000E+03 0.  0.
   -5000001    1    1    2    0    0 -0.20177236121E+03  0.17830153793E+03 -0.61466315167E+03  0.69689189563E+03  0.18800000000E+03 0.  0.
<mgrwt>
<rscale>  0 0.65768561E+03</rscale>
<asrwt>0</asrwt>
<pdfrwt beam="1">  1        2 0.19759896E+00 0.65768561E+03</pdfrwt>
<pdfrwt beam="2">  1       -2 0.11168528E-01 0.65768561E+03</pdfrwt>
<totfact> 0.97843709E+02</totfact>
</mgrwt>
</event>
<event>
 4    1  0.2346411E-005  0.4681769E+03  0.7818608E-02  0.1022436E+00
          2   -1    0    0  501    0  0.00000000000E+00  0.00000000000E+00  0.18742991266E+04  0.18742991266E+04  0.25500000000E-02 0.  1.
         -2   -1    0    0    0  501 -0.00000000000E+00 -0.00000000000E+00 -0.29236208783E+02  0.29236208894E+02  0.25500000000E-02 0. -1.
    5000001    1    1    2    0    0 -0.83317673074E+02 -0.53239037255E+02  0.13224993932E+04  0.13394494671E+04  0.18800000000E+03 0.  0.
   -5000001    1    1    2    0    0  0.83317673074E+02  0.53239037255E+02  0.52256352462E+03  0.56408586846E+03  0.18800000000E+03 0.  0.
<mgrwt>
<rscale>  0 0.46817689E+03</rscale>
<asrwt>0</asrwt>
<pdfrwt beam="1">  1        2 0.26775705E+00 0.46817689E+03</pdfrwt>
<pdfrwt beam="2">  1       -2 0.41766008E-02 0.46817689E+03</pdfrwt>
<totfact> 0.26048733E+03</totfact>
</mgrwt>
</event>
<event>
 4    1  0.2346411E-005  0.4052374E+03  0.7818608E-02  0.1041981E+00
          2   -1    0    0  501    0  0.00000000000E+00  0.00000000000E+00  0.65636437087E+03  0.65636437087E+03  0.25500000000E-02 0.  1.
         -2   -1    0    0    0  501 -0.00000000000E+00 -0.00000000000E+00 -0.62548077020E+02  0.62548077072E+02  0.25500000000E-02 0. -1.
    5000001    1    1    2    0    0  0.61821966912E+02  0.41404496847E+02  0.27350400761E+03  0.34012458031E+03  0.18800000000E+03 0.  0.
   -5000001    1    1    2    0    0 -0.61821966912E+02 -0.41404496847E+02  0.32031228623E+03  0.37878786763E+03  0.18800000000E+03 0.  0.
<mgrwt>
<rscale>  0 0.40523736E+03</rscale>
<asrwt>0</asrwt>
<pdfrwt beam="1">  1        2 0.93766340E-01 0.40523736E+03</pdfrwt>
<pdfrwt beam="2">  1       -2 0.89354395E-02 0.40523736E+03</pdfrwt>
<totfact> 0.39607208E+03</totfact>
</mgrwt>
</event>
<event>
 4    1  0.2346411E-005  0.7511606E+03  0.7818608E-02  0.9633531E-01
         -2   -1    0    0    0  501 -0.00000000000E+00  0.00000000000E+00  0.13454561479E+03  0.13454561482E+03  0.25500000000E-02 0. -1.
          2   -1    0    0  501    0  0.00000000000E+00 -0.00000000000E+00 -0.10484219392E+04  0.10484219392E+04  0.25500000000E-02 0.  1.
    5000001    1    1    2    0    0  0.19717143756E+03  0.20501425437E+03 -0.70499202357E+03  0.78311249102E+03  0.18800000000E+03 0.  0.
   -5000001    1    1    2    0    0 -0.19717143756E+03 -0.20501425437E+03 -0.20888430087E+03  0.39985506303E+03  0.18800000000E+03 0.  0.
<mgrwt>
<rscale>  0 0.75116063E+03</rscale>
<asrwt>0</asrwt>
<pdfrwt beam="1">  1        2 0.14977456E+00 0.75116063E+03</pdfrwt>
<pdfrwt beam="2">  1       -2 0.19220803E-01 0.75116063E+03</pdfrwt>
<totfact> 0.60240851E+02</totfact>
</mgrwt>
</event>
<event>
 4    1  0.2346411E-005  0.4056153E+03  0.7818608E-02  0.1041852E+00
          2   -1    0    0  501    0  0.00000000000E+00  0.00000000000E+00  0.16633807795E+03  0.16633807797E+03  0.25500000000E-02 0.  1.
         -2   -1    0    0    0  501 -0.00000000000E+00 -0.00000000000E+00 -0.24727311047E+03  0.24727311048E+03  0.25500000000E-02 0. -1.
    5000001    1    1    2    0    0 -0.65910839449E+02  0.28534569773E+02 -0.14903947480E+02  0.20180334011E+03  0.18800000000E+03 0.  0.
   -5000001    1    1    2    0    0  0.65910839449E+02 -0.28534569773E+02 -0.66031085036E+02  0.21180784834E+03  0.18800000000E+03 0.  0.
<mgrwt>
<rscale>  0 0.40561526E+03</rscale>
<asrwt>0</asrwt>
<pdfrwt beam="1">  1        2 0.23762583E-01 0.40561526E+03</pdfrwt>
<pdfrwt beam="2">  1       -2 0.35324730E-01 0.40561526E+03</pdfrwt>
<totfact> 0.17338860E+03</totfact>
</mgrwt>
</event>
<event>
 4    1  0.2346411E-005  0.1069745E+04  0.7818608E-02  0.9235193E-01
          2   -1    0    0  501    0  0.00000000000E+00  0.00000000000E+00  0.72929525682E+03  0.72929525683E+03  0.25500000000E-02 0.  1.
         -2   -1    0    0    0  501 -0.00000000000E+00 -0.00000000000E+00 -0.39228058192E+03  0.39228058193E+03  0.25500000000E-02 0. -1.
    5000001    1    1    2    0    0 -0.23720412015E+03  0.42537483479E+03  0.46531210101E+02  0.52413614472E+03  0.18800000000E+03 0.  0.
   -5000001    1    1    2    0    0  0.23720412015E+03 -0.42537483479E+03  0.29048346480E+03  0.59743969404E+03  0.18800000000E+03 0.  0.
<mgrwt>
<rscale>  0 0.10697446E+04</rscale>
<asrwt>0</asrwt>
<pdfrwt beam="1">  1        2 0.10418504E+00 0.10697446E+04</pdfrwt>
<pdfrwt beam="2">  1       -2 0.56040083E-01 0.10697446E+04</pdfrwt>
<totfact> 0.12721808E+02</totfact>
</mgrwt>
</event>
<event>
 4    1  0.2346411E-005  0.5644954E+03  0.7818608E-02  0.9981934E-01
         -2   -1    0    0    0  501 -0.00000000000E+00  0.00000000000E+00  0.46110886758E+02  0.46110886829E+02  0.25500000000E-02 0. -1.
          2   -1    0    0  501    0  0.00000000000E+00 -0.00000000000E+00 -0.17276564097E+04  0.17276564097E+04  0.25500000000E-02 0.  1.
    5000001    1    1    2    0    0 -0.16755695415E+03 -0.12625773094E+03 -0.89550705126E+03  0.93877219088E+03  0.18800000000E+03 0.  0.
   -5000001    1    1    2    0    0  0.16755695415E+03  0.12625773094E+03 -0.78603847170E+03  0.83499510567E+03  0.18800000000E+03 0.  0.
<mgrwt>
<rscale>  0 0.56449542E+03</rscale>
<asrwt>0</asrwt>
<pdfrwt beam="1">  1        2 0.24680802E+00 0.56449542E+03</pdfrwt>
<pdfrwt beam="2">  1       -2 0.65872706E-02 0.56449542E+03</pdfrwt>
<totfact> 0.15179012E+03</totfact>
</mgrwt>
</event>
<event>
 4    1  0.2346411E-005  0.5272020E+03  0.7818608E-02  0.1006913E+00
          2   -1    0    0  501    0  0.00000000000E+00  0.00000000000E+00  0.10122565200E+04  0.10122565200E+04  0.25500000000E-02 0.  1.
         -2   -1    0    0    0  501 -0.00000000000E+00 -0.00000000000E+00 -0.68644140918E+02  0.68644140965E+02  0.25500000000E-02 0. -1.
    5000001    1    1    2    0    0 -0.17883957834E+03  0.45656728850E+02  0.48936526280E+03  0.55577917567E+03  0.18800000000E+03 0.  0.
   -5000001    1    1    2    0    0  0.17883957834E+03 -0.45656728850E+02  0.45424711626E+03  0.52512148528E+03  0.18800000000E+03 0.  0.
<mgrwt>
<rscale>  0 0.52720197E+03</rscale>
<asrwt>0</asrwt>
<pdfrwt beam="1">  1        2 0.14460808E+00 0.52720197E+03</pdfrwt>
<pdfrwt beam="2">  1       -2 0.98063057E-02 0.52720197E+03</pdfrwt>
<totfact> 0.19622015E+03</totfact>
</mgrwt>
</event>
<event>
 4    1  0.2346411E-005  0.7971996E+03  0.7818608E-02  0.9564079E-01
         -2   -1    0    0    0  501 -0.00000000000E+00  0.00000000000E+00  0.21604760521E+03  0.21604760523E+03  0.25500000000E-02 0. -1.
          2   -1    0    0  501    0  0.00000000000E+00 -0.00000000000E+00 -0.73540186002E+03  0.73540186003E+03  0.25500000000E-02 0.  1.
    5000001    1    1    2    0    0 -0.27293008901E+03  0.15323705090E+03 -0.68847942139E+02  0.37155950585E+03  0.18800000000E+03 0.  0.
   -5000001    1    1    2    0    0  0.27293008901E+03 -0.15323705090E+03 -0.45050631267E+03  0.57988995940E+03  0.18800000000E+03 0.  0.
<mgrwt>
<rscale>  0 0.79719963E+03</rscale>
<asrwt>0</asrwt>
<pdfrwt beam="1">  1        2 0.10505741E+00 0.79719963E+03</pdfrwt>
<pdfrwt beam="2">  1       -2 0.30863944E-01 0.79719963E+03</pdfrwt>
<totfact> 0.41266894E+02</totfact>
</mgrwt>
</event>
<event>
 4    1  0.2346411E-005  0.9409404E+03  0.7818608E-02  0.9375803E-01
         -2   -1    0    0    0  501 -0.00000000000E+00  0.00000000000E+00  0.19484043117E+03  0.19484043119E+03  0.25500000000E-02 0. -1.
          2   -1    0    0  501    0  0.00000000000E+00 -0.00000000000E+00 -0.11360177381E+04  0.11360177381E+04  0.25500000000E-02 0.  1.
    5000001    1    1    2    0    0 -0.19464774821E+03 -0.31748216037E+03 -0.77824896876E+03  0.88300516726E+03  0.18800000000E+03 0.  0.
   -5000001    1    1    2    0    0  0.19464774821E+03  0.31748216037E+03 -0.16292833814E+03  0.44785300200E+03  0.18800000000E+03 0.  0.
<mgrwt>
<rscale>  0 0.94094035E+03</rscale>
<asrwt>0</asrwt>
<pdfrwt beam="1">  1        2 0.16228824E+00 0.94094035E+03</pdfrwt>
<pdfrwt beam="2">  1       -2 0.27834348E-01 0.94094035E+03</pdfrwt>
<totfact> 0.27362656E+02</totfact>
</mgrwt>
</event>
<event>
 4    1  0.2346411E-005  0.5863819E+03  0.7818608E-02  0.9934069E-01
          2   -1    0    0  501    0  0.00000000000E+00  0.00000000000E+00  0.14819022525E+04  0.14819022525E+04  0.25500000000E-02 0.  1.
         -2   -1    0    0    0  501 -0.00000000000E+00 -0.00000000000E+00 -0.58007146597E+02  0.58007146653E+02  0.25500000000E-02 0. -1.
    5000001    1    1    2    0    0  0.22143571610E+03 -0.13380833061E+02  0.61354340998E+03  0.67896416620E+03  0.18800000000E+03 0.  0.
   -5000001    1    1    2    0    0 -0.22143571610E+03  0.13380833061E+02  0.81035169590E+03  0.86094523293E+03  0.18800000000E+03 0.  0.
<mgrwt>
<rscale>  0 0.58638186E+03</rscale>
<asrwt>0</asrwt>
<pdfrwt beam="1">  1        2 0.21170036E+00 0.58638186E+03</pdfrwt>
<pdfrwt beam="2">  1       -2 0.82867339E-02 0.58638186E+03</pdfrwt>
<totfact> 0.14097136E+03</totfact>
</mgrwt>
</event>
<event>
 4    1  0.2346411E-005  0.5347862E+03  0.7818608E-02  0.1005078E+00
          2   -1    0    0  501    0  0.00000000000E+00  0.00000000000E+00  0.14587099130E+04  0.14587099130E+04  0.25500000000E-02 0.  1.
         -2   -1    0    0    0  501 -0.00000000000E+00 -0.00000000000E+00 -0.49015268679E+02  0.49015268746E+02  0.25500000000E-02 0. -1.
    5000001    1    1    2    0    0  0.15116616499E+03 -0.95409312043E+02  0.52211564983E+03  0.58301191931E+03  0.18800000000E+03 0.  0.
   -5000001    1    1    2    0    0 -0.15116616499E+03  0.95409312043E+02  0.88757899447E+03  0.92471326242E+03  0.18800000000E+03 0.  0.
<mgrwt>
<rscale>  0 0.53478616E+03</rscale>
<asrwt>0</asrwt>
<pdfrwt beam="1">  1        2 0.20838711E+00 0.53478616E+03</pdfrwt>
<pdfrwt beam="2">  1       -2 0.70021818E-02 0.53478616E+03</pdfrwt>
<totfact> 0.18965267E+03</totfact>
</mgrwt>
</event>
<event>
 4    1  0.2346411E-005  0.5965871E+03  0.7818608E-02  0.9912512E-01
          2   -1    0    0  501    0  0.00000000000E+00  0.00000000000E+00  0.32017399201E+03  0.32017399202E+03  0.25500000000E-02 0.  1.
         -2   -1    0    0    0  501 -0.00000000000E+00 -0.00000000000E+00 -0.27790842787E+03  0.27790842788E+03  0.25500000000E-02 0. -1.
    5000001    1    1    2    0    0  0.15421376591E+03  0.16952543524E+03 -0.12331896667E+02  0.29667631261E+03  0.18800000000E+03 0.  0.
   -5000001    1    1    2    0    0 -0.15421376591E+03 -0.16952543524E+03  0.54597460807E+02  0.30140610730E+03  0.18800000000E+03 0.  0.
<mgrwt>
<rscale>  0 0.59658713E+03</rscale>
<asrwt>0</asrwt>
<pdfrwt beam="1">  1        2 0.45739142E-01 0.59658713E+03</pdfrwt>
<pdfrwt beam="2">  1       -2 0.39701204E-01 0.59658713E+03</pdfrwt>
<totfact> 0.66953589E+02</totfact>
</mgrwt>
</event>
<event>
 4    1  0.2346411E-005  0.5575145E+03  0.7818608E-02  0.9997694E-01
          2   -1    0    0  501    0  0.00000000000E+00  0.00000000000E+00  0.21524090450E+03  0.21524090451E+03  0.25500000000E-02 0.  1.
         -2   -1    0    0    0  501 -0.00000000000E+00 -0.00000000000E+00 -0.36101692995E+03  0.36101692995E+03  0.25500000000E-02 0. -1.
    5000001    1    1    2    0    0 -0.11763531607E+03  0.14281642735E+03  0.20292711905E+02  0.26455697621E+03  0.18800000000E+03 0.  0.
   -5000001    1    1    2    0    0  0.11763531607E+03 -0.14281642735E+03 -0.16606873736E+03  0.31170085825E+03  0.18800000000E+03 0.  0.
<mgrwt>
<rscale>  0 0.55751452E+03</rscale>
<asrwt>0</asrwt>
<pdfrwt beam="1">  1        2 0.30748701E-01 0.55751452E+03</pdfrwt>
<pdfrwt beam="2">  1       -2 0.51573847E-01 0.55751452E+03</pdfrwt>
<totfact> 0.61877612E+02</totfact>
</mgrwt>
</event>
<event>
 4    1  0.2346411E-005  0.4940004E+03  0.7818608E-02  0.1015357E+00
          2   -1    0    0  501    0  0.00000000000E+00  0.00000000000E+00  0.32465666683E+03  0.32465666684E+03  0.25500000000E-02 0.  1.
         -2   -1    0    0    0  501 -0.00000000000E+00 -0.00000000000E+00 -0.18791881241E+03  0.18791881243E+03  0.25500000000E-02 0. -1.
    5000001    1    1    2    0    0  0.10076422502E+03 -0.96248956090E+02 -0.13646256251E+02  0.23440885415E+03  0.18800000000E+03 0.  0.
   -5000001    1    1    2    0    0 -0.10076422502E+03  0.96248956090E+02  0.15038411067E+03  0.27816662513E+03  0.18800000000E+03 0.  0.
<mgrwt>
<rscale>  0 0.49400039E+03</rscale>
<asrwt>0</asrwt>
<pdfrwt beam="1">  1        2 0.46379524E-01 0.49400039E+03</pdfrwt>
<pdfrwt beam="2">  1       -2 0.26845545E-01 0.49400039E+03</pdfrwt>
<totfact> 0.13714619E+03</totfact>
</mgrwt>
</event>
<event>
 4    1  0.2346411E-005  0.6031089E+03  0.7818608E-02  0.9898977E-01
          2   -1    0    0  501    0  0.00000000000E+00  0.00000000000E+00  0.18337636603E+03  0.18337636604E+03  0.25500000000E-02 0.  1.
         -2   -1    0    0    0  501 -0.00000000000E+00 -0.00000000000E+00 -0.49589317043E+03  0.49589317043E+03  0.25500000000E-02 0. -1.
    5000001    1    1    2    0    0  0.18352892729E+03  0.12292656129E+03 -0.24911526505E+03  0.38235614537E+03  0.18800000000E+03 0.  0.
   -5000001    1    1    2    0    0 -0.18352892729E+03 -0.12292656129E+03 -0.63401539348E+02  0.29691339110E+03  0.18800000000E+03 0.  0.
<mgrwt>
<rscale>  0 0.60310890E+03</rscale>
<asrwt>0</asrwt>
<pdfrwt beam="1">  1        2 0.26196624E-01 0.60310890E+03</pdfrwt>
<pdfrwt beam="2">  1       -2 0.70841881E-01 0.60310890E+03</pdfrwt>
<totfact> 0.37972410E+02</totfact>
</mgrwt>
</event>
<event>
 4    1  0.2346411E-005  0.9764808E+03  0.7818608E-02  0.9334723E-01
          2   -1    0    0  501    0  0.00000000000E+00  0.00000000000E+00  0.76590751986E+03  0.76590751986E+03  0.25500000000E-02 0.  1.
         -2   -1    0    0    0  501 -0.00000000000E+00 -0.00000000000E+00 -0.31123691730E+03  0.31123691731E+03  0.25500000000E-02 0. -1.
    5000001    1    1    2    0    0 -0.26051011836E+03  0.34427091535E+03  0.36965808884E+03  0.59864771575E+03  0.18800000000E+03 0.  0.
   -5000001    1    1    2    0    0  0.26051011836E+03 -0.34427091535E+03  0.85012513713E+02  0.47849672142E+03  0.18800000000E+03 0.  0.
<mgrwt>
<rscale>  0 0.97648081E+03</rscale>
<asrwt>0</asrwt>
<pdfrwt beam="1">  1        2 0.10941536E+00 0.97648081E+03</pdfrwt>
<pdfrwt beam="2">  1       -2 0.44462417E-01 0.97648081E+03</pdfrwt>
<totfact> 0.19256996E+02</totfact>
</mgrwt>
</event>
<event>
 4    1  0.2346411E-005  0.9383607E+03  0.7818608E-02  0.9378860E-01
          2   -1    0    0  501    0  0.00000000000E+00  0.00000000000E+00  0.63893667942E+03  0.63893667942E+03  0.25500000000E-02 0.  1.
         -2   -1    0    0    0  501 -0.00000000000E+00 -0.00000000000E+00 -0.34452582825E+03  0.34452582826E+03  0.25500000000E-02 0. -1.
    5000001    1    1    2    0    0  0.36665365310E+03 -0.21591001291E+03  0.83160591782E+02  0.47255869374E+03  0.18800000000E+03 0.  0.
   -5000001    1    1    2    0    0 -0.36665365310E+03  0.21591001291E+03  0.21125025939E+03  0.51090381394E+03  0.18800000000E+03 0.  0.
<mgrwt>
<rscale>  0 0.93836067E+03</rscale>
<asrwt>0</asrwt>
<pdfrwt beam="1">  1        2 0.91276668E-01 0.93836067E+03</pdfrwt>
<pdfrwt beam="2">  1       -2 0.49217976E-01 0.93836067E+03</pdfrwt>
<totfact> 0.19685762E+02</totfact>
</mgrwt>
</event>
<event>
 4    1  0.2346411E-005  0.1036649E+04  0.7818608E-02  0.9269238E-01
         -2   -1    0    0    0  501 -0.00000000000E+00  0.00000000000E+00  0.15161078183E+04  0.15161078183E+04  0.25500000000E-02 0. -1.
          2   -1    0    0  501    0  0.00000000000E+00 -0.00000000000E+00 -0.17720392833E+03  0.17720392835E+03  0.25500000000E-02 0.  1.
    5000001    1    1    2    0    0  0.32247196628E+03  0.83770099085E+02  0.12407166187E+04  0.12983556240E+04  0.18800000000E+03 0.  0.
   -5000001    1    1    2    0    0 -0.32247196628E+03 -0.83770099085E+02  0.98187271232E+02  0.39495612258E+03  0.18800000000E+03 0.  0.
<mgrwt>
<rscale>  0 0.10366489E+04</rscale>
<asrwt>0</asrwt>
<pdfrwt beam="1">  1        2 0.25314847E-01 0.10366489E+04</pdfrwt>
<pdfrwt beam="2">  1       -2 0.21658683E+00 0.10366489E+04</pdfrwt>
<totfact> 0.22448544E+01</totfact>
</mgrwt>
</event>
<event>
 4    1  0.2346411E-005  0.1005085E+04  0.7818608E-02  0.9302986E-01
          2   -1    0    0  501    0  0.00000000000E+00  0.00000000000E+00  0.86105614954E+03  0.86105614954E+03  0.25500000000E-02 0.  1.
         -2   -1    0    0    0  501 -0.00000000000E+00 -0.00000000000E+00 -0.29330117642E+03  0.29330117643E+03  0.25500000000E-02 0. -1.
    5000001    1    1    2    0    0  0.22870958247E+03 -0.20819482499E+03 -0.11654458737E+03  0.38023650418E+03  0.18800000000E+03 0.  0.
   -5000001    1    1    2    0    0 -0.22870958247E+03  0.20819482499E+03  0.68429956048E+03  0.77412082180E+03  0.18800000000E+03 0.  0.
<mgrwt>
<rscale>  0 0.10050846E+04</rscale>
<asrwt>0</asrwt>
<pdfrwt beam="1">  1        2 0.12300802E+00 0.10050846E+04</pdfrwt>
<pdfrwt beam="2">  1       -2 0.41900167E-01 0.10050846E+04</pdfrwt>
<totfact> 0.18570154E+02</totfact>
</mgrwt>
</event>
<event>
 4    1  0.2346411E-005  0.5928494E+03  0.7818608E-02  0.9920353E-01
          2   -1    0    0  501    0  0.00000000000E+00  0.00000000000E+00  0.13869949602E+04  0.13869949602E+04  0.25500000000E-02 0.  1.
         -2   -1    0    0    0  501 -0.00000000000E+00 -0.00000000000E+00 -0.63351063350E+02  0.63351063402E+02  0.25500000000E-02 0. -1.
    5000001    1    1    2    0    0 -0.34250957735E+02  0.21903388395E+03  0.80393718868E+03  0.85487307465E+03  0.18800000000E+03 0.  0.
   -5000001    1    1    2    0    0  0.34250957735E+02 -0.21903388395E+03  0.51970670820E+03  0.59547294898E+03  0.18800000000E+03 0.  0.
<mgrwt>
<rscale>  0 0.59284941E+03</rscale>
<asrwt>0</asrwt>
<pdfrwt beam="1">  1        2 0.19814214E+00 0.59284941E+03</pdfrwt>
<pdfrwt beam="2">  1       -2 0.90501519E-02 0.59284941E+03</pdfrwt>
<totfact> 0.13732511E+03</totfact>
</mgrwt>
</event>
<event>
 4    1  0.2346411E-005  0.4466949E+03  0.7818608E-02  0.1028712E+00
         -2   -1    0    0    0  501 -0.00000000000E+00  0.00000000000E+00  0.53018124444E+02  0.53018124506E+02  0.25500000000E-02 0. -1.
          2   -1    0    0  501    0  0.00000000000E+00 -0.00000000000E+00 -0.94088729055E+03  0.94088729055E+03  0.25500000000E-02 0.  1.
    5000001    1    1    2    0    0 -0.56046288619E+02  0.78273119805E+02 -0.28237582660E+03  0.35263008266E+03  0.18800000000E+03 0.  0.
   -5000001    1    1    2    0    0  0.56046288619E+02 -0.78273119805E+02 -0.60549333950E+03  0.64127533239E+03  0.18800000000E+03 0.  0.
<mgrwt>
<rscale>  0 0.44669488E+03</rscale>
<asrwt>0</asrwt>
<pdfrwt beam="1">  1        2 0.13441246E+00 0.44669488E+03</pdfrwt>
<pdfrwt beam="2">  1       -2 0.75740184E-02 0.44669488E+03</pdfrwt>
<totfact> 0.32752834E+03</totfact>
</mgrwt>
</event>
<event>
 4    1  0.2346411E-005  0.4917560E+03  0.7818608E-02  0.1015953E+00
         -2   -1    0    0    0  501 -0.00000000000E+00  0.00000000000E+00  0.77281587065E+02  0.77281587107E+02  0.25500000000E-02 0. -1.
          2   -1    0    0  501    0  0.00000000000E+00 -0.00000000000E+00 -0.78228186044E+03  0.78228186044E+03  0.25500000000E-02 0.  1.
    5000001    1    1    2    0    0 -0.70932704134E+02 -0.11212759837E+03 -0.50395687647E+03  0.55400413372E+03  0.18800000000E+03 0.  0.
   -5000001    1    1    2    0    0  0.70932704134E+02  0.11212759837E+03 -0.20104339690E+03  0.30555931383E+03  0.18800000000E+03 0.  0.
<mgrwt>
<rscale>  0 0.49175597E+03</rscale>
<asrwt>0</asrwt>
<pdfrwt beam="1">  1        2 0.11175455E+00 0.49175597E+03</pdfrwt>
<pdfrwt beam="2">  1       -2 0.11040227E-01 0.49175597E+03</pdfrwt>
<totfact> 0.22793489E+03</totfact>
</mgrwt>
</event>
<event>
 4    1  0.2346411E-005  0.5136805E+03  0.7818608E-02  0.1010269E+00
          2   -1    0    0  501    0  0.00000000000E+00  0.00000000000E+00  0.25478804236E+04  0.25478804236E+04  0.25500000000E-02 0.  1.
         -2   -1    0    0    0  501 -0.00000000000E+00 -0.00000000000E+00 -0.25890899067E+02  0.25890899193E+02  0.25500000000E-02 0. -1.
    5000001    1    1    2    0    0 -0.12245161423E+03 -0.11711340391E+03  0.14801393297E+04  0.15016212514E+04  0.18800000000E+03 0.  0.
   -5000001    1    1    2    0    0  0.12245161423E+03  0.11711340391E+03  0.10418501948E+04  0.10721500714E+04  0.18800000000E+03 0.  0.
<mgrwt>
<rscale>  0 0.51368050E+03</rscale>
<asrwt>0</asrwt>
<pdfrwt beam="1">  1        2 0.36398269E+00 0.51368050E+03</pdfrwt>
<pdfrwt beam="2">  1       -2 0.36987022E-02 0.51368050E+03</pdfrwt>
<totfact> 0.14358580E+03</totfact>
</mgrwt>
</event>
<event>
 4    1  0.2346411E-005  0.9138861E+03  0.7818608E-02  0.9408388E-01
         -2   -1    0    0    0  501 -0.00000000000E+00  0.00000000000E+00  0.33733239240E+03  0.33733239241E+03  0.25500000000E-02 0. -1.
          2   -1    0    0  501    0  0.00000000000E+00 -0.00000000000E+00 -0.61896503514E+03  0.61896503514E+03  0.25500000000E-02 0.  1.
    5000001    1    1    2    0    0 -0.73056323950E+01 -0.36171596549E+03 -0.35669390962E+03  0.54172535210E+03  0.18800000000E+03 0.  0.
   -5000001    1    1    2    0    0  0.73056323950E+01  0.36171596549E+03  0.75061266885E+02  0.41457207544E+03  0.18800000000E+03 0.  0.
<mgrwt>
<rscale>  0 0.91388611E+03</rscale>
<asrwt>0</asrwt>
<pdfrwt beam="1">  1        2 0.88423576E-01 0.91388611E+03</pdfrwt>
<pdfrwt beam="2">  1       -2 0.48190342E-01 0.91388611E+03</pdfrwt>
<totfact> 0.21369291E+02</totfact>
</mgrwt>
</event>
<event>
 4    1  0.2346411E-005  0.7746094E+03  0.7818608E-02  0.9597514E-01
          2   -1    0    0  501    0  0.00000000000E+00  0.00000000000E+00  0.13294618021E+04  0.13294618021E+04  0.25500000000E-02 0.  1.
         -2   -1    0    0    0  501 -0.00000000000E+00 -0.00000000000E+00 -0.11283130608E+03  0.11283130611E+03  0.25500000000E-02 0. -1.
    5000001    1    1    2    0    0  0.28338473136E+03 -0.14085409476E+03  0.83263436709E+03  0.91036848103E+03  0.18800000000E+03 0.  0.
   -5000001    1    1    2    0    0 -0.28338473136E+03  0.14085409476E+03  0.38399612893E+03  0.53192462719E+03  0.18800000000E+03 0.  0.
<mgrwt>
<rscale>  0 0.77460935E+03</rscale>
<asrwt>0</asrwt>
<pdfrwt beam="1">  1        2 0.18992311E+00 0.77460935E+03</pdfrwt>
<pdfrwt beam="2">  1       -2 0.16118758E-01 0.77460935E+03</pdfrwt>
<totfact> 0.56391213E+02</totfact>
</mgrwt>
</event>
<event>
 4    1  0.2346411E-005  0.5474253E+03  0.7818608E-02  0.1002092E+00
          2   -1    0    0  501    0  0.00000000000E+00  0.00000000000E+00  0.21693276544E+03  0.21693276545E+03  0.25500000000E-02 0.  1.
         -2   -1    0    0    0  501 -0.00000000000E+00 -0.00000000000E+00 -0.34535412699E+03  0.34535412699E+03  0.25500000000E-02 0. -1.
    5000001    1    1    2    0    0  0.10621061099E+03 -0.16815537283E+03 -0.68532342358E+02  0.28213047557E+03  0.18800000000E+03 0.  0.
   -5000001    1    1    2    0    0 -0.10621061099E+03  0.16815537283E+03 -0.59889019188E+02  0.28015641688E+03  0.18800000000E+03 0.  0.
<mgrwt>
<rscale>  0 0.54742534E+03</rscale>
<asrwt>0</asrwt>
<pdfrwt beam="1">  1        2 0.30990395E-01 0.54742534E+03</pdfrwt>
<pdfrwt beam="2">  1       -2 0.49336304E-01 0.54742534E+03</pdfrwt>
<totfact> 0.67113756E+02</totfact>
</mgrwt>
</event>
<event>
 4    1  0.2346411E-005  0.8489309E+03  0.7818608E-02  0.9491773E-01
          2   -1    0    0  501    0  0.00000000000E+00  0.00000000000E+00  0.21617950832E+04  0.21617950832E+04  0.25500000000E-02 0.  1.
         -2   -1    0    0    0  501 -0.00000000000E+00 -0.00000000000E+00 -0.83343201766E+02  0.83343201805E+02  0.25500000000E-02 0. -1.
    5000001    1    1    2    0    0  0.21772295715E+03 -0.31156888943E+03  0.10885944798E+04  0.11682723999E+04  0.18800000000E+03 0.  0.
   -5000001    1    1    2    0    0 -0.21772295715E+03  0.31156888943E+03  0.98985740168E+03  0.10768658851E+04  0.18800000000E+03 0.  0.
<mgrwt>
<rscale>  0 0.84893091E+03</rscale>
<asrwt>0</asrwt>
<pdfrwt beam="1">  1        2 0.30882790E+00 0.84893091E+03</pdfrwt>
<pdfrwt beam="2">  1       -2 0.11906170E-01 0.84893091E+03</pdfrwt>
<totfact> 0.34685418E+02</totfact>
</mgrwt>
</event>
<event>
 4    1  0.2346411E-005  0.6124114E+03  0.7818608E-02  0.9879986E-01
         -2   -1    0    0    0  501 -0.00000000000E+00  0.00000000000E+00  0.70207842734E+02  0.70207842780E+02  0.25500000000E-02 0. -1.
          2   -1    0    0  501    0  0.00000000000E+00 -0.00000000000E+00 -0.13354906400E+04  0.13354906400E+04  0.25500000000E-02 0.  1.
    5000001    1    1    2    0    0 -0.21250826357E+03 -0.75399833459E+02 -0.83238988198E+03  0.88264478279E+03  0.18800000000E+03 0.  0.
   -5000001    1    1    2    0    0  0.21250826357E+03  0.75399833459E+02 -0.43289291531E+03  0.52305370001E+03  0.18800000000E+03 0.  0.
<mgrwt>
<rscale>  0 0.61241135E+03</rscale>
<asrwt>0</asrwt>
<pdfrwt beam="1">  1        2 0.19078436E+00 0.61241135E+03</pdfrwt>
<pdfrwt beam="2">  1       -2 0.10029693E-01 0.61241135E+03</pdfrwt>
<totfact> 0.12387813E+03</totfact>
</mgrwt>
</event>
<event>
 4    1  0.2346411E-005  0.5330033E+03  0.7818608E-02  0.1005506E+00
         -2   -1    0    0    0  501 -0.00000000000E+00  0.00000000000E+00  0.30860386195E+02  0.30860386301E+02  0.25500000000E-02 0. -1.
          2   -1    0    0  501    0  0.00000000000E+00 -0.00000000000E+00 -0.23014337274E+04  0.23014337274E+04  0.25500000000E-02 0.  1.
    5000001    1    1    2    0    0  0.13918514409E+03 -0.12638356411E+03 -0.12152355310E+04  0.12439801869E+04  0.18800000000E+03 0.  0.
   -5000001    1    1    2    0    0 -0.13918514409E+03  0.12638356411E+03 -0.10553378102E+04  0.10883139268E+04  0.18800000000E+03 0.  0.
<mgrwt>
<rscale>  0 0.53300332E+03</rscale>
<asrwt>0</asrwt>
<pdfrwt beam="1">  1        2 0.32877614E+00 0.53300332E+03</pdfrwt>
<pdfrwt beam="2">  1       -2 0.44086281E-02 0.53300332E+03</pdfrwt>
<totfact> 0.14619828E+03</totfact>
</mgrwt>
</event>
<event>
 4    1  0.2346411E-005  0.1334664E+04  0.7818608E-02  0.9002519E-01
          2   -1    0    0  501    0  0.00000000000E+00  0.00000000000E+00  0.19128571067E+04  0.19128571067E+04  0.25500000000E-02 0.  1.
         -2   -1    0    0    0  501 -0.00000000000E+00 -0.00000000000E+00 -0.23280986251E+03  0.23280986253E+03  0.25500000000E-02 0. -1.
    5000001    1    1    2    0    0  0.60425702579E+03  0.59759964496E+02  0.51335018099E+03  0.81704970161E+03  0.18800000000E+03 0.  0.
   -5000001    1    1    2    0    0 -0.60425702579E+03 -0.59759964496E+02  0.11666970632E+04  0.13286172677E+04  0.18800000000E+03 0.  0.
<mgrwt>
<rscale>  0 0.13346640E+04</rscale>
<asrwt>0</asrwt>
<pdfrwt beam="1">  1        2 0.27326528E+00 0.13346640E+04</pdfrwt>
<pdfrwt beam="2">  1       -2 0.33258554E-01 0.13346640E+04</pdfrwt>
<totfact> 0.73508546E+01</totfact>
</mgrwt>
</event>
<event>
 4    1  0.2346411E-005  0.6452715E+03  0.7818608E-02  0.9815692E-01
         -2   -1    0    0    0  501 -0.00000000000E+00  0.00000000000E+00  0.52261043523E+03  0.52261043524E+03  0.25500000000E-02 0. -1.
          2   -1    0    0  501    0  0.00000000000E+00 -0.00000000000E+00 -0.19918056557E+03  0.19918056559E+03  0.25500000000E-02 0.  1.
    5000001    1    1    2    0    0 -0.44744563797E+02  0.24164264946E+03  0.26396972282E+03  0.40671520821E+03  0.18800000000E+03 0.  0.
   -5000001    1    1    2    0    0  0.44744563797E+02 -0.24164264946E+03  0.59460146840E+02  0.31507579261E+03  0.18800000000E+03 0.  0.
<mgrwt>
<rscale>  0 0.64527155E+03</rscale>
<asrwt>0</asrwt>
<pdfrwt beam="1">  1        2 0.28454367E-01 0.64527155E+03</pdfrwt>
<pdfrwt beam="2">  1       -2 0.74658633E-01 0.64527155E+03</pdfrwt>
<totfact> 0.30784246E+02</totfact>
</mgrwt>
</event>
<event>
 4    1  0.2346411E-005  0.5952958E+03  0.7818608E-02  0.9915214E-01
          2   -1    0    0  501    0  0.00000000000E+00  0.00000000000E+00  0.22332642787E+03  0.22332642788E+03  0.25500000000E-02 0.  1.
         -2   -1    0    0    0  501 -0.00000000000E+00 -0.00000000000E+00 -0.39670304671E+03  0.39670304672E+03  0.25500000000E-02 0. -1.
    5000001    1    1    2    0    0 -0.18334150073E+03  0.13511859209E+03 -0.48008633289E+02  0.29919887815E+03  0.18800000000E+03 0.  0.
   -5000001    1    1    2    0    0  0.18334150073E+03 -0.13511859209E+03 -0.12536798555E+03  0.32083059645E+03  0.18800000000E+03 0.  0.
<mgrwt>
<rscale>  0 0.59529581E+03</rscale>
<asrwt>0</asrwt>
<pdfrwt beam="1">  1        2 0.31903776E-01 0.59529581E+03</pdfrwt>
<pdfrwt beam="2">  1       -2 0.56671864E-01 0.59529581E+03</pdfrwt>
<totfact> 0.48885650E+02</totfact>
</mgrwt>
</event>
<event>
 4    1  0.2346411E-005  0.4338325E+03  0.7818608E-02  0.1032656E+00
          2   -1    0    0  501    0  0.00000000000E+00  0.00000000000E+00  0.19723065359E+04  0.19723065359E+04  0.25500000000E-02 0.  1.
         -2   -1    0    0    0  501 -0.00000000000E+00 -0.00000000000E+00 -0.23856663302E+02  0.23856663438E+02  0.25500000000E-02 0. -1.
    5000001    1    1    2    0    0 -0.73032308836E+02  0.52196827828E+02  0.69622431100E+03  0.72672588931E+03  0.18800000000E+03 0.  0.
   -5000001    1    1    2    0    0  0.73032308836E+02 -0.52196827828E+02  0.12522255616E+04  0.12694373100E+04  0.18800000000E+03 0.  0.
<mgrwt>
<rscale>  0 0.43383247E+03</rscale>
<asrwt>0</asrwt>
<pdfrwt beam="1">  1        2 0.28175806E+00 0.43383247E+03</pdfrwt>
<pdfrwt beam="2">  1       -2 0.34080950E-02 0.43383247E+03</pdfrwt>
<totfact> 0.31758889E+03</totfact>
</mgrwt>
</event>
<event>
 4    1  0.2346411E-005  0.5929157E+03  0.7818608E-02  0.9920214E-01
         -2   -1    0    0    0  501 -0.00000000000E+00  0.00000000000E+00  0.16835945904E+03  0.16835945906E+03  0.25500000000E-02 0. -1.
          2   -1    0    0  501    0  0.00000000000E+00 -0.00000000000E+00 -0.52202143337E+03  0.52202143338E+03  0.25500000000E-02 0.  1.
    5000001    1    1    2    0    0 -0.17590043113E+03 -0.12767822979E+03 -0.26160377684E+03  0.38861707128E+03  0.18800000000E+03 0.  0.
   -5000001    1    1    2    0    0  0.17590043113E+03  0.12767822979E+03 -0.92058197497E+02  0.30176382116E+03  0.18800000000E+03 0.  0.
<mgrwt>
<rscale>  0 0.59291566E+03</rscale>
<asrwt>0</asrwt>
<pdfrwt beam="1">  1        2 0.74574490E-01 0.59291566E+03</pdfrwt>
<pdfrwt beam="2">  1       -2 0.24051351E-01 0.59291566E+03</pdfrwt>
<totfact> 0.98401530E+02</totfact>
</mgrwt>
</event>
<event>
 4    1  0.2346411E-005  0.1034225E+04  0.7818608E-02  0.9271784E-01
         -2   -1    0    0    0  501 -0.00000000000E+00  0.00000000000E+00  0.11456597622E+03  0.11456597625E+03  0.25500000000E-02 0. -1.
          2   -1    0    0  501    0  0.00000000000E+00 -0.00000000000E+00 -0.23340746102E+04  0.23340746102E+04  0.25500000000E-02 0.  1.
    5000001    1    1    2    0    0 -0.63989762084E+02  0.46276698311E+03 -0.13880219889E+04  0.14765490212E+04  0.18800000000E+03 0.  0.
   -5000001    1    1    2    0    0  0.63989762084E+02 -0.46276698311E+03 -0.83148664507E+03  0.97209156525E+03  0.18800000000E+03 0.  0.
<mgrwt>
<rscale>  0 0.10342254E+04</rscale>
<asrwt>0</asrwt>
<pdfrwt beam="1">  1        2 0.33343920E+00 0.10342254E+04</pdfrwt>
<pdfrwt beam="2">  1       -2 0.16366569E-01 0.10342254E+04</pdfrwt>
<totfact> 0.16342452E+02</totfact>
</mgrwt>
</event>
<event>
 4    1  0.2346411E-005  0.5377885E+03  0.7818608E-02  0.1004361E+00
         -2   -1    0    0    0  501 -0.00000000000E+00  0.00000000000E+00  0.45358874713E+02  0.45358874784E+02  0.25500000000E-02 0. -1.
          2   -1    0    0  501    0  0.00000000000E+00 -0.00000000000E+00 -0.15940457245E+04  0.15940457245E+04  0.25500000000E-02 0.  1.
    5000001    1    1    2    0    0 -0.14625141366E+03 -0.93683307405E+02 -0.10256130727E+04  0.10570677429E+04  0.18800000000E+03 0.  0.
   -5000001    1    1    2    0    0  0.14625141366E+03  0.93683307405E+02 -0.52307377708E+03  0.58233685643E+03  0.18800000000E+03 0.  0.
<mgrwt>
<rscale>  0 0.53778851E+03</rscale>
<asrwt>0</asrwt>
<pdfrwt beam="1">  1        2 0.22772078E+00 0.53778851E+03</pdfrwt>
<pdfrwt beam="2">  1       -2 0.64798403E-02 0.53778851E+03</pdfrwt>
<totfact> 0.18234168E+03</totfact>
</mgrwt>
</event>
<event>
 4    1  0.2346411E-005  0.4350280E+03  0.7818608E-02  0.1032283E+00
          2   -1    0    0  501    0  0.00000000000E+00  0.00000000000E+00  0.24308044719E+04  0.24308044719E+04  0.25500000000E-02 0.  1.
         -2   -1    0    0    0  501 -0.00000000000E+00 -0.00000000000E+00 -0.19463657005E+02  0.19463657172E+02  0.25500000000E-02 0. -1.
    5000001    1    1    2    0    0 -0.52993712997E+02 -0.61984197632E+02  0.79492819844E+03  0.82091730098E+03  0.18800000000E+03 0.  0.
   -5000001    1    1    2    0    0  0.52993712997E+02  0.61984197632E+02  0.16164126165E+04  0.16293508281E+04  0.18800000000E+03 0.  0.
<mgrwt>
<rscale>  0 0.43502802E+03</rscale>
<asrwt>0</asrwt>
<pdfrwt beam="1">  1        2 0.34725772E+00 0.43502802E+03</pdfrwt>
<pdfrwt beam="2">  1       -2 0.27805229E-02 0.43502802E+03</pdfrwt>
<totfact> 0.25499130E+03</totfact>
</mgrwt>
</event>
<event>
 4    1  0.2346411E-005  0.4739365E+03  0.7818608E-02  0.1020815E+00
          2   -1    0    0  501    0  0.00000000000E+00  0.00000000000E+00  0.15140355974E+04  0.15140355974E+04  0.25500000000E-02 0.  1.
         -2   -1    0    0    0  501 -0.00000000000E+00 -0.00000000000E+00 -0.37088929873E+02  0.37088929961E+02  0.25500000000E-02 0. -1.
    5000001    1    1    2    0    0 -0.19033894539E+02 -0.60977111551E+02  0.11617920533E+04  0.11786370401E+04  0.18800000000E+03 0.  0.
   -5000001    1    1    2    0    0  0.19033894539E+02  0.60977111551E+02  0.31515461426E+03  0.37248748726E+03  0.18800000000E+03 0.  0.
<mgrwt>
<rscale>  0 0.47393654E+03</rscale>
<asrwt>0</asrwt>
<pdfrwt beam="1">  1        2 0.21629079E+00 0.47393654E+03</pdfrwt>
<pdfrwt beam="2">  1       -2 0.52984188E-02 0.47393654E+03</pdfrwt>
<totfact> 0.27467581E+03</totfact>
</mgrwt>
</event>
<event>
 4    1  0.2346411E-005  0.4459774E+03  0.7818608E-02  0.1028928E+00
         -2   -1    0    0    0  501 -0.00000000000E+00  0.00000000000E+00  0.59615724705E+02  0.59615724759E+02  0.25500000000E-02 0. -1.
          2   -1    0    0  501    0  0.00000000000E+00 -0.00000000000E+00 -0.83407460118E+03  0.83407460119E+03  0.25500000000E-02 0.  1.
    5000001    1    1    2    0    0 -0.59710060218E+02 -0.82715748002E+02 -0.51353463361E+03  0.55629938538E+03  0.18800000000E+03 0.  0.
   -5000001    1    1    2    0    0  0.59710060218E+02  0.82715748002E+02 -0.26092424287E+03  0.33739094056E+03  0.18800000000E+03 0.  0.
<mgrwt>
<rscale>  0 0.44597741E+03</rscale>
<asrwt>0</asrwt>
<pdfrwt beam="1">  1        2 0.11915351E+00 0.44597741E+03</pdfrwt>
<pdfrwt beam="2">  1       -2 0.85165326E-02 0.44597741E+03</pdfrwt>
<totfact> 0.31871862E+03</totfact>
</mgrwt>
</event>
<event>
 4    1  0.2346411E-005  0.1084251E+04  0.7818608E-02  0.9220679E-01
         -2   -1    0    0    0  501 -0.00000000000E+00  0.00000000000E+00  0.17170920556E+03  0.17170920558E+03  0.25500000000E-02 0. -1.
          2   -1    0    0  501    0  0.00000000000E+00 -0.00000000000E+00 -0.17116155862E+04  0.17116155862E+04  0.25500000000E-02 0.  1.
    5000001    1    1    2    0    0 -0.40072397298E+03  0.22037320478E+03 -0.38384236268E+03  0.62595767532E+03  0.18800000000E+03 0.  0.
   -5000001    1    1    2    0    0  0.40072397298E+03 -0.22037320478E+03 -0.11560640180E+04  0.12573671164E+04  0.18800000000E+03 0.  0.
<mgrwt>
<rscale>  0 0.10842512E+04</rscale>
<asrwt>0</asrwt>
<pdfrwt beam="1">  1        2 0.24451650E+00 0.10842512E+04</pdfrwt>
<pdfrwt beam="2">  1       -2 0.24529888E-01 0.10842512E+04</pdfrwt>
<totfact> 0.16672465E+02</totfact>
</mgrwt>
</event>
<event>
 4    1  0.2346411E-005  0.5106938E+03  0.7818608E-02  0.1011025E+00
          2   -1    0    0  501    0  0.00000000000E+00  0.00000000000E+00  0.73902883878E+03  0.73902883879E+03  0.25500000000E-02 0.  1.
         -2   -1    0    0    0  501 -0.00000000000E+00 -0.00000000000E+00 -0.88226642005E+02  0.88226642042E+02  0.25500000000E-02 0. -1.
    5000001    1    1    2    0    0  0.13615013055E+03 -0.10477819417E+03  0.35538852333E+03  0.43721885886E+03  0.18800000000E+03 0.  0.
   -5000001    1    1    2    0    0 -0.13615013055E+03  0.10477819417E+03  0.29541367344E+03  0.39003662197E+03  0.18800000000E+03 0.  0.
<mgrwt>
<rscale>  0 0.51069377E+03</rscale>
<asrwt>0</asrwt>
<pdfrwt beam="1">  1        2 0.10557555E+00 0.51069377E+03</pdfrwt>
<pdfrwt beam="2">  1       -2 0.12603806E-01 0.51069377E+03</pdfrwt>
<totfact> 0.19700770E+03</totfact>
</mgrwt>
</event>
<event>
 4    1  0.2346411E-005  0.5486385E+03  0.7818608E-02  0.1001810E+00
          2   -1    0    0  501    0  0.00000000000E+00  0.00000000000E+00  0.29222489388E+04  0.29222489388E+04  0.25500000000E-02 0.  1.
         -2   -1    0    0    0  501 -0.00000000000E+00 -0.00000000000E+00 -0.25751074160E+02  0.25751074286E+02  0.25500000000E-02 0. -1.
    5000001    1    1    2    0    0 -0.99156276241E+02  0.11577631089E+03  0.75447002212E+03  0.79234155233E+03  0.18800000000E+03 0.  0.
   -5000001    1    1    2    0    0  0.99156276241E+02 -0.11577631089E+03  0.21420278426E+04  0.21556584608E+04  0.18800000000E+03 0.  0.
<mgrwt>
<rscale>  0 0.54863849E+03</rscale>
<asrwt>0</asrwt>
<pdfrwt beam="1">  1        2 0.41746431E+00 0.54863849E+03</pdfrwt>
<pdfrwt beam="2">  1       -2 0.36787233E-02 0.54863849E+03</pdfrwt>
<totfact> 0.91919720E+02</totfact>
</mgrwt>
</event>
<event>
 4    1  0.2346411E-005  0.4701354E+03  0.7818608E-02  0.1021882E+00
          2   -1    0    0  501    0  0.00000000000E+00  0.00000000000E+00  0.16418426720E+04  0.16418426720E+04  0.25500000000E-02 0. -1.
         -2   -1    0    0    0  501 -0.00000000000E+00 -0.00000000000E+00 -0.33655376345E+02  0.33655376441E+02  0.25500000000E-02 0.  1.
    5000001    1    1    2    0    0 -0.80726673395E+02  0.17566307074E+02  0.39638619083E+03  0.44642063485E+03  0.18800000000E+03 0.  0.
   -5000001    1    1    2    0    0  0.80726673395E+02 -0.17566307074E+02  0.12118011048E+04  0.12290774135E+04  0.18800000000E+03 0.  0.
<mgrwt>
<rscale>  0 0.47013544E+03</rscale>
<asrwt>0</asrwt>
<pdfrwt beam="1">  1        2 0.23454896E+00 0.47013544E+03</pdfrwt>
<pdfrwt beam="2">  1       -2 0.48079108E-02 0.47013544E+03</pdfrwt>
<totfact> 0.27457890E+03</totfact>
</mgrwt>
</event>
<event>
 4    1  0.2346411E-005  0.8293787E+03  0.7818608E-02  0.9518440E-01
          2   -1    0    0  501    0  0.00000000000E+00  0.00000000000E+00  0.11705892863E+03  0.11705892866E+03  0.25500000000E-02 0.  1.
         -2   -1    0    0    0  501 -0.00000000000E+00 -0.00000000000E+00 -0.14690655318E+04  0.14690655318E+04  0.25500000000E-02 0. -1.
    5000001    1    1    2    0    0 -0.32999507082E+03  0.14730095713E+03 -0.82449566430E+03  0.91963656908E+03  0.18800000000E+03 0.  0.
   -5000001    1    1    2    0    0  0.32999507082E+03 -0.14730095713E+03 -0.52751093886E+03  0.66648789137E+03  0.18800000000E+03 0.  0.
<mgrwt>
<rscale>  0 0.82937865E+03</rscale>
<asrwt>0</asrwt>
<pdfrwt beam="1">  1        2 0.16722705E-01 0.82937865E+03</pdfrwt>
<pdfrwt beam="2">  1       -2 0.20986649E+00 0.82937865E+03</pdfrwt>
<totfact> 0.40909906E+01</totfact>
</mgrwt>
</event>
<event>
 4    1  0.2346411E-005  0.1144998E+04  0.7818608E-02  0.9162410E-01
          2   -1    0    0  501    0  0.00000000000E+00  0.00000000000E+00  0.86252734056E+03  0.86252734057E+03  0.25500000000E-02 0.  1.
         -2   -1    0    0    0  501 -0.00000000000E+00 -0.00000000000E+00 -0.37999401274E+03  0.37999401274E+03  0.25500000000E-02 0. -1.
    5000001    1    1    2    0    0  0.19909693976E+03 -0.48317803909E+03  0.90468129325E+02  0.56269804630E+03  0.18800000000E+03 0.  0.
   -5000001    1    1    2    0    0 -0.19909693976E+03  0.48317803909E+03  0.39206519850E+03  0.67982330702E+03  0.18800000000E+03 0.  0.
<mgrwt>
<rscale>  0 0.11449982E+04</rscale>
<asrwt>0</asrwt>
<pdfrwt beam="1">  1        2 0.12321819E+00 0.11449982E+04</pdfrwt>
<pdfrwt beam="2">  1       -2 0.54284860E-01 0.11449982E+04</pdfrwt>
<totfact> 0.10895355E+02</totfact>
</mgrwt>
</event>
<event>
 4    1  0.2346411E-005  0.4804923E+03  0.7818608E-02  0.1019000E+00
          2   -1    0    0  501    0  0.00000000000E+00  0.00000000000E+00  0.77715086578E+03  0.77715086578E+03  0.25500000000E-02 0.  1.
         -2   -1    0    0    0  501 -0.00000000000E+00 -0.00000000000E+00 -0.74268995920E+02  0.74268995963E+02  0.25500000000E-02 0. -1.
    5000001    1    1    2    0    0 -0.13577771906E+03  0.33674169748E+02  0.25759862897E+03  0.34823927456E+03  0.18800000000E+03 0.  0.
   -5000001    1    1    2    0    0  0.13577771906E+03 -0.33674169748E+02  0.44528324089E+03  0.50318058718E+03  0.18800000000E+03 0.  0.
<mgrwt>
<rscale>  0 0.48049231E+03</rscale>
<asrwt>0</asrwt>
<pdfrwt beam="1">  1        2 0.11102155E+00 0.48049231E+03</pdfrwt>
<pdfrwt beam="2">  1       -2 0.10609856E-01 0.48049231E+03</pdfrwt>
<totfact> 0.24512867E+03</totfact>
</mgrwt>
</event>
<event>
 4    1  0.2346411E-005  0.6217322E+03  0.7818608E-02  0.9861317E-01
          2   -1    0    0  501    0  0.00000000000E+00  0.00000000000E+00  0.63983102644E+03  0.63983102644E+03  0.25500000000E-02 0.  1.
         -2   -1    0    0    0  501 -0.00000000000E+00 -0.00000000000E+00 -0.15103635299E+03  0.15103635302E+03  0.25500000000E-02 0. -1.
    5000001    1    1    2    0    0 -0.20032084062E+03 -0.14410710776E+03  0.26978867550E+03  0.41112677743E+03  0.18800000000E+03 0.  0.
   -5000001    1    1    2    0    0  0.20032084062E+03  0.14410710776E+03  0.21900599794E+03  0.37974060203E+03  0.18800000000E+03 0.  0.
<mgrwt>
<rscale>  0 0.62173224E+03</rscale>
<asrwt>0</asrwt>
<pdfrwt beam="1">  1        2 0.91404432E-01 0.62173224E+03</pdfrwt>
<pdfrwt beam="2">  1       -2 0.21576622E-01 0.62173224E+03</pdfrwt>
<totfact> 0.93996631E+02</totfact>
</mgrwt>
</event>
<event>
 4    1  0.2346411E-005  0.8424120E+03  0.7818608E-02  0.9500578E-01
         -2   -1    0    0    0  501 -0.00000000000E+00  0.00000000000E+00  0.67640583250E+02  0.67640583299E+02  0.25500000000E-02 0. -1.
          2   -1    0    0  501    0  0.00000000000E+00 -0.00000000000E+00 -0.26229000810E+04  0.26229000810E+04  0.25500000000E-02 0.  1.
    5000001    1    1    2    0    0  0.11507511788E+03  0.25783383409E+03 -0.48012554924E+03  0.58786487545E+03  0.18800000000E+03 0.  0.
   -5000001    1    1    2    0    0 -0.11507511788E+03 -0.25783383409E+03 -0.20751339485E+04  0.21026757889E+04  0.18800000000E+03 0.  0.
<mgrwt>
<rscale>  0 0.84241199E+03</rscale>
<asrwt>0</asrwt>
<pdfrwt beam="1">  1        2 0.37469995E+00 0.84241199E+03</pdfrwt>
<pdfrwt beam="2">  1       -2 0.96629421E-02 0.84241199E+03</pdfrwt>
<totfact> 0.28287270E+02</totfact>
</mgrwt>
</event>
<event>
 4    1  0.2346411E-005  0.4994589E+03  0.7818608E-02  0.1013920E+00
          2   -1    0    0  501    0  0.00000000000E+00  0.00000000000E+00  0.71842514596E+03  0.71842514597E+03  0.25500000000E-02 0.  1.
         -2   -1    0    0    0  501 -0.00000000000E+00 -0.00000000000E+00 -0.86807653235E+02  0.86807653272E+02  0.25500000000E-02 0. -1.
    5000001    1    1    2    0    0 -0.93367583533E+02  0.76022105661E+02  0.13538566784E+03  0.26109413103E+03  0.18800000000E+03 0.  0.
   -5000001    1    1    2    0    0  0.93367583533E+02 -0.76022105661E+02  0.49623182489E+03  0.54413866820E+03  0.18800000000E+03 0.  0.
<mgrwt>
<rscale>  0 0.49945891E+03</rscale>
<asrwt>0</asrwt>
<pdfrwt beam="1">  1        2 0.10263216E+00 0.49945891E+03</pdfrwt>
<pdfrwt beam="2">  1       -2 0.12401093E-01 0.49945891E+03</pdfrwt>
<totfact> 0.20949692E+03</totfact>
</mgrwt>
</event>
<event>
 4    1  0.2346411E-005  0.9050564E+03  0.7818608E-02  0.9419283E-01
         -2   -1    0    0    0  501 -0.00000000000E+00  0.00000000000E+00  0.20109150497E+03  0.20109150499E+03  0.25500000000E-02 0. -1.
          2   -1    0    0  501    0  0.00000000000E+00 -0.00000000000E+00 -0.10183512224E+04  0.10183512224E+04  0.25500000000E-02 0.  1.
    5000001    1    1    2    0    0 -0.35106028530E+03 -0.14656639185E+03 -0.19681994531E+03  0.46776823535E+03  0.18800000000E+03 0.  0.
   -5000001    1    1    2    0    0  0.35106028530E+03  0.14656639185E+03 -0.62043977211E+03  0.75167449202E+03  0.18800000000E+03 0.  0.
<mgrwt>
<rscale>  0 0.90505642E+03</rscale>
<asrwt>0</asrwt>
<pdfrwt beam="1">  1        2 0.14547874E+00 0.90505642E+03</pdfrwt>
<pdfrwt beam="2">  1       -2 0.28727358E-01 0.90505642E+03</pdfrwt>
<totfact> 0.30391761E+02</totfact>
</mgrwt>
</event>
<event>
 4    1  0.2346411E-005  0.1362319E+04  0.7818608E-02  0.8981555E-01
          2   -1    0    0  501    0  0.00000000000E+00  0.00000000000E+00  0.18733763623E+04  0.18733763623E+04  0.25500000000E-02 0.  1.
         -2   -1    0    0    0  501 -0.00000000000E+00 -0.00000000000E+00 -0.24766951957E+03  0.24766951958E+03  0.25500000000E-02 0. -1.
    5000001    1    1    2    0    0 -0.55566752455E+03 -0.30749946993E+03  0.10605577847E+04  0.12503795970E+04  0.18800000000E+03 0.  0.
   -5000001    1    1    2    0    0  0.55566752455E+03  0.30749946993E+03  0.56514905798E+03  0.87066628485E+03  0.18800000000E+03 0.  0.
<mgrwt>
<rscale>  0 0.13623189E+04</rscale>
<asrwt>0</asrwt>
<pdfrwt beam="1">  1        2 0.26762521E+00 0.13623189E+04</pdfrwt>
<pdfrwt beam="2">  1       -2 0.35381358E-01 0.13623189E+04</pdfrwt>
<totfact> 0.68327013E+01</totfact>
</mgrwt>
</event>
<event>
 4    1  0.2346411E-005  0.8284972E+03  0.7818608E-02  0.9519660E-01
          2   -1    0    0  501    0  0.00000000000E+00  0.00000000000E+00  0.22057341409E+04  0.22057341409E+04  0.25500000000E-02 0.  1.
         -2   -1    0    0    0  501 -0.00000000000E+00 -0.00000000000E+00 -0.77798098646E+02  0.77798098688E+02  0.25500000000E-02 0. -1.
    5000001    1    1    2    0    0  0.18959669110E+03 -0.31279031608E+03  0.92689600887E+03  0.10140339730E+04  0.18800000000E+03 0.  0.
   -5000001    1    1    2    0    0 -0.18959669110E+03  0.31279031608E+03  0.12010400333E+04  0.12694982665E+04  0.18800000000E+03 0.  0.
<mgrwt>
<rscale>  0 0.82849725E+03</rscale>
<asrwt>0</asrwt>
<pdfrwt beam="1">  1        2 0.31510482E+00 0.82849725E+03</pdfrwt>
<pdfrwt beam="2">  1       -2 0.11114016E-01 0.82849725E+03</pdfrwt>
<totfact> 0.36962235E+02</totfact>
</mgrwt>
</event>
<event>
 4    1  0.2346411E-005  0.1116924E+04  0.7818608E-02  0.9188852E-01
         -2   -1    0    0    0  501 -0.00000000000E+00  0.00000000000E+00  0.32110581127E+03  0.32110581128E+03  0.25500000000E-02 0. -1.
          2   -1    0    0  501    0  0.00000000000E+00 -0.00000000000E+00 -0.97126760412E+03  0.97126760412E+03  0.25500000000E-02 0.  1.
    5000001    1    1    2    0    0  0.67320728020E+02 -0.50976945370E+03 -0.19759841834E+03  0.58205335776E+03  0.18800000000E+03 0.  0.
   -5000001    1    1    2    0    0 -0.67320728020E+02  0.50976945370E+03 -0.45256337451E+03  0.71032005764E+03  0.18800000000E+03 0.  0.
<mgrwt>
<rscale>  0 0.11169238E+04</rscale>
<asrwt>0</asrwt>
<pdfrwt beam="1">  1        2 0.13875251E+00 0.11169238E+04</pdfrwt>
<pdfrwt beam="2">  1       -2 0.45872259E-01 0.11169238E+04</pdfrwt>
<totfact> 0.13074882E+02</totfact>
</mgrwt>
</event>
<event>
 4    1  0.2346411E-005  0.5203273E+03  0.7818608E-02  0.1008605E+00
          2   -1    0    0  501    0  0.00000000000E+00  0.00000000000E+00  0.13969105774E+03  0.13969105777E+03  0.25500000000E-02 0. -1.
         -2   -1    0    0    0  501 -0.00000000000E+00 -0.00000000000E+00 -0.48453434390E+03  0.48453434391E+03  0.25500000000E-02 0.  1.
    5000001    1    1    2    0    0  0.13491644708E+03  0.25062695113E+01 -0.29804214834E+02  0.23332599577E+03  0.18800000000E+03 0.  0.
   -5000001    1    1    2    0    0 -0.13491644708E+03 -0.25062695113E+01 -0.31503907132E+03  0.39089940591E+03  0.18800000000E+03 0.  0.
<mgrwt>
<rscale>  0 0.52032726E+03</rscale>
<asrwt>0</asrwt>
<pdfrwt beam="1">  1        2 0.19955866E-01 0.52032726E+03</pdfrwt>
<pdfrwt beam="2">  1       -2 0.69219192E-01 0.52032726E+03</pdfrwt>
<totfact> 0.54703486E+02</totfact>
</mgrwt>
</event>
<event>
 4    1  0.2346411E-005  0.8658723E+03  0.7818608E-02  0.9469278E-01
          2   -1    0    0  501    0  0.00000000000E+00  0.00000000000E+00  0.35498893785E+04  0.35498893785E+04  0.25500000000E-02 0.  1.
         -2   -1    0    0    0  501 -0.00000000000E+00 -0.00000000000E+00 -0.52799873420E+02  0.52799873482E+02  0.25500000000E-02 0. -1.
    5000001    1    1    2    0    0  0.26428392743E+03  0.16219283149E+03  0.27326087052E+04  0.27565643190E+04  0.18800000000E+03 0.  0.
   -5000001    1    1    2    0    0 -0.26428392743E+03 -0.16219283149E+03  0.76448079990E+03  0.84612493303E+03  0.18800000000E+03 0.  0.
<mgrwt>
<rscale>  0 0.86587230E+03</rscale>
<asrwt>0</asrwt>
<pdfrwt beam="1">  1        2 0.50712694E+00 0.86587230E+03</pdfrwt>
<pdfrwt beam="2">  1       -2 0.75428408E-02 0.86587230E+03</pdfrwt>
<totfact> 0.12743071E+02</totfact>
</mgrwt>
</event>
<event>
 4    1  0.2346411E-005  0.5896130E+03  0.7818608E-02  0.9927193E-01
         -2   -1    0    0    0  501 -0.00000000000E+00  0.00000000000E+00  0.13805987217E+03  0.13805987219E+03  0.25500000000E-02 0. -1.
          2   -1    0    0  501    0  0.00000000000E+00 -0.00000000000E+00 -0.62951584039E+03  0.62951584039E+03  0.25500000000E-02 0.  1.
    5000001    1    1    2    0    0  0.21898063857E+03 -0.48820942699E+02 -0.20005487234E+03  0.35454471715E+03  0.18800000000E+03 0.  0.
   -5000001    1    1    2    0    0 -0.21898063857E+03  0.48820942699E+02 -0.29140109588E+03  0.41303099544E+03  0.18800000000E+03 0.  0.
<mgrwt>
<rscale>  0 0.58961301E+03</rscale>
<asrwt>0</asrwt>
<pdfrwt beam="1">  1        2 0.89930833E-01 0.58961301E+03</pdfrwt>
<pdfrwt beam="2">  1       -2 0.19722839E-01 0.58961301E+03</pdfrwt>
<totfact> 0.11219475E+03</totfact>
</mgrwt>
</event>
<event>
 4    1  0.2346411E-005  0.6598935E+03  0.7818608E-02  0.9788390E-01
          2   -1    0    0  501    0  0.00000000000E+00  0.00000000000E+00  0.25672975520E+04  0.25672975520E+04  0.25500000000E-02 0.  1.
         -2   -1    0    0    0  501 -0.00000000000E+00 -0.00000000000E+00 -0.42404460194E+02  0.42404460271E+02  0.25500000000E-02 0. -1.
    5000001    1    1    2    0    0 -0.15036504427E+03 -0.17130864686E+03  0.68169893461E+03  0.74297626911E+03  0.18800000000E+03 0.  0.
   -5000001    1    1    2    0    0  0.15036504427E+03  0.17130864686E+03  0.18431941572E+04  0.18667257431E+04  0.18800000000E+03 0.  0.
<mgrwt>
<rscale>  0 0.65989353E+03</rscale>
<asrwt>0</asrwt>
<pdfrwt beam="1">  1        2 0.36675695E+00 0.65989353E+03</pdfrwt>
<pdfrwt beam="2">  1       -2 0.60577774E-02 0.65989353E+03</pdfrwt>
<totfact> 0.64697655E+02</totfact>
</mgrwt>
</event>
<event>
 4    1  0.2346411E-005  0.4751928E+03  0.7818608E-02  0.1020465E+00
         -2   -1    0    0    0  501 -0.00000000000E+00  0.00000000000E+00  0.83145555096E+02  0.83145555135E+02  0.25500000000E-02 0. -1.
          2   -1    0    0  501    0  0.00000000000E+00 -0.00000000000E+00 -0.67895456863E+03  0.67895456863E+03  0.25500000000E-02 0.  1.
    5000001    1    1    2    0    0 -0.12566374012E+03  0.67672002022E+02 -0.25436047293E+03  0.34700738555E+03  0.18800000000E+03 0.  0.
   -5000001    1    1    2    0    0  0.12566374012E+03 -0.67672002022E+02 -0.34144854061E+03  0.41509273822E+03  0.18800000000E+03 0.  0.
<mgrwt>
<rscale>  0 0.47519282E+03</rscale>
<asrwt>0</asrwt>
<pdfrwt beam="1">  1        2 0.96993507E-01 0.47519282E+03</pdfrwt>
<pdfrwt beam="2">  1       -2 0.11877937E-01 0.47519282E+03</pdfrwt>
<totfact> 0.24075064E+03</totfact>
</mgrwt>
</event>
<event>
 4    1  0.2346411E-005  0.5242213E+03  0.7818608E-02  0.1007643E+00
         -2   -1    0    0    0  501 -0.00000000000E+00  0.00000000000E+00  0.19984615961E+03  0.19984615963E+03  0.25500000000E-02 0. -1.
          2   -1    0    0  501    0  0.00000000000E+00 -0.00000000000E+00 -0.34377435139E+03  0.34377435140E+03  0.25500000000E-02 0.  1.
    5000001    1    1    2    0    0  0.11167947123E+03  0.14406679824E+03 -0.83807649427E+02  0.27494593787E+03  0.18800000000E+03 0.  0.
   -5000001    1    1    2    0    0 -0.11167947123E+03 -0.14406679824E+03 -0.60120542351E+02  0.26867457316E+03  0.18800000000E+03 0.  0.
<mgrwt>
<rscale>  0 0.52422127E+03</rscale>
<asrwt>0</asrwt>
<pdfrwt beam="1">  1        2 0.49110621E-01 0.52422127E+03</pdfrwt>
<pdfrwt beam="2">  1       -2 0.28549451E-01 0.52422127E+03</pdfrwt>
<totfact> 0.11516915E+03</totfact>
</mgrwt>
</event>
<event>
 4    1  0.2346411E-005  0.1616621E+04  0.7818608E-02  0.8810401E-01
          2   -1    0    0  501    0  0.00000000000E+00  0.00000000000E+00  0.36048740520E+03  0.36048740521E+03  0.25500000000E-02 0.  1.
         -2   -1    0    0    0  501 -0.00000000000E+00 -0.00000000000E+00 -0.18124521576E+04  0.18124521576E+04  0.25500000000E-02 0. -1.
    5000001    1    1    2    0    0  0.56609131542E+03  0.53812681109E+03 -0.84607165949E+03  0.11667138018E+04  0.18800000000E+03 0.  0.
   -5000001    1    1    2    0    0 -0.56609131542E+03 -0.53812681109E+03 -0.60589309294E+03  0.10062257611E+04  0.18800000000E+03 0.  0.
<mgrwt>
<rscale>  0 0.16166214E+04</rscale>
<asrwt>0</asrwt>
<pdfrwt beam="1">  1        2 0.51498202E-01 0.16166214E+04</pdfrwt>
<pdfrwt beam="2">  1       -2 0.25892173E+00 0.16166214E+04</pdfrwt>
<totfact> 0.52870885E+00</totfact>
</mgrwt>
</event>
<event>
 4    1  0.2346411E-005  0.4942644E+03  0.7818608E-02  0.1015287E+00
          2   -1    0    0  501    0  0.00000000000E+00  0.00000000000E+00  0.70393654731E+03  0.70393654731E+03  0.25500000000E-02 0. -1.
         -2   -1    0    0    0  501 -0.00000000000E+00 -0.00000000000E+00 -0.86761137586E+02  0.86761137624E+02  0.25500000000E-02 0.  1.
    5000001    1    1    2    0    0 -0.12172201050E+02  0.12265725165E+03  0.14437103246E+03  0.26717028067E+03  0.18800000000E+03 0.  0.
   -5000001    1    1    2    0    0  0.12172201050E+02 -0.12265725165E+03  0.47280437726E+03  0.52352740427E+03  0.18800000000E+03 0.  0.
<mgrwt>
<rscale>  0 0.49426445E+03</rscale>
<asrwt>0</asrwt>
<pdfrwt beam="1">  1        2 0.10056237E+00 0.49426445E+03</pdfrwt>
<pdfrwt beam="2">  1       -2 0.12394448E-01 0.49426445E+03</pdfrwt>
<totfact> 0.21495895E+03</totfact>
</mgrwt>
</event>
<event>
 4    1  0.2346411E-005  0.5114248E+03  0.7818608E-02  0.1010839E+00
          2   -1    0    0  501    0  0.00000000000E+00  0.00000000000E+00  0.19388576985E+04  0.19388576985E+04  0.25500000000E-02 0.  1.
         -2   -1    0    0    0  501 -0.00000000000E+00 -0.00000000000E+00 -0.33725444861E+02  0.33725444958E+02  0.25500000000E-02 0. -1.
    5000001    1    1    2    0    0  0.33339241029E+02  0.13253648091E+03  0.13637957228E+04  0.13834595033E+04  0.18800000000E+03 0.  0.
   -5000001    1    1    2    0    0 -0.33339241029E+02 -0.13253648091E+03  0.54133653085E+03  0.58912364017E+03  0.18800000000E+03 0.  0.
<mgrwt>
<rscale>  0 0.51142483E+03</rscale>
<asrwt>0</asrwt>
<pdfrwt beam="1">  1        2 0.27697976E+00 0.51142483E+03</pdfrwt>
<pdfrwt beam="2">  1       -2 0.48179191E-02 0.51142483E+03</pdfrwt>
<totfact> 0.19389820E+03</totfact>
</mgrwt>
</event>
<event>
 4    1  0.2346411E-005  0.9798079E+03  0.7818608E-02  0.9330973E-01
          2   -1    0    0  501    0  0.00000000000E+00  0.00000000000E+00  0.16122577016E+04  0.16122577016E+04  0.25500000000E-02 0.  1.
         -2   -1    0    0    0  501 -0.00000000000E+00 -0.00000000000E+00 -0.14886323038E+03  0.14886323040E+03  0.25500000000E-02 0. -1.
    5000001    1    1    2    0    0 -0.24685939634E+03  0.36396950485E+03  0.54106511721E+03  0.72215567787E+03  0.18800000000E+03 0.  0.
   -5000001    1    1    2    0    0  0.24685939634E+03 -0.36396950485E+03  0.92232935406E+03  0.10389652542E+04  0.18800000000E+03 0.  0.
<mgrwt>
<rscale>  0 0.97980792E+03</rscale>
<asrwt>0</asrwt>
<pdfrwt beam="1">  1        2 0.23032252E+00 0.97980792E+03</pdfrwt>
<pdfrwt beam="2">  1       -2 0.21266176E-01 0.97980792E+03</pdfrwt>
<totfact> 0.24392006E+02</totfact>
</mgrwt>
</event>
<event>
 4    1  0.2346411E-005  0.7211687E+03  0.7818608E-02  0.9681700E-01
         -2   -1    0    0    0  501 -0.00000000000E+00  0.00000000000E+00  0.59287921516E+03  0.59287921516E+03  0.25500000000E-02 0. -1.
          2   -1    0    0  501    0  0.00000000000E+00 -0.00000000000E+00 -0.21930450942E+03  0.21930450943E+03  0.25500000000E-02 0.  1.
    5000001    1    1    2    0    0 -0.40325612644E+02 -0.23904771340E+02 -0.15569650864E+03  0.24856185534E+03  0.18800000000E+03 0.  0.
   -5000001    1    1    2    0    0  0.40325612644E+02  0.23904771340E+02  0.52927121438E+03  0.56362186925E+03  0.18800000000E+03 0.  0.
<mgrwt>
<rscale>  0 0.72116873E+03</rscale>
<asrwt>0</asrwt>
<pdfrwt beam="1">  1        2 0.31329216E-01 0.72116873E+03</pdfrwt>
<pdfrwt beam="2">  1       -2 0.84697031E-01 0.72116873E+03</pdfrwt>
<totfact> 0.20774117E+02</totfact>
</mgrwt>
</event>
<event>
 4    1  0.2346411E-005  0.4282031E+03  0.7818608E-02  0.1034429E+00
          2   -1    0    0  501    0  0.00000000000E+00  0.00000000000E+00  0.45941035404E+03  0.45941035405E+03  0.25500000000E-02 0.  1.
         -2   -1    0    0    0  501 -0.00000000000E+00 -0.00000000000E+00 -0.99778935814E+02  0.99778935847E+02  0.25500000000E-02 0. -1.
    5000001    1    1    2    0    0 -0.21650710991E+02 -0.10009829641E+03  0.17634732639E+03  0.27736402390E+03  0.18800000000E+03 0.  0.
   -5000001    1    1    2    0    0  0.21650710991E+02  0.10009829641E+03  0.18328409184E+03  0.28182526599E+03  0.18800000000E+03 0.  0.
<mgrwt>
<rscale>  0 0.42820311E+03</rscale>
<asrwt>0</asrwt>
<pdfrwt beam="1">  1        2 0.65630052E-01 0.42820311E+03</pdfrwt>
<pdfrwt beam="2">  1       -2 0.14254133E-01 0.42820311E+03</pdfrwt>
<totfact> 0.27916797E+03</totfact>
</mgrwt>
</event>
<event>
 4    1  0.2346411E-005  0.6631005E+03  0.7818608E-02  0.9782503E-01
         -2   -1    0    0    0  501 -0.00000000000E+00  0.00000000000E+00  0.36534717700E+02  0.36534717789E+02  0.25500000000E-02 0. -1.
          2   -1    0    0  501    0  0.00000000000E+00 -0.00000000000E+00 -0.30087974459E+04  0.30087974459E+04  0.25500000000E-02 0.  1.
    5000001    1    1    2    0    0  0.18714254858E+03  0.15464339291E+03 -0.91169981177E+03  0.96201739030E+03  0.18800000000E+03 0.  0.
   -5000001    1    1    2    0    0 -0.18714254858E+03 -0.15464339291E+03 -0.20605629164E+04  0.20833147734E+04  0.18800000000E+03 0.  0.
<mgrwt>
<rscale>  0 0.66310049E+03</rscale>
<asrwt>0</asrwt>
<pdfrwt beam="1">  1        2 0.42982805E+00 0.66310049E+03</pdfrwt>
<pdfrwt beam="2">  1       -2 0.52192473E-02 0.66310049E+03</pdfrwt>
<totfact> 0.47594732E+02</totfact>
</mgrwt>
</event>
<event>
 4    1  0.2346411E-005  0.5871977E+03  0.7818608E-02  0.9932329E-01
         -2   -1    0    0    0  501 -0.00000000000E+00  0.00000000000E+00  0.85440621163E+02  0.85440621201E+02  0.25500000000E-02 0. -1.
          2   -1    0    0  501    0  0.00000000000E+00 -0.00000000000E+00 -0.10088910351E+04  0.10088910351E+04  0.25500000000E-02 0.  1.
    5000001    1    1    2    0    0 -0.11841992831E+03  0.15480552147E+03 -0.67313463213E+03  0.72556340996E+03  0.18800000000E+03 0.  0.
   -5000001    1    1    2    0    0  0.11841992831E+03 -0.15480552147E+03 -0.25031578184E+03  0.36876824638E+03  0.18800000000E+03 0.  0.
<mgrwt>
<rscale>  0 0.58719767E+03</rscale>
<asrwt>0</asrwt>
<pdfrwt beam="1">  1        2 0.14412728E+00 0.58719767E+03</pdfrwt>
<pdfrwt beam="2">  1       -2 0.12205804E-01 0.58719767E+03</pdfrwt>
<totfact> 0.13785747E+03</totfact>
</mgrwt>
</event>
<event>
 4    1  0.2346411E-005  0.4863625E+03  0.7818608E-02  0.1017401E+00
         -2   -1    0    0    0  501 -0.00000000000E+00  0.00000000000E+00  0.32296847549E+02  0.32296847650E+02  0.25500000000E-02 0. -1.
          2   -1    0    0  501    0  0.00000000000E+00 -0.00000000000E+00 -0.18310491213E+04  0.18310491213E+04  0.25500000000E-02 0.  1.
    5000001    1    1    2    0    0  0.13877202601E+03  0.42911347132E+02 -0.10982312249E+04  0.11236346747E+04  0.18800000000E+03 0.  0.
   -5000001    1    1    2    0    0 -0.13877202601E+03 -0.42911347132E+02 -0.70052104887E+03  0.73971129424E+03  0.18800000000E+03 0.  0.
<mgrwt>
<rscale>  0 0.48636248E+03</rscale>
<asrwt>0</asrwt>
<pdfrwt beam="1">  1        2 0.26157838E+00 0.48636248E+03</pdfrwt>
<pdfrwt beam="2">  1       -2 0.46138365E-02 0.48636248E+03</pdfrwt>
<totfact> 0.23486703E+03</totfact>
</mgrwt>
</event>
<event>
 4    1  0.2346411E-005  0.5143646E+03  0.7818608E-02  0.1010096E+00
         -2   -1    0    0    0  501 -0.00000000000E+00  0.00000000000E+00  0.31429908441E+03  0.31429908442E+03  0.25500000000E-02 0. -1.
          2   -1    0    0  501    0  0.00000000000E+00 -0.00000000000E+00 -0.21044519772E+03  0.21044519773E+03  0.25500000000E-02 0.  1.
    5000001    1    1    2    0    0  0.11261478609E+03  0.11831967773E+03 -0.13532482201E+02  0.24941684838E+03  0.18800000000E+03 0.  0.
   -5000001    1    1    2    0    0 -0.11261478609E+03 -0.11831967773E+03  0.11738636890E+03  0.27532743377E+03  0.18800000000E+03 0.  0.
<mgrwt>
<rscale>  0 0.51436459E+03</rscale>
<asrwt>0</asrwt>
<pdfrwt beam="1">  1        2 0.30063599E-01 0.51436459E+03</pdfrwt>
<pdfrwt beam="2">  1       -2 0.44899870E-01 0.51436459E+03</pdfrwt>
<totfact> 0.83829351E+02</totfact>
</mgrwt>
</event>
<event>
 4    1  0.2346411E-005  0.6053439E+03  0.7818608E-02  0.9894381E-01
         -2   -1    0    0    0  501 -0.00000000000E+00  0.00000000000E+00  0.27768416099E+03  0.27768416100E+03  0.25500000000E-02 0. -1.
          2   -1    0    0  501    0  0.00000000000E+00 -0.00000000000E+00 -0.32990832773E+03  0.32990832774E+03  0.25500000000E-02 0.  1.
    5000001    1    1    2    0    0  0.45679415175E+02 -0.23270903445E+03 -0.20973152009E+02  0.30335453975E+03  0.18800000000E+03 0.  0.
   -5000001    1    1    2    0    0 -0.45679415175E+02  0.23270903445E+03 -0.31251014736E+02  0.30423794899E+03  0.18800000000E+03 0.  0.
<mgrwt>
<rscale>  0 0.60534393E+03</rscale>
<asrwt>0</asrwt>
<pdfrwt beam="1">  1        2 0.47129761E-01 0.60534393E+03</pdfrwt>
<pdfrwt beam="2">  1       -2 0.39669166E-01 0.60534393E+03</pdfrwt>
<totfact> 0.64869142E+02</totfact>
</mgrwt>
</event>
<event>
 4    1  0.2346411E-005  0.5301442E+03  0.7818608E-02  0.1006197E+00
          2   -1    0    0  501    0  0.00000000000E+00  0.00000000000E+00  0.32215229880E+03  0.32215229881E+03  0.25500000000E-02 0.  1.
         -2   -1    0    0    0  501 -0.00000000000E+00 -0.00000000000E+00 -0.21810556569E+03  0.21810556570E+03  0.25500000000E-02 0. -1.
    5000001    1    1    2    0    0 -0.22065327479E+02 -0.11437707962E+03 -0.96881273217E+02  0.24145180911E+03  0.18800000000E+03 0.  0.
   -5000001    1    1    2    0    0  0.22065327479E+02  0.11437707962E+03  0.20092800633E+03  0.29880605541E+03  0.18800000000E+03 0.  0.
<mgrwt>
<rscale>  0 0.53014417E+03</rscale>
<asrwt>0</asrwt>
<pdfrwt beam="1">  1        2 0.46021757E-01 0.53014417E+03</pdfrwt>
<pdfrwt beam="2">  1       -2 0.31157938E-01 0.53014417E+03</pdfrwt>
<totfact> 0.10530922E+03</totfact>
</mgrwt>
</event>
<event>
 4    1  0.2346411E-005  0.7470518E+03  0.7818608E-02  0.9639987E-01
         -2   -1    0    0    0  501 -0.00000000000E+00  0.00000000000E+00  0.38545628798E+02  0.38545628883E+02  0.25500000000E-02 0. -1.
          2   -1    0    0  501    0  0.00000000000E+00 -0.00000000000E+00 -0.36196479766E+04  0.36196479766E+04  0.25500000000E-02 0.  1.
    5000001    1    1    2    0    0 -0.16995766440E+03 -0.26213623186E+03 -0.13934359587E+04  0.14403502292E+04  0.18800000000E+03 0.  0.
   -5000001    1    1    2    0    0  0.16995766440E+03  0.26213623186E+03 -0.21876663891E+04  0.22178433762E+04  0.18800000000E+03 0.  0.
<mgrwt>
<rscale>  0 0.74705183E+03</rscale>
<asrwt>0</asrwt>
<pdfrwt beam="1">  1        2 0.51709235E+00 0.74705183E+03</pdfrwt>
<pdfrwt beam="2">  1       -2 0.55065207E-02 0.74705183E+03</pdfrwt>
<totfact> 0.19270219E+02</totfact>
</mgrwt>
</event>
<event>
 4    1  0.2346411E-005  0.7632044E+03  0.7818608E-02  0.9614860E-01
          2   -1    0    0  501    0  0.00000000000E+00  0.00000000000E+00  0.85570265495E+03  0.85570265495E+03  0.25500000000E-02 0.  1.
         -2   -1    0    0    0  501 -0.00000000000E+00 -0.00000000000E+00 -0.17017620384E+03  0.17017620386E+03  0.25500000000E-02 0. -1.
    5000001    1    1    2    0    0  0.28096105489E+03  0.17366958625E+03  0.29666788542E+03  0.48213698654E+03  0.18800000000E+03 0.  0.
   -5000001    1    1    2    0    0 -0.28096105489E+03 -0.17366958625E+03  0.38885856569E+03  0.54374187227E+03  0.18800000000E+03 0.  0.
<mgrwt>
<rscale>  0 0.76320437E+03</rscale>
<asrwt>0</asrwt>
<pdfrwt beam="1">  1        2 0.12224324E+00 0.76320437E+03</pdfrwt>
<pdfrwt beam="2">  1       -2 0.24310886E-01 0.76320437E+03</pdfrwt>
<totfact> 0.52621854E+02</totfact>
</mgrwt>
</event>
<event>
 4    1  0.2346411E-005  0.5120260E+03  0.7818608E-02  0.1010687E+00
          2   -1    0    0  501    0  0.00000000000E+00  0.00000000000E+00  0.23110622602E+04  0.23110622602E+04  0.25500000000E-02 0.  1.
         -2   -1    0    0    0  501 -0.00000000000E+00 -0.00000000000E+00 -0.28360399893E+02  0.28360400007E+02  0.25500000000E-02 0. -1.
    5000001    1    1    2    0    0  0.49205965499E+02 -0.15737370036E+03  0.89064312757E+03  0.92508209868E+03  0.18800000000E+03 0.  0.
   -5000001    1    1    2    0    0 -0.49205965499E+02  0.15737370036E+03  0.13920587328E+04  0.14143405616E+04  0.18800000000E+03 0.  0.
<mgrwt>
<rscale>  0 0.51202598E+03</rscale>
<asrwt>0</asrwt>
<pdfrwt beam="1">  1        2 0.33015175E+00 0.51202598E+03</pdfrwt>
<pdfrwt beam="2">  1       -2 0.40514857E-02 0.51202598E+03</pdfrwt>
<totfact> 0.16479160E+03</totfact>
</mgrwt>
</event>
<event>
 4    1  0.2346411E-005  0.7499302E+03  0.7818608E-02  0.9635460E-01
          2   -1    0    0  501    0  0.00000000000E+00  0.00000000000E+00  0.23748801698E+03  0.23748801700E+03  0.25500000000E-02 0.  1.
         -2   -1    0    0    0  501 -0.00000000000E+00 -0.00000000000E+00 -0.59202500180E+03  0.59202500181E+03  0.25500000000E-02 0. -1.
    5000001    1    1    2    0    0  0.21903376139E+03  0.13249560196E+03 -0.39772791306E+03  0.50898169514E+03  0.18800000000E+03 0.  0.
   -5000001    1    1    2    0    0 -0.21903376139E+03 -0.13249560196E+03  0.43190928236E+02  0.32053132366E+03  0.18800000000E+03 0.  0.
<mgrwt>
<rscale>  0 0.74993025E+03</rscale>
<asrwt>0</asrwt>
<pdfrwt beam="1">  1        2 0.33926860E-01 0.74993025E+03</pdfrwt>
<pdfrwt beam="2">  1       -2 0.84574999E-01 0.74993025E+03</pdfrwt>
<totfact> 0.19040684E+02</totfact>
</mgrwt>
</event>
<event>
 4    1  0.2346411E-005  0.6765802E+03  0.7818608E-02  0.9758143E-01
          2   -1    0    0  501    0  0.00000000000E+00  0.00000000000E+00  0.82786256910E+03  0.82786256911E+03  0.25500000000E-02 0.  1.
         -2   -1    0    0    0  501 -0.00000000000E+00 -0.00000000000E+00 -0.13823574730E+03  0.13823574733E+03  0.25500000000E-02 0. -1.
    5000001    1    1    2    0    0 -0.16562423019E+03 -0.21170339573E+03  0.22666281007E+03  0.39871009876E+03  0.18800000000E+03 0.  0.
   -5000001    1    1    2    0    0  0.16562423019E+03  0.21170339573E+03  0.46296401173E+03  0.56738821767E+03  0.18800000000E+03 0.  0.
<mgrwt>
<rscale>  0 0.67658023E+03</rscale>
<asrwt>0</asrwt>
<pdfrwt beam="1">  1        2 0.11826608E+00 0.67658023E+03</pdfrwt>
<pdfrwt beam="2">  1       -2 0.19747964E-01 0.67658023E+03</pdfrwt>
<totfact> 0.79586052E+02</totfact>
</mgrwt>
</event>
<event>
 4    1  0.2346411E-005  0.6154953E+03  0.7818608E-02  0.9873770E-01
         -2   -1    0    0    0  501 -0.00000000000E+00  0.00000000000E+00  0.24319202970E+03  0.24319202971E+03  0.25500000000E-02 0. -1.
          2   -1    0    0  501    0  0.00000000000E+00 -0.00000000000E+00 -0.38943966786E+03  0.38943966787E+03  0.25500000000E-02 0.  1.
    5000001    1    1    2    0    0  0.14893081164E+03  0.16482203940E+03  0.29752455604E+02  0.29253358772E+03  0.18800000000E+03 0.  0.
   -5000001    1    1    2    0    0 -0.14893081164E+03 -0.16482203940E+03 -0.17600009377E+03  0.34009810986E+03  0.18800000000E+03 0.  0.
<mgrwt>
<rscale>  0 0.61549532E+03</rscale>
<asrwt>0</asrwt>
<pdfrwt beam="1">  1        2 0.55634238E-01 0.61549532E+03</pdfrwt>
<pdfrwt beam="2">  1       -2 0.34741719E-01 0.61549532E+03</pdfrwt>
<totfact> 0.69590042E+02</totfact>
</mgrwt>
</event>
<event>
 4    1  0.2346411E-005  0.6067472E+03  0.7818608E-02  0.9891506E-01
         -2   -1    0    0    0  501 -0.00000000000E+00  0.00000000000E+00  0.26406645436E+03  0.26406645437E+03  0.25500000000E-02 0. -1.
          2   -1    0    0  501    0  0.00000000000E+00 -0.00000000000E+00 -0.34853173028E+03  0.34853173029E+03  0.25500000000E-02 0.  1.
    5000001    1    1    2    0    0  0.14924748564E+03 -0.18295465938E+03 -0.73258743896E+02  0.31057698388E+03  0.18800000000E+03 0.  0.
   -5000001    1    1    2    0    0 -0.14924748564E+03  0.18295465938E+03 -0.11206532023E+02  0.30202120078E+03  0.18800000000E+03 0.  0.
<mgrwt>
<rscale>  0 0.60674719E+03</rscale>
<asrwt>0</asrwt>
<pdfrwt beam="1">  1        2 0.49790247E-01 0.60674719E+03</pdfrwt>
<pdfrwt beam="2">  1       -2 0.37723779E-01 0.60674719E+03</pdfrwt>
<totfact> 0.67269208E+02</totfact>
</mgrwt>
</event>
<event>
 4    1  0.2346411E-005  0.7319437E+03  0.7818608E-02  0.9664111E-01
         -2   -1    0    0    0  501 -0.00000000000E+00  0.00000000000E+00  0.13636505156E+03  0.13636505159E+03  0.25500000000E-02 0. -1.
          2   -1    0    0  501    0  0.00000000000E+00 -0.00000000000E+00 -0.98218282841E+03  0.98218282842E+03  0.25500000000E-02 0.  1.
    5000001    1    1    2    0    0 -0.30249435523E+03 -0.50813746581E+02 -0.32032043030E+03  0.48169912794E+03  0.18800000000E+03 0.  0.
   -5000001    1    1    2    0    0  0.30249435523E+03  0.50813746581E+02 -0.52549734655E+03  0.63684875207E+03  0.18800000000E+03 0.  0.
<mgrwt>
<rscale>  0 0.73194375E+03</rscale>
<asrwt>0</asrwt>
<pdfrwt beam="1">  1        2 0.14031183E+00 0.73194375E+03</pdfrwt>
<pdfrwt beam="2">  1       -2 0.19480722E-01 0.73194375E+03</pdfrwt>
<totfact> 0.64623643E+02</totfact>
</mgrwt>
</event>
<event>
 4    1  0.2346411E-005  0.5296717E+03  0.7818608E-02  0.1006312E+00
          2   -1    0    0  501    0  0.00000000000E+00  0.00000000000E+00  0.41485114345E+03  0.41485114346E+03  0.25500000000E-02 0.  1.
         -2   -1    0    0    0  501 -0.00000000000E+00 -0.00000000000E+00 -0.16906794743E+03  0.16906794745E+03  0.25500000000E-02 0. -1.
    5000001    1    1    2    0    0  0.24905631048E+02 -0.15303766109E+03  0.85734814528E+01  0.24384076926E+03  0.18800000000E+03 0.  0.
   -5000001    1    1    2    0    0 -0.24905631048E+02  0.15303766109E+03  0.23720971457E+03  0.34007832165E+03  0.18800000000E+03 0.  0.
<mgrwt>
<rscale>  0 0.52967171E+03</rscale>
<asrwt>0</asrwt>
<pdfrwt beam="1">  1        2 0.59264449E-01 0.52967171E+03</pdfrwt>
<pdfrwt beam="2">  1       -2 0.24152564E-01 0.52967171E+03</pdfrwt>
<totfact> 0.12653963E+03</totfact>
</mgrwt>
</event>
<event>
 4    1  0.2346411E-005  0.6467042E+03  0.7818608E-02  0.9812983E-01
         -2   -1    0    0    0  501 -0.00000000000E+00  0.00000000000E+00  0.75418065944E+03  0.75418065944E+03  0.25500000000E-02 0. -1.
          2   -1    0    0  501    0  0.00000000000E+00 -0.00000000000E+00 -0.13863597630E+03  0.13863597633E+03  0.25500000000E-02 0.  1.
    5000001    1    1    2    0    0 -0.13213898978E+03  0.22289254400E+03  0.24494873230E+03  0.40309512555E+03  0.18800000000E+03 0.  0.
   -5000001    1    1    2    0    0  0.13213898978E+03 -0.22289254400E+03  0.37059595084E+03  0.48972151022E+03  0.18800000000E+03 0.  0.
<mgrwt>
<rscale>  0 0.64670417E+03</rscale>
<asrwt>0</asrwt>
<pdfrwt beam="1">  1        2 0.19805139E-01 0.64670417E+03</pdfrwt>
<pdfrwt beam="2">  1       -2 0.10774009E+00 0.64670417E+03</pdfrwt>
<totfact> 0.20088094E+02</totfact>
</mgrwt>
</event>
<event>
 4    1  0.2346411E-005  0.8128751E+03  0.7818608E-02  0.9541566E-01
          2   -1    0    0  501    0  0.00000000000E+00  0.00000000000E+00  0.26757070533E+04  0.26757070533E+04  0.25500000000E-02 0.  1.
         -2   -1    0    0    0  501 -0.00000000000E+00 -0.00000000000E+00 -0.61737513755E+02  0.61737513808E+02  0.25500000000E-02 0. -1.
    5000001    1    1    2    0    0 -0.44794625408E+02 -0.24670893942E+03  0.43545960799E+03  0.53650808889E+03  0.18800000000E+03 0.  0.
   -5000001    1    1    2    0    0  0.44794625408E+02  0.24670893942E+03  0.21785099316E+04  0.22009364783E+04  0.18800000000E+03 0.  0.
<mgrwt>
<rscale>  0 0.81287515E+03</rscale>
<asrwt>0</asrwt>
<pdfrwt beam="1">  1        2 0.38224393E+00 0.81287515E+03</pdfrwt>
<pdfrwt beam="2">  1       -2 0.88196433E-02 0.81287515E+03</pdfrwt>
<totfact> 0.30845755E+02</totfact>
</mgrwt>
</event>
<event>
 4    1  0.2346411E-005  0.5454113E+03  0.7818608E-02  0.1002562E+00
         -2   -1    0    0    0  501 -0.00000000000E+00  0.00000000000E+00  0.57468868833E+02  0.57468868890E+02  0.25500000000E-02 0. -1.
          2   -1    0    0  501    0  0.00000000000E+00 -0.00000000000E+00 -0.12940635918E+04  0.12940635918E+04  0.25500000000E-02 0.  1.
    5000001    1    1    2    0    0  0.17845092346E+03  0.67360110952E+02 -0.74567396139E+03  0.79231040213E+03  0.18800000000E+03 0.  0.
   -5000001    1    1    2    0    0 -0.17845092346E+03 -0.67360110952E+02 -0.49092076154E+03  0.55922205853E+03  0.18800000000E+03 0.  0.
<mgrwt>
<rscale>  0 0.54541130E+03</rscale>
<asrwt>0</asrwt>
<pdfrwt beam="1">  1        2 0.18486621E+00 0.54541130E+03</pdfrwt>
<pdfrwt beam="2">  1       -2 0.82098392E-02 0.54541130E+03</pdfrwt>
<totfact> 0.18028402E+03</totfact>
</mgrwt>
</event>
<event>
 4    1  0.2346411E-005  0.5081871E+03  0.7818608E-02  0.1011664E+00
          2   -1    0    0  501    0  0.00000000000E+00  0.00000000000E+00  0.60812742006E+03  0.60812742006E+03  0.25500000000E-02 0.  1.
         -2   -1    0    0    0  501 -0.00000000000E+00 -0.00000000000E+00 -0.10616778903E+03  0.10616778906E+03  0.25500000000E-02 0. -1.
    5000001    1    1    2    0    0 -0.13627845105E+03  0.53638263067E+02  0.12707644175E+03  0.27007647349E+03  0.18800000000E+03 0.  0.
   -5000001    1    1    2    0    0  0.13627845105E+03 -0.53638263067E+02  0.37488318928E+03  0.44421873564E+03  0.18800000000E+03 0.  0.
<mgrwt>
<rscale>  0 0.50818715E+03</rscale>
<asrwt>0</asrwt>
<pdfrwt beam="1">  1        2 0.86875345E-01 0.50818715E+03</pdfrwt>
<pdfrwt beam="2">  1       -2 0.15166827E-01 0.50818715E+03</pdfrwt>
<totfact> 0.18307040E+03</totfact>
</mgrwt>
</event>
<event>
 4    1  0.2346411E-005  0.4490417E+03  0.7818608E-02  0.1028008E+00
          2   -1    0    0  501    0  0.00000000000E+00  0.00000000000E+00  0.56030309587E+03  0.56030309587E+03  0.25500000000E-02 0.  1.
         -2   -1    0    0    0  501 -0.00000000000E+00 -0.00000000000E+00 -0.89968449668E+02  0.89968449704E+02  0.25500000000E-02 0. -1.
    5000001    1    1    2    0    0 -0.73949634363E+02  0.46360950549E+02  0.11019333115E+03  0.23474338412E+03  0.18800000000E+03 0.  0.
   -5000001    1    1    2    0    0  0.73949634363E+02 -0.46360950549E+02  0.36014131505E+03  0.41552816146E+03  0.18800000000E+03 0.  0.
<mgrwt>
<rscale>  0 0.44904165E+03</rscale>
<asrwt>0</asrwt>
<pdfrwt beam="1">  1        2 0.80043301E-01 0.44904165E+03</pdfrwt>
<pdfrwt beam="2">  1       -2 0.12852635E-01 0.44904165E+03</pdfrwt>
<totfact> 0.26490301E+03</totfact>
</mgrwt>
</event>
<event>
 4    1  0.2346411E-005  0.7573563E+03  0.7818608E-02  0.9623880E-01
         -2   -1    0    0    0  501 -0.00000000000E+00  0.00000000000E+00  0.80367610161E+02  0.80367610201E+02  0.25500000000E-02 0. -1.
          2   -1    0    0  501    0  0.00000000000E+00 -0.00000000000E+00 -0.17842654172E+04  0.17842654172E+04  0.25500000000E-02 0.  1.
    5000001    1    1    2    0    0  0.30399960666E+03  0.10068629494E+03 -0.10345321437E+04  0.10991607012E+04  0.18800000000E+03 0.  0.
   -5000001    1    1    2    0    0 -0.30399960666E+03 -0.10068629494E+03 -0.66936566337E+03  0.76547232617E+03  0.18800000000E+03 0.  0.
<mgrwt>
<rscale>  0 0.75735632E+03</rscale>
<asrwt>0</asrwt>
<pdfrwt beam="1">  1        2 0.25489503E+00 0.75735632E+03</pdfrwt>
<pdfrwt beam="2">  1       -2 0.11481088E-01 0.75735632E+03</pdfrwt>
<totfact> 0.57605395E+02</totfact>
</mgrwt>
</event>
<event>
 4    1  0.2346411E-005  0.5098680E+03  0.7818608E-02  0.1011235E+00
         -2   -1    0    0    0  501 -0.00000000000E+00  0.00000000000E+00  0.37009187485E+02  0.37009187573E+02  0.25500000000E-02 0. -1.
          2   -1    0    0  501    0  0.00000000000E+00 -0.00000000000E+00 -0.17560868316E+04  0.17560868316E+04  0.25500000000E-02 0.  1.
    5000001    1    1    2    0    0  0.10527606013E+03 -0.12884304324E+03 -0.10153831134E+04  0.10459591032E+04  0.18800000000E+03 0.  0.
   -5000001    1    1    2    0    0 -0.10527606013E+03  0.12884304324E+03 -0.70369453075E+03  0.74713691599E+03  0.18800000000E+03 0.  0.
<mgrwt>
<rscale>  0 0.50986801E+03</rscale>
<asrwt>0</asrwt>
<pdfrwt beam="1">  1        2 0.25086949E+00 0.50986801E+03</pdfrwt>
<pdfrwt beam="2">  1       -2 0.52870279E-02 0.50986801E+03</pdfrwt>
<totfact> 0.20739435E+03</totfact>
</mgrwt>
</event>
<event>
 4    1  0.2346411E-005  0.5156153E+03  0.7818608E-02  0.1009782E+00
         -2   -1    0    0    0  501 -0.00000000000E+00  0.00000000000E+00  0.10316680245E+03  0.10316680248E+03  0.25500000000E-02 0. -1.
          2   -1    0    0  501    0  0.00000000000E+00 -0.00000000000E+00 -0.64424595159E+03  0.64424595160E+03  0.25500000000E-02 0.  1.
    5000001    1    1    2    0    0 -0.13867687600E+03 -0.53385688719E+02 -0.40835777351E+03  0.47347796029E+03  0.18800000000E+03 0.  0.
   -5000001    1    1    2    0    0  0.13867687600E+03  0.53385688719E+02 -0.13272137563E+03  0.27393479378E+03  0.18800000000E+03 0.  0.
<mgrwt>
<rscale>  0 0.51561534E+03</rscale>
<asrwt>0</asrwt>
<pdfrwt beam="1">  1        2 0.92035134E-01 0.51561534E+03</pdfrwt>
<pdfrwt beam="2">  1       -2 0.14738115E-01 0.51561534E+03</pdfrwt>
<totfact> 0.17943345E+03</totfact>
</mgrwt>
</event>
<event>
 4    1  0.2346411E-005  0.4910282E+03  0.7818608E-02  0.1016148E+00
          2   -1    0    0  501    0  0.00000000000E+00  0.00000000000E+00  0.10945152918E+04  0.10945152918E+04  0.25500000000E-02 0.  1.
         -2   -1    0    0    0  501 -0.00000000000E+00 -0.00000000000E+00 -0.55072023782E+02  0.55072023841E+02  0.25500000000E-02 0. -1.
    5000001    1    1    2    0    0  0.82834053368E+02  0.75068320989E+02  0.25863565208E+03  0.33872279778E+03  0.18800000000E+03 0.  0.
   -5000001    1    1    2    0    0 -0.82834053368E+02 -0.75068320989E+02  0.78080761596E+03  0.81086451788E+03  0.18800000000E+03 0.  0.
<mgrwt>
<rscale>  0 0.49102820E+03</rscale>
<asrwt>0</asrwt>
<pdfrwt beam="1">  1        2 0.15635932E+00 0.49102820E+03</pdfrwt>
<pdfrwt beam="2">  1       -2 0.78674321E-02 0.49102820E+03</pdfrwt>
<totfact> 0.24959895E+03</totfact>
</mgrwt>
</event>
<event>
 4    1  0.2346411E-005  0.6674673E+03  0.7818608E-02  0.9774544E-01
          2   -1    0    0  501    0  0.00000000000E+00  0.00000000000E+00  0.46523433362E+03  0.46523433363E+03  0.25500000000E-02 0.  1.
         -2   -1    0    0    0  501 -0.00000000000E+00 -0.00000000000E+00 -0.23940224546E+03  0.23940224547E+03  0.25500000000E-02 0. -1.
    5000001    1    1    2    0    0 -0.26893451279E+03  0.59885162644E+02  0.10124894591E+03  0.34857904975E+03  0.18800000000E+03 0.  0.
   -5000001    1    1    2    0    0  0.26893451279E+03 -0.59885162644E+02  0.12458314225E+03  0.35605752935E+03  0.18800000000E+03 0.  0.
<mgrwt>
<rscale>  0 0.66746729E+03</rscale>
<asrwt>0</asrwt>
<pdfrwt beam="1">  1        2 0.66462047E-01 0.66746729E+03</pdfrwt>
<pdfrwt beam="2">  1       -2 0.34200321E-01 0.66746729E+03</pdfrwt>
<totfact> 0.58691404E+02</totfact>
</mgrwt>
</event>
<event>
 4    1  0.2346411E-005  0.1525081E+04  0.7818608E-02  0.8867944E-01
          2   -1    0    0  501    0  0.00000000000E+00  0.00000000000E+00  0.27151169691E+04  0.27151169691E+04  0.25500000000E-02 0.  1.
         -2   -1    0    0    0  501 -0.00000000000E+00 -0.00000000000E+00 -0.21415941128E+03  0.21415941130E+03  0.25500000000E-02 0. -1.
    5000001    1    1    2    0    0  0.19350853080E+02 -0.73849546865E+03  0.12133415258E+04  0.14329311466E+04  0.18800000000E+03 0.  0.
   -5000001    1    1    2    0    0 -0.19350853080E+02  0.73849546865E+03  0.12876160320E+04  0.14963452338E+04  0.18800000000E+03 0.  0.
<mgrwt>
<rscale>  0 0.15250808E+04</rscale>
<asrwt>0</asrwt>
<pdfrwt beam="1">  1        2 0.38787383E+00 0.15250808E+04</pdfrwt>
<pdfrwt beam="2">  1       -2 0.30594203E-01 0.15250808E+04</pdfrwt>
<totfact> 0.32388823E+01</totfact>
</mgrwt>
</event>
<event>
 4    1  0.2346411E-005  0.5142537E+03  0.7818608E-02  0.1010124E+00
         -2   -1    0    0    0  501 -0.00000000000E+00  0.00000000000E+00  0.10834285148E+04  0.10834285148E+04  0.25500000000E-02 0. -1.
          2   -1    0    0  501    0  0.00000000000E+00 -0.00000000000E+00 -0.61023157175E+02  0.61023157229E+02  0.25500000000E-02 0.  1.
    5000001    1    1    2    0    0  0.16395607761E+03  0.33962053025E+02  0.62759263458E+03  0.67620376471E+03  0.18800000000E+03 0.  0.
   -5000001    1    1    2    0    0 -0.16395607761E+03 -0.33962053025E+02  0.39481272302E+03  0.46824790730E+03  0.18800000000E+03 0.  0.
<mgrwt>
<rscale>  0 0.51425375E+03</rscale>
<asrwt>0</asrwt>
<pdfrwt beam="1">  1        2 0.87175933E-02 0.51425375E+03</pdfrwt>
<pdfrwt beam="2">  1       -2 0.15477551E+00 0.51425375E+03</pdfrwt>
<totfact> 0.22232968E+02</totfact>
</mgrwt>
</event>
<event>
 4    1  0.2346411E-005  0.4072910E+03  0.7818608E-02  0.1041284E+00
          2   -1    0    0  501    0  0.00000000000E+00  0.00000000000E+00  0.97886754048E+03  0.97886754048E+03  0.25500000000E-02 0.  1.
         -2   -1    0    0    0  501 -0.00000000000E+00 -0.00000000000E+00 -0.42366804830E+02  0.42366804907E+02  0.25500000000E-02 0. -1.
    5000001    1    1    2    0    0  0.12415636398E+02  0.77186053327E+02  0.45832948583E+03  0.50151944373E+03  0.18800000000E+03 0.  0.
   -5000001    1    1    2    0    0 -0.12415636398E+02 -0.77186053327E+02  0.47817124982E+03  0.51971490166E+03  0.18800000000E+03 0.  0.
<mgrwt>
<rscale>  0 0.40729100E+03</rscale>
<asrwt>0</asrwt>
<pdfrwt beam="1">  1        2 0.13983821E+00 0.40729100E+03</pdfrwt>
<pdfrwt beam="2">  1       -2 0.60524013E-02 0.40729100E+03</pdfrwt>
<totfact> 0.44044065E+03</totfact>
</mgrwt>
</event>
<event>
 4    1  0.2346411E-005  0.5585105E+03  0.7818608E-02  0.9995431E-01
         -2   -1    0    0    0  501 -0.00000000000E+00  0.00000000000E+00  0.59259874510E+02  0.59259874565E+02  0.25500000000E-02 0. -1.
          2   -1    0    0  501    0  0.00000000000E+00 -0.00000000000E+00 -0.13159577801E+04  0.13159577801E+04  0.25500000000E-02 0.  1.
    5000001    1    1    2    0    0 -0.10376590207E+03  0.12234371566E+03 -0.30821132987E+03  0.39506147756E+03  0.18800000000E+03 0.  0.
   -5000001    1    1    2    0    0  0.10376590207E+03 -0.12234371566E+03 -0.94848657569E+03  0.98015617707E+03  0.18800000000E+03 0.  0.
<mgrwt>
<rscale>  0 0.55851049E+03</rscale>
<asrwt>0</asrwt>
<pdfrwt beam="1">  1        2 0.18799395E+00 0.55851049E+03</pdfrwt>
<pdfrwt beam="2">  1       -2 0.84656972E-02 0.55851049E+03</pdfrwt>
<totfact> 0.16699753E+03</totfact>
</mgrwt>
</event>
<event>
 4    1  0.2346411E-005  0.8347863E+03  0.7818608E-02  0.9510987E-01
         -2   -1    0    0    0  501 -0.00000000000E+00  0.00000000000E+00  0.19628663077E+03  0.19628663079E+03  0.25500000000E-02 0. -1.
          2   -1    0    0  501    0  0.00000000000E+00 -0.00000000000E+00 -0.88756450856E+03  0.88756450856E+03  0.25500000000E-02 0.  1.
    5000001    1    1    2    0    0  0.15267029959E+03  0.33496621644E+03 -0.42092644495E+03  0.58994377579E+03  0.18800000000E+03 0.  0.
   -5000001    1    1    2    0    0 -0.15267029959E+03 -0.33496621644E+03 -0.27035143284E+03  0.49390736356E+03  0.18800000000E+03 0.  0.
<mgrwt>
<rscale>  0 0.83478631E+03</rscale>
<asrwt>0</asrwt>
<pdfrwt beam="1">  1        2 0.12679493E+00 0.83478631E+03</pdfrwt>
<pdfrwt beam="2">  1       -2 0.28040948E-01 0.83478631E+03</pdfrwt>
<totfact> 0.38570035E+02</totfact>
</mgrwt>
</event>
<event>
 4    1  0.2346411E-005  0.7300649E+03  0.7818608E-02  0.9667155E-01
         -2   -1    0    0    0  501 -0.00000000000E+00  0.00000000000E+00  0.79224446331E+02  0.79224446372E+02  0.25500000000E-02 0. -1.
          2   -1    0    0  501    0  0.00000000000E+00 -0.00000000000E+00 -0.16819138610E+04  0.16819138610E+04  0.25500000000E-02 0.  1.
    5000001    1    1    2    0    0  0.12594398606E+02 -0.27764112712E+03 -0.11480916987E+04  0.11961194602E+04  0.18800000000E+03 0.  0.
   -5000001    1    1    2    0    0 -0.12594398606E+02  0.27764112712E+03 -0.45459771597E+03  0.56501884721E+03  0.18800000000E+03 0.  0.
<mgrwt>
<rscale>  0 0.73006491E+03</rscale>
<asrwt>0</asrwt>
<pdfrwt beam="1">  1        2 0.24027339E+00 0.73006491E+03</pdfrwt>
<pdfrwt beam="2">  1       -2 0.11317779E-01 0.73006491E+03</pdfrwt>
<totfact> 0.66628244E+02</totfact>
</mgrwt>
</event>
<event>
 4    1  0.2346411E-005  0.5462689E+03  0.7818608E-02  0.1002361E+00
         -2   -1    0    0    0  501 -0.00000000000E+00  0.00000000000E+00  0.54608718978E+02  0.54608719038E+02  0.25500000000E-02 0. -1.
          2   -1    0    0  501    0  0.00000000000E+00 -0.00000000000E+00 -0.13661267349E+04  0.13661267349E+04  0.25500000000E-02 0.  1.
    5000001    1    1    2    0    0 -0.14565882693E+03  0.95144373720E+02 -0.40916975455E+03  0.48273474471E+03  0.18800000000E+03 0.  0.
   -5000001    1    1    2    0    0  0.14565882693E+03 -0.95144373720E+02 -0.90234826133E+03  0.93800070919E+03  0.18800000000E+03 0.  0.
<mgrwt>
<rscale>  0 0.54626891E+03</rscale>
<asrwt>0</asrwt>
<pdfrwt beam="1">  1        2 0.19516094E+00 0.54626891E+03</pdfrwt>
<pdfrwt beam="2">  1       -2 0.78012464E-02 0.54626891E+03</pdfrwt>
<totfact> 0.17883574E+03</totfact>
</mgrwt>
</event>
<event>
 4    1  0.2346411E-005  0.4026166E+03  0.7818608E-02  0.1042877E+00
          2   -1    0    0  501    0  0.00000000000E+00  0.00000000000E+00  0.62595274589E+03  0.62595274590E+03  0.25500000000E-02 0.  1.
         -2   -1    0    0    0  501 -0.00000000000E+00 -0.00000000000E+00 -0.64741373873E+02  0.64741373923E+02  0.25500000000E-02 0. -1.
    5000001    1    1    2    0    0 -0.67910930716E+02 -0.22983639245E+02  0.29157673532E+03  0.35426139328E+03  0.18800000000E+03 0.  0.
   -5000001    1    1    2    0    0  0.67910930716E+02  0.22983639245E+02  0.26963463669E+03  0.33643272654E+03  0.18800000000E+03 0.  0.
<mgrwt>
<rscale>  0 0.40261665E+03</rscale>
<asrwt>0</asrwt>
<pdfrwt beam="1">  1        2 0.89421822E-01 0.40261665E+03</pdfrwt>
<pdfrwt beam="2">  1       -2 0.92487676E-02 0.40261665E+03</pdfrwt>
<totfact> 0.39640391E+03</totfact>
</mgrwt>
</event>
<event>
 4    1  0.2346411E-005  0.8896047E+03  0.7818608E-02  0.9438670E-01
          2   -1    0    0  501    0  0.00000000000E+00  0.00000000000E+00  0.19212191975E+03  0.19212191977E+03  0.25500000000E-02 0. -1.
         -2   -1    0    0    0  501 -0.00000000000E+00 -0.00000000000E+00 -0.10298102861E+04  0.10298102861E+04  0.25500000000E-02 0.  1.
    5000001    1    1    2    0    0 -0.31248991140E+03 -0.37495000334E+02 -0.72854225248E+02  0.37377474221E+03  0.18800000000E+03 0.  0.
   -5000001    1    1    2    0    0  0.31248991140E+03  0.37495000334E+02 -0.76483414114E+03  0.84815746370E+03  0.18800000000E+03 0.  0.
<mgrwt>
<rscale>  0 0.88960470E+03</rscale>
<asrwt>0</asrwt>
<pdfrwt beam="1">  1        2 0.27445989E-01 0.88960470E+03</pdfrwt>
<pdfrwt beam="2">  1       -2 0.14711575E+00 0.88960470E+03</pdfrwt>
<totfact> 0.62366861E+01</totfact>
</mgrwt>
</event>
<event>
 4    1  0.2346411E-005  0.5306118E+03  0.7818608E-02  0.1006084E+00
         -2   -1    0    0    0  501 -0.00000000000E+00  0.00000000000E+00  0.33673327433E+03  0.33673327434E+03  0.25500000000E-02 0. -1.
          2   -1    0    0  501    0  0.00000000000E+00 -0.00000000000E+00 -0.20902958651E+03  0.20902958653E+03  0.25500000000E-02 0.  1.
    5000001    1    1    2    0    0 -0.25962275660E+02  0.18152197678E+03  0.25107302605E+02  0.26381555007E+03  0.18800000000E+03 0.  0.
   -5000001    1    1    2    0    0  0.25962275660E+02 -0.18152197678E+03  0.10259638521E+03  0.28194731081E+03  0.18800000000E+03 0.  0.
<mgrwt>
<rscale>  0 0.53061179E+03</rscale>
<asrwt>0</asrwt>
<pdfrwt beam="1">  1        2 0.29861370E-01 0.53061179E+03</pdfrwt>
<pdfrwt beam="2">  1       -2 0.48104753E-01 0.53061179E+03</pdfrwt>
<totfact> 0.73620208E+02</totfact>
</mgrwt>
</event>
<event>
 4    1  0.2346411E-005  0.4737916E+03  0.7818608E-02  0.1020855E+00
         -2   -1    0    0    0  501 -0.00000000000E+00  0.00000000000E+00  0.40623907257E+02  0.40623907337E+02  0.25500000000E-02 0. -1.
          2   -1    0    0  501    0  0.00000000000E+00 -0.00000000000E+00 -0.13814433638E+04  0.13814433639E+04  0.25500000000E-02 0.  1.
    5000001    1    1    2    0    0 -0.13492655357E+03  0.29988479000E+02 -0.54771112502E+03  0.59534524455E+03  0.18800000000E+03 0.  0.
   -5000001    1    1    2    0    0  0.13492655357E+03 -0.29988479000E+02 -0.79310833157E+03  0.82672202664E+03  0.18800000000E+03 0.  0.
<mgrwt>
<rscale>  0 0.47379163E+03</rscale>
<asrwt>0</asrwt>
<pdfrwt beam="1">  1        2 0.19734902E+00 0.47379163E+03</pdfrwt>
<pdfrwt beam="2">  1       -2 0.58034162E-02 0.47379163E+03</pdfrwt>
<totfact> 0.27968386E+03</totfact>
</mgrwt>
</event>
<event>
 4    1  0.2346411E-005  0.4695429E+03  0.7818608E-02  0.1022049E+00
         -2   -1    0    0    0  501 -0.00000000000E+00  0.00000000000E+00  0.58731225856E+02  0.58731225912E+02  0.25500000000E-02 0. -1.
          2   -1    0    0  501    0  0.00000000000E+00 -0.00000000000E+00 -0.93847231003E+03  0.93847231004E+03  0.25500000000E-02 0.  1.
    5000001    1    1    2    0    0  0.67558441488E+02  0.11919994371E+03 -0.37268201259E+03  0.43932749982E+03  0.18800000000E+03 0.  0.
   -5000001    1    1    2    0    0 -0.67558441488E+02 -0.11919994371E+03 -0.50705907159E+03  0.55787603613E+03  0.18800000000E+03 0.  0.
<mgrwt>
<rscale>  0 0.46954288E+03</rscale>
<asrwt>0</asrwt>
<pdfrwt beam="1">  1        2 0.13406746E+00 0.46954288E+03</pdfrwt>
<pdfrwt beam="2">  1       -2 0.83901757E-02 0.46954288E+03</pdfrwt>
<totfact> 0.27957676E+03</totfact>
</mgrwt>
</event>
<event>
 4    1  0.2346411E-005  0.4995998E+03  0.7818608E-02  0.1013883E+00
          2   -1    0    0  501    0  0.00000000000E+00  0.00000000000E+00  0.95719608123E+03  0.95719608124E+03  0.25500000000E-02 0.  1.
         -2   -1    0    0    0  501 -0.00000000000E+00 -0.00000000000E+00 -0.65190405880E+02  0.65190405930E+02  0.25500000000E-02 0. -1.
    5000001    1    1    2    0    0 -0.16146695509E+03 -0.25262925851E+02  0.40792595429E+03  0.47797215106E+03  0.18800000000E+03 0.  0.
   -5000001    1    1    2    0    0  0.16146695509E+03  0.25262925851E+02  0.48407972106E+03  0.54441433610E+03  0.18800000000E+03 0.  0.
<mgrwt>
<rscale>  0 0.49959984E+03</rscale>
<asrwt>0</asrwt>
<pdfrwt beam="1">  1        2 0.13674229E+00 0.49959984E+03</pdfrwt>
<pdfrwt beam="2">  1       -2 0.93129155E-02 0.49959984E+03</pdfrwt>
<totfact> 0.23042191E+03</totfact>
</mgrwt>
</event>
<event>
 4    1  0.2346411E-005  0.5874661E+03  0.7818608E-02  0.9931757E-01
          2   -1    0    0  501    0  0.00000000000E+00  0.00000000000E+00  0.21155122986E+04  0.21155122986E+04  0.25500000000E-02 0.  1.
         -2   -1    0    0    0  501 -0.00000000000E+00 -0.00000000000E+00 -0.40784029339E+02  0.40784029418E+02  0.25500000000E-02 0. -1.
    5000001    1    1    2    0    0 -0.14080071430E+03 -0.14572093642E+03  0.67260247614E+03  0.72718465562E+03  0.18800000000E+03 0.  0.
   -5000001    1    1    2    0    0  0.14080071430E+03  0.14572093642E+03  0.14021257931E+04  0.14291116724E+04  0.18800000000E+03 0.  0.
<mgrwt>
<rscale>  0 0.58746614E+03</rscale>
<asrwt>0</asrwt>
<pdfrwt beam="1">  1        2 0.30221597E+00 0.58746614E+03</pdfrwt>
<pdfrwt beam="2">  1       -2 0.58262913E-02 0.58746614E+03</pdfrwt>
<totfact> 0.11730844E+03</totfact>
</mgrwt>
</event>
<event>
 4    1  0.2346411E-005  0.6204353E+03  0.7818608E-02  0.9863893E-01
         -2   -1    0    0    0  501 -0.00000000000E+00  0.00000000000E+00  0.50591992716E+02  0.50591992780E+02  0.25500000000E-02 0. -1.
          2   -1    0    0  501    0  0.00000000000E+00 -0.00000000000E+00 -0.19021785394E+04  0.19021785394E+04  0.25500000000E-02 0.  1.
    5000001    1    1    2    0    0 -0.24629650228E+03 -0.63970589674E+01 -0.96896154302E+03  0.10173167458E+04  0.18800000000E+03 0.  0.
   -5000001    1    1    2    0    0  0.24629650228E+03  0.63970589674E+01 -0.88262500366E+03  0.93545378639E+03  0.18800000000E+03 0.  0.
<mgrwt>
<rscale>  0 0.62043534E+03</rscale>
<asrwt>0</asrwt>
<pdfrwt beam="1">  1        2 0.27173975E+00 0.62043534E+03</pdfrwt>
<pdfrwt beam="2">  1       -2 0.72274287E-02 0.62043534E+03</pdfrwt>
<totfact> 0.10677628E+03</totfact>
</mgrwt>
</event>
<event>
 4    1  0.2346411E-005  0.4436923E+03  0.7818608E-02  0.1029620E+00
         -2   -1    0    0    0  501 -0.00000000000E+00  0.00000000000E+00  0.46041285700E+02  0.46041285770E+02  0.25500000000E-02 0. -1.
          2   -1    0    0  501    0  0.00000000000E+00 -0.00000000000E+00 -0.10689475007E+04  0.10689475007E+04  0.25500000000E-02 0.  1.
    5000001    1    1    2    0    0  0.70246570352E+02 -0.89724227427E+02 -0.43662291351E+03  0.48884413287E+03  0.18800000000E+03 0.  0.
   -5000001    1    1    2    0    0 -0.70246570352E+02  0.89724227427E+02 -0.58628330144E+03  0.62614465356E+03  0.18800000000E+03 0.  0.
<mgrwt>
<rscale>  0 0.44369231E+03</rscale>
<asrwt>0</asrwt>
<pdfrwt beam="1">  1        2 0.15270677E+00 0.44369231E+03</pdfrwt>
<pdfrwt beam="2">  1       -2 0.65773272E-02 0.44369231E+03</pdfrwt>
<totfact> 0.34229426E+03</totfact>
</mgrwt>
</event>
<event>
 4    1  0.2346411E-005  0.4438070E+03  0.7818608E-02  0.1029585E+00
         -2   -1    0    0    0  501 -0.00000000000E+00  0.00000000000E+00  0.32882028446E+02  0.32882028545E+02  0.25500000000E-02 0.  1.
          2   -1    0    0  501    0  0.00000000000E+00 -0.00000000000E+00 -0.14975100942E+04  0.14975100942E+04  0.25500000000E-02 0. -1.
    5000001    1    1    2    0    0  0.10453310645E+03  0.47746196649E+02 -0.82291388074E+03  0.85190264981E+03  0.18800000000E+03 0.  0.
   -5000001    1    1    2    0    0 -0.10453310645E+03 -0.47746196649E+02 -0.64171418502E+03  0.67848947294E+03  0.18800000000E+03 0.  0.
<mgrwt>
<rscale>  0 0.44380703E+03</rscale>
<asrwt>0</asrwt>
<pdfrwt beam="1">  1        2 0.21392997E+00 0.44380703E+03</pdfrwt>
<pdfrwt beam="2">  1       -2 0.46974336E-02 0.44380703E+03</pdfrwt>
<totfact> 0.33733642E+03</totfact>
</mgrwt>
</event>
<event>
 4    1  0.2346411E-005  0.4639704E+03  0.7818608E-02  0.1023636E+00
         -2   -1    0    0    0  501 -0.00000000000E+00  0.00000000000E+00  0.31193598067E+03  0.31193598068E+03  0.25500000000E-02 0. -1.
          2   -1    0    0  501    0  0.00000000000E+00 -0.00000000000E+00 -0.17252622654E+03  0.17252622656E+03  0.25500000000E-02 0.  1.
    5000001    1    1    2    0    0 -0.53176381441E+02  0.11265385267E+03  0.12948711310E+02  0.22589884283E+03  0.18800000000E+03 0.  0.
   -5000001    1    1    2    0    0  0.53176381441E+02 -0.11265385267E+03  0.12646104282E+03  0.25856336442E+03  0.18800000000E+03 0.  0.
<mgrwt>
<rscale>  0 0.46397042E+03</rscale>
<asrwt>0</asrwt>
<pdfrwt beam="1">  1        2 0.24646604E-01 0.46397042E+03</pdfrwt>
<pdfrwt beam="2">  1       -2 0.44562282E-01 0.46397042E+03</pdfrwt>
<totfact> 0.10643891E+03</totfact>
</mgrwt>
</event>
<event>
 4    1  0.2346411E-005  0.9013092E+03  0.7818608E-02  0.9423946E-01
          2   -1    0    0  501    0  0.00000000000E+00  0.00000000000E+00  0.15401707767E+04  0.15401707767E+04  0.25500000000E-02 0.  1.
         -2   -1    0    0    0  501 -0.00000000000E+00 -0.00000000000E+00 -0.13186171711E+03  0.13186171714E+03  0.25500000000E-02 0. -1.
    5000001    1    1    2    0    0 -0.39941456247E+03  0.84082769911E+02  0.64141820531E+03  0.78317508835E+03  0.18800000000E+03 0.  0.
   -5000001    1    1    2    0    0  0.39941456247E+03 -0.84082769911E+02  0.76689085426E+03  0.88885740547E+03  0.18800000000E+03 0.  0.
<mgrwt>
<rscale>  0 0.90130919E+03</rscale>
<asrwt>0</asrwt>
<pdfrwt beam="1">  1        2 0.22002440E+00 0.90130919E+03</pdfrwt>
<pdfrwt beam="2">  1       -2 0.18837388E-01 0.90130919E+03</pdfrwt>
<totfact> 0.33064623E+02</totfact>
</mgrwt>
</event>
<event>
 4    1  0.2346411E-005  0.4018143E+03  0.7818608E-02  0.1043153E+00
         -2   -1    0    0    0  501 -0.00000000000E+00  0.00000000000E+00  0.44029405214E+02  0.44029405288E+02  0.25500000000E-02 0. -1.
          2   -1    0    0  501    0  0.00000000000E+00 -0.00000000000E+00 -0.91674386434E+03  0.91674386435E+03  0.25500000000E-02 0.  1.
    5000001    1    1    2    0    0 -0.68996519008E+02  0.15450229774E+01 -0.39804155952E+03  0.44558275307E+03  0.18800000000E+03 0.  0.
   -5000001    1    1    2    0    0  0.68996519008E+02 -0.15450229774E+01 -0.47467289961E+03  0.51519051656E+03  0.18800000000E+03 0.  0.
<mgrwt>
<rscale>  0 0.40181432E+03</rscale>
<asrwt>0</asrwt>
<pdfrwt beam="1">  1        2 0.13096340E+00 0.40181432E+03</pdfrwt>
<pdfrwt beam="2">  1       -2 0.62899156E-02 0.40181432E+03</pdfrwt>
<totfact> 0.45311845E+03</totfact>
</mgrwt>
</event>
<event>
 4    1  0.2346411E-005  0.5030881E+03  0.7818608E-02  0.1012976E+00
          2   -1    0    0  501    0  0.00000000000E+00  0.00000000000E+00  0.42541056599E+03  0.42541056600E+03  0.25500000000E-02 0.  1.
         -2   -1    0    0    0  501 -0.00000000000E+00 -0.00000000000E+00 -0.14873727729E+03  0.14873727731E+03  0.25500000000E-02 0. -1.
    5000001    1    1    2    0    0  0.13056450382E+03  0.73490349806E+02  0.53834341732E+02  0.24635352143E+03  0.18800000000E+03 0.  0.
   -5000001    1    1    2    0    0 -0.13056450382E+03 -0.73490349806E+02  0.22283894696E+03  0.32779432188E+03  0.18800000000E+03 0.  0.
<mgrwt>
<rscale>  0 0.50308810E+03</rscale>
<asrwt>0</asrwt>
<pdfrwt beam="1">  1        2 0.60772939E-01 0.50308810E+03</pdfrwt>
<pdfrwt beam="2">  1       -2 0.21248182E-01 0.50308810E+03</pdfrwt>
<totfact> 0.15427702E+03</totfact>
</mgrwt>
</event>
<event>
 4    1  0.2346411E-005  0.1582626E+04  0.7818608E-02  0.8831293E-01
         -2   -1    0    0    0  501 -0.00000000000E+00  0.00000000000E+00  0.23085347842E+03  0.23085347843E+03  0.25500000000E-02 0. -1.
          2   -1    0    0  501    0  0.00000000000E+00 -0.00000000000E+00 -0.27124418684E+04  0.27124418684E+04  0.25500000000E-02 0.  1.
    5000001    1    1    2    0    0 -0.44317992762E+03  0.45479958355E+03 -0.43532218183E+03  0.79252792471E+03  0.18800000000E+03 0.  0.
   -5000001    1    1    2    0    0  0.44317992762E+03 -0.45479958355E+03 -0.20462662081E+04  0.21507674221E+04  0.18800000000E+03 0.  0.
<mgrwt>
<rscale>  0 0.15826265E+04</rscale>
<asrwt>0</asrwt>
<pdfrwt beam="1">  1        2 0.38749168E+00 0.15826265E+04</pdfrwt>
<pdfrwt beam="2">  1       -2 0.32979070E-01 0.15826265E+04</pdfrwt>
<totfact> 0.28081771E+01</totfact>
</mgrwt>
</event>
<event>
 4    1  0.2346411E-005  0.7624256E+03  0.7818608E-02  0.9616056E-01
          2   -1    0    0  501    0  0.00000000000E+00  0.00000000000E+00  0.11306092094E+04  0.11306092094E+04  0.25500000000E-02 0. -1.
         -2   -1    0    0    0  501 -0.00000000000E+00 -0.00000000000E+00 -0.12853531757E+03  0.12853531759E+03  0.25500000000E-02 0.  1.
    5000001    1    1    2    0    0 -0.19681559011E+03  0.24444695331E+03  0.67805200446E+03  0.77044740913E+03  0.18800000000E+03 0.  0.
   -5000001    1    1    2    0    0  0.19681559011E+03 -0.24444695331E+03  0.32402188735E+03  0.48869711783E+03  0.18800000000E+03 0.  0.
<mgrwt>
<rscale>  0 0.76242564E+03</rscale>
<asrwt>0</asrwt>
<pdfrwt beam="1">  1        2 0.16151560E+00 0.76242564E+03</pdfrwt>
<pdfrwt beam="2">  1       -2 0.18362188E-01 0.76242564E+03</pdfrwt>
<totfact> 0.58306220E+02</totfact>
</mgrwt>
</event>
<event>
 4    1  0.2346411E-005  0.5268971E+03  0.7818608E-02  0.1006987E+00
          2   -1    0    0  501    0  0.00000000000E+00  0.00000000000E+00  0.22068055736E+03  0.22068055737E+03  0.25500000000E-02 0.  1.
         -2   -1    0    0    0  501 -0.00000000000E+00 -0.00000000000E+00 -0.31450502312E+03  0.31450502313E+03  0.25500000000E-02 0. -1.
    5000001    1    1    2    0    0  0.13905764422E+03 -0.93487129832E+02 -0.12548720566E+03  0.28136792753E+03  0.18800000000E+03 0.  0.
   -5000001    1    1    2    0    0 -0.13905764422E+03  0.93487129832E+02  0.31662739894E+02  0.25381765297E+03  0.18800000000E+03 0.  0.
<mgrwt>
<rscale>  0 0.52689712E+03</rscale>
<asrwt>0</asrwt>
<pdfrwt beam="1">  1        2 0.31525794E-01 0.52689712E+03</pdfrwt>
<pdfrwt beam="2">  1       -2 0.44929289E-01 0.52689712E+03</pdfrwt>
<totfact> 0.79389523E+02</totfact>
</mgrwt>
</event>
<event>
 4    1  0.2346411E-005  0.5876131E+03  0.7818608E-02  0.9931443E-01
         -2   -1    0    0    0  501 -0.00000000000E+00  0.00000000000E+00  0.24740109237E+02  0.24740109368E+02  0.25500000000E-02 0. -1.
          2   -1    0    0  501    0  0.00000000000E+00 -0.00000000000E+00 -0.34891638115E+04  0.34891638115E+04  0.25500000000E-02 0.  1.
    5000001    1    1    2    0    0  0.12234898879E+03  0.86503888381E+02 -0.72221604075E+03  0.76117817052E+03  0.18800000000E+03 0.  0.
   -5000001    1    1    2    0    0 -0.12234898879E+03 -0.86503888381E+02 -0.27422076615E+04  0.27527257503E+04  0.18800000000E+03 0.  0.
<mgrwt>
<rscale>  0 0.58761312E+03</rscale>
<asrwt>0</asrwt>
<pdfrwt beam="1">  1        2 0.49845166E+00 0.58761312E+03</pdfrwt>
<pdfrwt beam="2">  1       -2 0.35343036E-02 0.58761312E+03</pdfrwt>
<totfact> 0.46715117E+02</totfact>
</mgrwt>
</event>
<event>
 4    1  0.2346411E-005  0.8690641E+03  0.7818608E-02  0.9465101E-01
          2   -1    0    0  501    0  0.00000000000E+00  0.00000000000E+00  0.70275223456E+03  0.70275223457E+03  0.25500000000E-02 0.  1.
         -2   -1    0    0    0  501 -0.00000000000E+00 -0.00000000000E+00 -0.26868376153E+03  0.26868376154E+03  0.25500000000E-02 0. -1.
    5000001    1    1    2    0    0 -0.22031147745E+03  0.26703797527E+03  0.42201394149E+03  0.57730944401E+03  0.18800000000E+03 0.  0.
   -5000001    1    1    2    0    0  0.22031147745E+03 -0.26703797527E+03  0.12054531541E+02  0.39412655209E+03  0.18800000000E+03 0.  0.
<mgrwt>
<rscale>  0 0.86906413E+03</rscale>
<asrwt>0</asrwt>
<pdfrwt beam="1">  1        2 0.10039318E+00 0.86906413E+03</pdfrwt>
<pdfrwt beam="2">  1       -2 0.38383394E-01 0.86906413E+03</pdfrwt>
<totfact> 0.28778053E+02</totfact>
</mgrwt>
</event>
<event>
 4    1  0.2346411E-005  0.8850966E+03  0.7818608E-02  0.9444406E-01
         -2   -1    0    0    0  501 -0.00000000000E+00  0.00000000000E+00  0.13091632395E+04  0.13091632395E+04  0.25500000000E-02 0. -1.
          2   -1    0    0  501    0  0.00000000000E+00 -0.00000000000E+00 -0.14959861971E+03  0.14959861973E+03  0.25500000000E-02 0.  1.
    5000001    1    1    2    0    0 -0.15226440413E+03  0.36129411956E+03  0.44400206040E+03  0.62144969164E+03  0.18800000000E+03 0.  0.
   -5000001    1    1    2    0    0  0.15226440413E+03 -0.36129411956E+03  0.71556255938E+03  0.83731216758E+03  0.18800000000E+03 0.  0.
<mgrwt>
<rscale>  0 0.88509664E+03</rscale>
<asrwt>0</asrwt>
<pdfrwt beam="1">  1        2 0.21371232E-01 0.88509664E+03</pdfrwt>
<pdfrwt beam="2">  1       -2 0.18702331E+00 0.88509664E+03</pdfrwt>
<totfact> 0.42987718E+01</totfact>
</mgrwt>
</event>
<event>
 4    1  0.2346411E-005  0.7725708E+03  0.7818608E-02  0.9600591E-01
         -2   -1    0    0    0  501 -0.00000000000E+00  0.00000000000E+00  0.13448176903E+04  0.13448176903E+04  0.25500000000E-02 0. -1.
          2   -1    0    0  501    0  0.00000000000E+00 -0.00000000000E+00 -0.11095659661E+03  0.11095659664E+03  0.25500000000E-02 0.  1.
    5000001    1    1    2    0    0 -0.29838938852E+03 -0.14573352475E+03  0.50390393216E+03  0.63208991470E+03  0.18800000000E+03 0.  0.
   -5000001    1    1    2    0    0  0.29838938852E+03  0.14573352475E+03  0.72995716156E+03  0.82368437228E+03  0.18800000000E+03 0.  0.
<mgrwt>
<rscale>  0 0.77257076E+03</rscale>
<asrwt>0</asrwt>
<pdfrwt beam="1">  1        2 0.15850943E-01 0.77257076E+03</pdfrwt>
<pdfrwt beam="2">  1       -2 0.19211680E+00 0.77257076E+03</pdfrwt>
<totfact> 0.57106669E+01</totfact>
</mgrwt>
</event>
<event>
 4    1  0.2346411E-005  0.5554468E+03  0.7818608E-02  0.1000241E+00
         -2   -1    0    0    0  501 -0.00000000000E+00  0.00000000000E+00  0.20893404430E+03  0.20893404431E+03  0.25500000000E-02 0. -1.
          2   -1    0    0  501    0  0.00000000000E+00 -0.00000000000E+00 -0.36916090515E+03  0.36916090516E+03  0.25500000000E-02 0.  1.
    5000001    1    1    2    0    0  0.17608521279E+03 -0.10254146967E+03 -0.97072813383E+02  0.29374799789E+03  0.18800000000E+03 0.  0.
   -5000001    1    1    2    0    0 -0.17608521279E+03  0.10254146967E+03 -0.63154047466E+02  0.28434695158E+03  0.18800000000E+03 0.  0.
<mgrwt>
<rscale>  0 0.55544678E+03</rscale>
<asrwt>0</asrwt>
<pdfrwt beam="1">  1        2 0.52737272E-01 0.55544678E+03</pdfrwt>
<pdfrwt beam="2">  1       -2 0.29847721E-01 0.55544678E+03</pdfrwt>
<totfact> 0.98114977E+02</totfact>
</mgrwt>
</event>
<event>
 4    1  0.2346411E-005  0.4923567E+03  0.7818608E-02  0.1015793E+00
         -2   -1    0    0    0  501 -0.00000000000E+00  0.00000000000E+00  0.78986083943E+02  0.78986083984E+02  0.25500000000E-02 0. -1.
          2   -1    0    0  501    0  0.00000000000E+00 -0.00000000000E+00 -0.76727171633E+03  0.76727171634E+03  0.25500000000E-02 0.  1.
    5000001    1    1    2    0    0  0.14135119741E+03  0.29413801888E+02 -0.45834157216E+03  0.51601000913E+03  0.18800000000E+03 0.  0.
   -5000001    1    1    2    0    0 -0.14135119741E+03 -0.29413801888E+02 -0.22994406023E+03  0.33024779119E+03  0.18800000000E+03 0.  0.
<mgrwt>
<rscale>  0 0.49235673E+03</rscale>
<asrwt>0</asrwt>
<pdfrwt beam="1">  1        2 0.10961024E+00 0.49235673E+03</pdfrwt>
<pdfrwt beam="2">  1       -2 0.11283727E-01 0.49235673E+03</pdfrwt>
<totfact> 0.22539235E+03</totfact>
</mgrwt>
</event>
<event>
 4    1  0.2346411E-005  0.6779495E+03  0.7818608E-02  0.9755703E-01
          2   -1    0    0  501    0  0.00000000000E+00  0.00000000000E+00  0.29549189463E+04  0.29549189463E+04  0.25500000000E-02 0.  1.
         -2   -1    0    0    0  501 -0.00000000000E+00 -0.00000000000E+00 -0.38885632406E+02  0.38885632490E+02  0.25500000000E-02 0. -1.
    5000001    1    1    2    0    0  0.23593111137E+03  0.15157913134E+03  0.15919720016E+04  0.16273778222E+04  0.18800000000E+03 0.  0.
   -5000001    1    1    2    0    0 -0.23593111137E+03 -0.15157913134E+03  0.13240613123E+04  0.13664267566E+04  0.18800000000E+03 0.  0.
<mgrwt>
<rscale>  0 0.67794953E+03</rscale>
<asrwt>0</asrwt>
<pdfrwt beam="1">  1        2 0.42213141E+00 0.67794953E+03</pdfrwt>
<pdfrwt beam="2">  1       -2 0.55550887E-02 0.67794953E+03</pdfrwt>
<totfact> 0.46132256E+02</totfact>
</mgrwt>
</event>
<event>
 4    1  0.2346411E-005  0.6261178E+03  0.7818608E-02  0.9852654E-01
         -2   -1    0    0    0  501 -0.00000000000E+00  0.00000000000E+00  0.86619751553E+02  0.86619751590E+02  0.25500000000E-02 0. -1.
          2   -1    0    0  501    0  0.00000000000E+00 -0.00000000000E+00 -0.11314493603E+04  0.11314493603E+04  0.25500000000E-02 0.  1.
    5000001    1    1    2    0    0 -0.57770809426E+02  0.17983832285E+03 -0.84197861656E+03  0.88314850367E+03  0.18800000000E+03 0.  0.
   -5000001    1    1    2    0    0  0.57770809426E+02 -0.17983832285E+03 -0.20285099221E+03  0.33492060825E+03  0.18800000000E+03 0.  0.
<mgrwt>
<rscale>  0 0.62611776E+03</rscale>
<asrwt>0</asrwt>
<pdfrwt beam="1">  1        2 0.16163561E+00 0.62611776E+03</pdfrwt>
<pdfrwt beam="2">  1       -2 0.12374251E-01 0.62611776E+03</pdfrwt>
<totfact> 0.11400021E+03</totfact>
</mgrwt>
</event>
<event>
 4    1  0.2346411E-005  0.1342859E+04  0.7818608E-02  0.8996251E-01
          2   -1    0    0  501    0  0.00000000000E+00  0.00000000000E+00  0.70548309277E+03  0.70548309277E+03  0.25500000000E-02 0.  1.
         -2   -1    0    0    0  501 -0.00000000000E+00 -0.00000000000E+00 -0.63902003413E+03  0.63902003413E+03  0.25500000000E-02 0. -1.
    5000001    1    1    2    0    0 -0.53078928205E+03 -0.35997192210E+03  0.97783569922E+02  0.67544257579E+03  0.18800000000E+03 0.  0.
   -5000001    1    1    2    0    0  0.53078928205E+03  0.35997192210E+03 -0.31320511282E+02  0.66906055112E+03  0.18800000000E+03 0.  0.
<mgrwt>
<rscale>  0 0.13428594E+04</rscale>
<asrwt>0</asrwt>
<pdfrwt beam="1">  1        2 0.10078330E+00 0.13428594E+04</pdfrwt>
<pdfrwt beam="2">  1       -2 0.91288576E-01 0.13428594E+04</pdfrwt>
<totfact> 0.44624714E+01</totfact>
</mgrwt>
</event>
<event>
 4    1  0.2346411E-005  0.4330944E+03  0.7818608E-02  0.1032887E+00
          2   -1    0    0  501    0  0.00000000000E+00  0.00000000000E+00  0.51795445193E+03  0.51795445193E+03  0.25500000000E-02 0.  1.
         -2   -1    0    0    0  501 -0.00000000000E+00 -0.00000000000E+00 -0.90534386242E+02  0.90534386278E+02  0.25500000000E-02 0. -1.
    5000001    1    1    2    0    0 -0.58524954213E+02 -0.86786560545E+02  0.24788343344E+03  0.32824879882E+03  0.18800000000E+03 0.  0.
   -5000001    1    1    2    0    0  0.58524954213E+02  0.86786560545E+02  0.17953663225E+03  0.28024003939E+03  0.18800000000E+03 0.  0.
<mgrwt>
<rscale>  0 0.43309439E+03</rscale>
<asrwt>0</asrwt>
<pdfrwt beam="1">  1        2 0.73993492E-01 0.43309439E+03</pdfrwt>
<pdfrwt beam="2">  1       -2 0.12933484E-01 0.43309439E+03</pdfrwt>
<totfact> 0.28663665E+03</totfact>
</mgrwt>
</event>
<event>
 4    1  0.2346411E-005  0.5929021E+03  0.7818608E-02  0.9920242E-01
         -2   -1    0    0    0  501 -0.00000000000E+00  0.00000000000E+00  0.17108912109E+03  0.17108912111E+03  0.25500000000E-02 0. -1.
          2   -1    0    0  501    0  0.00000000000E+00 -0.00000000000E+00 -0.51366931343E+03  0.51366931343E+03  0.25500000000E-02 0.  1.
    5000001    1    1    2    0    0 -0.33603057404E+01 -0.20398848419E+03 -0.29195996523E+03  0.40274956814E+03  0.18800000000E+03 0.  0.
   -5000001    1    1    2    0    0  0.33603057404E+01  0.20398848419E+03 -0.50620227106E+02  0.28200886640E+03  0.18800000000E+03 0.  0.
<mgrwt>
<rscale>  0 0.59290212E+03</rscale>
<asrwt>0</asrwt>
<pdfrwt beam="1">  1        2 0.73381330E-01 0.59290212E+03</pdfrwt>
<pdfrwt beam="2">  1       -2 0.24441303E-01 0.59290212E+03</pdfrwt>
<totfact> 0.97393851E+02</totfact>
</mgrwt>
</event>
<event>
 4    1  0.2346411E-005  0.5751959E+03  0.7818608E-02  0.9958246E-01
          2   -1    0    0  501    0  0.00000000000E+00  0.00000000000E+00  0.11248191351E+04  0.11248191351E+04  0.25500000000E-02 0.  1.
         -2   -1    0    0    0  501 -0.00000000000E+00 -0.00000000000E+00 -0.73534128178E+02  0.73534128222E+02  0.25500000000E-02 0. -1.
    5000001    1    1    2    0    0  0.66804780923E+02 -0.19314136496E+03  0.68157821740E+03  0.73597508928E+03  0.18800000000E+03 0.  0.
   -5000001    1    1    2    0    0 -0.66804780923E+02  0.19314136496E+03  0.36970678954E+03  0.46237817405E+03  0.18800000000E+03 0.  0.
<mgrwt>
<rscale>  0 0.57519595E+03</rscale>
<asrwt>0</asrwt>
<pdfrwt beam="1">  1        2 0.16068845E+00 0.57519595E+03</pdfrwt>
<pdfrwt beam="2">  1       -2 0.10504875E-01 0.57519595E+03</pdfrwt>
<totfact> 0.15059935E+03</totfact>
</mgrwt>
</event>
<event>
 4    1  0.2346411E-005  0.5408371E+03  0.7818608E-02  0.1003637E+00
         -2   -1    0    0    0  501 -0.00000000000E+00  0.00000000000E+00  0.10740862692E+03  0.10740862695E+03  0.25500000000E-02 0. -1.
          2   -1    0    0  501    0  0.00000000000E+00 -0.00000000000E+00 -0.68082221376E+03  0.68082221377E+03  0.25500000000E-02 0.  1.
    5000001    1    1    2    0    0  0.87298938154E+02  0.11536975816E+03 -0.47589691358E+03  0.53174538838E+03  0.18800000000E+03 0.  0.
   -5000001    1    1    2    0    0 -0.87298938154E+02 -0.11536975816E+03 -0.97516673258E+02  0.25648545234E+03  0.18800000000E+03 0.  0.
<mgrwt>
<rscale>  0 0.54083705E+03</rscale>
<asrwt>0</asrwt>
<pdfrwt beam="1">  1        2 0.97260314E-01 0.54083705E+03</pdfrwt>
<pdfrwt beam="2">  1       -2 0.15344090E-01 0.54083705E+03</pdfrwt>
<totfact> 0.15694030E+03</totfact>
</mgrwt>
</event>
<event>
 4    1  0.2346411E-005  0.4704738E+03  0.7818608E-02  0.1021787E+00
         -2   -1    0    0    0  501 -0.00000000000E+00  0.00000000000E+00  0.32151623449E+02  0.32151623550E+02  0.25500000000E-02 0. -1.
          2   -1    0    0  501    0  0.00000000000E+00 -0.00000000000E+00 -0.17211075981E+04  0.17211075981E+04  0.25500000000E-02 0.  1.
    5000001    1    1    2    0    0  0.12314388849E+02  0.89383509687E+02 -0.12501682072E+04  0.12674405715E+04  0.18800000000E+03 0.  0.
   -5000001    1    1    2    0    0 -0.12314388849E+02 -0.89383509687E+02 -0.43878776746E+03  0.48581865017E+03  0.18800000000E+03 0.  0.
<mgrwt>
<rscale>  0 0.47047382E+03</rscale>
<asrwt>0</asrwt>
<pdfrwt beam="1">  1        2 0.24587246E+00 0.47047382E+03</pdfrwt>
<pdfrwt beam="2">  1       -2 0.45930902E-02 0.47047382E+03</pdfrwt>
<totfact> 0.26864190E+03</totfact>
</mgrwt>
</event>
<event>
 4    1  0.2346411E-005  0.4383316E+03  0.7818608E-02  0.1031260E+00
          2   -1    0    0  501    0  0.00000000000E+00  0.00000000000E+00  0.10936103202E+03  0.10936103205E+03  0.25500000000E-02 0.  1.
         -2   -1    0    0    0  501 -0.00000000000E+00 -0.00000000000E+00 -0.43922086816E+03  0.43922086816E+03  0.25500000000E-02 0. -1.
    5000001    1    1    2    0    0  0.12603638062E+02 -0.94369199617E+02 -0.24028415406E+03  0.31960111424E+03  0.18800000000E+03 0.  0.
   -5000001    1    1    2    0    0 -0.12603638062E+02  0.94369199617E+02 -0.89575682071E+02  0.22898078598E+03  0.18800000000E+03 0.  0.
<mgrwt>
<rscale>  0 0.43833160E+03</rscale>
<asrwt>0</asrwt>
<pdfrwt beam="1">  1        2 0.15623005E-01 0.43833160E+03</pdfrwt>
<pdfrwt beam="2">  1       -2 0.62745837E-01 0.43833160E+03</pdfrwt>
<totfact> 0.90099586E+02</totfact>
</mgrwt>
</event>
<event>
 4    1  0.2346411E-005  0.5687376E+03  0.7818608E-02  0.9972476E-01
          2   -1    0    0  501    0  0.00000000000E+00  0.00000000000E+00  0.14227457277E+04  0.14227457277E+04  0.25500000000E-02 0.  1.
         -2   -1    0    0    0  501 -0.00000000000E+00 -0.00000000000E+00 -0.56837718414E+02  0.56837718471E+02  0.25500000000E-02 0. -1.
    5000001    1    1    2    0    0 -0.76338924091E+02  0.17859194355E+03  0.45320989347E+03  0.52769870302E+03  0.18800000000E+03 0.  0.
   -5000001    1    1    2    0    0  0.76338924091E+02 -0.17859194355E+03  0.91269811583E+03  0.95188474316E+03  0.18800000000E+03 0.  0.
<mgrwt>
<rscale>  0 0.56873762E+03</rscale>
<asrwt>0</asrwt>
<pdfrwt beam="1">  1        2 0.20324935E+00 0.56873762E+03</pdfrwt>
<pdfrwt beam="2">  1       -2 0.81196756E-02 0.56873762E+03</pdfrwt>
<totfact> 0.15650700E+03</totfact>
</mgrwt>
</event>
<event>
 4    1  0.2346411E-005  0.1059136E+04  0.7818608E-02  0.9245962E-01
          2   -1    0    0  501    0  0.00000000000E+00  0.00000000000E+00  0.20237999725E+04  0.20237999725E+04  0.25500000000E-02 0.  1.
         -2   -1    0    0    0  501 -0.00000000000E+00 -0.00000000000E+00 -0.13857222523E+03  0.13857222525E+03  0.25500000000E-02 0. -1.
    5000001    1    1    2    0    0  0.34303982245E+03 -0.20060104463E+02  0.16702498626E+04  0.17155632694E+04  0.18800000000E+03 0.  0.
   -5000001    1    1    2    0    0 -0.34303982245E+03  0.20060104463E+02  0.21497788459E+03  0.44680892833E+03  0.18800000000E+03 0.  0.
<mgrwt>
<rscale>  0 0.10591364E+04</rscale>
<asrwt>0</asrwt>
<pdfrwt beam="1">  1        2 0.28911426E+00 0.10591364E+04</pdfrwt>
<pdfrwt beam="2">  1       -2 0.19796033E-01 0.10591364E+04</pdfrwt>
<totfact> 0.16914703E+02</totfact>
</mgrwt>
</event>
<event>
 4    1  0.2346411E-005  0.6534662E+03  0.7818608E-02  0.9800297E-01
         -2   -1    0    0    0  501 -0.00000000000E+00  0.00000000000E+00  0.21697813840E+03  0.21697813842E+03  0.25500000000E-02 0. -1.
          2   -1    0    0  501    0  0.00000000000E+00 -0.00000000000E+00 -0.49200589370E+03  0.49200589371E+03  0.25500000000E-02 0.  1.
    5000001    1    1    2    0    0 -0.44007454820E+02 -0.17320311513E+03 -0.35307572551E+03  0.43811236357E+03  0.18800000000E+03 0.  0.
   -5000001    1    1    2    0    0  0.44007454820E+02  0.17320311513E+03  0.78047970212E+02  0.27087166855E+03  0.18800000000E+03 0.  0.
<mgrwt>
<rscale>  0 0.65346621E+03</rscale>
<asrwt>0</asrwt>
<pdfrwt beam="1">  1        2 0.70286556E-01 0.65346621E+03</pdfrwt>
<pdfrwt beam="2">  1       -2 0.30996877E-01 0.65346621E+03</pdfrwt>
<totfact> 0.66259092E+02</totfact>
</mgrwt>
</event>
<event>
 4    1  0.2346411E-005  0.5199620E+03  0.7818608E-02  0.1008696E+00
          2   -1    0    0  501    0  0.00000000000E+00  0.00000000000E+00  0.37484887684E+03  0.37484887684E+03  0.25500000000E-02 0.  1.
         -2   -1    0    0    0  501 -0.00000000000E+00 -0.00000000000E+00 -0.18031298422E+03  0.18031298424E+03  0.25500000000E-02 0. -1.
    5000001    1    1    2    0    0  0.13192919566E+03 -0.29010797011E+02  0.22359586125E+03  0.32184786496E+03  0.18800000000E+03 0.  0.
   -5000001    1    1    2    0    0 -0.13192919566E+03  0.29010797011E+02 -0.29059968641E+02  0.23331399612E+03  0.18800000000E+03 0.  0.
<mgrwt>
<rscale>  0 0.51996200E+03</rscale>
<asrwt>0</asrwt>
<pdfrwt beam="1">  1        2 0.53549840E-01 0.51996200E+03</pdfrwt>
<pdfrwt beam="2">  1       -2 0.25758998E-01 0.51996200E+03</pdfrwt>
<totfact> 0.12615307E+03</totfact>
</mgrwt>
</event>
<event>
 4    1  0.2346411E-005  0.3928449E+03  0.7818608E-02  0.1046286E+00
          2   -1    0    0  501    0  0.00000000000E+00  0.00000000000E+00  0.11993862711E+04  0.11993862711E+04  0.25500000000E-02 0.  1.
         -2   -1    0    0    0  501 -0.00000000000E+00 -0.00000000000E+00 -0.32167928298E+02  0.32167928399E+02  0.25500000000E-02 0. -1.
    5000001    1    1    2    0    0  0.47957173729E+02 -0.19209665039E+02  0.65838115906E+03  0.68664303124E+03  0.18800000000E+03 0.  0.
   -5000001    1    1    2    0    0 -0.47957173729E+02  0.19209665039E+02  0.50883718379E+03  0.54491116831E+03  0.18800000000E+03 0.  0.
<mgrwt>
<rscale>  0 0.39284486E+03</rscale>
<asrwt>0</asrwt>
<pdfrwt beam="1">  1        2 0.17134093E+00 0.39284486E+03</pdfrwt>
<pdfrwt beam="2">  1       -2 0.45954173E-02 0.39284486E+03</pdfrwt>
<totfact> 0.50205355E+03</totfact>
</mgrwt>
</event>
<event>
 4    1  0.2346411E-005  0.6411297E+03  0.7818608E-02  0.9823568E-01
         -2   -1    0    0    0  501 -0.00000000000E+00  0.00000000000E+00  0.34059152475E+03  0.34059152476E+03  0.25500000000E-02 0. -1.
          2   -1    0    0  501    0  0.00000000000E+00 -0.00000000000E+00 -0.30171572671E+03  0.30171572672E+03  0.25500000000E-02 0.  1.
    5000001    1    1    2    0    0 -0.13853020933E+03 -0.18993299417E+03  0.12987947094E+03  0.32783812796E+03  0.18800000000E+03 0.  0.
   -5000001    1    1    2    0    0  0.13853020933E+03  0.18993299417E+03 -0.91003672898E+02  0.31446912353E+03  0.18800000000E+03 0.  0.
<mgrwt>
<rscale>  0 0.64112969E+03</rscale>
<asrwt>0</asrwt>
<pdfrwt beam="1">  1        2 0.43102246E-01 0.64112969E+03</pdfrwt>
<pdfrwt beam="2">  1       -2 0.48655932E-01 0.64112969E+03</pdfrwt>
<totfact> 0.47781998E+02</totfact>
</mgrwt>
</event>
<event>
 4    1  0.2346411E-005  0.5819428E+03  0.7818608E-02  0.9943594E-01
         -2   -1    0    0    0  501 -0.00000000000E+00  0.00000000000E+00  0.25299362688E+03  0.25299362690E+03  0.25500000000E-02 0. -1.
          2   -1    0    0  501    0  0.00000000000E+00 -0.00000000000E+00 -0.33465018482E+03  0.33465018483E+03  0.25500000000E-02 0.  1.
    5000001    1    1    2    0    0 -0.68190493339E+02  0.18791127315E+03  0.56865414372E+02  0.28024679357E+03  0.18800000000E+03 0.  0.
   -5000001    1    1    2    0    0  0.68190493339E+02 -0.18791127315E+03 -0.13852197231E+03  0.30739701815E+03  0.18800000000E+03 0.  0.
<mgrwt>
<rscale>  0 0.58194283E+03</rscale>
<asrwt>0</asrwt>
<pdfrwt beam="1">  1        2 0.47807169E-01 0.58194283E+03</pdfrwt>
<pdfrwt beam="2">  1       -2 0.36141947E-01 0.58194283E+03</pdfrwt>
<totfact> 0.76389067E+02</totfact>
</mgrwt>
</event>
<event>
 4    1  0.2346411E-005  0.5888232E+03  0.7818608E-02  0.9928870E-01
          2   -1    0    0  501    0  0.00000000000E+00  0.00000000000E+00  0.11168442286E+04  0.11168442286E+04  0.25500000000E-02 0.  1.
         -2   -1    0    0    0  501 -0.00000000000E+00 -0.00000000000E+00 -0.77609913588E+02  0.77609913630E+02  0.25500000000E-02 0. -1.
    5000001    1    1    2    0    0 -0.20389479807E+03 -0.98551693551E+02  0.53376749205E+03  0.60953856362E+03  0.18800000000E+03 0.  0.
   -5000001    1    1    2    0    0  0.20389479807E+03  0.98551693551E+02  0.50546682298E+03  0.58491557862E+03  0.18800000000E+03 0.  0.
<mgrwt>
<rscale>  0 0.58882318E+03</rscale>
<asrwt>0</asrwt>
<pdfrwt beam="1">  1        2 0.15954919E+00 0.58882318E+03</pdfrwt>
<pdfrwt beam="2">  1       -2 0.11087130E-01 0.58882318E+03</pdfrwt>
<totfact> 0.13935017E+03</totfact>
</mgrwt>
</event>
<event>
 4    1  0.2346411E-005  0.1643848E+04  0.7818608E-02  0.8794054E-01
          2   -1    0    0  501    0  0.00000000000E+00  0.00000000000E+00  0.22872557558E+04  0.22872557558E+04  0.25500000000E-02 0.  1.
         -2   -1    0    0    0  501 -0.00000000000E+00 -0.00000000000E+00 -0.29535776653E+03  0.29535776654E+03  0.25500000000E-02 0. -1.
    5000001    1    1    2    0    0  0.11563077240E+03 -0.65846718354E+03  0.16866255950E+04  0.18240064158E+04  0.18800000000E+03 0.  0.
   -5000001    1    1    2    0    0 -0.11563077240E+03  0.65846718354E+03  0.30527239427E+03  0.75860710650E+03  0.18800000000E+03 0.  0.
<mgrwt>
<rscale>  0 0.16438476E+04</rscale>
<asrwt>0</asrwt>
<pdfrwt beam="1">  1        2 0.32675082E+00 0.16438476E+04</pdfrwt>
<pdfrwt beam="2">  1       -2 0.42193967E-01 0.16438476E+04</pdfrwt>
<totfact> 0.29062524E+01</totfact>
</mgrwt>
</event>
<event>
 4    1  0.2346411E-005  0.5300731E+03  0.7818608E-02  0.1006214E+00
         -2   -1    0    0    0  501 -0.00000000000E+00  0.00000000000E+00  0.10303978995E+04  0.10303978995E+04  0.25500000000E-02 0. -1.
          2   -1    0    0  501    0  0.00000000000E+00 -0.00000000000E+00 -0.68172078352E+02  0.68172078400E+02  0.25500000000E-02 0.  1.
    5000001    1    1    2    0    0  0.13547943207E+02 -0.12794577180E+03  0.20039446535E+03  0.30340667268E+03  0.18800000000E+03 0.  0.
   -5000001    1    1    2    0    0 -0.13547943207E+02  0.12794577180E+03  0.76183135578E+03  0.79516330520E+03  0.18800000000E+03 0.  0.
<mgrwt>
<rscale>  0 0.53007308E+03</rscale>
<asrwt>0</asrwt>
<pdfrwt beam="1">  1        2 0.97388697E-02 0.53007308E+03</pdfrwt>
<pdfrwt beam="2">  1       -2 0.14719968E+00 0.53007308E+03</pdfrwt>
<totfact> 0.22010726E+02</totfact>
</mgrwt>
</event>
<event>
 4    1  0.2346411E-005  0.9089295E+03  0.7818608E-02  0.9414487E-01
         -2   -1    0    0    0  501 -0.00000000000E+00  0.00000000000E+00  0.17359348755E+03  0.17359348757E+03  0.25500000000E-02 0. -1.
          2   -1    0    0  501    0  0.00000000000E+00 -0.00000000000E+00 -0.11897808139E+04  0.11897808139E+04  0.25500000000E-02 0.  1.
    5000001    1    1    2    0    0 -0.16709556592E+03 -0.36654497953E+03 -0.36644258558E+03  0.57610790543E+03  0.18800000000E+03 0.  0.
   -5000001    1    1    2    0    0  0.16709556592E+03  0.36654497953E+03 -0.64974474074E+03  0.78726639601E+03  0.18800000000E+03 0.  0.
<mgrwt>
<rscale>  0 0.90892948E+03</rscale>
<asrwt>0</asrwt>
<pdfrwt beam="1">  1        2 0.16996868E+00 0.90892948E+03</pdfrwt>
<pdfrwt beam="2">  1       -2 0.24799070E-01 0.90892948E+03</pdfrwt>
<totfact> 0.31494264E+02</totfact>
</mgrwt>
</event>
<event>
 4    1  0.2346411E-005  0.5299844E+03  0.7818608E-02  0.1006236E+00
         -2   -1    0    0    0  501 -0.00000000000E+00  0.00000000000E+00  0.10865288555E+03  0.10865288558E+03  0.25500000000E-02 0. -1.
          2   -1    0    0  501    0  0.00000000000E+00 -0.00000000000E+00 -0.64628621488E+03  0.64628621489E+03  0.25500000000E-02 0.  1.
    5000001    1    1    2    0    0  0.13673279903E+03  0.67089529495E+02 -0.11487001384E+03  0.26783573954E+03  0.18800000000E+03 0.  0.
   -5000001    1    1    2    0    0 -0.13673279903E+03 -0.67089529495E+02 -0.42276331549E+03  0.48710336092E+03  0.18800000000E+03 0.  0.
<mgrwt>
<rscale>  0 0.52998439E+03</rscale>
<asrwt>0</asrwt>
<pdfrwt beam="1">  1        2 0.92326600E-01 0.52998439E+03</pdfrwt>
<pdfrwt beam="2">  1       -2 0.15521841E-01 0.52998439E+03</pdfrwt>
<totfact> 0.16385930E+03</totfact>
</mgrwt>
</event>
<event>
 4    1  0.2346411E-005  0.6417421E+03  0.7818608E-02  0.9822399E-01
          2   -1    0    0  501    0  0.00000000000E+00  0.00000000000E+00  0.65169053081E+03  0.65169053081E+03  0.25500000000E-02 0.  1.
         -2   -1    0    0    0  501 -0.00000000000E+00 -0.00000000000E+00 -0.15798639244E+03  0.15798639246E+03  0.25500000000E-02 0. -1.
    5000001    1    1    2    0    0  0.64963658107E+02  0.22021505314E+03  0.40085677735E+03  0.49874352372E+03  0.18800000000E+03 0.  0.
   -5000001    1    1    2    0    0 -0.64963658107E+02 -0.22021505314E+03  0.92847361016E+02  0.31093339954E+03  0.18800000000E+03 0.  0.
<mgrwt>
<rscale>  0 0.64174212E+03</rscale>
<asrwt>0</asrwt>
<pdfrwt beam="1">  1        2 0.93098648E-01 0.64174212E+03</pdfrwt>
<pdfrwt beam="2">  1       -2 0.22569485E-01 0.64174212E+03</pdfrwt>
<totfact> 0.84894139E+02</totfact>
</mgrwt>
</event>
<event>
 4    1  0.2346411E-005  0.4154720E+03  0.7818608E-02  0.1038550E+00
         -2   -1    0    0    0  501 -0.00000000000E+00  0.00000000000E+00  0.33489385026E+02  0.33489385123E+02  0.25500000000E-02 0. -1.
          2   -1    0    0  501    0  0.00000000000E+00 -0.00000000000E+00 -0.12885946697E+04  0.12885946697E+04  0.25500000000E-02 0.  1.
    5000001    1    1    2    0    0 -0.20920552217E+02 -0.73219754837E+02 -0.77026808855E+03  0.79652729410E+03  0.18800000000E+03 0.  0.
   -5000001    1    1    2    0    0  0.20920552217E+02  0.73219754837E+02 -0.48483719614E+03  0.52555676074E+03  0.18800000000E+03 0.  0.
<mgrwt>
<rscale>  0 0.41547199E+03</rscale>
<asrwt>0</asrwt>
<pdfrwt beam="1">  1        2 0.18408492E+00 0.41547199E+03</pdfrwt>
<pdfrwt beam="2">  1       -2 0.47841987E-02 0.41547199E+03</pdfrwt>
<totfact> 0.42230071E+03</totfact>
</mgrwt>
</event>
<event>
 4    1  0.2346411E-005  0.6041190E+03  0.7818608E-02  0.9896897E-01
         -2   -1    0    0    0  501 -0.00000000000E+00  0.00000000000E+00  0.36789418107E+03  0.36789418108E+03  0.25500000000E-02 0. -1.
          2   -1    0    0  501    0  0.00000000000E+00 -0.00000000000E+00 -0.24800595355E+03  0.24800595356E+03  0.25500000000E-02 0.  1.
    5000001    1    1    2    0    0 -0.10600476558E+02  0.23151356827E+03  0.10760015498E+03  0.31722656848E+03  0.18800000000E+03 0.  0.
   -5000001    1    1    2    0    0  0.10600476558E+02 -0.23151356827E+03  0.12288072541E+02  0.29867356616E+03  0.18800000000E+03 0.  0.
<mgrwt>
<rscale>  0 0.60411902E+03</rscale>
<asrwt>0</asrwt>
<pdfrwt beam="1">  1        2 0.35429422E-01 0.60411902E+03</pdfrwt>
<pdfrwt beam="2">  1       -2 0.52556311E-01 0.60411902E+03</pdfrwt>
<totfact> 0.50801235E+02</totfact>
</mgrwt>
</event>
<event>
 4    1  0.2346411E-005  0.4469033E+03  0.7818608E-02  0.1028650E+00
          2   -1    0    0  501    0  0.00000000000E+00  0.00000000000E+00  0.30306070409E+04  0.30306070409E+04  0.25500000000E-02 0.  1.
         -2   -1    0    0    0  501 -0.00000000000E+00 -0.00000000000E+00 -0.16475458528E+02  0.16475458726E+02  0.25500000000E-02 0. -1.
    5000001    1    1    2    0    0 -0.59005321322E+02  0.77406968563E+02  0.10195194057E+04  0.10412671537E+04  0.18800000000E+03 0.  0.
   -5000001    1    1    2    0    0  0.59005321322E+02 -0.77406968563E+02  0.19946121766E+04  0.20058153459E+04  0.18800000000E+03 0.  0.
<mgrwt>
<rscale>  0 0.44690330E+03</rscale>
<asrwt>0</asrwt>
<pdfrwt beam="1">  1        2 0.43294410E+00 0.44690330E+03</pdfrwt>
<pdfrwt beam="2">  1       -2 0.23536357E-02 0.44690330E+03</pdfrwt>
<totfact> 0.15936399E+03</totfact>
</mgrwt>
</event>
<event>
 4    1  0.2346411E-005  0.4262121E+03  0.7818608E-02  0.1035063E+00
         -2   -1    0    0    0  501 -0.00000000000E+00  0.00000000000E+00  0.23803721194E+02  0.23803721331E+02  0.25500000000E-02 0. -1.
          2   -1    0    0  501    0  0.00000000000E+00 -0.00000000000E+00 -0.19078612656E+04  0.19078612656E+04  0.25500000000E-02 0.  1.
    5000001    1    1    2    0    0 -0.67950359999E+02 -0.69472813021E+02 -0.82859099083E+03  0.85519047776E+03  0.18800000000E+03 0.  0.
   -5000001    1    1    2    0    0  0.67950359999E+02  0.69472813021E+02 -0.10554665536E+04  0.10764745092E+04  0.18800000000E+03 0.  0.
<mgrwt>
<rscale>  0 0.42621214E+03</rscale>
<asrwt>0</asrwt>
<pdfrwt beam="1">  1        2 0.27255151E+00 0.42621214E+03</pdfrwt>
<pdfrwt beam="2">  1       -2 0.34005328E-02 0.42621214E+03</pdfrwt>
<totfact> 0.34307926E+03</totfact>
</mgrwt>
</event>
<event>
 4    1  0.2346411E-005  0.4696799E+03  0.7818608E-02  0.1022011E+00
         -2   -1    0    0    0  501 -0.00000000000E+00  0.00000000000E+00  0.92408038658E+03  0.92408038658E+03  0.25500000000E-02 0. -1.
          2   -1    0    0  501    0  0.00000000000E+00 -0.00000000000E+00 -0.59680746768E+02  0.59680746823E+02  0.25500000000E-02 0.  1.
    5000001    1    1    2    0    0 -0.13589199883E+03 -0.13939281141E+02  0.50307032031E+03  0.55415222284E+03  0.18800000000E+03 0.  0.
   -5000001    1    1    2    0    0  0.13589199883E+03  0.13939281141E+02  0.36132931950E+03  0.42960891056E+03  0.18800000000E+03 0.  0.
<mgrwt>
<rscale>  0 0.46967992E+03</rscale>
<asrwt>0</asrwt>
<pdfrwt beam="1">  1        2 0.85258210E-02 0.46967992E+03</pdfrwt>
<pdfrwt beam="2">  1       -2 0.13201148E+00 0.46967992E+03</pdfrwt>
<totfact> 0.34523263E+02</totfact>
</mgrwt>
</event>
<event>
 4    1  0.2346411E-005  0.4390463E+03  0.7818608E-02  0.1031040E+00
         -2   -1    0    0    0  501 -0.00000000000E+00  0.00000000000E+00  0.56964154858E+03  0.56964154858E+03  0.25500000000E-02 0. -1.
          2   -1    0    0  501    0  0.00000000000E+00 -0.00000000000E+00 -0.84597786109E+02  0.84597786148E+02  0.25500000000E-02 0.  1.
    5000001    1    1    2    0    0  0.97480798804E+02 -0.38956696849E+02  0.30620296261E+03  0.37433191779E+03  0.18800000000E+03 0.  0.
   -5000001    1    1    2    0    0 -0.97480798804E+02  0.38956696849E+02  0.17884079986E+03  0.27990741694E+03  0.18800000000E+03 0.  0.
<mgrwt>
<rscale>  0 0.43904630E+03</rscale>
<asrwt>0</asrwt>
<pdfrwt beam="1">  1        2 0.12085398E-01 0.43904630E+03</pdfrwt>
<pdfrwt beam="2">  1       -2 0.81377365E-01 0.43904630E+03</pdfrwt>
<totfact> 0.69977622E+02</totfact>
</mgrwt>
</event>
<event>
 4    1  0.2346411E-005  0.6301034E+03  0.7818608E-02  0.9844847E-01
          2   -1    0    0  501    0  0.00000000000E+00  0.00000000000E+00  0.62915497738E+03  0.62915497739E+03  0.25500000000E-02 0.  1.
         -2   -1    0    0    0  501 -0.00000000000E+00 -0.00000000000E+00 -0.15776332684E+03  0.15776332686E+03  0.25500000000E-02 0. -1.
    5000001    1    1    2    0    0  0.26748361943E+02  0.20357244078E+03  0.51486754548E+02  0.28311146110E+03  0.18800000000E+03 0.  0.
   -5000001    1    1    2    0    0 -0.26748361943E+02 -0.20357244078E+03  0.41990489600E+03  0.50380684314E+03  0.18800000000E+03 0.  0.
<mgrwt>
<rscale>  0 0.63010343E+03</rscale>
<asrwt>0</asrwt>
<pdfrwt beam="1">  1        2 0.89879283E-01 0.63010343E+03</pdfrwt>
<pdfrwt beam="2">  1       -2 0.22537618E-01 0.63010343E+03</pdfrwt>
<totfact> 0.88788303E+02</totfact>
</mgrwt>
</event>
<event>
 4    1  0.2346411E-005  0.4027595E+03  0.7818608E-02  0.1042828E+00
         -2   -1    0    0    0  501 -0.00000000000E+00  0.00000000000E+00  0.13851358217E+02  0.13851358452E+02  0.25500000000E-02 0. -1.
          2   -1    0    0  501    0  0.00000000000E+00 -0.00000000000E+00 -0.29277855980E+04  0.29277855980E+04  0.25500000000E-02 0.  1.
    5000001    1    1    2    0    0  0.43891821943E+02  0.49410916561E+02 -0.12450492817E+04  0.12608963655E+04  0.18800000000E+03 0.  0.
   -5000001    1    1    2    0    0 -0.43891821943E+02 -0.49410916561E+02 -0.16688849581E+04  0.16807405909E+04  0.18800000000E+03 0.  0.
<mgrwt>
<rscale>  0 0.40275952E+03</rscale>
<asrwt>0</asrwt>
<pdfrwt beam="1">  1        2 0.41825469E+00 0.40275952E+03</pdfrwt>
<pdfrwt beam="2">  1       -2 0.19787673E-02 0.40275952E+03</pdfrwt>
<totfact> 0.23529879E+03</totfact>
</mgrwt>
</event>
<event>
 4    1  0.2346411E-005  0.5078221E+03  0.7818608E-02  0.1011757E+00
         -2   -1    0    0    0  501 -0.00000000000E+00  0.00000000000E+00  0.88553032602E+03  0.88553032602E+03  0.25500000000E-02 0. -1.
          2   -1    0    0  501    0  0.00000000000E+00 -0.00000000000E+00 -0.72804750423E+02  0.72804750468E+02  0.25500000000E-02 0.  1.
    5000001    1    1    2    0    0 -0.11585963334E+03 -0.12181583265E+03  0.46184179618E+03  0.52621706208E+03  0.18800000000E+03 0.  0.
   -5000001    1    1    2    0    0  0.11585963334E+03  0.12181583265E+03  0.35088377941E+03  0.43211801441E+03  0.18800000000E+03 0.  0.
<mgrwt>
<rscale>  0 0.50782207E+03</rscale>
<asrwt>0</asrwt>
<pdfrwt beam="1">  1        2 0.10400679E-01 0.50782207E+03</pdfrwt>
<pdfrwt beam="2">  1       -2 0.12650433E+00 0.50782207E+03</pdfrwt>
<totfact> 0.29814682E+02</totfact>
</mgrwt>
</event>
<event>
 4    1  0.2346411E-005  0.6345170E+03  0.7818608E-02  0.9836274E-01
          2   -1    0    0  501    0  0.00000000000E+00  0.00000000000E+00  0.14667713277E+04  0.14667713277E+04  0.25500000000E-02 0.  1.
         -2   -1    0    0    0  501 -0.00000000000E+00 -0.00000000000E+00 -0.68622127751E+02  0.68622127798E+02  0.25500000000E-02 0. -1.
    5000001    1    1    2    0    0 -0.18765052201E+03  0.16877680482E+03  0.79618724840E+03  0.85612876530E+03  0.18800000000E+03 0.  0.
   -5000001    1    1    2    0    0  0.18765052201E+03 -0.16877680482E+03  0.60196195159E+03  0.67926469025E+03  0.18800000000E+03 0.  0.
<mgrwt>
<rscale>  0 0.63451704E+03</rscale>
<asrwt>0</asrwt>
<pdfrwt beam="1">  1        2 0.20953877E+00 0.63451704E+03</pdfrwt>
<pdfrwt beam="2">  1       -2 0.98031607E-02 0.63451704E+03</pdfrwt>
<totfact> 0.10937308E+03</totfact>
</mgrwt>
</event>
<event>
 4    1  0.2346411E-005  0.6197161E+03  0.7818608E-02  0.9865325E-01
         -2   -1    0    0    0  501 -0.00000000000E+00  0.00000000000E+00  0.28514582614E+03  0.28514582615E+03  0.25500000000E-02 0. -1.
          2   -1    0    0  501    0  0.00000000000E+00 -0.00000000000E+00 -0.33671201296E+03  0.33671201297E+03  0.25500000000E-02 0.  1.
    5000001    1    1    2    0    0  0.17784742720E+03 -0.14478309204E+03  0.64395018179E+02  0.30345109898E+03  0.18800000000E+03 0.  0.
   -5000001    1    1    2    0    0 -0.17784742720E+03  0.14478309204E+03 -0.11596120500E+03  0.31840674014E+03  0.18800000000E+03 0.  0.
<mgrwt>
<rscale>  0 0.61971615E+03</rscale>
<asrwt>0</asrwt>
<pdfrwt beam="1">  1        2 0.48101716E-01 0.61971615E+03</pdfrwt>
<pdfrwt beam="2">  1       -2 0.40735118E-01 0.61971615E+03</pdfrwt>
<totfact> 0.60222315E+02</totfact>
</mgrwt>
</event>
<event>
 4    1  0.2346411E-005  0.5451706E+03  0.7818608E-02  0.1002618E+00
          2   -1    0    0  501    0  0.00000000000E+00  0.00000000000E+00  0.76106583653E+03  0.76106583654E+03  0.25500000000E-02 0.  1.
         -2   -1    0    0    0  501 -0.00000000000E+00 -0.00000000000E+00 -0.97629846495E+02  0.97629846529E+02  0.25500000000E-02 0. -1.
    5000001    1    1    2    0    0 -0.13951582494E+03  0.11447218531E+03  0.45762905935E+03  0.52662785967E+03  0.18800000000E+03 0.  0.
   -5000001    1    1    2    0    0  0.13951582494E+03 -0.11447218531E+03  0.20580693069E+03  0.33206782340E+03  0.18800000000E+03 0.  0.
<mgrwt>
<rscale>  0 0.54517058E+03</rscale>
<asrwt>0</asrwt>
<pdfrwt beam="1">  1        2 0.10872369E+00 0.54517058E+03</pdfrwt>
<pdfrwt beam="2">  1       -2 0.13947121E-01 0.54517058E+03</pdfrwt>
<totfact> 0.16057004E+03</totfact>
</mgrwt>
</event>
<event>
 4    1  0.2346411E-005  0.6805553E+03  0.7818608E-02  0.9751075E-01
          2   -1    0    0  501    0  0.00000000000E+00  0.00000000000E+00  0.22705179130E+04  0.22705179130E+04  0.25500000000E-02 0.  1.
         -2   -1    0    0    0  501 -0.00000000000E+00 -0.00000000000E+00 -0.50996684020E+02  0.50996684084E+02  0.25500000000E-02 0. -1.
    5000001    1    1    2    0    0 -0.23766136826E+03 -0.15276852235E+03  0.11949545800E+04  0.12422083544E+04  0.18800000000E+03 0.  0.
   -5000001    1    1    2    0    0  0.23766136826E+03  0.15276852235E+03  0.10245666490E+04  0.10793062427E+04  0.18800000000E+03 0.  0.
<mgrwt>
<rscale>  0 0.68055532E+03</rscale>
<asrwt>0</asrwt>
<pdfrwt beam="1">  1        2 0.32435965E+00 0.68055532E+03</pdfrwt>
<pdfrwt beam="2">  1       -2 0.72852418E-02 0.68055532E+03</pdfrwt>
<totfact> 0.68492164E+02</totfact>
</mgrwt>
</event>
<event>
 4    1  0.2346411E-005  0.4835027E+03  0.7818608E-02  0.1018177E+00
         -2   -1    0    0    0  501 -0.00000000000E+00  0.00000000000E+00  0.13817533447E+03  0.13817533449E+03  0.25500000000E-02 0. -1.
          2   -1    0    0  501    0  0.00000000000E+00 -0.00000000000E+00 -0.42296779288E+03  0.42296779289E+03  0.25500000000E-02 0.  1.
    5000001    1    1    2    0    0  0.99770017736E+02 -0.69729116957E+02 -0.24802493120E+03  0.33418044929E+03  0.18800000000E+03 0.  0.
   -5000001    1    1    2    0    0 -0.99770017736E+02  0.69729116957E+02 -0.36767527212E+02  0.22696267809E+03  0.18800000000E+03 0.  0.
<mgrwt>
<rscale>  0 0.48350270E+03</rscale>
<asrwt>0</asrwt>
<pdfrwt beam="1">  1        2 0.60423970E-01 0.48350270E+03</pdfrwt>
<pdfrwt beam="2">  1       -2 0.19739334E-01 0.48350270E+03</pdfrwt>
<totfact> 0.17646026E+03</totfact>
</mgrwt>
</event>
<event>
 4    1  0.2346411E-005  0.4247347E+03  0.7818608E-02  0.1035536E+00
          2   -1    0    0  501    0  0.00000000000E+00  0.00000000000E+00  0.16699846191E+04  0.16699846191E+04  0.25500000000E-02 0.  1.
         -2   -1    0    0    0  501 -0.00000000000E+00 -0.00000000000E+00 -0.27006175332E+02  0.27006175452E+02  0.25500000000E-02 0. -1.
    5000001    1    1    2    0    0 -0.88286231964E+02 -0.42135909039E+02  0.76699847122E+03  0.79573899517E+03  0.18800000000E+03 0.  0.
   -5000001    1    1    2    0    0  0.88286231964E+02  0.42135909039E+02  0.87597997258E+03  0.90125179941E+03  0.18800000000E+03 0.  0.
<mgrwt>
<rscale>  0 0.42473473E+03</rscale>
<asrwt>0</asrwt>
<pdfrwt beam="1">  1        2 0.23856920E+00 0.42473473E+03</pdfrwt>
<pdfrwt beam="2">  1       -2 0.38580255E-02 0.42473473E+03</pdfrwt>
<totfact> 0.37238402E+03</totfact>
</mgrwt>
</event>
<event>
 4    1  0.2346411E-005  0.5705659E+03  0.7818608E-02  0.9968427E-01
         -2   -1    0    0    0  501 -0.00000000000E+00  0.00000000000E+00  0.11971313839E+03  0.11971313841E+03  0.25500000000E-02 0. -1.
          2   -1    0    0  501    0  0.00000000000E+00 -0.00000000000E+00 -0.67984478644E+03  0.67984478644E+03  0.25500000000E-02 0.  1.
    5000001    1    1    2    0    0  0.19268021602E+03  0.83809138836E+02 -0.21909994709E+03  0.35706921488E+03  0.18800000000E+03 0.  0.
   -5000001    1    1    2    0    0 -0.19268021602E+03 -0.83809138836E+02 -0.34103170096E+03  0.44248870998E+03  0.18800000000E+03 0.  0.
<mgrwt>
<rscale>  0 0.57056587E+03</rscale>
<asrwt>0</asrwt>
<pdfrwt beam="1">  1        2 0.97120682E-01 0.57056587E+03</pdfrwt>
<pdfrwt beam="2">  1       -2 0.17101877E-01 0.57056587E+03</pdfrwt>
<totfact> 0.13079227E+03</totfact>
</mgrwt>
</event>
<event>
 4    1  0.2346411E-005  0.5299144E+03  0.7818608E-02  0.1006253E+00
         -2   -1    0    0    0  501 -0.00000000000E+00  0.00000000000E+00  0.39521736469E+02  0.39521736551E+02  0.25500000000E-02 0. -1.
          2   -1    0    0  501    0  0.00000000000E+00 -0.00000000000E+00 -0.17762963996E+04  0.17762963996E+04  0.25500000000E-02 0.  1.
    5000001    1    1    2    0    0 -0.35497932262E+02  0.17102113224E+03 -0.10943884698E+04  0.11240722635E+04  0.18800000000E+03 0.  0.
   -5000001    1    1    2    0    0  0.35497932262E+02 -0.17102113224E+03 -0.64238619333E+03  0.69174587260E+03  0.18800000000E+03 0.  0.
<mgrwt>
<rscale>  0 0.52991440E+03</rscale>
<asrwt>0</asrwt>
<pdfrwt beam="1">  1        2 0.25375658E+00 0.52991440E+03</pdfrwt>
<pdfrwt beam="2">  1       -2 0.56459635E-02 0.52991440E+03</pdfrwt>
<totfact> 0.18281725E+03</totfact>
</mgrwt>
</event>
<event>
 4    1  0.2346411E-005  0.5497734E+03  0.7818608E-02  0.1001546E+00
         -2   -1    0    0    0  501 -0.00000000000E+00  0.00000000000E+00  0.18177931504E+03  0.18177931506E+03  0.25500000000E-02 0. -1.
          2   -1    0    0  501    0  0.00000000000E+00 -0.00000000000E+00 -0.41568374472E+03  0.41568374473E+03  0.25500000000E-02 0.  1.
    5000001    1    1    2    0    0  0.77304621101E+02  0.17171671136E+03 -0.19189875114E+03  0.32807280303E+03  0.18800000000E+03 0.  0.
   -5000001    1    1    2    0    0 -0.77304621101E+02 -0.17171671136E+03 -0.42005678544E+02  0.26939025675E+03  0.18800000000E+03 0.  0.
<mgrwt>
<rscale>  0 0.54977343E+03</rscale>
<asrwt>0</asrwt>
<pdfrwt beam="1">  1        2 0.59383392E-01 0.54977343E+03</pdfrwt>
<pdfrwt beam="2">  1       -2 0.25968474E-01 0.54977343E+03</pdfrwt>
<totfact> 0.11087219E+03</totfact>
</mgrwt>
</event>
<event>
 4    1  0.2346411E-005  0.5712355E+03  0.7818608E-02  0.9966948E-01
         -2   -1    0    0    0  501 -0.00000000000E+00  0.00000000000E+00  0.32232157795E+02  0.32232157895E+02  0.25500000000E-02 0. -1.
          2   -1    0    0  501    0  0.00000000000E+00 -0.00000000000E+00 -0.25309354338E+04  0.25309354338E+04  0.25500000000E-02 0.  1.
    5000001    1    1    2    0    0  0.11772819387E+03  0.28883081386E+02 -0.20462228835E+04  0.20584135272E+04  0.18800000000E+03 0.  0.
   -5000001    1    1    2    0    0 -0.11772819387E+03 -0.28883081386E+02 -0.45248039254E+03  0.50475406453E+03  0.18800000000E+03 0.  0.
<mgrwt>
<rscale>  0 0.57123554E+03</rscale>
<asrwt>0</asrwt>
<pdfrwt beam="1">  1        2 0.36156208E+00 0.57123554E+03</pdfrwt>
<pdfrwt beam="2">  1       -2 0.46045956E-02 0.57123554E+03</pdfrwt>
<totfact> 0.10423202E+03</totfact>
</mgrwt>
</event>
<event>
 4    1  0.2346411E-005  0.5809043E+03  0.7818608E-02  0.9945835E-01
         -2   -1    0    0    0  501 -0.00000000000E+00  0.00000000000E+00  0.77590585579E+02  0.77590585621E+02  0.25500000000E-02 0. -1.
          2   -1    0    0  501    0  0.00000000000E+00 -0.00000000000E+00 -0.10872768136E+04  0.10872768136E+04  0.25500000000E-02 0.  1.
    5000001    1    1    2    0    0  0.13585687859E+03 -0.10203824097E+03 -0.22019743249E+03  0.33570791375E+03  0.18800000000E+03 0.  0.
   -5000001    1    1    2    0    0 -0.13585687859E+03  0.10203824097E+03 -0.78948879548E+03  0.82915948543E+03  0.18800000000E+03 0.  0.
<mgrwt>
<rscale>  0 0.58090428E+03</rscale>
<asrwt>0</asrwt>
<pdfrwt beam="1">  1        2 0.15532525E+00 0.58090428E+03</pdfrwt>
<pdfrwt beam="2">  1       -2 0.11084370E-01 0.58090428E+03</pdfrwt>
<totfact> 0.14505318E+03</totfact>
</mgrwt>
</event>
<event>
 4    1  0.2346411E-005  0.3972409E+03  0.7818608E-02  0.1044739E+00
          2   -1    0    0  501    0  0.00000000000E+00  0.00000000000E+00  0.73262583641E+03  0.73262583642E+03  0.25500000000E-02 0.  1.
         -2   -1    0    0    0  501 -0.00000000000E+00 -0.00000000000E+00 -0.53847525328E+02  0.53847525388E+02  0.25500000000E-02 0. -1.
    5000001    1    1    2    0    0 -0.37321438670E+02 -0.17268256113E+02  0.43668384267E+03  0.47720840406E+03  0.18800000000E+03 0.  0.
   -5000001    1    1    2    0    0  0.37321438670E+02  0.17268256113E+02  0.24209446841E+03  0.30926495775E+03  0.18800000000E+03 0.  0.
<mgrwt>
<rscale>  0 0.39724093E+03</rscale>
<asrwt>0</asrwt>
<pdfrwt beam="1">  1        2 0.10466083E+00 0.39724093E+03</pdfrwt>
<pdfrwt beam="2">  1       -2 0.76925040E-02 0.39724093E+03</pdfrwt>
<totfact> 0.43968172E+03</totfact>
</mgrwt>
</event>
<event>
 4    1  0.2346411E-005  0.7355120E+03  0.7818608E-02  0.9658358E-01
          2   -1    0    0  501    0  0.00000000000E+00  0.00000000000E+00  0.49363290466E+03  0.49363290467E+03  0.25500000000E-02 0.  1.
         -2   -1    0    0    0  501 -0.00000000000E+00 -0.00000000000E+00 -0.27397783020E+03  0.27397783021E+03  0.25500000000E-02 0. -1.
    5000001    1    1    2    0    0  0.28501220269E+03  0.12630130528E+03  0.55432926012E+02  0.36824011824E+03  0.18800000000E+03 0.  0.
   -5000001    1    1    2    0    0 -0.28501220269E+03 -0.12630130528E+03  0.16422214845E+03  0.39937061664E+03  0.18800000000E+03 0.  0.
<mgrwt>
<rscale>  0 0.73551199E+03</rscale>
<asrwt>0</asrwt>
<pdfrwt beam="1">  1        2 0.70518986E-01 0.73551199E+03</pdfrwt>
<pdfrwt beam="2">  1       -2 0.39139690E-01 0.73551199E+03</pdfrwt>
<totfact> 0.42303197E+02</totfact>
</mgrwt>
</event>
<event>
 4    1  0.2346411E-005  0.5451790E+03  0.7818608E-02  0.1002616E+00
         -2   -1    0    0    0  501 -0.00000000000E+00  0.00000000000E+00  0.82659662164E+02  0.82659662203E+02  0.25500000000E-02 0. -1.
          2   -1    0    0  501    0  0.00000000000E+00 -0.00000000000E+00 -0.89892745945E+03  0.89892745945E+03  0.25500000000E-02 0.  1.
    5000001    1    1    2    0    0 -0.16731221801E+03 -0.10472304877E+03 -0.40968784617E+03  0.49208579184E+03  0.18800000000E+03 0.  0.
   -5000001    1    1    2    0    0  0.16731221801E+03  0.10472304877E+03 -0.40657995112E+03  0.48950132981E+03  0.18800000000E+03 0.  0.
<mgrwt>
<rscale>  0 0.54517902E+03</rscale>
<asrwt>0</asrwt>
<pdfrwt beam="1">  1        2 0.12841820E+00 0.54517902E+03</pdfrwt>
<pdfrwt beam="2">  1       -2 0.11808524E-01 0.54517902E+03</pdfrwt>
<totfact> 0.17057934E+03</totfact>
</mgrwt>
</event>
<event>
 4    1  0.2346411E-005  0.5929246E+03  0.7818608E-02  0.9920195E-01
         -2   -1    0    0    0  501 -0.00000000000E+00  0.00000000000E+00  0.96071952327E+02  0.96071952361E+02  0.25500000000E-02 0. -1.
          2   -1    0    0  501    0  0.00000000000E+00 -0.00000000000E+00 -0.91483419938E+03  0.91483419938E+03  0.25500000000E-02 0.  1.
    5000001    1    1    2    0    0  0.14822304486E+03 -0.11664054286E+03 -0.18727386190E+03  0.32556195511E+03  0.18800000000E+03 0.  0.
   -5000001    1    1    2    0    0 -0.14822304486E+03  0.11664054286E+03 -0.63148838516E+03  0.68534419663E+03  0.18800000000E+03 0.  0.
<mgrwt>
<rscale>  0 0.59292464E+03</rscale>
<asrwt>0</asrwt>
<pdfrwt beam="1">  1        2 0.13069059E+00 0.59292464E+03</pdfrwt>
<pdfrwt beam="2">  1       -2 0.13724565E-01 0.59292464E+03</pdfrwt>
<totfact> 0.12985588E+03</totfact>
</mgrwt>
</event>
<event>
 4    1  0.2346411E-005  0.4496063E+03  0.7818608E-02  0.1027839E+00
          2   -1    0    0  501    0  0.00000000000E+00  0.00000000000E+00  0.20978277965E+04  0.20978277965E+04  0.25500000000E-02 0.  1.
         -2   -1    0    0    0  501 -0.00000000000E+00 -0.00000000000E+00 -0.24089902262E+02  0.24089902397E+02  0.25500000000E-02 0. -1.
    5000001    1    1    2    0    0  0.19082194983E+02  0.12172533572E+03  0.10210187274E+04  0.10454685214E+04  0.18800000000E+03 0.  0.
   -5000001    1    1    2    0    0 -0.19082194983E+02 -0.12172533572E+03  0.10527191668E+04  0.10764491774E+04  0.18800000000E+03 0.  0.
<mgrwt>
<rscale>  0 0.44960635E+03</rscale>
<asrwt>0</asrwt>
<pdfrwt beam="1">  1        2 0.29968967E+00 0.44960635E+03</pdfrwt>
<pdfrwt beam="2">  1       -2 0.34414148E-02 0.44960635E+03</pdfrwt>
<totfact> 0.27095845E+03</totfact>
</mgrwt>
</event>
<event>
 4    1  0.2346411E-005  0.5590904E+03  0.7818608E-02  0.9994115E-01
          2   -1    0    0  501    0  0.00000000000E+00  0.00000000000E+00  0.24133577237E+04  0.24133577237E+04  0.25500000000E-02 0.  1.
         -2   -1    0    0    0  501 -0.00000000000E+00 -0.00000000000E+00 -0.32380414255E+02  0.32380414356E+02  0.25500000000E-02 0. -1.
    5000001    1    1    2    0    0  0.17485450771E+03  0.63527227459E+02  0.79456145457E+03  0.83742564601E+03  0.18800000000E+03 0.  0.
   -5000001    1    1    2    0    0 -0.17485450771E+03 -0.63527227459E+02  0.15864158548E+04  0.16083124920E+04  0.18800000000E+03 0.  0.
<mgrwt>
<rscale>  0 0.55909041E+03</rscale>
<asrwt>0</asrwt>
<pdfrwt beam="1">  1        2 0.34476544E+00 0.55909041E+03</pdfrwt>
<pdfrwt beam="2">  1       -2 0.46257728E-02 0.55909041E+03</pdfrwt>
<totfact> 0.11895526E+03</totfact>
</mgrwt>
</event>
<event>
 4    1  0.2346411E-005  0.5335890E+03  0.7818608E-02  0.1005365E+00
          2   -1    0    0  501    0  0.00000000000E+00  0.00000000000E+00  0.82972383350E+03  0.82972383350E+03  0.25500000000E-02 0. -1.
         -2   -1    0    0    0  501 -0.00000000000E+00 -0.00000000000E+00 -0.85786745999E+02  0.85786746037E+02  0.25500000000E-02 0.  1.
    5000001    1    1    2    0    0  0.14858528148E+03  0.10800311395E+03  0.45046430726E+03  0.52154036336E+03  0.18800000000E+03 0.  0.
   -5000001    1    1    2    0    0 -0.14858528148E+03 -0.10800311395E+03  0.29347278024E+03  0.39397021618E+03  0.18800000000E+03 0.  0.
<mgrwt>
<rscale>  0 0.53358901E+03</rscale>
<asrwt>0</asrwt>
<pdfrwt beam="1">  1        2 0.11853198E+00 0.53358901E+03</pdfrwt>
<pdfrwt beam="2">  1       -2 0.12255249E-01 0.53358901E+03</pdfrwt>
<totfact> 0.17826494E+03</totfact>
</mgrwt>
</event>
<event>
 4    1  0.2346411E-005  0.8291622E+03  0.7818608E-02  0.9518740E-01
         -2   -1    0    0    0  501 -0.00000000000E+00  0.00000000000E+00  0.18456151623E+03  0.18456151624E+03  0.25500000000E-02 0. -1.
          2   -1    0    0  501    0  0.00000000000E+00 -0.00000000000E+00 -0.93127482531E+03  0.93127482532E+03  0.25500000000E-02 0.  1.
    5000001    1    1    2    0    0 -0.33880253625E+03 -0.13080994300E+03 -0.46497665188E+03  0.61922991412E+03  0.18800000000E+03 0.  0.
   -5000001    1    1    2    0    0  0.33880253625E+03  0.13080994300E+03 -0.28173665721E+03  0.49660642744E+03  0.18800000000E+03 0.  0.
<mgrwt>
<rscale>  0 0.82916221E+03</rscale>
<asrwt>0</asrwt>
<pdfrwt beam="1">  1        2 0.13303926E+00 0.82916221E+03</pdfrwt>
<pdfrwt beam="2">  1       -2 0.26365932E-01 0.82916221E+03</pdfrwt>
<totfact> 0.40449494E+02</totfact>
</mgrwt>
</event>
<event>
 4    1  0.2346411E-005  0.6530877E+03  0.7818608E-02  0.9801002E-01
          2   -1    0    0  501    0  0.00000000000E+00  0.00000000000E+00  0.12762403626E+04  0.12762403626E+04  0.25500000000E-02 0. -1.
         -2   -1    0    0    0  501 -0.00000000000E+00 -0.00000000000E+00 -0.83550797074E+02  0.83550797113E+02  0.25500000000E-02 0.  1.
    5000001    1    1    2    0    0 -0.21197331773E+03 -0.46423480481E+01  0.93421355473E+03  0.97624443899E+03  0.18800000000E+03 0.  0.
   -5000001    1    1    2    0    0  0.21197331773E+03  0.46423480481E+01  0.25847601082E+03  0.38354672074E+03  0.18800000000E+03 0.  0.
<mgrwt>
<rscale>  0 0.65308774E+03</rscale>
<asrwt>0</asrwt>
<pdfrwt beam="1">  1        2 0.18232005E+00 0.65308774E+03</pdfrwt>
<pdfrwt beam="2">  1       -2 0.11935828E-01 0.65308774E+03</pdfrwt>
<totfact> 0.10025449E+03</totfact>
</mgrwt>
</event>
<event>
 4    1  0.2346411E-005  0.5507525E+03  0.7818608E-02  0.1001320E+00
          2   -1    0    0  501    0  0.00000000000E+00  0.00000000000E+00  0.11340687250E+04  0.11340687250E+04  0.25500000000E-02 0.  1.
         -2   -1    0    0    0  501 -0.00000000000E+00 -0.00000000000E+00 -0.66867267691E+02  0.66867267739E+02  0.25500000000E-02 0. -1.
    5000001    1    1    2    0    0  0.11890159396E+03  0.60156540894E+02  0.20484059901E+03  0.30831813028E+03  0.18800000000E+03 0.  0.
   -5000001    1    1    2    0    0 -0.11890159396E+03 -0.60156540894E+02  0.86236085830E+03  0.89261786246E+03  0.18800000000E+03 0.  0.
<mgrwt>
<rscale>  0 0.55075249E+03</rscale>
<asrwt>0</asrwt>
<pdfrwt beam="1">  1        2 0.16200981E+00 0.55075249E+03</pdfrwt>
<pdfrwt beam="2">  1       -2 0.95524674E-02 0.55075249E+03</pdfrwt>
<totfact> 0.17359323E+03</totfact>
</mgrwt>
</event>
<event>
 4    1  0.2346411E-005  0.5230957E+03  0.7818608E-02  0.1007920E+00
         -2   -1    0    0    0  501 -0.00000000000E+00  0.00000000000E+00  0.37267261894E+02  0.37267261982E+02  0.25500000000E-02 0. -1.
          2   -1    0    0  501    0  0.00000000000E+00 -0.00000000000E+00 -0.18355865772E+04  0.18355865772E+04  0.25500000000E-02 0.  1.
    5000001    1    1    2    0    0 -0.15292255304E+03  0.63289938160E+02 -0.11688123064E+04  0.11953481213E+04  0.18800000000E+03 0.  0.
   -5000001    1    1    2    0    0  0.15292255304E+03 -0.63289938160E+02 -0.62950700887E+03  0.67750571785E+03  0.18800000000E+03 0.  0.
<mgrwt>
<rscale>  0 0.52309573E+03</rscale>
<asrwt>0</asrwt>
<pdfrwt beam="1">  1        2 0.26222660E+00 0.52309573E+03</pdfrwt>
<pdfrwt beam="2">  1       -2 0.53238957E-02 0.52309573E+03</pdfrwt>
<totfact> 0.18705410E+03</totfact>
</mgrwt>
</event>
<event>
 4    1  0.2346411E-005  0.5463041E+03  0.7818608E-02  0.1002353E+00
          2   -1    0    0  501    0  0.00000000000E+00  0.00000000000E+00  0.53326748370E+03  0.53326748370E+03  0.25500000000E-02 0.  1.
         -2   -1    0    0    0  501 -0.00000000000E+00 -0.00000000000E+00 -0.13991483873E+03  0.13991483876E+03  0.25500000000E-02 0. -1.
    5000001    1    1    2    0    0 -0.86216090947E+02  0.10189235108E+03  0.16191810185E+02  0.23113078606E+03  0.18800000000E+03 0.  0.
   -5000001    1    1    2    0    0  0.86216090947E+02 -0.10189235108E+03  0.37716083478E+03  0.44205153640E+03  0.18800000000E+03 0.  0.
<mgrwt>
<rscale>  0 0.54630407E+03</rscale>
<asrwt>0</asrwt>
<pdfrwt beam="1">  1        2 0.76181069E-01 0.54630407E+03</pdfrwt>
<pdfrwt beam="2">  1       -2 0.19987834E-01 0.54630407E+03</pdfrwt>
<totfact> 0.13307083E+03</totfact>
</mgrwt>
</event>
<event>
 4    1  0.2346411E-005  0.5359975E+03  0.7818608E-02  0.1004788E+00
         -2   -1    0    0    0  501 -0.00000000000E+00  0.00000000000E+00  0.30205589200E+03  0.30205589201E+03  0.25500000000E-02 0. -1.
          2   -1    0    0  501    0  0.00000000000E+00 -0.00000000000E+00 -0.23778163130E+03  0.23778163132E+03  0.25500000000E-02 0.  1.
    5000001    1    1    2    0    0  0.97977941495E+01 -0.17874296324E+03 -0.34930468247E+02  0.26193354365E+03  0.18800000000E+03 0.  0.
   -5000001    1    1    2    0    0 -0.97977941495E+01  0.17874296324E+03  0.99204728943E+02  0.27790397968E+03  0.18800000000E+03 0.  0.
<mgrwt>
<rscale>  0 0.53599755E+03</rscale>
<asrwt>0</asrwt>
<pdfrwt beam="1">  1        2 0.33968805E-01 0.53599755E+03</pdfrwt>
<pdfrwt beam="2">  1       -2 0.43150841E-01 0.53599755E+03</pdfrwt>
<totfact> 0.79111534E+02</totfact>
</mgrwt>
</event>
<event>
 4    1  0.2346411E-005  0.4108003E+03  0.7818608E-02  0.1040103E+00
         -2   -1    0    0    0  501 -0.00000000000E+00  0.00000000000E+00  0.17587636405E+02  0.17587636589E+02  0.25500000000E-02 0. -1.
          2   -1    0    0  501    0  0.00000000000E+00 -0.00000000000E+00 -0.23988002788E+04  0.23988002788E+04  0.25500000000E-02 0.  1.
    5000001    1    1    2    0    0 -0.72827185232E+02 -0.29957358196E+02 -0.10413358894E+04  0.10610964503E+04  0.18800000000E+03 0.  0.
   -5000001    1    1    2    0    0  0.72827185232E+02  0.29957358196E+02 -0.13398767530E+04  0.13552914651E+04  0.18800000000E+03 0.  0.
<mgrwt>
<rscale>  0 0.41080033E+03</rscale>
<asrwt>0</asrwt>
<pdfrwt beam="1">  1        2 0.34268555E+00 0.41080033E+03</pdfrwt>
<pdfrwt beam="2">  1       -2 0.25125210E-02 0.41080033E+03</pdfrwt>
<totfact> 0.30846823E+03</totfact>
</mgrwt>
</event>
<event>
 4    1  0.2346411E-005  0.4497881E+03  0.7818608E-02  0.1027785E+00
         -2   -1    0    0    0  501 -0.00000000000E+00  0.00000000000E+00  0.51587813658E+02  0.51587813721E+02  0.25500000000E-02 0. -1.
          2   -1    0    0  501    0  0.00000000000E+00 -0.00000000000E+00 -0.98041251517E+03  0.98041251517E+03  0.25500000000E-02 0.  1.
    5000001    1    1    2    0    0 -0.11544714768E+03  0.26081311218E+02 -0.54471880328E+03  0.58827787087E+03  0.18800000000E+03 0.  0.
   -5000001    1    1    2    0    0  0.11544714768E+03 -0.26081311218E+02 -0.38410589823E+03  0.44372245802E+03  0.18800000000E+03 0.  0.
<mgrwt>
<rscale>  0 0.44978812E+03</rscale>
<asrwt>0</asrwt>
<pdfrwt beam="1">  1        2 0.14005892E+00 0.44978812E+03</pdfrwt>
<pdfrwt beam="2">  1       -2 0.73696883E-02 0.44978812E+03</pdfrwt>
<totfact> 0.32333379E+03</totfact>
</mgrwt>
</event>
<event>
 4    1  0.2346411E-005  0.1204359E+04  0.7818608E-02  0.9109050E-01
          2   -1    0    0  501    0  0.00000000000E+00  0.00000000000E+00  0.86548108365E+03  0.86548108365E+03  0.25500000000E-02 0.  1.
         -2   -1    0    0    0  501 -0.00000000000E+00 -0.00000000000E+00 -0.41898102383E+03  0.41898102384E+03  0.25500000000E-02 0. -1.
    5000001    1    1    2    0    0 -0.50907009346E+03  0.21329925460E+03  0.38367830695E+03  0.69799854963E+03  0.18800000000E+03 0.  0.
   -5000001    1    1    2    0    0  0.50907009346E+03 -0.21329925460E+03  0.62821752868E+02  0.58646355786E+03  0.18800000000E+03 0.  0.
<mgrwt>
<rscale>  0 0.12043590E+04</rscale>
<asrwt>0</asrwt>
<pdfrwt beam="1">  1        2 0.12364015E+00 0.12043590E+04</pdfrwt>
<pdfrwt beam="2">  1       -2 0.59854433E-01 0.12043590E+04</pdfrwt>
<totfact> 0.88088589E+01</totfact>
</mgrwt>
</event>
<event>
 4    1  0.2346411E-005  0.4897860E+03  0.7818608E-02  0.1016480E+00
          2   -1    0    0  501    0  0.00000000000E+00  0.00000000000E+00  0.10849309129E+03  0.10849309132E+03  0.25500000000E-02 0.  1.
         -2   -1    0    0    0  501 -0.00000000000E+00 -0.00000000000E+00 -0.55277795153E+03  0.55277795153E+03  0.25500000000E-02 0. -1.
    5000001    1    1    2    0    0  0.13619566519E+03  0.74913833985E+02 -0.25132653570E+03  0.35024330013E+03  0.18800000000E+03 0.  0.
   -5000001    1    1    2    0    0 -0.13619566519E+03 -0.74913833985E+02 -0.19295832454E+03  0.31102774273E+03  0.18800000000E+03 0.  0.
<mgrwt>
<rscale>  0 0.48978603E+03</rscale>
<asrwt>0</asrwt>
<pdfrwt beam="1">  1        2 0.15499013E-01 0.48978603E+03</pdfrwt>
<pdfrwt beam="2">  1       -2 0.78968277E-01 0.48978603E+03</pdfrwt>
<totfact> 0.55281505E+02</totfact>
</mgrwt>
</event>
<event>
 4    1  0.2346411E-005  0.4743456E+03  0.7818608E-02  0.1020701E+00
          2   -1    0    0  501    0  0.00000000000E+00  0.00000000000E+00  0.18552620673E+03  0.18552620675E+03  0.25500000000E-02 0.  1.
         -2   -1    0    0    0  501 -0.00000000000E+00 -0.00000000000E+00 -0.30319677957E+03  0.30319677958E+03  0.25500000000E-02 0. -1.
    5000001    1    1    2    0    0 -0.75313465723E+02 -0.97934259573E+02 -0.13623693888E+03  0.26299760613E+03  0.18800000000E+03 0.  0.
   -5000001    1    1    2    0    0  0.75313465723E+02  0.97934259573E+02  0.18566366037E+02  0.22572538020E+03  0.18800000000E+03 0.  0.
<mgrwt>
<rscale>  0 0.47434565E+03</rscale>
<asrwt>0</asrwt>
<pdfrwt beam="1">  1        2 0.26503744E-01 0.47434565E+03</pdfrwt>
<pdfrwt beam="2">  1       -2 0.43313825E-01 0.47434565E+03</pdfrwt>
<totfact> 0.10366756E+03</totfact>
</mgrwt>
</event>
<event>
 4    1  0.2346411E-005  0.4120324E+03  0.7818608E-02  0.1039691E+00
         -2   -1    0    0    0  501 -0.00000000000E+00  0.00000000000E+00  0.82681568695E+02  0.82681568735E+02  0.25500000000E-02 0. -1.
          2   -1    0    0  501    0  0.00000000000E+00 -0.00000000000E+00 -0.51332699369E+03  0.51332699370E+03  0.25500000000E-02 0.  1.
    5000001    1    1    2    0    0  0.71918300023E+02 -0.43745733506E+02 -0.22048778777E+03  0.30173630148E+03  0.18800000000E+03 0.  0.
   -5000001    1    1    2    0    0 -0.71918300023E+02  0.43745733506E+02 -0.21015763723E+03  0.29427226095E+03  0.18800000000E+03 0.  0.
<mgrwt>
<rscale>  0 0.41203243E+03</rscale>
<asrwt>0</asrwt>
<pdfrwt beam="1">  1        2 0.73332426E-01 0.41203243E+03</pdfrwt>
<pdfrwt beam="2">  1       -2 0.11811653E-01 0.41203243E+03</pdfrwt>
<totfact> 0.33569945E+03</totfact>
</mgrwt>
</event>
<event>
 4    1  0.2346411E-005  0.4576235E+03  0.7818608E-02  0.1025473E+00
         -2   -1    0    0    0  501 -0.00000000000E+00  0.00000000000E+00  0.23732092574E+02  0.23732092711E+02  0.25500000000E-02 0. -1.
          2   -1    0    0  501    0  0.00000000000E+00 -0.00000000000E+00 -0.22060770087E+04  0.22060770087E+04  0.25500000000E-02 0.  1.
    5000001    1    1    2    0    0  0.74969171768E+02  0.10308126371E+03 -0.12259150722E+04  0.12467790052E+04  0.18800000000E+03 0.  0.
   -5000001    1    1    2    0    0 -0.74969171768E+02 -0.10308126371E+03 -0.95642984396E+03  0.98303009622E+03  0.18800000000E+03 0.  0.
<mgrwt>
<rscale>  0 0.45762353E+03</rscale>
<asrwt>0</asrwt>
<pdfrwt beam="1">  1        2 0.31515373E+00 0.45762353E+03</pdfrwt>
<pdfrwt beam="2">  1       -2 0.33903003E-02 0.45762353E+03</pdfrwt>
<totfact> 0.24473642E+03</totfact>
</mgrwt>
</event>
<event>
 4    1  0.2346411E-005  0.3834094E+03  0.7818608E-02  0.1049681E+00
          2   -1    0    0  501    0  0.00000000000E+00  0.00000000000E+00  0.10590548465E+04  0.10590548466E+04  0.25500000000E-02 0.  1.
         -2   -1    0    0    0  501 -0.00000000000E+00 -0.00000000000E+00 -0.34701403798E+02  0.34701403892E+02  0.25500000000E-02 0. -1.
    5000001    1    1    2    0    0 -0.31142836385E+02 -0.25030105184E+01  0.57136952337E+03  0.60231492888E+03  0.18800000000E+03 0.  0.
   -5000001    1    1    2    0    0  0.31142836385E+02  0.25030105184E+01  0.45298391938E+03  0.49144132156E+03  0.18800000000E+03 0.  0.
<mgrwt>
<rscale>  0 0.38340939E+03</rscale>
<asrwt>0</asrwt>
<pdfrwt beam="1">  1        2 0.15129355E+00 0.38340939E+03</pdfrwt>
<pdfrwt beam="2">  1       -2 0.49573435E-02 0.38340939E+03</pdfrwt>
<totfact> 0.53650741E+03</totfact>
</mgrwt>
</event>
<event>
 4    1  0.2346411E-005  0.5304885E+03  0.7818608E-02  0.1006114E+00
          2   -1    0    0  501    0  0.00000000000E+00  0.00000000000E+00  0.18319329017E+03  0.18319329019E+03  0.25500000000E-02 0.  1.
         -2   -1    0    0    0  501 -0.00000000000E+00 -0.00000000000E+00 -0.38404519979E+03  0.38404519980E+03  0.25500000000E-02 0. -1.
    5000001    1    1    2    0    0 -0.12770766593E+03 -0.11886689926E+03 -0.28125859730E+02  0.25801870410E+03  0.18800000000E+03 0.  0.
   -5000001    1    1    2    0    0  0.12770766593E+03  0.11886689926E+03 -0.17272604988E+03  0.30921978589E+03  0.18800000000E+03 0.  0.
<mgrwt>
<rscale>  0 0.53048847E+03</rscale>
<asrwt>0</asrwt>
<pdfrwt beam="1">  1        2 0.26170470E-01 0.53048847E+03</pdfrwt>
<pdfrwt beam="2">  1       -2 0.54863600E-01 0.53048847E+03</pdfrwt>
<totfact> 0.65391156E+02</totfact>
</mgrwt>
</event>
<event>
 4    1  0.2346411E-005  0.6471054E+03  0.7818608E-02  0.9812226E-01
          2   -1    0    0  501    0  0.00000000000E+00  0.00000000000E+00  0.25455127438E+04  0.25455127438E+04  0.25500000000E-02 0.  1.
         -2   -1    0    0    0  501 -0.00000000000E+00 -0.00000000000E+00 -0.41125845306E+02  0.41125845385E+02  0.25500000000E-02 0. -1.
    5000001    1    1    2    0    0 -0.11516456197E+03 -0.20118479968E+03  0.75287116840E+03  0.80987480277E+03  0.18800000000E+03 0.  0.
   -5000001    1    1    2    0    0  0.11516456197E+03  0.20118479968E+03  0.17515157301E+04  0.17767637864E+04  0.18800000000E+03 0.  0.
<mgrwt>
<rscale>  0 0.64710544E+03</rscale>
<asrwt>0</asrwt>
<pdfrwt beam="1">  1        2 0.36364466E+00 0.64710544E+03</pdfrwt>
<pdfrwt beam="2">  1       -2 0.58751210E-02 0.64710544E+03</pdfrwt>
<totfact> 0.69733420E+02</totfact>
</mgrwt>
</event>
<event>
 4    1  0.2346411E-005  0.6644538E+03  0.7818608E-02  0.9780029E-01
         -2   -1    0    0    0  501 -0.00000000000E+00  0.00000000000E+00  0.17408076832E+03  0.17408076834E+03  0.25500000000E-02 0. -1.
          2   -1    0    0  501    0  0.00000000000E+00 -0.00000000000E+00 -0.63404312241E+03  0.63404312242E+03  0.25500000000E-02 0.  1.
    5000001    1    1    2    0    0 -0.14759971484E+03 -0.10899091521E+03 -0.47734433453E+03  0.54485439260E+03  0.18800000000E+03 0.  0.
   -5000001    1    1    2    0    0  0.14759971484E+03  0.10899091521E+03  0.17381980441E+02  0.26326949817E+03  0.18800000000E+03 0.  0.
<mgrwt>
<rscale>  0 0.66445380E+03</rscale>
<asrwt>0</asrwt>
<pdfrwt beam="1">  1        2 0.90577588E-01 0.66445380E+03</pdfrwt>
<pdfrwt beam="2">  1       -2 0.24868681E-01 0.66445380E+03</pdfrwt>
<totfact> 0.73752719E+02</totfact>
</mgrwt>
</event>
<event>
 4    1  0.2346411E-005  0.5732231E+03  0.7818608E-02  0.9962572E-01
          2   -1    0    0  501    0  0.00000000000E+00  0.00000000000E+00  0.66842187674E+03  0.66842187674E+03  0.25500000000E-02 0.  1.
         -2   -1    0    0    0  501 -0.00000000000E+00 -0.00000000000E+00 -0.12289569527E+03  0.12289569529E+03  0.25500000000E-02 0. -1.
    5000001    1    1    2    0    0  0.18248182129E+03 -0.49924475596E+02  0.12791164296E+03  0.29579969028E+03  0.18800000000E+03 0.  0.
   -5000001    1    1    2    0    0 -0.18248182129E+03  0.49924475596E+02  0.41761453851E+03  0.49551788176E+03  0.18800000000E+03 0.  0.
<mgrwt>
<rscale>  0 0.57322307E+03</rscale>
<asrwt>0</asrwt>
<pdfrwt beam="1">  1        2 0.95488839E-01 0.57322307E+03</pdfrwt>
<pdfrwt beam="2">  1       -2 0.17556528E-01 0.57322307E+03</pdfrwt>
<totfact> 0.12764292E+03</totfact>
</mgrwt>
</event>
<event>
 4    1  0.2346411E-005  0.8015799E+03  0.7818608E-02  0.9557733E-01
          2   -1    0    0  501    0  0.00000000000E+00  0.00000000000E+00  0.56779750537E+03  0.56779750538E+03  0.25500000000E-02 0.  1.
         -2   -1    0    0    0  501 -0.00000000000E+00 -0.00000000000E+00 -0.28290468112E+03  0.28290468113E+03  0.25500000000E-02 0. -1.
    5000001    1    1    2    0    0  0.11875222068E+03 -0.23394902436E+03 -0.10971544799E+03  0.34090426140E+03  0.18800000000E+03 0.  0.
   -5000001    1    1    2    0    0 -0.11875222068E+03  0.23394902436E+03  0.39460827225E+03  0.50979792511E+03  0.18800000000E+03 0.  0.
<mgrwt>
<rscale>  0 0.80157987E+03</rscale>
<asrwt>0</asrwt>
<pdfrwt beam="1">  1        2 0.81113929E-01 0.80157987E+03</pdfrwt>
<pdfrwt beam="2">  1       -2 0.40414954E-01 0.80157987E+03</pdfrwt>
<totfact> 0.33729672E+02</totfact>
</mgrwt>
</event>
<event>
 4    1  0.2346411E-005  0.1327125E+04  0.7818608E-02  0.9008327E-01
          2   -1    0    0  501    0  0.00000000000E+00  0.00000000000E+00  0.13000440986E+04  0.13000440986E+04  0.25500000000E-02 0.  1.
         -2   -1    0    0    0  501 -0.00000000000E+00 -0.00000000000E+00 -0.33869247188E+03  0.33869247189E+03  0.25500000000E-02 0. -1.
    5000001    1    1    2    0    0 -0.57018001144E+03 -0.20091220163E+03  0.23526316936E+03  0.67539893180E+03  0.18800000000E+03 0.  0.
   -5000001    1    1    2    0    0  0.57018001144E+03  0.20091220163E+03  0.72608845735E+03  0.96333763869E+03  0.18800000000E+03 0.  0.
<mgrwt>
<rscale>  0 0.13271249E+04</rscale>
<asrwt>0</asrwt>
<pdfrwt beam="1">  1        2 0.18572059E+00 0.13271249E+04</pdfrwt>
<pdfrwt beam="2">  1       -2 0.48384638E-01 0.13271249E+04</pdfrwt>
<totfact> 0.74337380E+01</totfact>
</mgrwt>
</event>
<event>
 4    1  0.2346411E-005  0.7132880E+03  0.7818608E-02  0.9694774E-01
         -2   -1    0    0    0  501 -0.00000000000E+00  0.00000000000E+00  0.42943284670E+03  0.42943284671E+03  0.25500000000E-02 0. -1.
          2   -1    0    0  501    0  0.00000000000E+00 -0.00000000000E+00 -0.29619289198E+03  0.29619289199E+03  0.25500000000E-02 0.  1.
    5000001    1    1    2    0    0 -0.15517638841E+03  0.25430867951E+03  0.12324551385E+03  0.37321049379E+03  0.18800000000E+03 0.  0.
   -5000001    1    1    2    0    0  0.15517638841E+03 -0.25430867951E+03  0.99944408705E+01  0.35241524491E+03  0.18800000000E+03 0.  0.
<mgrwt>
<rscale>  0 0.71328804E+03</rscale>
<asrwt>0</asrwt>
<pdfrwt beam="1">  1        2 0.42313271E-01 0.71328804E+03</pdfrwt>
<pdfrwt beam="2">  1       -2 0.61347549E-01 0.71328804E+03</pdfrwt>
<totfact> 0.30151449E+02</totfact>
</mgrwt>
</event>
<event>
 4    1  0.2346411E-005  0.5237754E+03  0.7818608E-02  0.1007753E+00
         -2   -1    0    0    0  501 -0.00000000000E+00  0.00000000000E+00  0.27586401458E+02  0.27586401576E+02  0.25500000000E-02 0. -1.
          2   -1    0    0  501    0  0.00000000000E+00 -0.00000000000E+00 -0.24861943889E+04  0.24861943889E+04  0.25500000000E-02 0.  1.
    5000001    1    1    2    0    0 -0.28222205805E+02  0.15972750026E+03 -0.16288851696E+04  0.16477015091E+04  0.18800000000E+03 0.  0.
   -5000001    1    1    2    0    0  0.28222205805E+02 -0.15972750026E+03 -0.82972281779E+03  0.86607928136E+03  0.18800000000E+03 0.  0.
<mgrwt>
<rscale>  0 0.52377536E+03</rscale>
<asrwt>0</asrwt>
<pdfrwt beam="1">  1        2 0.35517048E+00 0.52377536E+03</pdfrwt>
<pdfrwt beam="2">  1       -2 0.39409161E-02 0.52377536E+03</pdfrwt>
<totfact> 0.14004441E+03</totfact>
</mgrwt>
</event>
<event>
 4    1  0.2346411E-005  0.6408344E+03  0.7818608E-02  0.9824131E-01
         -2   -1    0    0    0  501 -0.00000000000E+00  0.00000000000E+00  0.53967782723E+03  0.53967782723E+03  0.25500000000E-02 0. -1.
          2   -1    0    0  501    0  0.00000000000E+00 -0.00000000000E+00 -0.19023788978E+03  0.19023788980E+03  0.25500000000E-02 0.  1.
    5000001    1    1    2    0    0  0.11715250384E+03 -0.17154041682E+03  0.35180682750E+03  0.44973644241E+03  0.18800000000E+03 0.  0.
   -5000001    1    1    2    0    0 -0.11715250384E+03  0.17154041682E+03 -0.23668900603E+01  0.28017927462E+03  0.18800000000E+03 0.  0.
<mgrwt>
<rscale>  0 0.64083437E+03</rscale>
<asrwt>0</asrwt>
<pdfrwt beam="1">  1        2 0.27176841E-01 0.64083437E+03</pdfrwt>
<pdfrwt beam="2">  1       -2 0.77096833E-01 0.64083437E+03</pdfrwt>
<totfact> 0.30204365E+02</totfact>
</mgrwt>
</event>
<event>
 4    1  0.2346411E-005  0.1133729E+04  0.7818608E-02  0.9172926E-01
         -2   -1    0    0    0  501 -0.00000000000E+00  0.00000000000E+00  0.57089092052E+03  0.57089092052E+03  0.25500000000E-02 0. -1.
          2   -1    0    0  501    0  0.00000000000E+00 -0.00000000000E+00 -0.56286686121E+03  0.56286686121E+03  0.25500000000E-02 0.  1.
    5000001    1    1    2    0    0  0.48482933656E+03  0.20521002880E+03 -0.89910176878E+02  0.56621416568E+03  0.18800000000E+03 0.  0.
   -5000001    1    1    2    0    0 -0.48482933656E+03 -0.20521002880E+03  0.97934236187E+02  0.56754361606E+03  0.18800000000E+03 0.  0.
<mgrwt>
<rscale>  0 0.11337294E+04</rscale>
<asrwt>0</asrwt>
<pdfrwt beam="1">  1        2 0.80409552E-01 0.11337294E+04</pdfrwt>
<pdfrwt beam="2">  1       -2 0.81555846E-01 0.11337294E+04</pdfrwt>
<totfact> 0.76833899E+01</totfact>
</mgrwt>
</event>
<event>
 4    1  0.2346411E-005  0.5008622E+03  0.7818608E-02  0.1013554E+00
          2   -1    0    0  501    0  0.00000000000E+00  0.00000000000E+00  0.28541146996E+04  0.28541146996E+04  0.25500000000E-02 0.  1.
         -2   -1    0    0    0  501 -0.00000000000E+00 -0.00000000000E+00 -0.21973792217E+02  0.21973792365E+02  0.25500000000E-02 0. -1.
    5000001    1    1    2    0    0  0.28216453553E+02 -0.16269850634E+03  0.13572993444E+04  0.13801711787E+04  0.18800000000E+03 0.  0.
   -5000001    1    1    2    0    0 -0.28216453553E+02  0.16269850634E+03  0.14748415630E+04  0.14959173132E+04  0.18800000000E+03 0.  0.
<mgrwt>
<rscale>  0 0.50086215E+03</rscale>
<asrwt>0</asrwt>
<pdfrwt beam="1">  1        2 0.40773051E+00 0.50086215E+03</pdfrwt>
<pdfrwt beam="2">  1       -2 0.31391145E-02 0.50086215E+03</pdfrwt>
<totfact> 0.12775882E+03</totfact>
</mgrwt>
</event>
<event>
 4    1  0.2346411E-005  0.6994488E+03  0.7818608E-02  0.9718175E-01
         -2   -1    0    0    0  501 -0.00000000000E+00  0.00000000000E+00  0.82535571178E+02  0.82535571217E+02  0.25500000000E-02 0. -1.
          2   -1    0    0  501    0  0.00000000000E+00 -0.00000000000E+00 -0.14818721414E+04  0.14818721414E+04  0.25500000000E-02 0.  1.
    5000001    1    1    2    0    0 -0.14708336332E+03  0.22907852279E+03 -0.44610239970E+03  0.55539340686E+03  0.18800000000E+03 0.  0.
   -5000001    1    1    2    0    0  0.14708336332E+03 -0.22907852279E+03 -0.95323417051E+03  0.10090143057E+04  0.18800000000E+03 0.  0.
<mgrwt>
<rscale>  0 0.69944882E+03</rscale>
<asrwt>0</asrwt>
<pdfrwt beam="1">  1        2 0.21169600E+00 0.69944882E+03</pdfrwt>
<pdfrwt beam="2">  1       -2 0.11790797E-01 0.69944882E+03</pdfrwt>
<totfact> 0.79208851E+02</totfact>
</mgrwt>
</event>
<event>
 4    1  0.2346411E-005  0.5794030E+03  0.7818608E-02  0.9949084E-01
         -2   -1    0    0    0  501 -0.00000000000E+00  0.00000000000E+00  0.27199305770E+03  0.27199305771E+03  0.25500000000E-02 0. -1.
          2   -1    0    0  501    0  0.00000000000E+00 -0.00000000000E+00 -0.30856282501E+03  0.30856282502E+03  0.25500000000E-02 0.  1.
    5000001    1    1    2    0    0 -0.38989694987E+02 -0.20392661927E+03  0.55866995591E+02  0.28560704395E+03  0.18800000000E+03 0.  0.
   -5000001    1    1    2    0    0  0.38989694987E+02  0.20392661927E+03 -0.92436762904E+02  0.29494883878E+03  0.18800000000E+03 0.  0.
<mgrwt>
<rscale>  0 0.57940296E+03</rscale>
<asrwt>0</asrwt>
<pdfrwt beam="1">  1        2 0.44080404E-01 0.57940296E+03</pdfrwt>
<pdfrwt beam="2">  1       -2 0.38856151E-01 0.57940296E+03</pdfrwt>
<totfact> 0.72714420E+02</totfact>
</mgrwt>
</event>
<event>
 4    1  0.2346411E-005  0.4923569E+03  0.7818608E-02  0.1015793E+00
          2   -1    0    0  501    0  0.00000000000E+00  0.00000000000E+00  0.29477244284E+03  0.29477244285E+03  0.25500000000E-02 0.  1.
         -2   -1    0    0    0  501 -0.00000000000E+00 -0.00000000000E+00 -0.20559526632E+03  0.20559526634E+03  0.25500000000E-02 0. -1.
    5000001    1    1    2    0    0  0.71618494882E+02 -0.72957275233E+02  0.16825598799E+03  0.27222426474E+03  0.18800000000E+03 0.  0.
   -5000001    1    1    2    0    0 -0.71618494882E+02  0.72957275233E+02 -0.79078811476E+02  0.22814344444E+03  0.18800000000E+03 0.  0.
<mgrwt>
<rscale>  0 0.49235686E+03</rscale>
<asrwt>0</asrwt>
<pdfrwt beam="1">  1        2 0.42110349E-01 0.49235686E+03</pdfrwt>
<pdfrwt beam="2">  1       -2 0.29370752E-01 0.49235686E+03</pdfrwt>
<totfact> 0.12945142E+03</totfact>
</mgrwt>
</event>
<event>
 4    1  0.2346411E-005  0.5374930E+03  0.7818608E-02  0.1004431E+00
          2   -1    0    0  501    0  0.00000000000E+00  0.00000000000E+00  0.14013987847E+04  0.14013987847E+04  0.25500000000E-02 0.  1.
         -2   -1    0    0    0  501 -0.00000000000E+00 -0.00000000000E+00 -0.51537567486E+02  0.51537567549E+02  0.25500000000E-02 0. -1.
    5000001    1    1    2    0    0 -0.19186736124E+03 -0.22866113845E+01  0.65358211812E+03  0.70663420383E+03  0.18800000000E+03 0.  0.
   -5000001    1    1    2    0    0  0.19186736124E+03  0.22866113845E+01  0.69627909912E+03  0.74630214845E+03  0.18800000000E+03 0.  0.
<mgrwt>
<rscale>  0 0.53749301E+03</rscale>
<asrwt>0</asrwt>
<pdfrwt beam="1">  1        2 0.20019986E+00 0.53749301E+03</pdfrwt>
<pdfrwt beam="2">  1       -2 0.73625085E-02 0.53749301E+03</pdfrwt>
<totfact> 0.18778103E+03</totfact>
</mgrwt>
</event>
<event>
 4    1  0.2346411E-005  0.8670660E+03  0.7818608E-02  0.9467714E-01
          2   -1    0    0  501    0  0.00000000000E+00  0.00000000000E+00  0.10037216432E+04  0.10037216432E+04  0.25500000000E-02 0.  1.
         -2   -1    0    0    0  501 -0.00000000000E+00 -0.00000000000E+00 -0.18725396502E+03  0.18725396504E+03  0.25500000000E-02 0. -1.
    5000001    1    1    2    0    0  0.30899904293E+03  0.65335877941E+02  0.72402846245E+03  0.81197931003E+03  0.18800000000E+03 0.  0.
   -5000001    1    1    2    0    0 -0.30899904293E+03 -0.65335877941E+02  0.92439215772E+02  0.37899629825E+03  0.18800000000E+03 0.  0.
<mgrwt>
<rscale>  0 0.86706599E+03</rscale>
<asrwt>0</asrwt>
<pdfrwt beam="1">  1        2 0.14338881E+00 0.86706599E+03</pdfrwt>
<pdfrwt beam="2">  1       -2 0.26750566E-01 0.86706599E+03</pdfrwt>
<totfact> 0.35425640E+02</totfact>
</mgrwt>
</event>
<event>
 4    1  0.2346411E-005  0.5272275E+03  0.7818608E-02  0.1006907E+00
          2   -1    0    0  501    0  0.00000000000E+00  0.00000000000E+00  0.84830724425E+03  0.84830724425E+03  0.25500000000E-02 0.  1.
         -2   -1    0    0    0  501 -0.00000000000E+00 -0.00000000000E+00 -0.81918663955E+02  0.81918663994E+02  0.25500000000E-02 0. -1.
    5000001    1    1    2    0    0  0.31671669229E+02  0.18202604216E+03  0.38920907816E+03  0.47006837926E+03  0.18800000000E+03 0.  0.
   -5000001    1    1    2    0    0 -0.31671669229E+02 -0.18202604216E+03  0.37717950214E+03  0.46015752899E+03  0.18800000000E+03 0.  0.
<mgrwt>
<rscale>  0 0.52722745E+03</rscale>
<asrwt>0</asrwt>
<pdfrwt beam="1">  1        2 0.12118675E+00 0.52722745E+03</pdfrwt>
<pdfrwt beam="2">  1       -2 0.11702666E-01 0.52722745E+03</pdfrwt>
<totfact> 0.18685849E+03</totfact>
</mgrwt>
</event>
<event>
 4    1  0.2346411E-005  0.4966832E+03  0.7818608E-02  0.1014648E+00
          2   -1    0    0  501    0  0.00000000000E+00  0.00000000000E+00  0.51878100575E+03  0.51878100575E+03  0.25500000000E-02 0.  1.
         -2   -1    0    0    0  501 -0.00000000000E+00 -0.00000000000E+00 -0.11888168335E+03  0.11888168338E+03  0.25500000000E-02 0. -1.
    5000001    1    1    2    0    0 -0.58327414479E+01  0.13173450028E+03  0.32134951050E+03  0.39496519763E+03  0.18800000000E+03 0.  0.
   -5000001    1    1    2    0    0  0.58327414479E+01 -0.13173450028E+03  0.78549811891E+02  0.24269749151E+03  0.18800000000E+03 0.  0.
<mgrwt>
<rscale>  0 0.49668324E+03</rscale>
<asrwt>0</asrwt>
<pdfrwt beam="1">  1        2 0.74111572E-01 0.49668324E+03</pdfrwt>
<pdfrwt beam="2">  1       -2 0.16983098E-01 0.49668324E+03</pdfrwt>
<totfact> 0.18166655E+03</totfact>
</mgrwt>
</event>
<event>
 4    1  0.2346411E-005  0.6493098E+03  0.7818608E-02  0.9808075E-01
         -2   -1    0    0    0  501 -0.00000000000E+00  0.00000000000E+00  0.24691008127E+03  0.24691008128E+03  0.25500000000E-02 0. -1.
          2   -1    0    0  501    0  0.00000000000E+00 -0.00000000000E+00 -0.42687929164E+03  0.42687929165E+03  0.25500000000E-02 0.  1.
    5000001    1    1    2    0    0 -0.17616080346E+03 -0.18376940677E+03 -0.16519449603E+03  0.35698325600E+03  0.18800000000E+03 0.  0.
   -5000001    1    1    2    0    0  0.17616080346E+03  0.18376940677E+03 -0.14774714336E+02  0.31680611693E+03  0.18800000000E+03 0.  0.
<mgrwt>
<rscale>  0 0.64930979E+03</rscale>
<asrwt>0</asrwt>
<pdfrwt beam="1">  1        2 0.60982756E-01 0.64930979E+03</pdfrwt>
<pdfrwt beam="2">  1       -2 0.35272869E-01 0.64930979E+03</pdfrwt>
<totfact> 0.61001095E+02</totfact>
</mgrwt>
</event>
<event>
 4    1  0.2346411E-005  0.9939972E+03  0.7818608E-02  0.9315153E-01
          2   -1    0    0  501    0  0.00000000000E+00  0.00000000000E+00  0.19669493068E+03  0.19669493070E+03  0.25500000000E-02 0.  1.
         -2   -1    0    0    0  501 -0.00000000000E+00 -0.00000000000E+00 -0.12557904417E+04  0.12557904417E+04  0.25500000000E-02 0. -1.
    5000001    1    1    2    0    0 -0.30959196605E+03  0.34030425935E+03 -0.52505822015E+03  0.72296909265E+03  0.18800000000E+03 0.  0.
   -5000001    1    1    2    0    0  0.30959196605E+03 -0.34030425935E+03 -0.53403729084E+03  0.72951627973E+03  0.18800000000E+03 0.  0.
<mgrwt>
<rscale>  0 0.99399721E+03</rscale>
<asrwt>0</asrwt>
<pdfrwt beam="1">  1        2 0.28099276E-01 0.99399721E+03</pdfrwt>
<pdfrwt beam="2">  1       -2 0.17939863E+00 0.99399721E+03</pdfrwt>
<totfact> 0.35090062E+01</totfact>
</mgrwt>
</event>
<event>
 4    1  0.2346411E-005  0.6804554E+03  0.7818608E-02  0.9751252E-01
         -2   -1    0    0    0  501 -0.00000000000E+00  0.00000000000E+00  0.25202803212E+03  0.25202803214E+03  0.25500000000E-02 0. -1.
          2   -1    0    0  501    0  0.00000000000E+00 -0.00000000000E+00 -0.45929367678E+03  0.45929367678E+03  0.25500000000E-02 0.  1.
    5000001    1    1    2    0    0 -0.23975593735E+03  0.12501213428E+03 -0.14317492676E+02  0.32963606266E+03  0.18800000000E+03 0.  0.
   -5000001    1    1    2    0    0  0.23975593735E+03 -0.12501213428E+03 -0.19294815198E+03  0.38168564626E+03  0.18800000000E+03 0.  0.
<mgrwt>
<rscale>  0 0.68045538E+03</rscale>
<asrwt>0</asrwt>
<pdfrwt beam="1">  1        2 0.65613382E-01 0.68045538E+03</pdfrwt>
<pdfrwt beam="2">  1       -2 0.36004005E-01 0.68045538E+03</pdfrwt>
<totfact> 0.53993931E+02</totfact>
</mgrwt>
</event>
<event>
 4    1  0.2346411E-005  0.4764241E+03  0.7818608E-02  0.1020123E+00
          2   -1    0    0  501    0  0.00000000000E+00  0.00000000000E+00  0.11417177604E+04  0.11417177604E+04  0.25500000000E-02 0.  1.
         -2   -1    0    0    0  501 -0.00000000000E+00 -0.00000000000E+00 -0.49701408485E+02  0.49701408550E+02  0.25500000000E-02 0. -1.
    5000001    1    1    2    0    0  0.12583358196E+03  0.74516621966E+02  0.53659672584E+03  0.58708335309E+03  0.18800000000E+03 0.  0.
   -5000001    1    1    2    0    0 -0.12583358196E+03 -0.74516621966E+02  0.55541962604E+03  0.60433581582E+03  0.18800000000E+03 0.  0.
<mgrwt>
<rscale>  0 0.47642410E+03</rscale>
<asrwt>0</asrwt>
<pdfrwt beam="1">  1        2 0.16310254E+00 0.47642410E+03</pdfrwt>
<pdfrwt beam="2">  1       -2 0.71002011E-02 0.47642410E+03</pdfrwt>
<totfact> 0.27578249E+03</totfact>
</mgrwt>
</event>
<event>
 4    1  0.2346411E-005  0.6926628E+03  0.7818608E-02  0.9729863E-01
          2   -1    0    0  501    0  0.00000000000E+00  0.00000000000E+00  0.78483623414E+03  0.78483623414E+03  0.25500000000E-02 0.  1.
         -2   -1    0    0    0  501 -0.00000000000E+00 -0.00000000000E+00 -0.15282860385E+03  0.15282860387E+03  0.25500000000E-02 0. -1.
    5000001    1    1    2    0    0 -0.26899392520E+03  0.46957380216E+01  0.16634903027E+03  0.36796165781E+03  0.18800000000E+03 0.  0.
   -5000001    1    1    2    0    0  0.26899392520E+03 -0.46957380216E+01  0.46565860002E+03  0.56970318020E+03  0.18800000000E+03 0.  0.
<mgrwt>
<rscale>  0 0.69266276E+03</rscale>
<asrwt>0</asrwt>
<pdfrwt beam="1">  1        2 0.11211946E+00 0.69266276E+03</pdfrwt>
<pdfrwt beam="2">  1       -2 0.21832658E-01 0.69266276E+03</pdfrwt>
<totfact> 0.71449968E+02</totfact>
</mgrwt>
</event>
<event>
 4    1  0.2346411E-005  0.4885418E+03  0.7818608E-02  0.1016814E+00
         -2   -1    0    0    0  501 -0.00000000000E+00  0.00000000000E+00  0.26204530011E+03  0.26204530012E+03  0.25500000000E-02 0. -1.
          2   -1    0    0  501    0  0.00000000000E+00 -0.00000000000E+00 -0.22770213334E+03  0.22770213336E+03  0.25500000000E-02 0.  1.
    5000001    1    1    2    0    0  0.14397703158E+03 -0.19476045411E+02 -0.39674369243E+02  0.24088743749E+03  0.18800000000E+03 0.  0.
   -5000001    1    1    2    0    0 -0.14397703158E+03  0.19476045411E+02  0.74017536012E+02  0.24885999599E+03  0.18800000000E+03 0.  0.
<mgrwt>
<rscale>  0 0.48854181E+03</rscale>
<asrwt>0</asrwt>
<pdfrwt beam="1">  1        2 0.32528876E-01 0.48854181E+03</pdfrwt>
<pdfrwt beam="2">  1       -2 0.37435043E-01 0.48854181E+03</pdfrwt>
<totfact> 0.10932071E+03</totfact>
</mgrwt>
</event>
<event>
 4    1  0.2346411E-005  0.6299269E+03  0.7818608E-02  0.9845191E-01
          2   -1    0    0  501    0  0.00000000000E+00  0.00000000000E+00  0.80646148373E+03  0.80646148374E+03  0.25500000000E-02 0.  1.
         -2   -1    0    0    0  501 -0.00000000000E+00 -0.00000000000E+00 -0.12300896083E+03  0.12300896086E+03  0.25500000000E-02 0. -1.
    5000001    1    1    2    0    0 -0.35053016687E+02 -0.24749050342E+03  0.28695827209E+03  0.42446355931E+03  0.18800000000E+03 0.  0.
   -5000001    1    1    2    0    0  0.35053016687E+02  0.24749050342E+03  0.39649425081E+03  0.50500688528E+03  0.18800000000E+03 0.  0.
<mgrwt>
<rscale>  0 0.62992695E+03</rscale>
<asrwt>0</asrwt>
<pdfrwt beam="1">  1        2 0.11520878E+00 0.62992695E+03</pdfrwt>
<pdfrwt beam="2">  1       -2 0.17572708E-01 0.62992695E+03</pdfrwt>
<totfact> 0.10083689E+03</totfact>
</mgrwt>
</event>
<event>
 4    1  0.2346411E-005  0.4344378E+03  0.7818608E-02  0.1032467E+00
          2   -1    0    0  501    0  0.00000000000E+00  0.00000000000E+00  0.92126343682E+02  0.92126343717E+02  0.25500000000E-02 0.  1.
         -2   -1    0    0    0  501 -0.00000000000E+00 -0.00000000000E+00 -0.51216663972E+03  0.51216663973E+03  0.25500000000E-02 0. -1.
    5000001    1    1    2    0    0 -0.13452593143E+02  0.10797549404E+03 -0.20918520188E+03  0.30156612585E+03  0.18800000000E+03 0.  0.
   -5000001    1    1    2    0    0  0.13452593143E+02 -0.10797549404E+03 -0.21085509415E+03  0.30272685759E+03  0.18800000000E+03 0.  0.
<mgrwt>
<rscale>  0 0.43443775E+03</rscale>
<asrwt>0</asrwt>
<pdfrwt beam="1">  1        2 0.13160907E-01 0.43443775E+03</pdfrwt>
<pdfrwt beam="2">  1       -2 0.73166661E-01 0.43443775E+03</pdfrwt>
<totfact> 0.79710587E+02</totfact>
</mgrwt>
</event>
<event>
 4    1  0.2346411E-005  0.4078307E+03  0.7818608E-02  0.1041101E+00
         -2   -1    0    0    0  501 -0.00000000000E+00  0.00000000000E+00  0.15865574608E+02  0.15865574813E+02  0.25500000000E-02 0. -1.
          2   -1    0    0  501    0  0.00000000000E+00 -0.00000000000E+00 -0.26208608730E+04  0.26208608730E+04  0.25500000000E-02 0.  1.
    5000001    1    1    2    0    0 -0.33956895209E+02  0.69274321758E+02 -0.11932633463E+04  0.12104434791E+04  0.18800000000E+03 0.  0.
   -5000001    1    1    2    0    0  0.33956895209E+02 -0.69274321758E+02 -0.14117319521E+04  0.14262829687E+04  0.18800000000E+03 0.  0.
<mgrwt>
<rscale>  0 0.40783067E+03</rscale>
<asrwt>0</asrwt>
<pdfrwt beam="1">  1        2 0.37440842E+00 0.40783067E+03</pdfrwt>
<pdfrwt beam="2">  1       -2 0.22665123E-02 0.40783067E+03</pdfrwt>
<totfact> 0.27771485E+03</totfact>
</mgrwt>
</event>
<event>
 4    1  0.2346411E-005  0.6213746E+03  0.7818608E-02  0.9862027E-01
         -2   -1    0    0    0  501 -0.00000000000E+00  0.00000000000E+00  0.12493841770E+03  0.12493841772E+03  0.25500000000E-02 0. -1.
          2   -1    0    0  501    0  0.00000000000E+00 -0.00000000000E+00 -0.77259349172E+03  0.77259349173E+03  0.25500000000E-02 0.  1.
    5000001    1    1    2    0    0 -0.94154720997E+02  0.22838339847E+03 -0.34201360038E+03  0.46188893798E+03  0.18800000000E+03 0.  0.
   -5000001    1    1    2    0    0  0.94154720997E+02 -0.22838339847E+03 -0.30564147365E+03  0.43564297148E+03  0.18800000000E+03 0.  0.
<mgrwt>
<rscale>  0 0.62137463E+03</rscale>
<asrwt>0</asrwt>
<pdfrwt beam="1">  1        2 0.11037050E+00 0.62137463E+03</pdfrwt>
<pdfrwt beam="2">  1       -2 0.17848346E-01 0.62137463E+03</pdfrwt>
<totfact> 0.10370975E+03</totfact>
</mgrwt>
</event>
<event>
 4    1  0.2346411E-005  0.9028756E+03  0.7818608E-02  0.9421994E-01
         -2   -1    0    0    0  501 -0.00000000000E+00  0.00000000000E+00  0.31043582976E+03  0.31043582977E+03  0.25500000000E-02 0. -1.
          2   -1    0    0  501    0  0.00000000000E+00 -0.00000000000E+00 -0.65648384061E+03  0.65648384061E+03  0.25500000000E-02 0.  1.
    5000001    1    1    2    0    0  0.34005939687E+03 -0.16845593060E+03 -0.34042672732E+03  0.54337109845E+03  0.18800000000E+03 0.  0.
   -5000001    1    1    2    0    0 -0.34005939687E+03  0.16845593060E+03 -0.56212835301E+01  0.42354857193E+03  0.18800000000E+03 0.  0.
<mgrwt>
<rscale>  0 0.90287564E+03</rscale>
<asrwt>0</asrwt>
<pdfrwt beam="1">  1        2 0.93783406E-01 0.90287564E+03</pdfrwt>
<pdfrwt beam="2">  1       -2 0.44347976E-01 0.90287564E+03</pdfrwt>
<totfact> 0.23526752E+02</totfact>
</mgrwt>
</event>
<event>
 4    1  0.2346411E-005  0.6021268E+03  0.7818608E-02  0.9901004E-01
         -2   -1    0    0    0  501 -0.00000000000E+00  0.00000000000E+00  0.64885344473E+02  0.64885344523E+02  0.25500000000E-02 0. -1.
          2   -1    0    0  501    0  0.00000000000E+00 -0.00000000000E+00 -0.13969126282E+04  0.13969126283E+04  0.25500000000E-02 0.  1.
    5000001    1    1    2    0    0 -0.13145066871E+03 -0.18311410074E+03 -0.50342667313E+03  0.58274562840E+03  0.18800000000E+03 0.  0.
   -5000001    1    1    2    0    0  0.13145066871E+03  0.18311410074E+03 -0.82860061064E+03  0.87905234438E+03  0.18800000000E+03 0.  0.
<mgrwt>
<rscale>  0 0.60212675E+03</rscale>
<asrwt>0</asrwt>
<pdfrwt beam="1">  1        2 0.19955893E+00 0.60212675E+03</pdfrwt>
<pdfrwt beam="2">  1       -2 0.92693358E-02 0.60212675E+03</pdfrwt>
<totfact> 0.13050143E+03</totfact>
</mgrwt>
</event>
<event>
 4    1  0.2346411E-005  0.5572424E+03  0.7818608E-02  0.9998314E-01
         -2   -1    0    0    0  501 -0.00000000000E+00  0.00000000000E+00  0.33736757181E+02  0.33736757277E+02  0.25500000000E-02 0. -1.
          2   -1    0    0  501    0  0.00000000000E+00 -0.00000000000E+00 -0.23010443427E+04  0.23010443427E+04  0.25500000000E-02 0.  1.
    5000001    1    1    2    0    0 -0.20391667625E+02  0.19184755898E+03 -0.14318272240E+04  0.14569469810E+04  0.18800000000E+03 0.  0.
   -5000001    1    1    2    0    0  0.20391667625E+02 -0.19184755898E+03 -0.83548036150E+03  0.87783411898E+03  0.18800000000E+03 0.  0.
<mgrwt>
<rscale>  0 0.55724240E+03</rscale>
<asrwt>0</asrwt>
<pdfrwt beam="1">  1        2 0.32872052E+00 0.55724240E+03</pdfrwt>
<pdfrwt beam="2">  1       -2 0.48195382E-02 0.55724240E+03</pdfrwt>
<totfact> 0.12729202E+03</totfact>
</mgrwt>
</event>
<event>
 4    1  0.2346411E-005  0.1146086E+04  0.7818608E-02  0.9161402E-01
         -2   -1    0    0    0  501 -0.00000000000E+00  0.00000000000E+00  0.11646077144E+03  0.11646077147E+03  0.25500000000E-02 0. -1.
          2   -1    0    0  501    0  0.00000000000E+00 -0.00000000000E+00 -0.28196477061E+04  0.28196477061E+04  0.25500000000E-02 0.  1.
    5000001    1    1    2    0    0 -0.31712623520E+03  0.43484814239E+03 -0.15003663616E+04  0.16050249764E+04  0.18800000000E+03 0.  0.
   -5000001    1    1    2    0    0  0.31712623520E+03 -0.43484814239E+03 -0.12028205730E+04  0.13310835011E+04  0.18800000000E+03 0.  0.
<mgrwt>
<rscale>  0 0.11460861E+04</rscale>
<asrwt>0</asrwt>
<pdfrwt beam="1">  1        2 0.40280677E+00 0.11460861E+04</pdfrwt>
<pdfrwt beam="2">  1       -2 0.16637255E-01 0.11460861E+04</pdfrwt>
<totfact> 0.87403823E+01</totfact>
</mgrwt>
</event>
<event>
 4    1  0.2346411E-005  0.1118251E+04  0.7818608E-02  0.9187583E-01
         -2   -1    0    0    0  501 -0.00000000000E+00  0.00000000000E+00  0.10477645300E+03  0.10477645303E+03  0.25500000000E-02 0. -1.
          2   -1    0    0  501    0  0.00000000000E+00 -0.00000000000E+00 -0.29836988164E+04  0.29836988164E+04  0.25500000000E-02 0.  1.
    5000001    1    1    2    0    0 -0.30214647221E+03  0.37336814823E+03 -0.20355482922E+04  0.20998802620E+04  0.18800000000E+03 0.  0.
   -5000001    1    1    2    0    0  0.30214647221E+03 -0.37336814823E+03 -0.84337407122E+03  0.98859500747E+03  0.18800000000E+03 0.  0.
<mgrwt>
<rscale>  0 0.11182511E+04</rscale>
<asrwt>0</asrwt>
<pdfrwt beam="1">  1        2 0.42624263E+00 0.11182511E+04</pdfrwt>
<pdfrwt beam="2">  1       -2 0.14968067E-01 0.11182511E+04</pdfrwt>
<totfact> 0.85403659E+01</totfact>
</mgrwt>
</event>
<event>
 4    1  0.2346411E-005  0.8381619E+03  0.7818608E-02  0.9506365E-01
          2   -1    0    0  501    0  0.00000000000E+00  0.00000000000E+00  0.46792487718E+03  0.46792487719E+03  0.25500000000E-02 0.  1.
         -2   -1    0    0    0  501 -0.00000000000E+00 -0.00000000000E+00 -0.37533557488E+03  0.37533557489E+03  0.25500000000E-02 0. -1.
    5000001    1    1    2    0    0  0.23815200506E+03  0.27498422312E+03  0.13601194175E+03  0.43148111057E+03  0.18800000000E+03 0.  0.
   -5000001    1    1    2    0    0 -0.23815200506E+03 -0.27498422312E+03 -0.43422639452E+02  0.41177934151E+03  0.18800000000E+03 0.  0.
<mgrwt>
<rscale>  0 0.83816192E+03</rscale>
<asrwt>0</asrwt>
<pdfrwt beam="1">  1        2 0.66846411E-01 0.83816192E+03</pdfrwt>
<pdfrwt beam="2">  1       -2 0.53619368E-01 0.83816192E+03</pdfrwt>
<totfact> 0.23870116E+02</totfact>
</mgrwt>
</event>
<event>
 4    1  0.2346411E-005  0.8931865E+03  0.7818608E-02  0.9434139E-01
         -2   -1    0    0    0  501 -0.00000000000E+00  0.00000000000E+00  0.19987276867E+03  0.19987276868E+03  0.25500000000E-02 0. -1.
          2   -1    0    0  501    0  0.00000000000E+00 -0.00000000000E+00 -0.99786239240E+03  0.99786239240E+03  0.25500000000E-02 0.  1.
    5000001    1    1    2    0    0 -0.17156928401E+03  0.36315424304E+03 -0.32823414198E+03  0.55172336856E+03  0.18800000000E+03 0.  0.
   -5000001    1    1    2    0    0  0.17156928401E+03 -0.36315424304E+03 -0.46975548175E+03  0.64601179253E+03  0.18800000000E+03 0.  0.
<mgrwt>
<rscale>  0 0.89318647E+03</rscale>
<asrwt>0</asrwt>
<pdfrwt beam="1">  1        2 0.14255177E+00 0.89318647E+03</pdfrwt>
<pdfrwt beam="2">  1       -2 0.28553253E-01 0.89318647E+03</pdfrwt>
<totfact> 0.31656241E+02</totfact>
</mgrwt>
</event>
<event>
 4    1  0.2346411E-005  0.5450695E+03  0.7818608E-02  0.1002642E+00
         -2   -1    0    0    0  501 -0.00000000000E+00  0.00000000000E+00  0.40528441531E+02  0.40528441611E+02  0.25500000000E-02 0. -1.
          2   -1    0    0  501    0  0.00000000000E+00 -0.00000000000E+00 -0.18326682199E+04  0.18326682199E+04  0.25500000000E-02 0.  1.
    5000001    1    1    2    0    0  0.18155318969E+03  0.38428269678E+02 -0.11264232763E+04  0.11569838763E+04  0.18800000000E+03 0.  0.
   -5000001    1    1    2    0    0 -0.18155318969E+03 -0.38428269678E+02 -0.66571650213E+03  0.71621278529E+03  0.18800000000E+03 0.  0.
<mgrwt>
<rscale>  0 0.54506949E+03</rscale>
<asrwt>0</asrwt>
<pdfrwt beam="1">  1        2 0.26180969E+00 0.54506949E+03</pdfrwt>
<pdfrwt beam="2">  1       -2 0.57897785E-02 0.54506949E+03</pdfrwt>
<totfact> 0.16458428E+03</totfact>
</mgrwt>
</event>
<event>
 4    1  0.2346411E-005  0.4741098E+03  0.7818608E-02  0.1020767E+00
          2   -1    0    0  501    0  0.00000000000E+00  0.00000000000E+00  0.70901643512E+03  0.70901643513E+03  0.25500000000E-02 0.  1.
         -2   -1    0    0    0  501 -0.00000000000E+00 -0.00000000000E+00 -0.79257723148E+02  0.79257723189E+02  0.25500000000E-02 0. -1.
    5000001    1    1    2    0    0 -0.13568320701E+03 -0.14000950456E+02  0.39365885220E+03  0.45707466697E+03  0.18800000000E+03 0.  0.
   -5000001    1    1    2    0    0  0.13568320701E+03  0.14000950456E+02  0.23609985978E+03  0.33119949134E+03  0.18800000000E+03 0.  0.
<mgrwt>
<rscale>  0 0.47410981E+03</rscale>
<asrwt>0</asrwt>
<pdfrwt beam="1">  1        2 0.10128806E+00 0.47410981E+03</pdfrwt>
<pdfrwt beam="2">  1       -2 0.11322532E-01 0.47410981E+03</pdfrwt>
<totfact> 0.24702121E+03</totfact>
</mgrwt>
</event>
<event>
 4    1  0.2346411E-005  0.1647044E+04  0.7818608E-02  0.8792157E-01
         -2   -1    0    0    0  501 -0.00000000000E+00  0.00000000000E+00  0.90301833675E+03  0.90301833676E+03  0.25500000000E-02 0. -1.
          2   -1    0    0  501    0  0.00000000000E+00 -0.00000000000E+00 -0.75102386869E+03  0.75102386870E+03  0.25500000000E-02 0.  1.
    5000001    1    1    2    0    0  0.73145766621E+03  0.32234540435E+03  0.13877242154E+03  0.83278968663E+03  0.18800000000E+03 0.  0.
   -5000001    1    1    2    0    0 -0.73145766621E+03 -0.32234540435E+03  0.13222046523E+02  0.82125251883E+03  0.18800000000E+03 0.  0.
<mgrwt>
<rscale>  0 0.16470438E+04</rscale>
<asrwt>0</asrwt>
<pdfrwt beam="1">  1        2 0.10728912E+00 0.16470438E+04</pdfrwt>
<pdfrwt beam="2">  1       -2 0.12900262E+00 0.16470438E+04</pdfrwt>
<totfact> 0.17479621E+01</totfact>
</mgrwt>
</event>
<event>
 4    1  0.2346411E-005  0.3973960E+03  0.7818608E-02  0.1044685E+00
          2   -1    0    0  501    0  0.00000000000E+00  0.00000000000E+00  0.87155899607E+02  0.87155899645E+02  0.25500000000E-02 0.  1.
         -2   -1    0    0    0  501 -0.00000000000E+00 -0.00000000000E+00 -0.45299155793E+03  0.45299155794E+03  0.25500000000E-02 0. -1.
    5000001    1    1    2    0    0 -0.57566659758E+02 -0.25206673824E+02 -0.20153414660E+03  0.28268234640E+03  0.18800000000E+03 0.  0.
   -5000001    1    1    2    0    0  0.57566659758E+02  0.25206673824E+02 -0.16430151172E+03  0.25746511118E+03  0.18800000000E+03 0.  0.
<mgrwt>
<rscale>  0 0.39739596E+03</rscale>
<asrwt>0</asrwt>
<pdfrwt beam="1">  1        2 0.12450843E-01 0.39739596E+03</pdfrwt>
<pdfrwt beam="2">  1       -2 0.64713079E-01 0.39739596E+03</pdfrwt>
<totfact> 0.11102023E+03</totfact>
</mgrwt>
</event>
<event>
 4    1  0.2346411E-005  0.4137264E+03  0.7818608E-02  0.1039128E+00
          2   -1    0    0  501    0  0.00000000000E+00  0.00000000000E+00  0.72267524730E+03  0.72267524731E+03  0.25500000000E-02 0.  1.
         -2   -1    0    0    0  501 -0.00000000000E+00 -0.00000000000E+00 -0.59213850203E+02  0.59213850258E+02  0.25500000000E-02 0. -1.
    5000001    1    1    2    0    0 -0.56882499770E+02 -0.63635232488E+02  0.35588278327E+03  0.41143847295E+03  0.18800000000E+03 0.  0.
   -5000001    1    1    2    0    0  0.56882499770E+02  0.63635232488E+02  0.30757861383E+03  0.37045062462E+03  0.18800000000E+03 0.  0.
<mgrwt>
<rscale>  0 0.41372640E+03</rscale>
<asrwt>0</asrwt>
<pdfrwt beam="1">  1        2 0.10323932E+00 0.41372640E+03</pdfrwt>
<pdfrwt beam="2">  1       -2 0.84591218E-02 0.41372640E+03</pdfrwt>
<totfact> 0.38502891E+03</totfact>
</mgrwt>
</event>
<event>
 4    1  0.2346411E-005  0.5581643E+03  0.7818608E-02  0.9996217E-01
          2   -1    0    0  501    0  0.00000000000E+00  0.00000000000E+00  0.70789535470E+03  0.70789535471E+03  0.25500000000E-02 0.  1.
         -2   -1    0    0    0  501 -0.00000000000E+00 -0.00000000000E+00 -0.11002595201E+03  0.11002595204E+03  0.25500000000E-02 0. -1.
    5000001    1    1    2    0    0  0.84306562195E+01 -0.19238064684E+03  0.40722866437E+03  0.48811942629E+03  0.18800000000E+03 0.  0.
   -5000001    1    1    2    0    0 -0.84306562195E+01  0.19238064684E+03  0.19064073832E+03  0.32980188045E+03  0.18800000000E+03 0.  0.
<mgrwt>
<rscale>  0 0.55816435E+03</rscale>
<asrwt>0</asrwt>
<pdfrwt beam="1">  1        2 0.10112791E+00 0.55816435E+03</pdfrwt>
<pdfrwt beam="2">  1       -2 0.15717993E-01 0.55816435E+03</pdfrwt>
<totfact> 0.14369681E+03</totfact>
</mgrwt>
</event>
<event>
 4    1  0.2346411E-005  0.6837061E+03  0.7818608E-02  0.9745510E-01
          2   -1    0    0  501    0  0.00000000000E+00  0.00000000000E+00  0.12606265582E+04  0.12606265582E+04  0.25500000000E-02 0.  1.
         -2   -1    0    0    0  501 -0.00000000000E+00 -0.00000000000E+00 -0.92702709462E+02  0.92702709497E+02  0.25500000000E-02 0. -1.
    5000001    1    1    2    0    0 -0.30841676841E+02  0.23035204613E+03  0.25567807181E+03  0.39335550154E+03  0.18800000000E+03 0.  0.
   -5000001    1    1    2    0    0  0.30841676841E+02 -0.23035204613E+03  0.91224577688E+03  0.95997376611E+03  0.18800000000E+03 0.  0.
<mgrwt>
<rscale>  0 0.68370607E+03</rscale>
<asrwt>0</asrwt>
<pdfrwt beam="1">  1        2 0.18008950E+00 0.68370607E+03</pdfrwt>
<pdfrwt beam="2">  1       -2 0.13243245E-01 0.68370607E+03</pdfrwt>
<totfact> 0.85984465E+02</totfact>
</mgrwt>
</event>
<event>
 4    1  0.2346411E-005  0.4896799E+03  0.7818608E-02  0.1016508E+00
          2   -1    0    0  501    0  0.00000000000E+00  0.00000000000E+00  0.32827936493E+04  0.32827936493E+04  0.25500000000E-02 0.  1.
         -2   -1    0    0    0  501 -0.00000000000E+00 -0.00000000000E+00 -0.18260847309E+02  0.18260847487E+02  0.25500000000E-02 0. -1.
    5000001    1    1    2    0    0 -0.14597571099E+03 -0.51393991600E+02  0.18044447526E+04  0.18208006799E+04  0.18800000000E+03 0.  0.
   -5000001    1    1    2    0    0  0.14597571099E+03  0.51393991600E+02  0.14600880493E+04  0.14802538169E+04  0.18800000000E+03 0.  0.
<mgrwt>
<rscale>  0 0.48967987E+03</rscale>
<asrwt>0</asrwt>
<pdfrwt beam="1">  1        2 0.46897073E+00 0.48967987E+03</pdfrwt>
<pdfrwt beam="2">  1       -2 0.26086913E-02 0.48967987E+03</pdfrwt>
<totfact> 0.98587457E+02</totfact>
</mgrwt>
</event>
<event>
 4    1  0.2346411E-005  0.6069263E+03  0.7818608E-02  0.9891139E-01
         -2   -1    0    0    0  501 -0.00000000000E+00  0.00000000000E+00  0.80817696528E+02  0.80817696569E+02  0.25500000000E-02 0. -1.
          2   -1    0    0  501    0  0.00000000000E+00 -0.00000000000E+00 -0.11394767574E+04  0.11394767574E+04  0.25500000000E-02 0.  1.
    5000001    1    1    2    0    0  0.46593652927E+02  0.23086157527E+03 -0.60120303879E+03  0.67250065374E+03  0.18800000000E+03 0.  0.
   -5000001    1    1    2    0    0 -0.46593652927E+02 -0.23086157527E+03 -0.45745602203E+03  0.54779380019E+03  0.18800000000E+03 0.  0.
<mgrwt>
<rscale>  0 0.60692631E+03</rscale>
<asrwt>0</asrwt>
<pdfrwt beam="1">  1        2 0.16278238E+00 0.60692631E+03</pdfrwt>
<pdfrwt beam="2">  1       -2 0.11545386E-01 0.60692631E+03</pdfrwt>
<totfact> 0.12650262E+03</totfact>
</mgrwt>
</event>
<event>
 4    1  0.2346411E-005  0.5162882E+03  0.7818608E-02  0.1009613E+00
         -2   -1    0    0    0  501 -0.00000000000E+00  0.00000000000E+00  0.74667252674E+02  0.74667252718E+02  0.25500000000E-02 0. -1.
          2   -1    0    0  501    0  0.00000000000E+00 -0.00000000000E+00 -0.89247134512E+03  0.89247134513E+03  0.25500000000E-02 0.  1.
    5000001    1    1    2    0    0 -0.13373800926E+03  0.36238933635E+02 -0.61491960754E+03  0.65777597947E+03  0.18800000000E+03 0.  0.
   -5000001    1    1    2    0    0  0.13373800926E+03 -0.36238933635E+02 -0.20288448491E+03  0.30936261838E+03  0.18800000000E+03 0.  0.
<mgrwt>
<rscale>  0 0.51628823E+03</rscale>
<asrwt>0</asrwt>
<pdfrwt beam="1">  1        2 0.12749590E+00 0.51628823E+03</pdfrwt>
<pdfrwt beam="2">  1       -2 0.10666751E-01 0.51628823E+03</pdfrwt>
<totfact> 0.20334829E+03</totfact>
</mgrwt>
</event>
<event>
 4    1  0.2346411E-005  0.4149633E+03  0.7818608E-02  0.1038718E+00
          2   -1    0    0  501    0  0.00000000000E+00  0.00000000000E+00  0.33698547634E+04  0.33698547635E+04  0.25500000000E-02 0.  1.
         -2   -1    0    0    0  501 -0.00000000000E+00 -0.00000000000E+00 -0.12774626430E+02  0.12774626685E+02  0.25500000000E-02 0. -1.
    5000001    1    1    2    0    0 -0.67655444128E+02  0.54263373096E+02  0.17887721719E+04  0.18007142072E+04  0.18800000000E+03 0.  0.
   -5000001    1    1    2    0    0  0.67655444128E+02 -0.54263373096E+02  0.15683079651E+04  0.15819151830E+04  0.18800000000E+03 0.  0.
<mgrwt>
<rscale>  0 0.41496331E+03</rscale>
<asrwt>0</asrwt>
<pdfrwt beam="1">  1        2 0.48140680E+00 0.41496331E+03</pdfrwt>
<pdfrwt beam="2">  1       -2 0.18249505E-02 0.41496331E+03</pdfrwt>
<totfact> 0.15132164E+03</totfact>
</mgrwt>
</event>
<event>
 4    1  0.2346411E-005  0.1169995E+04  0.7818608E-02  0.9139533E-01
         -2   -1    0    0    0  501 -0.00000000000E+00  0.00000000000E+00  0.94322781626E+03  0.94322781627E+03  0.25500000000E-02 0. -1.
          2   -1    0    0  501    0  0.00000000000E+00 -0.00000000000E+00 -0.36282021058E+03  0.36282021059E+03  0.25500000000E-02 0.  1.
    5000001    1    1    2    0    0 -0.19219620867E+03 -0.45973425547E+03  0.56038894555E+03  0.77309426241E+03  0.18800000000E+03 0.  0.
   -5000001    1    1    2    0    0  0.19219620867E+03  0.45973425547E+03  0.20018660135E+02  0.53295376445E+03  0.18800000000E+03 0.  0.
<mgrwt>
<rscale>  0 0.11699951E+04</rscale>
<asrwt>0</asrwt>
<pdfrwt beam="1">  1        2 0.51831458E-01 0.11699951E+04</pdfrwt>
<pdfrwt beam="2">  1       -2 0.13474683E+00 0.11699951E+04</pdfrwt>
<totfact> 0.37816395E+01</totfact>
</mgrwt>
</event>
<event>
 4    1  0.2346411E-005  0.6758658E+03  0.7818608E-02  0.9759419E-01
         -2   -1    0    0    0  501 -0.00000000000E+00  0.00000000000E+00  0.16988052578E+03  0.16988052580E+03  0.25500000000E-02 0. -1.
          2   -1    0    0  501    0  0.00000000000E+00 -0.00000000000E+00 -0.67222924746E+03  0.67222924746E+03  0.25500000000E-02 0.  1.
    5000001    1    1    2    0    0 -0.24667459882E+03  0.85624298554E+02 -0.12244201759E+03  0.34426142084E+03  0.18800000000E+03 0.  0.
   -5000001    1    1    2    0    0  0.24667459882E+03 -0.85624298554E+02 -0.37990670408E+03  0.49784835242E+03  0.18800000000E+03 0.  0.
<mgrwt>
<rscale>  0 0.67586584E+03</rscale>
<asrwt>0</asrwt>
<pdfrwt beam="1">  1        2 0.96032748E-01 0.67586584E+03</pdfrwt>
<pdfrwt beam="2">  1       -2 0.24268647E-01 0.67586584E+03</pdfrwt>
<totfact> 0.71795270E+02</totfact>
</mgrwt>
</event>
<event>
 4    1  0.2346411E-005  0.6340669E+03  0.7818608E-02  0.9837145E-01
         -2   -1    0    0    0  501 -0.00000000000E+00  0.00000000000E+00  0.44298744498E+02  0.44298744572E+02  0.25500000000E-02 0. -1.
          2   -1    0    0  501    0  0.00000000000E+00 -0.00000000000E+00 -0.22689178534E+04  0.22689178534E+04  0.25500000000E-02 0.  1.
    5000001    1    1    2    0    0 -0.85525906628E+02 -0.15189211880E+03 -0.17926839633E+04  0.18109239876E+04  0.18800000000E+03 0.  0.
   -5000001    1    1    2    0    0  0.85525906628E+02  0.15189211880E+03 -0.43193514555E+03  0.50229261036E+03  0.18800000000E+03 0.  0.
<mgrwt>
<rscale>  0 0.63406691E+03</rscale>
<asrwt>0</asrwt>
<pdfrwt beam="1">  1        2 0.32413105E+00 0.63406691E+03</pdfrwt>
<pdfrwt beam="2">  1       -2 0.63283935E-02 0.63406691E+03</pdfrwt>
<totfact> 0.85994780E+02</totfact>
</mgrwt>
</event>
<event>
 4    1  0.2346411E-005  0.8716831E+03  0.7818608E-02  0.9461688E-01
         -2   -1    0    0    0  501 -0.00000000000E+00  0.00000000000E+00  0.16829885242E+03  0.16829885244E+03  0.25500000000E-02 0. -1.
          2   -1    0    0  501    0  0.00000000000E+00 -0.00000000000E+00 -0.11286937971E+04  0.11286937971E+04  0.25500000000E-02 0.  1.
    5000001    1    1    2    0    0  0.36462545590E+03 -0.12322484420E+03 -0.59995205826E+03  0.73717199996E+03  0.18800000000E+03 0.  0.
   -5000001    1    1    2    0    0 -0.36462545590E+03  0.12322484420E+03 -0.36044288641E+03  0.55982064957E+03  0.18800000000E+03 0.  0.
<mgrwt>
<rscale>  0 0.87168313E+03</rscale>
<asrwt>0</asrwt>
<pdfrwt beam="1">  1        2 0.16124197E+00 0.87168313E+03</pdfrwt>
<pdfrwt beam="2">  1       -2 0.24042694E-01 0.87168313E+03</pdfrwt>
<totfact> 0.36175636E+02</totfact>
</mgrwt>
</event>
<event>
 4    1  0.2346411E-005  0.4510343E+03  0.7818608E-02  0.1027414E+00
         -2   -1    0    0    0  501 -0.00000000000E+00  0.00000000000E+00  0.67823132068E+02  0.67823132116E+02  0.25500000000E-02 0. -1.
          2   -1    0    0  501    0  0.00000000000E+00 -0.00000000000E+00 -0.74986197439E+03  0.74986197439E+03  0.25500000000E-02 0.  1.
    5000001    1    1    2    0    0  0.15278806038E+02 -0.92273506256E+02 -0.49014329731E+03  0.53322818171E+03  0.18800000000E+03 0.  0.
   -5000001    1    1    2    0    0 -0.15278806038E+02  0.92273506256E+02 -0.19189554501E+03  0.28445692480E+03  0.18800000000E+03 0.  0.
<mgrwt>
<rscale>  0 0.45103431E+03</rscale>
<asrwt>0</asrwt>
<pdfrwt beam="1">  1        2 0.10712313E+00 0.45103431E+03</pdfrwt>
<pdfrwt beam="2">  1       -2 0.96890193E-02 0.45103431E+03</pdfrwt>
<totfact> 0.29658281E+03</totfact>
</mgrwt>
</event>
<event>
 4    1  0.2346411E-005  0.6320843E+03  0.7818608E-02  0.9840990E-01
          2   -1    0    0  501    0  0.00000000000E+00  0.00000000000E+00  0.10729300571E+04  0.10729300571E+04  0.25500000000E-02 0.  1.
         -2   -1    0    0    0  501 -0.00000000000E+00 -0.00000000000E+00 -0.93093342858E+02  0.93093342893E+02  0.25500000000E-02 0. -1.
    5000001    1    1    2    0    0 -0.16035557716E+03 -0.13151321944E+03  0.76059093429E+03  0.81046419251E+03  0.18800000000E+03 0.  0.
   -5000001    1    1    2    0    0  0.16035557716E+03  0.13151321944E+03  0.21924578000E+03  0.35555920753E+03  0.18800000000E+03 0.  0.
<mgrwt>
<rscale>  0 0.63208432E+03</rscale>
<asrwt>0</asrwt>
<pdfrwt beam="1">  1        2 0.15327570E+00 0.63208432E+03</pdfrwt>
<pdfrwt beam="2">  1       -2 0.13299051E-01 0.63208432E+03</pdfrwt>
<totfact> 0.10939609E+03</totfact>
</mgrwt>
</event>
<event>
 4    1  0.2346411E-005  0.7661316E+03  0.7818608E-02  0.9610377E-01
         -2   -1    0    0    0  501 -0.00000000000E+00  0.00000000000E+00  0.23884870302E+03  0.23884870303E+03  0.25500000000E-02 0. -1.
          2   -1    0    0  501    0  0.00000000000E+00 -0.00000000000E+00 -0.61436141026E+03  0.61436141026E+03  0.25500000000E-02 0.  1.
    5000001    1    1    2    0    0  0.10762802876E+03  0.26993472231E+03 -0.49434577254E+01  0.34614590083E+03  0.18800000000E+03 0.  0.
   -5000001    1    1    2    0    0 -0.10762802876E+03 -0.26993472231E+03 -0.37056924951E+03  0.50706421247E+03  0.18800000000E+03 0.  0.
<mgrwt>
<rscale>  0 0.76613165E+03</rscale>
<asrwt>0</asrwt>
<pdfrwt beam="1">  1        2 0.87765915E-01 0.76613165E+03</pdfrwt>
<pdfrwt beam="2">  1       -2 0.34121244E-01 0.76613165E+03</pdfrwt>
<totfact> 0.42608097E+02</totfact>
</mgrwt>
</event>
<event>
 4    1  0.2346411E-005  0.9628886E+03  0.7818608E-02  0.9350211E-01
         -2   -1    0    0    0  501 -0.00000000000E+00  0.00000000000E+00  0.58191168853E+03  0.58191168853E+03  0.25500000000E-02 0. -1.
          2   -1    0    0  501    0  0.00000000000E+00 -0.00000000000E+00 -0.39832262995E+03  0.39832262996E+03  0.25500000000E-02 0.  1.
    5000001    1    1    2    0    0 -0.47799689602E+00 -0.38656527267E+03 -0.12893307528E+03  0.44877686707E+03  0.18800000000E+03 0.  0.
   -5000001    1    1    2    0    0  0.47799689602E+00  0.38656527267E+03  0.31252213386E+03  0.53145745142E+03  0.18800000000E+03 0.  0.
<mgrwt>
<rscale>  0 0.96288856E+03</rscale>
<asrwt>0</asrwt>
<pdfrwt beam="1">  1        2 0.56903233E-01 0.96288856E+03</pdfrwt>
<pdfrwt beam="2">  1       -2 0.83130240E-01 0.96288856E+03</pdfrwt>
<totfact> 0.11024826E+02</totfact>
</mgrwt>
</event>
<event>
 4    1  0.2346411E-005  0.5546050E+03  0.7818608E-02  0.1000434E+00
         -2   -1    0    0    0  501 -0.00000000000E+00  0.00000000000E+00  0.52626462216E+03  0.52626462217E+03  0.25500000000E-02 0. -1.
          2   -1    0    0  501    0  0.00000000000E+00 -0.00000000000E+00 -0.14611789919E+03  0.14611789921E+03  0.25500000000E-02 0.  1.
    5000001    1    1    2    0    0 -0.10855621625E+03 -0.10777425691E+03  0.35341845353E+03  0.42854211676E+03  0.18800000000E+03 0.  0.
   -5000001    1    1    2    0    0  0.10855621625E+03  0.10777425691E+03  0.26728269438E+02  0.24384040462E+03  0.18800000000E+03 0.  0.
<mgrwt>
<rscale>  0 0.55460502E+03</rscale>
<asrwt>0</asrwt>
<pdfrwt beam="1">  1        2 0.20873985E-01 0.55460502E+03</pdfrwt>
<pdfrwt beam="2">  1       -2 0.75180661E-01 0.55460502E+03</pdfrwt>
<totfact> 0.43323509E+02</totfact>
</mgrwt>
</event>
<event>
 4    1  0.2346411E-005  0.4033728E+03  0.7818608E-02  0.1042618E+00
         -2   -1    0    0    0  501 -0.00000000000E+00  0.00000000000E+00  0.39813199115E+02  0.39813199197E+02  0.25500000000E-02 0. -1.
          2   -1    0    0  501    0  0.00000000000E+00 -0.00000000000E+00 -0.10217062538E+04  0.10217062538E+04  0.25500000000E-02 0.  1.
    5000001    1    1    2    0    0 -0.54043511784E+02  0.33931082800E+02 -0.39748271101E+03  0.44430679164E+03  0.18800000000E+03 0.  0.
   -5000001    1    1    2    0    0  0.54043511784E+02 -0.33931082800E+02 -0.58441034364E+03  0.61721266133E+03  0.18800000000E+03 0.  0.
<mgrwt>
<rscale>  0 0.40337275E+03</rscale>
<asrwt>0</asrwt>
<pdfrwt beam="1">  1        2 0.14595802E+00 0.40337275E+03</pdfrwt>
<pdfrwt beam="2">  1       -2 0.56876005E-02 0.40337275E+03</pdfrwt>
<totfact> 0.45702582E+03</totfact>
</mgrwt>
</event>
<event>
 4    1  0.2346411E-005  0.8910337E+03  0.7818608E-02  0.9436860E-01
         -2   -1    0    0    0  501 -0.00000000000E+00  0.00000000000E+00  0.64036351334E+03  0.64036351335E+03  0.25500000000E-02 0. -1.
          2   -1    0    0  501    0  0.00000000000E+00 -0.00000000000E+00 -0.30995718151E+03  0.30995718152E+03  0.25500000000E-02 0.  1.
    5000001    1    1    2    0    0  0.35486979362E+03 -0.17114541936E+02  0.37012212639E+03  0.54640631989E+03  0.18800000000E+03 0.  0.
   -5000001    1    1    2    0    0 -0.35486979362E+03  0.17114541936E+02 -0.39715794562E+02  0.40391437497E+03  0.18800000000E+03 0.  0.
<mgrwt>
<rscale>  0 0.89103371E+03</rscale>
<asrwt>0</asrwt>
<pdfrwt beam="1">  1        2 0.44279597E-01 0.89103371E+03</pdfrwt>
<pdfrwt beam="2">  1       -2 0.91480502E-01 0.89103371E+03</pdfrwt>
<totfact> 0.11750515E+02</totfact>
</mgrwt>
</event>
<event>
 4    1  0.2346411E-005  0.4293164E+03  0.7818608E-02  0.1034076E+00
          2   -1    0    0  501    0  0.00000000000E+00  0.00000000000E+00  0.34510477018E+04  0.34510477018E+04  0.25500000000E-02 0.  1.
         -2   -1    0    0    0  501 -0.00000000000E+00 -0.00000000000E+00 -0.13351931646E+02  0.13351931890E+02  0.25500000000E-02 0. -1.
    5000001    1    1    2    0    0  0.67715941908E+02  0.39161065662E+02  0.11706444575E+04  0.11882219842E+04  0.18800000000E+03 0.  0.
   -5000001    1    1    2    0    0 -0.67715941908E+02 -0.39161065662E+02  0.22670513127E+04  0.22761776495E+04  0.18800000000E+03 0.  0.
<mgrwt>
<rscale>  0 0.42931645E+03</rscale>
<asrwt>0</asrwt>
<pdfrwt beam="1">  1        2 0.49300682E+00 0.42931645E+03</pdfrwt>
<pdfrwt beam="2">  1       -2 0.19074188E-02 0.42931645E+03</pdfrwt>
<totfact> 0.12699954E+03</totfact>
</mgrwt>
</event>
<event>
 4    1  0.2346411E-005  0.5060552E+03  0.7818608E-02  0.1012210E+00
         -2   -1    0    0    0  501 -0.00000000000E+00  0.00000000000E+00  0.35792041320E+02  0.35792041411E+02  0.25500000000E-02 0. -1.
          2   -1    0    0  501    0  0.00000000000E+00 -0.00000000000E+00 -0.17887490189E+04  0.17887490189E+04  0.25500000000E-02 0.  1.
    5000001    1    1    2    0    0  0.35400434728E+02  0.15969360782E+03 -0.10346138023E+04  0.10642015594E+04  0.18800000000E+03 0.  0.
   -5000001    1    1    2    0    0 -0.35400434728E+02 -0.15969360782E+03 -0.71834317536E+03  0.76033950097E+03  0.18800000000E+03 0.  0.
<mgrwt>
<rscale>  0 0.50605525E+03</rscale>
<asrwt>0</asrwt>
<pdfrwt beam="1">  1        2 0.25553552E+00 0.50605525E+03</pdfrwt>
<pdfrwt beam="2">  1       -2 0.51131499E-02 0.50605525E+03</pdfrwt>
<totfact> 0.21033655E+03</totfact>
</mgrwt>
</event>
<event>
 4    1  0.2346411E-005  0.6678313E+03  0.7818608E-02  0.9773884E-01
          2   -1    0    0  501    0  0.00000000000E+00  0.00000000000E+00  0.26155399385E+04  0.26155399385E+04  0.25500000000E-02 0.  1.
         -2   -1    0    0    0  501 -0.00000000000E+00 -0.00000000000E+00 -0.42629693486E+02  0.42629693563E+02  0.25500000000E-02 0. -1.
    5000001    1    1    2    0    0 -0.22547321564E+03  0.10292773424E+03  0.80348571451E+03  0.86160639672E+03  0.18800000000E+03 0.  0.
   -5000001    1    1    2    0    0  0.22547321564E+03 -0.10292773424E+03  0.17694245305E+04  0.17965632353E+04  0.18800000000E+03 0.  0.
<mgrwt>
<rscale>  0 0.66783131E+03</rscale>
<asrwt>0</asrwt>
<pdfrwt beam="1">  1        2 0.37364854E+00 0.66783131E+03</pdfrwt>
<pdfrwt beam="2">  1       -2 0.60899565E-02 0.66783131E+03</pdfrwt>
<totfact> 0.60528108E+02</totfact>
</mgrwt>
</event>
<event>
 4    1  0.2346411E-005  0.5244194E+03  0.7818608E-02  0.1007595E+00
          2   -1    0    0  501    0  0.00000000000E+00  0.00000000000E+00  0.21542600678E+03  0.21542600680E+03  0.25500000000E-02 0.  1.
         -2   -1    0    0    0  501 -0.00000000000E+00 -0.00000000000E+00 -0.31915334727E+03  0.31915334728E+03  0.25500000000E-02 0. -1.
    5000001    1    1    2    0    0  0.14744415991E+03  0.10316193353E+03 -0.84543562321E+02  0.27363073430E+03  0.18800000000E+03 0.  0.
   -5000001    1    1    2    0    0 -0.14744415991E+03 -0.10316193353E+03 -0.19183778171E+02  0.26094861978E+03  0.18800000000E+03 0.  0.
<mgrwt>
<rscale>  0 0.52441942E+03</rscale>
<asrwt>0</asrwt>
<pdfrwt beam="1">  1        2 0.30775144E-01 0.52441942E+03</pdfrwt>
<pdfrwt beam="2">  1       -2 0.45593335E-01 0.52441942E+03</pdfrwt>
<totfact> 0.79218712E+02</totfact>
</mgrwt>
</event>
<event>
 4    1  0.2346411E-005  0.9368689E+03  0.7818608E-02  0.9380632E-01
          2   -1    0    0  501    0  0.00000000000E+00  0.00000000000E+00  0.79303989249E+03  0.79303989250E+03  0.25500000000E-02 0.  1.
         -2   -1    0    0    0  501 -0.00000000000E+00 -0.00000000000E+00 -0.27669583034E+03  0.27669583035E+03  0.25500000000E-02 0. -1.
    5000001    1    1    2    0    0  0.31261821195E+03 -0.29235694249E+03  0.22422129589E+03  0.51848039287E+03  0.18800000000E+03 0.  0.
   -5000001    1    1    2    0    0 -0.31261821195E+03  0.29235694249E+03  0.29212276626E+03  0.55125532998E+03  0.18800000000E+03 0.  0.
<mgrwt>
<rscale>  0 0.93686889E+03</rscale>
<asrwt>0</asrwt>
<pdfrwt beam="1">  1        2 0.11329141E+00 0.93686889E+03</pdfrwt>
<pdfrwt beam="2">  1       -2 0.39527976E-01 0.93686889E+03</pdfrwt>
<totfact> 0.23263888E+02</totfact>
</mgrwt>
</event>
<event>
 4    1  0.2346411E-005  0.5049603E+03  0.7818608E-02  0.1012492E+00
          2   -1    0    0  501    0  0.00000000000E+00  0.00000000000E+00  0.14651713409E+04  0.14651713409E+04  0.25500000000E-02 0.  1.
         -2   -1    0    0    0  501 -0.00000000000E+00 -0.00000000000E+00 -0.43507702334E+02  0.43507702409E+02  0.25500000000E-02 0. -1.
    5000001    1    1    2    0    0  0.95544186157E+02  0.93124889762E+02  0.40320854974E+03  0.46445890150E+03  0.18800000000E+03 0.  0.
   -5000001    1    1    2    0    0 -0.95544186157E+02 -0.93124889762E+02  0.10184550888E+04  0.10442201418E+04  0.18800000000E+03 0.  0.
<mgrwt>
<rscale>  0 0.50496035E+03</rscale>
<asrwt>0</asrwt>
<pdfrwt beam="1">  1        2 0.20931023E+00 0.50496035E+03</pdfrwt>
<pdfrwt beam="2">  1       -2 0.62153849E-02 0.50496035E+03</pdfrwt>
<totfact> 0.22705462E+03</totfact>
</mgrwt>
</event>
<event>
 4    1  0.2346411E-005  0.7047415E+03  0.7818608E-02  0.9709158E-01
          2   -1    0    0  501    0  0.00000000000E+00  0.00000000000E+00  0.11518536078E+04  0.11518536078E+04  0.25500000000E-02 0.  1.
         -2   -1    0    0    0  501 -0.00000000000E+00 -0.00000000000E+00 -0.10779595584E+03  0.10779595587E+03  0.25500000000E-02 0. -1.
    5000001    1    1    2    0    0  0.13627584359E+03  0.25670880297E+03  0.40413346379E+03  0.53210748127E+03  0.18800000000E+03 0.  0.
   -5000001    1    1    2    0    0 -0.13627584359E+03 -0.25670880297E+03  0.63992418822E+03  0.72754208245E+03  0.18800000000E+03 0.  0.
<mgrwt>
<rscale>  0 0.70474154E+03</rscale>
<asrwt>0</asrwt>
<pdfrwt beam="1">  1        2 0.16455052E+00 0.70474154E+03</pdfrwt>
<pdfrwt beam="2">  1       -2 0.15399422E-01 0.70474154E+03</pdfrwt>
<totfact> 0.76773935E+02</totfact>
</mgrwt>
</event>
<event>
 4    1  0.2346411E-005  0.5053053E+03  0.7818608E-02  0.1012403E+00
          2   -1    0    0  501    0  0.00000000000E+00  0.00000000000E+00  0.21404788475E+03  0.21404788477E+03  0.25500000000E-02 0.  1.
         -2   -1    0    0    0  501 -0.00000000000E+00 -0.00000000000E+00 -0.29822005408E+03  0.29822005409E+03  0.25500000000E-02 0. -1.
    5000001    1    1    2    0    0 -0.10396145004E+03  0.12313679258E+03  0.87922802622E+01  0.24777400383E+03  0.18800000000E+03 0.  0.
   -5000001    1    1    2    0    0  0.10396145004E+03 -0.12313679258E+03 -0.92964449591E+02  0.26449393503E+03  0.18800000000E+03 0.  0.
<mgrwt>
<rscale>  0 0.50530534E+03</rscale>
<asrwt>0</asrwt>
<pdfrwt beam="1">  1        2 0.30578269E-01 0.50530534E+03</pdfrwt>
<pdfrwt beam="2">  1       -2 0.42602865E-01 0.50530534E+03</pdfrwt>
<totfact> 0.91210028E+02</totfact>
</mgrwt>
</event>
<event>
 4    1  0.2346411E-005  0.5804129E+03  0.7818608E-02  0.9946898E-01
          2   -1    0    0  501    0  0.00000000000E+00  0.00000000000E+00  0.63858919186E+03  0.63858919186E+03  0.25500000000E-02 0.  1.
         -2   -1    0    0    0  501 -0.00000000000E+00 -0.00000000000E+00 -0.13188412060E+03  0.13188412063E+03  0.25500000000E-02 0. -1.
    5000001    1    1    2    0    0 -0.20317353542E+03 -0.26407852917E+02  0.14309432793E+03  0.31272487410E+03  0.18800000000E+03 0.  0.
   -5000001    1    1    2    0    0  0.20317353542E+03  0.26407852917E+02  0.36361074332E+03  0.45774843839E+03  0.18800000000E+03 0.  0.
<mgrwt>
<rscale>  0 0.58041287E+03</rscale>
<asrwt>0</asrwt>
<pdfrwt beam="1">  1        2 0.91227028E-01 0.58041287E+03</pdfrwt>
<pdfrwt beam="2">  1       -2 0.18840588E-01 0.58041287E+03</pdfrwt>
<totfact> 0.11941263E+03</totfact>
</mgrwt>
</event>
<event>
 4    1  0.2346411E-005  0.4392741E+03  0.7818608E-02  0.1030970E+00
         -2   -1    0    0    0  501 -0.00000000000E+00  0.00000000000E+00  0.60735157303E+02  0.60735157356E+02  0.25500000000E-02 0. -1.
          2   -1    0    0  501    0  0.00000000000E+00 -0.00000000000E+00 -0.79427542254E+03  0.79427542254E+03  0.25500000000E-02 0.  1.
    5000001    1    1    2    0    0 -0.11312355095E+03  0.99734486944E+01 -0.36713580696E+03  0.42781901338E+03  0.18800000000E+03 0.  0.
   -5000001    1    1    2    0    0  0.11312355095E+03 -0.99734486944E+01 -0.36640445827E+03  0.42719156651E+03  0.18800000000E+03 0.  0.
<mgrwt>
<rscale>  0 0.43927414E+03</rscale>
<asrwt>0</asrwt>
<pdfrwt beam="1">  1        2 0.11346791E+00 0.43927414E+03</pdfrwt>
<pdfrwt beam="2">  1       -2 0.86764515E-02 0.43927414E+03</pdfrwt>
<totfact> 0.32922193E+03</totfact>
</mgrwt>
</event>
<event>
 4    1  0.2346411E-005  0.8402869E+03  0.7818608E-02  0.9503467E-01
          2   -1    0    0  501    0  0.00000000000E+00  0.00000000000E+00  0.16126110229E+03  0.16126110231E+03  0.25500000000E-02 0.  1.
         -2   -1    0    0    0  501 -0.00000000000E+00 -0.00000000000E+00 -0.10946256356E+04  0.10946256356E+04  0.25500000000E-02 0. -1.
    5000001    1    1    2    0    0 -0.37261200577E+03  0.48266398956E+02 -0.47068836296E+03  0.63092066628E+03  0.18800000000E+03 0.  0.
   -5000001    1    1    2    0    0  0.37261200577E+03 -0.48266398956E+02 -0.46267617039E+03  0.62496607168E+03  0.18800000000E+03 0.  0.
<mgrwt>
<rscale>  0 0.84028694E+03</rscale>
<asrwt>0</asrwt>
<pdfrwt beam="1">  1        2 0.23037301E-01 0.84028694E+03</pdfrwt>
<pdfrwt beam="2">  1       -2 0.15637509E+00 0.84028694E+03</pdfrwt>
<totfact> 0.65033398E+01</totfact>
</mgrwt>
</event>
<event>
 4    1  0.2346411E-005  0.5012389E+03  0.7818608E-02  0.1013456E+00
         -2   -1    0    0    0  501 -0.00000000000E+00  0.00000000000E+00  0.22358529137E+03  0.22358529139E+03  0.25500000000E-02 0. -1.
          2   -1    0    0  501    0  0.00000000000E+00 -0.00000000000E+00 -0.28092232407E+03  0.28092232408E+03  0.25500000000E-02 0.  1.
    5000001    1    1    2    0    0  0.15322113072E+03  0.45989653080E+02 -0.72244458085E+02  0.25720619125E+03  0.18800000000E+03 0.  0.
   -5000001    1    1    2    0    0 -0.15322113072E+03 -0.45989653080E+02  0.14907425390E+02  0.24730142422E+03  0.18800000000E+03 0.  0.
<mgrwt>
<rscale>  0 0.50123886E+03</rscale>
<asrwt>0</asrwt>
<pdfrwt beam="1">  1        2 0.40131761E-01 0.50123886E+03</pdfrwt>
<pdfrwt beam="2">  1       -2 0.31940756E-01 0.50123886E+03</pdfrwt>
<totfact> 0.11689984E+03</totfact>
</mgrwt>
</event>
<event>
 4    1  0.2346411E-005  0.5668531E+03  0.7818608E-02  0.9976666E-01
          2   -1    0    0  501    0  0.00000000000E+00  0.00000000000E+00  0.11393519293E+04  0.11393519293E+04  0.25500000000E-02 0.  1.
         -2   -1    0    0    0  501 -0.00000000000E+00 -0.00000000000E+00 -0.70505535265E+02  0.70505535311E+02  0.25500000000E-02 0. -1.
    5000001    1    1    2    0    0  0.10414621668E+03  0.15680641616E+03  0.74302076913E+03  0.78921388099E+03  0.18800000000E+03 0.  0.
   -5000001    1    1    2    0    0 -0.10414621668E+03 -0.15680641616E+03  0.32582562492E+03  0.42064358363E+03  0.18800000000E+03 0.  0.
<mgrwt>
<rscale>  0 0.56685313E+03</rscale>
<asrwt>0</asrwt>
<pdfrwt beam="1">  1        2 0.16276456E+00 0.56685313E+03</pdfrwt>
<pdfrwt beam="2">  1       -2 0.10072219E-01 0.56685313E+03</pdfrwt>
<totfact> 0.15819952E+03</totfact>
</mgrwt>
</event>
<event>
 4    1  0.2346411E-005  0.8401083E+03  0.7818608E-02  0.9503710E-01
         -2   -1    0    0    0  501 -0.00000000000E+00  0.00000000000E+00  0.94478494852E+03  0.94478494853E+03  0.25500000000E-02 0. -1.
          2   -1    0    0  501    0  0.00000000000E+00 -0.00000000000E+00 -0.18675730553E+03  0.18675730555E+03  0.25500000000E-02 0.  1.
    5000001    1    1    2    0    0 -0.27919111457E+03  0.77769338846E+02  0.57147608588E+02  0.35015082134E+03  0.18800000000E+03 0.  0.
   -5000001    1    1    2    0    0  0.27919111457E+03 -0.77769338846E+02  0.70088003441E+03  0.78139143273E+03  0.18800000000E+03 0.  0.
<mgrwt>
<rscale>  0 0.84010831E+03</rscale>
<asrwt>0</asrwt>
<pdfrwt beam="1">  1        2 0.26679615E-01 0.84010831E+03</pdfrwt>
<pdfrwt beam="2">  1       -2 0.13496928E+00 0.84010831E+03</pdfrwt>
<totfact> 0.80778757E+01</totfact>
</mgrwt>
</event>
<event>
 4    1  0.2346411E-005  0.1024460E+04  0.7818608E-02  0.9282117E-01
         -2   -1    0    0    0  501 -0.00000000000E+00  0.00000000000E+00  0.10078010701E+04  0.10078010701E+04  0.25500000000E-02 0. -1.
          2   -1    0    0  501    0  0.00000000000E+00 -0.00000000000E+00 -0.26034863768E+03  0.26034863769E+03  0.25500000000E-02 0.  1.
    5000001    1    1    2    0    0  0.42395888399E+03  0.12750059300E+03  0.59180982543E+03  0.76261419210E+03  0.18800000000E+03 0.  0.
   -5000001    1    1    2    0    0 -0.42395888399E+03 -0.12750059300E+03  0.15564260701E+03  0.50553551571E+03  0.18800000000E+03 0.  0.
<mgrwt>
<rscale>  0 0.10244601E+04</rscale>
<asrwt>0</asrwt>
<pdfrwt beam="1">  1        2 0.37192663E-01 0.10244601E+04</pdfrwt>
<pdfrwt beam="2">  1       -2 0.14397158E+00 0.10244601E+04</pdfrwt>
<totfact> 0.46504695E+01</totfact>
</mgrwt>
</event>
<event>
 4    1  0.2346411E-005  0.6034717E+03  0.7818608E-02  0.9898230E-01
          2   -1    0    0  501    0  0.00000000000E+00  0.00000000000E+00  0.27143544835E+04  0.27143544835E+04  0.25500000000E-02 0.  1.
         -2   -1    0    0    0  501 -0.00000000000E+00 -0.00000000000E+00 -0.33541866204E+02  0.33541866301E+02  0.25500000000E-02 0. -1.
    5000001    1    1    2    0    0  0.24631824239E+02 -0.90360977864E+02  0.23268280514E+04  0.23362886410E+04  0.18800000000E+03 0.  0.
   -5000001    1    1    2    0    0 -0.24631824239E+02  0.90360977864E+02  0.35398456589E+03  0.41160770884E+03  0.18800000000E+03 0.  0.
<mgrwt>
<rscale>  0 0.60347167E+03</rscale>
<asrwt>0</asrwt>
<pdfrwt beam="1">  1        2 0.38776485E+00 0.60347167E+03</pdfrwt>
<pdfrwt beam="2">  1       -2 0.47916961E-02 0.60347167E+03</pdfrwt>
<totfact> 0.78521868E+02</totfact>
</mgrwt>
</event>
<event>
 4    1  0.2346411E-005  0.7518662E+03  0.7818608E-02  0.9632427E-01
          2   -1    0    0  501    0  0.00000000000E+00  0.00000000000E+00  0.24722561772E+03  0.24722561774E+03  0.25500000000E-02 0.  1.
         -2   -1    0    0    0  501 -0.00000000000E+00 -0.00000000000E+00 -0.57164659144E+03  0.57164659145E+03  0.25500000000E-02 0. -1.
    5000001    1    1    2    0    0 -0.30086109484E+01 -0.29846983303E+03 -0.30374739378E+03  0.46551022781E+03  0.18800000000E+03 0.  0.
   -5000001    1    1    2    0    0  0.30086109484E+01  0.29846983303E+03 -0.20673579933E+02  0.35336198137E+03  0.18800000000E+03 0.  0.
<mgrwt>
<rscale>  0 0.75186616E+03</rscale>
<asrwt>0</asrwt>
<pdfrwt beam="1">  1        2 0.35317946E-01 0.75186616E+03</pdfrwt>
<pdfrwt beam="2">  1       -2 0.81663799E-01 0.75186616E+03</pdfrwt>
<totfact> 0.19704470E+02</totfact>
</mgrwt>
</event>
<event>
 4    1  0.2346411E-005  0.5057045E+03  0.7818608E-02  0.1012301E+00
         -2   -1    0    0    0  501 -0.00000000000E+00  0.00000000000E+00  0.37383494051E+02  0.37383494138E+02  0.25500000000E-02 0. -1.
          2   -1    0    0  501    0  0.00000000000E+00 -0.00000000000E+00 -0.17102271804E+04  0.17102271804E+04  0.25500000000E-02 0.  1.
    5000001    1    1    2    0    0  0.11907252663E+03 -0.79089672490E+02 -0.52431131913E+03  0.57504765217E+03  0.18800000000E+03 0.  0.
   -5000001    1    1    2    0    0 -0.11907252663E+03  0.79089672490E+02 -0.11485323672E+04  0.11725630224E+04  0.18800000000E+03 0.  0.
<mgrwt>
<rscale>  0 0.50570453E+03</rscale>
<asrwt>0</asrwt>
<pdfrwt beam="1">  1        2 0.24431812E+00 0.50570453E+03</pdfrwt>
<pdfrwt beam="2">  1       -2 0.53405002E-02 0.50570453E+03</pdfrwt>
<totfact> 0.21537827E+03</totfact>
</mgrwt>
</event>
<event>
 4    1  0.2346411E-005  0.5368576E+03  0.7818608E-02  0.1004582E+00
         -2   -1    0    0    0  501 -0.00000000000E+00  0.00000000000E+00  0.21759076755E+03  0.21759076757E+03  0.25500000000E-02 0. -1.
          2   -1    0    0  501    0  0.00000000000E+00 -0.00000000000E+00 -0.33114466443E+03  0.33114466444E+03  0.25500000000E-02 0.  1.
    5000001    1    1    2    0    0 -0.53696194221E+02  0.16068929786E+03 -0.14823106928E+03  0.29329299620E+03  0.18800000000E+03 0.  0.
   -5000001    1    1    2    0    0  0.53696194221E+02 -0.16068929786E+03  0.34677172402E+02  0.25544243580E+03  0.18800000000E+03 0.  0.
<mgrwt>
<rscale>  0 0.53685760E+03</rscale>
<asrwt>0</asrwt>
<pdfrwt beam="1">  1        2 0.47306380E-01 0.53685760E+03</pdfrwt>
<pdfrwt beam="2">  1       -2 0.31084395E-01 0.53685760E+03</pdfrwt>
<totfact> 0.10261499E+03</totfact>
</mgrwt>
</event>
<event>
 4    1  0.2346411E-005  0.5903655E+03  0.7818608E-02  0.9925599E-01
         -2   -1    0    0    0  501 -0.00000000000E+00  0.00000000000E+00  0.65177408547E+02  0.65177408597E+02  0.25500000000E-02 0.  1.
          2   -1    0    0  501    0  0.00000000000E+00 -0.00000000000E+00 -0.13368568771E+04  0.13368568771E+04  0.25500000000E-02 0. -1.
    5000001    1    1    2    0    0 -0.18309643103E+03  0.13507012347E+03 -0.62505422431E+03  0.69123442090E+03  0.18800000000E+03 0.  0.
   -5000001    1    1    2    0    0  0.18309643103E+03 -0.13507012347E+03 -0.64662524425E+03  0.71079986481E+03  0.18800000000E+03 0.  0.
<mgrwt>
<rscale>  0 0.59036554E+03</rscale>
<asrwt>0</asrwt>
<pdfrwt beam="1">  1        2 0.19097954E+00 0.59036554E+03</pdfrwt>
<pdfrwt beam="2">  1       -2 0.93110592E-02 0.59036554E+03</pdfrwt>
<totfact> 0.13955736E+03</totfact>
</mgrwt>
</event>
<event>
 4    1  0.2346411E-005  0.4808878E+03  0.7818608E-02  0.1018891E+00
          2   -1    0    0  501    0  0.00000000000E+00  0.00000000000E+00  0.41990714164E+03  0.41990714165E+03  0.25500000000E-02 0.  1.
         -2   -1    0    0    0  501 -0.00000000000E+00 -0.00000000000E+00 -0.13768105672E+03  0.13768105675E+03  0.25500000000E-02 0. -1.
    5000001    1    1    2    0    0  0.75891151232E+02 -0.17363012854E+02  0.28963883656E+03  0.35397118060E+03  0.18800000000E+03 0.  0.
   -5000001    1    1    2    0    0 -0.75891151232E+02  0.17363012854E+02 -0.74127516420E+01  0.20361701780E+03  0.18800000000E+03 0.  0.
<mgrwt>
<rscale>  0 0.48088776E+03</rscale>
<asrwt>0</asrwt>
<pdfrwt beam="1">  1        2 0.59986734E-01 0.48088776E+03</pdfrwt>
<pdfrwt beam="2">  1       -2 0.19668722E-01 0.48088776E+03</pdfrwt>
<totfact> 0.17898533E+03</totfact>
</mgrwt>
</event>
<event>
 4    1  0.2346411E-005  0.5794078E+03  0.7818608E-02  0.9949074E-01
         -2   -1    0    0    0  501 -0.00000000000E+00  0.00000000000E+00  0.11679634550E+03  0.11679634553E+03  0.25500000000E-02 0.  1.
          2   -1    0    0  501    0  0.00000000000E+00 -0.00000000000E+00 -0.71858704044E+03  0.71858704045E+03  0.25500000000E-02 0. -1.
    5000001    1    1    2    0    0 -0.21742774830E+03  0.19333459677E+02 -0.34499927153E+03  0.44946313058E+03  0.18800000000E+03 0.  0.
   -5000001    1    1    2    0    0  0.21742774830E+03 -0.19333459677E+02 -0.25679142341E+03  0.38592025540E+03  0.18800000000E+03 0.  0.
<mgrwt>
<rscale>  0 0.57940777E+03</rscale>
<asrwt>0</asrwt>
<pdfrwt beam="1">  1        2 0.10265529E+00 0.57940777E+03</pdfrwt>
<pdfrwt beam="2">  1       -2 0.16685193E-01 0.57940777E+03</pdfrwt>
<totfact> 0.12746659E+03</totfact>
</mgrwt>
</event>
<event>
 4    1  0.2346411E-005  0.7652803E+03  0.7818608E-02  0.9611678E-01
         -2   -1    0    0    0  501 -0.00000000000E+00  0.00000000000E+00  0.89692911886E+02  0.89692911923E+02  0.25500000000E-02 0. -1.
          2   -1    0    0  501    0  0.00000000000E+00 -0.00000000000E+00 -0.16323864267E+04  0.16323864267E+04  0.25500000000E-02 0.  1.
    5000001    1    1    2    0    0  0.12298343028E+03  0.27919130864E+03 -0.46946975607E+03  0.59060863760E+03  0.18800000000E+03 0.  0.
   -5000001    1    1    2    0    0 -0.12298343028E+03 -0.27919130864E+03 -0.10732237587E+04  0.11314707010E+04  0.18800000000E+03 0.  0.
<mgrwt>
<rscale>  0 0.76528032E+03</rscale>
<asrwt>0</asrwt>
<pdfrwt beam="1">  1        2 0.23319804E+00 0.76528032E+03</pdfrwt>
<pdfrwt beam="2">  1       -2 0.12813274E-01 0.76528032E+03</pdfrwt>
<totfact> 0.57438127E+02</totfact>
</mgrwt>
</event>
<event>
 4    1  0.2346411E-005  0.4917099E+03  0.7818608E-02  0.1015966E+00
         -2   -1    0    0    0  501 -0.00000000000E+00  0.00000000000E+00  0.21365878699E+02  0.21365878851E+02  0.25500000000E-02 0. -1.
          2   -1    0    0  501    0  0.00000000000E+00 -0.00000000000E+00 -0.28290272190E+04  0.28290272190E+04  0.25500000000E-02 0.  1.
    5000001    1    1    2    0    0 -0.81943839671E+02  0.12800261920E+03 -0.16631529900E+04  0.16806312301E+04  0.18800000000E+03 0.  0.
   -5000001    1    1    2    0    0  0.81943839671E+02 -0.12800261920E+03 -0.11445083504E+04  0.11697618678E+04  0.18800000000E+03 0.  0.
<mgrwt>
<rscale>  0 0.49170988E+03</rscale>
<asrwt>0</asrwt>
<pdfrwt beam="1">  1        2 0.40414651E+00 0.49170988E+03</pdfrwt>
<pdfrwt beam="2">  1       -2 0.30522702E-02 0.49170988E+03</pdfrwt>
<totfact> 0.13754706E+03</totfact>
</mgrwt>
</event>
