<event>
 4    1  0.5886875E-005  0.6555163E+03  0.7818608E-02  0.9796483E-01
         -2   -1    0    0    0  501 -0.00000000000E+00  0.00000000000E+00  0.41349772237E+02  0.41349772316E+02  0.25500000000E-02 0. -1.
          2   -1    0    0  501    0  0.00000000000E+00 -0.00000000000E+00 -0.25979687840E+04  0.25979687840E+04  0.25500000000E-02 0.  1.
    5000001    1    1    2    0    0  0.18028454981E+03 -0.19671239783E+03 -0.13979617683E+04  0.14355623957E+04  0.18800000000E+03 0.  0.
   -5000001    1    1    2    0    0 -0.18028454981E+03  0.19671239783E+03 -0.11586572434E+04  0.12037561606E+04  0.18800000000E+03 0.  0.
<mgrwt>
<rscale>  0 0.65551634E+03</rscale>
<asrwt>0</asrwt>
<pdfrwt beam="1">  1        2 0.37113829E+00 0.65551634E+03</pdfrwt>
<pdfrwt beam="2">  1       -2 0.59071120E-02 0.65551634E+03</pdfrwt>
<totfact> 0.64907600E+02</totfact>
</mgrwt>
</event>
<event>
 4    1  0.5886875E-005  0.5305486E+03  0.7818608E-02  0.1006099E+00
          2   -1    0    0  501    0  0.00000000000E+00  0.00000000000E+00  0.14635427743E+04  0.14635427743E+04  0.25500000000E-02 0.  1.
         -2   -1    0    0    0  501 -0.00000000000E+00 -0.00000000000E+00 -0.48082267419E+02  0.48082267486E+02  0.25500000000E-02 0. -1.
    5000001    1    1    2    0    0 -0.16508710473E+03  0.83767575521E+02  0.78605383437E+03  0.82915341728E+03  0.18800000000E+03 0.  0.
   -5000001    1    1    2    0    0  0.16508710473E+03 -0.83767575521E+02  0.62940667251E+03  0.68247162450E+03  0.18800000000E+03 0.  0.
<mgrwt>
<rscale>  0 0.53054860E+03</rscale>
<asrwt>0</asrwt>
<pdfrwt beam="1">  1        2 0.20907754E+00 0.53054860E+03</pdfrwt>
<pdfrwt beam="2">  1       -2 0.68688952E-02 0.53054860E+03</pdfrwt>
<totfact> 0.19436895E+03</totfact>
</mgrwt>
</event>
<event>
 4    1  0.5886875E-005  0.5724811E+03  0.7818608E-02  0.9964203E-01
          2   -1    0    0  501    0  0.00000000000E+00  0.00000000000E+00  0.30298230832E+03  0.30298230833E+03  0.25500000000E-02 0.  1.
         -2   -1    0    0    0  501 -0.00000000000E+00 -0.00000000000E+00 -0.27042392863E+03  0.27042392865E+03  0.25500000000E-02 0. -1.
    5000001    1    1    2    0    0 -0.15083234445E+03  0.70360327369E+02  0.15393742335E+03  0.29451944266E+03  0.18800000000E+03 0.  0.
   -5000001    1    1    2    0    0  0.15083234445E+03 -0.70360327369E+02 -0.12137904367E+03  0.27888679431E+03  0.18800000000E+03 0.  0.
<mgrwt>
<rscale>  0 0.57248115E+03</rscale>
<asrwt>0</asrwt>
<pdfrwt beam="1">  1        2 0.43283187E-01 0.57248115E+03</pdfrwt>
<pdfrwt beam="2">  1       -2 0.38631990E-01 0.57248115E+03</pdfrwt>
<totfact> 0.75029449E+02</totfact>
</mgrwt>
</event>
<event>
 4    1  0.5886875E-005  0.8454213E+03  0.7818608E-02  0.9496503E-01
         -2   -1    0    0    0  501 -0.00000000000E+00  0.00000000000E+00  0.10178499848E+03  0.10178499851E+03  0.25500000000E-02 0. -1.
          2   -1    0    0  501    0  0.00000000000E+00 -0.00000000000E+00 -0.17555070463E+04  0.17555070463E+04  0.25500000000E-02 0.  1.
    5000001    1    1    2    0    0 -0.33514503798E+03  0.17490181835E+03 -0.78144131320E+03  0.88820457583E+03  0.18800000000E+03 0.  0.
   -5000001    1    1    2    0    0  0.33514503798E+03 -0.17490181835E+03 -0.87228073461E+03  0.96908746897E+03  0.18800000000E+03 0.  0.
<mgrwt>
<rscale>  0 0.84542127E+03</rscale>
<asrwt>0</asrwt>
<pdfrwt beam="1">  1        2 0.25078670E+00 0.84542127E+03</pdfrwt>
<pdfrwt beam="2">  1       -2 0.14540715E-01 0.84542127E+03</pdfrwt>
<totfact> 0.39982330E+02</totfact>
</mgrwt>
</event>
<event>
 4    1  0.5886875E-005  0.6798620E+03  0.7818608E-02  0.9752304E-01
          2   -1    0    0  501    0  0.00000000000E+00  0.00000000000E+00  0.59595644804E+03  0.59595644804E+03  0.25500000000E-02 0.  1.
         -2   -1    0    0    0  501 -0.00000000000E+00 -0.00000000000E+00 -0.19389517244E+03  0.19389517245E+03  0.25500000000E-02 0. -1.
    5000001    1    1    2    0    0  0.25502621078E+03 -0.11203034912E+03  0.14156473401E+03  0.36465564746E+03  0.18800000000E+03 0.  0.
   -5000001    1    1    2    0    0 -0.25502621078E+03  0.11203034912E+03  0.26049654159E+03  0.42519597304E+03  0.18800000000E+03 0.  0.
<mgrwt>
<rscale>  0 0.67986198E+03</rscale>
<asrwt>0</asrwt>
<pdfrwt beam="1">  1        2 0.85136634E-01 0.67986198E+03</pdfrwt>
<pdfrwt beam="2">  1       -2 0.27699311E-01 0.67986198E+03</pdfrwt>
<totfact> 0.65270984E+02</totfact>
</mgrwt>
</event>
<event>
 4    1  0.5886875E-005  0.3948099E+03  0.7818608E-02  0.1045592E+00
          2   -1    0    0  501    0  0.00000000000E+00  0.00000000000E+00  0.97188299512E+03  0.97188299512E+03  0.25500000000E-02 0.  1.
         -2   -1    0    0    0  501 -0.00000000000E+00 -0.00000000000E+00 -0.40096096484E+02  0.40096096565E+02  0.25500000000E-02 0. -1.
    5000001    1    1    2    0    0  0.33702512761E+02  0.39449736909E+02  0.54416879394E+03  0.57806212244E+03  0.18800000000E+03 0.  0.
   -5000001    1    1    2    0    0 -0.33702512761E+02 -0.39449736909E+02  0.38761810470E+03  0.43391696924E+03  0.18800000000E+03 0.  0.
<mgrwt>
<rscale>  0 0.39480990E+03</rscale>
<asrwt>0</asrwt>
<pdfrwt beam="1">  1        2 0.13884044E+00 0.39480990E+03</pdfrwt>
<pdfrwt beam="2">  1       -2 0.57280135E-02 0.39480990E+03</pdfrwt>
<totfact> 0.48416889E+03</totfact>
</mgrwt>
</event>
<event>
 4    1  0.5886875E-005  0.4816850E+03  0.7818608E-02  0.1018673E+00
         -2   -1    0    0    0  501 -0.00000000000E+00  0.00000000000E+00  0.43110138412E+02  0.43110138488E+02  0.25500000000E-02 0. -1.
          2   -1    0    0  501    0  0.00000000000E+00 -0.00000000000E+00 -0.13455098484E+04  0.13455098484E+04  0.25500000000E-02 0.  1.
    5000001    1    1    2    0    0  0.66011207472E+02  0.38203282185E+02 -0.27705070750E+03  0.34339199876E+03  0.18800000000E+03 0.  0.
   -5000001    1    1    2    0    0 -0.66011207472E+02 -0.38203282185E+02 -0.10253490024E+04  0.10452279881E+04  0.18800000000E+03 0.  0.
<mgrwt>
<rscale>  0 0.48168503E+03</rscale>
<asrwt>0</asrwt>
<pdfrwt beam="1">  1        2 0.19221567E+00 0.48168503E+03</pdfrwt>
<pdfrwt beam="2">  1       -2 0.61585920E-02 0.48168503E+03</pdfrwt>
<totfact> 0.26640160E+03</totfact>
</mgrwt>
</event>
<event>
 4    1  0.5886875E-005  0.5977596E+03  0.7818608E-02  0.9910065E-01
          2   -1    0    0  501    0  0.00000000000E+00  0.00000000000E+00  0.47769076718E+03  0.47769076719E+03  0.25500000000E-02 0.  1.
         -2   -1    0    0    0  501 -0.00000000000E+00 -0.00000000000E+00 -0.18700200357E+03  0.18700200359E+03  0.25500000000E-02 0. -1.
    5000001    1    1    2    0    0 -0.92299258045E+02 -0.16737439543E+03 -0.15531119930E+01  0.26810399743E+03  0.18800000000E+03 0.  0.
   -5000001    1    1    2    0    0  0.92299258045E+02  0.16737439543E+03  0.29224187560E+03  0.39658877334E+03  0.18800000000E+03 0.  0.
<mgrwt>
<rscale>  0 0.59775959E+03</rscale>
<asrwt>0</asrwt>
<pdfrwt beam="1">  1        2 0.68241538E-01 0.59775959E+03</pdfrwt>
<pdfrwt beam="2">  1       -2 0.26714572E-01 0.59775959E+03</pdfrwt>
<totfact> 0.90112216E+02</totfact>
</mgrwt>
</event>
<event>
 4    1  0.5886875E-005  0.5262123E+03  0.7818608E-02  0.1007155E+00
          2   -1    0    0  501    0  0.00000000000E+00  0.00000000000E+00  0.22828291261E+04  0.22828291261E+04  0.25500000000E-02 0.  1.
         -2   -1    0    0    0  501 -0.00000000000E+00 -0.00000000000E+00 -0.30324152724E+02  0.30324152831E+02  0.25500000000E-02 0. -1.
    5000001    1    1    2    0    0  0.31823649467E+02  0.17788417197E+03  0.97237646426E+03  0.10067350752E+04  0.18800000000E+03 0.  0.
   -5000001    1    1    2    0    0 -0.31823649467E+02 -0.17788417197E+03  0.12801285091E+04  0.13064182038E+04  0.18800000000E+03 0.  0.
<mgrwt>
<rscale>  0 0.52621235E+03</rscale>
<asrwt>0</asrwt>
<pdfrwt beam="1">  1        2 0.32611844E+00 0.52621235E+03</pdfrwt>
<pdfrwt beam="2">  1       -2 0.43320219E-02 0.52621235E+03</pdfrwt>
<totfact> 0.15352995E+03</totfact>
</mgrwt>
</event>
<event>
 4    1  0.5886875E-005  0.6235543E+03  0.7818608E-02  0.9857709E-01
         -2   -1    0    0    0  501 -0.00000000000E+00  0.00000000000E+00  0.72326541923E+02  0.72326541968E+02  0.25500000000E-02 0. -1.
          2   -1    0    0  501    0  0.00000000000E+00 -0.00000000000E+00 -0.13439738361E+04  0.13439738361E+04  0.25500000000E-02 0.  1.
    5000001    1    1    2    0    0  0.19794021130E+03 -0.17458778749E+02 -0.97558253687E+03  0.10132079858E+04  0.18800000000E+03 0.  0.
   -5000001    1    1    2    0    0 -0.19794021130E+03  0.17458778749E+02 -0.29606475732E+03  0.40309239230E+03  0.18800000000E+03 0.  0.
<mgrwt>
<rscale>  0 0.62355426E+03</rscale>
<asrwt>0</asrwt>
<pdfrwt beam="1">  1        2 0.19199625E+00 0.62355426E+03</pdfrwt>
<pdfrwt beam="2">  1       -2 0.10332364E-01 0.62355426E+03</pdfrwt>
<totfact> 0.11675894E+03</totfact>
</mgrwt>
</event>
<event>
 4    1  0.5886875E-005  0.5369599E+03  0.7818608E-02  0.1004558E+00
          2   -1    0    0  501    0  0.00000000000E+00  0.00000000000E+00  0.23376851374E+04  0.23376851374E+04  0.25500000000E-02 0.  1.
         -2   -1    0    0    0  501 -0.00000000000E+00 -0.00000000000E+00 -0.30834550613E+02  0.30834550718E+02  0.25500000000E-02 0. -1.
    5000001    1    1    2    0    0  0.93566932730E+02  0.55118323095E+02  0.18500904151E+04  0.18627859094E+04  0.18800000000E+03 0.  0.
   -5000001    1    1    2    0    0 -0.93566932730E+02 -0.55118323095E+02  0.45676017174E+03  0.50573377871E+03  0.18800000000E+03 0.  0.
<mgrwt>
<rscale>  0 0.53695985E+03</rscale>
<asrwt>0</asrwt>
<pdfrwt beam="1">  1        2 0.33395506E+00 0.53695985E+03</pdfrwt>
<pdfrwt beam="2">  1       -2 0.44049353E-02 0.53695985E+03</pdfrwt>
<totfact> 0.14031444E+03</totfact>
</mgrwt>
</event>
<event>
 4    1  0.5886875E-005  0.8094061E+03  0.7818608E-02  0.9546501E-01
          2   -1    0    0  501    0  0.00000000000E+00  0.00000000000E+00  0.91859592374E+03  0.91859592375E+03  0.25500000000E-02 0.  1.
         -2   -1    0    0    0  501 -0.00000000000E+00 -0.00000000000E+00 -0.17829880038E+03  0.17829880040E+03  0.25500000000E-02 0. -1.
    5000001    1    1    2    0    0 -0.33642758345E+03 -0.62270884753E+02  0.22558541944E+03  0.45088131859E+03  0.18800000000E+03 0.  0.
   -5000001    1    1    2    0    0  0.33642758345E+03  0.62270884753E+02  0.51471170392E+03  0.64601340555E+03  0.18800000000E+03 0.  0.
<mgrwt>
<rscale>  0 0.80940608E+03</rscale>
<asrwt>0</asrwt>
<pdfrwt beam="1">  1        2 0.13122799E+00 0.80940608E+03</pdfrwt>
<pdfrwt beam="2">  1       -2 0.25471257E-01 0.80940608E+03</pdfrwt>
<totfact> 0.43913654E+02</totfact>
</mgrwt>
</event>
<event>
 4    1  0.5886875E-005  0.5028804E+03  0.7818608E-02  0.1013030E+00
         -2   -1    0    0    0  501 -0.00000000000E+00  0.00000000000E+00  0.53443849044E+02  0.53443849105E+02  0.25500000000E-02 0. -1.
          2   -1    0    0  501    0  0.00000000000E+00 -0.00000000000E+00 -0.11829646082E+04  0.11829646082E+04  0.25500000000E-02 0.  1.
    5000001    1    1    2    0    0 -0.99017952090E+02  0.68736047984E+02 -0.28069303029E+03  0.35869454467E+03  0.18800000000E+03 0.  0.
   -5000001    1    1    2    0    0  0.99017952090E+02 -0.68736047984E+02 -0.84882772885E+03  0.87771391262E+03  0.18800000000E+03 0.  0.
<mgrwt>
<rscale>  0 0.50288043E+03</rscale>
<asrwt>0</asrwt>
<pdfrwt beam="1">  1        2 0.16899493E+00 0.50288043E+03</pdfrwt>
<pdfrwt beam="2">  1       -2 0.76348363E-02 0.50288043E+03</pdfrwt>
<totfact> 0.23309101E+03</totfact>
</mgrwt>
</event>
<event>
 4    1  0.5886875E-005  0.9872043E+03  0.7818608E-02  0.9322691E-01
          2   -1    0    0  501    0  0.00000000000E+00  0.00000000000E+00  0.11335178373E+04  0.11335178373E+04  0.25500000000E-02 0.  1.
         -2   -1    0    0    0  501 -0.00000000000E+00 -0.00000000000E+00 -0.21494421028E+03  0.21494421030E+03  0.25500000000E-02 0. -1.
    5000001    1    1    2    0    0 -0.39988248986E+03 -0.18123492831E+03  0.28897104557E+03  0.55821176099E+03  0.18800000000E+03 0.  0.
   -5000001    1    1    2    0    0  0.39988248986E+03  0.18123492831E+03  0.62960258148E+03  0.79025028664E+03  0.18800000000E+03 0.  0.
<mgrwt>
<rscale>  0 0.98720433E+03</rscale>
<asrwt>0</asrwt>
<pdfrwt beam="1">  1        2 0.16193112E+00 0.98720433E+03</pdfrwt>
<pdfrwt beam="2">  1       -2 0.30706315E-01 0.98720433E+03</pdfrwt>
<totfact> 0.22833469E+02</totfact>
</mgrwt>
</event>
<event>
 4    1  0.5886875E-005  0.4263732E+03  0.7818608E-02  0.1035012E+00
          2   -1    0    0  501    0  0.00000000000E+00  0.00000000000E+00  0.22886447301E+03  0.22886447302E+03  0.25500000000E-02 0.  1.
         -2   -1    0    0    0  501 -0.00000000000E+00 -0.00000000000E+00 -0.19858274808E+03  0.19858274809E+03  0.25500000000E-02 0. -1.
    5000001    1    1    2    0    0 -0.70718524746E+02 -0.37420138176E+02 -0.45866010228E+02  0.20940168905E+03  0.18800000000E+03 0.  0.
   -5000001    1    1    2    0    0  0.70718524746E+02  0.37420138176E+02  0.76147735155E+02  0.21804553206E+03  0.18800000000E+03 0.  0.
<mgrwt>
<rscale>  0 0.42637324E+03</rscale>
<asrwt>0</asrwt>
<pdfrwt beam="1">  1        2 0.32694925E-01 0.42637324E+03</pdfrwt>
<pdfrwt beam="2">  1       -2 0.28368964E-01 0.42637324E+03</pdfrwt>
<totfact> 0.18204494E+03</totfact>
</mgrwt>
</event>
<event>
 4    1  0.5886875E-005  0.4726160E+03  0.7818608E-02  0.1021184E+00
         -2   -1    0    0    0  501 -0.00000000000E+00  0.00000000000E+00  0.45492790465E+03  0.45492790466E+03  0.25500000000E-02 0. -1.
          2   -1    0    0  501    0  0.00000000000E+00 -0.00000000000E+00 -0.12274798014E+03  0.12274798017E+03  0.25500000000E-02 0.  1.
    5000001    1    1    2    0    0  0.86076714067E+02  0.86152033164E+02  0.25809639592E+03  0.34174423639E+03  0.18800000000E+03 0.  0.
   -5000001    1    1    2    0    0 -0.86076714067E+02 -0.86152033164E+02  0.74083528592E+02  0.23593164843E+03  0.18800000000E+03 0.  0.
<mgrwt>
<rscale>  0 0.47261604E+03</rscale>
<asrwt>0</asrwt>
<pdfrwt beam="1">  1        2 0.17535426E-01 0.47261604E+03</pdfrwt>
<pdfrwt beam="2">  1       -2 0.64989700E-01 0.47261604E+03</pdfrwt>
<totfact> 0.72915941E+02</totfact>
</mgrwt>
</event>
<event>
 4    1  0.5886875E-005  0.3866769E+03  0.7818608E-02  0.1048493E+00
         -2   -1    0    0    0  501 -0.00000000000E+00  0.00000000000E+00  0.49710204324E+02  0.49710204389E+02  0.25500000000E-02 0. -1.
          2   -1    0    0  501    0  0.00000000000E+00 -0.00000000000E+00 -0.75195342092E+03  0.75195342092E+03  0.25500000000E-02 0.  1.
    5000001    1    1    2    0    0  0.43757114726E+02  0.80495002722E+01 -0.33556854678E+03  0.38720760469E+03  0.18800000000E+03 0.  0.
   -5000001    1    1    2    0    0 -0.43757114726E+02 -0.80495002722E+01 -0.36667466982E+03  0.41445602062E+03  0.18800000000E+03 0.  0.
<mgrwt>
<rscale>  0 0.38667691E+03</rscale>
<asrwt>0</asrwt>
<pdfrwt beam="1">  1        2 0.10742191E+00 0.38667691E+03</pdfrwt>
<pdfrwt beam="2">  1       -2 0.71014582E-02 0.38667691E+03</pdfrwt>
<totfact> 0.48255123E+03</totfact>
</mgrwt>
</event>
<event>
 4    1  0.5886875E-005  0.5506374E+03  0.7818608E-02  0.1001347E+00
         -2   -1    0    0    0  501 -0.00000000000E+00  0.00000000000E+00  0.29225453817E+03  0.29225453818E+03  0.25500000000E-02 0. -1.
          2   -1    0    0  501    0  0.00000000000E+00 -0.00000000000E+00 -0.25936427727E+03  0.25936427728E+03  0.25500000000E-02 0.  1.
    5000001    1    1    2    0    0  0.84344491723E+02  0.15354784997E+03  0.11544155947E+03  0.28171206784E+03  0.18800000000E+03 0.  0.
   -5000001    1    1    2    0    0 -0.84344491723E+02 -0.15354784997E+03 -0.82551298574E+02  0.26990674762E+03  0.18800000000E+03 0.  0.
<mgrwt>
<rscale>  0 0.55063740E+03</rscale>
<asrwt>0</asrwt>
<pdfrwt beam="1">  1        2 0.37052039E-01 0.55063740E+03</pdfrwt>
<pdfrwt beam="2">  1       -2 0.41750649E-01 0.55063740E+03</pdfrwt>
<totfact> 0.76633716E+02</totfact>
</mgrwt>
</event>
<event>
 4    1  0.5886875E-005  0.4280929E+03  0.7818608E-02  0.1034464E+00
         -2   -1    0    0    0  501 -0.00000000000E+00  0.00000000000E+00  0.20618007730E+02  0.20618007887E+02  0.25500000000E-02 0. -1.
          2   -1    0    0  501    0  0.00000000000E+00 -0.00000000000E+00 -0.22221295725E+04  0.22221295725E+04  0.25500000000E-02 0.  1.
    5000001    1    1    2    0    0 -0.53901687610E+02  0.24476642870E+02 -0.15380536159E+04  0.15506312984E+04  0.18800000000E+03 0.  0.
   -5000001    1    1    2    0    0  0.53901687610E+02 -0.24476642870E+02 -0.66345794887E+03  0.69211628206E+03  0.18800000000E+03 0.  0.
<mgrwt>
<rscale>  0 0.42809291E+03</rscale>
<asrwt>0</asrwt>
<pdfrwt beam="1">  1        2 0.31744693E+00 0.42809291E+03</pdfrwt>
<pdfrwt beam="2">  1       -2 0.29454311E-02 0.42809291E+03</pdfrwt>
<totfact> 0.29755729E+03</totfact>
</mgrwt>
</event>
<event>
 4    1  0.5886875E-005  0.7822794E+03  0.7818608E-02  0.9586027E-01
         -2   -1    0    0    0  501 -0.00000000000E+00  0.00000000000E+00  0.42805408747E+03  0.42805408748E+03  0.25500000000E-02 0. -1.
          2   -1    0    0  501    0  0.00000000000E+00 -0.00000000000E+00 -0.35740870115E+03  0.35740870116E+03  0.25500000000E-02 0.  1.
    5000001    1    1    2    0    0 -0.20156259771E+03  0.18311193236E+03 -0.17406561172E+03  0.37389878009E+03  0.18800000000E+03 0.  0.
   -5000001    1    1    2    0    0  0.20156259771E+03 -0.18311193236E+03  0.24471099804E+03  0.41156400855E+03  0.18800000000E+03 0.  0.
<mgrwt>
<rscale>  0 0.78227938E+03</rscale>
<asrwt>0</asrwt>
<pdfrwt beam="1">  1        2 0.51058386E-01 0.78227938E+03</pdfrwt>
<pdfrwt beam="2">  1       -2 0.61150584E-01 0.78227938E+03</pdfrwt>
<totfact> 0.24588691E+02</totfact>
</mgrwt>
</event>
<event>
 4    1  0.5886875E-005  0.5126022E+03  0.7818608E-02  0.1010541E+00
         -2   -1    0    0    0  501 -0.00000000000E+00  0.00000000000E+00  0.96816851400E+02  0.96816851433E+02  0.25500000000E-02 0. -1.
          2   -1    0    0  501    0  0.00000000000E+00 -0.00000000000E+00 -0.67850026317E+03  0.67850026317E+03  0.25500000000E-02 0.  1.
    5000001    1    1    2    0    0  0.15186012147E+03 -0.16334001569E+02 -0.16413359187E+03  0.29259550933E+03  0.18800000000E+03 0.  0.
   -5000001    1    1    2    0    0 -0.15186012147E+03  0.16334001569E+02 -0.41754981990E+03  0.48272160527E+03  0.18800000000E+03 0.  0.
<mgrwt>
<rscale>  0 0.51260222E+03</rscale>
<asrwt>0</asrwt>
<pdfrwt beam="1">  1        2 0.96928607E-01 0.51260222E+03</pdfrwt>
<pdfrwt beam="2">  1       -2 0.13830979E-01 0.51260222E+03</pdfrwt>
<totfact> 0.18749728E+03</totfact>
</mgrwt>
</event>
<event>
 4    1  0.5886875E-005  0.4977457E+03  0.7818608E-02  0.1014369E+00
         -2   -1    0    0    0  501 -0.00000000000E+00  0.00000000000E+00  0.16564547933E+03  0.16564547935E+03  0.25500000000E-02 0. -1.
          2   -1    0    0  501    0  0.00000000000E+00 -0.00000000000E+00 -0.37391715842E+03  0.37391715842E+03  0.25500000000E-02 0.  1.
    5000001    1    1    2    0    0  0.15987290418E+03 -0.24733505559E+02 -0.12642001853E+03  0.27838303266E+03  0.18800000000E+03 0.  0.
   -5000001    1    1    2    0    0 -0.15987290418E+03  0.24733505559E+02 -0.81851660554E+02  0.26117960511E+03  0.18800000000E+03 0.  0.
<mgrwt>
<rscale>  0 0.49774567E+03</rscale>
<asrwt>0</asrwt>
<pdfrwt beam="1">  1        2 0.53416737E-01 0.49774567E+03</pdfrwt>
<pdfrwt beam="2">  1       -2 0.23663640E-01 0.49774567E+03</pdfrwt>
<totfact> 0.14718736E+03</totfact>
</mgrwt>
</event>
<event>
 4    1  0.5886875E-005  0.5560074E+03  0.7818608E-02  0.1000113E+00
         -2   -1    0    0    0  501 -0.00000000000E+00  0.00000000000E+00  0.85165801468E+02  0.85165801506E+02  0.25500000000E-02 0. -1.
          2   -1    0    0  501    0  0.00000000000E+00 -0.00000000000E+00 -0.90747771415E+03  0.90747771415E+03  0.25500000000E-02 0.  1.
    5000001    1    1    2    0    0 -0.60659727742E+02 -0.55082188074E+02 -0.76067648460E+02  0.21873256995E+03  0.18800000000E+03 0.  0.
   -5000001    1    1    2    0    0  0.60659727742E+02  0.55082188074E+02 -0.74624426422E+03  0.77391094571E+03  0.18800000000E+03 0.  0.
<mgrwt>
<rscale>  0 0.55600743E+03</rscale>
<asrwt>0</asrwt>
<pdfrwt beam="1">  1        2 0.12963967E+00 0.55600743E+03</pdfrwt>
<pdfrwt beam="2">  1       -2 0.12166544E-01 0.55600743E+03</pdfrwt>
<totfact> 0.16035315E+03</totfact>
</mgrwt>
</event>
<event>
 4    1  0.5886875E-005  0.8943582E+03  0.7818608E-02  0.9432662E-01
          2   -1    0    0  501    0  0.00000000000E+00  0.00000000000E+00  0.95544373901E+02  0.95544373935E+02  0.25500000000E-02 0.  1.
         -2   -1    0    0    0  501 -0.00000000000E+00 -0.00000000000E+00 -0.20929452359E+04  0.20929452359E+04  0.25500000000E-02 0. -1.
    5000001    1    1    2    0    0  0.38136183451E+03 -0.22723550692E+02 -0.13330706958E+04  0.13994194112E+04  0.18800000000E+03 0.  0.
   -5000001    1    1    2    0    0 -0.38136183451E+03  0.22723550692E+02 -0.66433016622E+03  0.78907019861E+03  0.18800000000E+03 0.  0.
<mgrwt>
<rscale>  0 0.89435819E+03</rscale>
<asrwt>0</asrwt>
<pdfrwt beam="1">  1        2 0.13649198E-01 0.89435819E+03</pdfrwt>
<pdfrwt beam="2">  1       -2 0.29899215E+00 0.89435819E+03</pdfrwt>
<totfact> 0.14898286E+01</totfact>
</mgrwt>
</event>
<event>
 4    1  0.5886875E-005  0.9463395E+03  0.7818608E-02  0.9369439E-01
          2   -1    0    0  501    0  0.00000000000E+00  0.00000000000E+00  0.32725459321E+03  0.32725459322E+03  0.25500000000E-02 0.  1.
         -2   -1    0    0    0  501 -0.00000000000E+00 -0.00000000000E+00 -0.68414509814E+03  0.68414509814E+03  0.25500000000E-02 0. -1.
    5000001    1    1    2    0    0  0.14237848467E+03 -0.40968721993E+03 -0.15627354114E+03  0.49787616004E+03  0.18800000000E+03 0.  0.
   -5000001    1    1    2    0    0 -0.14237848467E+03  0.40968721993E+03 -0.20061696378E+03  0.51352353133E+03  0.18800000000E+03 0.  0.
<mgrwt>
<rscale>  0 0.94633953E+03</rscale>
<asrwt>0</asrwt>
<pdfrwt beam="1">  1        2 0.46750656E-01 0.94633953E+03</pdfrwt>
<pdfrwt beam="2">  1       -2 0.97735013E-01 0.94633953E+03</pdfrwt>
<totfact> 0.94533586E+01</totfact>
</mgrwt>
</event>
<event>
 4    1  0.5886875E-005  0.6375931E+03  0.7818608E-02  0.9830343E-01
         -2   -1    0    0    0  501 -0.00000000000E+00  0.00000000000E+00  0.26035430242E+03  0.26035430243E+03  0.25500000000E-02 0. -1.
          2   -1    0    0  501    0  0.00000000000E+00 -0.00000000000E+00 -0.39035739343E+03  0.39035739344E+03  0.25500000000E-02 0.  1.
    5000001    1    1    2    0    0  0.10509378585E+03  0.23498118466E+03 -0.70241968125E+02  0.32640281104E+03  0.18800000000E+03 0.  0.
   -5000001    1    1    2    0    0 -0.10509378585E+03 -0.23498118466E+03 -0.59761122888E+02  0.32430888483E+03  0.18800000000E+03 0.  0.
<mgrwt>
<rscale>  0 0.63759306E+03</rscale>
<asrwt>0</asrwt>
<pdfrwt beam="1">  1        2 0.55765342E-01 0.63759306E+03</pdfrwt>
<pdfrwt beam="2">  1       -2 0.37193472E-01 0.63759306E+03</pdfrwt>
<totfact> 0.60926513E+02</totfact>
</mgrwt>
</event>
<event>
 4    1  0.5886875E-005  0.6103831E+03  0.7818608E-02  0.9884096E-01
         -2   -1    0    0    0  501 -0.00000000000E+00  0.00000000000E+00  0.81868246314E+02  0.81868246354E+02  0.25500000000E-02 0. -1.
          2   -1    0    0  501    0  0.00000000000E+00 -0.00000000000E+00 -0.11377044393E+04  0.11377044393E+04  0.25500000000E-02 0.  1.
    5000001    1    1    2    0    0 -0.22362649533E+03  0.88200000906E+02 -0.53417862034E+03  0.61520634588E+03  0.18800000000E+03 0.  0.
   -5000001    1    1    2    0    0  0.22362649533E+03 -0.88200000906E+02 -0.52165757268E+03  0.60436633982E+03  0.18800000000E+03 0.  0.
<mgrwt>
<rscale>  0 0.61038305E+03</rscale>
<asrwt>0</asrwt>
<pdfrwt beam="1">  1        2 0.16252920E+00 0.61038305E+03</pdfrwt>
<pdfrwt beam="2">  1       -2 0.11695464E-01 0.61038305E+03</pdfrwt>
<totfact> 0.12412708E+03</totfact>
</mgrwt>
</event>
<event>
 4    1  0.5886875E-005  0.8477283E+03  0.7818608E-02  0.9493391E-01
          2   -1    0    0  501    0  0.00000000000E+00  0.00000000000E+00  0.86040196497E+03  0.86040196498E+03  0.25500000000E-02 0.  1.
         -2   -1    0    0    0  501 -0.00000000000E+00 -0.00000000000E+00 -0.20881030976E+03  0.20881030977E+03  0.25500000000E-02 0. -1.
    5000001    1    1    2    0    0  0.28631490155E+03 -0.72977806277E+02  0.62695850186E+03  0.71813852850E+03  0.18800000000E+03 0.  0.
   -5000001    1    1    2    0    0 -0.28631490155E+03  0.72977806277E+02  0.24633153351E+02  0.35107374625E+03  0.18800000000E+03 0.  0.
<mgrwt>
<rscale>  0 0.84772826E+03</rscale>
<asrwt>0</asrwt>
<pdfrwt beam="1">  1        2 0.12291457E+00 0.84772826E+03</pdfrwt>
<pdfrwt beam="2">  1       -2 0.29830044E-01 0.84772826E+03</pdfrwt>
<totfact> 0.35846609E+02</totfact>
</mgrwt>
</event>
<event>
 4    1  0.5886875E-005  0.5079318E+03  0.7818608E-02  0.1011729E+00
         -2   -1    0    0    0  501 -0.00000000000E+00  0.00000000000E+00  0.32377685471E+02  0.32377685571E+02  0.25500000000E-02 0. -1.
          2   -1    0    0  501    0  0.00000000000E+00 -0.00000000000E+00 -0.19920719079E+04  0.19920719079E+04  0.25500000000E-02 0.  1.
    5000001    1    1    2    0    0  0.46439498335E+02 -0.16426270235E+03 -0.99569755548E+03  0.10275682383E+04  0.18800000000E+03 0.  0.
   -5000001    1    1    2    0    0 -0.46439498335E+02  0.16426270235E+03 -0.96399666700E+03  0.99688135521E+03  0.18800000000E+03 0.  0.
<mgrwt>
<rscale>  0 0.50793180E+03</rscale>
<asrwt>0</asrwt>
<pdfrwt beam="1">  1        2 0.28458162E+00 0.50793180E+03</pdfrwt>
<pdfrwt beam="2">  1       -2 0.46253849E-02 0.50793180E+03</pdfrwt>
<totfact> 0.19425137E+03</totfact>
</mgrwt>
</event>
<event>
 4    1  0.5886875E-005  0.5352484E+03  0.7818608E-02  0.1004967E+00
          2   -1    0    0  501    0  0.00000000000E+00  0.00000000000E+00  0.61868835354E+03  0.61868835355E+03  0.25500000000E-02 0.  1.
         -2   -1    0    0    0  501 -0.00000000000E+00 -0.00000000000E+00 -0.11576541233E+03  0.11576541236E+03  0.25500000000E-02 0. -1.
    5000001    1    1    2    0    0  0.83123855934E+02  0.15383234342E+03  0.35510144116E+03  0.43819516066E+03  0.18800000000E+03 0.  0.
   -5000001    1    1    2    0    0 -0.83123855934E+02 -0.15383234342E+03  0.14782150004E+03  0.29625860525E+03  0.18800000000E+03 0.  0.
<mgrwt>
<rscale>  0 0.53524840E+03</rscale>
<asrwt>0</asrwt>
<pdfrwt beam="1">  1        2 0.88384049E-01 0.53524840E+03</pdfrwt>
<pdfrwt beam="2">  1       -2 0.16537916E-01 0.53524840E+03</pdfrwt>
<totfact> 0.15501729E+03</totfact>
</mgrwt>
</event>
<event>
 4    1  0.5886875E-005  0.5386031E+03  0.7818608E-02  0.1004167E+00
          2   -1    0    0  501    0  0.00000000000E+00  0.00000000000E+00  0.53696609803E+03  0.53696609804E+03  0.25500000000E-02 0.  1.
         -2   -1    0    0    0  501 -0.00000000000E+00 -0.00000000000E+00 -0.13506128994E+03  0.13506128996E+03  0.25500000000E-02 0. -1.
    5000001    1    1    2    0    0 -0.30109154522E+02 -0.10230137852E+03  0.51048775835E+00  0.21613975532E+03  0.18800000000E+03 0.  0.
   -5000001    1    1    2    0    0  0.30109154522E+02  0.10230137852E+03  0.40139432034E+03  0.45588763268E+03  0.18800000000E+03 0.  0.
<mgrwt>
<rscale>  0 0.53860313E+03</rscale>
<asrwt>0</asrwt>
<pdfrwt beam="1">  1        2 0.76709441E-01 0.53860313E+03</pdfrwt>
<pdfrwt beam="2">  1       -2 0.19294470E-01 0.53860313E+03</pdfrwt>
<totfact> 0.14035733E+03</totfact>
</mgrwt>
</event>
<event>
 4    1  0.5886875E-005  0.5117746E+03  0.7818608E-02  0.1010750E+00
         -2   -1    0    0    0  501 -0.00000000000E+00  0.00000000000E+00  0.29624228786E+02  0.29624228895E+02  0.25500000000E-02 0. -1.
          2   -1    0    0  501    0  0.00000000000E+00 -0.00000000000E+00 -0.22102958198E+04  0.22102958198E+04  0.25500000000E-02 0.  1.
    5000001    1    1    2    0    0 -0.11222086697E+02  0.17253958531E+03 -0.11579233171E+04  0.11857597784E+04  0.18800000000E+03 0.  0.
   -5000001    1    1    2    0    0  0.11222086697E+02 -0.17253958531E+03 -0.10227482739E+04  0.10541602703E+04  0.18800000000E+03 0.  0.
<mgrwt>
<rscale>  0 0.51177460E+03</rscale>
<asrwt>0</asrwt>
<pdfrwt beam="1">  1        2 0.31575644E+00 0.51177460E+03</pdfrwt>
<pdfrwt beam="2">  1       -2 0.42320341E-02 0.51177460E+03</pdfrwt>
<totfact> 0.17319844E+03</totfact>
</mgrwt>
</event>
<event>
 4    1  0.5886875E-005  0.5398867E+03  0.7818608E-02  0.1003862E+00
         -2   -1    0    0    0  501 -0.00000000000E+00  0.00000000000E+00  0.17070674096E+03  0.17070674098E+03  0.25500000000E-02 0. -1.
          2   -1    0    0  501    0  0.00000000000E+00 -0.00000000000E+00 -0.42686894867E+03  0.42686894868E+03  0.25500000000E-02 0.  1.
    5000001    1    1    2    0    0  0.10624634063E+03  0.85091939574E+02 -0.28063627051E+03  0.36418352435E+03  0.18800000000E+03 0.  0.
   -5000001    1    1    2    0    0 -0.10624634063E+03 -0.85091939574E+02  0.24474062803E+02  0.23339216531E+03  0.18800000000E+03 0.  0.
<mgrwt>
<rscale>  0 0.53988668E+03</rscale>
<asrwt>0</asrwt>
<pdfrwt beam="1">  1        2 0.60981278E-01 0.53988668E+03</pdfrwt>
<pdfrwt beam="2">  1       -2 0.24386677E-01 0.53988668E+03</pdfrwt>
<totfact> 0.12049439E+03</totfact>
</mgrwt>
</event>
<event>
 4    1  0.5886875E-005  0.4790585E+03  0.7818608E-02  0.1019394E+00
          2   -1    0    0  501    0  0.00000000000E+00  0.00000000000E+00  0.10987321624E+04  0.10987321624E+04  0.25500000000E-02 0.  1.
         -2   -1    0    0    0  501 -0.00000000000E+00 -0.00000000000E+00 -0.52218613749E+02  0.52218613811E+02  0.25500000000E-02 0. -1.
    5000001    1    1    2    0    0 -0.79098830089E+02 -0.12538826277E+03  0.50602727986E+03  0.55980929728E+03  0.18800000000E+03 0.  0.
   -5000001    1    1    2    0    0  0.79098830089E+02  0.12538826277E+03  0.54048626876E+03  0.59114147891E+03  0.18800000000E+03 0.  0.
<mgrwt>
<rscale>  0 0.47905854E+03</rscale>
<asrwt>0</asrwt>
<pdfrwt beam="1">  1        2 0.15696173E+00 0.47905854E+03</pdfrwt>
<pdfrwt beam="2">  1       -2 0.74598021E-02 0.47905854E+03</pdfrwt>
<totfact> 0.26999084E+03</totfact>
</mgrwt>
</event>
<event>
 4    1  0.5886875E-005  0.5792735E+03  0.7818608E-02  0.9949365E-01
          2   -1    0    0  501    0  0.00000000000E+00  0.00000000000E+00  0.77463357027E+03  0.77463357027E+03  0.25500000000E-02 0.  1.
         -2   -1    0    0    0  501 -0.00000000000E+00 -0.00000000000E+00 -0.10829565710E+03  0.10829565713E+03  0.25500000000E-02 0. -1.
    5000001    1    1    2    0    0  0.12863836239E+03  0.17638674475E+03  0.37852102975E+03  0.47569137260E+03  0.18800000000E+03 0.  0.
   -5000001    1    1    2    0    0 -0.12863836239E+03 -0.17638674475E+03  0.28781688342E+03  0.40723785480E+03  0.18800000000E+03 0.  0.
<mgrwt>
<rscale>  0 0.57927352E+03</rscale>
<asrwt>0</asrwt>
<pdfrwt beam="1">  1        2 0.11066194E+00 0.57927352E+03</pdfrwt>
<pdfrwt beam="2">  1       -2 0.15470808E-01 0.57927352E+03</pdfrwt>
<totfact> 0.13193456E+03</totfact>
</mgrwt>
</event>
<event>
 4    1  0.5886875E-005  0.6327216E+03  0.7818608E-02  0.9839752E-01
          2   -1    0    0  501    0  0.00000000000E+00  0.00000000000E+00  0.13510106655E+03  0.13510106657E+03  0.25500000000E-02 0.  1.
         -2   -1    0    0    0  501 -0.00000000000E+00 -0.00000000000E+00 -0.74080958028E+03  0.74080958028E+03  0.25500000000E-02 0. -1.
    5000001    1    1    2    0    0 -0.22381779112E+03 -0.10216082310E+03 -0.39266593749E+03  0.50006177205E+03  0.18800000000E+03 0.  0.
   -5000001    1    1    2    0    0  0.22381779112E+03  0.10216082310E+03 -0.21304257624E+03  0.37584887480E+03  0.18800000000E+03 0.  0.
<mgrwt>
<rscale>  0 0.63272163E+03</rscale>
<asrwt>0</asrwt>
<pdfrwt beam="1">  1        2 0.19300153E-01 0.63272163E+03</pdfrwt>
<pdfrwt beam="2">  1       -2 0.10582994E+00 0.63272163E+03</pdfrwt>
<totfact> 0.21624898E+02</totfact>
</mgrwt>
</event>
<event>
 4    1  0.5886875E-005  0.5578237E+03  0.7818608E-02  0.9996991E-01
         -2   -1    0    0    0  501 -0.00000000000E+00  0.00000000000E+00  0.80065958838E+02  0.80065958879E+02  0.25500000000E-02 0.  1.
          2   -1    0    0  501    0  0.00000000000E+00 -0.00000000000E+00 -0.97159654404E+03  0.97159654405E+03  0.25500000000E-02 0. -1.
    5000001    1    1    2    0    0 -0.13188413741E+03  0.12741708766E+03 -0.26871536512E+03  0.37573991987E+03  0.18800000000E+03 0.  0.
   -5000001    1    1    2    0    0  0.13188413741E+03 -0.12741708766E+03 -0.62281522008E+03  0.67592258306E+03  0.18800000000E+03 0.  0.
<mgrwt>
<rscale>  0 0.55782366E+03</rscale>
<asrwt>0</asrwt>
<pdfrwt beam="1">  1        2 0.13879950E+00 0.55782366E+03</pdfrwt>
<pdfrwt beam="2">  1       -2 0.11437995E-01 0.55782366E+03</pdfrwt>
<totfact> 0.16172418E+03</totfact>
</mgrwt>
</event>
<event>
 4    1  0.5886875E-005  0.5580606E+03  0.7818608E-02  0.9996453E-01
         -2   -1    0    0    0  501 -0.00000000000E+00  0.00000000000E+00  0.16462792977E+03  0.16462792979E+03  0.25500000000E-02 0. -1.
          2   -1    0    0  501    0  0.00000000000E+00 -0.00000000000E+00 -0.47293253846E+03  0.47293253847E+03  0.25500000000E-02 0.  1.
    5000001    1    1    2    0    0  0.17314484143E+03  0.10474116357E+03 -0.19933439845E+03  0.34062890345E+03  0.18800000000E+03 0.  0.
   -5000001    1    1    2    0    0 -0.17314484143E+03 -0.10474116357E+03 -0.10897021024E+03  0.29693156481E+03  0.18800000000E+03 0.  0.
<mgrwt>
<rscale>  0 0.55806059E+03</rscale>
<asrwt>0</asrwt>
<pdfrwt beam="1">  1        2 0.67561791E-01 0.55806059E+03</pdfrwt>
<pdfrwt beam="2">  1       -2 0.23518276E-01 0.55806059E+03</pdfrwt>
<totfact> 0.11459470E+03</totfact>
</mgrwt>
</event>
<event>
 4    1  0.5886875E-005  0.4062944E+03  0.7818608E-02  0.1041622E+00
          2   -1    0    0  501    0  0.00000000000E+00  0.00000000000E+00  0.49931867007E+03  0.49931867008E+03  0.25500000000E-02 0.  1.
         -2   -1    0    0    0  501 -0.00000000000E+00 -0.00000000000E+00 -0.82650181514E+02  0.82650181554E+02  0.25500000000E-02 0. -1.
    5000001    1    1    2    0    0 -0.16233795157E+02  0.74976504114E+02  0.19930154879E+03  0.28451734503E+03  0.18800000000E+03 0.  0.
   -5000001    1    1    2    0    0  0.16233795157E+02 -0.74976504114E+02  0.21736693977E+03  0.29745150660E+03  0.18800000000E+03 0.  0.
<mgrwt>
<rscale>  0 0.40629437E+03</rscale>
<asrwt>0</asrwt>
<pdfrwt beam="1">  1        2 0.71331238E-01 0.40629437E+03</pdfrwt>
<pdfrwt beam="2">  1       -2 0.11807169E-01 0.40629437E+03</pdfrwt>
<totfact> 0.34644916E+03</totfact>
</mgrwt>
</event>
<event>
 4    1  0.5886875E-005  0.5339527E+03  0.7818608E-02  0.1005278E+00
          2   -1    0    0  501    0  0.00000000000E+00  0.00000000000E+00  0.38732719414E+03  0.38732719415E+03  0.25500000000E-02 0.  1.
         -2   -1    0    0    0  501 -0.00000000000E+00 -0.00000000000E+00 -0.18402105576E+03  0.18402105578E+03  0.25500000000E-02 0. -1.
    5000001    1    1    2    0    0 -0.34435066853E+02  0.18406640670E+03  0.13314454586E+03  0.29687991848E+03  0.18800000000E+03 0.  0.
   -5000001    1    1    2    0    0  0.34435066853E+02 -0.18406640670E+03  0.70161592525E+02  0.27446833145E+03  0.18800000000E+03 0.  0.
<mgrwt>
<rscale>  0 0.53395265E+03</rscale>
<asrwt>0</asrwt>
<pdfrwt beam="1">  1        2 0.55332455E-01 0.53395265E+03</pdfrwt>
<pdfrwt beam="2">  1       -2 0.26288723E-01 0.53395265E+03</pdfrwt>
<totfact> 0.11728931E+03</totfact>
</mgrwt>
</event>
<event>
 4    1  0.5886875E-005  0.4811797E+03  0.7818608E-02  0.1018811E+00
         -2   -1    0    0    0  501 -0.00000000000E+00  0.00000000000E+00  0.36209358732E+02  0.36209358822E+02  0.25500000000E-02 0. -1.
          2   -1    0    0  501    0  0.00000000000E+00 -0.00000000000E+00 -0.15985775501E+04  0.15985775501E+04  0.25500000000E-02 0.  1.
    5000001    1    1    2    0    0  0.13699817201E+03  0.21142035387E+02 -0.97706102961E+03  0.10045933209E+04  0.18800000000E+03 0.  0.
   -5000001    1    1    2    0    0 -0.13699817201E+03 -0.21142035387E+02 -0.58530716177E+03  0.63019358804E+03  0.18800000000E+03 0.  0.
<mgrwt>
<rscale>  0 0.48117967E+03</rscale>
<asrwt>0</asrwt>
<pdfrwt beam="1">  1        2 0.22836818E+00 0.48117967E+03</pdfrwt>
<pdfrwt beam="2">  1       -2 0.51727665E-02 0.48117967E+03</pdfrwt>
<totfact> 0.25796215E+03</totfact>
</mgrwt>
</event>
<event>
 4    1  0.5886875E-005  0.2126743E+04  0.7818608E-02  0.8549553E-01
         -2   -1    0    0    0  501 -0.00000000000E+00  0.00000000000E+00  0.41142741868E+03  0.41142741869E+03  0.25500000000E-02 0. -1.
          2   -1    0    0  501    0  0.00000000000E+00 -0.00000000000E+00 -0.27483808219E+04  0.27483808219E+04  0.25500000000E-02 0.  1.
    5000001    1    1    2    0    0  0.96646513395E+03  0.20865319288E+02 -0.57246136582E+03  0.11390988684E+04  0.18800000000E+03 0.  0.
   -5000001    1    1    2    0    0 -0.96646513395E+03 -0.20865319288E+02 -0.17644920373E+04  0.20207093721E+04  0.18800000000E+03 0.  0.
<mgrwt>
<rscale>  0 0.21267433E+04</rscale>
<asrwt>0</asrwt>
<pdfrwt beam="1">  1        2 0.39262582E+00 0.21267433E+04</pdfrwt>
<pdfrwt beam="2">  1       -2 0.58775347E-01 0.21267433E+04</pdfrwt>
<totfact> 0.81096884E+00</totfact>
</mgrwt>
</event>
<event>
 4    1  0.5886875E-005  0.7659356E+03  0.7818608E-02  0.9610676E-01
         -2   -1    0    0    0  501 -0.00000000000E+00  0.00000000000E+00  0.75636269879E+02  0.75636269922E+02  0.25500000000E-02 0. -1.
          2   -1    0    0  501    0  0.00000000000E+00 -0.00000000000E+00 -0.19390742363E+04  0.19390742363E+04  0.25500000000E-02 0.  1.
    5000001    1    1    2    0    0  0.15447835234E+03  0.24463107803E+03 -0.49462724796E+03  0.60308211722E+03  0.18800000000E+03 0.  0.
   -5000001    1    1    2    0    0 -0.15447835234E+03 -0.24463107803E+03 -0.13688107185E+04  0.14116283890E+04  0.18800000000E+03 0.  0.
<mgrwt>
<rscale>  0 0.76593562E+03</rscale>
<asrwt>0</asrwt>
<pdfrwt beam="1">  1        2 0.27701057E+00 0.76593562E+03</pdfrwt>
<pdfrwt beam="2">  1       -2 0.10805183E-01 0.76593562E+03</pdfrwt>
<totfact> 0.53079348E+02</totfact>
</mgrwt>
</event>
<event>
 4    1  0.5886875E-005  0.7796375E+03  0.7818608E-02  0.9589968E-01
         -2   -1    0    0    0  501 -0.00000000000E+00  0.00000000000E+00  0.10031684855E+03  0.10031684859E+03  0.25500000000E-02 0. -1.
          2   -1    0    0  501    0  0.00000000000E+00 -0.00000000000E+00 -0.15147871650E+04  0.15147871650E+04  0.25500000000E-02 0.  1.
    5000001    1    1    2    0    0 -0.15772870290E+03 -0.29570768100E+03 -0.84297373332E+03  0.92642867582E+03  0.18800000000E+03 0.  0.
   -5000001    1    1    2    0    0  0.15772870290E+03  0.29570768100E+03 -0.57149658311E+03  0.68867533775E+03  0.18800000000E+03 0.  0.
<mgrwt>
<rscale>  0 0.77963754E+03</rscale>
<asrwt>0</asrwt>
<pdfrwt beam="1">  1        2 0.21639815E+00 0.77963754E+03</pdfrwt>
<pdfrwt beam="2">  1       -2 0.14330979E-01 0.77963754E+03</pdfrwt>
<totfact> 0.54786615E+02</totfact>
</mgrwt>
</event>
<event>
 4    1  0.5886875E-005  0.9910646E+03  0.7818608E-02  0.9318400E-01
         -2   -1    0    0    0  501 -0.00000000000E+00  0.00000000000E+00  0.14683486941E+03  0.14683486943E+03  0.25500000000E-02 0. -1.
          2   -1    0    0  501    0  0.00000000000E+00 -0.00000000000E+00 -0.16723020403E+04  0.16723020403E+04  0.25500000000E-02 0.  1.
    5000001    1    1    2    0    0  0.33089122638E+03  0.29521100166E+03 -0.97655379607E+03  0.10888709087E+04  0.18800000000E+03 0.  0.
   -5000001    1    1    2    0    0 -0.33089122638E+03 -0.29521100166E+03 -0.54891337480E+03  0.73026600101E+03  0.18800000000E+03 0.  0.
<mgrwt>
<rscale>  0 0.99106458E+03</rscale>
<asrwt>0</asrwt>
<pdfrwt beam="1">  1        2 0.23890028E+00 0.99106458E+03</pdfrwt>
<pdfrwt beam="2">  1       -2 0.20976411E-01 0.99106458E+03</pdfrwt>
<totfact> 0.23242496E+02</totfact>
</mgrwt>
</event>
<event>
 4    1  0.5886875E-005  0.5236072E+03  0.7818608E-02  0.1007794E+00
         -2   -1    0    0    0  501 -0.00000000000E+00  0.00000000000E+00  0.39307932513E+02  0.39307932595E+02  0.25500000000E-02 0. -1.
          2   -1    0    0  501    0  0.00000000000E+00 -0.00000000000E+00 -0.17436972657E+04  0.17436972657E+04  0.25500000000E-02 0.  1.
    5000001    1    1    2    0    0 -0.98746946216E+02 -0.10875088446E+03 -0.12192564744E+04  0.12423800001E+04  0.18800000000E+03 0.  0.
   -5000001    1    1    2    0    0  0.98746946216E+02  0.10875088446E+03 -0.48513285876E+03  0.54062519818E+03  0.18800000000E+03 0.  0.
<mgrwt>
<rscale>  0 0.52360724E+03</rscale>
<asrwt>0</asrwt>
<pdfrwt beam="1">  1        2 0.24909956E+00 0.52360724E+03</pdfrwt>
<pdfrwt beam="2">  1       -2 0.56154200E-02 0.52360724E+03</pdfrwt>
<totfact> 0.19151692E+03</totfact>
</mgrwt>
</event>
<event>
 4    1  0.5886875E-005  0.4426971E+03  0.7818608E-02  0.1029922E+00
         -2   -1    0    0    0  501 -0.00000000000E+00  0.00000000000E+00  0.16679130298E+02  0.16679130493E+02  0.25500000000E-02 0. -1.
          2   -1    0    0  501    0  0.00000000000E+00 -0.00000000000E+00 -0.29375145540E+04  0.29375145540E+04  0.25500000000E-02 0.  1.
    5000001    1    1    2    0    0  0.10841607440E+03 -0.31013881473E+02 -0.16644991946E+04  0.16788738710E+04  0.18800000000E+03 0.  0.
   -5000001    1    1    2    0    0 -0.10841607440E+03  0.31013881473E+02 -0.12563362291E+04  0.12753198134E+04  0.18800000000E+03 0.  0.
<mgrwt>
<rscale>  0 0.44269713E+03</rscale>
<asrwt>0</asrwt>
<pdfrwt beam="1">  1        2 0.41964461E+00 0.44269713E+03</pdfrwt>
<pdfrwt beam="2">  1       -2 0.23827348E-02 0.44269713E+03</pdfrwt>
<totfact> 0.17563273E+03</totfact>
</mgrwt>
</event>
<event>
 4    1  0.5886875E-005  0.5042871E+03  0.7818608E-02  0.1012666E+00
         -2   -1    0    0    0  501 -0.00000000000E+00  0.00000000000E+00  0.25051116801E+02  0.25051116930E+02  0.25500000000E-02 0. -1.
          2   -1    0    0  501    0  0.00000000000E+00 -0.00000000000E+00 -0.25378656442E+04  0.25378656442E+04  0.25500000000E-02 0.  1.
    5000001    1    1    2    0    0  0.15564381178E+03 -0.23976191083E+02 -0.95864965690E+03  0.98952161096E+03  0.18800000000E+03 0.  0.
   -5000001    1    1    2    0    0 -0.15564381178E+03  0.23976191083E+02 -0.15541648705E+04  0.15733951502E+04  0.18800000000E+03 0.  0.
<mgrwt>
<rscale>  0 0.50428710E+03</rscale>
<asrwt>0</asrwt>
<pdfrwt beam="1">  1        2 0.36255207E+00 0.50428710E+03</pdfrwt>
<pdfrwt beam="2">  1       -2 0.35787326E-02 0.50428710E+03</pdfrwt>
<totfact> 0.15287997E+03</totfact>
</mgrwt>
</event>
<event>
 4    1  0.5886875E-005  0.4268417E+03  0.7818608E-02  0.1034862E+00
         -2   -1    0    0    0  501 -0.00000000000E+00  0.00000000000E+00  0.57864225643E+03  0.57864225644E+03  0.25500000000E-02 0. -1.
          2   -1    0    0  501    0  0.00000000000E+00 -0.00000000000E+00 -0.78716082779E+02  0.78716082820E+02  0.25500000000E-02 0.  1.
    5000001    1    1    2    0    0  0.91941997765E+02  0.27899057023E+01  0.18566085073E+03  0.27977681466E+03  0.18800000000E+03 0.  0.
   -5000001    1    1    2    0    0 -0.91941997765E+02 -0.27899057023E+01  0.31426532292E+03  0.37758152460E+03  0.18800000000E+03 0.  0.
<mgrwt>
<rscale>  0 0.42684167E+03</rscale>
<asrwt>0</asrwt>
<pdfrwt beam="1">  1        2 0.11245155E-01 0.42684167E+03</pdfrwt>
<pdfrwt beam="2">  1       -2 0.82663176E-01 0.42684167E+03</pdfrwt>
<totfact> 0.73862064E+02</totfact>
</mgrwt>
</event>
<event>
 4    1  0.5886875E-005  0.5578227E+03  0.7818608E-02  0.9996993E-01
          2   -1    0    0  501    0  0.00000000000E+00  0.00000000000E+00  0.32955534318E+03  0.32955534319E+03  0.25500000000E-02 0. -1.
         -2   -1    0    0    0  501 -0.00000000000E+00 -0.00000000000E+00 -0.23604998786E+03  0.23604998788E+03  0.25500000000E-02 0.  1.
    5000001    1    1    2    0    0 -0.10916244521E+03 -0.16906135772E+03  0.19852093928E+01  0.27540174868E+03  0.18800000000E+03 0.  0.
   -5000001    1    1    2    0    0  0.10916244521E+03  0.16906135772E+03  0.91520145925E+02  0.29020358239E+03  0.18800000000E+03 0.  0.
<mgrwt>
<rscale>  0 0.55782268E+03</rscale>
<asrwt>0</asrwt>
<pdfrwt beam="1">  1        2 0.47079335E-01 0.55782268E+03</pdfrwt>
<pdfrwt beam="2">  1       -2 0.33721427E-01 0.55782268E+03</pdfrwt>
<totfact> 0.88601554E+02</totfact>
</mgrwt>
</event>
<event>
 4    1  0.5886875E-005  0.1035577E+04  0.7818608E-02  0.9270363E-01
          2   -1    0    0  501    0  0.00000000000E+00  0.00000000000E+00  0.61188747382E+03  0.61188747382E+03  0.25500000000E-02 0.  1.
         -2   -1    0    0    0  501 -0.00000000000E+00 -0.00000000000E+00 -0.43816042994E+03  0.43816042995E+03  0.25500000000E-02 0. -1.
    5000001    1    1    2    0    0  0.15868936545E+03 -0.18011830737E+03  0.51120396055E+03  0.59522971082E+03  0.18800000000E+03 0.  0.
   -5000001    1    1    2    0    0 -0.15868936545E+03  0.18011830737E+03 -0.33747691667E+03  0.45481819296E+03  0.18800000000E+03 0.  0.
<mgrwt>
<rscale>  0 0.10355769E+04</rscale>
<asrwt>0</asrwt>
<pdfrwt beam="1">  1        2 0.87412495E-01 0.10355769E+04</pdfrwt>
<pdfrwt beam="2">  1       -2 0.62594348E-01 0.10355769E+04</pdfrwt>
<totfact> 0.12511784E+02</totfact>
</mgrwt>
</event>
<event>
 4    1  0.5886875E-005  0.5061091E+03  0.7818608E-02  0.1012197E+00
         -2   -1    0    0    0  501 -0.00000000000E+00  0.00000000000E+00  0.90907095766E+02  0.90907095802E+02  0.25500000000E-02 0. -1.
          2   -1    0    0  501    0  0.00000000000E+00 -0.00000000000E+00 -0.70441819942E+03  0.70441819942E+03  0.25500000000E-02 0.  1.
    5000001    1    1    2    0    0 -0.41279635864E+02 -0.16418310605E+03 -0.29779524242E+03  0.39075069681E+03  0.18800000000E+03 0.  0.
   -5000001    1    1    2    0    0  0.41279635864E+02  0.16418310605E+03 -0.31571586123E+03  0.40457459842E+03  0.18800000000E+03 0.  0.
<mgrwt>
<rscale>  0 0.50610913E+03</rscale>
<asrwt>0</asrwt>
<pdfrwt beam="1">  1        2 0.10063117E+00 0.50610913E+03</pdfrwt>
<pdfrwt beam="2">  1       -2 0.12986728E-01 0.50610913E+03</pdfrwt>
<totfact> 0.19888671E+03</totfact>
</mgrwt>
</event>
<event>
 4    1  0.5886875E-005  0.6083143E+03  0.7818608E-02  0.9888305E-01
         -2   -1    0    0    0  501 -0.00000000000E+00  0.00000000000E+00  0.24991306589E+03  0.24991306590E+03  0.25500000000E-02 0. -1.
          2   -1    0    0  501    0  0.00000000000E+00 -0.00000000000E+00 -0.37017501018E+03  0.37017501019E+03  0.25500000000E-02 0.  1.
    5000001    1    1    2    0    0  0.19745376813E+03  0.12527507159E+03 -0.93088265270E+01  0.30018742206E+03  0.18800000000E+03 0.  0.
   -5000001    1    1    2    0    0 -0.19745376813E+03 -0.12527507159E+03 -0.11095311777E+03  0.31990065404E+03  0.18800000000E+03 0.  0.
<mgrwt>
<rscale>  0 0.60831430E+03</rscale>
<asrwt>0</asrwt>
<pdfrwt beam="1">  1        2 0.52882144E-01 0.60831430E+03</pdfrwt>
<pdfrwt beam="2">  1       -2 0.35701867E-01 0.60831430E+03</pdfrwt>
<totfact> 0.69916170E+02</totfact>
</mgrwt>
</event>
<event>
 4    1  0.5886875E-005  0.4238581E+03  0.7818608E-02  0.1035818E+00
          2   -1    0    0  501    0  0.00000000000E+00  0.00000000000E+00  0.96958454735E+03  0.96958454735E+03  0.25500000000E-02 0.  1.
         -2   -1    0    0    0  501 -0.00000000000E+00 -0.00000000000E+00 -0.46322860937E+02  0.46322861008E+02  0.25500000000E-02 0. -1.
    5000001    1    1    2    0    0  0.56317753034E+02 -0.72557770339E+02  0.38093231790E+03  0.43461448453E+03  0.18800000000E+03 0.  0.
   -5000001    1    1    2    0    0 -0.56317753034E+02  0.72557770339E+02  0.54232936851E+03  0.58129292383E+03  0.18800000000E+03 0.  0.
<mgrwt>
<rscale>  0 0.42385814E+03</rscale>
<asrwt>0</asrwt>
<pdfrwt beam="1">  1        2 0.13851207E+00 0.42385814E+03</pdfrwt>
<pdfrwt beam="2">  1       -2 0.66175520E-02 0.42385814E+03</pdfrwt>
<totfact> 0.38847968E+03</totfact>
</mgrwt>
</event>
<event>
 4    1  0.5886875E-005  0.5002241E+03  0.7818608E-02  0.1013720E+00
          2   -1    0    0  501    0  0.00000000000E+00  0.00000000000E+00  0.10760394877E+03  0.10760394880E+03  0.25500000000E-02 0.  1.
         -2   -1    0    0    0  501 -0.00000000000E+00 -0.00000000000E+00 -0.58135441311E+03  0.58135441311E+03  0.25500000000E-02 0. -1.
    5000001    1    1    2    0    0  0.12793598384E+03  0.10367894900E+03 -0.25030584956E+03  0.35371451589E+03  0.18800000000E+03 0.  0.
   -5000001    1    1    2    0    0 -0.12793598384E+03 -0.10367894900E+03 -0.22344461478E+03  0.33524384603E+03  0.18800000000E+03 0.  0.
<mgrwt>
<rscale>  0 0.50022407E+03</rscale>
<asrwt>0</asrwt>
<pdfrwt beam="1">  1        2 0.15371993E-01 0.50022407E+03</pdfrwt>
<pdfrwt beam="2">  1       -2 0.83050629E-01 0.50022407E+03</pdfrwt>
<totfact> 0.49873560E+02</totfact>
</mgrwt>
</event>
<event>
 4    1  0.5886875E-005  0.4230802E+03  0.7818608E-02  0.1036068E+00
         -2   -1    0    0    0  501 -0.00000000000E+00  0.00000000000E+00  0.41748856590E+03  0.41748856591E+03  0.25500000000E-02 0. -1.
          2   -1    0    0  501    0  0.00000000000E+00 -0.00000000000E+00 -0.10718669835E+03  0.10718669838E+03  0.25500000000E-02 0.  1.
    5000001    1    1    2    0    0 -0.83989249226E+02  0.28679252837E+02  0.10666626008E+03  0.23366297218E+03  0.18800000000E+03 0.  0.
   -5000001    1    1    2    0    0  0.83989249226E+02 -0.28679252837E+02  0.20363560747E+03  0.29101229211E+03  0.18800000000E+03 0.  0.
<mgrwt>
<rscale>  0 0.42308023E+03</rscale>
<asrwt>0</asrwt>
<pdfrwt beam="1">  1        2 0.15312386E-01 0.42308023E+03</pdfrwt>
<pdfrwt beam="2">  1       -2 0.59641223E-01 0.42308023E+03</pdfrwt>
<totfact> 0.10264129E+03</totfact>
</mgrwt>
</event>
<event>
 4    1  0.5886875E-005  0.5319754E+03  0.7818608E-02  0.1005754E+00
         -2   -1    0    0    0  501 -0.00000000000E+00  0.00000000000E+00  0.37327882697E+02  0.37327882784E+02  0.25500000000E-02 0. -1.
          2   -1    0    0  501    0  0.00000000000E+00 -0.00000000000E+00 -0.18953517093E+04  0.18953517093E+04  0.25500000000E-02 0.  1.
    5000001    1    1    2    0    0 -0.73559573356E+02 -0.82177863915E+02 -0.14828694392E+04  0.14988028509E+04  0.18800000000E+03 0.  0.
   -5000001    1    1    2    0    0  0.73559573356E+02  0.82177863915E+02 -0.37515438735E+03  0.43387674114E+03  0.18800000000E+03 0.  0.
<mgrwt>
<rscale>  0 0.53197544E+03</rscale>
<asrwt>0</asrwt>
<pdfrwt beam="1">  1        2 0.27076447E+00 0.53197544E+03</pdfrwt>
<pdfrwt beam="2">  1       -2 0.53325559E-02 0.53197544E+03</pdfrwt>
<totfact> 0.17408508E+03</totfact>
</mgrwt>
</event>
<event>
 4    1  0.5886875E-005  0.1464158E+04  0.7818608E-02  0.8908643E-01
          2   -1    0    0  501    0  0.00000000000E+00  0.00000000000E+00  0.24169887646E+04  0.24169887646E+04  0.25500000000E-02 0.  1.
         -2   -1    0    0    0  501 -0.00000000000E+00 -0.00000000000E+00 -0.22173870583E+03  0.22173870585E+03  0.25500000000E-02 0. -1.
    5000001    1    1    2    0    0  0.47392685585E+03 -0.17734001304E+03  0.19888375165E+04  0.20607947040E+04  0.18800000000E+03 0.  0.
   -5000001    1    1    2    0    0 -0.47392685585E+03  0.17734001304E+03  0.20641254222E+03  0.57793276642E+03  0.18800000000E+03 0.  0.
<mgrwt>
<rscale>  0 0.14641584E+04</rscale>
<asrwt>0</asrwt>
<pdfrwt beam="1">  1        2 0.34528409E+00 0.14641584E+04</pdfrwt>
<pdfrwt beam="2">  1       -2 0.31676960E-01 0.14641584E+04</pdfrwt>
<totfact> 0.43844418E+01</totfact>
</mgrwt>
</event>
<event>
 4    1  0.5886875E-005  0.4911878E+03  0.7818608E-02  0.1016105E+00
         -2   -1    0    0    0  501 -0.00000000000E+00  0.00000000000E+00  0.77950255365E+02  0.77950255407E+02  0.25500000000E-02 0. -1.
          2   -1    0    0  501    0  0.00000000000E+00 -0.00000000000E+00 -0.77378021578E+03  0.77378021579E+03  0.25500000000E-02 0.  1.
    5000001    1    1    2    0    0  0.15684246950E+03  0.16909151977E+02 -0.36407823987E+03  0.43906997667E+03  0.18800000000E+03 0.  0.
   -5000001    1    1    2    0    0 -0.15684246950E+03 -0.16909151977E+02 -0.33175172054E+03  0.41266049453E+03  0.18800000000E+03 0.  0.
<mgrwt>
<rscale>  0 0.49118781E+03</rscale>
<asrwt>0</asrwt>
<pdfrwt beam="1">  1        2 0.11054003E+00 0.49118781E+03</pdfrwt>
<pdfrwt beam="2">  1       -2 0.11135751E-01 0.49118781E+03</pdfrwt>
<totfact> 0.22786673E+03</totfact>
</mgrwt>
</event>
<event>
 4    1  0.5886875E-005  0.4951212E+03  0.7818608E-02  0.1015060E+00
         -2   -1    0    0    0  501 -0.00000000000E+00  0.00000000000E+00  0.19388677907E+03  0.19388677909E+03  0.25500000000E-02 0. -1.
          2   -1    0    0  501    0  0.00000000000E+00 -0.00000000000E+00 -0.31609302805E+03  0.31609302806E+03  0.25500000000E-02 0.  1.
    5000001    1    1    2    0    0 -0.12506009769E+03 -0.97622453030E+02 -0.32482786733E+02  0.24813162395E+03  0.18800000000E+03 0.  0.
   -5000001    1    1    2    0    0  0.12506009769E+03  0.97622453030E+02 -0.89723462250E+02  0.26184818320E+03  0.18800000000E+03 0.  0.
<mgrwt>
<rscale>  0 0.49512123E+03</rscale>
<asrwt>0</asrwt>
<pdfrwt beam="1">  1        2 0.45156147E-01 0.49512123E+03</pdfrwt>
<pdfrwt beam="2">  1       -2 0.27698111E-01 0.49512123E+03</pdfrwt>
<totfact> 0.13345007E+03</totfact>
</mgrwt>
</event>
<event>
 4    1  0.5886875E-005  0.5461127E+03  0.7818608E-02  0.1002398E+00
          2   -1    0    0  501    0  0.00000000000E+00  0.00000000000E+00  0.16851064121E+04  0.16851064121E+04  0.25500000000E-02 0.  1.
         -2   -1    0    0    0  501 -0.00000000000E+00 -0.00000000000E+00 -0.44246321960E+02  0.44246322034E+02  0.25500000000E-02 0. -1.
    5000001    1    1    2    0    0 -0.62619181847E+02  0.18625008349E+03  0.89835208918E+03  0.93861106518E+03  0.18800000000E+03 0.  0.
   -5000001    1    1    2    0    0  0.62619181847E+02 -0.18625008349E+03  0.74250800091E+03  0.79074166891E+03  0.18800000000E+03 0.  0.
<mgrwt>
<rscale>  0 0.54611267E+03</rscale>
<asrwt>0</asrwt>
<pdfrwt beam="1">  1        2 0.24072947E+00 0.54611267E+03</pdfrwt>
<pdfrwt beam="2">  1       -2 0.63209037E-02 0.54611267E+03</pdfrwt>
<totfact> 0.17031814E+03</totfact>
</mgrwt>
</event>
<event>
 4    1  0.5886875E-005  0.4759434E+03  0.7818608E-02  0.1020256E+00
          2   -1    0    0  501    0  0.00000000000E+00  0.00000000000E+00  0.10688156541E+04  0.10688156541E+04  0.25500000000E-02 0.  1.
         -2   -1    0    0    0  501 -0.00000000000E+00 -0.00000000000E+00 -0.52984381326E+02  0.52984381388E+02  0.25500000000E-02 0. -1.
    5000001    1    1    2    0    0  0.11702777409E+03 -0.85734362322E+02  0.54447999405E+03  0.59401039108E+03  0.18800000000E+03 0.  0.
   -5000001    1    1    2    0    0 -0.11702777409E+03  0.85734362322E+02  0.47135127871E+03  0.52778964439E+03  0.18800000000E+03 0.  0.
<mgrwt>
<rscale>  0 0.47594343E+03</rscale>
<asrwt>0</asrwt>
<pdfrwt beam="1">  1        2 0.15268795E+00 0.47594343E+03</pdfrwt>
<pdfrwt beam="2">  1       -2 0.75691974E-02 0.47594343E+03</pdfrwt>
<totfact> 0.27462354E+03</totfact>
</mgrwt>
</event>
<event>
 4    1  0.5886875E-005  0.5708798E+03  0.7818608E-02  0.9967734E-01
         -2   -1    0    0    0  501 -0.00000000000E+00  0.00000000000E+00  0.10690499155E+03  0.10690499158E+03  0.25500000000E-02 0. -1.
          2   -1    0    0  501    0  0.00000000000E+00 -0.00000000000E+00 -0.76213411004E+03  0.76213411004E+03  0.25500000000E-02 0.  1.
    5000001    1    1    2    0    0  0.61687492374E+02 -0.20417028095E+03 -0.36615833206E+03  0.46358038621E+03  0.18800000000E+03 0.  0.
   -5000001    1    1    2    0    0 -0.61687492374E+02  0.20417028095E+03 -0.28907078642E+03  0.40545871541E+03  0.18800000000E+03 0.  0.
<mgrwt>
<rscale>  0 0.57087981E+03</rscale>
<asrwt>0</asrwt>
<pdfrwt beam="1">  1        2 0.10887630E+00 0.57087981E+03</pdfrwt>
<pdfrwt beam="2">  1       -2 0.15272142E-01 0.57087981E+03</pdfrwt>
<totfact> 0.13764206E+03</totfact>
</mgrwt>
</event>
<event>
 4    1  0.5886875E-005  0.5801341E+03  0.7818608E-02  0.9947501E-01
          2   -1    0    0  501    0  0.00000000000E+00  0.00000000000E+00  0.88529414986E+03  0.88529414986E+03  0.25500000000E-02 0.  1.
         -2   -1    0    0    0  501 -0.00000000000E+00 -0.00000000000E+00 -0.95040620601E+02  0.95040620635E+02  0.25500000000E-02 0. -1.
    5000001    1    1    2    0    0  0.35723618635E+02 -0.20249704019E+03  0.25874412283E+03  0.38022854879E+03  0.18800000000E+03 0.  0.
   -5000001    1    1    2    0    0 -0.35723618635E+02  0.20249704019E+03  0.53150940642E+03  0.60010622171E+03  0.18800000000E+03 0.  0.
<mgrwt>
<rscale>  0 0.58013414E+03</rscale>
<asrwt>0</asrwt>
<pdfrwt beam="1">  1        2 0.12647059E+00 0.58013414E+03</pdfrwt>
<pdfrwt beam="2">  1       -2 0.13577232E-01 0.58013414E+03</pdfrwt>
<totfact> 0.13817002E+03</totfact>
</mgrwt>
</event>
<event>
 4    1  0.5886875E-005  0.4610137E+03  0.7818608E-02  0.1024488E+00
         -2   -1    0    0    0  501 -0.00000000000E+00  0.00000000000E+00  0.43446677326E+02  0.43446677401E+02  0.25500000000E-02 0. -1.
          2   -1    0    0  501    0  0.00000000000E+00 -0.00000000000E+00 -0.12229567063E+04  0.12229567063E+04  0.25500000000E-02 0.  1.
    5000001    1    1    2    0    0 -0.23139006713E+01  0.13260284307E+03 -0.62865557402E+03  0.66943311755E+03  0.18800000000E+03 0.  0.
   -5000001    1    1    2    0    0  0.23139006713E+01 -0.13260284307E+03 -0.55085445493E+03  0.59697026613E+03  0.18800000000E+03 0.  0.
<mgrwt>
<rscale>  0 0.46101369E+03</rscale>
<asrwt>0</asrwt>
<pdfrwt beam="1">  1        2 0.17470808E+00 0.46101369E+03</pdfrwt>
<pdfrwt beam="2">  1       -2 0.62066689E-02 0.46101369E+03</pdfrwt>
<totfact> 0.30666282E+03</totfact>
</mgrwt>
</event>
<event>
 4    1  0.5886875E-005  0.7647420E+03  0.7818608E-02  0.9612502E-01
         -2   -1    0    0    0  501 -0.00000000000E+00  0.00000000000E+00  0.10735879767E+03  0.10735879770E+03  0.25500000000E-02 0. -1.
          2   -1    0    0  501    0  0.00000000000E+00 -0.00000000000E+00 -0.13618593031E+04  0.13618593031E+04  0.25500000000E-02 0.  1.
    5000001    1    1    2    0    0 -0.86862337382E+02 -0.31028816241E+03 -0.78844485987E+03  0.87224601257E+03  0.18800000000E+03 0.  0.
   -5000001    1    1    2    0    0  0.86862337382E+02  0.31028816241E+03 -0.46605564560E+03  0.59697208828E+03  0.18800000000E+03 0.  0.
<mgrwt>
<rscale>  0 0.76474199E+03</rscale>
<asrwt>0</asrwt>
<pdfrwt beam="1">  1        2 0.19455132E+00 0.76474199E+03</pdfrwt>
<pdfrwt beam="2">  1       -2 0.15336972E-01 0.76474199E+03</pdfrwt>
<totfact> 0.58958159E+02</totfact>
</mgrwt>
</event>
<event>
 4    1  0.5886875E-005  0.7330131E+03  0.7818608E-02  0.9662384E-01
          2   -1    0    0  501    0  0.00000000000E+00  0.00000000000E+00  0.14069025948E+04  0.14069025948E+04  0.25500000000E-02 0.  1.
         -2   -1    0    0    0  501 -0.00000000000E+00 -0.00000000000E+00 -0.95477155454E+02  0.95477155488E+02  0.25500000000E-02 0. -1.
    5000001    1    1    2    0    0 -0.30379328244E+03 -0.78970761702E+02  0.69949534852E+03  0.78940767811E+03  0.18800000000E+03 0.  0.
   -5000001    1    1    2    0    0  0.30379328244E+03  0.78970761702E+02  0.61193009087E+03  0.71297207222E+03  0.18800000000E+03 0.  0.
<mgrwt>
<rscale>  0 0.73301312E+03</rscale>
<asrwt>0</asrwt>
<pdfrwt beam="1">  1        2 0.20098610E+00 0.73301312E+03</pdfrwt>
<pdfrwt beam="2">  1       -2 0.13639592E-01 0.73301312E+03</pdfrwt>
<totfact> 0.68041703E+02</totfact>
</mgrwt>
</event>
<event>
 4    1  0.5886875E-005  0.6251349E+03  0.7818608E-02  0.9854589E-01
          2   -1    0    0  501    0  0.00000000000E+00  0.00000000000E+00  0.17210261903E+04  0.17210261903E+04  0.25500000000E-02 0.  1.
         -2   -1    0    0    0  501 -0.00000000000E+00 -0.00000000000E+00 -0.56767532190E+02  0.56767532247E+02  0.25500000000E-02 0. -1.
    5000001    1    1    2    0    0  0.16173493939E+02 -0.24796264133E+03  0.76204363173E+03  0.82328703989E+03  0.18800000000E+03 0.  0.
   -5000001    1    1    2    0    0 -0.16173493939E+02  0.24796264133E+03  0.90221502637E+03  0.95450668265E+03  0.18800000000E+03 0.  0.
<mgrwt>
<rscale>  0 0.62513490E+03</rscale>
<asrwt>0</asrwt>
<pdfrwt beam="1">  1        2 0.24586092E+00 0.62513490E+03</pdfrwt>
<pdfrwt beam="2">  1       -2 0.81096462E-02 0.62513490E+03</pdfrwt>
<totfact> 0.10975079E+03</totfact>
</mgrwt>
</event>
<event>
 4    1  0.5886875E-005  0.4186237E+03  0.7818608E-02  0.1037515E+00
          2   -1    0    0  501    0  0.00000000000E+00  0.00000000000E+00  0.91879573158E+03  0.91879573159E+03  0.25500000000E-02 0.  1.
         -2   -1    0    0    0  501 -0.00000000000E+00 -0.00000000000E+00 -0.47683555553E+02  0.47683555621E+02  0.25500000000E-02 0. -1.
    5000001    1    1    2    0    0  0.36644599940E+02  0.80729163874E+02  0.49245635155E+03  0.53452528732E+03  0.18800000000E+03 0.  0.
   -5000001    1    1    2    0    0 -0.36644599940E+02 -0.80729163874E+02  0.37865582448E+03  0.43195399988E+03  0.18800000000E+03 0.  0.
<mgrwt>
<rscale>  0 0.41862368E+03</rscale>
<asrwt>0</asrwt>
<pdfrwt beam="1">  1        2 0.13125653E+00 0.41862368E+03</pdfrwt>
<pdfrwt beam="2">  1       -2 0.68119368E-02 0.41862368E+03</pdfrwt>
<totfact> 0.39916311E+03</totfact>
</mgrwt>
</event>
<event>
 4    1  0.5886875E-005  0.7418182E+03  0.7818608E-02  0.9648274E-01
          2   -1    0    0  501    0  0.00000000000E+00  0.00000000000E+00  0.12825482562E+04  0.12825482562E+04  0.25500000000E-02 0.  1.
         -2   -1    0    0    0  501 -0.00000000000E+00 -0.00000000000E+00 -0.10726578770E+03  0.10726578773E+03  0.25500000000E-02 0. -1.
    5000001    1    1    2    0    0  0.24769575317E+03 -0.15661284878E+03  0.82719438306E+03  0.89748276747E+03  0.18800000000E+03 0.  0.
   -5000001    1    1    2    0    0 -0.24769575317E+03  0.15661284878E+03  0.34808808541E+03  0.49233127643E+03  0.18800000000E+03 0.  0.
<mgrwt>
<rscale>  0 0.74181817E+03</rscale>
<asrwt>0</asrwt>
<pdfrwt beam="1">  1        2 0.18322118E+00 0.74181817E+03</pdfrwt>
<pdfrwt beam="2">  1       -2 0.15323684E-01 0.74181817E+03</pdfrwt>
<totfact> 0.65291168E+02</totfact>
</mgrwt>
</event>
<event>
 4    1  0.5886875E-005  0.4383775E+03  0.7818608E-02  0.1031246E+00
          2   -1    0    0  501    0  0.00000000000E+00  0.00000000000E+00  0.52581852257E+03  0.52581852257E+03  0.25500000000E-02 0.  1.
         -2   -1    0    0    0  501 -0.00000000000E+00 -0.00000000000E+00 -0.91369354191E+02  0.91369354227E+02  0.25500000000E-02 0. -1.
    5000001    1    1    2    0    0 -0.71730687336E+02  0.42845162086E+02  0.11075689985E+03  0.23364950307E+03  0.18800000000E+03 0.  0.
   -5000001    1    1    2    0    0  0.71730687336E+02 -0.42845162086E+02  0.32369226853E+03  0.38353837373E+03  0.18800000000E+03 0.  0.
<mgrwt>
<rscale>  0 0.43837746E+03</rscale>
<asrwt>0</asrwt>
<pdfrwt beam="1">  1        2 0.75116932E-01 0.43837746E+03</pdfrwt>
<pdfrwt beam="2">  1       -2 0.13052765E-01 0.43837746E+03</pdfrwt>
<totfact> 0.27759607E+03</totfact>
</mgrwt>
</event>
<event>
 4    1  0.5886875E-005  0.5577603E+03  0.7818608E-02  0.9997135E-01
         -2   -1    0    0    0  501 -0.00000000000E+00  0.00000000000E+00  0.11661561673E+04  0.11661561673E+04  0.25500000000E-02 0. -1.
          2   -1    0    0  501    0  0.00000000000E+00 -0.00000000000E+00 -0.66692725920E+02  0.66692725969E+02  0.25500000000E-02 0.  1.
    5000001    1    1    2    0    0 -0.37394915293E+02  0.19942917551E+03  0.62818404504E+03  0.68638878937E+03  0.18800000000E+03 0.  0.
   -5000001    1    1    2    0    0  0.37394915293E+02 -0.19942917551E+03  0.47127939633E+03  0.54646010389E+03  0.18800000000E+03 0.  0.
<mgrwt>
<rscale>  0 0.55776028E+03</rscale>
<asrwt>0</asrwt>
<pdfrwt beam="1">  1        2 0.95275335E-02 0.55776028E+03</pdfrwt>
<pdfrwt beam="2">  1       -2 0.16659372E+00 0.55776028E+03</pdfrwt>
<totfact> 0.16254552E+02</totfact>
</mgrwt>
</event>
<event>
 4    1  0.5886875E-005  0.4840888E+03  0.7818608E-02  0.1018017E+00
          2   -1    0    0  501    0  0.00000000000E+00  0.00000000000E+00  0.80928849186E+03  0.80928849187E+03  0.25500000000E-02 0.  1.
         -2   -1    0    0    0  501 -0.00000000000E+00 -0.00000000000E+00 -0.72391350159E+02  0.72391350203E+02  0.25500000000E-02 0. -1.
    5000001    1    1    2    0    0  0.73096801632E+02  0.12259204973E+03  0.46601300916E+03  0.52238307569E+03  0.18800000000E+03 0.  0.
   -5000001    1    1    2    0    0 -0.73096801632E+02 -0.12259204973E+03  0.27088413255E+03  0.35929676638E+03  0.18800000000E+03 0.  0.
<mgrwt>
<rscale>  0 0.48408878E+03</rscale>
<asrwt>0</asrwt>
<pdfrwt beam="1">  1        2 0.11561264E+00 0.48408878E+03</pdfrwt>
<pdfrwt beam="2">  1       -2 0.10341621E-01 0.48408878E+03</pdfrwt>
<totfact> 0.24275993E+03</totfact>
</mgrwt>
</event>
<event>
 4    1  0.5886875E-005  0.8784916E+03  0.7818608E-02  0.9452875E-01
         -2   -1    0    0    0  501 -0.00000000000E+00  0.00000000000E+00  0.61984110786E+03  0.61984110786E+03  0.25500000000E-02 0. -1.
          2   -1    0    0  501    0  0.00000000000E+00 -0.00000000000E+00 -0.31126829338E+03  0.31126829339E+03  0.25500000000E-02 0.  1.
    5000001    1    1    2    0    0  0.36314241676E+03  0.11130414865E+03  0.27666582547E+03  0.50611165502E+03  0.18800000000E+03 0.  0.
   -5000001    1    1    2    0    0 -0.36314241676E+03 -0.11130414865E+03  0.31906989005E+02  0.42499774624E+03  0.18800000000E+03 0.  0.
<mgrwt>
<rscale>  0 0.87849163E+03</rscale>
<asrwt>0</asrwt>
<pdfrwt beam="1">  1        2 0.44466898E-01 0.87849163E+03</pdfrwt>
<pdfrwt beam="2">  1       -2 0.88548732E-01 0.87849163E+03</pdfrwt>
<totfact> 0.12615957E+02</totfact>
</mgrwt>
</event>
<event>
 4    1  0.5886875E-005  0.5015643E+03  0.7818608E-02  0.1013371E+00
         -2   -1    0    0    0  501 -0.00000000000E+00  0.00000000000E+00  0.17256167050E+04  0.17256167050E+04  0.25500000000E-02 0. -1.
          2   -1    0    0  501    0  0.00000000000E+00 -0.00000000000E+00 -0.36445914299E+02  0.36445914389E+02  0.25500000000E-02 0.  1.
    5000001    1    1    2    0    0 -0.54467756155E+02  0.15620317976E+03  0.79725462318E+03  0.83565848528E+03  0.18800000000E+03 0.  0.
   -5000001    1    1    2    0    0  0.54467756155E+02 -0.15620317976E+03  0.89191616753E+03  0.92640413413E+03  0.18800000000E+03 0.  0.
<mgrwt>
<rscale>  0 0.50156427E+03</rscale>
<asrwt>0</asrwt>
<pdfrwt beam="1">  1        2 0.52065582E-02 0.50156427E+03</pdfrwt>
<pdfrwt beam="2">  1       -2 0.24651672E+00 0.50156427E+03</pdfrwt>
<totfact> 0.11035922E+02</totfact>
</mgrwt>
</event>
<event>
 4    1  0.5886875E-005  0.1503016E+04  0.7818608E-02  0.8882450E-01
          2   -1    0    0  501    0  0.00000000000E+00  0.00000000000E+00  0.22663396262E+04  0.22663396262E+04  0.25500000000E-02 0.  1.
         -2   -1    0    0    0  501 -0.00000000000E+00 -0.00000000000E+00 -0.24919664553E+03  0.24919664554E+03  0.25500000000E-02 0. -1.
    5000001    1    1    2    0    0 -0.71955726477E+03  0.20087176562E+02  0.11861220337E+04  0.14001412896E+04  0.18800000000E+03 0.  0.
   -5000001    1    1    2    0    0  0.71955726477E+03 -0.20087176562E+02  0.83102094695E+03  0.11153949822E+04  0.18800000000E+03 0.  0.
<mgrwt>
<rscale>  0 0.15030159E+04</rscale>
<asrwt>0</asrwt>
<pdfrwt beam="1">  1        2 0.32376279E+00 0.15030159E+04</pdfrwt>
<pdfrwt beam="2">  1       -2 0.35599522E-01 0.15030159E+04</pdfrwt>
<totfact> 0.41935757E+01</totfact>
</mgrwt>
</event>
<event>
 4    1  0.5886875E-005  0.6082732E+03  0.7818608E-02  0.9888389E-01
         -2   -1    0    0    0  501 -0.00000000000E+00  0.00000000000E+00  0.20152175843E+03  0.20152175844E+03  0.25500000000E-02 0. -1.
          2   -1    0    0  501    0  0.00000000000E+00 -0.00000000000E+00 -0.45900296722E+03  0.45900296723E+03  0.25500000000E-02 0.  1.
    5000001    1    1    2    0    0 -0.22969857454E+03  0.64001376708E+02 -0.14746960775E+03  0.33756317420E+03  0.18800000000E+03 0.  0.
   -5000001    1    1    2    0    0  0.22969857454E+03 -0.64001376708E+02 -0.11001160104E+03  0.32296155147E+03  0.18800000000E+03 0.  0.
<mgrwt>
<rscale>  0 0.60827324E+03</rscale>
<asrwt>0</asrwt>
<pdfrwt beam="1">  1        2 0.65571852E-01 0.60827324E+03</pdfrwt>
<pdfrwt beam="2">  1       -2 0.28788823E-01 0.60827324E+03</pdfrwt>
<totfact> 0.82228039E+02</totfact>
</mgrwt>
</event>
<event>
 4    1  0.5886875E-005  0.6376819E+03  0.7818608E-02  0.9830172E-01
         -2   -1    0    0    0  501 -0.00000000000E+00  0.00000000000E+00  0.47886054516E+02  0.47886054584E+02  0.25500000000E-02 0. -1.
          2   -1    0    0  501    0  0.00000000000E+00 -0.00000000000E+00 -0.21229471611E+04  0.21229471611E+04  0.25500000000E-02 0.  1.
    5000001    1    1    2    0    0  0.58494081854E+02  0.16528631280E+03 -0.16796138655E+04  0.16991726987E+04  0.18800000000E+03 0.  0.
   -5000001    1    1    2    0    0 -0.58494081854E+02 -0.16528631280E+03 -0.39544724111E+03  0.47166051701E+03  0.18800000000E+03 0.  0.
<mgrwt>
<rscale>  0 0.63768194E+03</rscale>
<asrwt>0</asrwt>
<pdfrwt beam="1">  1        2 0.30327811E+00 0.63768194E+03</pdfrwt>
<pdfrwt beam="2">  1       -2 0.68408663E-02 0.63768194E+03</pdfrwt>
<totfact> 0.90103785E+02</totfact>
</mgrwt>
</event>
<event>
 4    1  0.5886875E-005  0.6092322E+03  0.7818608E-02  0.9886435E-01
         -2   -1    0    0    0  501 -0.00000000000E+00  0.00000000000E+00  0.12344714087E+03  0.12344714090E+03  0.25500000000E-02 0. -1.
          2   -1    0    0  501    0  0.00000000000E+00 -0.00000000000E+00 -0.75166551551E+03  0.75166551551E+03  0.25500000000E-02 0.  1.
    5000001    1    1    2    0    0  0.19651376474E+03  0.68751499658E+02 -0.14352857864E+03  0.31510138261E+03  0.18800000000E+03 0.  0.
   -5000001    1    1    2    0    0 -0.19651376474E+03 -0.68751499658E+02 -0.48468979599E+03  0.56001127379E+03  0.18800000000E+03 0.  0.
<mgrwt>
<rscale>  0 0.60923217E+03</rscale>
<asrwt>0</asrwt>
<pdfrwt beam="1">  1        2 0.10738079E+00 0.60923217E+03</pdfrwt>
<pdfrwt beam="2">  1       -2 0.17635306E-01 0.60923217E+03</pdfrwt>
<totfact> 0.10961344E+03</totfact>
</mgrwt>
</event>
<event>
 4    1  0.5886875E-005  0.5629879E+03  0.7818608E-02  0.9985316E-01
          2   -1    0    0  501    0  0.00000000000E+00  0.00000000000E+00  0.18318618033E+04  0.18318618034E+04  0.25500000000E-02 0.  1.
         -2   -1    0    0    0  501 -0.00000000000E+00 -0.00000000000E+00 -0.43255913186E+02  0.43255913261E+02  0.25500000000E-02 0. -1.
    5000001    1    1    2    0    0 -0.28506238854E+02  0.20690663206E+03  0.94922290170E+03  0.98994498693E+03  0.18800000000E+03 0.  0.
   -5000001    1    1    2    0    0  0.28506238854E+02 -0.20690663206E+03  0.83938298846E+03  0.88517272968E+03  0.18800000000E+03 0.  0.
<mgrwt>
<rscale>  0 0.56298794E+03</rscale>
<asrwt>0</asrwt>
<pdfrwt beam="1">  1        2 0.26169458E+00 0.56298794E+03</pdfrwt>
<pdfrwt beam="2">  1       -2 0.61794153E-02 0.56298794E+03</pdfrwt>
<totfact> 0.14868123E+03</totfact>
</mgrwt>
</event>
<event>
 4    1  0.5886875E-005  0.6328496E+03  0.7818608E-02  0.9839504E-01
          2   -1    0    0  501    0  0.00000000000E+00  0.00000000000E+00  0.21293327665E+04  0.21293327665E+04  0.25500000000E-02 0.  1.
         -2   -1    0    0    0  501 -0.00000000000E+00 -0.00000000000E+00 -0.47021615439E+02  0.47021615508E+02  0.25500000000E-02 0. -1.
    5000001    1    1    2    0    0 -0.14562732037E+03  0.20196976988E+03  0.12225289208E+04  0.12617131475E+04  0.18800000000E+03 0.  0.
   -5000001    1    1    2    0    0  0.14562732037E+03 -0.20196976988E+03  0.85978223016E+03  0.91464123441E+03  0.18800000000E+03 0.  0.
<mgrwt>
<rscale>  0 0.63284964E+03</rscale>
<asrwt>0</asrwt>
<pdfrwt beam="1">  1        2 0.30419033E+00 0.63284964E+03</pdfrwt>
<pdfrwt beam="2">  1       -2 0.67173750E-02 0.63284964E+03</pdfrwt>
<totfact> 0.92076577E+02</totfact>
</mgrwt>
</event>
<event>
 4    1  0.5886875E-005  0.4325406E+03  0.7818608E-02  0.1033060E+00
          2   -1    0    0  501    0  0.00000000000E+00  0.00000000000E+00  0.16344640376E+04  0.16344640376E+04  0.25500000000E-02 0.  1.
         -2   -1    0    0    0  501 -0.00000000000E+00 -0.00000000000E+00 -0.28616627189E+02  0.28616627303E+02  0.25500000000E-02 0. -1.
    5000001    1    1    2    0    0 -0.70426640334E+02  0.74301725557E+01  0.49500100037E+03  0.53421447893E+03  0.18800000000E+03 0.  0.
   -5000001    1    1    2    0    0  0.70426640334E+02 -0.74301725557E+01  0.11108464100E+04  0.11288661859E+04  0.18800000000E+03 0.  0.
<mgrwt>
<rscale>  0 0.43254063E+03</rscale>
<asrwt>0</asrwt>
<pdfrwt beam="1">  1        2 0.23349489E+00 0.43254063E+03</pdfrwt>
<pdfrwt beam="2">  1       -2 0.40880892E-02 0.43254063E+03</pdfrwt>
<totfact> 0.35527971E+03</totfact>
</mgrwt>
</event>
<event>
 4    1  0.5886875E-005  0.5219514E+03  0.7818608E-02  0.1008203E+00
         -2   -1    0    0    0  501 -0.00000000000E+00  0.00000000000E+00  0.20378235648E+04  0.20378235648E+04  0.25500000000E-02 0. -1.
          2   -1    0    0  501    0  0.00000000000E+00 -0.00000000000E+00 -0.33422082075E+02  0.33422082173E+02  0.25500000000E-02 0.  1.
    5000001    1    1    2    0    0 -0.14086128531E+03  0.94897738282E+02  0.75384820100E+03  0.79528522719E+03  0.18800000000E+03 0.  0.
   -5000001    1    1    2    0    0  0.14086128531E+03 -0.94897738282E+02  0.12505532817E+04  0.12759604198E+04  0.18800000000E+03 0.  0.
<mgrwt>
<rscale>  0 0.52195136E+03</rscale>
<asrwt>0</asrwt>
<pdfrwt beam="1">  1        2 0.47745811E-02 0.52195136E+03</pdfrwt>
<pdfrwt beam="2">  1       -2 0.29111778E+00 0.52195136E+03</pdfrwt>
<totfact> 0.67199702E+01</totfact>
</mgrwt>
</event>
<event>
 4    1  0.5886875E-005  0.4568852E+03  0.7818608E-02  0.1025688E+00
          2   -1    0    0  501    0  0.00000000000E+00  0.00000000000E+00  0.13235542667E+03  0.13235542669E+03  0.25500000000E-02 0.  1.
         -2   -1    0    0    0  501 -0.00000000000E+00 -0.00000000000E+00 -0.39428697195E+03  0.39428697196E+03  0.25500000000E-02 0. -1.
    5000001    1    1    2    0    0  0.64172767427E+02  0.57966408493E+02 -0.24250667295E+03  0.31879732592E+03  0.18800000000E+03 0.  0.
   -5000001    1    1    2    0    0 -0.64172767427E+02 -0.57966408493E+02 -0.19424872342E+02  0.20784507273E+03  0.18800000000E+03 0.  0.
<mgrwt>
<rscale>  0 0.45688520E+03</rscale>
<asrwt>0</asrwt>
<pdfrwt beam="1">  1        2 0.18907918E-01 0.45688520E+03</pdfrwt>
<pdfrwt beam="2">  1       -2 0.56326710E-01 0.45688520E+03</pdfrwt>
<totfact> 0.90063512E+02</totfact>
</mgrwt>
</event>
<event>
 4    1  0.5886875E-005  0.7619068E+03  0.7818608E-02  0.9616853E-01
         -2   -1    0    0    0  501 -0.00000000000E+00  0.00000000000E+00  0.38659532372E+03  0.38659532373E+03  0.25500000000E-02 0. -1.
          2   -1    0    0  501    0  0.00000000000E+00 -0.00000000000E+00 -0.37539383363E+03  0.37539383364E+03  0.25500000000E-02 0.  1.
    5000001    1    1    2    0    0  0.16997358169E+03 -0.26773970342E+03 -0.90357179122E+02  0.37958396578E+03  0.18800000000E+03 0.  0.
   -5000001    1    1    2    0    0 -0.16997358169E+03  0.26773970342E+03  0.10155866921E+03  0.38240519159E+03  0.18800000000E+03 0.  0.
<mgrwt>
<rscale>  0 0.76190682E+03</rscale>
<asrwt>0</asrwt>
<pdfrwt beam="1">  1        2 0.53627690E-01 0.76190682E+03</pdfrwt>
<pdfrwt beam="2">  1       -2 0.55227904E-01 0.76190682E+03</pdfrwt>
<totfact> 0.28842473E+02</totfact>
</mgrwt>
</event>
<event>
 4    1  0.5886875E-005  0.5002906E+03  0.7818608E-02  0.1013703E+00
         -2   -1    0    0    0  501 -0.00000000000E+00  0.00000000000E+00  0.21472213453E+03  0.21472213455E+03  0.25500000000E-02 0. -1.
          2   -1    0    0  501    0  0.00000000000E+00 -0.00000000000E+00 -0.29141229600E+03  0.29141229601E+03  0.25500000000E-02 0.  1.
    5000001    1    1    2    0    0 -0.15342851340E+03 -0.42162132043E+02  0.58772498382E+01  0.24636658899E+03  0.18800000000E+03 0.  0.
   -5000001    1    1    2    0    0  0.15342851340E+03  0.42162132043E+02 -0.82567411305E+02  0.25976784157E+03  0.18800000000E+03 0.  0.
<mgrwt>
<rscale>  0 0.50029060E+03</rscale>
<asrwt>0</asrwt>
<pdfrwt beam="1">  1        2 0.41630328E-01 0.50029060E+03</pdfrwt>
<pdfrwt beam="2">  1       -2 0.30674591E-01 0.50029060E+03</pdfrwt>
<totfact> 0.12102491E+03</totfact>
</mgrwt>
</event>
<event>
 4    1  0.5886875E-005  0.5058904E+03  0.7818608E-02  0.1012253E+00
         -2   -1    0    0    0  501 -0.00000000000E+00  0.00000000000E+00  0.38218617426E+02  0.38218617511E+02  0.25500000000E-02 0. -1.
          2   -1    0    0  501    0  0.00000000000E+00 -0.00000000000E+00 -0.16740866995E+04  0.16740866995E+04  0.25500000000E-02 0.  1.
    5000001    1    1    2    0    0 -0.49364610737E+02  0.14593911570E+03 -0.10549184479E+04  0.10825580917E+04  0.18800000000E+03 0.  0.
   -5000001    1    1    2    0    0  0.49364610737E+02 -0.14593911570E+03 -0.58094963416E+03  0.62974722526E+03  0.18800000000E+03 0.  0.
<mgrwt>
<rscale>  0 0.50589042E+03</rscale>
<asrwt>0</asrwt>
<pdfrwt beam="1">  1        2 0.23915520E+00 0.50589042E+03</pdfrwt>
<pdfrwt beam="2">  1       -2 0.54598036E-02 0.50589042E+03</pdfrwt>
<totfact> 0.21706887E+03</totfact>
</mgrwt>
</event>
<event>
 4    1  0.5886875E-005  0.5316599E+03  0.7818608E-02  0.1005830E+00
         -2   -1    0    0    0  501 -0.00000000000E+00  0.00000000000E+00  0.49345893326E+02  0.49345893392E+02  0.25500000000E-02 0. -1.
          2   -1    0    0  501    0  0.00000000000E+00 -0.00000000000E+00 -0.14320455904E+04  0.14320455904E+04  0.25500000000E-02 0.  1.
    5000001    1    1    2    0    0 -0.13279653275E+03 -0.13248780342E+03 -0.65913983767E+03  0.71063159426E+03  0.18800000000E+03 0.  0.
   -5000001    1    1    2    0    0  0.13279653275E+03  0.13248780342E+03 -0.72355985938E+03  0.77075988951E+03  0.18800000000E+03 0.  0.
<mgrwt>
<rscale>  0 0.53165993E+03</rscale>
<asrwt>0</asrwt>
<pdfrwt beam="1">  1        2 0.20457792E+00 0.53165993E+03</pdfrwt>
<pdfrwt beam="2">  1       -2 0.70494142E-02 0.53165993E+03</pdfrwt>
<totfact> 0.19380349E+03</totfact>
</mgrwt>
</event>
<event>
 4    1  0.5886875E-005  0.8098050E+03  0.7818608E-02  0.9545932E-01
         -2   -1    0    0    0  501 -0.00000000000E+00  0.00000000000E+00  0.88430209603E+02  0.88430209639E+02  0.25500000000E-02 0. -1.
          2   -1    0    0  501    0  0.00000000000E+00 -0.00000000000E+00 -0.18539594748E+04  0.18539594748E+04  0.25500000000E-02 0.  1.
    5000001    1    1    2    0    0  0.26647875827E+03 -0.20595879273E+03 -0.11782108066E+04  0.12397397540E+04  0.18800000000E+03 0.  0.
   -5000001    1    1    2    0    0 -0.26647875827E+03  0.20595879273E+03 -0.58731845858E+03  0.70264993040E+03  0.18800000000E+03 0.  0.
<mgrwt>
<rscale>  0 0.80980498E+03</rscale>
<asrwt>0</asrwt>
<pdfrwt beam="1">  1        2 0.26485133E+00 0.80980498E+03</pdfrwt>
<pdfrwt beam="2">  1       -2 0.12632888E-01 0.80980498E+03</pdfrwt>
<totfact> 0.45177254E+02</totfact>
</mgrwt>
</event>
<event>
 4    1  0.5886875E-005  0.4413973E+03  0.7818608E-02  0.1030319E+00
         -2   -1    0    0    0  501 -0.00000000000E+00  0.00000000000E+00  0.19514904443E+02  0.19514904609E+02  0.25500000000E-02 0. -1.
          2   -1    0    0  501    0  0.00000000000E+00 -0.00000000000E+00 -0.24959332280E+04  0.24959332280E+04  0.25500000000E-02 0.  1.
    5000001    1    1    2    0    0  0.50479555837E+02  0.91218257375E+02 -0.95355603757E+03  0.97748763308E+03  0.18800000000E+03 0.  0.
   -5000001    1    1    2    0    0 -0.50479555837E+02 -0.91218257375E+02 -0.15228622859E+04  0.15379604995E+04  0.18800000000E+03 0.  0.
<mgrwt>
<rscale>  0 0.44139732E+03</rscale>
<asrwt>0</asrwt>
<pdfrwt beam="1">  1        2 0.35656169E+00 0.44139732E+03</pdfrwt>
<pdfrwt beam="2">  1       -2 0.27878451E-02 0.44139732E+03</pdfrwt>
<totfact> 0.23533766E+03</totfact>
</mgrwt>
</event>
<event>
 4    1  0.5886875E-005  0.6752837E+03  0.7818608E-02  0.9760460E-01
         -2   -1    0    0    0  501 -0.00000000000E+00  0.00000000000E+00  0.58687107472E+03  0.58687107473E+03  0.25500000000E-02 0.  1.
          2   -1    0    0  501    0  0.00000000000E+00 -0.00000000000E+00 -0.19425394095E+03  0.19425394097E+03  0.25500000000E-02 0. -1.
    5000001    1    1    2    0    0  0.16675772554E+03 -0.16240678888E+03  0.37726998993E+03  0.48151920980E+03  0.18800000000E+03 0.  0.
   -5000001    1    1    2    0    0 -0.16675772554E+03  0.16240678888E+03  0.15347143846E+02  0.29960580590E+03  0.18800000000E+03 0.  0.
<mgrwt>
<rscale>  0 0.67528370E+03</rscale>
<asrwt>0</asrwt>
<pdfrwt beam="1">  1        2 0.27750563E-01 0.67528370E+03</pdfrwt>
<pdfrwt beam="2">  1       -2 0.83838724E-01 0.67528370E+03</pdfrwt>
<totfact> 0.24415427E+02</totfact>
</mgrwt>
</event>
<event>
 4    1  0.5886875E-005  0.6086305E+03  0.7818608E-02  0.9887660E-01
         -2   -1    0    0    0  501 -0.00000000000E+00  0.00000000000E+00  0.32637509361E+02  0.32637509461E+02  0.25500000000E-02 0. -1.
          2   -1    0    0  501    0  0.00000000000E+00 -0.00000000000E+00 -0.28374648278E+04  0.28374648278E+04  0.25500000000E-02 0.  1.
    5000001    1    1    2    0    0  0.14448576463E+03 -0.15680479819E+03 -0.89016258572E+03  0.93445027152E+03  0.18800000000E+03 0.  0.
   -5000001    1    1    2    0    0 -0.14448576463E+03  0.15680479819E+03 -0.19146647328E+04  0.19356520658E+04  0.18800000000E+03 0.  0.
<mgrwt>
<rscale>  0 0.60863054E+03</rscale>
<asrwt>0</asrwt>
<pdfrwt beam="1">  1        2 0.40535196E+00 0.60863054E+03</pdfrwt>
<pdfrwt beam="2">  1       -2 0.46625032E-02 0.60863054E+03</pdfrwt>
<totfact> 0.70494086E+02</totfact>
</mgrwt>
</event>
<event>
 4    1  0.5886875E-005  0.4735640E+03  0.7818608E-02  0.1020919E+00
         -2   -1    0    0    0  501 -0.00000000000E+00  0.00000000000E+00  0.45524542267E+03  0.45524542268E+03  0.25500000000E-02 0. -1.
          2   -1    0    0  501    0  0.00000000000E+00 -0.00000000000E+00 -0.12315494771E+03  0.12315494774E+03  0.25500000000E-02 0.  1.
    5000001    1    1    2    0    0  0.27926771681E+02 -0.10824736198E+03  0.27680961525E+03  0.35279591699E+03  0.18800000000E+03 0.  0.
   -5000001    1    1    2    0    0 -0.27926771681E+02  0.10824736198E+03  0.55280859706E+02  0.22560445342E+03  0.18800000000E+03 0.  0.
<mgrwt>
<rscale>  0 0.47356405E+03</rscale>
<asrwt>0</asrwt>
<pdfrwt beam="1">  1        2 0.17593564E-01 0.47356405E+03</pdfrwt>
<pdfrwt beam="2">  1       -2 0.65035059E-01 0.47356405E+03</pdfrwt>
<totfact> 0.72523494E+02</totfact>
</mgrwt>
</event>
<event>
 4    1  0.5886875E-005  0.6419410E+03  0.7818608E-02  0.9822020E-01
         -2   -1    0    0    0  501 -0.00000000000E+00  0.00000000000E+00  0.67544469946E+02  0.67544469994E+02  0.25500000000E-02 0.  1.
          2   -1    0    0  501    0  0.00000000000E+00 -0.00000000000E+00 -0.15252477341E+04  0.15252477341E+04  0.25500000000E-02 0. -1.
    5000001    1    1    2    0    0 -0.17570890162E+02 -0.21042019978E+03 -0.35179989285E+03  0.45132312290E+03  0.18800000000E+03 0.  0.
   -5000001    1    1    2    0    0  0.17570890162E+02  0.21042019978E+03 -0.11059033713E+04  0.11414690812E+04  0.18800000000E+03 0.  0.
<mgrwt>
<rscale>  0 0.64194096E+03</rscale>
<asrwt>0</asrwt>
<pdfrwt beam="1">  1        2 0.21789251E+00 0.64194096E+03</pdfrwt>
<pdfrwt beam="2">  1       -2 0.96492109E-02 0.64194096E+03</pdfrwt>
<totfact> 0.10455475E+03</totfact>
</mgrwt>
</event>
<event>
 4    1  0.5886875E-005  0.4995930E+03  0.7818608E-02  0.1013885E+00
          2   -1    0    0  501    0  0.00000000000E+00  0.00000000000E+00  0.18966190380E+04  0.18966190380E+04  0.25500000000E-02 0.  1.
         -2   -1    0    0    0  501 -0.00000000000E+00 -0.00000000000E+00 -0.32899755561E+02  0.32899755660E+02  0.25500000000E-02 0. -1.
    5000001    1    1    2    0    0  0.13979512105E+03  0.61228885973E+02  0.69495172754E+03  0.73593040157E+03  0.18800000000E+03 0.  0.
   -5000001    1    1    2    0    0 -0.13979512105E+03 -0.61228885973E+02  0.11687675549E+04  0.11935883921E+04  0.18800000000E+03 0.  0.
<mgrwt>
<rscale>  0 0.49959305E+03</rscale>
<asrwt>0</asrwt>
<pdfrwt beam="1">  1        2 0.27094553E+00 0.49959305E+03</pdfrwt>
<pdfrwt beam="2">  1       -2 0.46999659E-02 0.49959305E+03</pdfrwt>
<totfact> 0.21157962E+03</totfact>
</mgrwt>
</event>
<event>
 4    1  0.5886875E-005  0.4646641E+03  0.7818608E-02  0.1023437E+00
          2   -1    0    0  501    0  0.00000000000E+00  0.00000000000E+00  0.10155120987E+04  0.10155120987E+04  0.25500000000E-02 0.  1.
         -2   -1    0    0    0  501 -0.00000000000E+00 -0.00000000000E+00 -0.53153645943E+02  0.53153646004E+02  0.25500000000E-02 0. -1.
    5000001    1    1    2    0    0  0.35481046556E+02  0.13156082099E+03  0.46235171069E+03  0.51737825491E+03  0.18800000000E+03 0.  0.
   -5000001    1    1    2    0    0 -0.35481046556E+02 -0.13156082099E+03  0.50000674205E+03  0.55128748978E+03  0.18800000000E+03 0.  0.
<mgrwt>
<rscale>  0 0.46466405E+03</rscale>
<asrwt>0</asrwt>
<pdfrwt beam="1">  1        2 0.14507317E+00 0.46466405E+03</pdfrwt>
<pdfrwt beam="2">  1       -2 0.75933776E-02 0.46466405E+03</pdfrwt>
<totfact> 0.29379931E+03</totfact>
</mgrwt>
</event>
<event>
 4    1  0.5886875E-005  0.5898083E+03  0.7818608E-02  0.9926779E-01
         -2   -1    0    0    0  501 -0.00000000000E+00  0.00000000000E+00  0.25163717391E+02  0.25163717520E+02  0.25500000000E-02 0. -1.
          2   -1    0    0  501    0  0.00000000000E+00 -0.00000000000E+00 -0.34561052614E+04  0.34561052614E+04  0.25500000000E-02 0.  1.
    5000001    1    1    2    0    0  0.11358156982E+03  0.82733846357E+02 -0.27693179702E+04  0.27792466034E+04  0.18800000000E+03 0.  0.
   -5000001    1    1    2    0    0 -0.11358156982E+03 -0.82733846357E+02 -0.66162357380E+03  0.70202237553E+03  0.18800000000E+03 0.  0.
<mgrwt>
<rscale>  0 0.58980830E+03</rscale>
<asrwt>0</asrwt>
<pdfrwt beam="1">  1        2 0.49372902E+00 0.58980830E+03</pdfrwt>
<pdfrwt beam="2">  1       -2 0.35948190E-02 0.58980830E+03</pdfrwt>
<totfact> 0.47597339E+02</totfact>
</mgrwt>
</event>
<event>
 4    1  0.5886875E-005  0.4880954E+03  0.7818608E-02  0.1016934E+00
         -2   -1    0    0    0  501 -0.00000000000E+00  0.00000000000E+00  0.50953689234E+02  0.50953689298E+02  0.25500000000E-02 0. -1.
          2   -1    0    0  501    0  0.00000000000E+00 -0.00000000000E+00 -0.11688903086E+04  0.11688903087E+04  0.25500000000E-02 0.  1.
    5000001    1    1    2    0    0  0.58238513989E+02  0.14388020977E+03 -0.58657666669E+03  0.63522391735E+03  0.18800000000E+03 0.  0.
   -5000001    1    1    2    0    0 -0.58238513989E+02 -0.14388020977E+03 -0.53135995273E+03  0.58462008060E+03  0.18800000000E+03 0.  0.
<mgrwt>
<rscale>  0 0.48809537E+03</rscale>
<asrwt>0</asrwt>
<pdfrwt beam="1">  1        2 0.16698431E+00 0.48809537E+03</pdfrwt>
<pdfrwt beam="2">  1       -2 0.72790992E-02 0.48809537E+03</pdfrwt>
<totfact> 0.25597406E+03</totfact>
</mgrwt>
</event>
<event>
 4    1  0.5886875E-005  0.9381451E+03  0.7818608E-02  0.9379115E-01
         -2   -1    0    0    0  501 -0.00000000000E+00  0.00000000000E+00  0.17350347868E+03  0.17350347869E+03  0.25500000000E-02 0. -1.
          2   -1    0    0  501    0  0.00000000000E+00 -0.00000000000E+00 -0.12681536213E+04  0.12681536213E+04  0.25500000000E-02 0.  1.
    5000001    1    1    2    0    0  0.31149110324E+03  0.27806423538E+03 -0.70357636651E+03  0.83947014832E+03  0.18800000000E+03 0.  0.
   -5000001    1    1    2    0    0 -0.31149110324E+03 -0.27806423538E+03 -0.39107377607E+03  0.60218695164E+03  0.18800000000E+03 0.  0.
<mgrwt>
<rscale>  0 0.93814512E+03</rscale>
<asrwt>0</asrwt>
<pdfrwt beam="1">  1        2 0.18116480E+00 0.93814512E+03</pdfrwt>
<pdfrwt beam="2">  1       -2 0.24786212E-01 0.93814512E+03</pdfrwt>
<totfact> 0.28435802E+02</totfact>
</mgrwt>
</event>
<event>
 4    1  0.5886875E-005  0.4423787E+03  0.7818608E-02  0.1030019E+00
          2   -1    0    0  501    0  0.00000000000E+00  0.00000000000E+00  0.13126520980E+03  0.13126520983E+03  0.25500000000E-02 0.  1.
         -2   -1    0    0    0  501 -0.00000000000E+00 -0.00000000000E+00 -0.37271662429E+03  0.37271662430E+03  0.25500000000E-02 0. -1.
    5000001    1    1    2    0    0  0.15900032894E+01  0.11595924740E+03 -0.10765400003E+03  0.24572842508E+03  0.18800000000E+03 0.  0.
   -5000001    1    1    2    0    0 -0.15900032894E+01 -0.11595924740E+03 -0.13379741445E+03  0.25825340904E+03  0.18800000000E+03 0.  0.
<mgrwt>
<rscale>  0 0.44237869E+03</rscale>
<asrwt>0</asrwt>
<pdfrwt beam="1">  1        2 0.18752173E-01 0.44237869E+03</pdfrwt>
<pdfrwt beam="2">  1       -2 0.53245232E-01 0.44237869E+03</pdfrwt>
<totfact> 0.10205994E+03</totfact>
</mgrwt>
</event>
<event>
 4    1  0.5886875E-005  0.5767894E+03  0.7818608E-02  0.9954766E-01
         -2   -1    0    0    0  501 -0.00000000000E+00  0.00000000000E+00  0.33315473029E+03  0.33315473030E+03  0.25500000000E-02 0. -1.
          2   -1    0    0  501    0  0.00000000000E+00 -0.00000000000E+00 -0.24964829554E+03  0.24964829556E+03  0.25500000000E-02 0.  1.
    5000001    1    1    2    0    0  0.18256636786E+03 -0.11095272011E+03  0.89001041287E+02  0.29817137710E+03  0.18800000000E+03 0.  0.
   -5000001    1    1    2    0    0 -0.18256636786E+03  0.11095272011E+03 -0.54946065380E+01  0.28463164876E+03  0.18800000000E+03 0.  0.
<mgrwt>
<rscale>  0 0.57678943E+03</rscale>
<asrwt>0</asrwt>
<pdfrwt beam="1">  1        2 0.35664042E-01 0.57678943E+03</pdfrwt>
<pdfrwt beam="2">  1       -2 0.47593533E-01 0.57678943E+03</pdfrwt>
<totfact> 0.61677122E+02</totfact>
</mgrwt>
</event>
<event>
 4    1  0.5886875E-005  0.9371704E+03  0.7818608E-02  0.9380273E-01
          2   -1    0    0  501    0  0.00000000000E+00  0.00000000000E+00  0.32177763599E+04  0.32177763599E+04  0.25500000000E-02 0.  1.
         -2   -1    0    0    0  501 -0.00000000000E+00 -0.00000000000E+00 -0.68237218371E+02  0.68237218419E+02  0.25500000000E-02 0. -1.
    5000001    1    1    2    0    0  0.42797206500E+03  0.28236250512E+02  0.15170767017E+04  0.15877100154E+04  0.18800000000E+03 0.  0.
   -5000001    1    1    2    0    0 -0.42797206500E+03 -0.28236250512E+02  0.16324624398E+04  0.16983035629E+04  0.18800000000E+03 0.  0.
<mgrwt>
<rscale>  0 0.93717044E+03</rscale>
<asrwt>0</asrwt>
<pdfrwt beam="1">  1        2 0.45968250E+00 0.93717044E+03</pdfrwt>
<pdfrwt beam="2">  1       -2 0.97481705E-02 0.93717044E+03</pdfrwt>
<totfact> 0.13101843E+02</totfact>
</mgrwt>
</event>
<event>
 4    1  0.5886875E-005  0.4669197E+03  0.7818608E-02  0.1022793E+00
          2   -1    0    0  501    0  0.00000000000E+00  0.00000000000E+00  0.12186540315E+04  0.12186540315E+04  0.25500000000E-02 0.  1.
         -2   -1    0    0    0  501 -0.00000000000E+00 -0.00000000000E+00 -0.44724337663E+02  0.44724337736E+02  0.25500000000E-02 0. -1.
    5000001    1    1    2    0    0  0.31987753571E+02 -0.13266174165E+03  0.64967461075E+03  0.68995902337E+03  0.18800000000E+03 0.  0.
   -5000001    1    1    2    0    0 -0.31987753571E+02  0.13266174165E+03  0.52425508310E+03  0.57341934588E+03  0.18800000000E+03 0.  0.
<mgrwt>
<rscale>  0 0.46691967E+03</rscale>
<asrwt>0</asrwt>
<pdfrwt beam="1">  1        2 0.17409342E+00 0.46691967E+03</pdfrwt>
<pdfrwt beam="2">  1       -2 0.63891915E-02 0.46691967E+03</pdfrwt>
<totfact> 0.29470362E+03</totfact>
</mgrwt>
</event>
<event>
 4    1  0.5886875E-005  0.5182361E+03  0.7818608E-02  0.1009126E+00
          2   -1    0    0  501    0  0.00000000000E+00  0.00000000000E+00  0.53937096246E+03  0.53937096247E+03  0.25500000000E-02 0.  1.
         -2   -1    0    0    0  501 -0.00000000000E+00 -0.00000000000E+00 -0.12448235315E+03  0.12448235317E+03  0.25500000000E-02 0. -1.
    5000001    1    1    2    0    0 -0.94900968084E+00 -0.17798265431E+03  0.19344453868E+03  0.32317721980E+03  0.18800000000E+03 0.  0.
   -5000001    1    1    2    0    0  0.94900968084E+00  0.17798265431E+03  0.22144407064E+03  0.34067609584E+03  0.18800000000E+03 0.  0.
<mgrwt>
<rscale>  0 0.51823611E+03</rscale>
<asrwt>0</asrwt>
<pdfrwt beam="1">  1        2 0.77052994E-01 0.51823611E+03</pdfrwt>
<pdfrwt beam="2">  1       -2 0.17783193E-01 0.51823611E+03</pdfrwt>
<totfact> 0.16066790E+03</totfact>
</mgrwt>
</event>
<event>
 4    1  0.5886875E-005  0.6343171E+03  0.7818608E-02  0.9836660E-01
         -2   -1    0    0    0  501 -0.00000000000E+00  0.00000000000E+00  0.20081033545E+03  0.20081033546E+03  0.25500000000E-02 0. -1.
          2   -1    0    0  501    0  0.00000000000E+00 -0.00000000000E+00 -0.50091821644E+03  0.50091821645E+03  0.25500000000E-02 0.  1.
    5000001    1    1    2    0    0  0.14389492159E+02  0.21845893073E+03 -0.29562124414E+03  0.41311896820E+03  0.18800000000E+03 0.  0.
   -5000001    1    1    2    0    0 -0.14389492159E+02 -0.21845893073E+03 -0.44866368567E+01  0.28860958371E+03  0.18800000000E+03 0.  0.
<mgrwt>
<rscale>  0 0.63431713E+03</rscale>
<asrwt>0</asrwt>
<pdfrwt beam="1">  1        2 0.71559745E-01 0.63431713E+03</pdfrwt>
<pdfrwt beam="2">  1       -2 0.28687191E-01 0.63431713E+03</pdfrwt>
<totfact> 0.74931780E+02</totfact>
</mgrwt>
</event>
<event>
 4    1  0.5886875E-005  0.1052162E+04  0.7818608E-02  0.9253115E-01
          2   -1    0    0  501    0  0.00000000000E+00  0.00000000000E+00  0.75632963100E+03  0.75632963100E+03  0.25500000000E-02 0.  1.
         -2   -1    0    0    0  501 -0.00000000000E+00 -0.00000000000E+00 -0.36592669628E+03  0.36592669629E+03  0.25500000000E-02 0. -1.
    5000001    1    1    2    0    0 -0.19436494823E+03 -0.39424430038E+03  0.42939887803E+03  0.64259917361E+03  0.18800000000E+03 0.  0.
   -5000001    1    1    2    0    0  0.19436494823E+03  0.39424430038E+03 -0.38995943312E+02  0.47965715368E+03  0.18800000000E+03 0.  0.
<mgrwt>
<rscale>  0 0.10521620E+04</rscale>
<asrwt>0</asrwt>
<pdfrwt beam="1">  1        2 0.10804709E+00 0.10521620E+04</pdfrwt>
<pdfrwt beam="2">  1       -2 0.52275243E-01 0.10521620E+04</pdfrwt>
<totfact> 0.14046373E+02</totfact>
</mgrwt>
</event>
<event>
 4    1  0.5886875E-005  0.5328442E+03  0.7818608E-02  0.1005545E+00
          2   -1    0    0  501    0  0.00000000000E+00  0.00000000000E+00  0.11743442163E+04  0.11743442163E+04  0.25500000000E-02 0.  1.
         -2   -1    0    0    0  501 -0.00000000000E+00 -0.00000000000E+00 -0.60442880776E+02  0.60442880830E+02  0.25500000000E-02 0. -1.
    5000001    1    1    2    0    0  0.32306522446E+01  0.18874933134E+03  0.55699050068E+03  0.61742948184E+03  0.18800000000E+03 0.  0.
   -5000001    1    1    2    0    0 -0.32306522446E+01 -0.18874933134E+03  0.55691083486E+03  0.61735761530E+03  0.18800000000E+03 0.  0.
<mgrwt>
<rscale>  0 0.53284425E+03</rscale>
<asrwt>0</asrwt>
<pdfrwt beam="1">  1        2 0.16776348E+00 0.53284425E+03</pdfrwt>
<pdfrwt beam="2">  1       -2 0.86346962E-02 0.53284425E+03</pdfrwt>
<totfact> 0.19373818E+03</totfact>
</mgrwt>
</event>
<event>
 4    1  0.5886875E-005  0.7026370E+03  0.7818608E-02  0.9712733E-01
          2   -1    0    0  501    0  0.00000000000E+00  0.00000000000E+00  0.11907440313E+04  0.11907440313E+04  0.25500000000E-02 0.  1.
         -2   -1    0    0    0  501 -0.00000000000E+00 -0.00000000000E+00 -0.10365340999E+03  0.10365341002E+03  0.25500000000E-02 0. -1.
    5000001    1    1    2    0    0 -0.19538591016E+03  0.21165762539E+03  0.41190762396E+03  0.53664373186E+03  0.18800000000E+03 0.  0.
   -5000001    1    1    2    0    0  0.19538591016E+03 -0.21165762539E+03  0.67518299737E+03  0.75775370947E+03  0.18800000000E+03 0.  0.
<mgrwt>
<rscale>  0 0.70263697E+03</rscale>
<asrwt>0</asrwt>
<pdfrwt beam="1">  1        2 0.17010629E+00 0.70263697E+03</pdfrwt>
<pdfrwt beam="2">  1       -2 0.14807630E-01 0.70263697E+03</pdfrwt>
<totfact> 0.77959605E+02</totfact>
</mgrwt>
</event>
<event>
 4    1  0.5886875E-005  0.5022066E+03  0.7818608E-02  0.1013205E+00
          2   -1    0    0  501    0  0.00000000000E+00  0.00000000000E+00  0.84946314763E+03  0.84946314764E+03  0.25500000000E-02 0.  1.
         -2   -1    0    0    0  501 -0.00000000000E+00 -0.00000000000E+00 -0.74226716231E+02  0.74226716275E+02  0.25500000000E-02 0. -1.
    5000001    1    1    2    0    0 -0.55586666242E-01 -0.12549228996E+03  0.18646859453E+03  0.29302364184E+03  0.18800000000E+03 0.  0.
   -5000001    1    1    2    0    0  0.55586666242E-01  0.12549228996E+03  0.58876783687E+03  0.63066622208E+03  0.18800000000E+03 0.  0.
<mgrwt>
<rscale>  0 0.50220657E+03</rscale>
<asrwt>0</asrwt>
<pdfrwt beam="1">  1        2 0.12135187E+00 0.50220657E+03</pdfrwt>
<pdfrwt beam="2">  1       -2 0.10603818E-01 0.50220657E+03</pdfrwt>
<totfact> 0.21905745E+03</totfact>
</mgrwt>
</event>
<event>
 4    1  0.5886875E-005  0.6796104E+03  0.7818608E-02  0.9752751E-01
          2   -1    0    0  501    0  0.00000000000E+00  0.00000000000E+00  0.11493546782E+04  0.11493546782E+04  0.25500000000E-02 0.  1.
         -2   -1    0    0    0  501 -0.00000000000E+00 -0.00000000000E+00 -0.10046295949E+03  0.10046295953E+03  0.25500000000E-02 0. -1.
    5000001    1    1    2    0    0  0.24147895356E+03 -0.96134902952E+02  0.31826572878E+03  0.45187506979E+03  0.18800000000E+03 0.  0.
   -5000001    1    1    2    0    0 -0.24147895356E+03  0.96134902952E+02  0.73062598995E+03  0.79794256796E+03  0.18800000000E+03 0.  0.
<mgrwt>
<rscale>  0 0.67961040E+03</rscale>
<asrwt>0</asrwt>
<pdfrwt beam="1">  1        2 0.16419352E+00 0.67961040E+03</pdfrwt>
<pdfrwt beam="2">  1       -2 0.14351852E-01 0.67961040E+03</pdfrwt>
<totfact> 0.86822418E+02</totfact>
</mgrwt>
</event>
<event>
 4    1  0.5886875E-005  0.5379282E+03  0.7818608E-02  0.1004327E+00
          2   -1    0    0  501    0  0.00000000000E+00  0.00000000000E+00  0.38279021035E+04  0.38279021035E+04  0.25500000000E-02 0.  1.
         -2   -1    0    0    0  501 -0.00000000000E+00 -0.00000000000E+00 -0.18898521448E+02  0.18898521620E+02  0.25500000000E-02 0. -1.
    5000001    1    1    2    0    0  0.12129380760E+03 -0.14507044705E+03  0.21563263608E+04  0.21727505602E+04  0.18800000000E+03 0.  0.
   -5000001    1    1    2    0    0 -0.12129380760E+03  0.14507044705E+03  0.16526772212E+04  0.16740500649E+04  0.18800000000E+03 0.  0.
<mgrwt>
<rscale>  0 0.53792821E+03</rscale>
<asrwt>0</asrwt>
<pdfrwt beam="1">  1        2 0.54684326E+00 0.53792821E+03</pdfrwt>
<pdfrwt beam="2">  1       -2 0.26997883E-02 0.53792821E+03</pdfrwt>
<totfact> 0.43874057E+02</totfact>
</mgrwt>
</event>
<event>
 4    1  0.5886875E-005  0.7979993E+03  0.7818608E-02  0.9562918E-01
         -2   -1    0    0    0  501 -0.00000000000E+00  0.00000000000E+00  0.32154900477E+03  0.32154900478E+03  0.25500000000E-02 0. -1.
          2   -1    0    0  501    0  0.00000000000E+00 -0.00000000000E+00 -0.49510560475E+03  0.49510560476E+03  0.25500000000E-02 0.  1.
    5000001    1    1    2    0    0 -0.25268470257E+03  0.11020841649E+03 -0.31066483857E+03  0.45590799061E+03  0.18800000000E+03 0.  0.
   -5000001    1    1    2    0    0  0.25268470257E+03 -0.11020841649E+03  0.13710823859E+03  0.36074661893E+03  0.18800000000E+03 0.  0.
<mgrwt>
<rscale>  0 0.79799928E+03</rscale>
<asrwt>0</asrwt>
<pdfrwt beam="1">  1        2 0.70729372E-01 0.79799928E+03</pdfrwt>
<pdfrwt beam="2">  1       -2 0.45935572E-01 0.79799928E+03</pdfrwt>
<totfact> 0.30692616E+02</totfact>
</mgrwt>
</event>
<event>
 4    1  0.5886875E-005  0.4212923E+03  0.7818608E-02  0.1036647E+00
         -2   -1    0    0    0  501 -0.00000000000E+00  0.00000000000E+00  0.18270914484E+02  0.18270914662E+02  0.25500000000E-02 0. -1.
          2   -1    0    0  501    0  0.00000000000E+00 -0.00000000000E+00 -0.24285482519E+04  0.24285482519E+04  0.25500000000E-02 0.  1.
    5000001    1    1    2    0    0 -0.89544890461E+02  0.92973083909E+00 -0.13895925158E+04  0.14051087188E+04  0.18800000000E+03 0.  0.
   -5000001    1    1    2    0    0  0.89544890461E+02 -0.92973083909E+00 -0.10206848216E+04  0.10417104477E+04  0.18800000000E+03 0.  0.
<mgrwt>
<rscale>  0 0.42129229E+03</rscale>
<asrwt>0</asrwt>
<pdfrwt beam="1">  1        2 0.34693526E+00 0.42129229E+03</pdfrwt>
<pdfrwt beam="2">  1       -2 0.26101322E-02 0.42129229E+03</pdfrwt>
<totfact> 0.28133291E+03</totfact>
</mgrwt>
</event>
<event>
 4    1  0.5886875E-005  0.4393988E+03  0.7818608E-02  0.1030931E+00
          2   -1    0    0  501    0  0.00000000000E+00  0.00000000000E+00  0.25187707724E+04  0.25187707724E+04  0.25500000000E-02 0.  1.
         -2   -1    0    0    0  501 -0.00000000000E+00 -0.00000000000E+00 -0.19163251239E+02  0.19163251409E+02  0.25500000000E-02 0. -1.
    5000001    1    1    2    0    0 -0.87696216307E+02 -0.65325078623E+02  0.10702993391E+04  0.10921733688E+04  0.18800000000E+03 0.  0.
   -5000001    1    1    2    0    0  0.87696216307E+02  0.65325078623E+02  0.14293081821E+04  0.14457606550E+04  0.18800000000E+03 0.  0.
<mgrwt>
<rscale>  0 0.43939885E+03</rscale>
<asrwt>0</asrwt>
<pdfrwt beam="1">  1        2 0.35982463E+00 0.43939885E+03</pdfrwt>
<pdfrwt beam="2">  1       -2 0.27376056E-02 0.43939885E+03</pdfrwt>
<totfact> 0.23551532E+03</totfact>
</mgrwt>
</event>
<event>
 4    1  0.5886875E-005  0.5224176E+03  0.7818608E-02  0.1008088E+00
          2   -1    0    0  501    0  0.00000000000E+00  0.00000000000E+00  0.17497000830E+04  0.17497000830E+04  0.25500000000E-02 0.  1.
         -2   -1    0    0    0  501 -0.00000000000E+00 -0.00000000000E+00 -0.38995277631E+02  0.38995277714E+02  0.25500000000E-02 0. -1.
    5000001    1    1    2    0    0  0.27793136177E+02 -0.16564197061E+03  0.62121506863E+03  0.67041918404E+03  0.18800000000E+03 0.  0.
   -5000001    1    1    2    0    0 -0.27793136177E+02  0.16564197061E+03  0.10894897367E+04  0.11182761766E+04  0.18800000000E+03 0.  0.
<mgrwt>
<rscale>  0 0.52241761E+03</rscale>
<asrwt>0</asrwt>
<pdfrwt beam="1">  1        2 0.24995723E+00 0.52241761E+03</pdfrwt>
<pdfrwt beam="2">  1       -2 0.55707522E-02 0.52241761E+03</pdfrwt>
<totfact> 0.19257129E+03</totfact>
</mgrwt>
</event>
<event>
 4    1  0.5886875E-005  0.4282757E+03  0.7818608E-02  0.1034406E+00
          2   -1    0    0  501    0  0.00000000000E+00  0.00000000000E+00  0.19437015442E+03  0.19437015444E+03  0.25500000000E-02 0.  1.
         -2   -1    0    0    0  501 -0.00000000000E+00 -0.00000000000E+00 -0.23591597838E+03  0.23591597840E+03  0.25500000000E-02 0. -1.
    5000001    1    1    2    0    0 -0.58085175118E+02 -0.80387961814E+02  0.53281297852E+01  0.21262290784E+03  0.18800000000E+03 0.  0.
   -5000001    1    1    2    0    0  0.58085175118E+02  0.80387961814E+02 -0.46873953748E+02  0.21766322499E+03  0.18800000000E+03 0.  0.
<mgrwt>
<rscale>  0 0.42827573E+03</rscale>
<asrwt>0</asrwt>
<pdfrwt beam="1">  1        2 0.27767165E-01 0.42827573E+03</pdfrwt>
<pdfrwt beam="2">  1       -2 0.33702283E-01 0.42827573E+03</pdfrwt>
<totfact> 0.15893967E+03</totfact>
</mgrwt>
</event>
<event>
 4    1  0.5886875E-005  0.8755707E+03  0.7818608E-02  0.9456645E-01
         -2   -1    0    0    0  501 -0.00000000000E+00  0.00000000000E+00  0.72147454569E+02  0.72147454614E+02  0.25500000000E-02 0. -1.
          2   -1    0    0  501    0  0.00000000000E+00 -0.00000000000E+00 -0.26564484147E+04  0.26564484147E+04  0.25500000000E-02 0.  1.
    5000001    1    1    2    0    0  0.16025586630E+03 -0.36119902605E+03 -0.13322187484E+04  0.14022472937E+04  0.18800000000E+03 0.  0.
   -5000001    1    1    2    0    0 -0.16025586630E+03  0.36119902605E+03 -0.12520822118E+04  0.13263485756E+04  0.18800000000E+03 0.  0.
<mgrwt>
<rscale>  0 0.87557065E+03</rscale>
<asrwt>0</asrwt>
<pdfrwt beam="1">  1        2 0.37949257E+00 0.87557065E+03</pdfrwt>
<pdfrwt beam="2">  1       -2 0.10306781E-01 0.87557065E+03</pdfrwt>
<totfact> 0.24380542E+02</totfact>
</mgrwt>
</event>
<event>
 4    1  0.5886875E-005  0.6919749E+03  0.7818608E-02  0.9731055E-01
         -2   -1    0    0    0  501 -0.00000000000E+00  0.00000000000E+00  0.57521518697E+02  0.57521518753E+02  0.25500000000E-02 0. -1.
          2   -1    0    0  501    0  0.00000000000E+00 -0.00000000000E+00 -0.20810874243E+04  0.20810874243E+04  0.25500000000E-02 0.  1.
    5000001    1    1    2    0    0 -0.94539722455E+02  0.17254593946E+03 -0.16721385214E+04  0.16941372716E+04  0.18800000000E+03 0.  0.
   -5000001    1    1    2    0    0  0.94539722455E+02 -0.17254593946E+03 -0.35142738424E+03  0.44447167147E+03  0.18800000000E+03 0.  0.
<mgrwt>
<rscale>  0 0.69197488E+03</rscale>
<asrwt>0</asrwt>
<pdfrwt beam="1">  1        2 0.29729816E+00 0.69197488E+03</pdfrwt>
<pdfrwt beam="2">  1       -2 0.82173611E-02 0.69197488E+03</pdfrwt>
<totfact> 0.70425420E+02</totfact>
</mgrwt>
</event>
<event>
 4    1  0.5886875E-005  0.6462651E+03  0.7818608E-02  0.9813813E-01
          2   -1    0    0  501    0  0.00000000000E+00  0.00000000000E+00  0.70650224183E+02  0.70650224229E+02  0.25500000000E-02 0.  1.
         -2   -1    0    0    0  501 -0.00000000000E+00 -0.00000000000E+00 -0.14779098011E+04  0.14779098011E+04  0.25500000000E-02 0. -1.
    5000001    1    1    2    0    0  0.23244798676E+03  0.41540058292E+02 -0.42715499927E+03  0.52303253856E+03  0.18800000000E+03 0.  0.
   -5000001    1    1    2    0    0 -0.23244798676E+03 -0.41540058292E+02 -0.98010457761E+03  0.10255274867E+04  0.18800000000E+03 0.  0.
<mgrwt>
<rscale>  0 0.64626514E+03</rscale>
<asrwt>0</asrwt>
<pdfrwt beam="1">  1        2 0.10092890E-01 0.64626514E+03</pdfrwt>
<pdfrwt beam="2">  1       -2 0.21112995E+00 0.64626514E+03</pdfrwt>
<totfact> 0.75884648E+01</totfact>
</mgrwt>
</event>
<event>
 4    1  0.5886875E-005  0.5220468E+03  0.7818608E-02  0.1008179E+00
          2   -1    0    0  501    0  0.00000000000E+00  0.00000000000E+00  0.51753606811E+03  0.51753606811E+03  0.25500000000E-02 0.  1.
         -2   -1    0    0    0  501 -0.00000000000E+00 -0.00000000000E+00 -0.13164918722E+03  0.13164918725E+03  0.25500000000E-02 0. -1.
    5000001    1    1    2    0    0  0.17883563656E+03  0.28401440184E+02  0.19218088882E+03  0.32413935388E+03  0.18800000000E+03 0.  0.
   -5000001    1    1    2    0    0 -0.17883563656E+03 -0.28401440184E+02  0.19370599206E+03  0.32504590148E+03  0.18800000000E+03 0.  0.
<mgrwt>
<rscale>  0 0.52204675E+03</rscale>
<asrwt>0</asrwt>
<pdfrwt beam="1">  1        2 0.73933724E-01 0.52204675E+03</pdfrwt>
<pdfrwt beam="2">  1       -2 0.18807027E-01 0.52204675E+03</pdfrwt>
<totfact> 0.15300893E+03</totfact>
</mgrwt>
</event>
<event>
 4    1  0.5886875E-005  0.7675190E+03  0.7818608E-02  0.9608260E-01
          2   -1    0    0  501    0  0.00000000000E+00  0.00000000000E+00  0.15328594457E+04  0.15328594457E+04  0.25500000000E-02 0.  1.
         -2   -1    0    0    0  501 -0.00000000000E+00 -0.00000000000E+00 -0.96076218328E+02  0.96076218362E+02  0.25500000000E-02 0. -1.
    5000001    1    1    2    0    0  0.23157637195E+03 -0.23465718661E+03  0.83911760787E+03  0.92095275184E+03  0.18800000000E+03 0.  0.
   -5000001    1    1    2    0    0 -0.23157637195E+03  0.23465718661E+03  0.59766561951E+03  0.70798291224E+03  0.18800000000E+03 0.  0.
<mgrwt>
<rscale>  0 0.76751896E+03</rscale>
<asrwt>0</asrwt>
<pdfrwt beam="1">  1        2 0.21897990E+00 0.76751896E+03</pdfrwt>
<pdfrwt beam="2">  1       -2 0.13725175E-01 0.76751896E+03</pdfrwt>
<totfact> 0.57674420E+02</totfact>
</mgrwt>
</event>
<event>
 4    1  0.5886875E-005  0.8497138E+03  0.7818608E-02  0.9490721E-01
          2   -1    0    0  501    0  0.00000000000E+00  0.00000000000E+00  0.18147597329E+04  0.18147597329E+04  0.25500000000E-02 0.  1.
         -2   -1    0    0    0  501 -0.00000000000E+00 -0.00000000000E+00 -0.99464075455E+02  0.99464075488E+02  0.25500000000E-02 0. -1.
    5000001    1    1    2    0    0  0.30229662020E+03 -0.20879806542E+03  0.63035607342E+03  0.75344054709E+03  0.18800000000E+03 0.  0.
   -5000001    1    1    2    0    0 -0.30229662020E+03  0.20879806542E+03  0.10849395840E+04  0.11607832613E+04  0.18800000000E+03 0.  0.
<mgrwt>
<rscale>  0 0.84971383E+03</rscale>
<asrwt>0</asrwt>
<pdfrwt beam="1">  1        2 0.25925137E+00 0.84971383E+03</pdfrwt>
<pdfrwt beam="2">  1       -2 0.14209155E-01 0.84971383E+03</pdfrwt>
<totfact> 0.38757183E+02</totfact>
</mgrwt>
</event>
<event>
 4    1  0.5886875E-005  0.4516379E+03  0.7818608E-02  0.1027235E+00
         -2   -1    0    0    0  501 -0.00000000000E+00  0.00000000000E+00  0.37511998346E+03  0.37511998346E+03  0.25500000000E-02 0. -1.
          2   -1    0    0  501    0  0.00000000000E+00 -0.00000000000E+00 -0.13594101065E+03  0.13594101067E+03  0.25500000000E-02 0.  1.
    5000001    1    1    2    0    0 -0.61345977540E+02  0.10682253220E+03  0.14427248711E+03  0.26708225865E+03  0.18800000000E+03 0.  0.
   -5000001    1    1    2    0    0  0.61345977540E+02 -0.10682253220E+03  0.94906485695E+02  0.24397873549E+03  0.18800000000E+03 0.  0.
<mgrwt>
<rscale>  0 0.45163786E+03</rscale>
<asrwt>0</asrwt>
<pdfrwt beam="1">  1        2 0.19420145E-01 0.45163786E+03</pdfrwt>
<pdfrwt beam="2">  1       -2 0.53588569E-01 0.45163786E+03</pdfrwt>
<totfact> 0.96702808E+02</totfact>
</mgrwt>
</event>
<event>
 4    1  0.5886875E-005  0.5681410E+03  0.7818608E-02  0.9973801E-01
         -2   -1    0    0    0  501 -0.00000000000E+00  0.00000000000E+00  0.68746869597E+02  0.68746869644E+02  0.25500000000E-02 0. -1.
          2   -1    0    0  501    0  0.00000000000E+00 -0.00000000000E+00 -0.11738141915E+04  0.11738141915E+04  0.25500000000E-02 0.  1.
    5000001    1    1    2    0    0 -0.97174516728E+02 -0.18302432019E+03 -0.65992861262E+03  0.71679185419E+03  0.18800000000E+03 0.  0.
   -5000001    1    1    2    0    0  0.97174516728E+02  0.18302432019E+03 -0.44513870931E+03  0.52576920698E+03  0.18800000000E+03 0.  0.
<mgrwt>
<rscale>  0 0.56814101E+03</rscale>
<asrwt>0</asrwt>
<pdfrwt beam="1">  1        2 0.16768773E+00 0.56814101E+03</pdfrwt>
<pdfrwt beam="2">  1       -2 0.98209821E-02 0.56814101E+03</pdfrwt>
<totfact> 0.15753433E+03</totfact>
</mgrwt>
</event>
<event>
 4    1  0.5886875E-005  0.5932087E+03  0.7818608E-02  0.9919597E-01
         -2   -1    0    0    0  501 -0.00000000000E+00  0.00000000000E+00  0.84946469977E+03  0.84946469977E+03  0.25500000000E-02 0. -1.
          2   -1    0    0  501    0  0.00000000000E+00 -0.00000000000E+00 -0.10356422560E+03  0.10356422563E+03  0.25500000000E-02 0.  1.
    5000001    1    1    2    0    0  0.14850173022E+03  0.17075178960E+03  0.43351620000E+03  0.52391720070E+03  0.18800000000E+03 0.  0.
   -5000001    1    1    2    0    0 -0.14850173022E+03 -0.17075178960E+03  0.31238427416E+03  0.42911172470E+03  0.18800000000E+03 0.  0.
<mgrwt>
<rscale>  0 0.59320875E+03</rscale>
<asrwt>0</asrwt>
<pdfrwt beam="1">  1        2 0.14794888E-01 0.59320875E+03</pdfrwt>
<pdfrwt beam="2">  1       -2 0.12135211E+00 0.59320875E+03</pdfrwt>
<totfact> 0.21337553E+02</totfact>
</mgrwt>
</event>
<event>
 4    1  0.5886875E-005  0.6097623E+03  0.7818608E-02  0.9885357E-01
          2   -1    0    0  501    0  0.00000000000E+00  0.00000000000E+00  0.90900863708E+03  0.90900863708E+03  0.25500000000E-02 0.  1.
         -2   -1    0    0    0  501 -0.00000000000E+00 -0.00000000000E+00 -0.10225700978E+03  0.10225700981E+03  0.25500000000E-02 0. -1.
    5000001    1    1    2    0    0  0.16745623902E+03  0.78392840494E+02  0.65718762973E+03  0.70811482833E+03  0.18800000000E+03 0.  0.
   -5000001    1    1    2    0    0 -0.16745623902E+03 -0.78392840494E+02  0.14956399756E+03  0.30315081856E+03  0.18800000000E+03 0.  0.
<mgrwt>
<rscale>  0 0.60976227E+03</rscale>
<asrwt>0</asrwt>
<pdfrwt beam="1">  1        2 0.12985837E+00 0.60976227E+03</pdfrwt>
<pdfrwt beam="2">  1       -2 0.14608145E-01 0.60976227E+03</pdfrwt>
<totfact> 0.11795288E+03</totfact>
</mgrwt>
</event>
<event>
 4    1  0.5886875E-005  0.4696569E+03  0.7818608E-02  0.1022017E+00
         -2   -1    0    0    0  501 -0.00000000000E+00  0.00000000000E+00  0.57445767105E+02  0.57445767162E+02  0.25500000000E-02 0. -1.
          2   -1    0    0  501    0  0.00000000000E+00 -0.00000000000E+00 -0.95993857220E+03  0.95993857220E+03  0.25500000000E-02 0.  1.
    5000001    1    1    2    0    0 -0.12673710083E+03 -0.22967212266E+02 -0.32850278719E+03  0.39980978822E+03  0.18800000000E+03 0.  0.
   -5000001    1    1    2    0    0  0.12673710083E+03  0.22967212266E+02 -0.57399001791E+03  0.61757455114E+03  0.18800000000E+03 0.  0.
<mgrwt>
<rscale>  0 0.46965693E+03</rscale>
<asrwt>0</asrwt>
<pdfrwt beam="1">  1        2 0.13713407E+00 0.46965693E+03</pdfrwt>
<pdfrwt beam="2">  1       -2 0.82065388E-02 0.46965693E+03</pdfrwt>
<totfact> 0.28083140E+03</totfact>
</mgrwt>
</event>
<event>
 4    1  0.5886875E-005  0.4166859E+03  0.7818608E-02  0.1038150E+00
          2   -1    0    0  501    0  0.00000000000E+00  0.00000000000E+00  0.58949129746E+03  0.58949129746E+03  0.25500000000E-02 0.  1.
         -2   -1    0    0    0  501 -0.00000000000E+00 -0.00000000000E+00 -0.73634309956E+02  0.73634310000E+02  0.25500000000E-02 0. -1.
    5000001    1    1    2    0    0 -0.71581058102E+02  0.45755666944E+02  0.21165771470E+03  0.29556795687E+03  0.18800000000E+03 0.  0.
   -5000001    1    1    2    0    0  0.71581058102E+02 -0.45755666944E+02  0.30419927280E+03  0.36755765059E+03  0.18800000000E+03 0.  0.
<mgrwt>
<rscale>  0 0.41668590E+03</rscale>
<asrwt>0</asrwt>
<pdfrwt beam="1">  1        2 0.84213043E-01 0.41668590E+03</pdfrwt>
<pdfrwt beam="2">  1       -2 0.10519187E-01 0.41668590E+03</pdfrwt>
<totfact> 0.34595515E+03</totfact>
</mgrwt>
</event>
<event>
 4    1  0.5886875E-005  0.6716267E+03  0.7818608E-02  0.9767024E-01
         -2   -1    0    0    0  501 -0.00000000000E+00  0.00000000000E+00  0.77758310945E+02  0.77758310987E+02  0.25500000000E-02 0. -1.
          2   -1    0    0  501    0  0.00000000000E+00 -0.00000000000E+00 -0.14502708140E+04  0.14502708140E+04  0.25500000000E-02 0.  1.
    5000001    1    1    2    0    0 -0.13067927104E+03  0.20286336794E+03 -0.10014727517E+04  0.10471496026E+04  0.18800000000E+03 0.  0.
   -5000001    1    1    2    0    0  0.13067927104E+03 -0.20286336794E+03 -0.37103975140E+03  0.48087952238E+03  0.18800000000E+03 0.  0.
<mgrwt>
<rscale>  0 0.67162671E+03</rscale>
<asrwt>0</asrwt>
<pdfrwt beam="1">  1        2 0.20718153E+00 0.67162671E+03</pdfrwt>
<pdfrwt beam="2">  1       -2 0.11108331E-01 0.67162671E+03</pdfrwt>
<totfact> 0.90887515E+02</totfact>
</mgrwt>
</event>
<event>
 4    1  0.5886875E-005  0.4328675E+03  0.7818608E-02  0.1032958E+00
          2   -1    0    0  501    0  0.00000000000E+00  0.00000000000E+00  0.45259395293E+02  0.45259395365E+02  0.25500000000E-02 0.  1.
         -2   -1    0    0    0  501 -0.00000000000E+00 -0.00000000000E+00 -0.10350021398E+04  0.10350021398E+04  0.25500000000E-02 0. -1.
    5000001    1    1    2    0    0  0.56589854173E+02 -0.91044943920E+02 -0.50192009197E+03  0.54658885109E+03  0.18800000000E+03 0.  0.
   -5000001    1    1    2    0    0 -0.56589854173E+02  0.91044943920E+02 -0.48782265256E+03  0.53367268410E+03  0.18800000000E+03 0.  0.
<mgrwt>
<rscale>  0 0.43286751E+03</rscale>
<asrwt>0</asrwt>
<pdfrwt beam="1">  1        2 0.64656285E-02 0.43286751E+03</pdfrwt>
<pdfrwt beam="2">  1       -2 0.14785743E+00 0.43286751E+03</pdfrwt>
<totfact> 0.37011599E+02</totfact>
</mgrwt>
</event>
<event>
 4    1  0.5886875E-005  0.5106896E+03  0.7818608E-02  0.1011026E+00
          2   -1    0    0  501    0  0.00000000000E+00  0.00000000000E+00  0.35570308950E+03  0.35570308951E+03  0.25500000000E-02 0.  1.
         -2   -1    0    0    0  501 -0.00000000000E+00 -0.00000000000E+00 -0.18330166949E+03  0.18330166951E+03  0.25500000000E-02 0. -1.
    5000001    1    1    2    0    0 -0.10495214769E+03 -0.81550119925E+02  0.20273824696E+03  0.30677707239E+03  0.18800000000E+03 0.  0.
   -5000001    1    1    2    0    0  0.10495214769E+03  0.81550119925E+02 -0.30336826953E+02  0.23222768662E+03  0.18800000000E+03 0.  0.
<mgrwt>
<rscale>  0 0.51068961E+03</rscale>
<asrwt>0</asrwt>
<pdfrwt beam="1">  1        2 0.50814728E-01 0.51068961E+03</pdfrwt>
<pdfrwt beam="2">  1       -2 0.26185952E-01 0.51068961E+03</pdfrwt>
<totfact> 0.12975708E+03</totfact>
</mgrwt>
</event>
<event>
 4    1  0.5886875E-005  0.4130069E+03  0.7818608E-02  0.1039367E+00
         -2   -1    0    0    0  501 -0.00000000000E+00  0.00000000000E+00  0.53369325488E+02  0.53369325549E+02  0.25500000000E-02 0. -1.
          2   -1    0    0  501    0  0.00000000000E+00 -0.00000000000E+00 -0.79902955880E+03  0.79902955881E+03  0.25500000000E-02 0.  1.
    5000001    1    1    2    0    0 -0.55929164383E+02  0.64587902104E+02 -0.37285066432E+03  0.42621741683E+03  0.18800000000E+03 0.  0.
   -5000001    1    1    2    0    0  0.55929164383E+02 -0.64587902104E+02 -0.37280956900E+03  0.42618146753E+03  0.18800000000E+03 0.  0.
<mgrwt>
<rscale>  0 0.41300687E+03</rscale>
<asrwt>0</asrwt>
<pdfrwt beam="1">  1        2 0.11414707E+00 0.41300687E+03</pdfrwt>
<pdfrwt beam="2">  1       -2 0.76241898E-02 0.41300687E+03</pdfrwt>
<totfact> 0.40066780E+03</totfact>
</mgrwt>
</event>
<event>
 4    1  0.5886875E-005  0.1042358E+04  0.7818608E-02  0.9263270E-01
         -2   -1    0    0    0  501 -0.00000000000E+00  0.00000000000E+00  0.34002817393E+03  0.34002817394E+03  0.25500000000E-02 0. -1.
          2   -1    0    0  501    0  0.00000000000E+00 -0.00000000000E+00 -0.79883809054E+03  0.79883809054E+03  0.25500000000E-02 0.  1.
    5000001    1    1    2    0    0 -0.44447313601E+03  0.19516594361E+03 -0.25698802274E+03  0.58054539703E+03  0.18800000000E+03 0.  0.
   -5000001    1    1    2    0    0  0.44447313601E+03 -0.19516594361E+03 -0.20182189387E+03  0.55832086745E+03  0.18800000000E+03 0.  0.
<mgrwt>
<rscale>  0 0.10423578E+04</rscale>
<asrwt>0</asrwt>
<pdfrwt beam="1">  1        2 0.11411973E+00 0.10423578E+04</pdfrwt>
<pdfrwt beam="2">  1       -2 0.48575454E-01 0.10423578E+04</pdfrwt>
<totfact> 0.15220800E+02</totfact>
</mgrwt>
</event>
<event>
 4    1  0.5886875E-005  0.7551200E+03  0.7818608E-02  0.9627352E-01
         -2   -1    0    0    0  501 -0.00000000000E+00  0.00000000000E+00  0.79611978784E+02  0.79611978825E+02  0.25500000000E-02 0. -1.
          2   -1    0    0  501    0  0.00000000000E+00 -0.00000000000E+00 -0.17905794157E+04  0.17905794157E+04  0.25500000000E-02 0.  1.
    5000001    1    1    2    0    0 -0.29673222559E+03 -0.77819274100E+02 -0.57199605216E+03  0.67574354367E+03  0.18800000000E+03 0.  0.
   -5000001    1    1    2    0    0  0.29673222559E+03  0.77819274100E+02 -0.11389713847E+04  0.11944478508E+04  0.18800000000E+03 0.  0.
<mgrwt>
<rscale>  0 0.75512004E+03</rscale>
<asrwt>0</asrwt>
<pdfrwt beam="1">  1        2 0.25579704E+00 0.75512004E+03</pdfrwt>
<pdfrwt beam="2">  1       -2 0.11373141E-01 0.75512004E+03</pdfrwt>
<totfact> 0.58083982E+02</totfact>
</mgrwt>
</event>
<event>
 4    1  0.5886875E-005  0.7712968E+03  0.7818608E-02  0.9602519E-01
         -2   -1    0    0    0  501 -0.00000000000E+00  0.00000000000E+00  0.66629613263E+02  0.66629613312E+02  0.25500000000E-02 0. -1.
          2   -1    0    0  501    0  0.00000000000E+00 -0.00000000000E+00 -0.22321109017E+04  0.22321109017E+04  0.25500000000E-02 0.  1.
    5000001    1    1    2    0    0  0.30179956073E+03  0.13909487091E+03 -0.92085676941E+03  0.99687087817E+03  0.18800000000E+03 0.  0.
   -5000001    1    1    2    0    0 -0.30179956073E+03 -0.13909487091E+03 -0.12446245190E+04  0.13018696368E+04  0.18800000000E+03 0.  0.
<mgrwt>
<rscale>  0 0.77129679E+03</rscale>
<asrwt>0</asrwt>
<pdfrwt beam="1">  1        2 0.31887294E+00 0.77129679E+03</pdfrwt>
<pdfrwt beam="2">  1       -2 0.95185176E-02 0.77129679E+03</pdfrwt>
<totfact> 0.46349040E+02</totfact>
</mgrwt>
</event>
<event>
 4    1  0.5886875E-005  0.6574655E+03  0.7818608E-02  0.9792871E-01
          2   -1    0    0  501    0  0.00000000000E+00  0.00000000000E+00  0.15277546557E+04  0.15277546557E+04  0.25500000000E-02 0.  1.
         -2   -1    0    0    0  501 -0.00000000000E+00 -0.00000000000E+00 -0.70734668081E+02  0.70734668127E+02  0.25500000000E-02 0. -1.
    5000001    1    1    2    0    0  0.13759138747E+03 -0.21737910473E+03  0.53194874815E+03  0.62007945922E+03  0.18800000000E+03 0.  0.
   -5000001    1    1    2    0    0 -0.13759138747E+03  0.21737910473E+03  0.92507123947E+03  0.97840986462E+03  0.18800000000E+03 0.  0.
<mgrwt>
<rscale>  0 0.65746549E+03</rscale>
<asrwt>0</asrwt>
<pdfrwt beam="1">  1        2 0.21825064E+00 0.65746549E+03</pdfrwt>
<pdfrwt beam="2">  1       -2 0.10104954E-01 0.65746549E+03</pdfrwt>
<totfact> 0.96660055E+02</totfact>
</mgrwt>
</event>
<event>
 4    1  0.5886875E-005  0.6267410E+03  0.7818608E-02  0.9851429E-01
          2   -1    0    0  501    0  0.00000000000E+00  0.00000000000E+00  0.65476989353E+03  0.65476989354E+03  0.25500000000E-02 0.  1.
         -2   -1    0    0    0  501 -0.00000000000E+00 -0.00000000000E+00 -0.14997800849E+03  0.14997800851E+03  0.25500000000E-02 0. -1.
    5000001    1    1    2    0    0  0.18910346582E+03 -0.15577157201E+03  0.18406266752E+03  0.35951073559E+03  0.18800000000E+03 0.  0.
   -5000001    1    1    2    0    0 -0.18910346582E+03  0.15577157201E+03  0.32072921752E+03  0.44523716646E+03  0.18800000000E+03 0.  0.
<mgrwt>
<rscale>  0 0.62674105E+03</rscale>
<asrwt>0</asrwt>
<pdfrwt beam="1">  1        2 0.93538557E-01 0.62674105E+03</pdfrwt>
<pdfrwt beam="2">  1       -2 0.21425430E-01 0.62674105E+03</pdfrwt>
<totfact> 0.92560132E+02</totfact>
</mgrwt>
</event>
<event>
 4    1  0.5886875E-005  0.5459250E+03  0.7818608E-02  0.1002442E+00
          2   -1    0    0  501    0  0.00000000000E+00  0.00000000000E+00  0.38463965569E+03  0.38463965570E+03  0.25500000000E-02 0.  1.
         -2   -1    0    0    0  501 -0.00000000000E+00 -0.00000000000E+00 -0.19370996410E+03  0.19370996412E+03  0.25500000000E-02 0. -1.
    5000001    1    1    2    0    0  0.15427229017E+03 -0.88510660904E+02  0.18739714563E+03  0.31952428202E+03  0.18800000000E+03 0.  0.
   -5000001    1    1    2    0    0 -0.15427229017E+03  0.88510660904E+02  0.35325459529E+01  0.25882533780E+03  0.18800000000E+03 0.  0.
<mgrwt>
<rscale>  0 0.54592503E+03</rscale>
<asrwt>0</asrwt>
<pdfrwt beam="1">  1        2 0.54948521E-01 0.54592503E+03</pdfrwt>
<pdfrwt beam="2">  1       -2 0.27672852E-01 0.54592503E+03</pdfrwt>
<totfact> 0.10769786E+03</totfact>
</mgrwt>
</event>
<event>
 4    1  0.5886875E-005  0.3928489E+03  0.7818608E-02  0.1046284E+00
         -2   -1    0    0    0  501 -0.00000000000E+00  0.00000000000E+00  0.19354112890E+02  0.19354113058E+02  0.25500000000E-02 0. -1.
          2   -1    0    0  501    0  0.00000000000E+00 -0.00000000000E+00 -0.19935068881E+04  0.19935068881E+04  0.25500000000E-02 0.  1.
    5000001    1    1    2    0    0  0.54582215487E+01  0.43891985011E+02 -0.80360169798E+03  0.82648411208E+03  0.18800000000E+03 0.  0.
   -5000001    1    1    2    0    0 -0.54582215487E+01 -0.43891985011E+02 -0.11705510772E+04  0.11863768891E+04  0.18800000000E+03 0.  0.
<mgrwt>
<rscale>  0 0.39284886E+03</rscale>
<asrwt>0</asrwt>
<pdfrwt beam="1">  1        2 0.28478657E+00 0.39284886E+03</pdfrwt>
<pdfrwt beam="2">  1       -2 0.27648745E-02 0.39284886E+03</pdfrwt>
<totfact> 0.42525938E+03</totfact>
</mgrwt>
</event>
<event>
 4    1  0.5886875E-005  0.3936574E+03  0.7818608E-02  0.1045998E+00
          2   -1    0    0  501    0  0.00000000000E+00  0.00000000000E+00  0.88245671046E+02  0.88245671083E+02  0.25500000000E-02 0.  1.
         -2   -1    0    0    0  501 -0.00000000000E+00 -0.00000000000E+00 -0.43901912597E+03  0.43901912598E+03  0.25500000000E-02 0. -1.
    5000001    1    1    2    0    0 -0.51740691926E+02  0.24411545933E+02 -0.16044088121E+03  0.25368937530E+03  0.18800000000E+03 0.  0.
   -5000001    1    1    2    0    0  0.51740691926E+02 -0.24411545933E+02 -0.19033257372E+03  0.27357542176E+03  0.18800000000E+03 0.  0.
<mgrwt>
<rscale>  0 0.39365740E+03</rscale>
<asrwt>0</asrwt>
<pdfrwt beam="1">  1        2 0.12606525E-01 0.39365740E+03</pdfrwt>
<pdfrwt beam="2">  1       -2 0.62717017E-01 0.39365740E+03</pdfrwt>
<totfact> 0.11681567E+03</totfact>
</mgrwt>
</event>
<event>
 4    1  0.5886875E-005  0.5229546E+03  0.7818608E-02  0.1007955E+00
         -2   -1    0    0    0  501 -0.00000000000E+00  0.00000000000E+00  0.86260573734E+02  0.86260573772E+02  0.25500000000E-02 0. -1.
          2   -1    0    0  501    0  0.00000000000E+00 -0.00000000000E+00 -0.79260290057E+03  0.79260290058E+03  0.25500000000E-02 0.  1.
    5000001    1    1    2    0    0  0.16924149576E+03  0.16529540030E+02 -0.46091767903E+03  0.52602758143E+03  0.18800000000E+03 0.  0.
   -5000001    1    1    2    0    0 -0.16924149576E+03 -0.16529540030E+02 -0.24542464781E+03  0.35283589292E+03  0.18800000000E+03 0.  0.
<mgrwt>
<rscale>  0 0.52295461E+03</rscale>
<asrwt>0</asrwt>
<pdfrwt beam="1">  1        2 0.11322898E+00 0.52295461E+03</pdfrwt>
<pdfrwt beam="2">  1       -2 0.12322940E-01 0.52295461E+03</pdfrwt>
<totfact> 0.18730595E+03</totfact>
</mgrwt>
</event>
<event>
 4    1  0.5886875E-005  0.7049295E+03  0.7818608E-02  0.9708839E-01
         -2   -1    0    0    0  501 -0.00000000000E+00  0.00000000000E+00  0.43506530027E+03  0.43506530028E+03  0.25500000000E-02 0. -1.
          2   -1    0    0  501    0  0.00000000000E+00 -0.00000000000E+00 -0.28554652387E+03  0.28554652388E+03  0.25500000000E-02 0.  1.
    5000001    1    1    2    0    0 -0.18301031728E+03 -0.13555681821E+03 -0.12192406076E+03  0.31949632828E+03  0.18800000000E+03 0.  0.
   -5000001    1    1    2    0    0  0.18301031728E+03  0.13555681821E+03  0.27144283716E+03  0.40111549588E+03  0.18800000000E+03 0.  0.
<mgrwt>
<rscale>  0 0.70492946E+03</rscale>
<asrwt>0</asrwt>
<pdfrwt beam="1">  1        2 0.40792361E-01 0.70492946E+03</pdfrwt>
<pdfrwt beam="2">  1       -2 0.62152185E-01 0.70492946E+03</pdfrwt>
<totfact> 0.30551779E+02</totfact>
</mgrwt>
</event>
<event>
 4    1  0.5886875E-005  0.7323292E+03  0.7818608E-02  0.9663488E-01
         -2   -1    0    0    0  501 -0.00000000000E+00  0.00000000000E+00  0.63298718261E+02  0.63298718312E+02  0.25500000000E-02 0. -1.
          2   -1    0    0  501    0  0.00000000000E+00 -0.00000000000E+00 -0.21181553790E+04  0.21181553790E+04  0.25500000000E-02 0.  1.
    5000001    1    1    2    0    0 -0.21339715811E+03  0.15557729097E+03 -0.52024738721E+03  0.61297959547E+03  0.18800000000E+03 0.  0.
   -5000001    1    1    2    0    0  0.21339715811E+03 -0.15557729097E+03 -0.15346092735E+04  0.15684745019E+04  0.18800000000E+03 0.  0.
<mgrwt>
<rscale>  0 0.73232922E+03</rscale>
<asrwt>0</asrwt>
<pdfrwt beam="1">  1        2 0.30259358E+00 0.73232922E+03</pdfrwt>
<pdfrwt beam="2">  1       -2 0.90426754E-02 0.73232922E+03</pdfrwt>
<totfact> 0.57680943E+02</totfact>
</mgrwt>
</event>
<event>
 4    1  0.5886875E-005  0.4814422E+03  0.7818608E-02  0.1018740E+00
          2   -1    0    0  501    0  0.00000000000E+00  0.00000000000E+00  0.12426978308E+03  0.12426978311E+03  0.25500000000E-02 0.  1.
         -2   -1    0    0    0  501 -0.00000000000E+00 -0.00000000000E+00 -0.46629722053E+03  0.46629722054E+03  0.25500000000E-02 0. -1.
    5000001    1    1    2    0    0 -0.12814603299E+03 -0.38630809150E+02 -0.87017272161E+02  0.24663688054E+03  0.18800000000E+03 0.  0.
   -5000001    1    1    2    0    0  0.12814603299E+03  0.38630809150E+02 -0.25501016529E+03  0.34393012312E+03  0.18800000000E+03 0.  0.
<mgrwt>
<rscale>  0 0.48144223E+03</rscale>
<asrwt>0</asrwt>
<pdfrwt beam="1">  1        2 0.17752826E-01 0.48144223E+03</pdfrwt>
<pdfrwt beam="2">  1       -2 0.66613888E-01 0.48144223E+03</pdfrwt>
<totfact> 0.68172820E+02</totfact>
</mgrwt>
</event>
<event>
 4    1  0.5886875E-005  0.4171123E+03  0.7818608E-02  0.1038010E+00
         -2   -1    0    0    0  501 -0.00000000000E+00  0.00000000000E+00  0.20736453028E+02  0.20736453185E+02  0.25500000000E-02 0. -1.
          2   -1    0    0  501    0  0.00000000000E+00 -0.00000000000E+00 -0.20975464507E+04  0.20975464507E+04  0.25500000000E-02 0.  1.
    5000001    1    1    2    0    0  0.69788486274E+02 -0.15371428535E+01 -0.74760556054E+03  0.77403544478E+03  0.18800000000E+03 0.  0.
   -5000001    1    1    2    0    0 -0.69788486274E+02  0.15371428535E+01 -0.13292044371E+04  0.13442474591E+04  0.18800000000E+03 0.  0.
<mgrwt>
<rscale>  0 0.41711233E+03</rscale>
<asrwt>0</asrwt>
<pdfrwt beam="1">  1        2 0.29964936E+00 0.41711233E+03</pdfrwt>
<pdfrwt beam="2">  1       -2 0.29623518E-02 0.41711233E+03</pdfrwt>
<totfact> 0.34032130E+03</totfact>
</mgrwt>
</event>
<event>
 4    1  0.5886875E-005  0.1810905E+04  0.7818608E-02  0.8700522E-01
          2   -1    0    0  501    0  0.00000000000E+00  0.00000000000E+00  0.38414148327E+03  0.38414148328E+03  0.25500000000E-02 0.  1.
         -2   -1    0    0    0  501 -0.00000000000E+00 -0.00000000000E+00 -0.21342238455E+04  0.21342238455E+04  0.25500000000E-02 0. -1.
    5000001    1    1    2    0    0 -0.74827002198E+03 -0.45421305546E+03 -0.68700578494E+03  0.11285116189E+04  0.18800000000E+03 0.  0.
   -5000001    1    1    2    0    0  0.74827002198E+03  0.45421305546E+03 -0.10630765772E+04  0.13898537098E+04  0.18800000000E+03 0.  0.
<mgrwt>
<rscale>  0 0.18109047E+04</rscale>
<asrwt>0</asrwt>
<pdfrwt beam="1">  1        2 0.54877356E-01 0.18109047E+04</pdfrwt>
<pdfrwt beam="2">  1       -2 0.30488911E+00 0.18109047E+04</pdfrwt>
<totfact> 0.25439360E+00</totfact>
</mgrwt>
</event>
<event>
 4    1  0.5886875E-005  0.4317257E+03  0.7818608E-02  0.1033316E+00
         -2   -1    0    0    0  501 -0.00000000000E+00  0.00000000000E+00  0.12978493972E+03  0.12978493974E+03  0.25500000000E-02 0. -1.
          2   -1    0    0  501    0  0.00000000000E+00 -0.00000000000E+00 -0.35903057903E+03  0.35903057904E+03  0.25500000000E-02 0.  1.
    5000001    1    1    2    0    0 -0.18394481739E+02  0.93098522037E+02 -0.16829453183E+03  0.26957882188E+03  0.18800000000E+03 0.  0.
   -5000001    1    1    2    0    0  0.18394481739E+02 -0.93098522037E+02 -0.60951107481E+02  0.21923669690E+03  0.18800000000E+03 0.  0.
<mgrwt>
<rscale>  0 0.43172566E+03</rscale>
<asrwt>0</asrwt>
<pdfrwt beam="1">  1        2 0.51290082E-01 0.43172566E+03</pdfrwt>
<pdfrwt beam="2">  1       -2 0.18540706E-01 0.43172566E+03</pdfrwt>
<totfact> 0.23517323E+03</totfact>
</mgrwt>
</event>
<event>
 4    1  0.5886875E-005  0.6837201E+03  0.7818608E-02  0.9745485E-01
          2   -1    0    0  501    0  0.00000000000E+00  0.00000000000E+00  0.47005170550E+03  0.47005170551E+03  0.25500000000E-02 0.  1.
         -2   -1    0    0    0  501 -0.00000000000E+00 -0.00000000000E+00 -0.24862855729E+03  0.24862855730E+03  0.25500000000E-02 0. -1.
    5000001    1    1    2    0    0 -0.24673529991E+03  0.11295391110E+03  0.17359521854E+02  0.33057865517E+03  0.18800000000E+03 0.  0.
   -5000001    1    1    2    0    0  0.24673529991E+03 -0.11295391110E+03  0.20406362636E+03  0.38810160764E+03  0.18800000000E+03 0.  0.
<mgrwt>
<rscale>  0 0.68372005E+03</rscale>
<asrwt>0</asrwt>
<pdfrwt beam="1">  1        2 0.67150244E-01 0.68372005E+03</pdfrwt>
<pdfrwt beam="2">  1       -2 0.35518365E-01 0.68372005E+03</pdfrwt>
<totfact> 0.53973949E+02</totfact>
</mgrwt>
</event>
<event>
 4    1  0.5886875E-005  0.7842829E+03  0.7818608E-02  0.9583050E-01
         -2   -1    0    0    0  501 -0.00000000000E+00  0.00000000000E+00  0.14540472298E+03  0.14540472300E+03  0.25500000000E-02 0. -1.
          2   -1    0    0  501    0  0.00000000000E+00 -0.00000000000E+00 -0.10575646847E+04  0.10575646847E+04  0.25500000000E-02 0.  1.
    5000001    1    1    2    0    0  0.16167127782E+03  0.29781199552E+03 -0.54812754740E+03  0.67128041456E+03  0.18800000000E+03 0.  0.
   -5000001    1    1    2    0    0 -0.16167127782E+03 -0.29781199552E+03 -0.36403241427E+03  0.53168899310E+03  0.18800000000E+03 0.  0.
<mgrwt>
<rscale>  0 0.78428286E+03</rscale>
<asrwt>0</asrwt>
<pdfrwt beam="1">  1        2 0.15108066E+00 0.78428286E+03</pdfrwt>
<pdfrwt beam="2">  1       -2 0.20772104E-01 0.78428286E+03</pdfrwt>
<totfact> 0.51866252E+02</totfact>
</mgrwt>
</event>
<event>
 4    1  0.5886875E-005  0.4848319E+03  0.7818608E-02  0.1017816E+00
          2   -1    0    0  501    0  0.00000000000E+00  0.00000000000E+00  0.12106484581E+04  0.12106484581E+04  0.25500000000E-02 0.  1.
         -2   -1    0    0    0  501 -0.00000000000E+00 -0.00000000000E+00 -0.48540507907E+02  0.48540507974E+02  0.25500000000E-02 0. -1.
    5000001    1    1    2    0    0  0.40389351885E+02  0.14741986017E+03  0.60076100411E+03  0.64778213851E+03  0.18800000000E+03 0.  0.
   -5000001    1    1    2    0    0 -0.40389351885E+02 -0.14741986017E+03  0.56134694611E+03  0.61140682759E+03  0.18800000000E+03 0.  0.
<mgrwt>
<rscale>  0 0.48483189E+03</rscale>
<asrwt>0</asrwt>
<pdfrwt beam="1">  1        2 0.17294979E+00 0.48483189E+03</pdfrwt>
<pdfrwt beam="2">  1       -2 0.69343579E-02 0.48483189E+03</pdfrwt>
<totfact> 0.26185998E+03</totfact>
</mgrwt>
</event>
<event>
 4    1  0.5886875E-005  0.4666795E+03  0.7818608E-02  0.1022862E+00
         -2   -1    0    0    0  501 -0.00000000000E+00  0.00000000000E+00  0.17983703218E+03  0.17983703220E+03  0.25500000000E-02 0.  1.
          2   -1    0    0  501    0  0.00000000000E+00 -0.00000000000E+00 -0.30275990574E+03  0.30275990575E+03  0.25500000000E-02 0. -1.
    5000001    1    1    2    0    0 -0.11184136092E+03 -0.78781704050E+02 -0.41081482616E+02  0.23610746519E+03  0.18800000000E+03 0.  0.
   -5000001    1    1    2    0    0  0.11184136092E+03  0.78781704050E+02 -0.81841390942E+02  0.24648947275E+03  0.18800000000E+03 0.  0.
<mgrwt>
<rscale>  0 0.46667952E+03</rscale>
<asrwt>0</asrwt>
<pdfrwt beam="1">  1        2 0.43251415E-01 0.46667952E+03</pdfrwt>
<pdfrwt beam="2">  1       -2 0.25691005E-01 0.46667952E+03</pdfrwt>
<totfact> 0.16019354E+03</totfact>
</mgrwt>
</event>
<event>
 4    1  0.5886875E-005  0.1453620E+04  0.7818608E-02  0.8915895E-01
          2   -1    0    0  501    0  0.00000000000E+00  0.00000000000E+00  0.89454131949E+03  0.89454131949E+03  0.25500000000E-02 0.  1.
         -2   -1    0    0    0  501 -0.00000000000E+00 -0.00000000000E+00 -0.59052922580E+03  0.59052922581E+03  0.25500000000E-02 0. -1.
    5000001    1    1    2    0    0  0.53854179046E+03  0.43348001782E+03  0.26979307931E+02  0.71694077090E+03  0.18800000000E+03 0.  0.
   -5000001    1    1    2    0    0 -0.53854179046E+03 -0.43348001782E+03  0.27703278575E+03  0.76812977439E+03  0.18800000000E+03 0.  0.
<mgrwt>
<rscale>  0 0.14536200E+04</rscale>
<asrwt>0</asrwt>
<pdfrwt beam="1">  1        2 0.12779162E+00 0.14536200E+04</pdfrwt>
<pdfrwt beam="2">  1       -2 0.84361318E-01 0.14536200E+04</pdfrwt>
<totfact> 0.39043230E+01</totfact>
</mgrwt>
</event>
<event>
 4    1  0.5886875E-005  0.5234592E+03  0.7818608E-02  0.1007831E+00
          2   -1    0    0  501    0  0.00000000000E+00  0.00000000000E+00  0.10514966296E+04  0.10514966296E+04  0.25500000000E-02 0.  1.
         -2   -1    0    0    0  501 -0.00000000000E+00 -0.00000000000E+00 -0.65147510856E+02  0.65147510906E+02  0.25500000000E-02 0. -1.
    5000001    1    1    2    0    0  0.46984224199E+02  0.16083959272E+03  0.64523902586E+03  0.69264297614E+03  0.18800000000E+03 0.  0.
   -5000001    1    1    2    0    0 -0.46984224199E+02 -0.16083959272E+03  0.34111009286E+03  0.42400116434E+03  0.18800000000E+03 0.  0.
<mgrwt>
<rscale>  0 0.52345922E+03</rscale>
<asrwt>0</asrwt>
<pdfrwt beam="1">  1        2 0.15021380E+00 0.52345922E+03</pdfrwt>
<pdfrwt beam="2">  1       -2 0.93067874E-02 0.52345922E+03</pdfrwt>
<totfact> 0.20225468E+03</totfact>
</mgrwt>
</event>
<event>
 4    1  0.5886875E-005  0.5872135E+03  0.7818608E-02  0.9932295E-01
          2   -1    0    0  501    0  0.00000000000E+00  0.00000000000E+00  0.48716543792E+03  0.48716543793E+03  0.25500000000E-02 0.  1.
         -2   -1    0    0    0  501 -0.00000000000E+00 -0.00000000000E+00 -0.17695205136E+03  0.17695205138E+03  0.25500000000E-02 0. -1.
    5000001    1    1    2    0    0  0.75604911052E+02  0.19850575703E+03  0.69419556588E+02  0.29203375316E+03  0.18800000000E+03 0.  0.
   -5000001    1    1    2    0    0 -0.75604911052E+02 -0.19850575703E+03  0.24079382997E+03  0.37208373614E+03  0.18800000000E+03 0.  0.
<mgrwt>
<rscale>  0 0.58721350E+03</rscale>
<asrwt>0</asrwt>
<pdfrwt beam="1">  1        2 0.69595063E-01 0.58721350E+03</pdfrwt>
<pdfrwt beam="2">  1       -2 0.25278864E-01 0.58721350E+03</pdfrwt>
<totfact> 0.97383810E+02</totfact>
</mgrwt>
</event>
<event>
 4    1  0.5886875E-005  0.7127966E+03  0.7818608E-02  0.9695595E-01
         -2   -1    0    0    0  501 -0.00000000000E+00  0.00000000000E+00  0.12532241626E+03  0.12532241628E+03  0.25500000000E-02 0. -1.
          2   -1    0    0  501    0  0.00000000000E+00 -0.00000000000E+00 -0.10135436709E+04  0.10135436709E+04  0.25500000000E-02 0.  1.
    5000001    1    1    2    0    0 -0.12364526725E+03 -0.27571024524E+03 -0.47490401473E+03  0.59344933621E+03  0.18800000000E+03 0.  0.
   -5000001    1    1    2    0    0  0.12364526725E+03  0.27571024524E+03 -0.41331723992E+03  0.54541675099E+03  0.18800000000E+03 0.  0.
<mgrwt>
<rscale>  0 0.71279658E+03</rscale>
<asrwt>0</asrwt>
<pdfrwt beam="1">  1        2 0.14479195E+00 0.71279658E+03</pdfrwt>
<pdfrwt beam="2">  1       -2 0.17903203E-01 0.71279658E+03</pdfrwt>
<totfact> 0.71607216E+02</totfact>
</mgrwt>
</event>
<event>
 4    1  0.5886875E-005  0.1023997E+04  0.7818608E-02  0.9282610E-01
         -2   -1    0    0    0  501 -0.00000000000E+00  0.00000000000E+00  0.26811952309E+03  0.26811952310E+03  0.25500000000E-02 0. -1.
          2   -1    0    0  501    0  0.00000000000E+00 -0.00000000000E+00 -0.97770825051E+03  0.97770825051E+03  0.25500000000E-02 0.  1.
    5000001    1    1    2    0    0 -0.17768873160E+03  0.37758410346E+03 -0.75616128488E+02  0.46390175620E+03  0.18800000000E+03 0.  0.
   -5000001    1    1    2    0    0  0.17768873160E+03 -0.37758410346E+03 -0.63397259893E+03  0.78192601742E+03  0.18800000000E+03 0.  0.
<mgrwt>
<rscale>  0 0.10239974E+04</rscale>
<asrwt>0</asrwt>
<pdfrwt beam="1">  1        2 0.13967261E+00 0.10239974E+04</pdfrwt>
<pdfrwt beam="2">  1       -2 0.38302789E-01 0.10239974E+04</pdfrwt>
<totfact> 0.18579824E+02</totfact>
</mgrwt>
</event>
<event>
 4    1  0.5886875E-005  0.2298336E+04  0.7818608E-02  0.8478578E-01
          2   -1    0    0  501    0  0.00000000000E+00  0.00000000000E+00  0.43435593549E+03  0.43435593549E+03  0.25500000000E-02 0.  1.
         -2   -1    0    0    0  501 -0.00000000000E+00 -0.00000000000E+00 -0.30403330266E+04  0.30403330266E+04  0.25500000000E-02 0. -1.
    5000001    1    1    2    0    0 -0.10166504643E+04  0.47355116934E+03 -0.15533037641E+04  0.19250780400E+04  0.18800000000E+03 0.  0.
   -5000001    1    1    2    0    0  0.10166504643E+04 -0.47355116934E+03 -0.10526733271E+04  0.15496109221E+04  0.18800000000E+03 0.  0.
<mgrwt>
<rscale>  0 0.22983357E+04</rscale>
<asrwt>0</asrwt>
<pdfrwt beam="1">  1        2 0.62050850E-01 0.22983357E+04</pdfrwt>
<pdfrwt beam="2">  1       -2 0.43433328E+00 0.22983357E+04</pdfrwt>
<totfact> 0.31630876E-01</totfact>
</mgrwt>
</event>
<event>
 4    1  0.5886875E-005  0.5915949E+03  0.7818608E-02  0.9922999E-01
         -2   -1    0    0    0  501 -0.00000000000E+00  0.00000000000E+00  0.15575739471E+03  0.15575739473E+03  0.25500000000E-02 0. -1.
          2   -1    0    0  501    0  0.00000000000E+00 -0.00000000000E+00 -0.56174626308E+03  0.56174626309E+03  0.25500000000E-02 0.  1.
    5000001    1    1    2    0    0  0.95200632504E+02 -0.10802905002E+03  0.11983450340E+02  0.23710976184E+03  0.18800000000E+03 0.  0.
   -5000001    1    1    2    0    0 -0.95200632504E+02  0.10802905002E+03 -0.41797231871E+03  0.48039389597E+03  0.18800000000E+03 0.  0.
<mgrwt>
<rscale>  0 0.59159491E+03</rscale>
<asrwt>0</asrwt>
<pdfrwt beam="1">  1        2 0.80249465E-01 0.59159491E+03</pdfrwt>
<pdfrwt beam="2">  1       -2 0.22251057E-01 0.59159491E+03</pdfrwt>
<totfact> 0.10381987E+03</totfact>
</mgrwt>
</event>
<event>
 4    1  0.5886875E-005  0.5551387E+03  0.7818608E-02  0.1000311E+00
         -2   -1    0    0    0  501 -0.00000000000E+00  0.00000000000E+00  0.85758621439E+02  0.85758621477E+02  0.25500000000E-02 0. -1.
          2   -1    0    0  501    0  0.00000000000E+00 -0.00000000000E+00 -0.89839064291E+03  0.89839064291E+03  0.25500000000E-02 0.  1.
    5000001    1    1    2    0    0 -0.14600708652E+03  0.34322127786E+02 -0.16063994864E+03  0.28921492159E+03  0.18800000000E+03 0.  0.
   -5000001    1    1    2    0    0  0.14600708652E+03 -0.34322127786E+02 -0.65199207283E+03  0.69493434280E+03  0.18800000000E+03 0.  0.
<mgrwt>
<rscale>  0 0.55513870E+03</rscale>
<asrwt>0</asrwt>
<pdfrwt beam="1">  1        2 0.12834152E+00 0.55513870E+03</pdfrwt>
<pdfrwt beam="2">  1       -2 0.12251232E-01 0.55513870E+03</pdfrwt>
<totfact> 0.16068001E+03</totfact>
</mgrwt>
</event>
<event>
 4    1  0.5886875E-005  0.8989122E+03  0.7818608E-02  0.9426942E-01
         -2   -1    0    0    0  501 -0.00000000000E+00  0.00000000000E+00  0.27424661025E+03  0.27424661026E+03  0.25500000000E-02 0. -1.
          2   -1    0    0  501    0  0.00000000000E+00 -0.00000000000E+00 -0.73660261656E+03  0.73660261657E+03  0.25500000000E-02 0.  1.
    5000001    1    1    2    0    0  0.98772240380E+02 -0.28848346072E+03  0.74080540608E+02  0.36580129726E+03  0.18800000000E+03 0.  0.
   -5000001    1    1    2    0    0 -0.98772240380E+02  0.28848346072E+03 -0.53643654692E+03  0.64504792958E+03  0.18800000000E+03 0.  0.
<mgrwt>
<rscale>  0 0.89891217E+03</rscale>
<asrwt>0</asrwt>
<pdfrwt beam="1">  1        2 0.10522894E+00 0.89891217E+03</pdfrwt>
<pdfrwt beam="2">  1       -2 0.39178088E-01 0.89891217E+03</pdfrwt>
<totfact> 0.26046532E+02</totfact>
</mgrwt>
</event>
<event>
 4    1  0.5886875E-005  0.6488510E+03  0.7818608E-02  0.9808938E-01
          2   -1    0    0  501    0  0.00000000000E+00  0.00000000000E+00  0.66712519927E+03  0.66712519928E+03  0.25500000000E-02 0.  1.
         -2   -1    0    0    0  501 -0.00000000000E+00 -0.00000000000E+00 -0.15776933956E+03  0.15776933958E+03  0.25500000000E-02 0. -1.
    5000001    1    1    2    0    0 -0.12446818165E+03 -0.18523029799E+03  0.43494186572E+03  0.52375664014E+03  0.18800000000E+03 0.  0.
   -5000001    1    1    2    0    0  0.12446818165E+03  0.18523029799E+03  0.74413993995E+02  0.30113789871E+03  0.18800000000E+03 0.  0.
<mgrwt>
<rscale>  0 0.64885099E+03</rscale>
<asrwt>0</asrwt>
<pdfrwt beam="1">  1        2 0.95303600E-01 0.64885099E+03</pdfrwt>
<pdfrwt beam="2">  1       -2 0.22538477E-01 0.64885099E+03</pdfrwt>
<totfact> 0.82719294E+02</totfact>
</mgrwt>
</event>
<event>
 4    1  0.5886875E-005  0.9929171E+03  0.7818608E-02  0.9316347E-01
          2   -1    0    0  501    0  0.00000000000E+00  0.00000000000E+00  0.17714691724E+04  0.17714691724E+04  0.25500000000E-02 0.  1.
         -2   -1    0    0    0  501 -0.00000000000E+00 -0.00000000000E+00 -0.13913372907E+03  0.13913372910E+03  0.25500000000E-02 0. -1.
    5000001    1    1    2    0    0 -0.27774536866E+03 -0.27753544416E+03  0.12754053409E+04  0.13476539601E+04  0.18800000000E+03 0.  0.
   -5000001    1    1    2    0    0  0.27774536866E+03  0.27753544416E+03  0.35693010236E+03  0.56294894134E+03  0.18800000000E+03 0.  0.
<mgrwt>
<rscale>  0 0.99291714E+03</rscale>
<asrwt>0</asrwt>
<pdfrwt beam="1">  1        2 0.25306702E+00 0.99291714E+03</pdfrwt>
<pdfrwt beam="2">  1       -2 0.19876248E-01 0.99291714E+03</pdfrwt>
<totfact> 0.22711961E+02</totfact>
</mgrwt>
</event>
<event>
 4    1  0.5886875E-005  0.7851957E+03  0.7818608E-02  0.9581696E-01
         -2   -1    0    0    0  501 -0.00000000000E+00  0.00000000000E+00  0.54561095657E+03  0.54561095657E+03  0.25500000000E-02 0. -1.
          2   -1    0    0  501    0  0.00000000000E+00 -0.00000000000E+00 -0.28249630756E+03  0.28249630757E+03  0.25500000000E-02 0.  1.
    5000001    1    1    2    0    0 -0.13705158121E+03  0.31346889204E+03  0.87523938695E+02  0.40006289760E+03  0.18800000000E+03 0.  0.
   -5000001    1    1    2    0    0  0.13705158121E+03 -0.31346889204E+03  0.17559071031E+03  0.42804436655E+03  0.18800000000E+03 0.  0.
<mgrwt>
<rscale>  0 0.78519572E+03</rscale>
<asrwt>0</asrwt>
<pdfrwt beam="1">  1        2 0.40356615E-01 0.78519572E+03</pdfrwt>
<pdfrwt beam="2">  1       -2 0.77944423E-01 0.78519572E+03</pdfrwt>
<totfact> 0.18833318E+02</totfact>
</mgrwt>
</event>
<event>
 4    1  0.5886875E-005  0.7929657E+03  0.7818608E-02  0.9570255E-01
         -2   -1    0    0    0  501 -0.00000000000E+00  0.00000000000E+00  0.43026460972E+02  0.43026461047E+02  0.25500000000E-02 0. -1.
          2   -1    0    0  501    0  0.00000000000E+00 -0.00000000000E+00 -0.36535340930E+04  0.36535340930E+04  0.25500000000E-02 0.  1.
    5000001    1    1    2    0    0 -0.23094401905E+03  0.25892057158E+03 -0.19845708094E+04  0.20234229167E+04  0.18800000000E+03 0.  0.
   -5000001    1    1    2    0    0  0.23094401905E+03 -0.25892057158E+03 -0.16259368226E+04  0.16731376373E+04  0.18800000000E+03 0.  0.
<mgrwt>
<rscale>  0 0.79296568E+03</rscale>
<asrwt>0</asrwt>
<pdfrwt beam="1">  1        2 0.52193325E+00 0.79296568E+03</pdfrwt>
<pdfrwt beam="2">  1       -2 0.61466396E-02 0.79296568E+03</pdfrwt>
<totfact> 0.15369481E+02</totfact>
</mgrwt>
</event>
<event>
 4    1  0.5886875E-005  0.4827879E+03  0.7818608E-02  0.1018372E+00
          2   -1    0    0  501    0  0.00000000000E+00  0.00000000000E+00  0.38718855906E+03  0.38718855906E+03  0.25500000000E-02 0.  1.
         -2   -1    0    0    0  501 -0.00000000000E+00 -0.00000000000E+00 -0.15049780796E+03  0.15049780798E+03  0.25500000000E-02 0. -1.
    5000001    1    1    2    0    0  0.71231167902E+01  0.97115851862E+02 -0.10791385282E+02  0.21199689024E+03  0.18800000000E+03 0.  0.
   -5000001    1    1    2    0    0 -0.71231167902E+01 -0.97115851862E+02  0.24748213638E+03  0.32568947680E+03  0.18800000000E+03 0.  0.
<mgrwt>
<rscale>  0 0.48278786E+03</rscale>
<asrwt>0</asrwt>
<pdfrwt beam="1">  1        2 0.55312651E-01 0.48278786E+03</pdfrwt>
<pdfrwt beam="2">  1       -2 0.21499687E-01 0.48278786E+03</pdfrwt>
<totfact> 0.16768555E+03</totfact>
</mgrwt>
</event>
<event>
 4    1  0.5886875E-005  0.8256789E+03  0.7818608E-02  0.9523574E-01
          2   -1    0    0  501    0  0.00000000000E+00  0.00000000000E+00  0.66402846922E+03  0.66402846923E+03  0.25500000000E-02 0.  1.
         -2   -1    0    0    0  501 -0.00000000000E+00 -0.00000000000E+00 -0.25667036616E+03  0.25667036618E+03  0.25500000000E-02 0. -1.
    5000001    1    1    2    0    0 -0.45364104710E+02  0.34189921145E+03  0.34534023002E+03  0.52302662194E+03  0.18800000000E+03 0.  0.
   -5000001    1    1    2    0    0  0.45364104710E+02 -0.34189921145E+03  0.62017873044E+02  0.39767221347E+03  0.18800000000E+03 0.  0.
<mgrwt>
<rscale>  0 0.82567895E+03</rscale>
<asrwt>0</asrwt>
<pdfrwt beam="1">  1        2 0.94861209E-01 0.82567895E+03</pdfrwt>
<pdfrwt beam="2">  1       -2 0.36667195E-01 0.82567895E+03</pdfrwt>
<totfact> 0.33753974E+02</totfact>
</mgrwt>
</event>
<event>
 4    1  0.5886875E-005  0.1366174E+04  0.7818608E-02  0.8978674E-01
          2   -1    0    0  501    0  0.00000000000E+00  0.00000000000E+00  0.34645152211E+03  0.34645152212E+03  0.25500000000E-02 0.  1.
         -2   -1    0    0    0  501 -0.00000000000E+00 -0.00000000000E+00 -0.13468193050E+04  0.13468193050E+04  0.25500000000E-02 0. -1.
    5000001    1    1    2    0    0 -0.25703148004E+03 -0.53164338494E+03 -0.14407003575E+03  0.63624684336E+03  0.18800000000E+03 0.  0.
   -5000001    1    1    2    0    0  0.25703148004E+03  0.53164338494E+03 -0.85629774713E+03  0.10570239837E+04  0.18800000000E+03 0.  0.
<mgrwt>
<rscale>  0 0.13661736E+04</rscale>
<asrwt>0</asrwt>
<pdfrwt beam="1">  1        2 0.49493075E-01 0.13661736E+04</pdfrwt>
<pdfrwt beam="2">  1       -2 0.19240276E+00 0.13661736E+04</pdfrwt>
<totfact> 0.14810688E+01</totfact>
</mgrwt>
</event>
<event>
 4    1  0.5886875E-005  0.6293958E+03  0.7818608E-02  0.9846229E-01
          2   -1    0    0  501    0  0.00000000000E+00  0.00000000000E+00  0.65511909407E+03  0.65511909407E+03  0.25500000000E-02 0.  1.
         -2   -1    0    0    0  501 -0.00000000000E+00 -0.00000000000E+00 -0.15117061902E+03  0.15117061904E+03  0.25500000000E-02 0. -1.
    5000001    1    1    2    0    0 -0.20537375875E+03  0.13225993209E+03  0.17075414082E+03  0.35238054292E+03  0.18800000000E+03 0.  0.
   -5000001    1    1    2    0    0  0.20537375875E+03 -0.13225993209E+03  0.33319433424E+03  0.45390917020E+03  0.18800000000E+03 0.  0.
<mgrwt>
<rscale>  0 0.62939577E+03</rscale>
<asrwt>0</asrwt>
<pdfrwt beam="1">  1        2 0.93588442E-01 0.62939577E+03</pdfrwt>
<pdfrwt beam="2">  1       -2 0.21595803E-01 0.62939577E+03</pdfrwt>
<totfact> 0.91215883E+02</totfact>
</mgrwt>
</event>
<event>
 4    1  0.5886875E-005  0.4968320E+03  0.7818608E-02  0.1014609E+00
         -2   -1    0    0    0  501 -0.00000000000E+00  0.00000000000E+00  0.29218398603E+02  0.29218398714E+02  0.25500000000E-02 0. -1.
          2   -1    0    0  501    0  0.00000000000E+00 -0.00000000000E+00 -0.21120426494E+04  0.21120426494E+04  0.25500000000E-02 0.  1.
    5000001    1    1    2    0    0 -0.92318144897E+02  0.76487450258E+02 -0.56942118483E+03  0.61152060935E+03  0.18800000000E+03 0.  0.
   -5000001    1    1    2    0    0  0.92318144897E+02 -0.76487450258E+02 -0.15134030660E+04  0.15297404388E+04  0.18800000000E+03 0.  0.
<mgrwt>
<rscale>  0 0.49683198E+03</rscale>
<asrwt>0</asrwt>
<pdfrwt beam="1">  1        2 0.30172028E+00 0.49683198E+03</pdfrwt>
<pdfrwt beam="2">  1       -2 0.41740583E-02 0.49683198E+03</pdfrwt>
<totfact> 0.19823899E+03</totfact>
</mgrwt>
</event>
<event>
 4    1  0.5886875E-005  0.5880771E+03  0.7818608E-02  0.9930456E-01
          2   -1    0    0  501    0  0.00000000000E+00  0.00000000000E+00  0.16218115891E+03  0.16218115893E+03  0.25500000000E-02 0.  1.
         -2   -1    0    0    0  501 -0.00000000000E+00 -0.00000000000E+00 -0.53309934613E+03  0.53309934613E+03  0.25500000000E-02 0. -1.
    5000001    1    1    2    0    0  0.34920858586E+02  0.17340061109E+03 -0.18980265155E+02  0.25882714068E+03  0.18800000000E+03 0.  0.
   -5000001    1    1    2    0    0 -0.34920858586E+02 -0.17340061109E+03 -0.35193792206E+03  0.43645336438E+03  0.18800000000E+03 0.  0.
<mgrwt>
<rscale>  0 0.58807710E+03</rscale>
<asrwt>0</asrwt>
<pdfrwt beam="1">  1        2 0.23168737E-01 0.58807710E+03</pdfrwt>
<pdfrwt beam="2">  1       -2 0.76157049E-01 0.58807710E+03</pdfrwt>
<totfact> 0.37296881E+02</totfact>
</mgrwt>
</event>
<event>
 4    1  0.5886875E-005  0.8730661E+03  0.7818608E-02  0.9459891E-01
         -2   -1    0    0    0  501 -0.00000000000E+00  0.00000000000E+00  0.40565978759E+03  0.40565978760E+03  0.25500000000E-02 0.  1.
          2   -1    0    0  501    0  0.00000000000E+00 -0.00000000000E+00 -0.46975599737E+03  0.46975599738E+03  0.25500000000E-02 0. -1.
    5000001    1    1    2    0    0  0.24556380441E+03 -0.35592842842E+02  0.27479620532E+03  0.41524135988E+03  0.18800000000E+03 0.  0.
   -5000001    1    1    2    0    0 -0.24556380441E+03  0.35592842842E+02 -0.33889241511E+03  0.46017442510E+03  0.18800000000E+03 0.  0.
<mgrwt>
<rscale>  0 0.87306613E+03</rscale>
<asrwt>0</asrwt>
<pdfrwt beam="1">  1        2 0.67107999E-01 0.87306613E+03</pdfrwt>
<pdfrwt beam="2">  1       -2 0.57951398E-01 0.87306613E+03</pdfrwt>
<totfact> 0.20188198E+02</totfact>
</mgrwt>
</event>
<event>
 4    1  0.5886875E-005  0.4882096E+03  0.7818608E-02  0.1016903E+00
          2   -1    0    0  501    0  0.00000000000E+00  0.00000000000E+00  0.14039324238E+04  0.14039324238E+04  0.25500000000E-02 0.  1.
         -2   -1    0    0    0  501 -0.00000000000E+00 -0.00000000000E+00 -0.42443031543E+02  0.42443031620E+02  0.25500000000E-02 0. -1.
    5000001    1    1    2    0    0 -0.10520873101E+03  0.47920977414E+02  0.37175336089E+03  0.43233072814E+03  0.18800000000E+03 0.  0.
   -5000001    1    1    2    0    0  0.10520873101E+03 -0.47920977414E+02  0.98973603138E+03  0.10140447273E+04  0.18800000000E+03 0.  0.
<mgrwt>
<rscale>  0 0.48820958E+03</rscale>
<asrwt>0</asrwt>
<pdfrwt beam="1">  1        2 0.20056176E+00 0.48820958E+03</pdfrwt>
<pdfrwt beam="2">  1       -2 0.60632905E-02 0.48820958E+03</pdfrwt>
<totfact> 0.25416760E+03</totfact>
</mgrwt>
</event>
<event>
 4    1  0.5886875E-005  0.1070925E+04  0.7818608E-02  0.9234003E-01
         -2   -1    0    0    0  501 -0.00000000000E+00  0.00000000000E+00  0.98194577758E+02  0.98194577791E+02  0.25500000000E-02 0. -1.
          2   -1    0    0  501    0  0.00000000000E+00 -0.00000000000E+00 -0.29199162383E+04  0.29199162383E+04  0.25500000000E-02 0.  1.
    5000001    1    1    2    0    0  0.43833575021E+03 -0.17291227727E+03 -0.18935852937E+04  0.19603688812E+04  0.18800000000E+03 0.  0.
   -5000001    1    1    2    0    0 -0.43833575021E+03  0.17291227727E+03 -0.92813636685E+03  0.10577419350E+04  0.18800000000E+03 0.  0.
<mgrwt>
<rscale>  0 0.10709247E+04</rscale>
<asrwt>0</asrwt>
<pdfrwt beam="1">  1        2 0.41713084E+00 0.10709247E+04</pdfrwt>
<pdfrwt beam="2">  1       -2 0.14027799E-01 0.10709247E+04</pdfrwt>
<totfact> 0.10376585E+02</totfact>
</mgrwt>
</event>
<event>
 4    1  0.5886875E-005  0.7188567E+03  0.7818608E-02  0.9685517E-01
          2   -1    0    0  501    0  0.00000000000E+00  0.00000000000E+00  0.49535467752E+03  0.49535467752E+03  0.25500000000E-02 0.  1.
         -2   -1    0    0    0  501 -0.00000000000E+00 -0.00000000000E+00 -0.26080050954E+03  0.26080050955E+03  0.25500000000E-02 0. -1.
    5000001    1    1    2    0    0 -0.29611074175E+03  0.77950601299E+02  0.10747225120E+03  0.37503620146E+03  0.18800000000E+03 0.  0.
   -5000001    1    1    2    0    0  0.29611074175E+03 -0.77950601299E+02  0.12708191678E+03  0.38111898562E+03  0.18800000000E+03 0.  0.
<mgrwt>
<rscale>  0 0.71885674E+03</rscale>
<asrwt>0</asrwt>
<pdfrwt beam="1">  1        2 0.70764953E-01 0.71885674E+03</pdfrwt>
<pdfrwt beam="2">  1       -2 0.37257216E-01 0.71885674E+03</pdfrwt>
<totfact> 0.46364687E+02</totfact>
</mgrwt>
</event>
<event>
 4    1  0.5886875E-005  0.7665652E+03  0.7818608E-02  0.9609715E-01
          2   -1    0    0  501    0  0.00000000000E+00  0.00000000000E+00  0.30169257580E+04  0.30169257580E+04  0.25500000000E-02 0.  1.
         -2   -1    0    0    0  501 -0.00000000000E+00 -0.00000000000E+00 -0.48693786597E+02  0.48693786664E+02  0.25500000000E-02 0. -1.
    5000001    1    1    2    0    0 -0.17607280862E+03  0.30419053781E+02  0.26126639954E+04  0.26255064475E+04  0.18800000000E+03 0.  0.
   -5000001    1    1    2    0    0  0.17607280862E+03 -0.30419053781E+02  0.35556797595E+03  0.44011309716E+03  0.18800000000E+03 0.  0.
<mgrwt>
<rscale>  0 0.76656517E+03</rscale>
<asrwt>0</asrwt>
<pdfrwt beam="1">  1        2 0.43098937E+00 0.76656517E+03</pdfrwt>
<pdfrwt beam="2">  1       -2 0.69562556E-02 0.76656517E+03</pdfrwt>
<totfact> 0.29690710E+02</totfact>
</mgrwt>
</event>
<event>
 4    1  0.5886875E-005  0.8112426E+03  0.7818608E-02  0.9543885E-01
         -2   -1    0    0    0  501 -0.00000000000E+00  0.00000000000E+00  0.44597457695E+03  0.44597457695E+03  0.25500000000E-02 0. -1.
          2   -1    0    0  501    0  0.00000000000E+00 -0.00000000000E+00 -0.36891935205E+03  0.36891935206E+03  0.25500000000E-02 0.  1.
    5000001    1    1    2    0    0  0.69238255177E+02 -0.31566739090E+03 -0.11948524125E+03  0.39250549109E+03  0.18800000000E+03 0.  0.
   -5000001    1    1    2    0    0 -0.69238255177E+02  0.31566739090E+03  0.19654046615E+03  0.42238843792E+03  0.18800000000E+03 0.  0.
<mgrwt>
<rscale>  0 0.81124263E+03</rscale>
<asrwt>0</asrwt>
<pdfrwt beam="1">  1        2 0.52702765E-01 0.81124263E+03</pdfrwt>
<pdfrwt beam="2">  1       -2 0.63710654E-01 0.81124263E+03</pdfrwt>
<totfact> 0.21728762E+02</totfact>
</mgrwt>
</event>
<event>
 4    1  0.5886875E-005  0.5262821E+03  0.7818608E-02  0.1007138E+00
         -2   -1    0    0    0  501 -0.00000000000E+00  0.00000000000E+00  0.77071171610E+02  0.77071171652E+02  0.25500000000E-02 0. -1.
          2   -1    0    0  501    0  0.00000000000E+00 -0.00000000000E+00 -0.89843196510E+03  0.89843196510E+03  0.25500000000E-02 0.  1.
    5000001    1    1    2    0    0  0.27784369040E+01  0.17745486929E+03 -0.50151035869E+03  0.56422920008E+03  0.18800000000E+03 0.  0.
   -5000001    1    1    2    0    0 -0.27784369040E+01 -0.17745486929E+03 -0.31985043480E+03  0.41127393668E+03  0.18800000000E+03 0.  0.
<mgrwt>
<rscale>  0 0.52628207E+03</rscale>
<asrwt>0</asrwt>
<pdfrwt beam="1">  1        2 0.12834742E+00 0.52628207E+03</pdfrwt>
<pdfrwt beam="2">  1       -2 0.11010168E-01 0.52628207E+03</pdfrwt>
<totfact> 0.19142526E+03</totfact>
</mgrwt>
</event>
<event>
 4    1  0.5886875E-005  0.8369480E+03  0.7818608E-02  0.9508024E-01
          2   -1    0    0  501    0  0.00000000000E+00  0.00000000000E+00  0.34498155681E+04  0.34498155681E+04  0.25500000000E-02 0. -1.
         -2   -1    0    0    0  501 -0.00000000000E+00 -0.00000000000E+00 -0.50762273184E+02  0.50762273248E+02  0.25500000000E-02 0.  1.
    5000001    1    1    2    0    0 -0.33706879411E+03 -0.14553598698E+03  0.14043562978E+04  0.14636791680E+04  0.18800000000E+03 0.  0.
   -5000001    1    1    2    0    0  0.33706879411E+03  0.14553598698E+03  0.19946969971E+04  0.20368986734E+04  0.18800000000E+03 0.  0.
<mgrwt>
<rscale>  0 0.83694798E+03</rscale>
<asrwt>0</asrwt>
<pdfrwt beam="1">  1        2 0.49283099E+00 0.83694798E+03</pdfrwt>
<pdfrwt beam="2">  1       -2 0.72517505E-02 0.83694798E+03</pdfrwt>
<totfact> 0.15630219E+02</totfact>
</mgrwt>
</event>
<event>
 4    1  0.5886875E-005  0.5980482E+03  0.7818608E-02  0.9909464E-01
          2   -1    0    0  501    0  0.00000000000E+00  0.00000000000E+00  0.40979359378E+03  0.40979359378E+03  0.25500000000E-02 0.  1.
         -2   -1    0    0    0  501 -0.00000000000E+00 -0.00000000000E+00 -0.21819620677E+03  0.21819620678E+03  0.25500000000E-02 0. -1.
    5000001    1    1    2    0    0  0.14096924291E+03 -0.97186211841E+02 -0.69412097267E+02  0.26358969340E+03  0.18800000000E+03 0.  0.
   -5000001    1    1    2    0    0 -0.14096924291E+03  0.97186211841E+02  0.26100948428E+03  0.36440010717E+03  0.18800000000E+03 0.  0.
<mgrwt>
<rscale>  0 0.59804818E+03</rscale>
<asrwt>0</asrwt>
<pdfrwt beam="1">  1        2 0.58541943E-01 0.59804818E+03</pdfrwt>
<pdfrwt beam="2">  1       -2 0.31170886E-01 0.59804818E+03</pdfrwt>
<totfact> 0.80614994E+02</totfact>
</mgrwt>
</event>
<event>
 4    1  0.5886875E-005  0.4983967E+03  0.7818608E-02  0.1014198E+00
         -2   -1    0    0    0  501 -0.00000000000E+00  0.00000000000E+00  0.76990137051E+03  0.76990137051E+03  0.25500000000E-02 0. -1.
          2   -1    0    0  501    0  0.00000000000E+00 -0.00000000000E+00 -0.80659449937E+02  0.80659449977E+02  0.25500000000E-02 0.  1.
    5000001    1    1    2    0    0 -0.13092171518E+03  0.95659720591E+02  0.30783828100E+03  0.39547400028E+03  0.18800000000E+03 0.  0.
   -5000001    1    1    2    0    0  0.13092171518E+03 -0.95659720591E+02  0.38140363957E+03  0.45508682020E+03  0.18800000000E+03 0.  0.
<mgrwt>
<rscale>  0 0.49839671E+03</rscale>
<asrwt>0</asrwt>
<pdfrwt beam="1">  1        2 0.11522779E-01 0.49839671E+03</pdfrwt>
<pdfrwt beam="2">  1       -2 0.10998591E+00 0.49839671E+03</pdfrwt>
<totfact> 0.36932110E+02</totfact>
</mgrwt>
</event>
<event>
 4    1  0.5886875E-005  0.6533889E+03  0.7818608E-02  0.9800441E-01
          2   -1    0    0  501    0  0.00000000000E+00  0.00000000000E+00  0.88276840335E+03  0.88276840335E+03  0.25500000000E-02 0.  1.
         -2   -1    0    0    0  501 -0.00000000000E+00 -0.00000000000E+00 -0.12090288883E+03  0.12090288886E+03  0.25500000000E-02 0. -1.
    5000001    1    1    2    0    0 -0.23206014383E+03 -0.32779958963E+02  0.57800209056E+03  0.65142678234E+03  0.18800000000E+03 0.  0.
   -5000001    1    1    2    0    0  0.23206014383E+03  0.32779958963E+02  0.18386342395E+03  0.35224450987E+03  0.18800000000E+03 0.  0.
<mgrwt>
<rscale>  0 0.65338886E+03</rscale>
<asrwt>0</asrwt>
<pdfrwt beam="1">  1        2 0.12610977E+00 0.65338886E+03</pdfrwt>
<pdfrwt beam="2">  1       -2 0.17271841E-01 0.65338886E+03</pdfrwt>
<totfact> 0.92244022E+02</totfact>
</mgrwt>
</event>
<event>
 4    1  0.5886875E-005  0.5056766E+03  0.7818608E-02  0.1012308E+00
          2   -1    0    0  501    0  0.00000000000E+00  0.00000000000E+00  0.10855215094E+03  0.10855215097E+03  0.25500000000E-02 0.  1.
         -2   -1    0    0    0  501 -0.00000000000E+00 -0.00000000000E+00 -0.58890778941E+03  0.58890778941E+03  0.25500000000E-02 0. -1.
    5000001    1    1    2    0    0 -0.10365014612E+03 -0.27628744128E+02 -0.42041563945E+03  0.47286362747E+03  0.18800000000E+03 0.  0.
   -5000001    1    1    2    0    0  0.10365014612E+03  0.27628744128E+02 -0.59939999016E+02  0.22459631291E+03  0.18800000000E+03 0.  0.
<mgrwt>
<rscale>  0 0.50567661E+03</rscale>
<asrwt>0</asrwt>
<pdfrwt beam="1">  1        2 0.15507450E-01 0.50567661E+03</pdfrwt>
<pdfrwt beam="2">  1       -2 0.84129683E-01 0.50567661E+03</pdfrwt>
<totfact> 0.47933975E+02</totfact>
</mgrwt>
</event>
<event>
 4    1  0.5886875E-005  0.5355633E+03  0.7818608E-02  0.1004892E+00
          2   -1    0    0  501    0  0.00000000000E+00  0.00000000000E+00  0.19344367837E+04  0.19344367837E+04  0.25500000000E-02 0.  1.
         -2   -1    0    0    0  501 -0.00000000000E+00 -0.00000000000E+00 -0.37068673057E+02  0.37068673144E+02  0.25500000000E-02 0. -1.
    5000001    1    1    2    0    0 -0.16739809197E+03  0.74039796814E+02  0.11455151337E+04  0.11751820856E+04  0.18800000000E+03 0.  0.
   -5000001    1    1    2    0    0  0.16739809197E+03 -0.74039796814E+02  0.75185297698E+03  0.79632337132E+03  0.18800000000E+03 0.  0.
<mgrwt>
<rscale>  0 0.53556327E+03</rscale>
<asrwt>0</asrwt>
<pdfrwt beam="1">  1        2 0.27634816E+00 0.53556327E+03</pdfrwt>
<pdfrwt beam="2">  1       -2 0.52955238E-02 0.53556327E+03</pdfrwt>
<totfact> 0.16819843E+03</totfact>
</mgrwt>
</event>
<event>
 4    1  0.5886875E-005  0.4846533E+03  0.7818608E-02  0.1017864E+00
         -2   -1    0    0    0  501 -0.00000000000E+00  0.00000000000E+00  0.44736197639E+03  0.44736197640E+03  0.25500000000E-02 0. -1.
          2   -1    0    0  501    0  0.00000000000E+00 -0.00000000000E+00 -0.13126328738E+03  0.13126328740E+03  0.25500000000E-02 0.  1.
    5000001    1    1    2    0    0  0.11039288984E+03  0.10456194069E+03  0.17724152576E+03  0.29979717814E+03  0.18800000000E+03 0.  0.
   -5000001    1    1    2    0    0 -0.11039288984E+03 -0.10456194069E+03  0.13885716325E+03  0.27882808566E+03  0.18800000000E+03 0.  0.
<mgrwt>
<rscale>  0 0.48465329E+03</rscale>
<asrwt>0</asrwt>
<pdfrwt beam="1">  1        2 0.18751898E-01 0.48465329E+03</pdfrwt>
<pdfrwt beam="2">  1       -2 0.63908853E-01 0.48465329E+03</pdfrwt>
<totfact> 0.69822613E+02</totfact>
</mgrwt>
</event>
<event>
 4    1  0.5886875E-005  0.5818175E+03  0.7818608E-02  0.9943864E-01
         -2   -1    0    0    0  501 -0.00000000000E+00  0.00000000000E+00  0.17169866407E+03  0.17169866409E+03  0.25500000000E-02 0. -1.
          2   -1    0    0  501    0  0.00000000000E+00 -0.00000000000E+00 -0.49288625110E+03  0.49288625111E+03  0.25500000000E-02 0.  1.
    5000001    1    1    2    0    0  0.60951292109E+02  0.20179344565E+03 -0.24012845776E+03  0.37073080657E+03  0.18800000000E+03 0.  0.
   -5000001    1    1    2    0    0 -0.60951292109E+02 -0.20179344565E+03 -0.81059129275E+02  0.29385410862E+03  0.18800000000E+03 0.  0.
<mgrwt>
<rscale>  0 0.58181753E+03</rscale>
<asrwt>0</asrwt>
<pdfrwt beam="1">  1        2 0.70412321E-01 0.58181753E+03</pdfrwt>
<pdfrwt beam="2">  1       -2 0.24528381E-01 0.58181753E+03</pdfrwt>
<totfact> 0.10144568E+03</totfact>
</mgrwt>
</event>
<event>
 4    1  0.5886875E-005  0.6838875E+03  0.7818608E-02  0.9745190E-01
         -2   -1    0    0    0  501 -0.00000000000E+00  0.00000000000E+00  0.72020123891E+02  0.72020123936E+02  0.25500000000E-02 0. -1.
          2   -1    0    0  501    0  0.00000000000E+00 -0.00000000000E+00 -0.16235119818E+04  0.16235119818E+04  0.25500000000E-02 0.  1.
    5000001    1    1    2    0    0  0.28483352849E+03  0.13157684980E+02 -0.81710348888E+03  0.88561017111E+03  0.18800000000E+03 0.  0.
   -5000001    1    1    2    0    0 -0.28483352849E+03 -0.13157684980E+02 -0.73438836900E+03  0.80992193460E+03  0.18800000000E+03 0.  0.
<mgrwt>
<rscale>  0 0.68388752E+03</rscale>
<asrwt>0</asrwt>
<pdfrwt beam="1">  1        2 0.23193026E+00 0.68388752E+03</pdfrwt>
<pdfrwt beam="2">  1       -2 0.10288590E-01 0.68388752E+03</pdfrwt>
<totfact> 0.83643697E+02</totfact>
</mgrwt>
</event>
<event>
 4    1  0.5886875E-005  0.1709725E+04  0.7818608E-02  0.8755837E-01
         -2   -1    0    0    0  501 -0.00000000000E+00  0.00000000000E+00  0.69529873525E+03  0.69529873525E+03  0.25500000000E-02 0. -1.
          2   -1    0    0  501    0  0.00000000000E+00 -0.00000000000E+00 -0.10510447335E+04  0.10510447335E+04  0.25500000000E-02 0.  1.
    5000001    1    1    2    0    0  0.28613887175E+03 -0.35866715406E+03  0.53340962569E+03  0.72827701467E+03  0.18800000000E+03 0.  0.
   -5000001    1    1    2    0    0 -0.28613887175E+03  0.35866715406E+03 -0.88915562391E+03  0.10180664540E+04  0.18800000000E+03 0.  0.
<mgrwt>
<rscale>  0 0.17097252E+04</rscale>
<asrwt>0</asrwt>
<pdfrwt beam="1">  1        2 0.15014925E+00 0.17097252E+04</pdfrwt>
<pdfrwt beam="2">  1       -2 0.99328391E-01 0.17097252E+04</pdfrwt>
<totfact> 0.20918859E+01</totfact>
</mgrwt>
</event>
<event>
 4    1  0.5886875E-005  0.5105826E+03  0.7818608E-02  0.1011053E+00
         -2   -1    0    0    0  501 -0.00000000000E+00  0.00000000000E+00  0.28943262924E+02  0.28943263036E+02  0.25500000000E-02 0. -1.
          2   -1    0    0  501    0  0.00000000000E+00 -0.00000000000E+00 -0.22517723480E+04  0.22517723480E+04  0.25500000000E-02 0.  1.
    5000001    1    1    2    0    0  0.15729126334E+03 -0.24712881504E+02 -0.81248750514E+03  0.84901779372E+03  0.18800000000E+03 0.  0.
   -5000001    1    1    2    0    0 -0.15729126334E+03  0.24712881504E+02 -0.14103415799E+04  0.14316978173E+04  0.18800000000E+03 0.  0.
<mgrwt>
<rscale>  0 0.51058257E+03</rscale>
<asrwt>0</asrwt>
<pdfrwt beam="1">  1        2 0.32168165E+00 0.51058257E+03</pdfrwt>
<pdfrwt beam="2">  1       -2 0.41347533E-02 0.51058257E+03</pdfrwt>
<totfact> 0.17109966E+03</totfact>
</mgrwt>
</event>
<event>
 4    1  0.5886875E-005  0.5628188E+03  0.7818608E-02  0.9985697E-01
          2   -1    0    0  501    0  0.00000000000E+00  0.00000000000E+00  0.28885542220E+03  0.28885542221E+03  0.25500000000E-02 0.  1.
         -2   -1    0    0    0  501 -0.00000000000E+00 -0.00000000000E+00 -0.27415536642E+03  0.27415536643E+03  0.25500000000E-02 0. -1.
    5000001    1    1    2    0    0 -0.10848916218E+03 -0.12671449172E+03 -0.11926645016E+03  0.27819947314E+03  0.18800000000E+03 0.  0.
   -5000001    1    1    2    0    0  0.10848916218E+03  0.12671449172E+03  0.13396650595E+03  0.28481131550E+03  0.18800000000E+03 0.  0.
<mgrwt>
<rscale>  0 0.56281885E+03</rscale>
<asrwt>0</asrwt>
<pdfrwt beam="1">  1        2 0.41265060E-01 0.56281885E+03</pdfrwt>
<pdfrwt beam="2">  1       -2 0.39165052E-01 0.56281885E+03</pdfrwt>
<totfact> 0.77027052E+02</totfact>
</mgrwt>
</event>
<event>
 4    1  0.5886875E-005  0.5039891E+03  0.7818608E-02  0.1012743E+00
         -2   -1    0    0    0  501 -0.00000000000E+00  0.00000000000E+00  0.25111862454E+03  0.25111862455E+03  0.25500000000E-02 0. -1.
          2   -1    0    0  501    0  0.00000000000E+00 -0.00000000000E+00 -0.25287349016E+03  0.25287349017E+03  0.25500000000E-02 0.  1.
    5000001    1    1    2    0    0 -0.72706567429E+02  0.80204957211E+02 -0.12908960940E+03  0.25244248328E+03  0.18800000000E+03 0.  0.
   -5000001    1    1    2    0    0  0.72706567429E+02 -0.80204957211E+02  0.12733474377E+03  0.25154963145E+03  0.18800000000E+03 0.  0.
<mgrwt>
<rscale>  0 0.50398906E+03</rscale>
<asrwt>0</asrwt>
<pdfrwt beam="1">  1        2 0.36124784E-01 0.50398906E+03</pdfrwt>
<pdfrwt beam="2">  1       -2 0.35874089E-01 0.50398906E+03</pdfrwt>
<totfact> 0.10555391E+03</totfact>
</mgrwt>
</event>
<event>
 4    1  0.5886875E-005  0.8080895E+03  0.7818608E-02  0.9548381E-01
         -2   -1    0    0    0  501 -0.00000000000E+00  0.00000000000E+00  0.25056804408E+04  0.25056804408E+04  0.25500000000E-02 0. -1.
          2   -1    0    0  501    0  0.00000000000E+00 -0.00000000000E+00 -0.65152817578E+02  0.65152817628E+02  0.25500000000E-02 0.  1.
    5000001    1    1    2    0    0 -0.34099125857E+03  0.96144666917E+02  0.10647566845E+04  0.11377915594E+04  0.18800000000E+03 0.  0.
   -5000001    1    1    2    0    0  0.34099125857E+03 -0.96144666917E+02  0.13757709387E+04  0.14330416991E+04  0.18800000000E+03 0.  0.
<mgrwt>
<rscale>  0 0.80808945E+03</rscale>
<asrwt>0</asrwt>
<pdfrwt beam="1">  1        2 0.93075455E-02 0.80808945E+03</pdfrwt>
<pdfrwt beam="2">  1       -2 0.35795434E+00 0.80808945E+03</pdfrwt>
<totfact> 0.10596692E+01</totfact>
</mgrwt>
</event>
<event>
 4    1  0.5886875E-005  0.4689862E+03  0.7818608E-02  0.1022207E+00
         -2   -1    0    0    0  501 -0.00000000000E+00  0.00000000000E+00  0.71707663186E+03  0.71707663186E+03  0.25500000000E-02 0. -1.
          2   -1    0    0  501    0  0.00000000000E+00 -0.00000000000E+00 -0.76682194358E+02  0.76682194400E+02  0.25500000000E-02 0.  1.
    5000001    1    1    2    0    0  0.33396870230E+02 -0.13611408231E+03  0.31886957537E+03  0.39580828749E+03  0.18800000000E+03 0.  0.
   -5000001    1    1    2    0    0 -0.33396870230E+02  0.13611408231E+03  0.32152486213E+03  0.39795053878E+03  0.18800000000E+03 0.  0.
<mgrwt>
<rscale>  0 0.46898618E+03</rscale>
<asrwt>0</asrwt>
<pdfrwt beam="1">  1        2 0.10954599E-01 0.46898618E+03</pdfrwt>
<pdfrwt beam="2">  1       -2 0.10243952E+00 0.46898618E+03</pdfrwt>
<totfact> 0.46612674E+02</totfact>
</mgrwt>
</event>
<event>
 4    1  0.5886875E-005  0.4153268E+03  0.7818608E-02  0.1038598E+00
          2   -1    0    0  501    0  0.00000000000E+00  0.00000000000E+00  0.19514955954E+04  0.19514955954E+04  0.25500000000E-02 0.  1.
         -2   -1    0    0    0  501 -0.00000000000E+00 -0.00000000000E+00 -0.22097965032E+02  0.22097965179E+02  0.25500000000E-02 0. -1.
    5000001    1    1    2    0    0 -0.65251159810E+02  0.30221519135E+02  0.72197794383E+03  0.74951131109E+03  0.18800000000E+03 0.  0.
   -5000001    1    1    2    0    0  0.65251159810E+02 -0.30221519135E+02  0.12074196865E+04  0.12240822495E+04  0.18800000000E+03 0.  0.
<mgrwt>
<rscale>  0 0.41532677E+03</rscale>
<asrwt>0</asrwt>
<pdfrwt beam="1">  1        2 0.27878521E+00 0.41532677E+03</pdfrwt>
<pdfrwt beam="2">  1       -2 0.31568507E-02 0.41532677E+03</pdfrwt>
<totfact> 0.36530116E+03</totfact>
</mgrwt>
</event>
<event>
 4    1  0.5886875E-005  0.1031724E+04  0.7818608E-02  0.9274418E-01
          2   -1    0    0  501    0  0.00000000000E+00  0.00000000000E+00  0.92550481311E+03  0.92550481311E+03  0.25500000000E-02 0.  1.
         -2   -1    0    0    0  501 -0.00000000000E+00 -0.00000000000E+00 -0.28753366529E+03  0.28753366530E+03  0.25500000000E-02 0. -1.
    5000001    1    1    2    0    0  0.25320666418E+03  0.40821693193E+03  0.32355629164E+03  0.60892310857E+03  0.18800000000E+03 0.  0.
   -5000001    1    1    2    0    0 -0.25320666418E+03 -0.40821693193E+03  0.31441485618E+03  0.60411536985E+03  0.18800000000E+03 0.  0.
<mgrwt>
<rscale>  0 0.10317244E+04</rscale>
<asrwt>0</asrwt>
<pdfrwt beam="1">  1        2 0.13221498E+00 0.10317244E+04</pdfrwt>
<pdfrwt beam="2">  1       -2 0.41076237E-01 0.10317244E+04</pdfrwt>
<totfact> 0.17489637E+02</totfact>
</mgrwt>
</event>
<event>
 4    1  0.5886875E-005  0.9945230E+03  0.7818608E-02  0.9314572E-01
         -2   -1    0    0    0  501 -0.00000000000E+00  0.00000000000E+00  0.12599693299E+03  0.12599693301E+03  0.25500000000E-02 0. -1.
          2   -1    0    0  501    0  0.00000000000E+00 -0.00000000000E+00 -0.19625002806E+04  0.19625002806E+04  0.25500000000E-02 0.  1.
    5000001    1    1    2    0    0  0.95006102368E+02 -0.45025351280E+03 -0.89082026284E+03  0.10201270146E+04  0.18800000000E+03 0.  0.
   -5000001    1    1    2    0    0 -0.95006102368E+02  0.45025351280E+03 -0.94568308482E+03  0.10683701990E+04  0.18800000000E+03 0.  0.
<mgrwt>
<rscale>  0 0.99452303E+03</rscale>
<asrwt>0</asrwt>
<pdfrwt beam="1">  1        2 0.28035717E+00 0.99452303E+03</pdfrwt>
<pdfrwt beam="2">  1       -2 0.17999563E-01 0.99452303E+03</pdfrwt>
<totfact> 0.21554186E+02</totfact>
</mgrwt>
</event>
<event>
 4    1  0.5886875E-005  0.4140113E+03  0.7818608E-02  0.1039033E+00
         -2   -1    0    0    0  501 -0.00000000000E+00  0.00000000000E+00  0.89655896577E+02  0.89655896613E+02  0.25500000000E-02 0. -1.
          2   -1    0    0  501    0  0.00000000000E+00 -0.00000000000E+00 -0.47795343706E+03  0.47795343707E+03  0.25500000000E-02 0.  1.
    5000001    1    1    2    0    0  0.52246506593E+02  0.69086034338E+02 -0.19115561033E+03  0.28175706726E+03  0.18800000000E+03 0.  0.
   -5000001    1    1    2    0    0 -0.52246506593E+02 -0.69086034338E+02 -0.19714193015E+03  0.28585226642E+03  0.18800000000E+03 0.  0.
<mgrwt>
<rscale>  0 0.41401132E+03</rscale>
<asrwt>0</asrwt>
<pdfrwt beam="1">  1        2 0.68279061E-01 0.41401132E+03</pdfrwt>
<pdfrwt beam="2">  1       -2 0.12807986E-01 0.41401132E+03</pdfrwt>
<totfact> 0.31860695E+03</totfact>
</mgrwt>
</event>
<event>
 4    1  0.5886875E-005  0.2096635E+04  0.7818608E-02  0.8562727E-01
         -2   -1    0    0    0  501 -0.00000000000E+00  0.00000000000E+00  0.65445809938E+03  0.65445809938E+03  0.25500000000E-02 0. -1.
          2   -1    0    0  501    0  0.00000000000E+00 -0.00000000000E+00 -0.16792055466E+04  0.16792055466E+04  0.25500000000E-02 0.  1.
    5000001    1    1    2    0    0 -0.40240725346E+03  0.80809481986E+03 -0.10674249637E+04  0.14105633232E+04  0.18800000000E+03 0.  0.
   -5000001    1    1    2    0    0  0.40240725346E+03 -0.80809481986E+03  0.42677516512E+02  0.92310032279E+03  0.18800000000E+03 0.  0.
<mgrwt>
<rscale>  0 0.20966351E+04</rscale>
<asrwt>0</asrwt>
<pdfrwt beam="1">  1        2 0.23988651E+00 0.20966351E+04</pdfrwt>
<pdfrwt beam="2">  1       -2 0.93494015E-01 0.20966351E+04</pdfrwt>
<totfact> 0.10534780E+01</totfact>
</mgrwt>
</event>
<event>
 4    1  0.5886875E-005  0.8142655E+03  0.7818608E-02  0.9539595E-01
          2   -1    0    0  501    0  0.00000000000E+00  0.00000000000E+00  0.65501060316E+03  0.65501060316E+03  0.25500000000E-02 0.  1.
         -2   -1    0    0    0  501 -0.00000000000E+00 -0.00000000000E+00 -0.25306015725E+03  0.25306015726E+03  0.25500000000E-02 0. -1.
    5000001    1    1    2    0    0  0.11847643029E+03 -0.33248863148E+03  0.28610929699E+03  0.49171931467E+03  0.18800000000E+03 0.  0.
   -5000001    1    1    2    0    0 -0.11847643029E+03  0.33248863148E+03  0.11584114892E+03  0.41635144575E+03  0.18800000000E+03 0.  0.
<mgrwt>
<rscale>  0 0.81426552E+03</rscale>
<asrwt>0</asrwt>
<pdfrwt beam="1">  1        2 0.93572943E-01 0.81426552E+03</pdfrwt>
<pdfrwt beam="2">  1       -2 0.36151451E-01 0.81426552E+03</pdfrwt>
<totfact> 0.35279233E+02</totfact>
</mgrwt>
</event>
<event>
 4    1  0.5886875E-005  0.6703487E+03  0.7818608E-02  0.9769328E-01
          2   -1    0    0  501    0  0.00000000000E+00  0.00000000000E+00  0.40080446160E+03  0.40080446160E+03  0.25500000000E-02 0.  1.
         -2   -1    0    0    0  501 -0.00000000000E+00 -0.00000000000E+00 -0.28029089093E+03  0.28029089094E+03  0.25500000000E-02 0. -1.
    5000001    1    1    2    0    0  0.81275809787E+02 -0.21433758162E+03 -0.98619750602E+02  0.31243593161E+03  0.18800000000E+03 0.  0.
   -5000001    1    1    2    0    0 -0.81275809787E+02  0.21433758162E+03  0.21913332127E+03  0.36865942093E+03  0.18800000000E+03 0.  0.
<mgrwt>
<rscale>  0 0.67034868E+03</rscale>
<asrwt>0</asrwt>
<pdfrwt beam="1">  1        2 0.57257780E-01 0.67034868E+03</pdfrwt>
<pdfrwt beam="2">  1       -2 0.40041556E-01 0.67034868E+03</pdfrwt>
<totfact> 0.51267718E+02</totfact>
</mgrwt>
</event>
<event>
 4    1  0.5886875E-005  0.4585458E+03  0.7818608E-02  0.1025204E+00
          2   -1    0    0  501    0  0.00000000000E+00  0.00000000000E+00  0.87677804299E+03  0.87677804299E+03  0.25500000000E-02 0.  1.
         -2   -1    0    0    0  501 -0.00000000000E+00 -0.00000000000E+00 -0.59953672227E+02  0.59953672281E+02  0.25500000000E-02 0. -1.
    5000001    1    1    2    0    0 -0.12495344178E+03 -0.37877323957E+02  0.38146468140E+03  0.44486779770E+03  0.18800000000E+03 0.  0.
   -5000001    1    1    2    0    0  0.12495344178E+03  0.37877323957E+02  0.43535968937E+03  0.49186391757E+03  0.18800000000E+03 0.  0.
<mgrwt>
<rscale>  0 0.45854580E+03</rscale>
<asrwt>0</asrwt>
<pdfrwt beam="1">  1        2 0.12525401E+00 0.45854580E+03</pdfrwt>
<pdfrwt beam="2">  1       -2 0.85648100E-02 0.45854580E+03</pdfrwt>
<totfact> 0.29612751E+03</totfact>
</mgrwt>
</event>
<event>
 4    1  0.5886875E-005  0.8415699E+03  0.7818608E-02  0.9501722E-01
         -2   -1    0    0    0  501 -0.00000000000E+00  0.00000000000E+00  0.19762094007E+03  0.19762094009E+03  0.25500000000E-02 0. -1.
          2   -1    0    0  501    0  0.00000000000E+00 -0.00000000000E+00 -0.89595757701E+03  0.89595757701E+03  0.25500000000E-02 0.  1.
    5000001    1    1    2    0    0 -0.30981555442E+03  0.14374640496E+03 -0.14343089013E+03  0.41540958937E+03  0.18800000000E+03 0.  0.
   -5000001    1    1    2    0    0  0.30981555442E+03 -0.14374640496E+03 -0.55490574680E+03  0.67816892772E+03  0.18800000000E+03 0.  0.
<mgrwt>
<rscale>  0 0.84156991E+03</rscale>
<asrwt>0</asrwt>
<pdfrwt beam="1">  1        2 0.12799394E+00 0.84156991E+03</pdfrwt>
<pdfrwt beam="2">  1       -2 0.28231563E-01 0.84156991E+03</pdfrwt>
<totfact> 0.37602398E+02</totfact>
</mgrwt>
</event>
<event>
 4    1  0.5886875E-005  0.5086292E+03  0.7818608E-02  0.1011551E+00
         -2   -1    0    0    0  501 -0.00000000000E+00  0.00000000000E+00  0.15291336593E+03  0.15291336596E+03  0.25500000000E-02 0. -1.
          2   -1    0    0  501    0  0.00000000000E+00 -0.00000000000E+00 -0.42295793762E+03  0.42295793763E+03  0.25500000000E-02 0.  1.
    5000001    1    1    2    0    0  0.15624500972E+03  0.32525787055E+02 -0.20537837627E+03  0.32092788493E+03  0.18800000000E+03 0.  0.
   -5000001    1    1    2    0    0 -0.15624500972E+03 -0.32525787055E+02 -0.64666195414E+02  0.25494341865E+03  0.18800000000E+03 0.  0.
<mgrwt>
<rscale>  0 0.50862922E+03</rscale>
<asrwt>0</asrwt>
<pdfrwt beam="1">  1        2 0.60422562E-01 0.50862922E+03</pdfrwt>
<pdfrwt beam="2">  1       -2 0.21844767E-01 0.50862922E+03</pdfrwt>
<totfact> 0.14791998E+03</totfact>
</mgrwt>
</event>
<event>
 4    1  0.5886875E-005  0.7606750E+03  0.7818608E-02  0.9618750E-01
         -2   -1    0    0    0  501 -0.00000000000E+00  0.00000000000E+00  0.25296192390E+04  0.25296192390E+04  0.25500000000E-02 0. -1.
          2   -1    0    0  501    0  0.00000000000E+00 -0.00000000000E+00 -0.57185132659E+02  0.57185132716E+02  0.25500000000E-02 0.  1.
    5000001    1    1    2    0    0  0.13062246566E+03 -0.28087796618E+03  0.84317920268E+03  0.91774170018E+03  0.18800000000E+03 0.  0.
   -5000001    1    1    2    0    0 -0.13062246566E+03  0.28087796618E+03  0.16292549037E+04  0.16690626716E+04  0.18800000000E+03 0.  0.
<mgrwt>
<rscale>  0 0.76067499E+03</rscale>
<asrwt>0</asrwt>
<pdfrwt beam="1">  1        2 0.81693059E-02 0.76067499E+03</pdfrwt>
<pdfrwt beam="2">  1       -2 0.36137412E+00 0.76067499E+03</pdfrwt>
<totfact> 0.12005091E+01</totfact>
</mgrwt>
</event>
<event>
 4    1  0.5886875E-005  0.6606949E+03  0.7818608E-02  0.9786915E-01
         -2   -1    0    0    0  501 -0.00000000000E+00  0.00000000000E+00  0.16820562175E+03  0.16820562177E+03  0.25500000000E-02 0. -1.
          2   -1    0    0  501    0  0.00000000000E+00 -0.00000000000E+00 -0.64878582805E+03  0.64878582806E+03  0.25500000000E-02 0.  1.
    5000001    1    1    2    0    0 -0.11535623595E+03 -0.18034415597E+03 -0.33542126730E+02  0.28688002724E+03  0.18800000000E+03 0.  0.
   -5000001    1    1    2    0    0  0.11535623595E+03  0.18034415597E+03 -0.44703807957E+03  0.53011142258E+03  0.18800000000E+03 0.  0.
<mgrwt>
<rscale>  0 0.66069486E+03</rscale>
<asrwt>0</asrwt>
<pdfrwt beam="1">  1        2 0.92683689E-01 0.66069486E+03</pdfrwt>
<pdfrwt beam="2">  1       -2 0.24029375E-01 0.66069486E+03</pdfrwt>
<totfact> 0.76309564E+02</totfact>
</mgrwt>
</event>
<event>
 4    1  0.5886875E-005  0.5623683E+03  0.7818608E-02  0.9986710E-01
          2   -1    0    0  501    0  0.00000000000E+00  0.00000000000E+00  0.24327695615E+03  0.24327695617E+03  0.25500000000E-02 0.  1.
         -2   -1    0    0    0  501 -0.00000000000E+00 -0.00000000000E+00 -0.32499796913E+03  0.32499796914E+03  0.25500000000E-02 0. -1.
    5000001    1    1    2    0    0 -0.22489353121E+02 -0.20459597589E+03 -0.78060645730E+02  0.28948704421E+03  0.18800000000E+03 0.  0.
   -5000001    1    1    2    0    0  0.22489353121E+02  0.20459597589E+03 -0.36603672470E+01  0.27878788109E+03  0.18800000000E+03 0.  0.
<mgrwt>
<rscale>  0 0.56236827E+03</rscale>
<asrwt>0</asrwt>
<pdfrwt beam="1">  1        2 0.34753851E-01 0.56236827E+03</pdfrwt>
<pdfrwt beam="2">  1       -2 0.46428281E-01 0.56236827E+03</pdfrwt>
<totfact> 0.66710051E+02</totfact>
</mgrwt>
</event>
<event>
 4    1  0.5886875E-005  0.7091725E+03  0.7818608E-02  0.9701673E-01
         -2   -1    0    0    0  501 -0.00000000000E+00  0.00000000000E+00  0.15658549209E+03  0.15658549211E+03  0.25500000000E-02 0. -1.
          2   -1    0    0  501    0  0.00000000000E+00 -0.00000000000E+00 -0.80295698565E+03  0.80295698565E+03  0.25500000000E-02 0.  1.
    5000001    1    1    2    0    0  0.10190044579E+03 -0.23978164535E+03 -0.12019073877E+03  0.34302879178E+03  0.18800000000E+03 0.  0.
   -5000001    1    1    2    0    0 -0.10190044579E+03  0.23978164535E+03 -0.52618075479E+03  0.61651368599E+03  0.18800000000E+03 0.  0.
<mgrwt>
<rscale>  0 0.70917252E+03</rscale>
<asrwt>0</asrwt>
<pdfrwt beam="1">  1        2 0.11470814E+00 0.70917252E+03</pdfrwt>
<pdfrwt beam="2">  1       -2 0.22369356E-01 0.70917252E+03</pdfrwt>
<totfact> 0.66441559E+02</totfact>
</mgrwt>
</event>
<event>
 4    1  0.5886875E-005  0.6505291E+03  0.7818608E-02  0.9805787E-01
         -2   -1    0    0    0  501 -0.00000000000E+00  0.00000000000E+00  0.72581521309E+02  0.72581521354E+02  0.25500000000E-02 0. -1.
          2   -1    0    0  501    0  0.00000000000E+00 -0.00000000000E+00 -0.14576302381E+04  0.14576302381E+04  0.25500000000E-02 0.  1.
    5000001    1    1    2    0    0  0.75476503852E+02 -0.23541524031E+03 -0.46524246986E+03  0.55938501389E+03  0.18800000000E+03 0.  0.
   -5000001    1    1    2    0    0 -0.75476503852E+02  0.23541524031E+03 -0.91980624692E+03  0.97082674555E+03  0.18800000000E+03 0.  0.
<mgrwt>
<rscale>  0 0.65052908E+03</rscale>
<asrwt>0</asrwt>
<pdfrwt beam="1">  1        2 0.20823287E+00 0.65052908E+03</pdfrwt>
<pdfrwt beam="2">  1       -2 0.10368790E-01 0.65052908E+03</pdfrwt>
<totfact> 0.10089602E+03</totfact>
</mgrwt>
</event>
<event>
 4    1  0.5886875E-005  0.8511546E+03  0.7818608E-02  0.9488789E-01
          2   -1    0    0  501    0  0.00000000000E+00  0.00000000000E+00  0.36179398380E+03  0.36179398381E+03  0.25500000000E-02 0.  1.
         -2   -1    0    0    0  501 -0.00000000000E+00 -0.00000000000E+00 -0.50060549243E+03  0.50060549244E+03  0.25500000000E-02 0. -1.
    5000001    1    1    2    0    0 -0.37895424668E+03  0.26034359616E+02 -0.30322234742E+02  0.42490886891E+03  0.18800000000E+03 0.  0.
   -5000001    1    1    2    0    0  0.37895424668E+03 -0.26034359616E+02 -0.10848927388E+03  0.43749060734E+03  0.18800000000E+03 0.  0.
<mgrwt>
<rscale>  0 0.85115464E+03</rscale>
<asrwt>0</asrwt>
<pdfrwt beam="1">  1        2 0.51684855E-01 0.85115464E+03</pdfrwt>
<pdfrwt beam="2">  1       -2 0.71515070E-01 0.85115464E+03</pdfrwt>
<totfact> 0.17263535E+02</totfact>
</mgrwt>
</event>
<event>
 4    1  0.5886875E-005  0.6163260E+03  0.7818608E-02  0.9872102E-01
         -2   -1    0    0    0  501 -0.00000000000E+00  0.00000000000E+00  0.39466234577E+03  0.39466234577E+03  0.25500000000E-02 0. -1.
          2   -1    0    0  501    0  0.00000000000E+00 -0.00000000000E+00 -0.24062201138E+03  0.24062201140E+03  0.25500000000E-02 0.  1.
    5000001    1    1    2    0    0 -0.18591131829E+03 -0.14954943005E+03  0.23535757661E+02  0.30467356660E+03  0.18800000000E+03 0.  0.
   -5000001    1    1    2    0    0  0.18591131829E+03  0.14954943005E+03  0.13050457672E+03  0.33061079057E+03  0.18800000000E+03 0.  0.
<mgrwt>
<rscale>  0 0.61632604E+03</rscale>
<asrwt>0</asrwt>
<pdfrwt beam="1">  1        2 0.34374573E-01 0.61632604E+03</pdfrwt>
<pdfrwt beam="2">  1       -2 0.56380335E-01 0.61632604E+03</pdfrwt>
<totfact> 0.45445618E+02</totfact>
</mgrwt>
</event>
<event>
 4    1  0.5886875E-005  0.7278255E+03  0.7818608E-02  0.9670796E-01
          2   -1    0    0  501    0  0.00000000000E+00  0.00000000000E+00  0.35088040001E+04  0.35088040001E+04  0.25500000000E-02 0.  1.
         -2   -1    0    0    0  501 -0.00000000000E+00 -0.00000000000E+00 -0.37742912774E+02  0.37742912860E+02  0.25500000000E-02 0. -1.
    5000001    1    1    2    0    0 -0.75709956321E+02  0.25240316494E+03  0.25457807935E+04  0.25662780839E+04  0.18800000000E+03 0.  0.
   -5000001    1    1    2    0    0  0.75709956321E+02 -0.25240316494E+03  0.92528029378E+03  0.98026882905E+03  0.18800000000E+03 0.  0.
<mgrwt>
<rscale>  0 0.72782548E+03</rscale>
<asrwt>0</asrwt>
<pdfrwt beam="1">  1        2 0.50125785E+00 0.72782548E+03</pdfrwt>
<pdfrwt beam="2">  1       -2 0.53918432E-02 0.72782548E+03</pdfrwt>
<totfact> 0.23293137E+02</totfact>
</mgrwt>
</event>
<event>
 4    1  0.5886875E-005  0.5027670E+03  0.7818608E-02  0.1013059E+00
          2   -1    0    0  501    0  0.00000000000E+00  0.00000000000E+00  0.16679772955E+04  0.16679772955E+04  0.25500000000E-02 0.  1.
         -2   -1    0    0    0  501 -0.00000000000E+00 -0.00000000000E+00 -0.37886410882E+02  0.37886410968E+02  0.25500000000E-02 0. -1.
    5000001    1    1    2    0    0  0.15707838411E+03  0.26727721048E+02  0.64670299638E+03  0.69206701652E+03  0.18800000000E+03 0.  0.
   -5000001    1    1    2    0    0 -0.15707838411E+03 -0.26727721048E+02  0.98338788828E+03  0.10137966900E+04  0.18800000000E+03 0.  0.
<mgrwt>
<rscale>  0 0.50276704E+03</rscale>
<asrwt>0</asrwt>
<pdfrwt beam="1">  1        2 0.23828258E+00 0.50276704E+03</pdfrwt>
<pdfrwt beam="2">  1       -2 0.54123420E-02 0.50276704E+03</pdfrwt>
<totfact> 0.22162248E+03</totfact>
</mgrwt>
</event>
<event>
 4    1  0.5886875E-005  0.4469769E+03  0.7818608E-02  0.1028627E+00
         -2   -1    0    0    0  501 -0.00000000000E+00  0.00000000000E+00  0.28752770551E+02  0.28752770664E+02  0.25500000000E-02 0. -1.
          2   -1    0    0  501    0  0.00000000000E+00 -0.00000000000E+00 -0.17371227884E+04  0.17371227884E+04  0.25500000000E-02 0.  1.
    5000001    1    1    2    0    0 -0.95787189103E+02 -0.61580409308E+02 -0.10139695903E+04  0.10375189938E+04  0.18800000000E+03 0.  0.
   -5000001    1    1    2    0    0  0.95787189103E+02  0.61580409308E+02 -0.69440042749E+03  0.72835656522E+03  0.18800000000E+03 0.  0.
<mgrwt>
<rscale>  0 0.44697693E+03</rscale>
<asrwt>0</asrwt>
<pdfrwt beam="1">  1        2 0.24816033E+00 0.44697693E+03</pdfrwt>
<pdfrwt beam="2">  1       -2 0.41075398E-02 0.44697693E+03</pdfrwt>
<totfact> 0.31308312E+03</totfact>
</mgrwt>
</event>
<event>
 4    1  0.5886875E-005  0.8493331E+03  0.7818608E-02  0.9491232E-01
          2   -1    0    0  501    0  0.00000000000E+00  0.00000000000E+00  0.16987118494E+04  0.16987118494E+04  0.25500000000E-02 0.  1.
         -2   -1    0    0    0  501 -0.00000000000E+00 -0.00000000000E+00 -0.10616378175E+03  0.10616378178E+03  0.25500000000E-02 0. -1.
    5000001    1    1    2    0    0  0.11385448735E+03  0.35903871805E+03  0.67746055313E+03  0.79760168405E+03  0.18800000000E+03 0.  0.
   -5000001    1    1    2    0    0 -0.11385448735E+03 -0.35903871805E+03  0.91508751449E+03  0.10072739471E+04  0.18800000000E+03 0.  0.
<mgrwt>
<rscale>  0 0.84933309E+03</rscale>
<asrwt>0</asrwt>
<pdfrwt beam="1">  1        2 0.24267312E+00 0.84933309E+03</pdfrwt>
<pdfrwt beam="2">  1       -2 0.15166255E-01 0.84933309E+03</pdfrwt>
<totfact> 0.39808102E+02</totfact>
</mgrwt>
</event>
<event>
 4    1  0.5886875E-005  0.6890831E+03  0.7818608E-02  0.9736086E-01
          2   -1    0    0  501    0  0.00000000000E+00  0.00000000000E+00  0.32492470596E+04  0.32492470596E+04  0.25500000000E-02 0.  1.
         -2   -1    0    0    0  501 -0.00000000000E+00 -0.00000000000E+00 -0.36534270203E+02  0.36534270292E+02  0.25500000000E-02 0. -1.
    5000001    1    1    2    0    0  0.27018123501E+03  0.85984352178E+02  0.13463327454E+04  0.13886493690E+04  0.18800000000E+03 0.  0.
   -5000001    1    1    2    0    0 -0.27018123501E+03 -0.85984352178E+02  0.18663800440E+04  0.18971319610E+04  0.18800000000E+03 0.  0.
<mgrwt>
<rscale>  0 0.68908307E+03</rscale>
<asrwt>0</asrwt>
<pdfrwt beam="1">  1        2 0.46417798E+00 0.68908307E+03</pdfrwt>
<pdfrwt beam="2">  1       -2 0.52191834E-02 0.68908307E+03</pdfrwt>
<totfact> 0.34870706E+02</totfact>
</mgrwt>
</event>
<event>
 4    1  0.5886875E-005  0.5123883E+03  0.7818608E-02  0.1010595E+00
          2   -1    0    0  501    0  0.00000000000E+00  0.00000000000E+00  0.10727551965E+04  0.10727551965E+04  0.25500000000E-02 0.  1.
         -2   -1    0    0    0  501 -0.00000000000E+00 -0.00000000000E+00 -0.61183992744E+02  0.61183992798E+02  0.25500000000E-02 0. -1.
    5000001    1    1    2    0    0 -0.24261605164E+02  0.14843503352E+03  0.69959922935E+03  0.73986800604E+03  0.18800000000E+03 0.  0.
   -5000001    1    1    2    0    0  0.24261605164E+02 -0.14843503352E+03  0.31197197443E+03  0.39407118328E+03  0.18800000000E+03 0.  0.
<mgrwt>
<rscale>  0 0.51238831E+03</rscale>
<asrwt>0</asrwt>
<pdfrwt beam="1">  1        2 0.15325074E+00 0.51238831E+03</pdfrwt>
<pdfrwt beam="2">  1       -2 0.87405704E-02 0.51238831E+03</pdfrwt>
<totfact> 0.21733073E+03</totfact>
</mgrwt>
</event>
<event>
 4    1  0.5886875E-005  0.4797584E+03  0.7818608E-02  0.1019202E+00
          2   -1    0    0  501    0  0.00000000000E+00  0.00000000000E+00  0.57110263024E+03  0.57110263025E+03  0.25500000000E-02 0.  1.
         -2   -1    0    0    0  501 -0.00000000000E+00 -0.00000000000E+00 -0.10075604246E+03  0.10075604249E+03  0.25500000000E-02 0. -1.
    5000001    1    1    2    0    0 -0.52083191907E+02 -0.12437450314E+03  0.14642257364E+03  0.27379781953E+03  0.18800000000E+03 0.  0.
   -5000001    1    1    2    0    0  0.52083191907E+02  0.12437450314E+03  0.32392401415E+03  0.39806085321E+03  0.18800000000E+03 0.  0.
<mgrwt>
<rscale>  0 0.47975844E+03</rscale>
<asrwt>0</asrwt>
<pdfrwt beam="1">  1        2 0.81586091E-01 0.47975844E+03</pdfrwt>
<pdfrwt beam="2">  1       -2 0.14393720E-01 0.47975844E+03</pdfrwt>
<totfact> 0.21492777E+03</totfact>
</mgrwt>
</event>
<event>
 4    1  0.5886875E-005  0.7020799E+03  0.7818608E-02  0.9713682E-01
         -2   -1    0    0    0  501 -0.00000000000E+00  0.00000000000E+00  0.55379018355E+02  0.55379018414E+02  0.25500000000E-02 0. -1.
          2   -1    0    0  501    0  0.00000000000E+00 -0.00000000000E+00 -0.22251934788E+04  0.22251934788E+04  0.25500000000E-02 0.  1.
    5000001    1    1    2    0    0  0.28054514706E+03  0.28309528927E+02 -0.13822299582E+04  0.14231692332E+04  0.18800000000E+03 0.  0.
   -5000001    1    1    2    0    0 -0.28054514706E+03 -0.28309528927E+02 -0.78758450218E+03  0.85740326395E+03  0.18800000000E+03 0.  0.
<mgrwt>
<rscale>  0 0.70207985E+03</rscale>
<asrwt>0</asrwt>
<pdfrwt beam="1">  1        2 0.31788473E+00 0.70207985E+03</pdfrwt>
<pdfrwt beam="2">  1       -2 0.79112897E-02 0.70207985E+03</pdfrwt>
<totfact> 0.63232780E+02</totfact>
</mgrwt>
</event>
<event>
 4    1  0.5886875E-005  0.6650695E+03  0.7818608E-02  0.9778906E-01
          2   -1    0    0  501    0  0.00000000000E+00  0.00000000000E+00  0.30933103558E+03  0.30933103559E+03  0.25500000000E-02 0.  1.
         -2   -1    0    0    0  501 -0.00000000000E+00 -0.00000000000E+00 -0.35747898305E+03  0.35747898306E+03  0.25500000000E-02 0. -1.
    5000001    1    1    2    0    0  0.12846240355E+03 -0.30246300471E+02 -0.26515683309E+03  0.35081273345E+03  0.18800000000E+03 0.  0.
   -5000001    1    1    2    0    0 -0.12846240355E+03  0.30246300471E+02  0.21700888562E+03  0.31599728520E+03  0.18800000000E+03 0.  0.
<mgrwt>
<rscale>  0 0.66506945E+03</rscale>
<asrwt>0</asrwt>
<pdfrwt beam="1">  1        2 0.44190149E-01 0.66506945E+03</pdfrwt>
<pdfrwt beam="2">  1       -2 0.51068425E-01 0.66506945E+03</pdfrwt>
<totfact> 0.42115819E+02</totfact>
</mgrwt>
</event>
<event>
 4    1  0.5886875E-005  0.5479372E+03  0.7818608E-02  0.1001973E+00
          2   -1    0    0  501    0  0.00000000000E+00  0.00000000000E+00  0.27329726115E+04  0.27329726115E+04  0.25500000000E-02 0.  1.
         -2   -1    0    0    0  501 -0.00000000000E+00 -0.00000000000E+00 -0.27464155013E+02  0.27464155132E+02  0.25500000000E-02 0. -1.
    5000001    1    1    2    0    0  0.10511941528E+03 -0.16725143319E+03  0.12202620278E+04  0.12503625673E+04  0.18800000000E+03 0.  0.
   -5000001    1    1    2    0    0 -0.10511941528E+03  0.16725143319E+03  0.14852464287E+04  0.15100741993E+04  0.18800000000E+03 0.  0.
<mgrwt>
<rscale>  0 0.54793716E+03</rscale>
<asrwt>0</asrwt>
<pdfrwt beam="1">  1        2 0.39042434E+00 0.54793716E+03</pdfrwt>
<pdfrwt beam="2">  1       -2 0.39234540E-02 0.54793716E+03</pdfrwt>
<totfact> 0.10494137E+03</totfact>
</mgrwt>
</event>
<event>
 4    1  0.5886875E-005  0.6437062E+03  0.7818608E-02  0.9818661E-01
          2   -1    0    0  501    0  0.00000000000E+00  0.00000000000E+00  0.21716284625E+04  0.21716284625E+04  0.25500000000E-02 0.  1.
         -2   -1    0    0    0  501 -0.00000000000E+00 -0.00000000000E+00 -0.47701257329E+02  0.47701257397E+02  0.25500000000E-02 0. -1.
    5000001    1    1    2    0    0 -0.18130160747E+03 -0.44838877434E+02  0.16917266678E+04  0.17123562470E+04  0.18800000000E+03 0.  0.
   -5000001    1    1    2    0    0  0.18130160747E+03  0.44838877434E+02  0.43220053734E+03  0.50697347295E+03  0.18800000000E+03 0.  0.
<mgrwt>
<rscale>  0 0.64370617E+03</rscale>
<asrwt>0</asrwt>
<pdfrwt beam="1">  1        2 0.31023261E+00 0.64370617E+03</pdfrwt>
<pdfrwt beam="2">  1       -2 0.68144659E-02 0.64370617E+03</pdfrwt>
<totfact> 0.85643447E+02</totfact>
</mgrwt>
</event>
<event>
 4    1  0.5886875E-005  0.4880301E+03  0.7818608E-02  0.1016951E+00
          2   -1    0    0  501    0  0.00000000000E+00  0.00000000000E+00  0.90359471038E+03  0.90359471039E+03  0.25500000000E-02 0.  1.
         -2   -1    0    0    0  501 -0.00000000000E+00 -0.00000000000E+00 -0.65896069518E+02  0.65896069567E+02  0.25500000000E-02 0. -1.
    5000001    1    1    2    0    0 -0.13242554423E+03 -0.76547637946E+02  0.36254664775E+03  0.43609647721E+03  0.18800000000E+03 0.  0.
   -5000001    1    1    2    0    0  0.13242554423E+03  0.76547637946E+02  0.47515199311E+03  0.53339430274E+03  0.18800000000E+03 0.  0.
<mgrwt>
<rscale>  0 0.48803008E+03</rscale>
<asrwt>0</asrwt>
<pdfrwt beam="1">  1        2 0.12908496E+00 0.48803008E+03</pdfrwt>
<pdfrwt beam="2">  1       -2 0.94137238E-02 0.48803008E+03</pdfrwt>
<totfact> 0.24475096E+03</totfact>
</mgrwt>
</event>
<event>
 4    1  0.5886875E-005  0.5569817E+03  0.7818608E-02  0.9998907E-01
          2   -1    0    0  501    0  0.00000000000E+00  0.00000000000E+00  0.50194381010E+03  0.50194381010E+03  0.25500000000E-02 0.  1.
         -2   -1    0    0    0  501 -0.00000000000E+00 -0.00000000000E+00 -0.15451362042E+03  0.15451362044E+03  0.25500000000E-02 0. -1.
    5000001    1    1    2    0    0 -0.12676564592E+03 -0.27346833707E+02 -0.14106874536E+02  0.22882391092E+03  0.18800000000E+03 0.  0.
   -5000001    1    1    2    0    0  0.12676564592E+03  0.27346833707E+02  0.36153706421E+03  0.42763351962E+03  0.18800000000E+03 0.  0.
<mgrwt>
<rscale>  0 0.55698171E+03</rscale>
<asrwt>0</asrwt>
<pdfrwt beam="1">  1        2 0.71706259E-01 0.55698171E+03</pdfrwt>
<pdfrwt beam="2">  1       -2 0.22073374E-01 0.55698171E+03</pdfrwt>
<totfact> 0.11985100E+03</totfact>
</mgrwt>
</event>
<event>
 4    1  0.5886875E-005  0.4785452E+03  0.7818608E-02  0.1019536E+00
          2   -1    0    0  501    0  0.00000000000E+00  0.00000000000E+00  0.67907895107E+03  0.67907895108E+03  0.25500000000E-02 0.  1.
         -2   -1    0    0    0  501 -0.00000000000E+00 -0.00000000000E+00 -0.84307385120E+02  0.84307385158E+02  0.25500000000E-02 0. -1.
    5000001    1    1    2    0    0 -0.54833321940E+02 -0.12490653454E+03  0.20576058822E+03  0.31030590589E+03  0.18800000000E+03 0.  0.
   -5000001    1    1    2    0    0  0.54833321940E+02  0.12490653454E+03  0.38901097774E+03  0.45308043035E+03  0.18800000000E+03 0.  0.
<mgrwt>
<rscale>  0 0.47854517E+03</rscale>
<asrwt>0</asrwt>
<pdfrwt beam="1">  1        2 0.97011280E-01 0.47854517E+03</pdfrwt>
<pdfrwt beam="2">  1       -2 0.12043912E-01 0.47854517E+03</pdfrwt>
<totfact> 0.23530198E+03</totfact>
</mgrwt>
</event>
<event>
 4    1  0.5886875E-005  0.4793637E+03  0.7818608E-02  0.1019310E+00
          2   -1    0    0  501    0  0.00000000000E+00  0.00000000000E+00  0.55228712075E+02  0.55228712134E+02  0.25500000000E-02 0.  1.
         -2   -1    0    0    0  501 -0.00000000000E+00 -0.00000000000E+00 -0.10401724345E+04  0.10401724345E+04  0.25500000000E-02 0. -1.
    5000001    1    1    2    0    0 -0.12167286299E+03 -0.73358414070E+02 -0.39240465645E+03  0.45772388719E+03  0.18800000000E+03 0.  0.
   -5000001    1    1    2    0    0  0.12167286299E+03  0.73358414070E+02 -0.59253906594E+03  0.63767725941E+03  0.18800000000E+03 0.  0.
<mgrwt>
<rscale>  0 0.47936368E+03</rscale>
<asrwt>0</asrwt>
<pdfrwt beam="1">  1        2 0.78898166E-02 0.47936368E+03</pdfrwt>
<pdfrwt beam="2">  1       -2 0.14859605E+00 0.47936368E+03</pdfrwt>
<totfact> 0.28163624E+02</totfact>
</mgrwt>
</event>
<event>
 4    1  0.5886875E-005  0.6024808E+03  0.7818608E-02  0.9900273E-01
         -2   -1    0    0    0  501 -0.00000000000E+00  0.00000000000E+00  0.10131277580E+03  0.10131277584E+03  0.25500000000E-02 0. -1.
          2   -1    0    0  501    0  0.00000000000E+00 -0.00000000000E+00 -0.89569912338E+03  0.89569912338E+03  0.25500000000E-02 0.  1.
    5000001    1    1    2    0    0 -0.21531143644E+03 -0.83411314391E+02 -0.47276182873E+03  0.55871657281E+03  0.18800000000E+03 0.  0.
   -5000001    1    1    2    0    0  0.21531143644E+03  0.83411314391E+02 -0.32162451884E+03  0.43829532641E+03  0.18800000000E+03 0.  0.
<mgrwt>
<rscale>  0 0.60248075E+03</rscale>
<asrwt>0</asrwt>
<pdfrwt beam="1">  1        2 0.12795701E+00 0.60248075E+03</pdfrwt>
<pdfrwt beam="2">  1       -2 0.14473254E-01 0.60248075E+03</pdfrwt>
<totfact> 0.12221252E+03</totfact>
</mgrwt>
</event>
<event>
 4    1  0.5886875E-005  0.4817636E+03  0.7818608E-02  0.1018652E+00
          2   -1    0    0  501    0  0.00000000000E+00  0.00000000000E+00  0.12562573786E+04  0.12562573786E+04  0.25500000000E-02 0.  1.
         -2   -1    0    0    0  501 -0.00000000000E+00 -0.00000000000E+00 -0.46188016603E+02  0.46188016673E+02  0.25500000000E-02 0. -1.
    5000001    1    1    2    0    0 -0.14990799721E+03  0.77149654798E+01  0.57213320458E+03  0.62065476080E+03  0.18800000000E+03 0.  0.
   -5000001    1    1    2    0    0  0.14990799721E+03 -0.77149654798E+01  0.63793615745E+03  0.68179063451E+03  0.18800000000E+03 0.  0.
<mgrwt>
<rscale>  0 0.48176358E+03</rscale>
<asrwt>0</asrwt>
<pdfrwt beam="1">  1        2 0.17946532E+00 0.48176358E+03</pdfrwt>
<pdfrwt beam="2">  1       -2 0.65982886E-02 0.48176358E+03</pdfrwt>
<totfact> 0.26720736E+03</totfact>
</mgrwt>
</event>
<event>
 4    1  0.5886875E-005  0.5861290E+03  0.7818608E-02  0.9934609E-01
         -2   -1    0    0    0  501 -0.00000000000E+00  0.00000000000E+00  0.13624821680E+03  0.13624821682E+03  0.25500000000E-02 0. -1.
          2   -1    0    0  501    0  0.00000000000E+00 -0.00000000000E+00 -0.63037007822E+03  0.63037007822E+03  0.25500000000E-02 0.  1.
    5000001    1    1    2    0    0  0.17941897202E+03  0.10029748168E+03 -0.12795953643E+03  0.30654264844E+03  0.18800000000E+03 0.  0.
   -5000001    1    1    2    0    0 -0.17941897202E+03 -0.10029748168E+03 -0.36616232499E+03  0.46007564660E+03  0.18800000000E+03 0.  0.
<mgrwt>
<rscale>  0 0.58612899E+03</rscale>
<asrwt>0</asrwt>
<pdfrwt beam="1">  1        2 0.90052867E-01 0.58612899E+03</pdfrwt>
<pdfrwt beam="2">  1       -2 0.19464031E-01 0.58612899E+03</pdfrwt>
<totfact> 0.11461712E+03</totfact>
</mgrwt>
</event>
<event>
 4    1  0.5886875E-005  0.4249662E+03  0.7818608E-02  0.1035462E+00
         -2   -1    0    0    0  501 -0.00000000000E+00  0.00000000000E+00  0.18287805927E+02  0.18287806105E+02  0.25500000000E-02 0. -1.
          2   -1    0    0  501    0  0.00000000000E+00 -0.00000000000E+00 -0.24688077671E+04  0.24688077671E+04  0.25500000000E-02 0.  1.
    5000001    1    1    2    0    0  0.41141386946E+02  0.36177577061E+02 -0.74252483813E+03  0.76791182178E+03  0.18800000000E+03 0.  0.
   -5000001    1    1    2    0    0 -0.41141386946E+02 -0.36177577061E+02 -0.17079951230E+04  0.17191837514E+04  0.18800000000E+03 0.  0.
<mgrwt>
<rscale>  0 0.42496625E+03</rscale>
<asrwt>0</asrwt>
<pdfrwt beam="1">  1        2 0.35268661E+00 0.42496625E+03</pdfrwt>
<pdfrwt beam="2">  1       -2 0.26125453E-02 0.42496625E+03</pdfrwt>
<totfact> 0.26804714E+03</totfact>
</mgrwt>
</event>
<event>
 4    1  0.5886875E-005  0.7177054E+03  0.7818608E-02  0.9687424E-01
          2   -1    0    0  501    0  0.00000000000E+00  0.00000000000E+00  0.68188202192E+03  0.68188202193E+03  0.25500000000E-02 0.  1.
         -2   -1    0    0    0  501 -0.00000000000E+00 -0.00000000000E+00 -0.18885270761E+03  0.18885270763E+03  0.25500000000E-02 0. -1.
    5000001    1    1    2    0    0  0.48589467360E+02 -0.30104017645E+03  0.27211164728E+03  0.44986094825E+03  0.18800000000E+03 0.  0.
   -5000001    1    1    2    0    0 -0.48589467360E+02  0.30104017645E+03  0.22091766703E+03  0.42087378130E+03  0.18800000000E+03 0.  0.
<mgrwt>
<rscale>  0 0.71770542E+03</rscale>
<asrwt>0</asrwt>
<pdfrwt beam="1">  1        2 0.97411717E-01 0.71770542E+03</pdfrwt>
<pdfrwt beam="2">  1       -2 0.26978958E-01 0.71770542E+03</pdfrwt>
<totfact> 0.58212716E+02</totfact>
</mgrwt>
</event>
<event>
 4    1  0.5886875E-005  0.4579854E+03  0.7818608E-02  0.1025367E+00
          2   -1    0    0  501    0  0.00000000000E+00  0.00000000000E+00  0.14867653617E+04  0.14867653617E+04  0.25500000000E-02 0.  1.
         -2   -1    0    0    0  501 -0.00000000000E+00 -0.00000000000E+00 -0.35269624222E+02  0.35269624315E+02  0.25500000000E-02 0. -1.
    5000001    1    1    2    0    0  0.24666750646E+02  0.98729291484E+02  0.99853880728E+03  0.10211658392E+04  0.18800000000E+03 0.  0.
   -5000001    1    1    2    0    0 -0.24666750646E+02 -0.98729291484E+02  0.45295693025E+03  0.50086914683E+03  0.18800000000E+03 0.  0.
<mgrwt>
<rscale>  0 0.45798540E+03</rscale>
<asrwt>0</asrwt>
<pdfrwt beam="1">  1        2 0.21239501E+00 0.45798540E+03</pdfrwt>
<pdfrwt beam="2">  1       -2 0.50385186E-02 0.45798540E+03</pdfrwt>
<totfact> 0.30670381E+03</totfact>
</mgrwt>
</event>
<event>
 4    1  0.5886875E-005  0.5184358E+03  0.7818608E-02  0.1009076E+00
          2   -1    0    0  501    0  0.00000000000E+00  0.00000000000E+00  0.74356541571E+03  0.74356541571E+03  0.25500000000E-02 0.  1.
         -2   -1    0    0    0  501 -0.00000000000E+00 -0.00000000000E+00 -0.90367205076E+02  0.90367205112E+02  0.25500000000E-02 0. -1.
    5000001    1    1    2    0    0 -0.13544007486E+03 -0.11517914694E+03  0.30169616480E+03  0.39746047051E+03  0.18800000000E+03 0.  0.
   -5000001    1    1    2    0    0  0.13544007486E+03  0.11517914694E+03  0.35150204584E+03  0.43647215031E+03  0.18800000000E+03 0.  0.
<mgrwt>
<rscale>  0 0.51843583E+03</rscale>
<asrwt>0</asrwt>
<pdfrwt beam="1">  1        2 0.10622362E+00 0.51843583E+03</pdfrwt>
<pdfrwt beam="2">  1       -2 0.12909601E-01 0.51843583E+03</pdfrwt>
<totfact> 0.18793874E+03</totfact>
</mgrwt>
</event>
<event>
 4    1  0.5886875E-005  0.1284269E+04  0.7818608E-02  0.9042134E-01
          2   -1    0    0  501    0  0.00000000000E+00  0.00000000000E+00  0.12332467935E+04  0.12332467935E+04  0.25500000000E-02 0.  1.
         -2   -1    0    0    0  501 -0.00000000000E+00 -0.00000000000E+00 -0.33435033749E+03  0.33435033750E+03  0.25500000000E-02 0. -1.
    5000001    1    1    2    0    0 -0.58029715480E+03 -0.19251508171E+03  0.38055496870E+03  0.74429357699E+03  0.18800000000E+03 0.  0.
   -5000001    1    1    2    0    0  0.58029715480E+03  0.19251508171E+03  0.51834148726E+03  0.82330355396E+03  0.18800000000E+03 0.  0.
<mgrwt>
<rscale>  0 0.12842686E+04</rscale>
<asrwt>0</asrwt>
<pdfrwt beam="1">  1        2 0.17617812E+00 0.12842686E+04</pdfrwt>
<pdfrwt beam="2">  1       -2 0.47764333E-01 0.12842686E+04</pdfrwt>
<totfact> 0.83401303E+01</totfact>
</mgrwt>
</event>
<event>
 4    1  0.5886875E-005  0.8162190E+03  0.7818608E-02  0.9536833E-01
          2   -1    0    0  501    0  0.00000000000E+00  0.00000000000E+00  0.41938919508E+04  0.41938919508E+04  0.25500000000E-02 0.  1.
         -2   -1    0    0    0  501 -0.00000000000E+00 -0.00000000000E+00 -0.39713313213E+02  0.39713313295E+02  0.25500000000E-02 0. -1.
    5000001    1    1    2    0    0  0.18678620216E+03  0.30533843958E+03  0.23653539280E+04  0.23996591117E+04  0.18800000000E+03 0.  0.
   -5000001    1    1    2    0    0 -0.18678620216E+03 -0.30533843958E+03  0.17888247097E+04  0.18339461524E+04  0.18800000000E+03 0.  0.
<mgrwt>
<rscale>  0 0.81621895E+03</rscale>
<asrwt>0</asrwt>
<pdfrwt beam="1">  1        2 0.59912750E+00 0.81621895E+03</pdfrwt>
<pdfrwt beam="2">  1       -2 0.56733297E-02 0.81621895E+03</pdfrwt>
<totfact> 0.76414918E+01</totfact>
</mgrwt>
</event>
<event>
 4    1  0.5886875E-005  0.4020596E+03  0.7818608E-02  0.1043069E+00
          2   -1    0    0  501    0  0.00000000000E+00  0.00000000000E+00  0.15559363089E+04  0.15559363089E+04  0.25500000000E-02 0.  1.
         -2   -1    0    0    0  501 -0.00000000000E+00 -0.00000000000E+00 -0.25973413292E+02  0.25973413417E+02  0.25500000000E-02 0. -1.
    5000001    1    1    2    0    0 -0.63438094157E+02  0.61943928972E+01  0.64017512480E+03  0.67024693412E+03  0.18800000000E+03 0.  0.
   -5000001    1    1    2    0    0  0.63438094157E+02 -0.61943928972E+01  0.88978777078E+03  0.91166278816E+03  0.18800000000E+03 0.  0.
<mgrwt>
<rscale>  0 0.40205958E+03</rscale>
<asrwt>0</asrwt>
<pdfrwt beam="1">  1        2 0.22227674E+00 0.40205958E+03</pdfrwt>
<pdfrwt beam="2">  1       -2 0.37104856E-02 0.40205958E+03</pdfrwt>
<totfact> 0.45125725E+03</totfact>
</mgrwt>
</event>
<event>
 4    1  0.5886875E-005  0.7522990E+03  0.7818608E-02  0.9631750E-01
          2   -1    0    0  501    0  0.00000000000E+00  0.00000000000E+00  0.28049583145E+03  0.28049583146E+03  0.25500000000E-02 0.  1.
         -2   -1    0    0    0  501 -0.00000000000E+00 -0.00000000000E+00 -0.50442266179E+03  0.50442266179E+03  0.25500000000E-02 0. -1.
    5000001    1    1    2    0    0 -0.24153838391E+03 -0.21132835359E+03 -0.53460885861E+02  0.37576925133E+03  0.18800000000E+03 0.  0.
   -5000001    1    1    2    0    0  0.24153838391E+03  0.21132835359E+03 -0.17046594448E+03  0.40914924191E+03  0.18800000000E+03 0.  0.
<mgrwt>
<rscale>  0 0.75229902E+03</rscale>
<asrwt>0</asrwt>
<pdfrwt beam="1">  1        2 0.40070833E-01 0.75229902E+03</pdfrwt>
<pdfrwt beam="2">  1       -2 0.72060380E-01 0.75229902E+03</pdfrwt>
<totfact> 0.22611913E+02</totfact>
</mgrwt>
</event>
<event>
 4    1  0.5886875E-005  0.7175490E+03  0.7818608E-02  0.9687683E-01
         -2   -1    0    0    0  501 -0.00000000000E+00  0.00000000000E+00  0.25013339272E+03  0.25013339273E+03  0.25500000000E-02 0. -1.
          2   -1    0    0  501    0  0.00000000000E+00 -0.00000000000E+00 -0.51460202985E+03  0.51460202986E+03  0.25500000000E-02 0.  1.
    5000001    1    1    2    0    0  0.28589170253E+03 -0.10599086990E+03 -0.15373579748E+03  0.38980357298E+03  0.18800000000E+03 0.  0.
   -5000001    1    1    2    0    0 -0.28589170253E+03  0.10599086990E+03 -0.11073283965E+03  0.37493184962E+03  0.18800000000E+03 0.  0.
<mgrwt>
<rscale>  0 0.71754903E+03</rscale>
<asrwt>0</asrwt>
<pdfrwt beam="1">  1        2 0.73514576E-01 0.71754903E+03</pdfrwt>
<pdfrwt beam="2">  1       -2 0.35733342E-01 0.71754903E+03</pdfrwt>
<totfact> 0.48080155E+02</totfact>
</mgrwt>
</event>
<event>
 4    1  0.5886875E-005  0.4801127E+03  0.7818608E-02  0.1019104E+00
         -2   -1    0    0    0  501 -0.00000000000E+00  0.00000000000E+00  0.22889014313E+02  0.22889014455E+02  0.25500000000E-02 0. -1.
          2   -1    0    0  501    0  0.00000000000E+00 -0.00000000000E+00 -0.25176730720E+04  0.25176730720E+04  0.25500000000E-02 0.  1.
    5000001    1    1    2    0    0 -0.96712292615E+02 -0.76066756135E+02 -0.80014623062E+03  0.83109410376E+03  0.18800000000E+03 0.  0.
   -5000001    1    1    2    0    0  0.96712292615E+02  0.76066756135E+02 -0.16946378270E+04  0.17094679827E+04  0.18800000000E+03 0.  0.
<mgrwt>
<rscale>  0 0.48011272E+03</rscale>
<asrwt>0</asrwt>
<pdfrwt beam="1">  1        2 0.35966740E+00 0.48011272E+03</pdfrwt>
<pdfrwt beam="2">  1       -2 0.32698608E-02 0.48011272E+03</pdfrwt>
<totfact> 0.17986690E+03</totfact>
</mgrwt>
</event>
<event>
 4    1  0.5886875E-005  0.7524070E+03  0.7818608E-02  0.9631582E-01
         -2   -1    0    0    0  501 -0.00000000000E+00  0.00000000000E+00  0.11974801647E+03  0.11974801650E+03  0.25500000000E-02 0. -1.
          2   -1    0    0  501    0  0.00000000000E+00 -0.00000000000E+00 -0.11818907024E+04  0.11818907024E+04  0.25500000000E-02 0.  1.
    5000001    1    1    2    0    0  0.31081009210E+03  0.23471279259E+02 -0.69547506506E+03  0.78497349026E+03  0.18800000000E+03 0.  0.
   -5000001    1    1    2    0    0 -0.31081009210E+03 -0.23471279259E+02 -0.36666762091E+03  0.51666522867E+03  0.18800000000E+03 0.  0.
<mgrwt>
<rscale>  0 0.75240698E+03</rscale>
<asrwt>0</asrwt>
<pdfrwt beam="1">  1        2 0.16884152E+00 0.75240698E+03</pdfrwt>
<pdfrwt beam="2">  1       -2 0.17106860E-01 0.75240698E+03</pdfrwt>
<totfact> 0.61580756E+02</totfact>
</mgrwt>
</event>
<event>
 4    1  0.5886875E-005  0.5765602E+03  0.7818608E-02  0.9955266E-01
          2   -1    0    0  501    0  0.00000000000E+00  0.00000000000E+00  0.17244610100E+04  0.17244610100E+04  0.25500000000E-02 0.  1.
         -2   -1    0    0    0  501 -0.00000000000E+00 -0.00000000000E+00 -0.48192105066E+02  0.48192105133E+02  0.25500000000E-02 0. -1.
    5000001    1    1    2    0    0  0.15862977460E+03  0.29345648473E+02  0.38484327516E+03  0.45768211557E+03  0.18800000000E+03 0.  0.
   -5000001    1    1    2    0    0 -0.15862977460E+03 -0.29345648473E+02  0.12914256298E+04  0.13149709996E+04  0.18800000000E+03 0.  0.
<mgrwt>
<rscale>  0 0.57656017E+03</rscale>
<asrwt>0</asrwt>
<pdfrwt beam="1">  1        2 0.24635161E+00 0.57656017E+03</pdfrwt>
<pdfrwt beam="2">  1       -2 0.68845853E-02 0.57656017E+03</pdfrwt>
<totfact> 0.14205440E+03</totfact>
</mgrwt>
</event>
<event>
 4    1  0.5886875E-005  0.5591552E+03  0.7818608E-02  0.9993968E-01
          2   -1    0    0  501    0  0.00000000000E+00  0.00000000000E+00  0.14337823681E+04  0.14337823681E+04  0.25500000000E-02 0.  1.
         -2   -1    0    0    0  501 -0.00000000000E+00 -0.00000000000E+00 -0.54515685901E+02  0.54515685961E+02  0.25500000000E-02 0. -1.
    5000001    1    1    2    0    0 -0.15288934451E+03 -0.97509257737E+02  0.42431175805E+03  0.49826466363E+03  0.18800000000E+03 0.  0.
   -5000001    1    1    2    0    0  0.15288934451E+03  0.97509257737E+02  0.95495492418E+03  0.99003339046E+03  0.18800000000E+03 0.  0.
<mgrwt>
<rscale>  0 0.55915518E+03</rscale>
<asrwt>0</asrwt>
<pdfrwt beam="1">  1        2 0.20482604E+00 0.55915518E+03</pdfrwt>
<pdfrwt beam="2">  1       -2 0.77879558E-02 0.55915518E+03</pdfrwt>
<totfact> 0.16506733E+03</totfact>
</mgrwt>
</event>
<event>
 4    1  0.5886875E-005  0.6705402E+03  0.7818608E-02  0.9768983E-01
         -2   -1    0    0    0  501 -0.00000000000E+00  0.00000000000E+00  0.14100372245E+03  0.14100372248E+03  0.25500000000E-02 0.  1.
          2   -1    0    0  501    0  0.00000000000E+00 -0.00000000000E+00 -0.79718480147E+03  0.79718480148E+03  0.25500000000E-02 0. -1.
    5000001    1    1    2    0    0 -0.91670515808E+02  0.26186894152E+03 -0.34085266703E+03  0.47802025755E+03  0.18800000000E+03 0.  0.
   -5000001    1    1    2    0    0  0.91670515808E+02 -0.26186894152E+03 -0.31532841199E+03  0.46016826641E+03  0.18800000000E+03 0.  0.
<mgrwt>
<rscale>  0 0.67054015E+03</rscale>
<asrwt>0</asrwt>
<pdfrwt beam="1">  1        2 0.11388354E+00 0.67054015E+03</pdfrwt>
<pdfrwt beam="2">  1       -2 0.20143389E-01 0.67054015E+03</pdfrwt>
<totfact> 0.80728958E+02</totfact>
</mgrwt>
</event>
<event>
 4    1  0.5886875E-005  0.7944865E+03  0.7818608E-02  0.9568032E-01
          2   -1    0    0  501    0  0.00000000000E+00  0.00000000000E+00  0.35148900338E+04  0.35148900338E+04  0.25500000000E-02 0.  1.
         -2   -1    0    0    0  501 -0.00000000000E+00 -0.00000000000E+00 -0.44895339053E+02  0.44895339126E+02  0.25500000000E-02 0. -1.
    5000001    1    1    2    0    0  0.66460826486E+02  0.34248572781E+03  0.16127279677E+04  0.16607073833E+04  0.18800000000E+03 0.  0.
   -5000001    1    1    2    0    0 -0.66460826486E+02 -0.34248572781E+03  0.18572667270E+04  0.18990779896E+04  0.18800000000E+03 0.  0.
<mgrwt>
<rscale>  0 0.79448645E+03</rscale>
<asrwt>0</asrwt>
<pdfrwt beam="1">  1        2 0.50212735E+00 0.79448645E+03</pdfrwt>
<pdfrwt beam="2">  1       -2 0.64136173E-02 0.79448645E+03</pdfrwt>
<totfact> 0.17452583E+02</totfact>
</mgrwt>
</event>
<event>
 4    1  0.5886875E-005  0.4323489E+03  0.7818608E-02  0.1033121E+00
         -2   -1    0    0    0  501 -0.00000000000E+00  0.00000000000E+00  0.65605640103E+02  0.65605640153E+02  0.25500000000E-02 0. -1.
          2   -1    0    0  501    0  0.00000000000E+00 -0.00000000000E+00 -0.71230739231E+03  0.71230739231E+03  0.25500000000E-02 0.  1.
    5000001    1    1    2    0    0  0.80517929866E+02 -0.69238877673E+02 -0.34224093488E+03  0.40466037207E+03  0.18800000000E+03 0.  0.
   -5000001    1    1    2    0    0 -0.80517929866E+02  0.69238877673E+02 -0.30446081733E+03  0.37325266040E+03  0.18800000000E+03 0.  0.
<mgrwt>
<rscale>  0 0.43234885E+03</rscale>
<asrwt>0</asrwt>
<pdfrwt beam="1">  1        2 0.10175819E+00 0.43234885E+03</pdfrwt>
<pdfrwt beam="2">  1       -2 0.93722347E-02 0.43234885E+03</pdfrwt>
<totfact> 0.33301085E+03</totfact>
</mgrwt>
</event>
<event>
 4    1  0.5886875E-005  0.5840478E+03  0.7818608E-02  0.9939066E-01
          2   -1    0    0  501    0  0.00000000000E+00  0.00000000000E+00  0.14843619861E+04  0.14843619861E+04  0.25500000000E-02 0.  1.
         -2   -1    0    0    0  501 -0.00000000000E+00 -0.00000000000E+00 -0.57450913510E+02  0.57450913566E+02  0.25500000000E-02 0. -1.
    5000001    1    1    2    0    0  0.10470531853E+03 -0.17251790685E+03  0.96677788413E+03  0.10053502420E+04  0.18800000000E+03 0.  0.
   -5000001    1    1    2    0    0 -0.10470531853E+03  0.17251790685E+03  0.46013318846E+03  0.53646265763E+03  0.18800000000E+03 0.  0.
<mgrwt>
<rscale>  0 0.58404778E+03</rscale>
<asrwt>0</asrwt>
<pdfrwt beam="1">  1        2 0.21205169E+00 0.58404778E+03</pdfrwt>
<pdfrwt beam="2">  1       -2 0.82072742E-02 0.58404778E+03</pdfrwt>
<totfact> 0.14274479E+03</totfact>
</mgrwt>
</event>
<event>
 4    1  0.5886875E-005  0.4289131E+03  0.7818608E-02  0.1034204E+00
          2   -1    0    0  501    0  0.00000000000E+00  0.00000000000E+00  0.10292159365E+04  0.10292159365E+04  0.25500000000E-02 0.  1.
         -2   -1    0    0    0  501 -0.00000000000E+00 -0.00000000000E+00 -0.44686075195E+02  0.44686075267E+02  0.25500000000E-02 0. -1.
    5000001    1    1    2    0    0 -0.98029663584E+01 -0.71855446484E+02  0.67605493555E+03  0.70544566001E+03  0.18800000000E+03 0.  0.
   -5000001    1    1    2    0    0  0.98029663584E+01  0.71855446484E+02  0.30847492578E+03  0.36845635179E+03  0.18800000000E+03 0.  0.
<mgrwt>
<rscale>  0 0.42891314E+03</rscale>
<asrwt>0</asrwt>
<pdfrwt beam="1">  1        2 0.14703085E+00 0.42891314E+03</pdfrwt>
<pdfrwt beam="2">  1       -2 0.63837248E-02 0.42891314E+03</pdfrwt>
<totfact> 0.37836218E+03</totfact>
</mgrwt>
</event>
<event>
 4    1  0.5886875E-005  0.6279295E+03  0.7818608E-02  0.9849098E-01
         -2   -1    0    0    0  501 -0.00000000000E+00  0.00000000000E+00  0.19837309733E+02  0.19837309897E+02  0.25500000000E-02 0. -1.
          2   -1    0    0  501    0  0.00000000000E+00 -0.00000000000E+00 -0.49691138240E+04  0.49691138240E+04  0.25500000000E-02 0.  1.
    5000001    1    1    2    0    0  0.22849217193E+03 -0.10295852327E+03 -0.23116729642E+04  0.23328062550E+04  0.18800000000E+03 0.  0.
   -5000001    1    1    2    0    0 -0.22849217193E+03  0.10295852327E+03 -0.26376035501E+04  0.26561448789E+04  0.18800000000E+03 0.  0.
<mgrwt>
<rscale>  0 0.62792946E+03</rscale>
<asrwt>0</asrwt>
<pdfrwt beam="1">  1        2 0.70987261E+00 0.62792946E+03</pdfrwt>
<pdfrwt beam="2">  1       -2 0.28339046E-02 0.62792946E+03</pdfrwt>
<totfact> 0.54565637E+01</totfact>
</mgrwt>
</event>
<event>
 4    1  0.5886875E-005  0.7329851E+03  0.7818608E-02  0.9662429E-01
         -2   -1    0    0    0  501 -0.00000000000E+00  0.00000000000E+00  0.19749935345E+03  0.19749935347E+03  0.25500000000E-02 0. -1.
          2   -1    0    0  501    0  0.00000000000E+00 -0.00000000000E+00 -0.68008720411E+03  0.68008720412E+03  0.25500000000E-02 0.  1.
    5000001    1    1    2    0    0  0.18310885578E+03  0.22359461249E+03 -0.92477679760E+02  0.35695871618E+03  0.18800000000E+03 0.  0.
   -5000001    1    1    2    0    0 -0.18310885578E+03 -0.22359461249E+03 -0.39011017090E+03  0.52062784140E+03  0.18800000000E+03 0.  0.
<mgrwt>
<rscale>  0 0.73298508E+03</rscale>
<asrwt>0</asrwt>
<pdfrwt beam="1">  1        2 0.97155314E-01 0.73298508E+03</pdfrwt>
<pdfrwt beam="2">  1       -2 0.28214194E-01 0.73298508E+03</pdfrwt>
<totfact> 0.53784600E+02</totfact>
</mgrwt>
</event>
<event>
 4    1  0.5886875E-005  0.7527002E+03  0.7818608E-02  0.9631124E-01
          2   -1    0    0  501    0  0.00000000000E+00  0.00000000000E+00  0.11829352419E+04  0.11829352419E+04  0.25500000000E-02 0.  1.
         -2   -1    0    0    0  501 -0.00000000000E+00 -0.00000000000E+00 -0.11973554025E+03  0.11973554028E+03  0.25500000000E-02 0. -1.
    5000001    1    1    2    0    0 -0.28828029372E+03  0.14947364915E+03  0.48121730195E+03  0.61021470913E+03  0.18800000000E+03 0.  0.
   -5000001    1    1    2    0    0  0.28828029372E+03 -0.14947364915E+03  0.58198239967E+03  0.69245607302E+03  0.18800000000E+03 0.  0.
<mgrwt>
<rscale>  0 0.75270018E+03</rscale>
<asrwt>0</asrwt>
<pdfrwt beam="1">  1        2 0.16899075E+00 0.75270018E+03</pdfrwt>
<pdfrwt beam="2">  1       -2 0.17105078E-01 0.75270018E+03</pdfrwt>
<totfact> 0.61506909E+02</totfact>
</mgrwt>
</event>
<event>
 4    1  0.5886875E-005  0.4264939E+03  0.7818608E-02  0.1034973E+00
         -2   -1    0    0    0  501 -0.00000000000E+00  0.00000000000E+00  0.71333800367E+02  0.71333800413E+02  0.25500000000E-02 0. -1.
          2   -1    0    0  501    0  0.00000000000E+00 -0.00000000000E+00 -0.63748551340E+03  0.63748551341E+03  0.25500000000E-02 0.  1.
    5000001    1    1    2    0    0  0.41226086576E+02  0.90604612370E+02 -0.30780951535E+03  0.37416504879E+03  0.18800000000E+03 0.  0.
   -5000001    1    1    2    0    0 -0.41226086576E+02 -0.90604612370E+02 -0.25834219768E+03  0.33465426502E+03  0.18800000000E+03 0.  0.
<mgrwt>
<rscale>  0 0.42649391E+03</rscale>
<asrwt>0</asrwt>
<pdfrwt beam="1">  1        2 0.91069356E-01 0.42649391E+03</pdfrwt>
<pdfrwt beam="2">  1       -2 0.10190543E-01 0.42649391E+03</pdfrwt>
<totfact> 0.33242397E+03</totfact>
</mgrwt>
</event>
<event>
 4    1  0.5886875E-005  0.7302505E+03  0.7818608E-02  0.9666854E-01
         -2   -1    0    0    0  501 -0.00000000000E+00  0.00000000000E+00  0.18097516211E+03  0.18097516212E+03  0.25500000000E-02 0. -1.
          2   -1    0    0  501    0  0.00000000000E+00 -0.00000000000E+00 -0.73665607265E+03  0.73665607266E+03  0.25500000000E-02 0.  1.
    5000001    1    1    2    0    0  0.28442804419E+03 -0.13009555668E+03 -0.26253851971E+03  0.44954937495E+03  0.18800000000E+03 0.  0.
   -5000001    1    1    2    0    0 -0.28442804419E+03  0.13009555668E+03 -0.29314239084E+03  0.46808185983E+03  0.18800000000E+03 0.  0.
<mgrwt>
<rscale>  0 0.73025051E+03</rscale>
<asrwt>0</asrwt>
<pdfrwt beam="1">  1        2 0.10523658E+00 0.73025051E+03</pdfrwt>
<pdfrwt beam="2">  1       -2 0.25853595E-01 0.73025051E+03</pdfrwt>
<totfact> 0.57146887E+02</totfact>
</mgrwt>
</event>
<event>
 4    1  0.5886875E-005  0.9854536E+03  0.7818608E-02  0.9324645E-01
          2   -1    0    0  501    0  0.00000000000E+00  0.00000000000E+00  0.14352269061E+04  0.14352269061E+04  0.25500000000E-02 0.  1.
         -2   -1    0    0    0  501 -0.00000000000E+00 -0.00000000000E+00 -0.16915770301E+03  0.16915770303E+03  0.25500000000E-02 0. -1.
    5000001    1    1    2    0    0  0.25898822976E+03  0.37386439664E+03  0.59361666077E+03  0.77108639604E+03  0.18800000000E+03 0.  0.
   -5000001    1    1    2    0    0 -0.25898822976E+03 -0.37386439664E+03  0.67245254228E+03  0.83329821303E+03  0.18800000000E+03 0.  0.
<mgrwt>
<rscale>  0 0.98545357E+03</rscale>
<asrwt>0</asrwt>
<pdfrwt beam="1">  1        2 0.20503240E+00 0.98545357E+03</pdfrwt>
<pdfrwt beam="2">  1       -2 0.24165388E-01 0.98545357E+03</pdfrwt>
<totfact> 0.24070936E+02</totfact>
</mgrwt>
</event>
<event>
 4    1  0.5886875E-005  0.4799491E+03  0.7818608E-02  0.1019149E+00
         -2   -1    0    0    0  501 -0.00000000000E+00  0.00000000000E+00  0.57467386850E+02  0.57467386907E+02  0.25500000000E-02 0. -1.
          2   -1    0    0  501    0  0.00000000000E+00 -0.00000000000E+00 -0.10020948874E+04  0.10020948874E+04  0.25500000000E-02 0.  1.
    5000001    1    1    2    0    0 -0.10805179616E+03 -0.32493043304E+02 -0.68763416527E+03  0.72174492292E+03  0.18800000000E+03 0.  0.
   -5000001    1    1    2    0    0  0.10805179616E+03  0.32493043304E+02 -0.25699333526E+03  0.33781735137E+03  0.18800000000E+03 0.  0.
<mgrwt>
<rscale>  0 0.47994906E+03</rscale>
<asrwt>0</asrwt>
<pdfrwt beam="1">  1        2 0.14315640E+00 0.47994906E+03</pdfrwt>
<pdfrwt beam="2">  1       -2 0.82096273E-02 0.47994906E+03</pdfrwt>
<totfact> 0.26453966E+03</totfact>
</mgrwt>
</event>
<event>
 4    1  0.5886875E-005  0.8157862E+03  0.7818608E-02  0.9537444E-01
         -2   -1    0    0    0  501 -0.00000000000E+00  0.00000000000E+00  0.12907846451E+03  0.12907846453E+03  0.25500000000E-02 0. -1.
          2   -1    0    0  501    0  0.00000000000E+00 -0.00000000000E+00 -0.12889585730E+04  0.12889585730E+04  0.25500000000E-02 0.  1.
    5000001    1    1    2    0    0  0.35117675985E+03  0.35174914425E+02 -0.44011762560E+03  0.59465108730E+03  0.18800000000E+03 0.  0.
   -5000001    1    1    2    0    0 -0.35117675985E+03 -0.35174914425E+02 -0.71976248289E+03  0.82338595023E+03  0.18800000000E+03 0.  0.
<mgrwt>
<rscale>  0 0.81578623E+03</rscale>
<asrwt>0</asrwt>
<pdfrwt beam="1">  1        2 0.18413693E+00 0.81578623E+03</pdfrwt>
<pdfrwt beam="2">  1       -2 0.18439781E-01 0.81578623E+03</pdfrwt>
<totfact> 0.47008007E+02</totfact>
</mgrwt>
</event>
<event>
 4    1  0.5886875E-005  0.6036191E+03  0.7818608E-02  0.9897926E-01
         -2   -1    0    0    0  501 -0.00000000000E+00  0.00000000000E+00  0.68466457760E+02  0.68466457808E+02  0.25500000000E-02 0. -1.
          2   -1    0    0  501    0  0.00000000000E+00 -0.00000000000E+00 -0.13304177804E+04  0.13304177804E+04  0.25500000000E-02 0.  1.
    5000001    1    1    2    0    0 -0.11222691705E+03  0.15918382310E+03 -0.32169100236E+03  0.42043248143E+03  0.18800000000E+03 0.  0.
   -5000001    1    1    2    0    0  0.11222691705E+03 -0.15918382310E+03 -0.94026032029E+03  0.97845175678E+03  0.18800000000E+03 0.  0.
<mgrwt>
<rscale>  0 0.60361906E+03</rscale>
<asrwt>0</asrwt>
<pdfrwt beam="1">  1        2 0.19005967E+00 0.60361906E+03</pdfrwt>
<pdfrwt beam="2">  1       -2 0.97809233E-02 0.60361906E+03</pdfrwt>
<totfact> 0.12987482E+03</totfact>
</mgrwt>
</event>
<event>
 4    1  0.5886875E-005  0.5082937E+03  0.7818608E-02  0.1011637E+00
          2   -1    0    0  501    0  0.00000000000E+00  0.00000000000E+00  0.79610537770E+03  0.79610537771E+03  0.25500000000E-02 0.  1.
         -2   -1    0    0    0  501 -0.00000000000E+00 -0.00000000000E+00 -0.81133251167E+02  0.81133251207E+02  0.25500000000E-02 0. -1.
    5000001    1    1    2    0    0  0.11242063051E+03  0.95482062589E+02  0.50686328778E+03  0.56036560827E+03  0.18800000000E+03 0.  0.
   -5000001    1    1    2    0    0 -0.11242063051E+03 -0.95482062589E+02  0.20810883876E+03  0.31687302064E+03  0.18800000000E+03 0.  0.
<mgrwt>
<rscale>  0 0.50829369E+03</rscale>
<asrwt>0</asrwt>
<pdfrwt beam="1">  1        2 0.11372934E+00 0.50829369E+03</pdfrwt>
<pdfrwt beam="2">  1       -2 0.11590464E-01 0.50829369E+03</pdfrwt>
<totfact> 0.20595689E+03</totfact>
</mgrwt>
</event>
<event>
 4    1  0.5886875E-005  0.4881665E+03  0.7818608E-02  0.1016915E+00
          2   -1    0    0  501    0  0.00000000000E+00  0.00000000000E+00  0.14841766149E+04  0.14841766149E+04  0.25500000000E-02 0.  1.
         -2   -1    0    0    0  501 -0.00000000000E+00 -0.00000000000E+00 -0.40141205985E+02  0.40141206066E+02  0.25500000000E-02 0. -1.
    5000001    1    1    2    0    0  0.84875659065E+02  0.67286277888E+02  0.10711463168E+04  0.10928996993E+04  0.18800000000E+03 0.  0.
   -5000001    1    1    2    0    0 -0.84875659065E+02 -0.67286277888E+02  0.37288909204E+03  0.43141812161E+03  0.18800000000E+03 0.  0.
<mgrwt>
<rscale>  0 0.48816653E+03</rscale>
<asrwt>0</asrwt>
<pdfrwt beam="1">  1        2 0.21202525E+00 0.48816653E+03</pdfrwt>
<pdfrwt beam="2">  1       -2 0.57344575E-02 0.48816653E+03</pdfrwt>
<totfact> 0.25170908E+03</totfact>
</mgrwt>
</event>
<event>
 4    1  0.5886875E-005  0.4301300E+03  0.7818608E-02  0.1033819E+00
         -2   -1    0    0    0  501 -0.00000000000E+00  0.00000000000E+00  0.16292711845E+02  0.16292712045E+02  0.25500000000E-02 0. -1.
          2   -1    0    0  501    0  0.00000000000E+00 -0.00000000000E+00 -0.28388742980E+04  0.28388742980E+04  0.25500000000E-02 0.  1.
    5000001    1    1    2    0    0  0.29180915883E+02 -0.99751280592E+02 -0.13425900120E+04  0.13596667916E+04  0.18800000000E+03 0.  0.
   -5000001    1    1    2    0    0 -0.29180915883E+02  0.99751280592E+02 -0.14799915741E+04  0.14955002184E+04  0.18800000000E+03 0.  0.
<mgrwt>
<rscale>  0 0.43013003E+03</rscale>
<asrwt>0</asrwt>
<pdfrwt beam="1">  1        2 0.40555316E+00 0.43013003E+03</pdfrwt>
<pdfrwt beam="2">  1       -2 0.23275321E-02 0.43013003E+03</pdfrwt>
<totfact> 0.20538474E+03</totfact>
</mgrwt>
</event>
<event>
 4    1  0.5886875E-005  0.4628555E+03  0.7818608E-02  0.1023956E+00
         -2   -1    0    0    0  501 -0.00000000000E+00  0.00000000000E+00  0.23091156403E+03  0.23091156405E+03  0.25500000000E-02 0.  1.
          2   -1    0    0  501    0  0.00000000000E+00 -0.00000000000E+00 -0.23194509117E+03  0.23194509118E+03  0.25500000000E-02 0. -1.
    5000001    1    1    2    0    0  0.68120011397E+02  0.11423264792E+03 -0.23437771270E+02  0.23147950865E+03  0.18800000000E+03 0.  0.
   -5000001    1    1    2    0    0 -0.68120011397E+02 -0.11423264792E+03  0.22404244134E+02  0.23137714658E+03  0.18800000000E+03 0.  0.
<mgrwt>
<rscale>  0 0.46285550E+03</rscale>
<asrwt>0</asrwt>
<pdfrwt beam="1">  1        2 0.33135013E-01 0.46285550E+03</pdfrwt>
<pdfrwt beam="2">  1       -2 0.32987366E-01 0.46285550E+03</pdfrwt>
<totfact> 0.13595740E+03</totfact>
</mgrwt>
</event>
<event>
 4    1  0.5886875E-005  0.4558638E+03  0.7818608E-02  0.1025988E+00
         -2   -1    0    0    0  501 -0.00000000000E+00  0.00000000000E+00  0.53740974591E+02  0.53740974651E+02  0.25500000000E-02 0. -1.
          2   -1    0    0  501    0  0.00000000000E+00 -0.00000000000E+00 -0.96672873597E+03  0.96672873598E+03  0.25500000000E-02 0.  1.
    5000001    1    1    2    0    0 -0.75874185812E+02  0.91275639176E+02 -0.56888580418E+03  0.61078899186E+03  0.18800000000E+03 0.  0.
   -5000001    1    1    2    0    0  0.75874185812E+02 -0.91275639176E+02 -0.34410195720E+03  0.40968071876E+03  0.18800000000E+03 0.  0.
<mgrwt>
<rscale>  0 0.45586377E+03</rscale>
<asrwt>0</asrwt>
<pdfrwt beam="1">  1        2 0.13810409E+00 0.45586377E+03</pdfrwt>
<pdfrwt beam="2">  1       -2 0.76772827E-02 0.45586377E+03</pdfrwt>
<totfact> 0.30906399E+03</totfact>
</mgrwt>
</event>
<event>
 4    1  0.5886875E-005  0.6645957E+03  0.7818608E-02  0.9779770E-01
          2   -1    0    0  501    0  0.00000000000E+00  0.00000000000E+00  0.80231942462E+03  0.80231942463E+03  0.25500000000E-02 0.  1.
         -2   -1    0    0    0  501 -0.00000000000E+00 -0.00000000000E+00 -0.13762829366E+03  0.13762829368E+03  0.25500000000E-02 0. -1.
    5000001    1    1    2    0    0  0.11189936496E+02 -0.27219422883E+03  0.29079885782E+03  0.44059379092E+03  0.18800000000E+03 0.  0.
   -5000001    1    1    2    0    0 -0.11189936496E+02  0.27219422883E+03  0.37389227315E+03  0.49935392739E+03  0.18800000000E+03 0.  0.
<mgrwt>
<rscale>  0 0.66459568E+03</rscale>
<asrwt>0</asrwt>
<pdfrwt beam="1">  1        2 0.11461706E+00 0.66459568E+03</pdfrwt>
<pdfrwt beam="2">  1       -2 0.19661185E-01 0.66459568E+03</pdfrwt>
<totfact> 0.83535874E+02</totfact>
</mgrwt>
</event>
<event>
 4    1  0.5886875E-005  0.6741640E+03  0.7818608E-02  0.9762465E-01
         -2   -1    0    0    0  501 -0.00000000000E+00  0.00000000000E+00  0.10059564550E+03  0.10059564553E+03  0.25500000000E-02 0. -1.
          2   -1    0    0  501    0  0.00000000000E+00 -0.00000000000E+00 -0.11295149239E+04  0.11295149239E+04  0.25500000000E-02 0.  1.
    5000001    1    1    2    0    0 -0.45236230893E+02  0.26552660197E+03 -0.65257448007E+03  0.73058069026E+03  0.18800000000E+03 0.  0.
   -5000001    1    1    2    0    0  0.45236230893E+02 -0.26552660197E+03 -0.37634479829E+03  0.49952987913E+03  0.18800000000E+03 0.  0.
<mgrwt>
<rscale>  0 0.67416402E+03</rscale>
<asrwt>0</asrwt>
<pdfrwt beam="1">  1        2 0.16135927E+00 0.67416402E+03</pdfrwt>
<pdfrwt beam="2">  1       -2 0.14370807E-01 0.67416402E+03</pdfrwt>
<totfact> 0.88952610E+02</totfact>
</mgrwt>
</event>
<event>
 4    1  0.5886875E-005  0.7716885E+03  0.7818608E-02  0.9601926E-01
          2   -1    0    0  501    0  0.00000000000E+00  0.00000000000E+00  0.37079735610E+04  0.37079735610E+04  0.25500000000E-02 0.  1.
         -2   -1    0    0    0  501 -0.00000000000E+00 -0.00000000000E+00 -0.40150172816E+02  0.40150172897E+02  0.25500000000E-02 0. -1.
    5000001    1    1    2    0    0  0.16403960440E+03 -0.19469176372E+03  0.29059645565E+04  0.29231469136E+04  0.18800000000E+03 0.  0.
   -5000001    1    1    2    0    0 -0.16403960440E+03  0.19469176372E+03  0.76185883174E+03  0.82497682038E+03  0.18800000000E+03 0.  0.
<mgrwt>
<rscale>  0 0.77168848E+03</rscale>
<asrwt>0</asrwt>
<pdfrwt beam="1">  1        2 0.52971068E+00 0.77168848E+03</pdfrwt>
<pdfrwt beam="2">  1       -2 0.57357371E-02 0.77168848E+03</pdfrwt>
<totfact> 0.15892450E+02</totfact>
</mgrwt>
</event>
<event>
 4    1  0.5886875E-005  0.4105586E+03  0.7818608E-02  0.1040184E+00
         -2   -1    0    0    0  501 -0.00000000000E+00  0.00000000000E+00  0.31189664836E+02  0.31189664940E+02  0.25500000000E-02 0.  1.
          2   -1    0    0  501    0  0.00000000000E+00 -0.00000000000E+00 -0.13510755047E+04  0.13510755047E+04  0.25500000000E-02 0. -1.
    5000001    1    1    2    0    0 -0.59398443117E+02 -0.51292051857E+02 -0.57499946066E+03  0.61002248269E+03  0.18800000000E+03 0.  0.
   -5000001    1    1    2    0    0  0.59398443117E+02  0.51292051857E+02 -0.74488637923E+03  0.77224268698E+03  0.18800000000E+03 0.  0.
<mgrwt>
<rscale>  0 0.41055861E+03</rscale>
<asrwt>0</asrwt>
<pdfrwt beam="1">  1        2 0.19301075E+00 0.41055861E+03</pdfrwt>
<pdfrwt beam="2">  1       -2 0.44556673E-02 0.41055861E+03</pdfrwt>
<totfact> 0.43610611E+03</totfact>
</mgrwt>
</event>
<event>
 4    1  0.5886875E-005  0.7542288E+03  0.7818608E-02  0.9628739E-01
          2   -1    0    0  501    0  0.00000000000E+00  0.00000000000E+00  0.17423171455E+04  0.17423171455E+04  0.25500000000E-02 0.  1.
         -2   -1    0    0    0  501 -0.00000000000E+00 -0.00000000000E+00 -0.81624226229E+02  0.81624226269E+02  0.25500000000E-02 0. -1.
    5000001    1    1    2    0    0  0.31050738367E+03 -0.52563196800E+02  0.10424615263E+04  0.11051007912E+04  0.18800000000E+03 0.  0.
   -5000001    1    1    2    0    0 -0.31050738367E+03  0.52563196800E+02  0.61823139299E+03  0.71884058055E+03  0.18800000000E+03 0.  0.
<mgrwt>
<rscale>  0 0.75422885E+03</rscale>
<asrwt>0</asrwt>
<pdfrwt beam="1">  1        2 0.24890247E+00 0.75422885E+03</pdfrwt>
<pdfrwt beam="2">  1       -2 0.11660603E-01 0.75422885E+03</pdfrwt>
<totfact> 0.58997672E+02</totfact>
</mgrwt>
</event>
<event>
 4    1  0.5886875E-005  0.4787652E+03  0.7818608E-02  0.1019475E+00
         -2   -1    0    0    0  501 -0.00000000000E+00  0.00000000000E+00  0.60216634494E+02  0.60216634548E+02  0.25500000000E-02 0. -1.
          2   -1    0    0  501    0  0.00000000000E+00 -0.00000000000E+00 -0.95163117590E+03  0.95163117591E+03  0.25500000000E-02 0.  1.
    5000001    1    1    2    0    0 -0.14250715813E+03 -0.30400468477E+02 -0.38870088698E+03  0.45570259835E+03  0.18800000000E+03 0.  0.
   -5000001    1    1    2    0    0  0.14250715813E+03  0.30400468477E+02 -0.50271365443E+03  0.55614521211E+03  0.18800000000E+03 0.  0.
<mgrwt>
<rscale>  0 0.47876519E+03</rscale>
<asrwt>0</asrwt>
<pdfrwt beam="1">  1        2 0.13594730E+00 0.47876519E+03</pdfrwt>
<pdfrwt beam="2">  1       -2 0.86023769E-02 0.47876519E+03</pdfrwt>
<totfact> 0.26367788E+03</totfact>
</mgrwt>
</event>
<event>
 4    1  0.5886875E-005  0.5084348E+03  0.7818608E-02  0.1011600E+00
         -2   -1    0    0    0  501 -0.00000000000E+00  0.00000000000E+00  0.61545054279E+02  0.61545054332E+02  0.25500000000E-02 0. -1.
          2   -1    0    0  501    0  0.00000000000E+00 -0.00000000000E+00 -0.10500679256E+04  0.10500679256E+04  0.25500000000E-02 0.  1.
    5000001    1    1    2    0    0 -0.68977402019E+02  0.15103707249E+03 -0.58473506099E+03  0.63626187282E+03  0.18800000000E+03 0.  0.
   -5000001    1    1    2    0    0  0.68977402019E+02 -0.15103707249E+03 -0.40378781030E+03  0.47535110708E+03  0.18800000000E+03 0.  0.
<mgrwt>
<rscale>  0 0.50843480E+03</rscale>
<asrwt>0</asrwt>
<pdfrwt beam="1">  1        2 0.15000969E+00 0.50843480E+03</pdfrwt>
<pdfrwt beam="2">  1       -2 0.87921513E-02 0.50843480E+03</pdfrwt>
<totfact> 0.22201890E+03</totfact>
</mgrwt>
</event>
<event>
 4    1  0.5886875E-005  0.8351640E+03  0.7818608E-02  0.9510468E-01
         -2   -1    0    0    0  501 -0.00000000000E+00  0.00000000000E+00  0.56819375230E+03  0.56819375230E+03  0.25500000000E-02 0. -1.
          2   -1    0    0  501    0  0.00000000000E+00 -0.00000000000E+00 -0.30689310061E+03  0.30689310062E+03  0.25500000000E-02 0.  1.
    5000001    1    1    2    0    0 -0.17841975236E+02 -0.26198114307E+03  0.40802775117E+03  0.52036823609E+03  0.18800000000E+03 0.  0.
   -5000001    1    1    2    0    0  0.17841975236E+02  0.26198114307E+03 -0.14672709948E+03  0.35471861683E+03  0.18800000000E+03 0.  0.
<mgrwt>
<rscale>  0 0.83516404E+03</rscale>
<asrwt>0</asrwt>
<pdfrwt beam="1">  1        2 0.43841872E-01 0.83516404E+03</pdfrwt>
<pdfrwt beam="2">  1       -2 0.81170535E-01 0.83516404E+03</pdfrwt>
<totfact> 0.15652246E+02</totfact>
</mgrwt>
</event>
<event>
 4    1  0.5886875E-005  0.1747207E+04  0.7818608E-02  0.8734889E-01
          2   -1    0    0  501    0  0.00000000000E+00  0.00000000000E+00  0.82927830093E+03  0.82927830093E+03  0.25500000000E-02 0.  1.
         -2   -1    0    0    0  501 -0.00000000000E+00 -0.00000000000E+00 -0.92029776917E+03  0.92029776918E+03  0.25500000000E-02 0. -1.
    5000001    1    1    2    0    0 -0.37120416444E+03  0.76784220334E+03 -0.23921524218E+02  0.87366493591E+03  0.18800000000E+03 0.  0.
   -5000001    1    1    2    0    0  0.37120416444E+03 -0.76784220334E+03 -0.67097944025E+02  0.87591113420E+03  0.18800000000E+03 0.  0.
<mgrwt>
<rscale>  0 0.17472069E+04</rscale>
<asrwt>0</asrwt>
<pdfrwt beam="1">  1        2 0.11846833E+00 0.17472069E+04</pdfrwt>
<pdfrwt beam="2">  1       -2 0.13147111E+00 0.17472069E+04</pdfrwt>
<totfact> 0.14553635E+01</totfact>
</mgrwt>
</event>
<event>
 4    1  0.5886875E-005  0.5720616E+03  0.7818608E-02  0.9965127E-01
         -2   -1    0    0    0  501 -0.00000000000E+00  0.00000000000E+00  0.30245383308E+03  0.30245383309E+03  0.25500000000E-02 0. -1.
          2   -1    0    0  501    0  0.00000000000E+00 -0.00000000000E+00 -0.27049952524E+03  0.27049952525E+03  0.25500000000E-02 0.  1.
    5000001    1    1    2    0    0 -0.19132434614E+03 -0.96099636379E+02 -0.91512515627E+01  0.28507523734E+03  0.18800000000E+03 0.  0.
   -5000001    1    1    2    0    0  0.19132434614E+03  0.96099636379E+02  0.41105559403E+02  0.28787812100E+03  0.18800000000E+03 0.  0.
<mgrwt>
<rscale>  0 0.57206160E+03</rscale>
<asrwt>0</asrwt>
<pdfrwt beam="1">  1        2 0.38642789E-01 0.57206160E+03</pdfrwt>
<pdfrwt beam="2">  1       -2 0.43207691E-01 0.57206160E+03</pdfrwt>
<totfact> 0.68379280E+02</totfact>
</mgrwt>
</event>
<event>
 4    1  0.5886875E-005  0.5510782E+03  0.7818608E-02  0.1001245E+00
         -2   -1    0    0    0  501 -0.00000000000E+00  0.00000000000E+00  0.20591224487E+04  0.20591224487E+04  0.25500000000E-02 0. -1.
          2   -1    0    0  501    0  0.00000000000E+00 -0.00000000000E+00 -0.36870949895E+02  0.36870949983E+02  0.25500000000E-02 0.  1.
    5000001    1    1    2    0    0 -0.12626286569E+03 -0.14982119494E+03  0.11890804108E+04  0.12196905038E+04  0.18800000000E+03 0.  0.
   -5000001    1    1    2    0    0  0.12626286569E+03  0.14982119494E+03  0.83317108805E+03  0.87630289493E+03  0.18800000000E+03 0.  0.
<mgrwt>
<rscale>  0 0.55107822E+03</rscale>
<asrwt>0</asrwt>
<pdfrwt beam="1">  1        2 0.52672782E-02 0.55107822E+03</pdfrwt>
<pdfrwt beam="2">  1       -2 0.29416037E+00 0.55107822E+03</pdfrwt>
<totfact> 0.56321693E+01</totfact>
</mgrwt>
</event>
<event>
 4    1  0.5886875E-005  0.5276124E+03  0.7818608E-02  0.1006813E+00
         -2   -1    0    0    0  501 -0.00000000000E+00  0.00000000000E+00  0.68591548144E+02  0.68591548191E+02  0.25500000000E-02 0. -1.
          2   -1    0    0  501    0  0.00000000000E+00 -0.00000000000E+00 -0.10146104545E+04  0.10146104545E+04  0.25500000000E-02 0.  1.
    5000001    1    1    2    0    0 -0.15445095418E+03  0.66948914548E+02 -0.63087164801E+03  0.67947059589E+03  0.18800000000E+03 0.  0.
   -5000001    1    1    2    0    0  0.15445095418E+03 -0.66948914548E+02 -0.31514725835E+03  0.40373140682E+03  0.18800000000E+03 0.  0.
<mgrwt>
<rscale>  0 0.52761236E+03</rscale>
<asrwt>0</asrwt>
<pdfrwt beam="1">  1        2 0.14494434E+00 0.52761236E+03</pdfrwt>
<pdfrwt beam="2">  1       -2 0.97987932E-02 0.52761236E+03</pdfrwt>
<totfact> 0.19582189E+03</totfact>
</mgrwt>
</event>
<event>
 4    1  0.5886875E-005  0.5477776E+03  0.7818608E-02  0.1002010E+00
         -2   -1    0    0    0  501 -0.00000000000E+00  0.00000000000E+00  0.77016281263E+02  0.77016281305E+02  0.25500000000E-02 0. -1.
          2   -1    0    0  501    0  0.00000000000E+00 -0.00000000000E+00 -0.97401579608E+03  0.97401579609E+03  0.25500000000E-02 0.  1.
    5000001    1    1    2    0    0 -0.17445025304E+03  0.57307933809E+02 -0.59655219129E+03  0.65187085147E+03  0.18800000000E+03 0.  0.
   -5000001    1    1    2    0    0  0.17445025304E+03 -0.57307933809E+02 -0.30044732353E+03  0.39916122592E+03  0.18800000000E+03 0.  0.
<mgrwt>
<rscale>  0 0.54777760E+03</rscale>
<asrwt>0</asrwt>
<pdfrwt beam="1">  1        2 0.13914511E+00 0.54777760E+03</pdfrwt>
<pdfrwt beam="2">  1       -2 0.11002326E-01 0.54777760E+03</pdfrwt>
<totfact> 0.17174555E+03</totfact>
</mgrwt>
</event>
<event>
 4    1  0.5886875E-005  0.7367459E+03  0.7818608E-02  0.9656377E-01
          2   -1    0    0  501    0  0.00000000000E+00  0.00000000000E+00  0.17215928001E+04  0.17215928001E+04  0.25500000000E-02 0.  1.
         -2   -1    0    0    0  501 -0.00000000000E+00 -0.00000000000E+00 -0.78821549997E+02  0.78821550039E+02  0.25500000000E-02 0. -1.
    5000001    1    1    2    0    0 -0.27383829818E+03 -0.40549099788E+02  0.44499456878E+03  0.55677267290E+03  0.18800000000E+03 0.  0.
   -5000001    1    1    2    0    0  0.27383829818E+03  0.40549099788E+02  0.11977766813E+04  0.12436416772E+04  0.18800000000E+03 0.  0.
<mgrwt>
<rscale>  0 0.73674585E+03</rscale>
<asrwt>0</asrwt>
<pdfrwt beam="1">  1        2 0.24594181E+00 0.73674585E+03</pdfrwt>
<pdfrwt beam="2">  1       -2 0.11260222E-01 0.73674585E+03</pdfrwt>
<totfact> 0.64094954E+02</totfact>
</mgrwt>
</event>
<event>
 4    1  0.5886875E-005  0.5482704E+03  0.7818608E-02  0.1001895E+00
          2   -1    0    0  501    0  0.00000000000E+00  0.00000000000E+00  0.76528793639E+03  0.76528793639E+03  0.25500000000E-02 0.  1.
         -2   -1    0    0    0  501 -0.00000000000E+00 -0.00000000000E+00 -0.98198460130E+02  0.98198460163E+02  0.25500000000E-02 0. -1.
    5000001    1    1    2    0    0  0.14288924578E+03  0.13145643954E+02  0.11522565986E+03  0.26308002054E+03  0.18800000000E+03 0.  0.
   -5000001    1    1    2    0    0 -0.14288924578E+03 -0.13145643954E+02  0.55186381640E+03  0.60040637602E+03  0.18800000000E+03 0.  0.
<mgrwt>
<rscale>  0 0.54827036E+03</rscale>
<asrwt>0</asrwt>
<pdfrwt beam="1">  1        2 0.10932684E+00 0.54827036E+03</pdfrwt>
<pdfrwt beam="2">  1       -2 0.14028352E-01 0.54827036E+03</pdfrwt>
<totfact> 0.15792081E+03</totfact>
</mgrwt>
</event>
<event>
 4    1  0.5886875E-005  0.5627394E+03  0.7818608E-02  0.9985875E-01
          2   -1    0    0  501    0  0.00000000000E+00  0.00000000000E+00  0.85918521032E+03  0.85918521033E+03  0.25500000000E-02 0.  1.
         -2   -1    0    0    0  501 -0.00000000000E+00 -0.00000000000E+00 -0.92144182228E+02  0.92144182263E+02  0.25500000000E-02 0. -1.
    5000001    1    1    2    0    0 -0.30827043675E+02  0.18501068887E+03  0.22633136474E+03  0.34892570596E+03  0.18800000000E+03 0.  0.
   -5000001    1    1    2    0    0  0.30827043675E+02 -0.18501068887E+03  0.54070966336E+03  0.60240368663E+03  0.18800000000E+03 0.  0.
<mgrwt>
<rscale>  0 0.56273944E+03</rscale>
<asrwt>0</asrwt>
<pdfrwt beam="1">  1        2 0.12274075E+00 0.56273944E+03</pdfrwt>
<pdfrwt beam="2">  1       -2 0.13163454E-01 0.56273944E+03</pdfrwt>
<totfact> 0.15135180E+03</totfact>
</mgrwt>
</event>
<event>
 4    1  0.5886875E-005  0.1300739E+04  0.7818608E-02  0.9028979E-01
          2   -1    0    0  501    0  0.00000000000E+00  0.00000000000E+00  0.31735778952E+03  0.31735778953E+03  0.25500000000E-02 0.  1.
         -2   -1    0    0    0  501 -0.00000000000E+00 -0.00000000000E+00 -0.13328197848E+04  0.13328197848E+04  0.25500000000E-02 0. -1.
    5000001    1    1    2    0    0  0.23235387588E+03 -0.52340858714E+03 -0.81768551733E+03  0.10158240389E+04  0.18800000000E+03 0.  0.
   -5000001    1    1    2    0    0 -0.23235387588E+03  0.52340858714E+03 -0.19777647798E+03  0.63435353547E+03  0.18800000000E+03 0.  0.
<mgrwt>
<rscale>  0 0.13007394E+04</rscale>
<asrwt>0</asrwt>
<pdfrwt beam="1">  1        2 0.45336828E-01 0.13007394E+04</pdfrwt>
<pdfrwt beam="2">  1       -2 0.19040282E+00 0.13007394E+04</pdfrwt>
<totfact> 0.16918965E+01</totfact>
</mgrwt>
</event>
<event>
 4    1  0.5886875E-005  0.7664191E+03  0.7818608E-02  0.9609938E-01
         -2   -1    0    0    0  501 -0.00000000000E+00  0.00000000000E+00  0.22774961618E+03  0.22774961619E+03  0.25500000000E-02 0. -1.
          2   -1    0    0  501    0  0.00000000000E+00 -0.00000000000E+00 -0.64478509307E+03  0.64478509308E+03  0.25500000000E-02 0.  1.
    5000001    1    1    2    0    0  0.32541015604E+03 -0.41025240533E+02 -0.27989375546E+03  0.47038213652E+03  0.18800000000E+03 0.  0.
   -5000001    1    1    2    0    0 -0.32541015604E+03  0.41025240533E+02 -0.13714172144E+03  0.40215257275E+03  0.18800000000E+03 0.  0.
<mgrwt>
<rscale>  0 0.76641910E+03</rscale>
<asrwt>0</asrwt>
<pdfrwt beam="1">  1        2 0.92112155E-01 0.76641910E+03</pdfrwt>
<pdfrwt beam="2">  1       -2 0.32535660E-01 0.76641910E+03</pdfrwt>
<totfact> 0.43987492E+02</totfact>
</mgrwt>
</event>
<event>
 4    1  0.5886875E-005  0.6125067E+03  0.7818608E-02  0.9879793E-01
         -2   -1    0    0    0  501 -0.00000000000E+00  0.00000000000E+00  0.41552050435E+03  0.41552050436E+03  0.25500000000E-02 0. -1.
          2   -1    0    0  501    0  0.00000000000E+00 -0.00000000000E+00 -0.22571960996E+03  0.22571960998E+03  0.25500000000E-02 0.  1.
    5000001    1    1    2    0    0  0.79512542252E+02 -0.11905918323E+03 -0.10904523532E+03  0.26025410051E+03  0.18800000000E+03 0.  0.
   -5000001    1    1    2    0    0 -0.79512542252E+02  0.11905918323E+03  0.29884612971E+03  0.38098601383E+03  0.18800000000E+03 0.  0.
<mgrwt>
<rscale>  0 0.61250674E+03</rscale>
<asrwt>0</asrwt>
<pdfrwt beam="1">  1        2 0.32245659E-01 0.61250674E+03</pdfrwt>
<pdfrwt beam="2">  1       -2 0.59360072E-01 0.61250674E+03</pdfrwt>
<totfact> 0.43836714E+02</totfact>
</mgrwt>
</event>
<event>
 4    1  0.5886875E-005  0.3858131E+03  0.7818608E-02  0.1048806E+00
          2   -1    0    0  501    0  0.00000000000E+00  0.00000000000E+00  0.65819305550E+03  0.65819305551E+03  0.25500000000E-02 0.  1.
         -2   -1    0    0    0  501 -0.00000000000E+00 -0.00000000000E+00 -0.56538027791E+02  0.56538027848E+02  0.25500000000E-02 0. -1.
    5000001    1    1    2    0    0  0.42853046798E+02 -0.27291356944E+01  0.29154533348E+03  0.34955187494E+03  0.18800000000E+03 0.  0.
   -5000001    1    1    2    0    0 -0.42853046798E+02  0.27291356944E+01  0.31010969423E+03  0.36517920842E+03  0.18800000000E+03 0.  0.
<mgrwt>
<rscale>  0 0.38581310E+03</rscale>
<asrwt>0</asrwt>
<pdfrwt beam="1">  1        2 0.94027576E-01 0.38581310E+03</pdfrwt>
<pdfrwt beam="2">  1       -2 0.80768614E-02 0.38581310E+03</pdfrwt>
<totfact> 0.46287266E+03</totfact>
</mgrwt>
</event>
<event>
 4    1  0.5886875E-005  0.5008371E+03  0.7818608E-02  0.1013561E+00
         -2   -1    0    0    0  501 -0.00000000000E+00  0.00000000000E+00  0.34462373658E+02  0.34462373752E+02  0.25500000000E-02 0. -1.
          2   -1    0    0  501    0  0.00000000000E+00 -0.00000000000E+00 -0.18196500327E+04  0.18196500327E+04  0.25500000000E-02 0.  1.
    5000001    1    1    2    0    0  0.29983988266E+02 -0.16267030840E+03 -0.88449099434E+03  0.91925458273E+03  0.18800000000E+03 0.  0.
   -5000001    1    1    2    0    0 -0.29983988266E+02  0.16267030840E+03 -0.90069666466E+03  0.93485782369E+03  0.18800000000E+03 0.  0.
<mgrwt>
<rscale>  0 0.50083714E+03</rscale>
<asrwt>0</asrwt>
<pdfrwt beam="1">  1        2 0.25994994E+00 0.50083714E+03</pdfrwt>
<pdfrwt beam="2">  1       -2 0.49231974E-02 0.50083714E+03</pdfrwt>
<totfact> 0.21522552E+03</totfact>
</mgrwt>
</event>
<event>
 4    1  0.5886875E-005  0.8154125E+03  0.7818608E-02  0.9537972E-01
         -2   -1    0    0    0  501 -0.00000000000E+00  0.00000000000E+00  0.40290850960E+03  0.40290850961E+03  0.25500000000E-02 0. -1.
          2   -1    0    0  501    0  0.00000000000E+00 -0.00000000000E+00 -0.41256111222E+03  0.41256111223E+03  0.25500000000E-02 0.  1.
    5000001    1    1    2    0    0  0.45710605550E+02  0.33789359269E+03 -0.12574318171E+03  0.40916608753E+03  0.18800000000E+03 0.  0.
   -5000001    1    1    2    0    0 -0.45710605550E+02 -0.33789359269E+03  0.11609057909E+03  0.40630353431E+03  0.18800000000E+03 0.  0.
<mgrwt>
<rscale>  0 0.81541249E+03</rscale>
<asrwt>0</asrwt>
<pdfrwt beam="1">  1        2 0.58937302E-01 0.81541249E+03</pdfrwt>
<pdfrwt beam="2">  1       -2 0.57558359E-01 0.81541249E+03</pdfrwt>
<totfact> 0.23765639E+02</totfact>
</mgrwt>
</event>
<event>
 4    1  0.5886875E-005  0.4895939E+03  0.7818608E-02  0.1016531E+00
         -2   -1    0    0    0  501 -0.00000000000E+00  0.00000000000E+00  0.61188530096E+02  0.61188530150E+02  0.25500000000E-02 0. -1.
          2   -1    0    0  501    0  0.00000000000E+00 -0.00000000000E+00 -0.97935920926E+03  0.97935920926E+03  0.25500000000E-02 0.  1.
    5000001    1    1    2    0    0 -0.73946233475E+02 -0.65283587560E+02 -0.20007803670E+03  0.29172797778E+03  0.18800000000E+03 0.  0.
   -5000001    1    1    2    0    0  0.73946233475E+02  0.65283587560E+02 -0.71809264247E+03  0.74881976163E+03  0.18800000000E+03 0.  0.
<mgrwt>
<rscale>  0 0.48959392E+03</rscale>
<asrwt>0</asrwt>
<pdfrwt beam="1">  1        2 0.13990845E+00 0.48959392E+03</pdfrwt>
<pdfrwt beam="2">  1       -2 0.87412192E-02 0.48959392E+03</pdfrwt>
<totfact> 0.24713140E+03</totfact>
</mgrwt>
</event>
<event>
 4    1  0.5886875E-005  0.5321472E+03  0.7818608E-02  0.1005713E+00
          2   -1    0    0  501    0  0.00000000000E+00  0.00000000000E+00  0.23225926132E+04  0.23225926132E+04  0.25500000000E-02 0.  1.
         -2   -1    0    0    0  501 -0.00000000000E+00 -0.00000000000E+00 -0.30481088562E+02  0.30481088669E+02  0.25500000000E-02 0. -1.
    5000001    1    1    2    0    0 -0.14281447477E+03  0.12121038812E+03  0.10617828543E+04  0.10944472404E+04  0.18800000000E+03 0.  0.
   -5000001    1    1    2    0    0  0.14281447477E+03 -0.12121038812E+03  0.12303286703E+04  0.12586264614E+04  0.18800000000E+03 0.  0.
<mgrwt>
<rscale>  0 0.53214716E+03</rscale>
<asrwt>0</asrwt>
<pdfrwt beam="1">  1        2 0.33179902E+00 0.53214716E+03</pdfrwt>
<pdfrwt beam="2">  1       -2 0.43544402E-02 0.53214716E+03</pdfrwt>
<totfact> 0.14539632E+03</totfact>
</mgrwt>
</event>
<event>
 4    1  0.5886875E-005  0.6390081E+03  0.7818608E-02  0.9827626E-01
          2   -1    0    0  501    0  0.00000000000E+00  0.00000000000E+00  0.12278803082E+04  0.12278803082E+04  0.25500000000E-02 0.  1.
         -2   -1    0    0    0  501 -0.00000000000E+00 -0.00000000000E+00 -0.83137461048E+02  0.83137461087E+02  0.25500000000E-02 0. -1.
    5000001    1    1    2    0    0 -0.90562679283E+02  0.23042929035E+03  0.42105521425E+03  0.52338394146E+03  0.18800000000E+03 0.  0.
   -5000001    1    1    2    0    0  0.90562679283E+02 -0.23042929035E+03  0.72368763292E+03  0.78763382785E+03  0.18800000000E+03 0.  0.
<mgrwt>
<rscale>  0 0.63900814E+03</rscale>
<asrwt>0</asrwt>
<pdfrwt beam="1">  1        2 0.17541148E+00 0.63900814E+03</pdfrwt>
<pdfrwt beam="2">  1       -2 0.11876780E-01 0.63900814E+03</pdfrwt>
<totfact> 0.10754472E+03</totfact>
</mgrwt>
</event>
<event>
 4    1  0.5886875E-005  0.5141420E+03  0.7818608E-02  0.1010152E+00
          2   -1    0    0  501    0  0.00000000000E+00  0.00000000000E+00  0.37220976077E+03  0.37220976078E+03  0.25500000000E-02 0.  1.
         -2   -1    0    0    0  501 -0.00000000000E+00 -0.00000000000E+00 -0.17754904727E+03  0.17754904729E+03  0.25500000000E-02 0. -1.
    5000001    1    1    2    0    0  0.12616718549E+03  0.73575496581E+02 -0.63946345349E+01  0.23815206013E+03  0.18800000000E+03 0.  0.
   -5000001    1    1    2    0    0 -0.12616718549E+03 -0.73575496581E+02  0.20105534803E+03  0.31160674794E+03  0.18800000000E+03 0.  0.
<mgrwt>
<rscale>  0 0.51414196E+03</rscale>
<asrwt>0</asrwt>
<pdfrwt beam="1">  1        2 0.53172824E-01 0.51414196E+03</pdfrwt>
<pdfrwt beam="2">  1       -2 0.25364149E-01 0.51414196E+03</pdfrwt>
<totfact> 0.13071508E+03</totfact>
</mgrwt>
</event>
<event>
 4    1  0.5886875E-005  0.7289825E+03  0.7818608E-02  0.9668913E-01
         -2   -1    0    0    0  501 -0.00000000000E+00  0.00000000000E+00  0.11348900474E+03  0.11348900477E+03  0.25500000000E-02 0. -1.
          2   -1    0    0  501    0  0.00000000000E+00 -0.00000000000E+00 -0.11706319989E+04  0.11706319989E+04  0.25500000000E-02 0.  1.
    5000001    1    1    2    0    0  0.16888473113E+03  0.11789550523E+03 -0.11512513752E+03  0.30169388435E+03  0.18800000000E+03 0.  0.
   -5000001    1    1    2    0    0 -0.16888473113E+03 -0.11789550523E+03 -0.94201785666E+03  0.98242711935E+03  0.18800000000E+03 0.  0.
<mgrwt>
<rscale>  0 0.72898247E+03</rscale>
<asrwt>0</asrwt>
<pdfrwt beam="1">  1        2 0.16723314E+00 0.72898247E+03</pdfrwt>
<pdfrwt beam="2">  1       -2 0.16212716E-01 0.72898247E+03</pdfrwt>
<totfact> 0.68567333E+02</totfact>
</mgrwt>
</event>
<event>
 4    1  0.5886875E-005  0.4083173E+03  0.7818608E-02  0.1040937E+00
          2   -1    0    0  501    0  0.00000000000E+00  0.00000000000E+00  0.17813537306E+03  0.17813537307E+03  0.25500000000E-02 0.  1.
         -2   -1    0    0    0  501 -0.00000000000E+00 -0.00000000000E+00 -0.23398359323E+03  0.23398359325E+03  0.25500000000E-02 0. -1.
    5000001    1    1    2    0    0  0.11338585364E+02 -0.78778628832E+02 -0.29393271519E+02  0.20625857628E+03  0.18800000000E+03 0.  0.
   -5000001    1    1    2    0    0 -0.11338585364E+02  0.78778628832E+02 -0.26454948657E+02  0.20586039004E+03  0.18800000000E+03 0.  0.
<mgrwt>
<rscale>  0 0.40831730E+03</rscale>
<asrwt>0</asrwt>
<pdfrwt beam="1">  1        2 0.25447911E-01 0.40831730E+03</pdfrwt>
<pdfrwt beam="2">  1       -2 0.33426227E-01 0.40831730E+03</pdfrwt>
<totfact> 0.17795495E+03</totfact>
</mgrwt>
</event>
<event>
 4    1  0.5886875E-005  0.4091959E+03  0.7818608E-02  0.1040641E+00
         -2   -1    0    0    0  501 -0.00000000000E+00  0.00000000000E+00  0.83191827848E+02  0.83191827887E+02  0.25500000000E-02 0. -1.
          2   -1    0    0  501    0  0.00000000000E+00 -0.00000000000E+00 -0.50317824520E+03  0.50317824521E+03  0.25500000000E-02 0.  1.
    5000001    1    1    2    0    0 -0.76426242701E+02  0.25905340528E+02 -0.21295110004E+03  0.29530362045E+03  0.18800000000E+03 0.  0.
   -5000001    1    1    2    0    0  0.76426242701E+02 -0.25905340528E+02 -0.20703531731E+03  0.29106645265E+03  0.18800000000E+03 0.  0.
<mgrwt>
<rscale>  0 0.40919588E+03</rscale>
<asrwt>0</asrwt>
<pdfrwt beam="1">  1        2 0.71882605E-01 0.40919588E+03</pdfrwt>
<pdfrwt beam="2">  1       -2 0.11884547E-01 0.40919588E+03</pdfrwt>
<totfact> 0.33987193E+03</totfact>
</mgrwt>
</event>
<event>
 4    1  0.5886875E-005  0.7650617E+03  0.7818608E-02  0.9612013E-01
         -2   -1    0    0    0  501 -0.00000000000E+00  0.00000000000E+00  0.13227915726E+03  0.13227915729E+03  0.25500000000E-02 0. -1.
          2   -1    0    0  501    0  0.00000000000E+00 -0.00000000000E+00 -0.11062200895E+04  0.11062200895E+04  0.25500000000E-02 0.  1.
    5000001    1    1    2    0    0 -0.15555909754E+03 -0.28699362322E+03 -0.37932315910E+03  0.53459707409E+03  0.18800000000E+03 0.  0.
   -5000001    1    1    2    0    0  0.15555909754E+03  0.28699362322E+03 -0.59461777314E+03  0.70390217270E+03  0.18800000000E+03 0.  0.
<mgrwt>
<rscale>  0 0.76506173E+03</rscale>
<asrwt>0</asrwt>
<pdfrwt beam="1">  1        2 0.15803144E+00 0.76506173E+03</pdfrwt>
<pdfrwt beam="2">  1       -2 0.18897023E-01 0.76506173E+03</pdfrwt>
<totfact> 0.57313347E+02</totfact>
</mgrwt>
</event>
<event>
 4    1  0.5886875E-005  0.7924958E+03  0.7818608E-02  0.9570943E-01
         -2   -1    0    0    0  501 -0.00000000000E+00  0.00000000000E+00  0.62418457326E+02  0.62418457378E+02  0.25500000000E-02 0. -1.
          2   -1    0    0  501    0  0.00000000000E+00 -0.00000000000E+00 -0.25154800270E+04  0.25154800270E+04  0.25500000000E-02 0.  1.
    5000001    1    1    2    0    0 -0.19991835845E+03 -0.54992439442E+02 -0.31411585138E+03  0.42071877368E+03  0.18800000000E+03 0.  0.
   -5000001    1    1    2    0    0  0.19991835845E+03  0.54992439442E+02 -0.21389457183E+04  0.21571797107E+04  0.18800000000E+03 0.  0.
<mgrwt>
<rscale>  0 0.79249576E+03</rscale>
<asrwt>0</asrwt>
<pdfrwt beam="1">  1        2 0.35935423E+00 0.79249576E+03</pdfrwt>
<pdfrwt beam="2">  1       -2 0.89169240E-02 0.79249576E+03</pdfrwt>
<totfact> 0.36806730E+02</totfact>
</mgrwt>
</event>
<event>
 4    1  0.5886875E-005  0.6701010E+03  0.7818608E-02  0.9769775E-01
         -2   -1    0    0    0  501 -0.00000000000E+00  0.00000000000E+00  0.59618924238E+02  0.59618924293E+02  0.25500000000E-02 0. -1.
          2   -1    0    0  501    0  0.00000000000E+00 -0.00000000000E+00 -0.18829395372E+04  0.18829395372E+04  0.25500000000E-02 0.  1.
    5000001    1    1    2    0    0  0.60948927181E+02  0.13872404033E+03 -0.23829225522E+03  0.33924376190E+03  0.18800000000E+03 0.  0.
   -5000001    1    1    2    0    0 -0.60948927181E+02 -0.13872404033E+03 -0.15850283577E+04  0.16033146996E+04  0.18800000000E+03 0.  0.
<mgrwt>
<rscale>  0 0.67010098E+03</rscale>
<asrwt>0</asrwt>
<pdfrwt beam="1">  1        2 0.26899133E+00 0.67010098E+03</pdfrwt>
<pdfrwt beam="2">  1       -2 0.85169904E-02 0.67010098E+03</pdfrwt>
<totfact> 0.83818101E+02</totfact>
</mgrwt>
</event>
<event>
 4    1  0.5886875E-005  0.5789278E+03  0.7818608E-02  0.9950115E-01
          2   -1    0    0  501    0  0.00000000000E+00  0.00000000000E+00  0.80903756633E+03  0.80903756634E+03  0.25500000000E-02 0.  1.
         -2   -1    0    0    0  501 -0.00000000000E+00 -0.00000000000E+00 -0.10356668654E+03  0.10356668657E+03  0.25500000000E-02 0. -1.
    5000001    1    1    2    0    0 -0.78578012971E+02 -0.50904618286E+02  0.38726864606E+02  0.21356393499E+03  0.18800000000E+03 0.  0.
   -5000001    1    1    2    0    0  0.78578012971E+02  0.50904618286E+02  0.66674401519E+03  0.69904031792E+03  0.18800000000E+03 0.  0.
<mgrwt>
<rscale>  0 0.57892777E+03</rscale>
<asrwt>0</asrwt>
<pdfrwt beam="1">  1        2 0.11557680E+00 0.57892777E+03</pdfrwt>
<pdfrwt beam="2">  1       -2 0.14795241E-01 0.57892777E+03</pdfrwt>
<totfact> 0.13459119E+03</totfact>
</mgrwt>
</event>
<event>
 4    1  0.5886875E-005  0.6518620E+03  0.7818608E-02  0.9803291E-01
         -2   -1    0    0    0  501 -0.00000000000E+00  0.00000000000E+00  0.44312898714E+02  0.44312898788E+02  0.25500000000E-02 0. -1.
          2   -1    0    0  501    0  0.00000000000E+00 -0.00000000000E+00 -0.23972936321E+04  0.23972936321E+04  0.25500000000E-02 0.  1.
    5000001    1    1    2    0    0 -0.16278327017E+03  0.17580114183E+03 -0.16114077219E+04  0.16399339257E+04  0.18800000000E+03 0.  0.
   -5000001    1    1    2    0    0  0.16278327017E+03 -0.17580114183E+03 -0.74157301144E+03  0.80167260513E+03  0.18800000000E+03 0.  0.
<mgrwt>
<rscale>  0 0.65186204E+03</rscale>
<asrwt>0</asrwt>
<pdfrwt beam="1">  1        2 0.34247044E+00 0.65186204E+03</pdfrwt>
<pdfrwt beam="2">  1       -2 0.63304156E-02 0.65186204E+03</pdfrwt>
<totfact> 0.73871068E+02</totfact>
</mgrwt>
</event>
<event>
 4    1  0.5886875E-005  0.9058058E+03  0.7818608E-02  0.9418353E-01
         -2   -1    0    0    0  501 -0.00000000000E+00  0.00000000000E+00  0.23918468660E+03  0.23918468661E+03  0.25500000000E-02 0. -1.
          2   -1    0    0  501    0  0.00000000000E+00 -0.00000000000E+00 -0.85758430245E+03  0.85758430245E+03  0.25500000000E-02 0.  1.
    5000001    1    1    2    0    0  0.24678736873E+03  0.25416968083E+03 -0.56396421770E+03  0.69203025285E+03  0.18800000000E+03 0.  0.
   -5000001    1    1    2    0    0 -0.24678736873E+03 -0.25416968083E+03 -0.54435398152E+02  0.40473873621E+03  0.18800000000E+03 0.  0.
<mgrwt>
<rscale>  0 0.90580579E+03</rscale>
<asrwt>0</asrwt>
<pdfrwt beam="1">  1        2 0.12251204E+00 0.90580579E+03</pdfrwt>
<pdfrwt beam="2">  1       -2 0.34169241E-01 0.90580579E+03</pdfrwt>
<totfact> 0.27831542E+02</totfact>
</mgrwt>
</event>
<event>
 4    1  0.5886875E-005  0.4697610E+03  0.7818608E-02  0.1021988E+00
          2   -1    0    0  501    0  0.00000000000E+00  0.00000000000E+00  0.19275906162E+04  0.19275906162E+04  0.25500000000E-02 0.  1.
         -2   -1    0    0    0  501 -0.00000000000E+00 -0.00000000000E+00 -0.28620630334E+02  0.28620630448E+02  0.25500000000E-02 0. -1.
    5000001    1    1    2    0    0 -0.13664492072E+03 -0.31146728272E+02  0.89316635047E+03  0.92343493688E+03  0.18800000000E+03 0.  0.
   -5000001    1    1    2    0    0  0.13664492072E+03  0.31146728272E+02  0.10058036354E+04  0.10327763098E+04  0.18800000000E+03 0.  0.
<mgrwt>
<rscale>  0 0.46976104E+03</rscale>
<asrwt>0</asrwt>
<pdfrwt beam="1">  1        2 0.27537009E+00 0.46976104E+03</pdfrwt>
<pdfrwt beam="2">  1       -2 0.40886615E-02 0.46976104E+03</pdfrwt>
<totfact> 0.25312366E+03</totfact>
</mgrwt>
</event>
<event>
 4    1  0.5886875E-005  0.6880272E+03  0.7818608E-02  0.9737929E-01
          2   -1    0    0  501    0  0.00000000000E+00  0.00000000000E+00  0.28771462082E+04  0.28771462082E+04  0.25500000000E-02 0.  1.
         -2   -1    0    0    0  501 -0.00000000000E+00 -0.00000000000E+00 -0.41132899256E+02  0.41132899335E+02  0.25500000000E-02 0. -1.
    5000001    1    1    2    0    0 -0.23573597740E+03  0.11482195865E+03  0.91175656544E+03  0.96716056983E+03  0.18800000000E+03 0.  0.
   -5000001    1    1    2    0    0  0.23573597740E+03 -0.11482195865E+03  0.19242567435E+04  0.19511185377E+04  0.18800000000E+03 0.  0.
<mgrwt>
<rscale>  0 0.68802722E+03</rscale>
<asrwt>0</asrwt>
<pdfrwt beam="1">  1        2 0.41102091E+00 0.68802722E+03</pdfrwt>
<pdfrwt beam="2">  1       -2 0.58761281E-02 0.68802722E+03</pdfrwt>
<totfact> 0.46489855E+02</totfact>
</mgrwt>
</event>
<event>
 4    1  0.5886875E-005  0.6052829E+03  0.7818608E-02  0.9894506E-01
         -2   -1    0    0    0  501 -0.00000000000E+00  0.00000000000E+00  0.11761348336E+03  0.11761348339E+03  0.25500000000E-02 0. -1.
          2   -1    0    0  501    0  0.00000000000E+00 -0.00000000000E+00 -0.77875301204E+03  0.77875301205E+03  0.25500000000E-02 0.  1.
    5000001    1    1    2    0    0  0.73120926762E+02 -0.18344900338E+03 -0.13608206936E+03  0.30473354980E+03  0.18800000000E+03 0.  0.
   -5000001    1    1    2    0    0 -0.73120926762E+02  0.18344900338E+03 -0.52505745932E+03  0.59163294563E+03  0.18800000000E+03 0.  0.
<mgrwt>
<rscale>  0 0.60528292E+03</rscale>
<asrwt>0</asrwt>
<pdfrwt beam="1">  1        2 0.11125043E+00 0.60528292E+03</pdfrwt>
<pdfrwt beam="2">  1       -2 0.16801927E-01 0.60528292E+03</pdfrwt>
<totfact> 0.11388987E+03</totfact>
</mgrwt>
</event>
<event>
 4    1  0.5886875E-005  0.6010245E+03  0.7818608E-02  0.9903283E-01
         -2   -1    0    0    0  501 -0.00000000000E+00  0.00000000000E+00  0.36991143296E+03  0.36991143297E+03  0.25500000000E-02 0. -1.
          2   -1    0    0  501    0  0.00000000000E+00 -0.00000000000E+00 -0.24413309328E+03  0.24413309330E+03  0.25500000000E-02 0.  1.
    5000001    1    1    2    0    0 -0.16580923289E+03 -0.42318459527E+02 -0.10083234513E+03  0.27348622553E+03  0.18800000000E+03 0.  0.
   -5000001    1    1    2    0    0  0.16580923289E+03  0.42318459527E+02  0.22661068481E+03  0.34055830074E+03  0.18800000000E+03 0.  0.
<mgrwt>
<rscale>  0 0.60102453E+03</rscale>
<asrwt>0</asrwt>
<pdfrwt beam="1">  1        2 0.34876156E-01 0.60102453E+03</pdfrwt>
<pdfrwt beam="2">  1       -2 0.52844490E-01 0.60102453E+03</pdfrwt>
<totfact> 0.51125799E+02</totfact>
</mgrwt>
</event>
<event>
 4    1  0.5886875E-005  0.7652346E+03  0.7818608E-02  0.9611748E-01
         -2   -1    0    0    0  501 -0.00000000000E+00  0.00000000000E+00  0.16091029761E+03  0.16091029764E+03  0.25500000000E-02 0. -1.
          2   -1    0    0  501    0  0.00000000000E+00 -0.00000000000E+00 -0.90979883140E+03  0.90979883140E+03  0.25500000000E-02 0.  1.
    5000001    1    1    2    0    0 -0.31879947178E+03  0.96054789974E+02 -0.39385093882E+03  0.54892821743E+03  0.18800000000E+03 0.  0.
   -5000001    1    1    2    0    0  0.31879947178E+03 -0.96054789974E+02 -0.35503759497E+03  0.52178091161E+03  0.18800000000E+03 0.  0.
<mgrwt>
<rscale>  0 0.76523461E+03</rscale>
<asrwt>0</asrwt>
<pdfrwt beam="1">  1        2 0.12997126E+00 0.76523461E+03</pdfrwt>
<pdfrwt beam="2">  1       -2 0.22987186E-01 0.76523461E+03</pdfrwt>
<totfact> 0.53582502E+02</totfact>
</mgrwt>
</event>
<event>
 4    1  0.5886875E-005  0.5922725E+03  0.7818608E-02  0.9921569E-01
          2   -1    0    0  501    0  0.00000000000E+00  0.00000000000E+00  0.73495769215E+03  0.73495769215E+03  0.25500000000E-02 0. -1.
         -2   -1    0    0    0  501 -0.00000000000E+00 -0.00000000000E+00 -0.11932208420E+03  0.11932208422E+03  0.25500000000E-02 0.  1.
    5000001    1    1    2    0    0 -0.11060066867E+03  0.17186697972E+03  0.45619279992E+03  0.53406613572E+03  0.18800000000E+03 0.  0.
   -5000001    1    1    2    0    0  0.11060066867E+03 -0.17186697972E+03  0.15944280804E+03  0.32021364066E+03  0.18800000000E+03 0.  0.
<mgrwt>
<rscale>  0 0.59227252E+03</rscale>
<asrwt>0</asrwt>
<pdfrwt beam="1">  1        2 0.10499396E+00 0.59227252E+03</pdfrwt>
<pdfrwt beam="2">  1       -2 0.17046012E-01 0.59227252E+03</pdfrwt>
<totfact> 0.11950802E+03</totfact>
</mgrwt>
</event>
<event>
 4    1  0.5886875E-005  0.6964235E+03  0.7818608E-02  0.9723368E-01
          2   -1    0    0  501    0  0.00000000000E+00  0.00000000000E+00  0.26500708334E+03  0.26500708335E+03  0.25500000000E-02 0.  1.
         -2   -1    0    0    0  501 -0.00000000000E+00 -0.00000000000E+00 -0.45754036864E+03  0.45754036865E+03  0.25500000000E-02 0. -1.
    5000001    1    1    2    0    0  0.21141249410E+03  0.19830214132E+03 -0.14135313437E+03  0.37328767795E+03  0.18800000000E+03 0.  0.
   -5000001    1    1    2    0    0 -0.21141249410E+03 -0.19830214132E+03 -0.51180150937E+02  0.34925977404E+03  0.18800000000E+03 0.  0.
<mgrwt>
<rscale>  0 0.69642355E+03</rscale>
<asrwt>0</asrwt>
<pdfrwt beam="1">  1        2 0.37858155E-01 0.69642355E+03</pdfrwt>
<pdfrwt beam="2">  1       -2 0.65362909E-01 0.69642355E+03</pdfrwt>
<totfact> 0.29816608E+02</totfact>
</mgrwt>
</event>
<event>
 4    1  0.5886875E-005  0.9335025E+03  0.7818608E-02  0.9384644E-01
         -2   -1    0    0    0  501 -0.00000000000E+00  0.00000000000E+00  0.78901305639E+03  0.78901305639E+03  0.25500000000E-02 0. -1.
          2   -1    0    0  501    0  0.00000000000E+00 -0.00000000000E+00 -0.27611294930E+03  0.27611294931E+03  0.25500000000E-02 0.  1.
    5000001    1    1    2    0    0  0.38030363581E+03  0.97272502945E+02  0.64097928834E+02  0.43993788166E+03  0.18800000000E+03 0.  0.
   -5000001    1    1    2    0    0 -0.38030363581E+03 -0.97272502945E+02  0.44880217825E+03  0.62518812405E+03  0.18800000000E+03 0.  0.
<mgrwt>
<rscale>  0 0.93350248E+03</rscale>
<asrwt>0</asrwt>
<pdfrwt beam="1">  1        2 0.39444708E-01 0.93350248E+03</pdfrwt>
<pdfrwt beam="2">  1       -2 0.11271615E+00 0.93350248E+03</pdfrwt>
<totfact> 0.81158607E+01</totfact>
</mgrwt>
</event>
<event>
 4    1  0.5886875E-005  0.6892863E+03  0.7818608E-02  0.9735732E-01
          2   -1    0    0  501    0  0.00000000000E+00  0.00000000000E+00  0.23079845682E+04  0.23079845682E+04  0.25500000000E-02 0.  1.
         -2   -1    0    0    0  501 -0.00000000000E+00 -0.00000000000E+00 -0.51464336408E+02  0.51464336471E+02  0.25500000000E-02 0. -1.
    5000001    1    1    2    0    0  0.17780020332E+03  0.22256057313E+03  0.96449841816E+03  0.10231067000E+04  0.18800000000E+03 0.  0.
   -5000001    1    1    2    0    0 -0.17780020332E+03 -0.22256057313E+03  0.12920218137E+04  0.13363422047E+04  0.18800000000E+03 0.  0.
<mgrwt>
<rscale>  0 0.68928628E+03</rscale>
<asrwt>0</asrwt>
<pdfrwt beam="1">  1        2 0.32971217E+00 0.68928628E+03</pdfrwt>
<pdfrwt beam="2">  1       -2 0.73520461E-02 0.68928628E+03</pdfrwt>
<totfact> 0.64571692E+02</totfact>
</mgrwt>
</event>
<event>
 4    1  0.5886875E-005  0.1201332E+04  0.7818608E-02  0.9111692E-01
         -2   -1    0    0    0  501 -0.00000000000E+00  0.00000000000E+00  0.15314627546E+03  0.15314627549E+03  0.25500000000E-02 0. -1.
          2   -1    0    0  501    0  0.00000000000E+00 -0.00000000000E+00 -0.23559148015E+04  0.23559148015E+04  0.25500000000E-02 0.  1.
    5000001    1    1    2    0    0  0.29901420558E+03 -0.38485785770E+03 -0.17207084300E+04  0.17982509744E+04  0.18800000000E+03 0.  0.
   -5000001    1    1    2    0    0 -0.29901420558E+03  0.38485785770E+03 -0.48206009599E+03  0.71081010257E+03  0.18800000000E+03 0.  0.
<mgrwt>
<rscale>  0 0.12013319E+04</rscale>
<asrwt>0</asrwt>
<pdfrwt beam="1">  1        2 0.33655924E+00 0.12013319E+04</pdfrwt>
<pdfrwt beam="2">  1       -2 0.21878041E-01 0.12013319E+04</pdfrwt>
<totfact> 0.94716302E+01</totfact>
</mgrwt>
</event>
<event>
 4    1  0.5886875E-005  0.5280688E+03  0.7818608E-02  0.1006702E+00
          2   -1    0    0  501    0  0.00000000000E+00  0.00000000000E+00  0.64549487631E+03  0.64549487631E+03  0.25500000000E-02 0.  1.
         -2   -1    0    0    0  501 -0.00000000000E+00 -0.00000000000E+00 -0.10800111169E+03  0.10800111172E+03  0.25500000000E-02 0. -1.
    5000001    1    1    2    0    0  0.85384350923E+02  0.28392702969E+02  0.50003304988E+03  0.54173211455E+03  0.18800000000E+03 0.  0.
   -5000001    1    1    2    0    0 -0.85384350923E+02 -0.28392702969E+02  0.37460714732E+02  0.21176387348E+03  0.18800000000E+03 0.  0.
<mgrwt>
<rscale>  0 0.52806880E+03</rscale>
<asrwt>0</asrwt>
<pdfrwt beam="1">  1        2 0.92213554E-01 0.52806880E+03</pdfrwt>
<pdfrwt beam="2">  1       -2 0.15428730E-01 0.52806880E+03</pdfrwt>
<totfact> 0.16577062E+03</totfact>
</mgrwt>
</event>
<event>
 4    1  0.5886875E-005  0.7103781E+03  0.7818608E-02  0.9699647E-01
          2   -1    0    0  501    0  0.00000000000E+00  0.00000000000E+00  0.97762856501E+02  0.97762856534E+02  0.25500000000E-02 0.  1.
         -2   -1    0    0    0  501 -0.00000000000E+00 -0.00000000000E+00 -0.12904619791E+04  0.12904619791E+04  0.25500000000E-02 0. -1.
    5000001    1    1    2    0    0 -0.21706109433E+03  0.29697839468E+02 -0.19197643723E+03  0.34669357189E+03  0.18800000000E+03 0.  0.
   -5000001    1    1    2    0    0  0.21706109433E+03 -0.29697839468E+02 -0.10007226854E+04  0.10415312637E+04  0.18800000000E+03 0.  0.
<mgrwt>
<rscale>  0 0.71037807E+03</rscale>
<asrwt>0</asrwt>
<pdfrwt beam="1">  1        2 0.13966123E-01 0.71037807E+03</pdfrwt>
<pdfrwt beam="2">  1       -2 0.18435170E+00 0.71037807E+03</pdfrwt>
<totfact> 0.75349770E+01</totfact>
</mgrwt>
</event>
<event>
 4    1  0.5886875E-005  0.7803380E+03  0.7818608E-02  0.9588921E-01
          2   -1    0    0  501    0  0.00000000000E+00  0.00000000000E+00  0.56182088511E+03  0.56182088511E+03  0.25500000000E-02 0.  1.
         -2   -1    0    0    0  501 -0.00000000000E+00 -0.00000000000E+00 -0.27096150323E+03  0.27096150325E+03  0.25500000000E-02 0. -1.
    5000001    1    1    2    0    0  0.26767177872E+03  0.32771132831E+02 -0.78850736719E+02  0.33805852593E+03  0.18800000000E+03 0.  0.
   -5000001    1    1    2    0    0 -0.26767177872E+03 -0.32771132831E+02  0.36971011859E+03  0.49472386243E+03  0.18800000000E+03 0.  0.
<mgrwt>
<rscale>  0 0.78033796E+03</rscale>
<asrwt>0</asrwt>
<pdfrwt beam="1">  1        2 0.80260126E-01 0.78033796E+03</pdfrwt>
<pdfrwt beam="2">  1       -2 0.38708787E-01 0.78033796E+03</pdfrwt>
<totfact> 0.37166707E+02</totfact>
</mgrwt>
</event>
<event>
 4    1  0.5886875E-005  0.5339097E+03  0.7818608E-02  0.1005288E+00
          2   -1    0    0  501    0  0.00000000000E+00  0.00000000000E+00  0.99418730470E+03  0.99418730470E+03  0.25500000000E-02 0.  1.
         -2   -1    0    0    0  501 -0.00000000000E+00 -0.00000000000E+00 -0.71681560934E+02  0.71681560980E+02  0.25500000000E-02 0. -1.
    5000001    1    1    2    0    0 -0.17458943132E+03 -0.46036132591E+02  0.34622271390E+03  0.43337623684E+03  0.18800000000E+03 0.  0.
   -5000001    1    1    2    0    0  0.17458943132E+03  0.46036132591E+02  0.57628302986E+03  0.63249262884E+03  0.18800000000E+03 0.  0.
<mgrwt>
<rscale>  0 0.53390972E+03</rscale>
<asrwt>0</asrwt>
<pdfrwt beam="1">  1        2 0.14202675E+00 0.53390972E+03</pdfrwt>
<pdfrwt beam="2">  1       -2 0.10240223E-01 0.53390972E+03</pdfrwt>
<totfact> 0.18761176E+03</totfact>
</mgrwt>
</event>
<event>
 4    1  0.5886875E-005  0.6991574E+03  0.7818608E-02  0.9718674E-01
          2   -1    0    0  501    0  0.00000000000E+00  0.00000000000E+00  0.16413891106E+04  0.16413891106E+04  0.25500000000E-02 0.  1.
         -2   -1    0    0    0  501 -0.00000000000E+00 -0.00000000000E+00 -0.74452337396E+02  0.74452337439E+02  0.25500000000E-02 0. -1.
    5000001    1    1    2    0    0  0.20462817428E+03  0.19956978772E+03  0.60717067394E+03  0.69692253312E+03  0.18800000000E+03 0.  0.
   -5000001    1    1    2    0    0 -0.20462817428E+03 -0.19956978772E+03  0.95976609923E+03  0.10189189149E+04  0.18800000000E+03 0.  0.
<mgrwt>
<rscale>  0 0.69915737E+03</rscale>
<asrwt>0</asrwt>
<pdfrwt beam="1">  1        2 0.23448413E+00 0.69915737E+03</pdfrwt>
<pdfrwt beam="2">  1       -2 0.10636049E-01 0.69915737E+03</pdfrwt>
<totfact> 0.77513585E+02</totfact>
</mgrwt>
</event>
<event>
 4    1  0.5886875E-005  0.5350352E+03  0.7818608E-02  0.1005018E+00
          2   -1    0    0  501    0  0.00000000000E+00  0.00000000000E+00  0.38510479423E+03  0.38510479424E+03  0.25500000000E-02 0.  1.
         -2   -1    0    0    0  501 -0.00000000000E+00 -0.00000000000E+00 -0.18583423010E+03  0.18583423012E+03  0.25500000000E-02 0. -1.
    5000001    1    1    2    0    0 -0.74660300655E+02 -0.15559220898E+03  0.14010065083E+02  0.25558438511E+03  0.18800000000E+03 0.  0.
   -5000001    1    1    2    0    0  0.74660300655E+02  0.15559220898E+03  0.18526049905E+03  0.31535463925E+03  0.18800000000E+03 0.  0.
<mgrwt>
<rscale>  0 0.53503515E+03</rscale>
<asrwt>0</asrwt>
<pdfrwt beam="1">  1        2 0.55014970E-01 0.53503515E+03</pdfrwt>
<pdfrwt beam="2">  1       -2 0.26547747E-01 0.53503515E+03</pdfrwt>
<totfact> 0.11596656E+03</totfact>
</mgrwt>
</event>
<event>
 4    1  0.5886875E-005  0.1038072E+04  0.7818608E-02  0.9267746E-01
          2   -1    0    0  501    0  0.00000000000E+00  0.00000000000E+00  0.11040364430E+04  0.11040364430E+04  0.25500000000E-02 0.  1.
         -2   -1    0    0    0  501 -0.00000000000E+00 -0.00000000000E+00 -0.24401236558E+03  0.24401236559E+03  0.25500000000E-02 0. -1.
    5000001    1    1    2    0    0  0.41187300757E+03 -0.20872805428E+03  0.61751485437E+03  0.79364688015E+03  0.18800000000E+03 0.  0.
   -5000001    1    1    2    0    0 -0.41187300757E+03  0.20872805428E+03  0.24250922307E+03  0.55440192846E+03  0.18800000000E+03 0.  0.
<mgrwt>
<rscale>  0 0.10380723E+04</rscale>
<asrwt>0</asrwt>
<pdfrwt beam="1">  1        2 0.15771949E+00 0.10380723E+04</pdfrwt>
<pdfrwt beam="2">  1       -2 0.34858909E-01 0.10380723E+04</pdfrwt>
<totfact> 0.18651482E+02</totfact>
</mgrwt>
</event>
<event>
 4    1  0.5886875E-005  0.1145792E+04  0.7818608E-02  0.9161675E-01
          2   -1    0    0  501    0  0.00000000000E+00  0.00000000000E+00  0.18966354199E+03  0.18966354201E+03  0.25500000000E-02 0.  1.
         -2   -1    0    0    0  501 -0.00000000000E+00 -0.00000000000E+00 -0.17304839245E+04  0.17304839245E+04  0.25500000000E-02 0. -1.
    5000001    1    1    2    0    0  0.50322383768E+03  0.13483564331E+02 -0.43755864426E+03  0.69297734774E+03  0.18800000000E+03 0.  0.
   -5000001    1    1    2    0    0 -0.50322383768E+03 -0.13483564331E+02 -0.11032617382E+04  0.12271701188E+04  0.18800000000E+03 0.  0.
<mgrwt>
<rscale>  0 0.11457918E+04</rscale>
<asrwt>0</asrwt>
<pdfrwt beam="1">  1        2 0.27094793E-01 0.11457918E+04</pdfrwt>
<pdfrwt beam="2">  1       -2 0.24721198E+00 0.11457918E+04</pdfrwt>
<totfact> 0.13298002E+01</totfact>
</mgrwt>
</event>
<event>
 4    1  0.5886875E-005  0.1100371E+04  0.7818608E-02  0.9204831E-01
         -2   -1    0    0    0  501 -0.00000000000E+00  0.00000000000E+00  0.17702963812E+03  0.17702963814E+03  0.25500000000E-02 0. -1.
          2   -1    0    0  501    0  0.00000000000E+00 -0.00000000000E+00 -0.17099056168E+04  0.17099056169E+04  0.25500000000E-02 0.  1.
    5000001    1    1    2    0    0  0.20064193033E+02 -0.39749357759E+03 -0.13324739585E+04  0.14032941838E+04  0.18800000000E+03 0.  0.
   -5000001    1    1    2    0    0 -0.20064193033E+02  0.39749357759E+03 -0.20040202021E+03  0.48364107122E+03  0.18800000000E+03 0.  0.
<mgrwt>
<rscale>  0 0.11003708E+04</rscale>
<asrwt>0</asrwt>
<pdfrwt beam="1">  1        2 0.24427222E+00 0.11003708E+04</pdfrwt>
<pdfrwt beam="2">  1       -2 0.25289949E-01 0.11003708E+04</pdfrwt>
<totfact> 0.15792430E+02</totfact>
</mgrwt>
</event>
<event>
 4    1  0.5886875E-005  0.4844578E+03  0.7818608E-02  0.1017917E+00
          2   -1    0    0  501    0  0.00000000000E+00  0.00000000000E+00  0.43061830875E+03  0.43061830875E+03  0.25500000000E-02 0.  1.
         -2   -1    0    0    0  501 -0.00000000000E+00 -0.00000000000E+00 -0.13625720098E+03  0.13625720100E+03  0.25500000000E-02 0. -1.
    5000001    1    1    2    0    0  0.77270611691E+02  0.11683325340E+03  0.75907743956E+02  0.24642796538E+03  0.18800000000E+03 0.  0.
   -5000001    1    1    2    0    0 -0.77270611691E+02 -0.11683325340E+03  0.21845336382E+03  0.32044754437E+03  0.18800000000E+03 0.  0.
<mgrwt>
<rscale>  0 0.48445782E+03</rscale>
<asrwt>0</asrwt>
<pdfrwt beam="1">  1        2 0.61516901E-01 0.48445782E+03</pdfrwt>
<pdfrwt beam="2">  1       -2 0.19465314E-01 0.48445782E+03</pdfrwt>
<totfact> 0.17722161E+03</totfact>
</mgrwt>
</event>
<event>
 4    1  0.5886875E-005  0.8095968E+03  0.7818608E-02  0.9546229E-01
          2   -1    0    0  501    0  0.00000000000E+00  0.00000000000E+00  0.97623287280E+03  0.97623287280E+03  0.25500000000E-02 0.  1.
         -2   -1    0    0    0  501 -0.00000000000E+00 -0.00000000000E+00 -0.16785109053E+03  0.16785109055E+03  0.25500000000E-02 0. -1.
    5000001    1    1    2    0    0 -0.35517701060E+03  0.21231927926E+02  0.46605162134E+03  0.61575126258E+03  0.18800000000E+03 0.  0.
   -5000001    1    1    2    0    0  0.35517701060E+03 -0.21231927926E+02  0.34233016092E+03  0.52833270076E+03  0.18800000000E+03 0.  0.
<mgrwt>
<rscale>  0 0.80959682E+03</rscale>
<asrwt>0</asrwt>
<pdfrwt beam="1">  1        2 0.13946184E+00 0.80959682E+03</pdfrwt>
<pdfrwt beam="2">  1       -2 0.23978728E-01 0.80959682E+03</pdfrwt>
<totfact> 0.45012847E+02</totfact>
</mgrwt>
</event>
<event>
 4    1  0.5886875E-005  0.7760467E+03  0.7818608E-02  0.9595351E-01
          2   -1    0    0  501    0  0.00000000000E+00  0.00000000000E+00  0.19379569994E+04  0.19379569994E+04  0.25500000000E-02 0.  1.
         -2   -1    0    0    0  501 -0.00000000000E+00 -0.00000000000E+00 -0.77691154487E+02  0.77691154529E+02  0.25500000000E-02 0. -1.
    5000001    1    1    2    0    0 -0.14022770464E+03  0.29962227975E+03  0.73265400709E+03  0.82556841859E+03  0.18800000000E+03 0.  0.
   -5000001    1    1    2    0    0  0.14022770464E+03 -0.29962227975E+03  0.11276118378E+04  0.11900797353E+04  0.18800000000E+03 0.  0.
<mgrwt>
<rscale>  0 0.77604669E+03</rscale>
<asrwt>0</asrwt>
<pdfrwt beam="1">  1        2 0.27685103E+00 0.77604669E+03</pdfrwt>
<pdfrwt beam="2">  1       -2 0.11098735E-01 0.77604669E+03</pdfrwt>
<totfact> 0.50829705E+02</totfact>
</mgrwt>
</event>
<event>
 4    1  0.5886875E-005  0.4296451E+03  0.7818608E-02  0.1033972E+00
         -2   -1    0    0    0  501 -0.00000000000E+00  0.00000000000E+00  0.19149232827E+02  0.19149232997E+02  0.25500000000E-02 0. -1.
          2   -1    0    0  501    0  0.00000000000E+00 -0.00000000000E+00 -0.24099520727E+04  0.24099520727E+04  0.25500000000E-02 0.  1.
    5000001    1    1    2    0    0  0.48212295868E+00  0.81720308781E+02 -0.83222660016E+03  0.85710183486E+03  0.18800000000E+03 0.  0.
   -5000001    1    1    2    0    0 -0.48212295868E+00 -0.81720308781E+02 -0.15585762397E+04  0.15719994708E+04  0.18800000000E+03 0.  0.
<mgrwt>
<rscale>  0 0.42964513E+03</rscale>
<asrwt>0</asrwt>
<pdfrwt beam="1">  1        2 0.34427867E+00 0.42964513E+03</pdfrwt>
<pdfrwt beam="2">  1       -2 0.27356062E-02 0.42964513E+03</pdfrwt>
<totfact> 0.26778945E+03</totfact>
</mgrwt>
</event>
<event>
 4    1  0.5886875E-005  0.5548303E+03  0.7818608E-02  0.1000382E+00
          2   -1    0    0  501    0  0.00000000000E+00  0.00000000000E+00  0.32391839046E+03  0.32391839047E+03  0.25500000000E-02 0.  1.
         -2   -1    0    0    0  501 -0.00000000000E+00 -0.00000000000E+00 -0.23758811054E+03  0.23758811055E+03  0.25500000000E-02 0. -1.
    5000001    1    1    2    0    0 -0.17064349553E+03  0.75382985342E+02 -0.40371181806E+02  0.26790974108E+03  0.18800000000E+03 0.  0.
   -5000001    1    1    2    0    0  0.17064349553E+03 -0.75382985342E+02  0.12670146173E+03  0.29359675994E+03  0.18800000000E+03 0.  0.
<mgrwt>
<rscale>  0 0.55483027E+03</rscale>
<asrwt>0</asrwt>
<pdfrwt beam="1">  1        2 0.46274056E-01 0.55483027E+03</pdfrwt>
<pdfrwt beam="2">  1       -2 0.33941159E-01 0.55483027E+03</pdfrwt>
<totfact> 0.89206018E+02</totfact>
</mgrwt>
</event>
<event>
 4    1  0.5886875E-005  0.5103788E+03  0.7818608E-02  0.1011105E+00
         -2   -1    0    0    0  501 -0.00000000000E+00  0.00000000000E+00  0.33786075753E+02  0.33786075849E+02  0.25500000000E-02 0. -1.
          2   -1    0    0  501    0  0.00000000000E+00 -0.00000000000E+00 -0.19274694438E+04  0.19274694438E+04  0.25500000000E-02 0.  1.
    5000001    1    1    2    0    0 -0.10565520639E+03  0.41161827075E+02 -0.14466986112E+04  0.14632628576E+04  0.18800000000E+03 0.  0.
   -5000001    1    1    2    0    0  0.10565520639E+03 -0.41161827075E+02 -0.44698475680E+03  0.49799266205E+03  0.18800000000E+03 0.  0.
<mgrwt>
<rscale>  0 0.51037880E+03</rscale>
<asrwt>0</asrwt>
<pdfrwt beam="1">  1        2 0.27535271E+00 0.51037880E+03</pdfrwt>
<pdfrwt beam="2">  1       -2 0.48265835E-02 0.51037880E+03</pdfrwt>
<totfact> 0.19592011E+03</totfact>
</mgrwt>
</event>
<event>
 4    1  0.5886875E-005  0.4054176E+03  0.7818608E-02  0.1041920E+00
         -2   -1    0    0    0  501 -0.00000000000E+00  0.00000000000E+00  0.14995760903E+03  0.14995760906E+03  0.25500000000E-02 0.  1.
          2   -1    0    0  501    0  0.00000000000E+00 -0.00000000000E+00 -0.27401648635E+03  0.27401648636E+03  0.25500000000E-02 0. -1.
    5000001    1    1    2    0    0  0.55737801093E+02  0.46072665609E+02 -0.38240401793E+02  0.20502614788E+03  0.18800000000E+03 0.  0.
   -5000001    1    1    2    0    0 -0.55737801093E+02 -0.46072665609E+02 -0.85818475518E+02  0.21894794753E+03  0.18800000000E+03 0.  0.
<mgrwt>
<rscale>  0 0.40541760E+03</rscale>
<asrwt>0</asrwt>
<pdfrwt beam="1">  1        2 0.39145212E-01 0.40541760E+03</pdfrwt>
<pdfrwt beam="2">  1       -2 0.21422516E-01 0.40541760E+03</pdfrwt>
<totfact> 0.24593596E+03</totfact>
</mgrwt>
</event>
<event>
 4    1  0.5886875E-005  0.8497525E+03  0.7818608E-02  0.9490669E-01
          2   -1    0    0  501    0  0.00000000000E+00  0.00000000000E+00  0.12805505848E+04  0.12805505848E+04  0.25500000000E-02 0.  1.
         -2   -1    0    0    0  501 -0.00000000000E+00 -0.00000000000E+00 -0.14097049430E+03  0.14097049432E+03  0.25500000000E-02 0. -1.
    5000001    1    1    2    0    0 -0.17878419303E+03 -0.33401589565E+03  0.63764822588E+03  0.76515989584E+03  0.18800000000E+03 0.  0.
   -5000001    1    1    2    0    0  0.17878419303E+03  0.33401589565E+03  0.50193186465E+03  0.65636118332E+03  0.18800000000E+03 0.  0.
<mgrwt>
<rscale>  0 0.84975255E+03</rscale>
<asrwt>0</asrwt>
<pdfrwt beam="1">  1        2 0.18293579E+00 0.84975255E+03</pdfrwt>
<pdfrwt beam="2">  1       -2 0.20138643E-01 0.84975255E+03</pdfrwt>
<totfact> 0.40679910E+02</totfact>
</mgrwt>
</event>
<event>
 4    1  0.5886875E-005  0.7348768E+03  0.7818608E-02  0.9659380E-01
         -2   -1    0    0    0  501 -0.00000000000E+00  0.00000000000E+00  0.10316997455E+03  0.10316997458E+03  0.25500000000E-02 0. -1.
          2   -1    0    0  501    0  0.00000000000E+00 -0.00000000000E+00 -0.13086267520E+04  0.13086267520E+04  0.25500000000E-02 0.  1.
    5000001    1    1    2    0    0  0.13806906193E+03  0.25380583531E+03 -0.84714705563E+03  0.91459422793E+03  0.18800000000E+03 0.  0.
   -5000001    1    1    2    0    0 -0.13806906193E+03 -0.25380583531E+03 -0.35830972179E+03  0.49720249861E+03  0.18800000000E+03 0.  0.
<mgrwt>
<rscale>  0 0.73487683E+03</rscale>
<asrwt>0</asrwt>
<pdfrwt beam="1">  1        2 0.18694667E+00 0.73487683E+03</pdfrwt>
<pdfrwt beam="2">  1       -2 0.14738569E-01 0.73487683E+03</pdfrwt>
<totfact> 0.67493488E+02</totfact>
</mgrwt>
</event>
<event>
 4    1  0.5886875E-005  0.4560576E+03  0.7818608E-02  0.1025931E+00
          2   -1    0    0  501    0  0.00000000000E+00  0.00000000000E+00  0.30610792619E+04  0.30610792619E+04  0.25500000000E-02 0.  1.
         -2   -1    0    0    0  501 -0.00000000000E+00 -0.00000000000E+00 -0.16986532738E+02  0.16986532929E+02  0.25500000000E-02 0. -1.
    5000001    1    1    2    0    0  0.45540829972E+02 -0.11450501097E+03  0.12634719383E+04  0.12833123951E+04  0.18800000000E+03 0.  0.
   -5000001    1    1    2    0    0 -0.45540829972E+02  0.11450501097E+03  0.17806207909E+04  0.17947533997E+04  0.18800000000E+03 0.  0.
<mgrwt>
<rscale>  0 0.45605756E+03</rscale>
<asrwt>0</asrwt>
<pdfrwt beam="1">  1        2 0.43729744E+00 0.45605756E+03</pdfrwt>
<pdfrwt beam="2">  1       -2 0.24266453E-02 0.45605756E+03</pdfrwt>
<totfact> 0.14641688E+03</totfact>
</mgrwt>
</event>
<event>
 4    1  0.5886875E-005  0.4938294E+03  0.7818608E-02  0.1015402E+00
         -2   -1    0    0    0  501 -0.00000000000E+00  0.00000000000E+00  0.96017260769E+02  0.96017260803E+02  0.25500000000E-02 0.  1.
          2   -1    0    0  501    0  0.00000000000E+00 -0.00000000000E+00 -0.63495737780E+03  0.63495737780E+03  0.25500000000E-02 0. -1.
    5000001    1    1    2    0    0 -0.15183443983E+03  0.44001254567E+02 -0.30671334675E+03  0.39294641441E+03  0.18800000000E+03 0.  0.
   -5000001    1    1    2    0    0  0.15183443983E+03 -0.44001254567E+02 -0.23222677028E+03  0.33802822420E+03  0.18800000000E+03 0.  0.
<mgrwt>
<rscale>  0 0.49382940E+03</rscale>
<asrwt>0</asrwt>
<pdfrwt beam="1">  1        2 0.90708195E-01 0.49382940E+03</pdfrwt>
<pdfrwt beam="2">  1       -2 0.13716752E-01 0.49382940E+03</pdfrwt>
<totfact> 0.20576294E+03</totfact>
</mgrwt>
</event>
<event>
 4    1  0.5886875E-005  0.5326577E+03  0.7818608E-02  0.1005590E+00
         -2   -1    0    0    0  501 -0.00000000000E+00  0.00000000000E+00  0.24994634368E+03  0.24994634369E+03  0.25500000000E-02 0. -1.
          2   -1    0    0  501    0  0.00000000000E+00 -0.00000000000E+00 -0.28378515569E+03  0.28378515570E+03  0.25500000000E-02 0.  1.
    5000001    1    1    2    0    0 -0.14126384330E+03 -0.70006649265E+02  0.86878305413E+02  0.26028492910E+03  0.18800000000E+03 0.  0.
   -5000001    1    1    2    0    0  0.14126384330E+03  0.70006649265E+02 -0.12071711742E+03  0.27344657029E+03  0.18800000000E+03 0.  0.
<mgrwt>
<rscale>  0 0.53265772E+03</rscale>
<asrwt>0</asrwt>
<pdfrwt beam="1">  1        2 0.40540736E-01 0.53265772E+03</pdfrwt>
<pdfrwt beam="2">  1       -2 0.35706621E-01 0.53265772E+03</pdfrwt>
<totfact> 0.93766247E+02</totfact>
</mgrwt>
</event>
<event>
 4    1  0.5886875E-005  0.4877122E+03  0.7818608E-02  0.1017037E+00
          2   -1    0    0  501    0  0.00000000000E+00  0.00000000000E+00  0.29464311526E+04  0.29464311526E+04  0.25500000000E-02 0.  1.
         -2   -1    0    0    0  501 -0.00000000000E+00 -0.00000000000E+00 -0.20182315165E+02  0.20182315326E+02  0.25500000000E-02 0. -1.
    5000001    1    1    2    0    0  0.92807076314E+02 -0.99770059745E+02  0.19164634389E+04  0.19304774878E+04  0.18800000000E+03 0.  0.
   -5000001    1    1    2    0    0 -0.92807076314E+02  0.99770059745E+02  0.10097853985E+04  0.10361359801E+04  0.18800000000E+03 0.  0.
<mgrwt>
<rscale>  0 0.48771222E+03</rscale>
<asrwt>0</asrwt>
<pdfrwt beam="1">  1        2 0.42091897E+00 0.48771222E+03</pdfrwt>
<pdfrwt beam="2">  1       -2 0.28831863E-02 0.48771222E+03</pdfrwt>
<totfact> 0.12988559E+03</totfact>
</mgrwt>
</event>
<event>
 4    1  0.5886875E-005  0.9472161E+03  0.7818608E-02  0.9368411E-01
         -2   -1    0    0    0  501 -0.00000000000E+00  0.00000000000E+00  0.11576355356E+03  0.11576355358E+03  0.25500000000E-02 0. -1.
          2   -1    0    0  501    0  0.00000000000E+00 -0.00000000000E+00 -0.19376095068E+04  0.19376095068E+04  0.25500000000E-02 0.  1.
    5000001    1    1    2    0    0 -0.17719911852E+03  0.32341327033E+03 -0.14098222278E+04  0.14693326325E+04  0.18800000000E+03 0.  0.
   -5000001    1    1    2    0    0  0.17719911852E+03 -0.32341327033E+03 -0.41202372542E+03  0.58404042783E+03  0.18800000000E+03 0.  0.
<mgrwt>
<rscale>  0 0.94721605E+03</rscale>
<asrwt>0</asrwt>
<pdfrwt beam="1">  1        2 0.27680134E+00 0.94721605E+03</pdfrwt>
<pdfrwt beam="2">  1       -2 0.16537652E-01 0.94721605E+03</pdfrwt>
<totfact> 0.25763453E+02</totfact>
</mgrwt>
</event>
<event>
 4    1  0.5886875E-005  0.7443527E+03  0.7818608E-02  0.9644252E-01
         -2   -1    0    0    0  501 -0.00000000000E+00  0.00000000000E+00  0.75695429083E+02  0.75695429126E+02  0.25500000000E-02 0. -1.
          2   -1    0    0  501    0  0.00000000000E+00 -0.00000000000E+00 -0.18299022295E+04  0.18299022295E+04  0.25500000000E-02 0.  1.
    5000001    1    1    2    0    0  0.29971415686E+03  0.11156418035E+03 -0.80046810698E+03  0.88225185319E+03  0.18800000000E+03 0.  0.
   -5000001    1    1    2    0    0 -0.29971415686E+03 -0.11156418035E+03 -0.95373869344E+03  0.10233458054E+04  0.18800000000E+03 0.  0.
<mgrwt>
<rscale>  0 0.74435270E+03</rscale>
<asrwt>0</asrwt>
<pdfrwt beam="1">  1        2 0.26141458E+00 0.74435270E+03</pdfrwt>
<pdfrwt beam="2">  1       -2 0.10813634E-01 0.74435270E+03</pdfrwt>
<totfact> 0.60296854E+02</totfact>
</mgrwt>
</event>
<event>
 4    1  0.5886875E-005  0.5117015E+03  0.7818608E-02  0.1010769E+00
         -2   -1    0    0    0  501 -0.00000000000E+00  0.00000000000E+00  0.17277483373E+03  0.17277483374E+03  0.25500000000E-02 0. -1.
          2   -1    0    0  501    0  0.00000000000E+00 -0.00000000000E+00 -0.37887241103E+03  0.37887241104E+03  0.25500000000E-02 0.  1.
    5000001    1    1    2    0    0 -0.17062614017E+03  0.31441019589E+02 -0.10705367890E+03  0.27731986512E+03  0.18800000000E+03 0.  0.
   -5000001    1    1    2    0    0  0.17062614017E+03 -0.31441019589E+02 -0.99043898404E+02  0.27432737967E+03  0.18800000000E+03 0.  0.
<mgrwt>
<rscale>  0 0.51170155E+03</rscale>
<asrwt>0</asrwt>
<pdfrwt beam="1">  1        2 0.54124630E-01 0.51170155E+03</pdfrwt>
<pdfrwt beam="2">  1       -2 0.24682119E-01 0.51170155E+03</pdfrwt>
<totfact> 0.13458926E+03</totfact>
</mgrwt>
</event>
<event>
 4    1  0.5886875E-005  0.1269398E+04  0.7818608E-02  0.9054191E-01
         -2   -1    0    0    0  501 -0.00000000000E+00  0.00000000000E+00  0.52496842810E+03  0.52496842810E+03  0.25500000000E-02 0. -1.
          2   -1    0    0  501    0  0.00000000000E+00 -0.00000000000E+00 -0.76736575214E+03  0.76736575214E+03  0.25500000000E-02 0.  1.
    5000001    1    1    2    0    0 -0.40857299165E+03  0.44475500123E+03 -0.67714759990E+02  0.63613535458E+03  0.18800000000E+03 0.  0.
   -5000001    1    1    2    0    0  0.40857299165E+03 -0.44475500123E+03 -0.17468256405E+03  0.65619882567E+03  0.18800000000E+03 0.  0.
<mgrwt>
<rscale>  0 0.12693980E+04</rscale>
<asrwt>0</asrwt>
<pdfrwt beam="1">  1        2 0.10962368E+00 0.12693980E+04</pdfrwt>
<pdfrwt beam="2">  1       -2 0.74995490E-01 0.12693980E+04</pdfrwt>
<totfact> 0.62992719E+01</totfact>
</mgrwt>
</event>
<event>
 4    1  0.5886875E-005  0.7136841E+03  0.7818608E-02  0.9694113E-01
         -2   -1    0    0    0  501 -0.00000000000E+00  0.00000000000E+00  0.16132043378E+03  0.16132043380E+03  0.25500000000E-02 0. -1.
          2   -1    0    0  501    0  0.00000000000E+00 -0.00000000000E+00 -0.78933727319E+03  0.78933727319E+03  0.25500000000E-02 0.  1.
    5000001    1    1    2    0    0  0.27168962161E+03 -0.36681683333E+02 -0.48682235221E+03  0.58949198382E+03  0.18800000000E+03 0.  0.
   -5000001    1    1    2    0    0 -0.27168962161E+03  0.36681683333E+02 -0.14119448720E+03  0.36116572318E+03  0.18800000000E+03 0.  0.
<mgrwt>
<rscale>  0 0.71368405E+03</rscale>
<asrwt>0</asrwt>
<pdfrwt beam="1">  1        2 0.11276247E+00 0.71368405E+03</pdfrwt>
<pdfrwt beam="2">  1       -2 0.23045777E-01 0.71368405E+03</pdfrwt>
<totfact> 0.64405570E+02</totfact>
</mgrwt>
</event>
<event>
 4    1  0.5886875E-005  0.5347181E+03  0.7818608E-02  0.1005094E+00
          2   -1    0    0  501    0  0.00000000000E+00  0.00000000000E+00  0.39653136910E+04  0.39653136910E+04  0.25500000000E-02 0.  1.
         -2   -1    0    0    0  501 -0.00000000000E+00 -0.00000000000E+00 -0.18026534467E+02  0.18026534647E+02  0.25500000000E-02 0. -1.
    5000001    1    1    2    0    0 -0.77442677711E+02 -0.17069022675E+03  0.17375612838E+04  0.17577245907E+04  0.18800000000E+03 0.  0.
   -5000001    1    1    2    0    0  0.77442677711E+02  0.17069022675E+03  0.22097258728E+04  0.22256156350E+04  0.18800000000E+03 0.  0.
<mgrwt>
<rscale>  0 0.53471811E+03</rscale>
<asrwt>0</asrwt>
<pdfrwt beam="1">  1        2 0.56647304E+00 0.53471811E+03</pdfrwt>
<pdfrwt beam="2">  1       -2 0.25752208E-02 0.53471811E+03</pdfrwt>
<totfact> 0.38406538E+02</totfact>
</mgrwt>
</event>
<event>
 4    1  0.5886875E-005  0.5099484E+03  0.7818608E-02  0.1011214E+00
          2   -1    0    0  501    0  0.00000000000E+00  0.00000000000E+00  0.54822889263E+03  0.54822889264E+03  0.25500000000E-02 0.  1.
         -2   -1    0    0    0  501 -0.00000000000E+00 -0.00000000000E+00 -0.11858522756E+03  0.11858522759E+03  0.25500000000E-02 0. -1.
    5000001    1    1    2    0    0  0.15337423441E+03  0.48131541497E+02  0.29572002136E+03  0.38553162270E+03  0.18800000000E+03 0.  0.
   -5000001    1    1    2    0    0 -0.15337423441E+03 -0.48131541497E+02  0.13392364371E+03  0.28128249752E+03  0.18800000000E+03 0.  0.
<mgrwt>
<rscale>  0 0.50994842E+03</rscale>
<asrwt>0</asrwt>
<pdfrwt beam="1">  1        2 0.78318411E-01 0.50994842E+03</pdfrwt>
<pdfrwt beam="2">  1       -2 0.16940747E-01 0.50994842E+03</pdfrwt>
<totfact> 0.17129187E+03</totfact>
</mgrwt>
</event>
<event>
 4    1  0.5886875E-005  0.5279279E+03  0.7818608E-02  0.1006736E+00
          2   -1    0    0  501    0  0.00000000000E+00  0.00000000000E+00  0.14793017875E+04  0.14793017875E+04  0.25500000000E-02 0.  1.
         -2   -1    0    0    0  501 -0.00000000000E+00 -0.00000000000E+00 -0.47101255244E+02  0.47101255313E+02  0.25500000000E-02 0. -1.
    5000001    1    1    2    0    0  0.15321358037E+03 -0.84371435171E+02  0.53927993983E+03  0.59729372488E+03  0.18800000000E+03 0.  0.
   -5000001    1    1    2    0    0 -0.15321358037E+03  0.84371435171E+02  0.89292059238E+03  0.92910931788E+03  0.18800000000E+03 0.  0.
<mgrwt>
<rscale>  0 0.52792792E+03</rscale>
<asrwt>0</asrwt>
<pdfrwt beam="1">  1        2 0.21132885E+00 0.52792792E+03</pdfrwt>
<pdfrwt beam="2">  1       -2 0.67287501E-02 0.52792792E+03</pdfrwt>
<totfact> 0.19702506E+03</totfact>
</mgrwt>
</event>
<event>
 4    1  0.5886875E-005  0.6580243E+03  0.7818608E-02  0.9791838E-01
          2   -1    0    0  501    0  0.00000000000E+00  0.00000000000E+00  0.22382369967E+04  0.22382369967E+04  0.25500000000E-02 0.  1.
         -2   -1    0    0    0  501 -0.00000000000E+00 -0.00000000000E+00 -0.48363508991E+02  0.48363509058E+02  0.25500000000E-02 0. -1.
    5000001    1    1    2    0    0 -0.94903563395E+02  0.24823792248E+03  0.92914700600E+03  0.98452369767E+03  0.18800000000E+03 0.  0.
   -5000001    1    1    2    0    0  0.94903563395E+02 -0.24823792248E+03  0.12607264818E+04  0.13020768081E+04  0.18800000000E+03 0.  0.
<mgrwt>
<rscale>  0 0.65802430E+03</rscale>
<asrwt>0</asrwt>
<pdfrwt beam="1">  1        2 0.31974820E+00 0.65802430E+03</pdfrwt>
<pdfrwt beam="2">  1       -2 0.69090715E-02 0.65802430E+03</pdfrwt>
<totfact> 0.77475561E+02</totfact>
</mgrwt>
</event>
<event>
 4    1  0.5886875E-005  0.4984405E+03  0.7818608E-02  0.1014187E+00
          2   -1    0    0  501    0  0.00000000000E+00  0.00000000000E+00  0.58054095818E+03  0.58054095819E+03  0.25500000000E-02 0. -1.
         -2   -1    0    0    0  501 -0.00000000000E+00 -0.00000000000E+00 -0.10698768406E+03  0.10698768409E+03  0.25500000000E-02 0.  1.
    5000001    1    1    2    0    0 -0.16132070671E+03 -0.14676391988E+02  0.20511242673E+03  0.32195477089E+03  0.18800000000E+03 0.  0.
   -5000001    1    1    2    0    0  0.16132070671E+03  0.14676391988E+02  0.26844084739E+03  0.36557387139E+03  0.18800000000E+03 0.  0.
<mgrwt>
<rscale>  0 0.49844050E+03</rscale>
<asrwt>0</asrwt>
<pdfrwt beam="1">  1        2 0.82934423E-01 0.49844050E+03</pdfrwt>
<pdfrwt beam="2">  1       -2 0.15283955E-01 0.49844050E+03</pdfrwt>
<totfact> 0.19077107E+03</totfact>
</mgrwt>
</event>
<event>
 4    1  0.5886875E-005  0.4598310E+03  0.7818608E-02  0.1024830E+00
         -2   -1    0    0    0  501 -0.00000000000E+00  0.00000000000E+00  0.65894365052E+03  0.65894365052E+03  0.25500000000E-02 0. -1.
          2   -1    0    0  501    0  0.00000000000E+00 -0.00000000000E+00 -0.80221027056E+02  0.80221027097E+02  0.25500000000E-02 0.  1.
    5000001    1    1    2    0    0 -0.99675697858E+02 -0.24559281196E+02  0.42364747496E+03  0.47472053471E+03  0.18800000000E+03 0.  0.
   -5000001    1    1    2    0    0  0.99675697858E+02  0.24559281196E+02  0.15507514851E+03  0.26444414291E+03  0.18800000000E+03 0.  0.
<mgrwt>
<rscale>  0 0.45983100E+03</rscale>
<asrwt>0</asrwt>
<pdfrwt beam="1">  1        2 0.11460146E-01 0.45983100E+03</pdfrwt>
<pdfrwt beam="2">  1       -2 0.94134810E-01 0.45983100E+03</pdfrwt>
<totfact> 0.53690961E+02</totfact>
</mgrwt>
</event>
<event>
 4    1  0.5886875E-005  0.5898371E+03  0.7818608E-02  0.9926718E-01
         -2   -1    0    0    0  501 -0.00000000000E+00  0.00000000000E+00  0.18087977343E+03  0.18087977345E+03  0.25500000000E-02 0. -1.
          2   -1    0    0  501    0  0.00000000000E+00 -0.00000000000E+00 -0.48085499075E+03  0.48085499076E+03  0.25500000000E-02 0.  1.
    5000001    1    1    2    0    0  0.11404108303E+03  0.19272047561E+03 -0.19324083301E+03  0.35047477781E+03  0.18800000000E+03 0.  0.
   -5000001    1    1    2    0    0 -0.11404108303E+03 -0.19272047561E+03 -0.10673438431E+03  0.31125998640E+03  0.18800000000E+03 0.  0.
<mgrwt>
<rscale>  0 0.58983707E+03</rscale>
<asrwt>0</asrwt>
<pdfrwt beam="1">  1        2 0.68693569E-01 0.58983707E+03</pdfrwt>
<pdfrwt beam="2">  1       -2 0.25839968E-01 0.58983707E+03</pdfrwt>
<totfact> 0.94999003E+02</totfact>
</mgrwt>
</event>
<event>
 4    1  0.5886875E-005  0.5006571E+03  0.7818608E-02  0.1013608E+00
          2   -1    0    0  501    0  0.00000000000E+00  0.00000000000E+00  0.46410624356E+03  0.46410624357E+03  0.25500000000E-02 0.  1.
         -2   -1    0    0    0  501 -0.00000000000E+00 -0.00000000000E+00 -0.13502163456E+03  0.13502163458E+03  0.25500000000E-02 0. -1.
    5000001    1    1    2    0    0 -0.15385585997E+02 -0.12765075208E+03  0.40242972608E+02  0.23128970493E+03  0.18800000000E+03 0.  0.
   -5000001    1    1    2    0    0  0.15385585997E+02  0.12765075208E+03  0.28884163640E+03  0.36783817322E+03  0.18800000000E+03 0.  0.
<mgrwt>
<rscale>  0 0.50065710E+03</rscale>
<asrwt>0</asrwt>
<pdfrwt beam="1">  1        2 0.66300891E-01 0.50065710E+03</pdfrwt>
<pdfrwt beam="2">  1       -2 0.19288805E-01 0.50065710E+03</pdfrwt>
<totfact> 0.16563867E+03</totfact>
</mgrwt>
</event>
<event>
 4    1  0.5886875E-005  0.8925534E+03  0.7818608E-02  0.9434938E-01
         -2   -1    0    0    0  501 -0.00000000000E+00  0.00000000000E+00  0.49490579584E+03  0.49490579585E+03  0.25500000000E-02 0. -1.
          2   -1    0    0  501    0  0.00000000000E+00 -0.00000000000E+00 -0.40242589700E+03  0.40242589701E+03  0.25500000000E-02 0.  1.
    5000001    1    1    2    0    0  0.18776214753E+03 -0.31297112122E+03  0.22214337412E+03  0.46679462874E+03  0.18800000000E+03 0.  0.
   -5000001    1    1    2    0    0 -0.18776214753E+03  0.31297112122E+03 -0.12966347528E+03  0.43053706412E+03  0.18800000000E+03 0.  0.
<mgrwt>
<rscale>  0 0.89255344E+03</rscale>
<asrwt>0</asrwt>
<pdfrwt beam="1">  1        2 0.57489414E-01 0.89255344E+03</pdfrwt>
<pdfrwt beam="2">  1       -2 0.70700828E-01 0.89255344E+03</pdfrwt>
<totfact> 0.15688104E+02</totfact>
</mgrwt>
</event>
<event>
 4    1  0.5886875E-005  0.6686879E+03  0.7818608E-02  0.9772331E-01
         -2   -1    0    0    0  501 -0.00000000000E+00  0.00000000000E+00  0.19204787614E+03  0.19204787616E+03  0.25500000000E-02 0. -1.
          2   -1    0    0  501    0  0.00000000000E+00 -0.00000000000E+00 -0.58207298947E+03  0.58207298947E+03  0.25500000000E-02 0.  1.
    5000001    1    1    2    0    0  0.11327213145E+03  0.21052620870E+03 -0.34225290383E+02  0.30605102649E+03  0.18800000000E+03 0.  0.
   -5000001    1    1    2    0    0 -0.11327213145E+03 -0.21052620870E+03 -0.35579982294E+03  0.46806983914E+03  0.18800000000E+03 0.  0.
<mgrwt>
<rscale>  0 0.66868791E+03</rscale>
<asrwt>0</asrwt>
<pdfrwt beam="1">  1        2 0.83153283E-01 0.66868791E+03</pdfrwt>
<pdfrwt beam="2">  1       -2 0.27435411E-01 0.66868791E+03</pdfrwt>
<totfact> 0.68306902E+02</totfact>
</mgrwt>
</event>
<event>
 4    1  0.5886875E-005  0.4663740E+03  0.7818608E-02  0.1022949E+00
         -2   -1    0    0    0  501 -0.00000000000E+00  0.00000000000E+00  0.51457629046E+02  0.51457629110E+02  0.25500000000E-02 0. -1.
          2   -1    0    0  501    0  0.00000000000E+00 -0.00000000000E+00 -0.10567177000E+04  0.10567177000E+04  0.25500000000E-02 0.  1.
    5000001    1    1    2    0    0  0.12743601591E+03 -0.28233498863E+02 -0.60876500267E+03  0.65036597165E+03  0.18800000000E+03 0.  0.
   -5000001    1    1    2    0    0 -0.12743601591E+03  0.28233498863E+02 -0.39649506832E+03  0.45780935749E+03  0.18800000000E+03 0.  0.
<mgrwt>
<rscale>  0 0.46637404E+03</rscale>
<asrwt>0</asrwt>
<pdfrwt beam="1">  1        2 0.15095966E+00 0.46637404E+03</pdfrwt>
<pdfrwt beam="2">  1       -2 0.73510905E-02 0.46637404E+03</pdfrwt>
<totfact> 0.29230714E+03</totfact>
</mgrwt>
</event>
<event>
 4    1  0.5886875E-005  0.4327131E+03  0.7818608E-02  0.1033006E+00
         -2   -1    0    0    0  501 -0.00000000000E+00  0.00000000000E+00  0.49496868976E+02  0.49496869042E+02  0.25500000000E-02 0.  1.
          2   -1    0    0  501    0  0.00000000000E+00 -0.00000000000E+00 -0.94571936649E+03  0.94571936650E+03  0.25500000000E-02 0. -1.
    5000001    1    1    2    0    0 -0.81612729113E+02  0.42847382665E+02 -0.32277771197E+03  0.38474145487E+03  0.18800000000E+03 0.  0.
   -5000001    1    1    2    0    0  0.81612729113E+02 -0.42847382665E+02 -0.57344478555E+03  0.61047478067E+03  0.18800000000E+03 0.  0.
<mgrwt>
<rscale>  0 0.43271306E+03</rscale>
<asrwt>0</asrwt>
<pdfrwt beam="1">  1        2 0.13510276E+00 0.43271306E+03</pdfrwt>
<pdfrwt beam="2">  1       -2 0.70709819E-02 0.43271306E+03</pdfrwt>
<totfact> 0.36231458E+03</totfact>
</mgrwt>
</event>
<event>
 4    1  0.5886875E-005  0.6274417E+03  0.7818608E-02  0.9850054E-01
          2   -1    0    0  501    0  0.00000000000E+00  0.00000000000E+00  0.83973229997E+03  0.83973229997E+03  0.25500000000E-02 0.  1.
         -2   -1    0    0    0  501 -0.00000000000E+00 -0.00000000000E+00 -0.11720495010E+03  0.11720495013E+03  0.25500000000E-02 0. -1.
    5000001    1    1    2    0    0  0.24832066912E+03 -0.21066243846E+02  0.31376731526E+03  0.44260690174E+03  0.18800000000E+03 0.  0.
   -5000001    1    1    2    0    0 -0.24832066912E+03  0.21066243846E+02  0.40876003461E+03  0.51433034836E+03  0.18800000000E+03 0.  0.
<mgrwt>
<rscale>  0 0.62744173E+03</rscale>
<asrwt>0</asrwt>
<pdfrwt beam="1">  1        2 0.11996175E+00 0.62744173E+03</pdfrwt>
<pdfrwt beam="2">  1       -2 0.16743565E-01 0.62744173E+03</pdfrwt>
<totfact> 0.10395319E+03</totfact>
</mgrwt>
</event>
<event>
 4    1  0.5886875E-005  0.5427254E+03  0.7818608E-02  0.1003192E+00
          2   -1    0    0  501    0  0.00000000000E+00  0.00000000000E+00  0.71512397133E+03  0.71512397134E+03  0.25500000000E-02 0.  1.
         -2   -1    0    0    0  501 -0.00000000000E+00 -0.00000000000E+00 -0.10297195573E+03  0.10297195576E+03  0.25500000000E-02 0. -1.
    5000001    1    1    2    0    0 -0.53633173735E+02  0.15403327680E+03  0.46906148859E+03  0.53100418809E+03  0.18800000000E+03 0.  0.
   -5000001    1    1    2    0    0  0.53633173735E+02 -0.15403327680E+03  0.14309052701E+03  0.28709173901E+03  0.18800000000E+03 0.  0.
<mgrwt>
<rscale>  0 0.54272540E+03</rscale>
<asrwt>0</asrwt>
<pdfrwt beam="1">  1        2 0.10216057E+00 0.54272540E+03</pdfrwt>
<pdfrwt beam="2">  1       -2 0.14710280E-01 0.54272540E+03</pdfrwt>
<totfact> 0.15867172E+03</totfact>
</mgrwt>
</event>
<event>
 4    1  0.5886875E-005  0.6489569E+03  0.7818608E-02  0.9808738E-01
         -2   -1    0    0    0  501 -0.00000000000E+00  0.00000000000E+00  0.97589613722E+02  0.97589613755E+02  0.25500000000E-02 0. -1.
          2   -1    0    0  501    0  0.00000000000E+00 -0.00000000000E+00 -0.10788674992E+04  0.10788674992E+04  0.25500000000E-02 0.  1.
    5000001    1    1    2    0    0  0.51287378417E+02  0.73471665600E+02 -0.94171929955E+03  0.96447276788E+03  0.18800000000E+03 0.  0.
   -5000001    1    1    2    0    0 -0.51287378417E+02 -0.73471665600E+02 -0.39558585904E+02  0.21198434506E+03  0.18800000000E+03 0.  0.
<mgrwt>
<rscale>  0 0.64895689E+03</rscale>
<asrwt>0</asrwt>
<pdfrwt beam="1">  1        2 0.15412392E+00 0.64895689E+03</pdfrwt>
<pdfrwt beam="2">  1       -2 0.13941374E-01 0.64895689E+03</pdfrwt>
<totfact> 0.10025527E+03</totfact>
</mgrwt>
</event>
<event>
 4    1  0.5886875E-005  0.7272891E+03  0.7818608E-02  0.9671670E-01
         -2   -1    0    0    0  501 -0.00000000000E+00  0.00000000000E+00  0.46042496812E+02  0.46042496882E+02  0.25500000000E-02 0. -1.
          2   -1    0    0  501    0  0.00000000000E+00 -0.00000000000E+00 -0.28720720324E+04  0.28720720324E+04  0.25500000000E-02 0.  1.
    5000001    1    1    2    0    0 -0.27170898566E+03  0.99358926463E+02 -0.95211499667E+03  0.10127018002E+04  0.18800000000E+03 0.  0.
   -5000001    1    1    2    0    0  0.27170898566E+03 -0.99358926463E+02 -0.18739145389E+04  0.19054127291E+04  0.18800000000E+03 0.  0.
<mgrwt>
<rscale>  0 0.72728912E+03</rscale>
<asrwt>0</asrwt>
<pdfrwt beam="1">  1        2 0.41029589E+00 0.72728912E+03</pdfrwt>
<pdfrwt beam="2">  1       -2 0.65775014E-02 0.72728912E+03</pdfrwt>
<totfact> 0.39030994E+02</totfact>
</mgrwt>
</event>
<event>
 4    1  0.5886875E-005  0.4609963E+03  0.7818608E-02  0.1024493E+00
          2   -1    0    0  501    0  0.00000000000E+00  0.00000000000E+00  0.95899957821E+03  0.95899957821E+03  0.25500000000E-02 0.  1.
         -2   -1    0    0    0  501 -0.00000000000E+00 -0.00000000000E+00 -0.55400865307E+02  0.55400865366E+02  0.25500000000E-02 0. -1.
    5000001    1    1    2    0    0  0.86066386646E+02  0.21122615768E+02  0.23250556119E+03  0.31185962193E+03  0.18800000000E+03 0.  0.
   -5000001    1    1    2    0    0 -0.86066386646E+02 -0.21122615768E+02  0.67109315170E+03  0.70254082164E+03  0.18800000000E+03 0.  0.
<mgrwt>
<rscale>  0 0.46099634E+03</rscale>
<asrwt>0</asrwt>
<pdfrwt beam="1">  1        2 0.13699993E+00 0.46099634E+03</pdfrwt>
<pdfrwt beam="2">  1       -2 0.79144098E-02 0.46099634E+03</pdfrwt>
<totfact> 0.29781231E+03</totfact>
</mgrwt>
</event>
<event>
 4    1  0.5886875E-005  0.5417391E+03  0.7818608E-02  0.1003424E+00
         -2   -1    0    0    0  501 -0.00000000000E+00  0.00000000000E+00  0.18576622296E+02  0.18576622471E+02  0.25500000000E-02 0. -1.
          2   -1    0    0  501    0  0.00000000000E+00 -0.00000000000E+00 -0.39496048403E+04  0.39496048403E+04  0.25500000000E-02 0.  1.
    5000001    1    1    2    0    0 -0.11054284864E+03  0.13122133229E+03 -0.12867229510E+04  0.13116549516E+04  0.18800000000E+03 0.  0.
   -5000001    1    1    2    0    0  0.11054284864E+03 -0.13122133229E+03 -0.26443052670E+04  0.26565265112E+04  0.18800000000E+03 0.  0.
<mgrwt>
<rscale>  0 0.54173912E+03</rscale>
<asrwt>0</asrwt>
<pdfrwt beam="1">  1        2 0.56422873E+00 0.54173912E+03</pdfrwt>
<pdfrwt beam="2">  1       -2 0.26538057E-02 0.54173912E+03</pdfrwt>
<totfact> 0.37547391E+02</totfact>
</mgrwt>
</event>
<event>
 4    1  0.5886875E-005  0.4850396E+03  0.7818608E-02  0.1017759E+00
         -2   -1    0    0    0  501 -0.00000000000E+00  0.00000000000E+00  0.35312346589E+02  0.35312346681E+02  0.25500000000E-02 0. -1.
          2   -1    0    0  501    0  0.00000000000E+00 -0.00000000000E+00 -0.16655889336E+04  0.16655889336E+04  0.25500000000E-02 0.  1.
    5000001    1    1    2    0    0 -0.63542431078E+02  0.32003347518E+02 -0.12909430637E+04  0.13064990809E+04  0.18800000000E+03 0.  0.
   -5000001    1    1    2    0    0  0.63542431078E+02 -0.32003347518E+02 -0.33933352333E+03  0.39440219935E+03  0.18800000000E+03 0.  0.
<mgrwt>
<rscale>  0 0.48503960E+03</rscale>
<asrwt>0</asrwt>
<pdfrwt beam="1">  1        2 0.23794123E+00 0.48503960E+03</pdfrwt>
<pdfrwt beam="2">  1       -2 0.50446220E-02 0.48503960E+03</pdfrwt>
<totfact> 0.24792148E+03</totfact>
</mgrwt>
</event>
<event>
 4    1  0.5886875E-005  0.4566807E+03  0.7818608E-02  0.1025748E+00
          2   -1    0    0  501    0  0.00000000000E+00  0.00000000000E+00  0.74303423026E+02  0.74303423070E+02  0.25500000000E-02 0.  1.
         -2   -1    0    0    0  501 -0.00000000000E+00 -0.00000000000E+00 -0.70170802006E+03  0.70170802007E+03  0.25500000000E-02 0. -1.
    5000001    1    1    2    0    0  0.35223678886E+02  0.10437172806E+03 -0.19769062319E+03  0.29421037995E+03  0.18800000000E+03 0.  0.
   -5000001    1    1    2    0    0 -0.35223678886E+02 -0.10437172806E+03 -0.42971397384E+03  0.48180106319E+03  0.18800000000E+03 0.  0.
<mgrwt>
<rscale>  0 0.45668067E+03</rscale>
<asrwt>0</asrwt>
<pdfrwt beam="1">  1        2 0.10614775E-01 0.45668067E+03</pdfrwt>
<pdfrwt beam="2">  1       -2 0.10024400E+00 0.45668067E+03</pdfrwt>
<totfact> 0.51032716E+02</totfact>
</mgrwt>
</event>
<event>
 4    1  0.5886875E-005  0.3942685E+03  0.7818608E-02  0.1045783E+00
          2   -1    0    0  501    0  0.00000000000E+00  0.00000000000E+00  0.13126310453E+03  0.13126310455E+03  0.25500000000E-02 0.  1.
         -2   -1    0    0    0  501 -0.00000000000E+00 -0.00000000000E+00 -0.29606119838E+03  0.29606119839E+03  0.25500000000E-02 0. -1.
    5000001    1    1    2    0    0 -0.14679009692E+02  0.46622316325E+02 -0.11881349187E+03  0.22770542276E+03  0.18800000000E+03 0.  0.
   -5000001    1    1    2    0    0  0.14679009692E+02 -0.46622316325E+02 -0.45984601975E+02  0.19961888018E+03  0.18800000000E+03 0.  0.
<mgrwt>
<rscale>  0 0.39426850E+03</rscale>
<asrwt>0</asrwt>
<pdfrwt beam="1">  1        2 0.18751872E-01 0.39426850E+03</pdfrwt>
<pdfrwt beam="2">  1       -2 0.42294457E-01 0.39426850E+03</pdfrwt>
<totfact> 0.16128972E+03</totfact>
</mgrwt>
</event>
<event>
 4    1  0.5886875E-005  0.4303595E+03  0.7818608E-02  0.1033746E+00
         -2   -1    0    0    0  501 -0.00000000000E+00  0.00000000000E+00  0.47001815043E+02  0.47001815112E+02  0.25500000000E-02 0. -1.
          2   -1    0    0  501    0  0.00000000000E+00 -0.00000000000E+00 -0.98511764873E+03  0.98511764873E+03  0.25500000000E-02 0.  1.
    5000001    1    1    2    0    0 -0.96568941783E+02  0.40362322828E+02 -0.46448234320E+03  0.51190089350E+03  0.18800000000E+03 0.  0.
   -5000001    1    1    2    0    0  0.96568941783E+02 -0.40362322828E+02 -0.47363349048E+03  0.52021857034E+03  0.18800000000E+03 0.  0.
<mgrwt>
<rscale>  0 0.43035947E+03</rscale>
<asrwt>0</asrwt>
<pdfrwt beam="1">  1        2 0.14073108E+00 0.43035947E+03</pdfrwt>
<pdfrwt beam="2">  1       -2 0.67145456E-02 0.43035947E+03</pdfrwt>
<totfact> 0.37161741E+03</totfact>
</mgrwt>
</event>
<event>
 4    1  0.5886875E-005  0.5206690E+03  0.7818608E-02  0.1008520E+00
         -2   -1    0    0    0  501 -0.00000000000E+00  0.00000000000E+00  0.95837431966E+02  0.95837431999E+02  0.25500000000E-02 0. -1.
          2   -1    0    0  501    0  0.00000000000E+00 -0.00000000000E+00 -0.70717727080E+03  0.70717727081E+03  0.25500000000E-02 0.  1.
    5000001    1    1    2    0    0  0.96527870505E+02  0.37547442833E+02 -0.53287486847E+03  0.57447982183E+03  0.18800000000E+03 0.  0.
   -5000001    1    1    2    0    0 -0.96527870505E+02 -0.37547442833E+02 -0.78464970371E+02  0.22853488098E+03  0.18800000000E+03 0.  0.
<mgrwt>
<rscale>  0 0.52066901E+03</rscale>
<asrwt>0</asrwt>
<pdfrwt beam="1">  1        2 0.10102532E+00 0.52066901E+03</pdfrwt>
<pdfrwt beam="2">  1       -2 0.13691062E-01 0.52066901E+03</pdfrwt>
<totfact> 0.18135153E+03</totfact>
</mgrwt>
</event>
<event>
 4    1  0.5886875E-005  0.5713547E+03  0.7818608E-02  0.9966685E-01
         -2   -1    0    0    0  501 -0.00000000000E+00  0.00000000000E+00  0.12361144415E+03  0.12361144418E+03  0.25500000000E-02 0. -1.
          2   -1    0    0  501    0  0.00000000000E+00 -0.00000000000E+00 -0.66022645094E+03  0.66022645094E+03  0.25500000000E-02 0.  1.
    5000001    1    1    2    0    0  0.19837291422E+03 -0.50318701320E+02 -0.35914054539E+03  0.45410319988E+03  0.18800000000E+03 0.  0.
   -5000001    1    1    2    0    0 -0.19837291422E+03  0.50318701320E+02 -0.17747446140E+03  0.32973469524E+03  0.18800000000E+03 0.  0.
<mgrwt>
<rscale>  0 0.57135469E+03</rscale>
<asrwt>0</asrwt>
<pdfrwt beam="1">  1        2 0.94318063E-01 0.57135469E+03</pdfrwt>
<pdfrwt beam="2">  1       -2 0.17658778E-01 0.57135469E+03</pdfrwt>
<totfact> 0.12827365E+03</totfact>
</mgrwt>
</event>
<event>
 4    1  0.5886875E-005  0.6558996E+03  0.7818608E-02  0.9795771E-01
         -2   -1    0    0    0  501 -0.00000000000E+00  0.00000000000E+00  0.49887749873E+02  0.49887749938E+02  0.25500000000E-02 0. -1.
          2   -1    0    0  501    0  0.00000000000E+00 -0.00000000000E+00 -0.21558615764E+04  0.21558615764E+04  0.25500000000E-02 0.  1.
    5000001    1    1    2    0    0  0.25526182331E+03  0.34417826586E+02 -0.79546631875E+03  0.85700282934E+03  0.18800000000E+03 0.  0.
   -5000001    1    1    2    0    0 -0.25526182331E+03 -0.34417826586E+02 -0.13105075077E+04  0.13487464970E+04  0.18800000000E+03 0.  0.
<mgrwt>
<rscale>  0 0.65589964E+03</rscale>
<asrwt>0</asrwt>
<pdfrwt beam="1">  1        2 0.30798017E+00 0.65589964E+03</pdfrwt>
<pdfrwt beam="2">  1       -2 0.71268228E-02 0.65589964E+03</pdfrwt>
<totfact> 0.81191155E+02</totfact>
</mgrwt>
</event>
<event>
 4    1  0.5886875E-005  0.4704754E+03  0.7818608E-02  0.1021786E+00
         -2   -1    0    0    0  501 -0.00000000000E+00  0.00000000000E+00  0.98737440665E+02  0.98737440698E+02  0.25500000000E-02 0. -1.
          2   -1    0    0  501    0  0.00000000000E+00 -0.00000000000E+00 -0.56044367389E+03  0.56044367389E+03  0.25500000000E-02 0.  1.
    5000001    1    1    2    0    0 -0.85254992126E+02 -0.68811526411E+02 -0.10561886200E+03  0.24187348730E+03  0.18800000000E+03 0.  0.
   -5000001    1    1    2    0    0  0.85254992126E+02  0.68811526411E+02 -0.35608737123E+03  0.41730762729E+03  0.18800000000E+03 0.  0.
<mgrwt>
<rscale>  0 0.47047539E+03</rscale>
<asrwt>0</asrwt>
<pdfrwt beam="1">  1        2 0.80063380E-01 0.47047539E+03</pdfrwt>
<pdfrwt beam="2">  1       -2 0.14105349E-01 0.47047539E+03</pdfrwt>
<totfact> 0.22714621E+03</totfact>
</mgrwt>
</event>
<event>
 4    1  0.5886875E-005  0.4949283E+03  0.7818608E-02  0.1015111E+00
          2   -1    0    0  501    0  0.00000000000E+00  0.00000000000E+00  0.48737791846E+02  0.48737791913E+02  0.25500000000E-02 0.  1.
         -2   -1    0    0    0  501 -0.00000000000E+00 -0.00000000000E+00 -0.12564893013E+04  0.12564893013E+04  0.25500000000E-02 0. -1.
    5000001    1    1    2    0    0  0.14711838415E+03  0.21821931165E+02 -0.44185397923E+03  0.50269170929E+03  0.18800000000E+03 0.  0.
   -5000001    1    1    2    0    0 -0.14711838415E+03 -0.21821931165E+02 -0.76589753018E+03  0.80253538388E+03  0.18800000000E+03 0.  0.
<mgrwt>
<rscale>  0 0.49492833E+03</rscale>
<asrwt>0</asrwt>
<pdfrwt beam="1">  1        2 0.69625425E-02 0.49492833E+03</pdfrwt>
<pdfrwt beam="2">  1       -2 0.17949845E+00 0.49492833E+03</pdfrwt>
<totfact> 0.19874801E+02</totfact>
</mgrwt>
</event>
<event>
 4    1  0.5886875E-005  0.5008820E+03  0.7818608E-02  0.1013549E+00
         -2   -1    0    0    0  501 -0.00000000000E+00  0.00000000000E+00  0.24373829402E+02  0.24373829535E+02  0.25500000000E-02 0. -1.
          2   -1    0    0  501    0  0.00000000000E+00 -0.00000000000E+00 -0.25732804323E+04  0.25732804323E+04  0.25500000000E-02 0.  1.
    5000001    1    1    2    0    0 -0.65273495803E+02 -0.78133255173E+02 -0.19508698068E+04  0.19625499836E+04  0.18800000000E+03 0.  0.
   -5000001    1    1    2    0    0  0.65273495803E+02  0.78133255173E+02 -0.59803679607E+03  0.63510427826E+03  0.18800000000E+03 0.  0.
<mgrwt>
<rscale>  0 0.50088202E+03</rscale>
<asrwt>0</asrwt>
<pdfrwt beam="1">  1        2 0.36761132E+00 0.50088202E+03</pdfrwt>
<pdfrwt beam="2">  1       -2 0.34819773E-02 0.50088202E+03</pdfrwt>
<totfact> 0.15290318E+03</totfact>
</mgrwt>
</event>
<event>
 4    1  0.5886875E-005  0.4893540E+03  0.7818608E-02  0.1016596E+00
          2   -1    0    0  501    0  0.00000000000E+00  0.00000000000E+00  0.14252066317E+04  0.14252066317E+04  0.25500000000E-02 0.  1.
         -2   -1    0    0    0  501 -0.00000000000E+00 -0.00000000000E+00 -0.42005725568E+02  0.42005725645E+02  0.25500000000E-02 0. -1.
    5000001    1    1    2    0    0 -0.14589978121E+03 -0.51918426037E-01  0.86216159841E+03  0.89440112400E+03  0.18800000000E+03 0.  0.
   -5000001    1    1    2    0    0  0.14589978121E+03  0.51918426037E-01  0.52103930775E+03  0.57281123337E+03  0.18800000000E+03 0.  0.
<mgrwt>
<rscale>  0 0.48935402E+03</rscale>
<asrwt>0</asrwt>
<pdfrwt beam="1">  1        2 0.20360094E+00 0.48935402E+03</pdfrwt>
<pdfrwt beam="2">  1       -2 0.60008181E-02 0.48935402E+03</pdfrwt>
<totfact> 0.25173706E+03</totfact>
</mgrwt>
</event>
<event>
 4    1  0.5886875E-005  0.7545488E+03  0.7818608E-02  0.9628241E-01
         -2   -1    0    0    0  501 -0.00000000000E+00  0.00000000000E+00  0.69447082353E+03  0.69447082353E+03  0.25500000000E-02 0. -1.
          2   -1    0    0  501    0  0.00000000000E+00 -0.00000000000E+00 -0.20495600970E+03  0.20495600971E+03  0.25500000000E-02 0.  1.
    5000001    1    1    2    0    0  0.24327799023E+03 -0.18351829589E+03  0.38644489854E+03  0.52682711117E+03  0.18800000000E+03 0.  0.
   -5000001    1    1    2    0    0 -0.24327799023E+03  0.18351829589E+03  0.10306991530E+03  0.37259972208E+03  0.18800000000E+03 0.  0.
<mgrwt>
<rscale>  0 0.75454879E+03</rscale>
<asrwt>0</asrwt>
<pdfrwt beam="1">  1        2 0.29279429E-01 0.75454879E+03</pdfrwt>
<pdfrwt beam="2">  1       -2 0.99210119E-01 0.75454879E+03</pdfrwt>
<totfact> 0.15530595E+02</totfact>
</mgrwt>
</event>
<event>
 4    1  0.5886875E-005  0.4948126E+03  0.7818608E-02  0.1015142E+00
         -2   -1    0    0    0  501 -0.00000000000E+00  0.00000000000E+00  0.10429498725E+03  0.10429498728E+03  0.25500000000E-02 0. -1.
          2   -1    0    0  501    0  0.00000000000E+00 -0.00000000000E+00 -0.58689178768E+03  0.58689178768E+03  0.25500000000E-02 0.  1.
    5000001    1    1    2    0    0  0.32067755254E+02  0.15028432455E+03 -0.17500755183E+03  0.29930813943E+03  0.18800000000E+03 0.  0.
   -5000001    1    1    2    0    0 -0.32067755254E+02 -0.15028432455E+03 -0.30758924860E+03  0.39187863553E+03  0.18800000000E+03 0.  0.
<mgrwt>
<rscale>  0 0.49481258E+03</rscale>
<asrwt>0</asrwt>
<pdfrwt beam="1">  1        2 0.83841682E-01 0.49481258E+03</pdfrwt>
<pdfrwt beam="2">  1       -2 0.14899284E-01 0.49481258E+03</pdfrwt>
<totfact> 0.19659918E+03</totfact>
</mgrwt>
</event>
<event>
 4    1  0.5886875E-005  0.4576036E+03  0.7818608E-02  0.1025479E+00
         -2   -1    0    0    0  501 -0.00000000000E+00  0.00000000000E+00  0.28865277210E+02  0.28865277323E+02  0.25500000000E-02 0. -1.
          2   -1    0    0  501    0  0.00000000000E+00 -0.00000000000E+00 -0.18136064821E+04  0.18136064821E+04  0.25500000000E-02 0.  1.
    5000001    1    1    2    0    0  0.10355534129E+03  0.73314903038E+02 -0.10136613423E+04  0.10387261913E+04  0.18800000000E+03 0.  0.
   -5000001    1    1    2    0    0 -0.10355534129E+03 -0.73314903038E+02 -0.77107986266E+03  0.80374556815E+03  0.18800000000E+03 0.  0.
<mgrwt>
<rscale>  0 0.45760356E+03</rscale>
<asrwt>0</asrwt>
<pdfrwt beam="1">  1        2 0.25908657E+00 0.45760356E+03</pdfrwt>
<pdfrwt beam="2">  1       -2 0.41236122E-02 0.45760356E+03</pdfrwt>
<totfact> 0.28489715E+03</totfact>
</mgrwt>
</event>
<event>
 4    1  0.5886875E-005  0.6432169E+03  0.7818608E-02  0.9819591E-01
         -2   -1    0    0    0  501 -0.00000000000E+00  0.00000000000E+00  0.56627937533E+02  0.56627937591E+02  0.25500000000E-02 0. -1.
          2   -1    0    0  501    0  0.00000000000E+00 -0.00000000000E+00 -0.18265190555E+04  0.18265190555E+04  0.25500000000E-02 0.  1.
    5000001    1    1    2    0    0 -0.19674790083E+03  0.16579576383E+03 -0.75766510917E+03  0.82194792380E+03  0.18800000000E+03 0.  0.
   -5000001    1    1    2    0    0  0.19674790083E+03 -0.16579576383E+03 -0.10122260088E+04  0.10611990693E+04  0.18800000000E+03 0.  0.
<mgrwt>
<rscale>  0 0.64321694E+03</rscale>
<asrwt>0</asrwt>
<pdfrwt beam="1">  1        2 0.26093126E+00 0.64321694E+03</pdfrwt>
<pdfrwt beam="2">  1       -2 0.80897065E-02 0.64321694E+03</pdfrwt>
<totfact> 0.97332640E+02</totfact>
</mgrwt>
</event>
<event>
 4    1  0.5886875E-005  0.5428442E+03  0.7818608E-02  0.1003164E+00
         -2   -1    0    0    0  501 -0.00000000000E+00  0.00000000000E+00  0.19616087876E+02  0.19616088042E+02  0.25500000000E-02 0. -1.
          2   -1    0    0  501    0  0.00000000000E+00 -0.00000000000E+00 -0.37555889055E+04  0.37555889055E+04  0.25500000000E-02 0.  1.
    5000001    1    1    2    0    0  0.10645449441E+03  0.77891249842E+02 -0.86195364385E+03  0.89202448975E+03  0.18800000000E+03 0.  0.
   -5000001    1    1    2    0    0 -0.10645449441E+03 -0.77891249842E+02 -0.28740191738E+04  0.28831805038E+04  0.18800000000E+03 0.  0.
<mgrwt>
<rscale>  0 0.54284422E+03</rscale>
<asrwt>0</asrwt>
<pdfrwt beam="1">  1        2 0.53651224E+00 0.54284422E+03</pdfrwt>
<pdfrwt beam="2">  1       -2 0.28023007E-02 0.54284422E+03</pdfrwt>
<totfact> 0.46035649E+02</totfact>
</mgrwt>
</event>
<event>
 4    1  0.5886875E-005  0.6505443E+03  0.7818608E-02  0.9805758E-01
          2   -1    0    0  501    0  0.00000000000E+00  0.00000000000E+00  0.48810911446E+03  0.48810911446E+03  0.25500000000E-02 0.  1.
         -2   -1    0    0    0  501 -0.00000000000E+00 -0.00000000000E+00 -0.21675884650E+03  0.21675884652E+03  0.25500000000E-02 0. -1.
    5000001    1    1    2    0    0  0.16863865898E+03 -0.19465007929E+03  0.66040925499E+02  0.32562717103E+03  0.18800000000E+03 0.  0.
   -5000001    1    1    2    0    0 -0.16863865898E+03  0.19465007929E+03  0.20530934245E+03  0.37924078996E+03  0.18800000000E+03 0.  0.
<mgrwt>
<rscale>  0 0.65054429E+03</rscale>
<asrwt>0</asrwt>
<pdfrwt beam="1">  1        2 0.69729873E-01 0.65054429E+03</pdfrwt>
<pdfrwt beam="2">  1       -2 0.30965550E-01 0.65054429E+03</pdfrwt>
<totfact> 0.66990939E+02</totfact>
</mgrwt>
</event>
<event>
 4    1  0.5886875E-005  0.7002277E+03  0.7818608E-02  0.9716843E-01
          2   -1    0    0  501    0  0.00000000000E+00  0.00000000000E+00  0.37091165988E+04  0.37091165988E+04  0.25500000000E-02 0.  1.
         -2   -1    0    0    0  501 -0.00000000000E+00 -0.00000000000E+00 -0.33048223812E+02  0.33048223911E+02  0.25500000000E-02 0. -1.
    5000001    1    1    2    0    0 -0.10160299063E+03  0.18840563812E+03  0.75043976483E+03  0.80269775932E+03  0.18800000000E+03 0.  0.
   -5000001    1    1    2    0    0  0.10160299063E+03 -0.18840563812E+03  0.29256286101E+04  0.29394670634E+04  0.18800000000E+03 0.  0.
<mgrwt>
<rscale>  0 0.70022772E+03</rscale>
<asrwt>0</asrwt>
<pdfrwt beam="1">  1        2 0.52987327E+00 0.70022772E+03</pdfrwt>
<pdfrwt beam="2">  1       -2 0.47211795E-02 0.70022772E+03</pdfrwt>
<totfact> 0.21688520E+02</totfact>
</mgrwt>
</event>
<event>
 4    1  0.5886875E-005  0.4259812E+03  0.7818608E-02  0.1035137E+00
         -2   -1    0    0    0  501 -0.00000000000E+00  0.00000000000E+00  0.43353485933E+02  0.43353486008E+02  0.25500000000E-02 0. -1.
          2   -1    0    0  501    0  0.00000000000E+00 -0.00000000000E+00 -0.10463980299E+04  0.10463980299E+04  0.25500000000E-02 0.  1.
    5000001    1    1    2    0    0 -0.59112228238E+02  0.29150601409E+02 -0.69427301129E+03  0.72229012681E+03  0.18800000000E+03 0.  0.
   -5000001    1    1    2    0    0  0.59112228238E+02 -0.29150601409E+02 -0.30877153272E+03  0.36746138914E+03  0.18800000000E+03 0.  0.
<mgrwt>
<rscale>  0 0.42598123E+03</rscale>
<asrwt>0</asrwt>
<pdfrwt beam="1">  1        2 0.14948542E+00 0.42598123E+03</pdfrwt>
<pdfrwt beam="2">  1       -2 0.61933558E-02 0.42598123E+03</pdfrwt>
<totfact> 0.38745302E+03</totfact>
</mgrwt>
</event>
<event>
 4    1  0.5886875E-005  0.7327983E+03  0.7818608E-02  0.9662730E-01
          2   -1    0    0  501    0  0.00000000000E+00  0.00000000000E+00  0.10231251022E+04  0.10231251022E+04  0.25500000000E-02 0.  1.
         -2   -1    0    0    0  501 -0.00000000000E+00 -0.00000000000E+00 -0.13121400296E+03  0.13121400299E+03  0.25500000000E-02 0. -1.
    5000001    1    1    2    0    0  0.41795614317E+02 -0.26978520546E+03  0.20002804960E+03  0.38715132841E+03  0.18800000000E+03 0.  0.
   -5000001    1    1    2    0    0 -0.41795614317E+02  0.26978520546E+03  0.69188304962E+03  0.76718777676E+03  0.18800000000E+03 0.  0.
<mgrwt>
<rscale>  0 0.73279831E+03</rscale>
<asrwt>0</asrwt>
<pdfrwt beam="1">  1        2 0.14616072E+00 0.73279831E+03</pdfrwt>
<pdfrwt beam="2">  1       -2 0.18744859E-01 0.73279831E+03</pdfrwt>
<totfact> 0.65216451E+02</totfact>
</mgrwt>
</event>
<event>
 4    1  0.5886875E-005  0.4699662E+03  0.7818608E-02  0.1021930E+00
          2   -1    0    0  501    0  0.00000000000E+00  0.00000000000E+00  0.48806273798E+03  0.48806273798E+03  0.25500000000E-02 0.  1.
         -2   -1    0    0    0  501 -0.00000000000E+00 -0.00000000000E+00 -0.11313516965E+03  0.11313516968E+03  0.25500000000E-02 0. -1.
    5000001    1    1    2    0    0 -0.25764780993E+02 -0.10025502991E+03  0.65043024176E+02  0.22425318271E+03  0.18800000000E+03 0.  0.
   -5000001    1    1    2    0    0  0.25764780993E+02  0.10025502991E+03  0.30988454415E+03  0.37694472495E+03  0.18800000000E+03 0.  0.
<mgrwt>
<rscale>  0 0.46996621E+03</rscale>
<asrwt>0</asrwt>
<pdfrwt beam="1">  1        2 0.69723248E-01 0.46996621E+03</pdfrwt>
<pdfrwt beam="2">  1       -2 0.16162167E-01 0.46996621E+03</pdfrwt>
<totfact> 0.21161293E+03</totfact>
</mgrwt>
</event>
<event>
 4    1  0.5886875E-005  0.5347775E+03  0.7818608E-02  0.1005080E+00
         -2   -1    0    0    0  501 -0.00000000000E+00  0.00000000000E+00  0.29855000055E+02  0.29855000164E+02  0.25500000000E-02 0. -1.
          2   -1    0    0  501    0  0.00000000000E+00 -0.00000000000E+00 -0.23947997671E+04  0.23947997671E+04  0.25500000000E-02 0.  1.
    5000001    1    1    2    0    0 -0.16978922755E+03  0.80354984736E+02 -0.13160079590E+04  0.13425744871E+04  0.18800000000E+03 0.  0.
   -5000001    1    1    2    0    0  0.16978922755E+03 -0.80354984736E+02 -0.10489368080E+04  0.10820802801E+04  0.18800000000E+03 0.  0.
<mgrwt>
<rscale>  0 0.53477751E+03</rscale>
<asrwt>0</asrwt>
<pdfrwt beam="1">  1        2 0.34211413E+00 0.53477751E+03</pdfrwt>
<pdfrwt beam="2">  1       -2 0.42650016E-02 0.53477751E+03</pdfrwt>
<totfact> 0.13797875E+03</totfact>
</mgrwt>
</event>
<event>
 4    1  0.5886875E-005  0.4995025E+03  0.7818608E-02  0.1013909E+00
          2   -1    0    0  501    0  0.00000000000E+00  0.00000000000E+00  0.13626094668E+04  0.13626094668E+04  0.25500000000E-02 0.  1.
         -2   -1    0    0    0  501 -0.00000000000E+00 -0.00000000000E+00 -0.45776642521E+02  0.45776642592E+02  0.25500000000E-02 0. -1.
    5000001    1    1    2    0    0  0.61838476651E+02  0.13781209638E+03  0.47534968869E+03  0.53302673257E+03  0.18800000000E+03 0.  0.
   -5000001    1    1    2    0    0 -0.61838476651E+02 -0.13781209638E+03  0.84148313557E+03  0.87535937680E+03  0.18800000000E+03 0.  0.
<mgrwt>
<rscale>  0 0.49950250E+03</rscale>
<asrwt>0</asrwt>
<pdfrwt beam="1">  1        2 0.19465849E+00 0.49950250E+03</pdfrwt>
<pdfrwt beam="2">  1       -2 0.65395207E-02 0.49950250E+03</pdfrwt>
<totfact> 0.23745390E+03</totfact>
</mgrwt>
</event>
<event>
 4    1  0.5886875E-005  0.5524553E+03  0.7818608E-02  0.1000927E+00
          2   -1    0    0  501    0  0.00000000000E+00  0.00000000000E+00  0.31163854867E+04  0.31163854867E+04  0.25500000000E-02 0.  1.
         -2   -1    0    0    0  501 -0.00000000000E+00 -0.00000000000E+00 -0.24484042947E+02  0.24484043080E+02  0.25500000000E-02 0. -1.
    5000001    1    1    2    0    0 -0.18691528616E+02  0.19685730851E+03  0.17908504350E+04  0.18115163410E+04  0.18800000000E+03 0.  0.
   -5000001    1    1    2    0    0  0.18691528616E+02 -0.19685730851E+03  0.13010510088E+04  0.13293531888E+04  0.18800000000E+03 0.  0.
<mgrwt>
<rscale>  0 0.55245531E+03</rscale>
<asrwt>0</asrwt>
<pdfrwt beam="1">  1        2 0.44519824E+00 0.55245531E+03</pdfrwt>
<pdfrwt beam="2">  1       -2 0.34977180E-02 0.55245531E+03</pdfrwt>
<totfact> 0.77811158E+02</totfact>
</mgrwt>
</event>
<event>
 4    1  0.5886875E-005  0.5215853E+03  0.7818608E-02  0.1008294E+00
         -2   -1    0    0    0  501 -0.00000000000E+00  0.00000000000E+00  0.36736135537E+02  0.36736135625E+02  0.25500000000E-02 0. -1.
          2   -1    0    0  501    0  0.00000000000E+00 -0.00000000000E+00 -0.18513867798E+04  0.18513867798E+04  0.25500000000E-02 0.  1.
    5000001    1    1    2    0    0 -0.16115518406E+03  0.78777404721E+02 -0.82703679707E+03  0.86689718915E+03  0.18800000000E+03 0.  0.
   -5000001    1    1    2    0    0  0.16115518406E+03 -0.78777404721E+02 -0.98761384715E+03  0.10212257262E+04  0.18800000000E+03 0.  0.
<mgrwt>
<rscale>  0 0.52158526E+03</rscale>
<asrwt>0</asrwt>
<pdfrwt beam="1">  1        2 0.26448377E+00 0.52158526E+03</pdfrwt>
<pdfrwt beam="2">  1       -2 0.52480206E-02 0.52158526E+03</pdfrwt>
<totfact> 0.18781731E+03</totfact>
</mgrwt>
</event>
<event>
 4    1  0.5886875E-005  0.5395948E+03  0.7818608E-02  0.1003931E+00
          2   -1    0    0  501    0  0.00000000000E+00  0.00000000000E+00  0.93408439101E+03  0.93408439101E+03  0.25500000000E-02 0.  1.
         -2   -1    0    0    0  501 -0.00000000000E+00 -0.00000000000E+00 -0.77927258493E+02  0.77927258535E+02  0.25500000000E-02 0. -1.
    5000001    1    1    2    0    0 -0.18808648575E+03 -0.23327673052E+02  0.50134161293E+03  0.56798602035E+03  0.18800000000E+03 0.  0.
   -5000001    1    1    2    0    0  0.18808648575E+03  0.23327673052E+02  0.35481551958E+03  0.44402562920E+03  0.18800000000E+03 0.  0.
<mgrwt>
<rscale>  0 0.53959480E+03</rscale>
<asrwt>0</asrwt>
<pdfrwt beam="1">  1        2 0.13344063E+00 0.53959480E+03</pdfrwt>
<pdfrwt beam="2">  1       -2 0.11132465E-01 0.53959480E+03</pdfrwt>
<totfact> 0.17842394E+03</totfact>
</mgrwt>
</event>
<event>
 4    1  0.5886875E-005  0.7038036E+03  0.7818608E-02  0.9710750E-01
          2   -1    0    0  501    0  0.00000000000E+00  0.00000000000E+00  0.11495572724E+04  0.11495572724E+04  0.25500000000E-02 0.  1.
         -2   -1    0    0    0  501 -0.00000000000E+00 -0.00000000000E+00 -0.10772397657E+03  0.10772397660E+03  0.25500000000E-02 0. -1.
    5000001    1    1    2    0    0 -0.11252628870E+02 -0.21024220132E+03  0.14550507705E+03  0.31755965159E+03  0.18800000000E+03 0.  0.
   -5000001    1    1    2    0    0  0.11252628870E+02  0.21024220132E+03  0.89632821873E+03  0.93972159737E+03  0.18800000000E+03 0.  0.
<mgrwt>
<rscale>  0 0.70380361E+03</rscale>
<asrwt>0</asrwt>
<pdfrwt beam="1">  1        2 0.16422246E+00 0.70380361E+03</pdfrwt>
<pdfrwt beam="2">  1       -2 0.15389140E-01 0.70380361E+03</pdfrwt>
<totfact> 0.77096845E+02</totfact>
</mgrwt>
</event>
<event>
 4    1  0.5886875E-005  0.5785569E+03  0.7818608E-02  0.9950920E-01
         -2   -1    0    0    0  501 -0.00000000000E+00  0.00000000000E+00  0.74394161869E+02  0.74394161912E+02  0.25500000000E-02 0. -1.
          2   -1    0    0  501    0  0.00000000000E+00 -0.00000000000E+00 -0.11248466437E+04  0.11248466437E+04  0.25500000000E-02 0.  1.
    5000001    1    1    2    0    0  0.16954572213E+03  0.13968283978E+03 -0.54387876682E+03  0.61595873288E+03  0.18800000000E+03 0.  0.
   -5000001    1    1    2    0    0 -0.16954572213E+03 -0.13968283978E+03 -0.50657371499E+03  0.58328207271E+03  0.18800000000E+03 0.  0.
<mgrwt>
<rscale>  0 0.57855691E+03</rscale>
<asrwt>0</asrwt>
<pdfrwt beam="1">  1        2 0.16069237E+00 0.57855691E+03</pdfrwt>
<pdfrwt beam="2">  1       -2 0.10627738E-01 0.57855691E+03</pdfrwt>
<totfact> 0.14776195E+03</totfact>
</mgrwt>
</event>
<event>
 4    1  0.5886875E-005  0.6525845E+03  0.7818608E-02  0.9801942E-01
         -2   -1    0    0    0  501 -0.00000000000E+00  0.00000000000E+00  0.22196539856E+03  0.22196539857E+03  0.25500000000E-02 0. -1.
          2   -1    0    0  501    0  0.00000000000E+00 -0.00000000000E+00 -0.47965415202E+03  0.47965415203E+03  0.25500000000E-02 0.  1.
    5000001    1    1    2    0    0 -0.12412307081E+02  0.26127661955E+03 -0.18474221517E+03  0.37133976808E+03  0.18800000000E+03 0.  0.
   -5000001    1    1    2    0    0  0.12412307081E+02 -0.26127661955E+03 -0.72946538289E+02  0.33027978252E+03  0.18800000000E+03 0.  0.
<mgrwt>
<rscale>  0 0.65258448E+03</rscale>
<asrwt>0</asrwt>
<pdfrwt beam="1">  1        2 0.68522021E-01 0.65258448E+03</pdfrwt>
<pdfrwt beam="2">  1       -2 0.31709343E-01 0.65258448E+03</pdfrwt>
<totfact> 0.65374712E+02</totfact>
</mgrwt>
</event>
<event>
 4    1  0.5886875E-005  0.7009539E+03  0.7818608E-02  0.9715602E-01
         -2   -1    0    0    0  501 -0.00000000000E+00  0.00000000000E+00  0.10639298652E+04  0.10639298652E+04  0.25500000000E-02 0. -1.
          2   -1    0    0  501    0  0.00000000000E+00 -0.00000000000E+00 -0.11545317964E+03  0.11545317966E+03  0.25500000000E-02 0.  1.
    5000001    1    1    2    0    0  0.89234604916E+02 -0.26003519040E+03  0.29062571235E+03  0.44202762316E+03  0.18800000000E+03 0.  0.
   -5000001    1    1    2    0    0 -0.89234604916E+02  0.26003519040E+03  0.65785097323E+03  0.73735542172E+03  0.18800000000E+03 0.  0.
<mgrwt>
<rscale>  0 0.70095388E+03</rscale>
<asrwt>0</asrwt>
<pdfrwt beam="1">  1        2 0.16493311E-01 0.70095388E+03</pdfrwt>
<pdfrwt beam="2">  1       -2 0.15198999E+00 0.70095388E+03</pdfrwt>
<totfact> 0.10480580E+02</totfact>
</mgrwt>
</event>
<event>
 4    1  0.5886875E-005  0.4968812E+03  0.7818608E-02  0.1014596E+00
         -2   -1    0    0    0  501 -0.00000000000E+00  0.00000000000E+00  0.22353011085E+03  0.22353011087E+03  0.25500000000E-02 0. -1.
          2   -1    0    0  501    0  0.00000000000E+00 -0.00000000000E+00 -0.27612719232E+03  0.27612719233E+03  0.25500000000E-02 0.  1.
    5000001    1    1    2    0    0 -0.38771190673E+02  0.15733684313E+03 -0.15252888398E+02  0.24866591651E+03  0.18800000000E+03 0.  0.
   -5000001    1    1    2    0    0  0.38771190673E+02 -0.15733684313E+03 -0.37344193068E+02  0.25099138668E+03  0.18800000000E+03 0.  0.
<mgrwt>
<rscale>  0 0.49688124E+03</rscale>
<asrwt>0</asrwt>
<pdfrwt beam="1">  1        2 0.39446742E-01 0.49688124E+03</pdfrwt>
<pdfrwt beam="2">  1       -2 0.31932873E-01 0.49688124E+03</pdfrwt>
<totfact> 0.11918673E+03</totfact>
</mgrwt>
</event>
<event>
 4    1  0.5886875E-005  0.5018679E+03  0.7818608E-02  0.1013293E+00
          2   -1    0    0  501    0  0.00000000000E+00  0.00000000000E+00  0.57509254976E+03  0.57509254976E+03  0.25500000000E-02 0.  1.
         -2   -1    0    0    0  501 -0.00000000000E+00 -0.00000000000E+00 -0.10949166053E+03  0.10949166056E+03  0.25500000000E-02 0. -1.
    5000001    1    1    2    0    0  0.14066601735E+03  0.37363837672E+02  0.34227399398E+03  0.41674749160E+03  0.18800000000E+03 0.  0.
   -5000001    1    1    2    0    0 -0.14066601735E+03 -0.37363837672E+02  0.12332689525E+03  0.26783671872E+03  0.18800000000E+03 0.  0.
<mgrwt>
<rscale>  0 0.50186786E+03</rscale>
<asrwt>0</asrwt>
<pdfrwt beam="1">  1        2 0.82156079E-01 0.50186786E+03</pdfrwt>
<pdfrwt beam="2">  1       -2 0.15641666E-01 0.50186786E+03</pdfrwt>
<totfact> 0.18551198E+03</totfact>
</mgrwt>
</event>
<event>
 4    1  0.5886875E-005  0.4305638E+03  0.7818608E-02  0.1033682E+00
         -2   -1    0    0    0  501 -0.00000000000E+00  0.00000000000E+00  0.24684381638E+02  0.24684381769E+02  0.25500000000E-02 0. -1.
          2   -1    0    0  501    0  0.00000000000E+00 -0.00000000000E+00 -0.18775556641E+04  0.18775556641E+04  0.25500000000E-02 0.  1.
    5000001    1    1    2    0    0 -0.45694961715E+02 -0.92363116364E+02 -0.83993648589E+03  0.86686577688E+03  0.18800000000E+03 0.  0.
   -5000001    1    1    2    0    0  0.45694961715E+02  0.92363116364E+02 -0.10129347966E+04  0.10353742690E+04  0.18800000000E+03 0.  0.
<mgrwt>
<rscale>  0 0.43056382E+03</rscale>
<asrwt>0</asrwt>
<pdfrwt beam="1">  1        2 0.26822215E+00 0.43056382E+03</pdfrwt>
<pdfrwt beam="2">  1       -2 0.35263414E-02 0.43056382E+03</pdfrwt>
<totfact> 0.33613078E+03</totfact>
</mgrwt>
</event>
<event>
 4    1  0.5886875E-005  0.4566335E+03  0.7818608E-02  0.1025762E+00
          2   -1    0    0  501    0  0.00000000000E+00  0.00000000000E+00  0.42415418905E+03  0.42415418906E+03  0.25500000000E-02 0.  1.
         -2   -1    0    0    0  501 -0.00000000000E+00 -0.00000000000E+00 -0.12289995953E+03  0.12289995956E+03  0.25500000000E-02 0. -1.
    5000001    1    1    2    0    0 -0.92367123150E+02  0.88468239695E+02  0.12589402555E+03  0.25990694593E+03  0.18800000000E+03 0.  0.
   -5000001    1    1    2    0    0  0.92367123150E+02 -0.88468239695E+02  0.17536020397E+03  0.28714720268E+03  0.18800000000E+03 0.  0.
<mgrwt>
<rscale>  0 0.45663348E+03</rscale>
<asrwt>0</asrwt>
<pdfrwt beam="1">  1        2 0.60593457E-01 0.45663348E+03</pdfrwt>
<pdfrwt beam="2">  1       -2 0.17557137E-01 0.45663348E+03</pdfrwt>
<totfact> 0.21499692E+03</totfact>
</mgrwt>
</event>
<event>
 4    1  0.5886875E-005  0.4382258E+03  0.7818608E-02  0.1031293E+00
         -2   -1    0    0    0  501 -0.00000000000E+00  0.00000000000E+00  0.11861173448E+03  0.11861173450E+03  0.25500000000E-02 0. -1.
          2   -1    0    0  501    0  0.00000000000E+00 -0.00000000000E+00 -0.40476996691E+03  0.40476996692E+03  0.25500000000E-02 0.  1.
    5000001    1    1    2    0    0  0.79443254585E+02  0.61861769300E+02 -0.83025396953E+02  0.22885656149E+03  0.18800000000E+03 0.  0.
   -5000001    1    1    2    0    0 -0.79443254585E+02 -0.61861769300E+02 -0.20313283548E+03  0.29452513993E+03  0.18800000000E+03 0.  0.
<mgrwt>
<rscale>  0 0.43822582E+03</rscale>
<asrwt>0</asrwt>
<pdfrwt beam="1">  1        2 0.57824281E-01 0.43822582E+03</pdfrwt>
<pdfrwt beam="2">  1       -2 0.16944534E-01 0.43822582E+03</pdfrwt>
<totfact> 0.24035528E+03</totfact>
</mgrwt>
</event>
<event>
 4    1  0.5886875E-005  0.8862975E+03  0.7818608E-02  0.9442874E-01
          2   -1    0    0  501    0  0.00000000000E+00  0.00000000000E+00  0.27897775467E+04  0.27897775467E+04  0.25500000000E-02 0.  1.
         -2   -1    0    0    0  501 -0.00000000000E+00 -0.00000000000E+00 -0.70393002150E+02  0.70393002196E+02  0.25500000000E-02 0. -1.
    5000001    1    1    2    0    0 -0.25882621625E+03  0.19898446702E+03  0.60665705376E+03  0.71411666358E+03  0.18800000000E+03 0.  0.
   -5000001    1    1    2    0    0  0.25882621625E+03 -0.19898446702E+03  0.21127274908E+04  0.21460538853E+04  0.18800000000E+03 0.  0.
<mgrwt>
<rscale>  0 0.88629751E+03</rscale>
<asrwt>0</asrwt>
<pdfrwt beam="1">  1        2 0.39853973E+00 0.88629751E+03</pdfrwt>
<pdfrwt beam="2">  1       -2 0.10056141E-01 0.88629751E+03</pdfrwt>
<totfact> 0.21545638E+02</totfact>
</mgrwt>
</event>
<event>
 4    1  0.5886875E-005  0.7621777E+03  0.7818608E-02  0.9616437E-01
         -2   -1    0    0    0  501 -0.00000000000E+00  0.00000000000E+00  0.87743046666E+02  0.87743046703E+02  0.25500000000E-02 0. -1.
          2   -1    0    0  501    0  0.00000000000E+00 -0.00000000000E+00 -0.16551589937E+04  0.16551589937E+04  0.25500000000E-02 0.  1.
    5000001    1    1    2    0    0 -0.10488962380E+03 -0.29224164965E+03 -0.51823256073E+03  0.63270530421E+03  0.18800000000E+03 0.  0.
   -5000001    1    1    2    0    0  0.10488962380E+03  0.29224164965E+03 -0.10491833863E+04  0.11101967362E+04  0.18800000000E+03 0.  0.
<mgrwt>
<rscale>  0 0.76217765E+03</rscale>
<asrwt>0</asrwt>
<pdfrwt beam="1">  1        2 0.23645127E+00 0.76217765E+03</pdfrwt>
<pdfrwt beam="2">  1       -2 0.12534722E-01 0.76217765E+03</pdfrwt>
<totfact> 0.57995724E+02</totfact>
</mgrwt>
</event>
<event>
 4    1  0.5886875E-005  0.7366007E+03  0.7818608E-02  0.9656609E-01
          2   -1    0    0  501    0  0.00000000000E+00  0.00000000000E+00  0.28160893116E+04  0.28160893116E+04  0.25500000000E-02 0.  1.
         -2   -1    0    0    0  501 -0.00000000000E+00 -0.00000000000E+00 -0.48167910406E+02  0.48167910474E+02  0.25500000000E-02 0. -1.
    5000001    1    1    2    0    0 -0.19952660728E+03  0.24509323220E+03  0.14636108142E+04  0.15090997896E+04  0.18800000000E+03 0.  0.
   -5000001    1    1    2    0    0  0.19952660728E+03 -0.24509323220E+03  0.13043105869E+04  0.13551574324E+04  0.18800000000E+03 0.  0.
<mgrwt>
<rscale>  0 0.73660067E+03</rscale>
<asrwt>0</asrwt>
<pdfrwt beam="1">  1        2 0.40229869E+00 0.73660067E+03</pdfrwt>
<pdfrwt beam="2">  1       -2 0.68811263E-02 0.73660067E+03</pdfrwt>
<totfact> 0.38905936E+02</totfact>
</mgrwt>
</event>
<event>
 4    1  0.5886875E-005  0.5879119E+03  0.7818608E-02  0.9930807E-01
          2   -1    0    0  501    0  0.00000000000E+00  0.00000000000E+00  0.93114596511E+03  0.93114596511E+03  0.25500000000E-02 0.  1.
         -2   -1    0    0    0  501 -0.00000000000E+00 -0.00000000000E+00 -0.92799749500E+02  0.92799749535E+02  0.25500000000E-02 0. -1.
    5000001    1    1    2    0    0  0.21020398238E+03 -0.39322477215E+02  0.54637597311E+03  0.61611904321E+03  0.18800000000E+03 0.  0.
   -5000001    1    1    2    0    0 -0.21020398238E+03  0.39322477215E+02  0.29197024251E+03  0.40782667143E+03  0.18800000000E+03 0.  0.
<mgrwt>
<rscale>  0 0.58791194E+03</rscale>
<asrwt>0</asrwt>
<pdfrwt beam="1">  1        2 0.13302086E+00 0.58791194E+03</pdfrwt>
<pdfrwt beam="2">  1       -2 0.13257107E-01 0.58791194E+03</pdfrwt>
<totfact> 0.13433134E+03</totfact>
</mgrwt>
</event>
<event>
 4    1  0.5886875E-005  0.1010062E+04  0.7818608E-02  0.9297577E-01
         -2   -1    0    0    0  501 -0.00000000000E+00  0.00000000000E+00  0.29918618380E+03  0.29918618381E+03  0.25500000000E-02 0. -1.
          2   -1    0    0  501    0  0.00000000000E+00 -0.00000000000E+00 -0.85250008004E+03  0.85250008005E+03  0.25500000000E-02 0.  1.
    5000001    1    1    2    0    0  0.36364495897E+03 -0.26761362133E+03 -0.42024030611E+03  0.64482603963E+03  0.18800000000E+03 0.  0.
   -5000001    1    1    2    0    0 -0.36364495897E+03  0.26761362133E+03 -0.13307359013E+03  0.50686022422E+03  0.18800000000E+03 0.  0.
<mgrwt>
<rscale>  0 0.10100619E+04</rscale>
<asrwt>0</asrwt>
<pdfrwt beam="1">  1        2 0.12178572E+00 0.10100619E+04</pdfrwt>
<pdfrwt beam="2">  1       -2 0.42740884E-01 0.10100619E+04</pdfrwt>
<totfact> 0.18089985E+02</totfact>
</mgrwt>
</event>
<event>
 4    1  0.5886875E-005  0.9372780E+03  0.7818608E-02  0.9380145E-01
          2   -1    0    0  501    0  0.00000000000E+00  0.00000000000E+00  0.16814483486E+03  0.16814483488E+03  0.25500000000E-02 0.  1.
         -2   -1    0    0    0  501 -0.00000000000E+00 -0.00000000000E+00 -0.13061509337E+04  0.13061509337E+04  0.25500000000E-02 0. -1.
    5000001    1    1    2    0    0 -0.10952473701E+03 -0.39577336591E+03 -0.37224971040E+03  0.58527435624E+03  0.18800000000E+03 0.  0.
   -5000001    1    1    2    0    0  0.10952473701E+03  0.39577336591E+03 -0.76575638848E+03  0.88902141238E+03  0.18800000000E+03 0.  0.
<mgrwt>
<rscale>  0 0.93727804E+03</rscale>
<asrwt>0</asrwt>
<pdfrwt beam="1">  1        2 0.24020691E-01 0.93727804E+03</pdfrwt>
<pdfrwt beam="2">  1       -2 0.18659298E+00 0.93727804E+03</pdfrwt>
<totfact> 0.37654073E+01</totfact>
</mgrwt>
</event>
<event>
 4    1  0.5886875E-005  0.4840314E+03  0.7818608E-02  0.1018033E+00
          2   -1    0    0  501    0  0.00000000000E+00  0.00000000000E+00  0.19654128354E+04  0.19654128354E+04  0.25500000000E-02 0.  1.
         -2   -1    0    0    0  501 -0.00000000000E+00 -0.00000000000E+00 -0.29801163566E+02  0.29801163675E+02  0.25500000000E-02 0. -1.
    5000001    1    1    2    0    0 -0.69761022749E+02  0.93054642472E+02  0.56179030195E+03  0.60372022506E+03  0.18800000000E+03 0.  0.
   -5000001    1    1    2    0    0  0.69761022749E+02 -0.93054642472E+02  0.13738213699E+04  0.13914937741E+04  0.18800000000E+03 0.  0.
<mgrwt>
<rscale>  0 0.48403136E+03</rscale>
<asrwt>0</asrwt>
<pdfrwt beam="1">  1        2 0.28077341E+00 0.48403136E+03</pdfrwt>
<pdfrwt beam="2">  1       -2 0.42573069E-02 0.48403136E+03</pdfrwt>
<totfact> 0.22772026E+03</totfact>
</mgrwt>
</event>
<event>
 4    1  0.5886875E-005  0.5268107E+03  0.7818608E-02  0.1007009E+00
         -2   -1    0    0    0  501 -0.00000000000E+00  0.00000000000E+00  0.66681360439E+02  0.66681360487E+02  0.25500000000E-02 0. -1.
          2   -1    0    0  501    0  0.00000000000E+00 -0.00000000000E+00 -0.10405064794E+04  0.10405064794E+04  0.25500000000E-02 0.  1.
    5000001    1    1    2    0    0 -0.18380760965E+03  0.58465517305E+01 -0.51801232433E+03  0.58094766347E+03  0.18800000000E+03 0.  0.
   -5000001    1    1    2    0    0  0.18380760965E+03 -0.58465517305E+01 -0.45581279463E+03  0.52624017642E+03  0.18800000000E+03 0.  0.
<mgrwt>
<rscale>  0 0.52681073E+03</rscale>
<asrwt>0</asrwt>
<pdfrwt beam="1">  1        2 0.14864377E+00 0.52681073E+03</pdfrwt>
<pdfrwt beam="2">  1       -2 0.95259093E-02 0.52681073E+03</pdfrwt>
<totfact> 0.19776270E+03</totfact>
</mgrwt>
</event>
<event>
 4    1  0.5886875E-005  0.9014927E+03  0.7818608E-02  0.9423717E-01
          2   -1    0    0  501    0  0.00000000000E+00  0.00000000000E+00  0.46867052987E+03  0.46867052987E+03  0.25500000000E-02 0.  1.
         -2   -1    0    0    0  501 -0.00000000000E+00 -0.00000000000E+00 -0.43350764266E+03  0.43350764267E+03  0.25500000000E-02 0. -1.
    5000001    1    1    2    0    0 -0.36527122425E+03  0.16275665784E+03 -0.71455078516E+02  0.44761883917E+03  0.18800000000E+03 0.  0.
   -5000001    1    1    2    0    0  0.36527122425E+03 -0.16275665784E+03  0.10661796572E+03  0.45455933337E+03  0.18800000000E+03 0.  0.
<mgrwt>
<rscale>  0 0.90149267E+03</rscale>
<asrwt>0</asrwt>
<pdfrwt beam="1">  1        2 0.66952933E-01 0.90149267E+03</pdfrwt>
<pdfrwt beam="2">  1       -2 0.61929663E-01 0.90149267E+03</pdfrwt>
<totfact> 0.17571554E+02</totfact>
</mgrwt>
</event>
<event>
 4    1  0.5886875E-005  0.5561878E+03  0.7818608E-02  0.1000072E+00
         -2   -1    0    0    0  501 -0.00000000000E+00  0.00000000000E+00  0.18617583352E+03  0.18617583354E+03  0.25500000000E-02 0. -1.
          2   -1    0    0  501    0  0.00000000000E+00 -0.00000000000E+00 -0.41539339265E+03  0.41539339266E+03  0.25500000000E-02 0.  1.
    5000001    1    1    2    0    0  0.10922569458E+03 -0.12664228270E+03  0.13475354670E+02  0.25198036691E+03  0.18800000000E+03 0.  0.
   -5000001    1    1    2    0    0 -0.10922569458E+03  0.12664228270E+03 -0.24269291380E+03  0.34958885928E+03  0.18800000000E+03 0.  0.
<mgrwt>
<rscale>  0 0.55618778E+03</rscale>
<asrwt>0</asrwt>
<pdfrwt beam="1">  1        2 0.59341913E-01 0.55618778E+03</pdfrwt>
<pdfrwt beam="2">  1       -2 0.26596548E-01 0.55618778E+03</pdfrwt>
<totfact> 0.10626896E+03</totfact>
</mgrwt>
</event>
<event>
 4    1  0.5886875E-005  0.6825384E+03  0.7818608E-02  0.9747569E-01
          2   -1    0    0  501    0  0.00000000000E+00  0.00000000000E+00  0.14721186194E+04  0.14721186194E+04  0.25500000000E-02 0.  1.
         -2   -1    0    0    0  501 -0.00000000000E+00 -0.00000000000E+00 -0.79113643139E+02  0.79113643181E+02  0.25500000000E-02 0. -1.
    5000001    1    1    2    0    0 -0.11874995829E+03 -0.18521864012E+03  0.11075680108E+04  0.11447525478E+04  0.18800000000E+03 0.  0.
   -5000001    1    1    2    0    0  0.11874995829E+03  0.18521864012E+03  0.28543696545E+03  0.40647971473E+03  0.18800000000E+03 0.  0.
<mgrwt>
<rscale>  0 0.68253840E+03</rscale>
<asrwt>0</asrwt>
<pdfrwt beam="1">  1        2 0.21030267E+00 0.68253840E+03</pdfrwt>
<pdfrwt beam="2">  1       -2 0.11301949E-01 0.68253840E+03</pdfrwt>
<totfact> 0.85996280E+02</totfact>
</mgrwt>
</event>
<event>
 4    1  0.5886875E-005  0.6454513E+03  0.7818608E-02  0.9815352E-01
         -2   -1    0    0    0  501 -0.00000000000E+00  0.00000000000E+00  0.91119847510E+02  0.91119847546E+02  0.25500000000E-02 0. -1.
          2   -1    0    0  501    0  0.00000000000E+00 -0.00000000000E+00 -0.11430205454E+04  0.11430205454E+04  0.25500000000E-02 0.  1.
    5000001    1    1    2    0    0  0.67846169254E+02 -0.25205724318E+03 -0.47638778078E+03  0.57482629915E+03  0.18800000000E+03 0.  0.
   -5000001    1    1    2    0    0 -0.67846169254E+02  0.25205724318E+03 -0.57551291713E+03  0.65931409382E+03  0.18800000000E+03 0.  0.
<mgrwt>
<rscale>  0 0.64545134E+03</rscale>
<asrwt>0</asrwt>
<pdfrwt beam="1">  1        2 0.16328864E+00 0.64545134E+03</pdfrwt>
<pdfrwt beam="2">  1       -2 0.13017122E-01 0.64545134E+03</pdfrwt>
<totfact> 0.10317415E+03</totfact>
</mgrwt>
</event>
<event>
 4    1  0.5886875E-005  0.4121681E+03  0.7818608E-02  0.1039646E+00
          2   -1    0    0  501    0  0.00000000000E+00  0.00000000000E+00  0.53016583797E+03  0.53016583798E+03  0.25500000000E-02 0.  1.
         -2   -1    0    0    0  501 -0.00000000000E+00 -0.00000000000E+00 -0.80108202653E+02  0.80108202694E+02  0.25500000000E-02 0. -1.
    5000001    1    1    2    0    0 -0.38139440142E+02  0.73705549285E+02  0.20211433232E+03  0.28823831844E+03  0.18800000000E+03 0.  0.
   -5000001    1    1    2    0    0  0.38139440142E+02 -0.73705549285E+02  0.24794330300E+03  0.32203572223E+03  0.18800000000E+03 0.  0.
<mgrwt>
<rscale>  0 0.41216808E+03</rscale>
<asrwt>0</asrwt>
<pdfrwt beam="1">  1        2 0.75737973E-01 0.41216808E+03</pdfrwt>
<pdfrwt beam="2">  1       -2 0.11444030E-01 0.41216808E+03</pdfrwt>
<totfact> 0.34075558E+03</totfact>
</mgrwt>
</event>
<event>
 4    1  0.5886875E-005  0.4375511E+03  0.7818608E-02  0.1031501E+00
         -2   -1    0    0    0  501 -0.00000000000E+00  0.00000000000E+00  0.19146713034E+03  0.19146713036E+03  0.25500000000E-02 0. -1.
          2   -1    0    0  501    0  0.00000000000E+00 -0.00000000000E+00 -0.24997885060E+03  0.24997885061E+03  0.25500000000E-02 0.  1.
    5000001    1    1    2    0    0  0.40376491518E+02  0.31836410323E+02  0.71001325461E+02  0.20743434216E+03  0.18800000000E+03 0.  0.
   -5000001    1    1    2    0    0 -0.40376491518E+02 -0.31836410323E+02 -0.12951304571E+03  0.23401163881E+03  0.18800000000E+03 0.  0.
<mgrwt>
<rscale>  0 0.43755106E+03</rscale>
<asrwt>0</asrwt>
<pdfrwt beam="1">  1        2 0.35711264E-01 0.43755106E+03</pdfrwt>
<pdfrwt beam="2">  1       -2 0.27352447E-01 0.43755106E+03</pdfrwt>
<totfact> 0.17649321E+03</totfact>
</mgrwt>
</event>
<event>
 4    1  0.5886875E-005  0.8671065E+03  0.7818608E-02  0.9467660E-01
         -2   -1    0    0    0  501 -0.00000000000E+00  0.00000000000E+00  0.89492324613E+02  0.89492324650E+02  0.25500000000E-02 0. -1.
          2   -1    0    0  501    0  0.00000000000E+00 -0.00000000000E+00 -0.21003861194E+04  0.21003861194E+04  0.25500000000E-02 0.  1.
    5000001    1    1    2    0    0 -0.11757591366E+03 -0.29243530474E+03 -0.42248853478E+03  0.55962761275E+03  0.18800000000E+03 0.  0.
   -5000001    1    1    2    0    0  0.11757591366E+03  0.29243530474E+03 -0.15884052600E+04  0.16302508313E+04  0.18800000000E+03 0.  0.
<mgrwt>
<rscale>  0 0.86710654E+03</rscale>
<asrwt>0</asrwt>
<pdfrwt beam="1">  1        2 0.30005513E+00 0.86710654E+03</pdfrwt>
<pdfrwt beam="2">  1       -2 0.12784619E-01 0.86710654E+03</pdfrwt>
<totfact> 0.33072594E+02</totfact>
</mgrwt>
</event>
<event>
 4    1  0.5886875E-005  0.8118734E+03  0.7818608E-02  0.9542988E-01
          2   -1    0    0  501    0  0.00000000000E+00  0.00000000000E+00  0.35712935542E+04  0.35712935542E+04  0.25500000000E-02 0.  1.
         -2   -1    0    0    0  501 -0.00000000000E+00 -0.00000000000E+00 -0.46141438521E+02  0.46141438592E+02  0.25500000000E-02 0. -1.
    5000001    1    1    2    0    0  0.16966470724E+03 -0.31453535228E+03  0.15776782893E+04  0.16285365778E+04  0.18800000000E+03 0.  0.
   -5000001    1    1    2    0    0 -0.16966470724E+03  0.31453535228E+03  0.19474738265E+04  0.19888984151E+04  0.18800000000E+03 0.  0.
<mgrwt>
<rscale>  0 0.81187344E+03</rscale>
<asrwt>0</asrwt>
<pdfrwt beam="1">  1        2 0.51018473E+00 0.81187344E+03</pdfrwt>
<pdfrwt beam="2">  1       -2 0.65916349E-02 0.81187344E+03</pdfrwt>
<totfact> 0.15421403E+02</totfact>
</mgrwt>
</event>
<event>
 4    1  0.5886875E-005  0.7650587E+03  0.7818608E-02  0.9612017E-01
         -2   -1    0    0    0  501 -0.00000000000E+00  0.00000000000E+00  0.87313304617E+02  0.87313304654E+02  0.25500000000E-02 0. -1.
          2   -1    0    0  501    0  0.00000000000E+00 -0.00000000000E+00 -0.16759038271E+04  0.16759038271E+04  0.25500000000E-02 0.  1.
    5000001    1    1    2    0    0  0.19742511957E+03 -0.24159923668E+03 -0.10634386500E+04  0.11240963621E+04  0.18800000000E+03 0.  0.
   -5000001    1    1    2    0    0 -0.19742511957E+03  0.24159923668E+03 -0.52515187241E+03  0.63912076957E+03  0.18800000000E+03 0.  0.
<mgrwt>
<rscale>  0 0.76505869E+03</rscale>
<asrwt>0</asrwt>
<pdfrwt beam="1">  1        2 0.23941481E+00 0.76505869E+03</pdfrwt>
<pdfrwt beam="2">  1       -2 0.12473330E-01 0.76505869E+03</pdfrwt>
<totfact> 0.57042141E+02</totfact>
</mgrwt>
</event>
<event>
 4    1  0.5886875E-005  0.7548803E+03  0.7818608E-02  0.9627725E-01
         -2   -1    0    0    0  501 -0.00000000000E+00  0.00000000000E+00  0.14400400886E+03  0.14400400889E+03  0.25500000000E-02 0. -1.
          2   -1    0    0  501    0  0.00000000000E+00 -0.00000000000E+00 -0.98928537344E+03  0.98928537344E+03  0.25500000000E-02 0.  1.
    5000001    1    1    2    0    0  0.20663095605E+03  0.24887953136E+03 -0.49739927780E+03  0.62240454263E+03  0.18800000000E+03 0.  0.
   -5000001    1    1    2    0    0 -0.20663095605E+03 -0.24887953136E+03 -0.34788208677E+03  0.51088483970E+03  0.18800000000E+03 0.  0.
<mgrwt>
<rscale>  0 0.75488028E+03</rscale>
<asrwt>0</asrwt>
<pdfrwt beam="1">  1        2 0.14132648E+00 0.75488028E+03</pdfrwt>
<pdfrwt beam="2">  1       -2 0.20572002E-01 0.75488028E+03</pdfrwt>
<totfact> 0.58108808E+02</totfact>
</mgrwt>
</event>
<event>
 4    1  0.5886875E-005  0.5629947E+03  0.7818608E-02  0.9985301E-01
         -2   -1    0    0    0  501 -0.00000000000E+00  0.00000000000E+00  0.11163021134E+03  0.11163021137E+03  0.25500000000E-02 0. -1.
          2   -1    0    0  501    0  0.00000000000E+00 -0.00000000000E+00 -0.70985046617E+03  0.70985046617E+03  0.25500000000E-02 0.  1.
    5000001    1    1    2    0    0  0.15035385522E+03 -0.19933335064E+02 -0.51001901611E+03  0.56432881941E+03  0.18800000000E+03 0.  0.
   -5000001    1    1    2    0    0 -0.15035385522E+03  0.19933335064E+02 -0.88201238714E+02  0.25715185813E+03  0.18800000000E+03 0.  0.
<mgrwt>
<rscale>  0 0.56299470E+03</rscale>
<asrwt>0</asrwt>
<pdfrwt beam="1">  1        2 0.10140721E+00 0.56299470E+03</pdfrwt>
<pdfrwt beam="2">  1       -2 0.15947173E-01 0.56299470E+03</pdfrwt>
<totfact> 0.13974439E+03</totfact>
</mgrwt>
</event>
<event>
 4    1  0.5886875E-005  0.4401974E+03  0.7818608E-02  0.1030686E+00
          2   -1    0    0  501    0  0.00000000000E+00  0.00000000000E+00  0.17246475856E+03  0.17246475857E+03  0.25500000000E-02 0.  1.
         -2   -1    0    0    0  501 -0.00000000000E+00 -0.00000000000E+00 -0.28088893013E+03  0.28088893014E+03  0.25500000000E-02 0. -1.
    5000001    1    1    2    0    0  0.47784679365E+02 -0.49249697812E+02 -0.14854960336E+03  0.24923862657E+03  0.18800000000E+03 0.  0.
   -5000001    1    1    2    0    0 -0.47784679365E+02  0.49249697812E+02  0.40125431789E+02  0.20411506214E+03  0.18800000000E+03 0.  0.
<mgrwt>
<rscale>  0 0.44019742E+03</rscale>
<asrwt>0</asrwt>
<pdfrwt beam="1">  1        2 0.24637823E-01 0.44019742E+03</pdfrwt>
<pdfrwt beam="2">  1       -2 0.40126990E-01 0.44019742E+03</pdfrwt>
<totfact> 0.13060593E+03</totfact>
</mgrwt>
</event>
<event>
 4    1  0.5886875E-005  0.5390004E+03  0.7818608E-02  0.1004072E+00
         -2   -1    0    0    0  501 -0.00000000000E+00  0.00000000000E+00  0.15299058171E+02  0.15299058384E+02  0.25500000000E-02 0. -1.
          2   -1    0    0  501    0  0.00000000000E+00 -0.00000000000E+00 -0.47473737754E+04  0.47473737754E+04  0.25500000000E-02 0.  1.
    5000001    1    1    2    0    0 -0.11368253749E+02  0.11164582037E+03 -0.37545270307E+04  0.37609056423E+04  0.18800000000E+03 0.  0.
   -5000001    1    1    2    0    0  0.11368253749E+02 -0.11164582037E+03 -0.97754768658E+03  0.10017671915E+04  0.18800000000E+03 0.  0.
<mgrwt>
<rscale>  0 0.53900036E+03</rscale>
<asrwt>0</asrwt>
<pdfrwt beam="1">  1        2 0.67819531E+00 0.53900036E+03</pdfrwt>
<pdfrwt beam="2">  1       -2 0.21855828E-02 0.53900036E+03</pdfrwt>
<totfact> 0.12921876E+02</totfact>
</mgrwt>
</event>
<event>
 4    1  0.5886875E-005  0.5005097E+03  0.7818608E-02  0.1013646E+00
         -2   -1    0    0    0  501 -0.00000000000E+00  0.00000000000E+00  0.18741090307E+02  0.18741090480E+02  0.25500000000E-02 0. -1.
          2   -1    0    0  501    0  0.00000000000E+00 -0.00000000000E+00 -0.33417203347E+04  0.33417203347E+04  0.25500000000E-02 0.  1.
    5000001    1    1    2    0    0 -0.77955192466E+00 -0.14927977936E+03 -0.21361718018E+04  0.21496183445E+04  0.18800000000E+03 0.  0.
   -5000001    1    1    2    0    0  0.77955192466E+00  0.14927977936E+03 -0.11868074426E+04  0.12108430807E+04  0.18800000000E+03 0.  0.
<mgrwt>
<rscale>  0 0.50050967E+03</rscale>
<asrwt>0</asrwt>
<pdfrwt beam="1">  1        2 0.47738824E+00 0.50050967E+03</pdfrwt>
<pdfrwt beam="2">  1       -2 0.26773008E-02 0.50050967E+03</pdfrwt>
<totfact> 0.87652183E+02</totfact>
</mgrwt>
</event>
<event>
 4    1  0.5886875E-005  0.7612222E+03  0.7818608E-02  0.9617907E-01
          2   -1    0    0  501    0  0.00000000000E+00  0.00000000000E+00  0.86954173170E+03  0.86954173171E+03  0.25500000000E-02 0.  1.
         -2   -1    0    0    0  501 -0.00000000000E+00 -0.00000000000E+00 -0.16659904771E+03  0.16659904773E+03  0.25500000000E-02 0. -1.
    5000001    1    1    2    0    0  0.18401929498E+03  0.27015564393E+03  0.28108964970E+03  0.47032176650E+03  0.18800000000E+03 0.  0.
   -5000001    1    1    2    0    0 -0.18401929498E+03 -0.27015564393E+03  0.42185303429E+03  0.56581901294E+03  0.18800000000E+03 0.  0.
<mgrwt>
<rscale>  0 0.76122224E+03</rscale>
<asrwt>0</asrwt>
<pdfrwt beam="1">  1        2 0.12422025E+00 0.76122224E+03</pdfrwt>
<pdfrwt beam="2">  1       -2 0.23799863E-01 0.76122224E+03</pdfrwt>
<totfact> 0.53519029E+02</totfact>
</mgrwt>
</event>
<event>
 4    1  0.5886875E-005  0.4584239E+03  0.7818608E-02  0.1025239E+00
          2   -1    0    0  501    0  0.00000000000E+00  0.00000000000E+00  0.48126139835E+03  0.48126139836E+03  0.25500000000E-02 0.  1.
         -2   -1    0    0    0  501 -0.00000000000E+00 -0.00000000000E+00 -0.10916753171E+03  0.10916753174E+03  0.25500000000E-02 0. -1.
    5000001    1    1    2    0    0  0.72353076972E+02  0.10935688987E+03  0.18665359214E+03  0.29559678714E+03  0.18800000000E+03 0.  0.
   -5000001    1    1    2    0    0 -0.72353076972E+02 -0.10935688987E+03  0.18544027451E+03  0.29483214296E+03  0.18800000000E+03 0.  0.
<mgrwt>
<rscale>  0 0.45842390E+03</rscale>
<asrwt>0</asrwt>
<pdfrwt beam="1">  1        2 0.68751627E-01 0.45842390E+03</pdfrwt>
<pdfrwt beam="2">  1       -2 0.15595362E-01 0.45842390E+03</pdfrwt>
<totfact> 0.22824555E+03</totfact>
</mgrwt>
</event>
<event>
 4    1  0.5886875E-005  0.5541507E+03  0.7818608E-02  0.1000538E+00
         -2   -1    0    0    0  501 -0.00000000000E+00  0.00000000000E+00  0.43810773694E+02  0.43810773769E+02  0.25500000000E-02 0. -1.
          2   -1    0    0  501    0  0.00000000000E+00 -0.00000000000E+00 -0.17523258931E+04  0.17523258931E+04  0.25500000000E-02 0.  1.
    5000001    1    1    2    0    0 -0.72553530173E+02  0.18659078824E+03 -0.73531606231E+03  0.78492919966E+03  0.18800000000E+03 0.  0.
   -5000001    1    1    2    0    0  0.72553530173E+02 -0.18659078824E+03 -0.97319905709E+03  0.10112074672E+04  0.18800000000E+03 0.  0.
<mgrwt>
<rscale>  0 0.55415071E+03</rscale>
<asrwt>0</asrwt>
<pdfrwt beam="1">  1        2 0.25033223E+00 0.55415071E+03</pdfrwt>
<pdfrwt beam="2">  1       -2 0.62586831E-02 0.55415071E+03</pdfrwt>
<totfact> 0.15989367E+03</totfact>
</mgrwt>
</event>
<event>
 4    1  0.5886875E-005  0.6055759E+03  0.7818608E-02  0.9893905E-01
          2   -1    0    0  501    0  0.00000000000E+00  0.00000000000E+00  0.11788299958E+03  0.11788299961E+03  0.25500000000E-02 0.  1.
         -2   -1    0    0    0  501 -0.00000000000E+00 -0.00000000000E+00 -0.77772482957E+03  0.77772482958E+03  0.25500000000E-02 0. -1.
    5000001    1    1    2    0    0  0.65989142256E+02  0.22772757991E+03 -0.31357762228E+03  0.43576294329E+03  0.18800000000E+03 0.  0.
   -5000001    1    1    2    0    0 -0.65989142256E+02 -0.22772757991E+03 -0.34626420771E+03  0.45984488590E+03  0.18800000000E+03 0.  0.
<mgrwt>
<rscale>  0 0.60557588E+03</rscale>
<asrwt>0</asrwt>
<pdfrwt beam="1">  1        2 0.16840429E-01 0.60557588E+03</pdfrwt>
<pdfrwt beam="2">  1       -2 0.11110354E+00 0.60557588E+03</pdfrwt>
<totfact> 0.22634375E+02</totfact>
</mgrwt>
</event>
<event>
 4    1  0.5886875E-005  0.4244960E+03  0.7818608E-02  0.1035613E+00
          2   -1    0    0  501    0  0.00000000000E+00  0.00000000000E+00  0.16166020354E+04  0.16166020354E+04  0.25500000000E-02 0.  1.
         -2   -1    0    0    0  501 -0.00000000000E+00 -0.00000000000E+00 -0.27866611345E+02  0.27866611462E+02  0.25500000000E-02 0. -1.
    5000001    1    1    2    0    0  0.51904261523E+02  0.83691672795E+02  0.80452322149E+03  0.83204564922E+03  0.18800000000E+03 0.  0.
   -5000001    1    1    2    0    0 -0.51904261523E+02 -0.83691672795E+02  0.78421220258E+03  0.81242299767E+03  0.18800000000E+03 0.  0.
<mgrwt>
<rscale>  0 0.42449603E+03</rscale>
<asrwt>0</asrwt>
<pdfrwt beam="1">  1        2 0.23094315E+00 0.42449603E+03</pdfrwt>
<pdfrwt beam="2">  1       -2 0.39809444E-02 0.42449603E+03</pdfrwt>
<totfact> 0.37775323E+03</totfact>
</mgrwt>
</event>
<event>
 4    1  0.5886875E-005  0.7309114E+03  0.7818608E-02  0.9665783E-01
         -2   -1    0    0    0  501 -0.00000000000E+00  0.00000000000E+00  0.84095959874E+02  0.84095959912E+02  0.25500000000E-02 0. -1.
          2   -1    0    0  501    0  0.00000000000E+00 -0.00000000000E+00 -0.15881603405E+04  0.15881603405E+04  0.25500000000E-02 0.  1.
    5000001    1    1    2    0    0  0.27212646954E+03 -0.82094502821E+02 -0.45004992028E+03  0.56451860338E+03  0.18800000000E+03 0.  0.
   -5000001    1    1    2    0    0 -0.27212646954E+03  0.82094502821E+02 -0.10540144604E+04  0.11077376971E+04  0.18800000000E+03 0.  0.
<mgrwt>
<rscale>  0 0.73091140E+03</rscale>
<asrwt>0</asrwt>
<pdfrwt beam="1">  1        2 0.22688003E+00 0.73091140E+03</pdfrwt>
<pdfrwt beam="2">  1       -2 0.12013710E-01 0.73091140E+03</pdfrwt>
<totfact> 0.67490884E+02</totfact>
</mgrwt>
</event>
<event>
 4    1  0.5886875E-005  0.1217342E+04  0.7818608E-02  0.9097811E-01
         -2   -1    0    0    0  501 -0.00000000000E+00  0.00000000000E+00  0.29369230429E+03  0.29369230431E+03  0.25500000000E-02 0. -1.
          2   -1    0    0  501    0  0.00000000000E+00 -0.00000000000E+00 -0.12614570495E+04  0.12614570495E+04  0.25500000000E-02 0.  1.
    5000001    1    1    2    0    0  0.11713349891E+03 -0.45232084534E+03 -0.47244318898E+02  0.50585613505E+03  0.18800000000E+03 0.  0.
   -5000001    1    1    2    0    0 -0.11713349891E+03  0.45232084534E+03 -0.92052042633E+03  0.10492932188E+04  0.18800000000E+03 0.  0.
<mgrwt>
<rscale>  0 0.12173417E+04</rscale>
<asrwt>0</asrwt>
<pdfrwt beam="1">  1        2 0.18020815E+00 0.12173417E+04</pdfrwt>
<pdfrwt beam="2">  1       -2 0.41956044E-01 0.12173417E+04</pdfrwt>
<totfact> 0.10462035E+02</totfact>
</mgrwt>
</event>
<event>
 4    1  0.5886875E-005  0.6212699E+03  0.7818608E-02  0.9862235E-01
         -2   -1    0    0    0  501 -0.00000000000E+00  0.00000000000E+00  0.21692015662E+02  0.21692015811E+02  0.25500000000E-02 0. -1.
          2   -1    0    0  501    0  0.00000000000E+00 -0.00000000000E+00 -0.44483674844E+04  0.44483674844E+04  0.25500000000E-02 0.  1.
    5000001    1    1    2    0    0 -0.13062351402E+03 -0.17152803354E+03 -0.30846709228E+04  0.30979062398E+04  0.18800000000E+03 0.  0.
   -5000001    1    1    2    0    0  0.13062351402E+03  0.17152803354E+03 -0.13420045459E+04  0.13721532604E+04  0.18800000000E+03 0.  0.
<mgrwt>
<rscale>  0 0.62126985E+03</rscale>
<asrwt>0</asrwt>
<pdfrwt beam="1">  1        2 0.63548049E+00 0.62126985E+03</pdfrwt>
<pdfrwt beam="2">  1       -2 0.30988622E-02 0.62126985E+03</pdfrwt>
<totfact> 0.13029999E+02</totfact>
</mgrwt>
</event>
<event>
 4    1  0.5886875E-005  0.4199622E+03  0.7818608E-02  0.1037079E+00
         -2   -1    0    0    0  501 -0.00000000000E+00  0.00000000000E+00  0.49998585728E+03  0.49998585729E+03  0.25500000000E-02 0. -1.
          2   -1    0    0  501    0  0.00000000000E+00 -0.00000000000E+00 -0.88186633343E+02  0.88186633380E+02  0.25500000000E-02 0.  1.
    5000001    1    1    2    0    0  0.33244404308E+02  0.82807049758E+02  0.16663780692E+03  0.26659774305E+03  0.18800000000E+03 0.  0.
   -5000001    1    1    2    0    0 -0.33244404308E+02 -0.82807049758E+02  0.24516141702E+03  0.32157474762E+03  0.18800000000E+03 0.  0.
<mgrwt>
<rscale>  0 0.41996223E+03</rscale>
<asrwt>0</asrwt>
<pdfrwt beam="1">  1        2 0.12598091E-01 0.41996223E+03</pdfrwt>
<pdfrwt beam="2">  1       -2 0.71426549E-01 0.41996223E+03</pdfrwt>
<totfact> 0.88594303E+02</totfact>
</mgrwt>
</event>
<event>
 4    1  0.5886875E-005  0.5283239E+03  0.7818608E-02  0.1006639E+00
          2   -1    0    0  501    0  0.00000000000E+00  0.00000000000E+00  0.16115049566E+04  0.16115049566E+04  0.25500000000E-02 0. -1.
         -2   -1    0    0    0  501 -0.00000000000E+00 -0.00000000000E+00 -0.43302091075E+02  0.43302091150E+02  0.25500000000E-02 0.  1.
    5000001    1    1    2    0    0 -0.65123572998E+02 -0.17135395268E+03  0.87457097682E+03  0.91313835225E+03  0.18800000000E+03 0.  0.
   -5000001    1    1    2    0    0  0.65123572998E+02  0.17135395268E+03  0.69363188873E+03  0.74166869552E+03  0.18800000000E+03 0.  0.
<mgrwt>
<rscale>  0 0.52832389E+03</rscale>
<asrwt>0</asrwt>
<pdfrwt beam="1">  1        2 0.23021492E+00 0.52832389E+03</pdfrwt>
<pdfrwt beam="2">  1       -2 0.61860151E-02 0.52832389E+03</pdfrwt>
<totfact> 0.19215694E+03</totfact>
</mgrwt>
</event>
<event>
 4    1  0.5886875E-005  0.5312308E+03  0.7818608E-02  0.1005934E+00
         -2   -1    0    0    0  501 -0.00000000000E+00  0.00000000000E+00  0.31261378025E+03  0.31261378026E+03  0.25500000000E-02 0. -1.
          2   -1    0    0  501    0  0.00000000000E+00 -0.00000000000E+00 -0.22568274001E+03  0.22568274002E+03  0.25500000000E-02 0.  1.
    5000001    1    1    2    0    0  0.18493680082E+03 -0.26029399626E+02  0.25103108991E+02  0.26618286200E+03  0.18800000000E+03 0.  0.
   -5000001    1    1    2    0    0 -0.18493680082E+03  0.26029399626E+02  0.61827931252E+02  0.27211365828E+03  0.18800000000E+03 0.  0.
<mgrwt>
<rscale>  0 0.53123078E+03</rscale>
<asrwt>0</asrwt>
<pdfrwt beam="1">  1        2 0.32240392E-01 0.53123078E+03</pdfrwt>
<pdfrwt beam="2">  1       -2 0.44659111E-01 0.53123078E+03</pdfrwt>
<totfact> 0.78357389E+02</totfact>
</mgrwt>
</event>
<event>
 4    1  0.5886875E-005  0.6141117E+03  0.7818608E-02  0.9876554E-01
          2   -1    0    0  501    0  0.00000000000E+00  0.00000000000E+00  0.24703762424E+04  0.24703762424E+04  0.25500000000E-02 0.  1.
         -2   -1    0    0    0  501 -0.00000000000E+00 -0.00000000000E+00 -0.38165556235E+02  0.38165556321E+02  0.25500000000E-02 0. -1.
    5000001    1    1    2    0    0 -0.22461730323E+03  0.13501109436E+02  0.84386836452E+03  0.89336052605E+03  0.18800000000E+03 0.  0.
   -5000001    1    1    2    0    0  0.22461730323E+03 -0.13501109436E+02  0.15883423216E+04  0.16151812727E+04  0.18800000000E+03 0.  0.
<mgrwt>
<rscale>  0 0.61411166E+03</rscale>
<asrwt>0</asrwt>
<pdfrwt beam="1">  1        2 0.35291082E+00 0.61411166E+03</pdfrwt>
<pdfrwt beam="2">  1       -2 0.54522234E-02 0.61411166E+03</pdfrwt>
<totfact> 0.85873629E+02</totfact>
</mgrwt>
</event>
<event>
 4    1  0.5886875E-005  0.1046949E+04  0.7818608E-02  0.9258500E-01
         -2   -1    0    0    0  501 -0.00000000000E+00  0.00000000000E+00  0.20263156380E+03  0.20263156381E+03  0.25500000000E-02 0. -1.
          2   -1    0    0  501    0  0.00000000000E+00 -0.00000000000E+00 -0.13523331846E+04  0.13523331846E+04  0.25500000000E-02 0.  1.
    5000001    1    1    2    0    0 -0.35955508726E+03 -0.33072419167E+03 -0.58197935912E+03  0.78275304290E+03  0.18800000000E+03 0.  0.
   -5000001    1    1    2    0    0  0.35955508726E+03  0.33072419167E+03 -0.56772226171E+03  0.77221170554E+03  0.18800000000E+03 0.  0.
<mgrwt>
<rscale>  0 0.10469487E+04</rscale>
<asrwt>0</asrwt>
<pdfrwt beam="1">  1        2 0.19319045E+00 0.10469487E+04</pdfrwt>
<pdfrwt beam="2">  1       -2 0.28947367E-01 0.10469487E+04</pdfrwt>
<totfact> 0.19127451E+02</totfact>
</mgrwt>
</event>
<event>
 4    1  0.5886875E-005  0.6704087E+03  0.7818608E-02  0.9769220E-01
          2   -1    0    0  501    0  0.00000000000E+00  0.00000000000E+00  0.21018269412E+04  0.21018269412E+04  0.25500000000E-02 0.  1.
         -2   -1    0    0    0  501 -0.00000000000E+00 -0.00000000000E+00 -0.53459178465E+02  0.53459178526E+02  0.25500000000E-02 0. -1.
    5000001    1    1    2    0    0 -0.26790344877E+03  0.60470462645E+02  0.11523367141E+04  0.11994385509E+04  0.18800000000E+03 0.  0.
   -5000001    1    1    2    0    0  0.26790344877E+03 -0.60470462645E+02  0.89603104858E+03  0.95584756877E+03  0.18800000000E+03 0.  0.
<mgrwt>
<rscale>  0 0.67040866E+03</rscale>
<asrwt>0</asrwt>
<pdfrwt beam="1">  1        2 0.30026096E+00 0.67040866E+03</pdfrwt>
<pdfrwt beam="2">  1       -2 0.76370263E-02 0.67040866E+03</pdfrwt>
<totfact> 0.77384917E+02</totfact>
</mgrwt>
</event>
<event>
 4    1  0.5886875E-005  0.6234562E+03  0.7818608E-02  0.9857902E-01
         -2   -1    0    0    0  501 -0.00000000000E+00  0.00000000000E+00  0.62279549074E+02  0.62279549126E+02  0.25500000000E-02 0. -1.
          2   -1    0    0  501    0  0.00000000000E+00 -0.00000000000E+00 -0.15602940220E+04  0.15602940220E+04  0.25500000000E-02 0.  1.
    5000001    1    1    2    0    0 -0.19403087224E+03 -0.15187602006E+03 -0.66206102822E+03  0.73101512292E+03  0.18800000000E+03 0.  0.
   -5000001    1    1    2    0    0  0.19403087224E+03  0.15187602006E+03 -0.83595344469E+03  0.89155844819E+03  0.18800000000E+03 0.  0.
<mgrwt>
<rscale>  0 0.62345620E+03</rscale>
<asrwt>0</asrwt>
<pdfrwt beam="1">  1        2 0.22289912E+00 0.62345620E+03</pdfrwt>
<pdfrwt beam="2">  1       -2 0.88970794E-02 0.62345620E+03</pdfrwt>
<totfact> 0.11437819E+03</totfact>
</mgrwt>
</event>
<event>
 4    1  0.5886875E-005  0.5993652E+03  0.7818608E-02  0.9906724E-01
         -2   -1    0    0    0  501 -0.00000000000E+00  0.00000000000E+00  0.51952666095E+03  0.51952666096E+03  0.25500000000E-02 0. -1.
          2   -1    0    0  501    0  0.00000000000E+00 -0.00000000000E+00 -0.17286823754E+03  0.17286823756E+03  0.25500000000E-02 0.  1.
    5000001    1    1    2    0    0  0.14608921649E+03 -0.18191186764E+03  0.17983045619E+03  0.34945239982E+03  0.18800000000E+03 0.  0.
   -5000001    1    1    2    0    0 -0.14608921649E+03  0.18191186764E+03  0.16682796722E+03  0.34294249869E+03  0.18800000000E+03 0.  0.
<mgrwt>
<rscale>  0 0.59936519E+03</rscale>
<asrwt>0</asrwt>
<pdfrwt beam="1">  1        2 0.24695462E-01 0.59936519E+03</pdfrwt>
<pdfrwt beam="2">  1       -2 0.74218095E-01 0.59936519E+03</pdfrwt>
<totfact> 0.36683877E+02</totfact>
</mgrwt>
</event>
<event>
 4    1  0.5886875E-005  0.6191906E+03  0.7818608E-02  0.9866372E-01
         -2   -1    0    0    0  501 -0.00000000000E+00  0.00000000000E+00  0.84133493029E+02  0.84133493068E+02  0.25500000000E-02 0. -1.
          2   -1    0    0  501    0  0.00000000000E+00 -0.00000000000E+00 -0.11392521459E+04  0.11392521459E+04  0.25500000000E-02 0.  1.
    5000001    1    1    2    0    0  0.23599068775E+03 -0.64679507739E+02 -0.47795897350E+03  0.56891460148E+03  0.18800000000E+03 0.  0.
   -5000001    1    1    2    0    0 -0.23599068775E+03  0.64679507739E+02 -0.57715967937E+03  0.65447103749E+03  0.18800000000E+03 0.  0.
<mgrwt>
<rscale>  0 0.61919064E+03</rscale>
<asrwt>0</asrwt>
<pdfrwt beam="1">  1        2 0.16275030E+00 0.61919064E+03</pdfrwt>
<pdfrwt beam="2">  1       -2 0.12019071E-01 0.61919064E+03</pdfrwt>
<totfact> 0.11840629E+03</totfact>
</mgrwt>
</event>
<event>
 4    1  0.5886875E-005  0.8026317E+03  0.7818608E-02  0.9556216E-01
          2   -1    0    0  501    0  0.00000000000E+00  0.00000000000E+00  0.70051835301E+03  0.70051835301E+03  0.25500000000E-02 0.  1.
         -2   -1    0    0    0  501 -0.00000000000E+00 -0.00000000000E+00 -0.22990749666E+03  0.22990749667E+03  0.25500000000E-02 0. -1.
    5000001    1    1    2    0    0 -0.78853970515E+02  0.29477591812E+03  0.44460666009E+03  0.57107781673E+03  0.18800000000E+03 0.  0.
   -5000001    1    1    2    0    0  0.78853970515E+02 -0.29477591812E+03  0.26004196264E+02  0.35934803296E+03  0.18800000000E+03 0.  0.
<mgrwt>
<rscale>  0 0.80263172E+03</rscale>
<asrwt>0</asrwt>
<pdfrwt beam="1">  1        2 0.10007405E+00 0.80263172E+03</pdfrwt>
<pdfrwt beam="2">  1       -2 0.32843929E-01 0.80263172E+03</pdfrwt>
<totfact> 0.39008715E+02</totfact>
</mgrwt>
</event>
<event>
 4    1  0.5886875E-005  0.6521651E+03  0.7818608E-02  0.9802725E-01
         -2   -1    0    0    0  501 -0.00000000000E+00  0.00000000000E+00  0.46877189253E+02  0.46877189322E+02  0.25500000000E-02 0. -1.
          2   -1    0    0  501    0  0.00000000000E+00 -0.00000000000E+00 -0.22682635103E+04  0.22682635103E+04  0.25500000000E-02 0.  1.
    5000001    1    1    2    0    0  0.17590468398E+03  0.86506296987E+02 -0.47012965092E+03  0.54294722206E+03  0.18800000000E+03 0.  0.
   -5000001    1    1    2    0    0 -0.17590468398E+03 -0.86506296987E+02 -0.17512566701E+04  0.17721934776E+04  0.18800000000E+03 0.  0.
<mgrwt>
<rscale>  0 0.65216506E+03</rscale>
<asrwt>0</asrwt>
<pdfrwt beam="1">  1        2 0.32403757E+00 0.65216506E+03</pdfrwt>
<pdfrwt beam="2">  1       -2 0.66967428E-02 0.65216506E+03</pdfrwt>
<totfact> 0.78624521E+02</totfact>
</mgrwt>
</event>
<event>
 4    1  0.5886875E-005  0.6402964E+03  0.7818608E-02  0.9825160E-01
         -2   -1    0    0    0  501 -0.00000000000E+00  0.00000000000E+00  0.41790925361E+02  0.41790925439E+02  0.25500000000E-02 0. -1.
          2   -1    0    0  501    0  0.00000000000E+00 -0.00000000000E+00 -0.24525629044E+04  0.24525629044E+04  0.25500000000E-02 0.  1.
    5000001    1    1    2    0    0  0.17901572872E+03  0.18531699612E+03 -0.10978602001E+04  0.11432541446E+04  0.18800000000E+03 0.  0.
   -5000001    1    1    2    0    0 -0.17901572872E+03 -0.18531699612E+03 -0.13129117789E+04  0.13510996852E+04  0.18800000000E+03 0.  0.
<mgrwt>
<rscale>  0 0.64029641E+03</rscale>
<asrwt>0</asrwt>
<pdfrwt beam="1">  1        2 0.35036604E+00 0.64029641E+03</pdfrwt>
<pdfrwt beam="2">  1       -2 0.59701337E-02 0.64029641E+03</pdfrwt>
<totfact> 0.75953888E+02</totfact>
</mgrwt>
</event>
<event>
 4    1  0.5886875E-005  0.7346506E+03  0.7818608E-02  0.9659744E-01
         -2   -1    0    0    0  501 -0.00000000000E+00  0.00000000000E+00  0.47487137417E+02  0.47487137485E+02  0.25500000000E-02 0.  1.
          2   -1    0    0  501    0  0.00000000000E+00 -0.00000000000E+00 -0.28413559912E+04  0.28413559912E+04  0.25500000000E-02 0. -1.
    5000001    1    1    2    0    0  0.75719067687E+01  0.30051303321E+03 -0.10193865850E+04  0.10792860727E+04  0.18800000000E+03 0.  0.
   -5000001    1    1    2    0    0 -0.75719067687E+01 -0.30051303321E+03 -0.17744822688E+04  0.18095570560E+04  0.18800000000E+03 0.  0.
<mgrwt>
<rscale>  0 0.73465056E+03</rscale>
<asrwt>0</asrwt>
<pdfrwt beam="1">  1        2 0.40590789E+00 0.73465056E+03</pdfrwt>
<pdfrwt beam="2">  1       -2 0.67838786E-02 0.73465056E+03</pdfrwt>
<totfact> 0.38581259E+02</totfact>
</mgrwt>
</event>
<event>
 4    1  0.5886875E-005  0.6550283E+03  0.7818608E-02  0.9797389E-01
          2   -1    0    0  501    0  0.00000000000E+00  0.00000000000E+00  0.16823307219E+04  0.16823307219E+04  0.25500000000E-02 0.  1.
         -2   -1    0    0    0  501 -0.00000000000E+00 -0.00000000000E+00 -0.63760060726E+02  0.63760060777E+02  0.25500000000E-02 0. -1.
    5000001    1    1    2    0    0  0.22426529003E+03 -0.26998828009E+02  0.11946354710E+04  0.12302527243E+04  0.18800000000E+03 0.  0.
   -5000001    1    1    2    0    0 -0.22426529003E+03  0.26998828009E+02  0.42393519017E+03  0.51583805840E+03  0.18800000000E+03 0.  0.
<mgrwt>
<rscale>  0 0.65502827E+03</rscale>
<asrwt>0</asrwt>
<pdfrwt beam="1">  1        2 0.24033295E+00 0.65502827E+03</pdfrwt>
<pdfrwt beam="2">  1       -2 0.91085806E-02 0.65502827E+03</pdfrwt>
<totfact> 0.95190830E+02</totfact>
</mgrwt>
</event>
<event>
 4    1  0.5886875E-005  0.5755659E+03  0.7818608E-02  0.9957437E-01
         -2   -1    0    0    0  501 -0.00000000000E+00  0.00000000000E+00  0.17842645367E+03  0.17842645368E+03  0.25500000000E-02 0. -1.
          2   -1    0    0  501    0  0.00000000000E+00 -0.00000000000E+00 -0.46416346008E+03  0.46416346009E+03  0.25500000000E-02 0.  1.
    5000001    1    1    2    0    0  0.11008254483E+03 -0.19359246658E+02 -0.35168351043E+03  0.41414760487E+03  0.18800000000E+03 0.  0.
   -5000001    1    1    2    0    0 -0.11008254483E+03  0.19359246658E+02  0.65946504017E+02  0.22844230891E+03  0.18800000000E+03 0.  0.
<mgrwt>
<rscale>  0 0.57556595E+03</rscale>
<asrwt>0</asrwt>
<pdfrwt beam="1">  1        2 0.66309065E-01 0.57556595E+03</pdfrwt>
<pdfrwt beam="2">  1       -2 0.25489494E-01 0.57556595E+03</pdfrwt>
<totfact> 0.10133662E+03</totfact>
</mgrwt>
</event>
<event>
 4    1  0.5886875E-005  0.7466171E+03  0.7818608E-02  0.9640673E-01
          2   -1    0    0  501    0  0.00000000000E+00  0.00000000000E+00  0.23094089219E+04  0.23094089219E+04  0.25500000000E-02 0.  1.
         -2   -1    0    0    0  501 -0.00000000000E+00 -0.00000000000E+00 -0.60344137714E+02  0.60344137768E+02  0.25500000000E-02 0. -1.
    5000001    1    1    2    0    0  0.24751049425E+03 -0.19703167011E+03  0.13235686128E+04  0.13737761086E+04  0.18800000000E+03 0.  0.
   -5000001    1    1    2    0    0 -0.24751049425E+03  0.19703167011E+03  0.92549617132E+03  0.99597695100E+03  0.18800000000E+03 0.  0.
<mgrwt>
<rscale>  0 0.74661714E+03</rscale>
<asrwt>0</asrwt>
<pdfrwt beam="1">  1        2 0.32991552E+00 0.74661714E+03</pdfrwt>
<pdfrwt beam="2">  1       -2 0.86205922E-02 0.74661714E+03</pdfrwt>
<totfact> 0.49771378E+02</totfact>
</mgrwt>
</event>
<event>
 4    1  0.5886875E-005  0.1316687E+04  0.7818608E-02  0.9016436E-01
          2   -1    0    0  501    0  0.00000000000E+00  0.00000000000E+00  0.83231641792E+03  0.83231641792E+03  0.25500000000E-02 0.  1.
         -2   -1    0    0    0  501 -0.00000000000E+00 -0.00000000000E+00 -0.52073497454E+03  0.52073497454E+03  0.25500000000E-02 0. -1.
    5000001    1    1    2    0    0  0.80178962399E+02 -0.59367757825E+03 -0.47642694819E+02  0.62967893350E+03  0.18800000000E+03 0.  0.
   -5000001    1    1    2    0    0 -0.80178962399E+02  0.59367757825E+03  0.35922413820E+03  0.72337245896E+03  0.18800000000E+03 0.  0.
<mgrwt>
<rscale>  0 0.13166872E+04</rscale>
<asrwt>0</asrwt>
<pdfrwt beam="1">  1        2 0.11890235E+00 0.13166872E+04</pdfrwt>
<pdfrwt beam="2">  1       -2 0.74390710E-01 0.13166872E+04</pdfrwt>
<totfact> 0.57549706E+01</totfact>
</mgrwt>
</event>
<event>
 4    1  0.5886875E-005  0.6031526E+03  0.7818608E-02  0.9898887E-01
         -2   -1    0    0    0  501 -0.00000000000E+00  0.00000000000E+00  0.11646511982E+03  0.11646511985E+03  0.25500000000E-02 0. -1.
          2   -1    0    0  501    0  0.00000000000E+00 -0.00000000000E+00 -0.78090549239E+03  0.78090549239E+03  0.25500000000E-02 0.  1.
    5000001    1    1    2    0    0 -0.16609894363E+03 -0.14210889982E+03 -0.20064904794E+03  0.35126605148E+03  0.18800000000E+03 0.  0.
   -5000001    1    1    2    0    0  0.16609894363E+03  0.14210889982E+03 -0.46379132463E+03  0.54610456076E+03  0.18800000000E+03 0.  0.
<mgrwt>
<rscale>  0 0.60315256E+03</rscale>
<asrwt>0</asrwt>
<pdfrwt beam="1">  1        2 0.11155792E+00 0.60315256E+03</pdfrwt>
<pdfrwt beam="2">  1       -2 0.16637875E-01 0.60315256E+03</pdfrwt>
<totfact> 0.11540988E+03</totfact>
</mgrwt>
</event>
<event>
 4    1  0.5886875E-005  0.7570201E+03  0.7818608E-02  0.9624401E-01
         -2   -1    0    0    0  501 -0.00000000000E+00  0.00000000000E+00  0.72938526134E+02  0.72938526179E+02  0.25500000000E-02 0. -1.
          2   -1    0    0  501    0  0.00000000000E+00 -0.00000000000E+00 -0.19642549302E+04  0.19642549302E+04  0.25500000000E-02 0.  1.
    5000001    1    1    2    0    0  0.26743337284E+03 -0.18016774054E+03 -0.11146786832E+04  0.11755141813E+04  0.18800000000E+03 0.  0.
   -5000001    1    1    2    0    0 -0.26743337284E+03  0.18016774054E+03 -0.77663772086E+03  0.86167927508E+03  0.18800000000E+03 0.  0.
<mgrwt>
<rscale>  0 0.75702010E+03</rscale>
<asrwt>0</asrwt>
<pdfrwt beam="1">  1        2 0.28060781E+00 0.75702010E+03</pdfrwt>
<pdfrwt beam="2">  1       -2 0.10419791E-01 0.75702010E+03</pdfrwt>
<totfact> 0.54729555E+02</totfact>
</mgrwt>
</event>
<event>
 4    1  0.5886875E-005  0.8158823E+03  0.7818608E-02  0.9537308E-01
          2   -1    0    0  501    0  0.00000000000E+00  0.00000000000E+00  0.49285252891E+03  0.49285252892E+03  0.25500000000E-02 0.  1.
         -2   -1    0    0    0  501 -0.00000000000E+00 -0.00000000000E+00 -0.33765876449E+03  0.33765876450E+03  0.25500000000E-02 0. -1.
    5000001    1    1    2    0    0 -0.34745041269E+03 -0.51408032828E+02 -0.11769054672E+02  0.39855625169E+03  0.18800000000E+03 0.  0.
   -5000001    1    1    2    0    0  0.34745041269E+03  0.51408032828E+02  0.16696281909E+03  0.43195504173E+03  0.18800000000E+03 0.  0.
<mgrwt>
<rscale>  0 0.81588229E+03</rscale>
<asrwt>0</asrwt>
<pdfrwt beam="1">  1        2 0.70407504E-01 0.81588229E+03</pdfrwt>
<pdfrwt beam="2">  1       -2 0.48236966E-01 0.81588229E+03</pdfrwt>
<totfact> 0.27946838E+02</totfact>
</mgrwt>
</event>
<event>
 4    1  0.5886875E-005  0.5178320E+03  0.7818608E-02  0.1009227E+00
          2   -1    0    0  501    0  0.00000000000E+00  0.00000000000E+00  0.37071410811E+03  0.37071410812E+03  0.25500000000E-02 0.  1.
         -2   -1    0    0    0  501 -0.00000000000E+00 -0.00000000000E+00 -0.18083338162E+03  0.18083338164E+03  0.25500000000E-02 0. -1.
    5000001    1    1    2    0    0 -0.37695344711E+02 -0.14564327286E+03  0.19632500003E+03  0.31067733676E+03  0.18800000000E+03 0.  0.
   -5000001    1    1    2    0    0  0.37695344711E+02  0.14564327286E+03 -0.64442735359E+01  0.24087015300E+03  0.18800000000E+03 0.  0.
<mgrwt>
<rscale>  0 0.51783196E+03</rscale>
<asrwt>0</asrwt>
<pdfrwt beam="1">  1        2 0.52959159E-01 0.51783196E+03</pdfrwt>
<pdfrwt beam="2">  1       -2 0.25833340E-01 0.51783196E+03</pdfrwt>
<totfact> 0.12704574E+03</totfact>
</mgrwt>
</event>
<event>
 4    1  0.5886875E-005  0.8462866E+03  0.7818608E-02  0.9495335E-01
          2   -1    0    0  501    0  0.00000000000E+00  0.00000000000E+00  0.28190981301E+04  0.28190981301E+04  0.25500000000E-02 0.  1.
         -2   -1    0    0    0  501 -0.00000000000E+00 -0.00000000000E+00 -0.63513304890E+02  0.63513304942E+02  0.25500000000E-02 0. -1.
    5000001    1    1    2    0    0  0.23381808598E+03  0.20572538237E+03  0.21139737242E+04  0.21450460920E+04  0.18800000000E+03 0.  0.
   -5000001    1    1    2    0    0 -0.23381808598E+03 -0.20572538237E+03  0.64161110095E+03  0.73756534296E+03  0.18800000000E+03 0.  0.
<mgrwt>
<rscale>  0 0.84628657E+03</rscale>
<asrwt>0</asrwt>
<pdfrwt beam="1">  1        2 0.40272838E+00 0.84628657E+03</pdfrwt>
<pdfrwt beam="2">  1       -2 0.90733275E-02 0.84628657E+03</pdfrwt>
<totfact> 0.24650390E+02</totfact>
</mgrwt>
</event>
<event>
 4    1  0.5886875E-005  0.6868515E+03  0.7818608E-02  0.9739986E-01
          2   -1    0    0  501    0  0.00000000000E+00  0.00000000000E+00  0.22395468714E+04  0.22395468714E+04  0.25500000000E-02 0.  1.
         -2   -1    0    0    0  501 -0.00000000000E+00 -0.00000000000E+00 -0.52662998396E+02  0.52662998457E+02  0.25500000000E-02 0. -1.
    5000001    1    1    2    0    0  0.14016343875E+03  0.12644713265E+03  0.18166570893E+04  0.18360886817E+04  0.18800000000E+03 0.  0.
   -5000001    1    1    2    0    0 -0.14016343875E+03 -0.12644713265E+03  0.37022678366E+03  0.45612118813E+03  0.18800000000E+03 0.  0.
<mgrwt>
<rscale>  0 0.68685152E+03</rscale>
<asrwt>0</asrwt>
<pdfrwt beam="1">  1        2 0.31993517E+00 0.68685152E+03</pdfrwt>
<pdfrwt beam="2">  1       -2 0.75232879E-02 0.68685152E+03</pdfrwt>
<totfact> 0.67445545E+02</totfact>
</mgrwt>
</event>
<event>
 4    1  0.5886875E-005  0.7501159E+03  0.7818608E-02  0.9635168E-01
         -2   -1    0    0    0  501 -0.00000000000E+00  0.00000000000E+00  0.22838669187E+03  0.22838669188E+03  0.25500000000E-02 0. -1.
          2   -1    0    0  501    0  0.00000000000E+00 -0.00000000000E+00 -0.61592241836E+03  0.61592241837E+03  0.25500000000E-02 0.  1.
    5000001    1    1    2    0    0 -0.31116835611E+03  0.53531075840E+02 -0.27824694492E+03  0.46093023798E+03  0.18800000000E+03 0.  0.
   -5000001    1    1    2    0    0  0.31116835611E+03 -0.53531075840E+02 -0.10928878157E+03  0.38337887227E+03  0.18800000000E+03 0.  0.
<mgrwt>
<rscale>  0 0.75011595E+03</rscale>
<asrwt>0</asrwt>
<pdfrwt beam="1">  1        2 0.87988916E-01 0.75011595E+03</pdfrwt>
<pdfrwt beam="2">  1       -2 0.32626670E-01 0.75011595E+03</pdfrwt>
<totfact> 0.46250057E+02</totfact>
</mgrwt>
</event>
<event>
 4    1  0.5886875E-005  0.6307831E+03  0.7818608E-02  0.9843522E-01
          2   -1    0    0  501    0  0.00000000000E+00  0.00000000000E+00  0.24441596872E+04  0.24441596872E+04  0.25500000000E-02 0.  1.
         -2   -1    0    0    0  501 -0.00000000000E+00 -0.00000000000E+00 -0.40697762329E+02  0.40697762408E+02  0.25500000000E-02 0. -1.
    5000001    1    1    2    0    0  0.17505054960E+03 -0.14427375402E+03  0.16451491398E+04  0.16713220226E+04  0.18800000000E+03 0.  0.
   -5000001    1    1    2    0    0 -0.17505054960E+03  0.14427375402E+03  0.75831278510E+03  0.81353542705E+03  0.18800000000E+03 0.  0.
<mgrwt>
<rscale>  0 0.63078310E+03</rscale>
<asrwt>0</asrwt>
<pdfrwt beam="1">  1        2 0.34916578E+00 0.63078310E+03</pdfrwt>
<pdfrwt beam="2">  1       -2 0.58139642E-02 0.63078310E+03</pdfrwt>
<totfact> 0.80017263E+02</totfact>
</mgrwt>
</event>
<event>
 4    1  0.5886875E-005  0.4363936E+03  0.7818608E-02  0.1031859E+00
          2   -1    0    0  501    0  0.00000000000E+00  0.00000000000E+00  0.16678103815E+04  0.16678103815E+04  0.25500000000E-02 0.  1.
         -2   -1    0    0    0  501 -0.00000000000E+00 -0.00000000000E+00 -0.28546313398E+02  0.28546313512E+02  0.25500000000E-02 0. -1.
    5000001    1    1    2    0    0 -0.68489318622E+02 -0.68314924593E+02  0.10292580399E+04  0.10507491748E+04  0.18800000000E+03 0.  0.
   -5000001    1    1    2    0    0  0.68489318622E+02  0.68314924593E+02  0.61000602823E+03  0.64560752022E+03  0.18800000000E+03 0.  0.
<mgrwt>
<rscale>  0 0.43639357E+03</rscale>
<asrwt>0</asrwt>
<pdfrwt beam="1">  1        2 0.23825862E+00 0.43639357E+03</pdfrwt>
<pdfrwt beam="2">  1       -2 0.40780448E-02 0.43639357E+03</pdfrwt>
<totfact> 0.34304432E+03</totfact>
</mgrwt>
</event>
<event>
 4    1  0.5886875E-005  0.4528835E+03  0.7818608E-02  0.1026866E+00
         -2   -1    0    0    0  501 -0.00000000000E+00  0.00000000000E+00  0.10189838952E+03  0.10189838955E+03  0.25500000000E-02 0. -1.
          2   -1    0    0  501    0  0.00000000000E+00 -0.00000000000E+00 -0.50320591816E+03  0.50320591817E+03  0.25500000000E-02 0.  1.
    5000001    1    1    2    0    0 -0.16579889245E+02  0.94808022594E+02 -0.91546126813E+02  0.23019154461E+03  0.18800000000E+03 0.  0.
   -5000001    1    1    2    0    0  0.16579889245E+02 -0.94808022594E+02 -0.30976140183E+03  0.37491276311E+03  0.18800000000E+03 0.  0.
<mgrwt>
<rscale>  0 0.45288353E+03</rscale>
<asrwt>0</asrwt>
<pdfrwt beam="1">  1        2 0.71886559E-01 0.45288353E+03</pdfrwt>
<pdfrwt beam="2">  1       -2 0.14556913E-01 0.45288353E+03</pdfrwt>
<totfact> 0.24358790E+03</totfact>
</mgrwt>
</event>
<event>
 4    1  0.5886875E-005  0.4852994E+03  0.7818608E-02  0.1017689E+00
          2   -1    0    0  501    0  0.00000000000E+00  0.00000000000E+00  0.52273639669E+04  0.52273639669E+04  0.25500000000E-02 0.  1.
         -2   -1    0    0    0  501 -0.00000000000E+00 -0.00000000000E+00 -0.11263586479E+02  0.11263586767E+02  0.25500000000E-02 0. -1.
    5000001    1    1    2    0    0 -0.10735311896E+03 -0.66463679567E+02  0.16674447845E+04  0.16827531674E+04  0.18800000000E+03 0.  0.
   -5000001    1    1    2    0    0  0.10735311896E+03  0.66463679567E+02  0.35486555959E+04  0.35558743863E+04  0.18800000000E+03 0.  0.
<mgrwt>
<rscale>  0 0.48529936E+03</rscale>
<asrwt>0</asrwt>
<pdfrwt beam="1">  1        2 0.74676388E+00 0.48529936E+03</pdfrwt>
<pdfrwt beam="2">  1       -2 0.16090890E-02 0.48529936E+03</pdfrwt>
<totfact> 0.73578723E+01</totfact>
</mgrwt>
</event>
<event>
 4    1  0.5886875E-005  0.5731383E+03  0.7818608E-02  0.9962758E-01
         -2   -1    0    0    0  501 -0.00000000000E+00  0.00000000000E+00  0.68807413629E+02  0.68807413676E+02  0.25500000000E-02 0. -1.
          2   -1    0    0  501    0  0.00000000000E+00 -0.00000000000E+00 -0.11935032200E+04  0.11935032200E+04  0.25500000000E-02 0.  1.
    5000001    1    1    2    0    0  0.98757920814E+02 -0.16779215704E+03 -0.76978275921E+03  0.81597599919E+03  0.18800000000E+03 0.  0.
   -5000001    1    1    2    0    0 -0.98757920814E+02  0.16779215704E+03 -0.35491304713E+03  0.44633463445E+03  0.18800000000E+03 0.  0.
<mgrwt>
<rscale>  0 0.57313827E+03</rscale>
<asrwt>0</asrwt>
<pdfrwt beam="1">  1        2 0.17050045E+00 0.57313827E+03</pdfrwt>
<pdfrwt beam="2">  1       -2 0.98296313E-02 0.57313827E+03</pdfrwt>
<totfact> 0.15333279E+03</totfact>
</mgrwt>
</event>
<event>
 4    1  0.5886875E-005  0.5180480E+03  0.7818608E-02  0.1009173E+00
         -2   -1    0    0    0  501 -0.00000000000E+00  0.00000000000E+00  0.23827275376E+03  0.23827275378E+03  0.25500000000E-02 0. -1.
          2   -1    0    0  501    0  0.00000000000E+00 -0.00000000000E+00 -0.28158248671E+03  0.28158248672E+03  0.25500000000E-02 0.  1.
    5000001    1    1    2    0    0  0.16153892728E+03 -0.49017090064E+02  0.35569804637E+02  0.25516016764E+03  0.18800000000E+03 0.  0.
   -5000001    1    1    2    0    0 -0.16153892728E+03  0.49017090064E+02 -0.78879537584E+02  0.26469507286E+03  0.18800000000E+03 0.  0.
<mgrwt>
<rscale>  0 0.51804801E+03</rscale>
<asrwt>0</asrwt>
<pdfrwt beam="1">  1        2 0.40226070E-01 0.51804801E+03</pdfrwt>
<pdfrwt beam="2">  1       -2 0.34038965E-01 0.51804801E+03</pdfrwt>
<totfact> 0.10352044E+03</totfact>
</mgrwt>
</event>
<event>
 4    1  0.5886875E-005  0.5767751E+03  0.7818608E-02  0.9954797E-01
          2   -1    0    0  501    0  0.00000000000E+00  0.00000000000E+00  0.80239826044E+02  0.80239826084E+02  0.25500000000E-02 0.  1.
         -2   -1    0    0    0  501 -0.00000000000E+00 -0.00000000000E+00 -0.10364851003E+04  0.10364851003E+04  0.25500000000E-02 0. -1.
    5000001    1    1    2    0    0  0.96261477492E+02 -0.16543319171E+03 -0.68292490973E+03  0.73373349746E+03  0.18800000000E+03 0.  0.
   -5000001    1    1    2    0    0 -0.96261477492E+02  0.16543319171E+03 -0.27332036454E+03  0.38299142894E+03  0.18800000000E+03 0.  0.
<mgrwt>
<rscale>  0 0.57677512E+03</rscale>
<asrwt>0</asrwt>
<pdfrwt beam="1">  1        2 0.11462833E-01 0.57677512E+03</pdfrwt>
<pdfrwt beam="2">  1       -2 0.14806929E+00 0.57677512E+03</pdfrwt>
<totfact> 0.17625966E+02</totfact>
</mgrwt>
</event>
<event>
 4    1  0.5886875E-005  0.6727292E+03  0.7818608E-02  0.9765040E-01
         -2   -1    0    0    0  501 -0.00000000000E+00  0.00000000000E+00  0.48674121658E+02  0.48674121725E+02  0.25500000000E-02 0. -1.
          2   -1    0    0  501    0  0.00000000000E+00 -0.00000000000E+00 -0.23244622250E+04  0.23244622250E+04  0.25500000000E-02 0.  1.
    5000001    1    1    2    0    0 -0.27383960240E+03 -0.30063162585E+02 -0.98391673983E+03  0.10389071530E+04  0.18800000000E+03 0.  0.
   -5000001    1    1    2    0    0  0.27383960240E+03  0.30063162585E+02 -0.12918713635E+04  0.13342291937E+04  0.18800000000E+03 0.  0.
<mgrwt>
<rscale>  0 0.67272924E+03</rscale>
<asrwt>0</asrwt>
<pdfrwt beam="1">  1        2 0.33206596E+00 0.67272924E+03</pdfrwt>
<pdfrwt beam="2">  1       -2 0.69534474E-02 0.67272924E+03</pdfrwt>
<totfact> 0.69275638E+02</totfact>
</mgrwt>
</event>
<event>
 4    1  0.5886875E-005  0.4659585E+03  0.7818608E-02  0.1023067E+00
          2   -1    0    0  501    0  0.00000000000E+00  0.00000000000E+00  0.20122393579E+03  0.20122393581E+03  0.25500000000E-02 0. -1.
         -2   -1    0    0    0  501 -0.00000000000E+00 -0.00000000000E+00 -0.26974589050E+03  0.26974589051E+03  0.25500000000E-02 0.  1.
    5000001    1    1    2    0    0 -0.10805374184E+03 -0.32208588318E+02 -0.11399105960E+03  0.24708493672E+03  0.18800000000E+03 0.  0.
   -5000001    1    1    2    0    0  0.10805374184E+03  0.32208588318E+02  0.45469104894E+02  0.22388488959E+03  0.18800000000E+03 0.  0.
<mgrwt>
<rscale>  0 0.46595849E+03</rscale>
<asrwt>0</asrwt>
<pdfrwt beam="1">  1        2 0.28746276E-01 0.46595849E+03</pdfrwt>
<pdfrwt beam="2">  1       -2 0.38535127E-01 0.46595849E+03</pdfrwt>
<totfact> 0.11869029E+03</totfact>
</mgrwt>
</event>
<event>
 4    1  0.5886875E-005  0.4922083E+03  0.7818608E-02  0.1015833E+00
         -2   -1    0    0    0  501 -0.00000000000E+00  0.00000000000E+00  0.28223844283E+02  0.28223844399E+02  0.25500000000E-02 0. -1.
          2   -1    0    0  501    0  0.00000000000E+00 -0.00000000000E+00 -0.21459603327E+04  0.21459603327E+04  0.25500000000E-02 0.  1.
    5000001    1    1    2    0    0 -0.13391794745E+03  0.12209743435E+02 -0.68561700904E+03  0.72353146274E+03  0.18800000000E+03 0.  0.
   -5000001    1    1    2    0    0  0.13391794745E+03 -0.12209743435E+02 -0.14321194794E+04  0.14506527144E+04  0.18800000000E+03 0.  0.
<mgrwt>
<rscale>  0 0.49220829E+03</rscale>
<asrwt>0</asrwt>
<pdfrwt beam="1">  1        2 0.30656566E+00 0.49220829E+03</pdfrwt>
<pdfrwt beam="2">  1       -2 0.40319791E-02 0.49220829E+03</pdfrwt>
<totfact> 0.20107960E+03</totfact>
</mgrwt>
</event>
<event>
 4    1  0.5886875E-005  0.9748432E+03  0.7818608E-02  0.9336575E-01
          2   -1    0    0  501    0  0.00000000000E+00  0.00000000000E+00  0.75158255531E+03  0.75158255531E+03  0.25500000000E-02 0.  1.
         -2   -1    0    0    0  501 -0.00000000000E+00 -0.00000000000E+00 -0.31610605322E+03  0.31610605323E+03  0.25500000000E-02 0. -1.
    5000001    1    1    2    0    0  0.16424598529E+03 -0.25648417364E+03  0.58012072063E+03  0.68164868189E+03  0.18800000000E+03 0.  0.
   -5000001    1    1    2    0    0 -0.16424598529E+03  0.25648417364E+03 -0.14464421854E+03  0.38603992666E+03  0.18800000000E+03 0.  0.
<mgrwt>
<rscale>  0 0.97484316E+03</rscale>
<asrwt>0</asrwt>
<pdfrwt beam="1">  1        2 0.10736893E+00 0.97484316E+03</pdfrwt>
<pdfrwt beam="2">  1       -2 0.45158009E-01 0.97484316E+03</pdfrwt>
<totfact> 0.19124544E+02</totfact>
</mgrwt>
</event>
<event>
 4    1  0.5886875E-005  0.1152151E+04  0.7818608E-02  0.9155801E-01
         -2   -1    0    0    0  501 -0.00000000000E+00  0.00000000000E+00  0.41442606691E+03  0.41442606692E+03  0.25500000000E-02 0. -1.
          2   -1    0    0  501    0  0.00000000000E+00 -0.00000000000E+00 -0.80077796272E+03  0.80077796272E+03  0.25500000000E-02 0.  1.
    5000001    1    1    2    0    0  0.38283596492E+03  0.36141746565E+03 -0.46522383251E+02  0.56097619616E+03  0.18800000000E+03 0.  0.
   -5000001    1    1    2    0    0 -0.38283596492E+03 -0.36141746565E+03 -0.33982951255E+03  0.65422783349E+03  0.18800000000E+03 0.  0.
<mgrwt>
<rscale>  0 0.11521515E+04</rscale>
<asrwt>0</asrwt>
<pdfrwt beam="1">  1        2 0.11439685E+00 0.11521515E+04</pdfrwt>
<pdfrwt beam="2">  1       -2 0.59203724E-01 0.11521515E+04</pdfrwt>
<totfact> 0.10016402E+02</totfact>
</mgrwt>
</event>
<event>
 4    1  0.5886875E-005  0.6139244E+03  0.7818608E-02  0.9876931E-01
         -2   -1    0    0    0  501 -0.00000000000E+00  0.00000000000E+00  0.89112906255E+02  0.89112906291E+02  0.25500000000E-02 0. -1.
          2   -1    0    0  501    0  0.00000000000E+00 -0.00000000000E+00 -0.10573754175E+04  0.10573754175E+04  0.25500000000E-02 0.  1.
    5000001    1    1    2    0    0 -0.11444168136E+03  0.18210293402E+03 -0.27431301612E+03  0.39604293685E+03  0.18800000000E+03 0.  0.
   -5000001    1    1    2    0    0  0.11444168136E+03 -0.18210293402E+03 -0.69394949508E+03  0.75044538690E+03  0.18800000000E+03 0.  0.
<mgrwt>
<rscale>  0 0.61392441E+03</rscale>
<asrwt>0</asrwt>
<pdfrwt beam="1">  1        2 0.15105362E+00 0.61392441E+03</pdfrwt>
<pdfrwt beam="2">  1       -2 0.12730416E-01 0.61392441E+03</pdfrwt>
<totfact> 0.12020353E+03</totfact>
</mgrwt>
</event>
<event>
 4    1  0.5886875E-005  0.4460063E+03  0.7818608E-02  0.1028920E+00
          2   -1    0    0  501    0  0.00000000000E+00  0.00000000000E+00  0.38343381234E+03  0.38343381235E+03  0.25500000000E-02 0.  1.
         -2   -1    0    0    0  501 -0.00000000000E+00 -0.00000000000E+00 -0.12969749147E+03  0.12969749150E+03  0.25500000000E-02 0. -1.
    5000001    1    1    2    0    0  0.11398707612E+03  0.24043791668E+02  0.94018422672E+02  0.24032191170E+03  0.18800000000E+03 0.  0.
   -5000001    1    1    2    0    0 -0.11398707612E+03 -0.24043791668E+02  0.15971789820E+03  0.27280939215E+03  0.18800000000E+03 0.  0.
<mgrwt>
<rscale>  0 0.44600629E+03</rscale>
<asrwt>0</asrwt>
<pdfrwt beam="1">  1        2 0.54776260E-01 0.44600629E+03</pdfrwt>
<pdfrwt beam="2">  1       -2 0.18528213E-01 0.44600629E+03</pdfrwt>
<totfact> 0.21913910E+03</totfact>
</mgrwt>
</event>
<event>
 4    1  0.5886875E-005  0.6796735E+03  0.7818608E-02  0.9752639E-01
          2   -1    0    0  501    0  0.00000000000E+00  0.00000000000E+00  0.54612058848E+03  0.54612058849E+03  0.25500000000E-02 0.  1.
         -2   -1    0    0    0  501 -0.00000000000E+00 -0.00000000000E+00 -0.21147164953E+03  0.21147164955E+03  0.25500000000E-02 0. -1.
    5000001    1    1    2    0    0 -0.21097280875E+03  0.14967918722E+03  0.39108549883E+02  0.32215968679E+03  0.18800000000E+03 0.  0.
   -5000001    1    1    2    0    0  0.21097280875E+03 -0.14967918722E+03  0.29554038907E+03  0.43543255125E+03  0.18800000000E+03 0.  0.
<mgrwt>
<rscale>  0 0.67967351E+03</rscale>
<asrwt>0</asrwt>
<pdfrwt beam="1">  1        2 0.78017226E-01 0.67967351E+03</pdfrwt>
<pdfrwt beam="2">  1       -2 0.30210236E-01 0.67967351E+03</pdfrwt>
<totfact> 0.61615176E+02</totfact>
</mgrwt>
</event>
<event>
 4    1  0.5886875E-005  0.1159577E+04  0.7818608E-02  0.9148993E-01
          2   -1    0    0  501    0  0.00000000000E+00  0.00000000000E+00  0.52588873200E+04  0.52588873200E+04  0.25500000000E-02 0.  1.
         -2   -1    0    0    0  501 -0.00000000000E+00 -0.00000000000E+00 -0.63921268087E+02  0.63921268138E+02  0.25500000000E-02 0. -1.
    5000001    1    1    2    0    0  0.47271343319E+03 -0.23976144726E+03  0.32444909719E+04  0.32928724858E+04  0.18800000000E+03 0.  0.
   -5000001    1    1    2    0    0 -0.47271343319E+03  0.23976144726E+03  0.19504750800E+04  0.20299361023E+04  0.18800000000E+03 0.  0.
<mgrwt>
<rscale>  0 0.11595771E+04</rscale>
<asrwt>0</asrwt>
<pdfrwt beam="1">  1        2 0.75126994E+00 0.11595771E+04</pdfrwt>
<pdfrwt beam="2">  1       -2 0.91316058E-02 0.11595771E+04</pdfrwt>
<totfact> 0.40775718E+00</totfact>
</mgrwt>
</event>
<event>
 4    1  0.5886875E-005  0.7883195E+03  0.7818608E-02  0.9577080E-01
         -2   -1    0    0    0  501 -0.00000000000E+00  0.00000000000E+00  0.23759008365E+03  0.23759008366E+03  0.25500000000E-02 0. -1.
          2   -1    0    0  501    0  0.00000000000E+00 -0.00000000000E+00 -0.65390737359E+03  0.65390737359E+03  0.25500000000E-02 0.  1.
    5000001    1    1    2    0    0  0.29895803495E+03  0.16050278217E+03 -0.12915158146E+03  0.40885349544E+03  0.18800000000E+03 0.  0.
   -5000001    1    1    2    0    0 -0.29895803495E+03 -0.16050278217E+03 -0.28716570848E+03  0.48264396181E+03  0.18800000000E+03 0.  0.
<mgrwt>
<rscale>  0 0.78831950E+03</rscale>
<asrwt>0</asrwt>
<pdfrwt beam="1">  1        2 0.93415338E-01 0.78831950E+03</pdfrwt>
<pdfrwt beam="2">  1       -2 0.33941441E-01 0.78831950E+03</pdfrwt>
<totfact> 0.39900461E+02</totfact>
</mgrwt>
</event>
<event>
 4    1  0.5886875E-005  0.8253606E+03  0.7818608E-02  0.9524017E-01
          2   -1    0    0  501    0  0.00000000000E+00  0.00000000000E+00  0.30978443127E+04  0.30978443127E+04  0.25500000000E-02 0.  1.
         -2   -1    0    0    0  501 -0.00000000000E+00 -0.00000000000E+00 -0.54975339398E+02  0.54975339457E+02  0.25500000000E-02 0. -1.
    5000001    1    1    2    0    0 -0.61499170238E+02  0.33511657743E+03  0.20462513317E+04  0.20829243340E+04  0.18800000000E+03 0.  0.
   -5000001    1    1    2    0    0  0.61499170238E+02 -0.33511657743E+03  0.99661764160E+03  0.10698953182E+04  0.18800000000E+03 0.  0.
<mgrwt>
<rscale>  0 0.82536063E+03</rscale>
<asrwt>0</asrwt>
<pdfrwt beam="1">  1        2 0.44254926E+00 0.82536063E+03</pdfrwt>
<pdfrwt beam="2">  1       -2 0.78536186E-02 0.82536063E+03</pdfrwt>
<totfact> 0.21945979E+02</totfact>
</mgrwt>
</event>
<event>
 4    1  0.5886875E-005  0.6008202E+03  0.7818608E-02  0.9903706E-01
          2   -1    0    0  501    0  0.00000000000E+00  0.00000000000E+00  0.66498845559E+03  0.66498845559E+03  0.25500000000E-02 0.  1.
         -2   -1    0    0    0  501 -0.00000000000E+00 -0.00000000000E+00 -0.13571095098E+03  0.13571095100E+03  0.25500000000E-02 0. -1.
    5000001    1    1    2    0    0 -0.78179008858E+02  0.21123598138E+03  0.17858433482E+03  0.34346610007E+03  0.18800000000E+03 0.  0.
   -5000001    1    1    2    0    0  0.78179008858E+02 -0.21123598138E+03  0.35069316979E+03  0.45723330652E+03  0.18800000000E+03 0.  0.
<mgrwt>
<rscale>  0 0.60082016E+03</rscale>
<asrwt>0</asrwt>
<pdfrwt beam="1">  1        2 0.94998352E-01 0.60082016E+03</pdfrwt>
<pdfrwt beam="2">  1       -2 0.19387278E-01 0.60082016E+03</pdfrwt>
<totfact> 0.10822812E+03</totfact>
</mgrwt>
</event>
<event>
 4    1  0.5886875E-005  0.5077992E+03  0.7818608E-02  0.1011763E+00
         -2   -1    0    0    0  501 -0.00000000000E+00  0.00000000000E+00  0.50977243707E+02  0.50977243770E+02  0.25500000000E-02 0. -1.
          2   -1    0    0  501    0  0.00000000000E+00 -0.00000000000E+00 -0.12645840784E+04  0.12645840784E+04  0.25500000000E-02 0.  1.
    5000001    1    1    2    0    0 -0.36832518689E+02 -0.14953801960E+03 -0.41637717800E+03  0.48211223600E+03  0.18800000000E+03 0.  0.
   -5000001    1    1    2    0    0  0.36832518689E+02  0.14953801960E+03 -0.79722965671E+03  0.83344908619E+03  0.18800000000E+03 0.  0.
<mgrwt>
<rscale>  0 0.50779922E+03</rscale>
<asrwt>0</asrwt>
<pdfrwt beam="1">  1        2 0.18065485E+00 0.50779922E+03</pdfrwt>
<pdfrwt beam="2">  1       -2 0.72824642E-02 0.50779922E+03</pdfrwt>
<totfact> 0.22637336E+03</totfact>
</mgrwt>
</event>
<event>
 4    1  0.5886875E-005  0.7106731E+03  0.7818608E-02  0.9699152E-01
         -2   -1    0    0    0  501 -0.00000000000E+00  0.00000000000E+00  0.10485714987E+04  0.10485714987E+04  0.25500000000E-02 0. -1.
          2   -1    0    0  501    0  0.00000000000E+00 -0.00000000000E+00 -0.12041532260E+03  0.12041532263E+03  0.25500000000E-02 0.  1.
    5000001    1    1    2    0    0  0.19647447379E+03 -0.20246639263E+03  0.63912843303E+03  0.72348048550E+03  0.18800000000E+03 0.  0.
   -5000001    1    1    2    0    0 -0.19647447379E+03  0.20246639263E+03  0.28902774304E+03  0.44550633580E+03  0.18800000000E+03 0.  0.
<mgrwt>
<rscale>  0 0.71067313E+03</rscale>
<asrwt>0</asrwt>
<pdfrwt beam="1">  1        2 0.17202189E-01 0.71067313E+03</pdfrwt>
<pdfrwt beam="2">  1       -2 0.14979593E+00 0.71067313E+03</pdfrwt>
<totfact> 0.10350478E+02</totfact>
</mgrwt>
</event>
<event>
 4    1  0.5886875E-005  0.6227496E+03  0.7818608E-02  0.9859301E-01
         -2   -1    0    0    0  501 -0.00000000000E+00  0.00000000000E+00  0.13265125795E+03  0.13265125797E+03  0.25500000000E-02 0. -1.
          2   -1    0    0  501    0  0.00000000000E+00 -0.00000000000E+00 -0.73089587132E+03  0.73089587133E+03  0.25500000000E-02 0.  1.
    5000001    1    1    2    0    0  0.97887895365E+02 -0.20421804776E+03 -0.15823239448E+03  0.33416843321E+03  0.18800000000E+03 0.  0.
   -5000001    1    1    2    0    0 -0.97887895365E+02  0.20421804776E+03 -0.44001221889E+03  0.52937869608E+03  0.18800000000E+03 0.  0.
<mgrwt>
<rscale>  0 0.62274957E+03</rscale>
<asrwt>0</asrwt>
<pdfrwt beam="1">  1        2 0.10441369E+00 0.62274957E+03</pdfrwt>
<pdfrwt beam="2">  1       -2 0.18950180E-01 0.62274957E+03</pdfrwt>
<totfact> 0.10026081E+03</totfact>
</mgrwt>
</event>
<event>
 4    1  0.5886875E-005  0.4861534E+03  0.7818608E-02  0.1017458E+00
         -2   -1    0    0    0  501 -0.00000000000E+00  0.00000000000E+00  0.23689289794E+02  0.23689289931E+02  0.25500000000E-02 0.  1.
          2   -1    0    0  501    0  0.00000000000E+00 -0.00000000000E+00 -0.24942188863E+04  0.24942188863E+04  0.25500000000E-02 0. -1.
    5000001    1    1    2    0    0  0.33412683825E+02  0.14651987159E+03 -0.14114957683E+04  0.14318689829E+04  0.18800000000E+03 0.  0.
   -5000001    1    1    2    0    0 -0.33412683825E+02 -0.14651987159E+03 -0.10590338282E+04  0.10860391934E+04  0.18800000000E+03 0.  0.
<mgrwt>
<rscale>  0 0.48615337E+03</rscale>
<asrwt>0</asrwt>
<pdfrwt beam="1">  1        2 0.35631682E+00 0.48615337E+03</pdfrwt>
<pdfrwt beam="2">  1       -2 0.33841859E-02 0.48615337E+03</pdfrwt>
<totfact> 0.17542074E+03</totfact>
</mgrwt>
</event>
<event>
 4    1  0.5886875E-005  0.4498383E+03  0.7818608E-02  0.1027770E+00
         -2   -1    0    0    0  501 -0.00000000000E+00  0.00000000000E+00  0.59093484331E+02  0.59093484386E+02  0.25500000000E-02 0. -1.
          2   -1    0    0  501    0  0.00000000000E+00 -0.00000000000E+00 -0.85607790801E+03  0.85607790801E+03  0.25500000000E-02 0.  1.
    5000001    1    1    2    0    0 -0.67121983156E+02 -0.10308568563E+03 -0.37690337704E+03  0.43878488446E+03  0.18800000000E+03 0.  0.
   -5000001    1    1    2    0    0  0.67121983156E+02  0.10308568563E+03 -0.42008104664E+03  0.47638650794E+03  0.18800000000E+03 0.  0.
<mgrwt>
<rscale>  0 0.44983831E+03</rscale>
<asrwt>0</asrwt>
<pdfrwt beam="1">  1        2 0.12229684E+00 0.44983831E+03</pdfrwt>
<pdfrwt beam="2">  1       -2 0.84419269E-02 0.44983831E+03</pdfrwt>
<totfact> 0.31255308E+03</totfact>
</mgrwt>
</event>
<event>
 4    1  0.5886875E-005  0.1009852E+04  0.7818608E-02  0.9297805E-01
          2   -1    0    0  501    0  0.00000000000E+00  0.00000000000E+00  0.55117989535E+03  0.55117989535E+03  0.25500000000E-02 0.  1.
         -2   -1    0    0    0  501 -0.00000000000E+00 -0.00000000000E+00 -0.46255339663E+03  0.46255339663E+03  0.25500000000E-02 0. -1.
    5000001    1    1    2    0    0  0.75159224859E+02  0.46220257419E+03  0.26188266224E+02  0.50528205387E+03  0.18800000000E+03 0.  0.
   -5000001    1    1    2    0    0 -0.75159224859E+02 -0.46220257419E+03  0.62438232496E+02  0.50845123812E+03  0.18800000000E+03 0.  0.
<mgrwt>
<rscale>  0 0.10098517E+04</rscale>
<asrwt>0</asrwt>
<pdfrwt beam="1">  1        2 0.78739986E-01 0.10098517E+04</pdfrwt>
<pdfrwt beam="2">  1       -2 0.66079056E-01 0.10098517E+04</pdfrwt>
<totfact> 0.12619612E+02</totfact>
</mgrwt>
</event>
<event>
 4    1  0.5886875E-005  0.4652122E+03  0.7818608E-02  0.1023280E+00
         -2   -1    0    0    0  501 -0.00000000000E+00  0.00000000000E+00  0.23892380309E+03  0.23892380311E+03  0.25500000000E-02 0. -1.
          2   -1    0    0  501    0  0.00000000000E+00 -0.00000000000E+00 -0.22645549559E+03  0.22645549560E+03  0.25500000000E-02 0.  1.
    5000001    1    1    2    0    0  0.11159316460E+03 -0.75294989306E+02 -0.19058090436E+02  0.23201202687E+03  0.18800000000E+03 0.  0.
   -5000001    1    1    2    0    0 -0.11159316460E+03  0.75294989306E+02  0.31526397938E+02  0.23336727184E+03  0.18800000000E+03 0.  0.
<mgrwt>
<rscale>  0 0.46521225E+03</rscale>
<asrwt>0</asrwt>
<pdfrwt beam="1">  1        2 0.32350785E-01 0.46521225E+03</pdfrwt>
<pdfrwt beam="2">  1       -2 0.34131972E-01 0.46521225E+03</pdfrwt>
<totfact> 0.13098470E+03</totfact>
</mgrwt>
</event>
<event>
 4    1  0.5886875E-005  0.7902944E+03  0.7818608E-02  0.9574173E-01
          2   -1    0    0  501    0  0.00000000000E+00  0.00000000000E+00  0.36800385798E+03  0.36800385798E+03  0.25500000000E-02 0.  1.
         -2   -1    0    0    0  501 -0.00000000000E+00 -0.00000000000E+00 -0.42429257958E+03  0.42429257959E+03  0.25500000000E-02 0. -1.
    5000001    1    1    2    0    0  0.32417781496E+03 -0.67237307419E+02  0.77883642535E+02  0.38861545645E+03  0.18800000000E+03 0.  0.
   -5000001    1    1    2    0    0 -0.32417781496E+03  0.67237307419E+02 -0.13417236414E+03  0.40368098112E+03  0.18800000000E+03 0.  0.
<mgrwt>
<rscale>  0 0.79029439E+03</rscale>
<asrwt>0</asrwt>
<pdfrwt beam="1">  1        2 0.52571980E-01 0.79029439E+03</pdfrwt>
<pdfrwt beam="2">  1       -2 0.60613226E-01 0.79029439E+03</pdfrwt>
<totfact> 0.24243513E+02</totfact>
</mgrwt>
</event>
<event>
 4    1  0.5886875E-005  0.4412312E+03  0.7818608E-02  0.1030370E+00
          2   -1    0    0  501    0  0.00000000000E+00  0.00000000000E+00  0.96995612794E+03  0.96995612794E+03  0.25500000000E-02 0.  1.
         -2   -1    0    0    0  501 -0.00000000000E+00 -0.00000000000E+00 -0.50178808272E+02  0.50178808337E+02  0.25500000000E-02 0. -1.
    5000001    1    1    2    0    0  0.19370373447E+02 -0.10903821232E+03  0.38451898429E+03  0.44211242054E+03  0.18800000000E+03 0.  0.
   -5000001    1    1    2    0    0 -0.19370373447E+02  0.10903821232E+03  0.53525833537E+03  0.57802251574E+03  0.18800000000E+03 0.  0.
<mgrwt>
<rscale>  0 0.44123120E+03</rscale>
<asrwt>0</asrwt>
<pdfrwt beam="1">  1        2 0.13856516E+00 0.44123120E+03</pdfrwt>
<pdfrwt beam="2">  1       -2 0.71684015E-02 0.44123120E+03</pdfrwt>
<totfact> 0.34268489E+03</totfact>
</mgrwt>
</event>
<event>
 4    1  0.5886875E-005  0.5422942E+03  0.7818608E-02  0.1003293E+00
          2   -1    0    0  501    0  0.00000000000E+00  0.00000000000E+00  0.25540276944E+03  0.25540276945E+03  0.25500000000E-02 0. -1.
         -2   -1    0    0    0  501 -0.00000000000E+00 -0.00000000000E+00 -0.28786201688E+03  0.28786201689E+03  0.25500000000E-02 0.  1.
    5000001    1    1    2    0    0 -0.32169480191E+02  0.18021741990E+03 -0.84642125883E+02  0.27571993647E+03  0.18800000000E+03 0.  0.
   -5000001    1    1    2    0    0  0.32169480191E+02 -0.18021741990E+03  0.52182878446E+02  0.26754484987E+03  0.18800000000E+03 0.  0.
<mgrwt>
<rscale>  0 0.54229422E+03</rscale>
<asrwt>0</asrwt>
<pdfrwt beam="1">  1        2 0.36486110E-01 0.54229422E+03</pdfrwt>
<pdfrwt beam="2">  1       -2 0.41123145E-01 0.54229422E+03</pdfrwt>
<totfact> 0.80292249E+02</totfact>
</mgrwt>
</event>
<event>
 4    1  0.5886875E-005  0.4190456E+03  0.7818608E-02  0.1037377E+00
         -2   -1    0    0    0  501 -0.00000000000E+00  0.00000000000E+00  0.28841737663E+02  0.28841737776E+02  0.25500000000E-02 0. -1.
          2   -1    0    0  501    0  0.00000000000E+00 -0.00000000000E+00 -0.15220926207E+04  0.15220926207E+04  0.25500000000E-02 0.  1.
    5000001    1    1    2    0    0  0.40052937701E+02 -0.81523918311E+02 -0.68194497529E+03  0.71319235582E+03  0.18800000000E+03 0.  0.
   -5000001    1    1    2    0    0 -0.40052937701E+02  0.81523918311E+02 -0.81130590779E+03  0.83774200270E+03  0.18800000000E+03 0.  0.
<mgrwt>
<rscale>  0 0.41904556E+03</rscale>
<asrwt>0</asrwt>
<pdfrwt beam="1">  1        2 0.21744175E+00 0.41904556E+03</pdfrwt>
<pdfrwt beam="2">  1       -2 0.41202492E-02 0.41904556E+03</pdfrwt>
<totfact> 0.40047245E+03</totfact>
</mgrwt>
</event>
<event>
 4    1  0.5886875E-005  0.9037536E+03  0.7818608E-02  0.9420901E-01
         -2   -1    0    0    0  501 -0.00000000000E+00  0.00000000000E+00  0.30756908276E+03  0.30756908277E+03  0.25500000000E-02 0. -1.
          2   -1    0    0  501    0  0.00000000000E+00 -0.00000000000E+00 -0.66389201207E+03  0.66389201207E+03  0.25500000000E-02 0.  1.
    5000001    1    1    2    0    0  0.13411914297E+03 -0.38179458426E+03 -0.10144508113E+03  0.45759168869E+03  0.18800000000E+03 0.  0.
   -5000001    1    1    2    0    0 -0.13411914297E+03  0.38179458426E+03 -0.25487784818E+03  0.51386940614E+03  0.18800000000E+03 0.  0.
<mgrwt>
<rscale>  0 0.90375363E+03</rscale>
<asrwt>0</asrwt>
<pdfrwt beam="1">  1        2 0.94841715E-01 0.90375363E+03</pdfrwt>
<pdfrwt beam="2">  1       -2 0.43938441E-01 0.90375363E+03</pdfrwt>
<totfact> 0.23638757E+02</totfact>
</mgrwt>
</event>
<event>
 4    1  0.5886875E-005  0.6029861E+03  0.7818608E-02  0.9899230E-01
         -2   -1    0    0    0  501 -0.00000000000E+00  0.00000000000E+00  0.49151876220E+03  0.49151876221E+03  0.25500000000E-02 0. -1.
          2   -1    0    0  501    0  0.00000000000E+00 -0.00000000000E+00 -0.18493305249E+03  0.18493305251E+03  0.25500000000E-02 0.  1.
    5000001    1    1    2    0    0 -0.16863675881E+03 -0.65351616584E+02 -0.16267354010E+02  0.26137677215E+03  0.18800000000E+03 0.  0.
   -5000001    1    1    2    0    0  0.16863675881E+03  0.65351616584E+02  0.32285306372E+03  0.41507504257E+03  0.18800000000E+03 0.  0.
<mgrwt>
<rscale>  0 0.60298612E+03</rscale>
<asrwt>0</asrwt>
<pdfrwt beam="1">  1        2 0.26419008E-01 0.60298612E+03</pdfrwt>
<pdfrwt beam="2">  1       -2 0.70216965E-01 0.60298612E+03</pdfrwt>
<totfact> 0.38341447E+02</totfact>
</mgrwt>
</event>
<event>
 4    1  0.5886875E-005  0.4044345E+03  0.7818608E-02  0.1042255E+00
         -2   -1    0    0    0  501 -0.00000000000E+00  0.00000000000E+00  0.34547842419E+03  0.34547842420E+03  0.25500000000E-02 0. -1.
          2   -1    0    0  501    0  0.00000000000E+00 -0.00000000000E+00 -0.11836289300E+03  0.11836289303E+03  0.25500000000E-02 0.  1.
    5000001    1    1    2    0    0  0.54513864308E+02  0.46546555024E+02  0.90349702325E+02  0.22055704907E+03  0.18800000000E+03 0.  0.
   -5000001    1    1    2    0    0 -0.54513864308E+02 -0.46546555024E+02  0.13676582886E+03  0.24328426815E+03  0.18800000000E+03 0.  0.
<mgrwt>
<rscale>  0 0.40443455E+03</rscale>
<asrwt>0</asrwt>
<pdfrwt beam="1">  1        2 0.16908985E-01 0.40443455E+03</pdfrwt>
<pdfrwt beam="2">  1       -2 0.49354060E-01 0.40443455E+03</pdfrwt>
<totfact> 0.13431012E+03</totfact>
</mgrwt>
</event>
<event>
 4    1  0.5886875E-005  0.5741442E+03  0.7818608E-02  0.9960550E-01
         -2   -1    0    0    0  501 -0.00000000000E+00  0.00000000000E+00  0.30219380177E+03  0.30219380178E+03  0.25500000000E-02 0. -1.
          2   -1    0    0  501    0  0.00000000000E+00 -0.00000000000E+00 -0.27270711260E+03  0.27270711261E+03  0.25500000000E-02 0.  1.
    5000001    1    1    2    0    0 -0.34483006261E+02 -0.19962774010E+03 -0.62986837724E+02  0.28346367327E+03  0.18800000000E+03 0.  0.
   -5000001    1    1    2    0    0  0.34483006261E+02  0.19962774010E+03  0.92473526896E+02  0.29143724112E+03  0.18800000000E+03 0.  0.
<mgrwt>
<rscale>  0 0.57414423E+03</rscale>
<asrwt>0</asrwt>
<pdfrwt beam="1">  1        2 0.38958159E-01 0.57414423E+03</pdfrwt>
<pdfrwt beam="2">  1       -2 0.43170543E-01 0.57414423E+03</pdfrwt>
<totfact> 0.67880426E+02</totfact>
</mgrwt>
</event>
<event>
 4    1  0.5886875E-005  0.7455348E+03  0.7818608E-02  0.9642382E-01
         -2   -1    0    0    0  501 -0.00000000000E+00  0.00000000000E+00  0.15501466500E+03  0.15501466503E+03  0.25500000000E-02 0. -1.
          2   -1    0    0  501    0  0.00000000000E+00 -0.00000000000E+00 -0.89640258554E+03  0.89640258555E+03  0.25500000000E-02 0.  1.
    5000001    1    1    2    0    0 -0.19491355014E+03 -0.28369564844E+02 -0.72973685496E+03  0.77888125008E+03  0.18800000000E+03 0.  0.
   -5000001    1    1    2    0    0  0.19491355014E+03  0.28369564844E+02 -0.11651065579E+02  0.27253600049E+03  0.18800000000E+03 0.  0.
<mgrwt>
<rscale>  0 0.74553483E+03</rscale>
<asrwt>0</asrwt>
<pdfrwt beam="1">  1        2 0.12805751E+00 0.74553483E+03</pdfrwt>
<pdfrwt beam="2">  1       -2 0.22144953E-01 0.74553483E+03</pdfrwt>
<totfact> 0.58456194E+02</totfact>
</mgrwt>
</event>
<event>
 4    1  0.5886875E-005  0.5071723E+03  0.7818608E-02  0.1011924E+00
          2   -1    0    0  501    0  0.00000000000E+00  0.00000000000E+00  0.38616502251E+03  0.38616502252E+03  0.25500000000E-02 0.  1.
         -2   -1    0    0    0  501 -0.00000000000E+00 -0.00000000000E+00 -0.16652450249E+03  0.16652450251E+03  0.25500000000E-02 0. -1.
    5000001    1    1    2    0    0  0.97195622314E+02  0.83016543145E+02  0.23225663944E+03  0.32500135691E+03  0.18800000000E+03 0.  0.
   -5000001    1    1    2    0    0 -0.97195622314E+02 -0.83016543145E+02 -0.12616119418E+02  0.22768816812E+03  0.18800000000E+03 0.  0.
<mgrwt>
<rscale>  0 0.50717231E+03</rscale>
<asrwt>0</asrwt>
<pdfrwt beam="1">  1        2 0.55166432E-01 0.50717231E+03</pdfrwt>
<pdfrwt beam="2">  1       -2 0.23789214E-01 0.50717231E+03</pdfrwt>
<totfact> 0.14072390E+03</totfact>
</mgrwt>
</event>
<event>
 4    1  0.5886875E-005  0.5394236E+03  0.7818608E-02  0.1003972E+00
         -2   -1    0    0    0  501 -0.00000000000E+00  0.00000000000E+00  0.41108505130E+03  0.41108505131E+03  0.25500000000E-02 0. -1.
          2   -1    0    0  501    0  0.00000000000E+00 -0.00000000000E+00 -0.17695721455E+03  0.17695721457E+03  0.25500000000E-02 0.  1.
    5000001    1    1    2    0    0 -0.39403020679E+02 -0.18933345692E+03  0.11798227251E+03  0.29438677378E+03  0.18800000000E+03 0.  0.
   -5000001    1    1    2    0    0  0.39403020679E+02  0.18933345692E+03  0.11614556424E+03  0.29365549210E+03  0.18800000000E+03 0.  0.
<mgrwt>
<rscale>  0 0.53942364E+03</rscale>
<asrwt>0</asrwt>
<pdfrwt beam="1">  1        2 0.25279602E-01 0.53942364E+03</pdfrwt>
<pdfrwt beam="2">  1       -2 0.58726437E-01 0.53942364E+03</pdfrwt>
<totfact> 0.59058398E+02</totfact>
</mgrwt>
</event>
<event>
 4    1  0.5886875E-005  0.4124505E+03  0.7818608E-02  0.1039552E+00
         -2   -1    0    0    0  501 -0.00000000000E+00  0.00000000000E+00  0.25053530710E+02  0.25053530839E+02  0.25500000000E-02 0. -1.
          2   -1    0    0  501    0  0.00000000000E+00 -0.00000000000E+00 -0.16975194877E+04  0.16975194877E+04  0.25500000000E-02 0.  1.
    5000001    1    1    2    0    0  0.61696062529E+02  0.62230451407E+01 -0.59487523916E+03  0.62694950402E+03  0.18800000000E+03 0.  0.
   -5000001    1    1    2    0    0 -0.61696062529E+02 -0.62230451407E+01 -0.10775907178E+04  0.10956235145E+04  0.18800000000E+03 0.  0.
<mgrwt>
<rscale>  0 0.41245051E+03</rscale>
<asrwt>0</asrwt>
<pdfrwt beam="1">  1        2 0.24250271E+00 0.41245051E+03</pdfrwt>
<pdfrwt beam="2">  1       -2 0.35790769E-02 0.41245051E+03</pdfrwt>
<totfact> 0.40426977E+03</totfact>
</mgrwt>
</event>
<event>
 4    1  0.5886875E-005  0.1041292E+04  0.7818608E-02  0.9264381E-01
          2   -1    0    0  501    0  0.00000000000E+00  0.00000000000E+00  0.98256607432E+03  0.98256607432E+03  0.25500000000E-02 0.  1.
         -2   -1    0    0    0  501 -0.00000000000E+00 -0.00000000000E+00 -0.27588176849E+03  0.27588176850E+03  0.25500000000E-02 0. -1.
    5000001    1    1    2    0    0 -0.43825939395E+03 -0.16657180851E+03  0.50578468518E+03  0.71482837908E+03  0.18800000000E+03 0.  0.
   -5000001    1    1    2    0    0  0.43825939395E+03  0.16657180851E+03  0.20089962065E+03  0.54361946374E+03  0.18800000000E+03 0.  0.
<mgrwt>
<rscale>  0 0.10412916E+04</rscale>
<asrwt>0</asrwt>
<pdfrwt beam="1">  1        2 0.14036658E+00 0.10412916E+04</pdfrwt>
<pdfrwt beam="2">  1       -2 0.39411681E-01 0.10412916E+04</pdfrwt>
<totfact> 0.17438596E+02</totfact>
</mgrwt>
</event>
<event>
 4    1  0.5886875E-005  0.1065079E+04  0.7818608E-02  0.9239913E-01
          2   -1    0    0  501    0  0.00000000000E+00  0.00000000000E+00  0.13552184337E+04  0.13552184337E+04  0.25500000000E-02 0. -1.
         -2   -1    0    0    0  501 -0.00000000000E+00 -0.00000000000E+00 -0.20926404214E+03  0.20926404216E+03  0.25500000000E-02 0.  1.
    5000001    1    1    2    0    0 -0.19903266195E+03  0.38973786962E+03  0.92288376226E+03  0.10385413069E+04  0.18800000000E+03 0.  0.
   -5000001    1    1    2    0    0  0.19903266195E+03 -0.38973786962E+03  0.22307062931E+03  0.52594116896E+03  0.18800000000E+03 0.  0.
<mgrwt>
<rscale>  0 0.10650793E+04</rscale>
<asrwt>0</asrwt>
<pdfrwt beam="1">  1        2 0.19360263E+00 0.10650793E+04</pdfrwt>
<pdfrwt beam="2">  1       -2 0.29894864E-01 0.10650793E+04</pdfrwt>
<totfact> 0.17933512E+02</totfact>
</mgrwt>
</event>
<event>
 4    1  0.5886875E-005  0.5900446E+03  0.7818608E-02  0.9926278E-01
          2   -1    0    0  501    0  0.00000000000E+00  0.00000000000E+00  0.61061297390E+03  0.61061297391E+03  0.25500000000E-02 0.  1.
         -2   -1    0    0    0  501 -0.00000000000E+00 -0.00000000000E+00 -0.14254224909E+03  0.14254224911E+03  0.25500000000E-02 0. -1.
    5000001    1    1    2    0    0 -0.18398266662E+03 -0.40459889043E+01  0.40446804496E+03  0.48249807361E+03  0.18800000000E+03 0.  0.
   -5000001    1    1    2    0    0  0.18398266662E+03  0.40459889043E+01  0.63602679848E+02  0.27065714941E+03  0.18800000000E+03 0.  0.
<mgrwt>
<rscale>  0 0.59004456E+03</rscale>
<asrwt>0</asrwt>
<pdfrwt beam="1">  1        2 0.87230425E-01 0.59004456E+03</pdfrwt>
<pdfrwt beam="2">  1       -2 0.20363178E-01 0.59004456E+03</pdfrwt>
<totfact> 0.11002487E+03</totfact>
</mgrwt>
</event>
<event>
 4    1  0.5886875E-005  0.4600385E+03  0.7818608E-02  0.1024770E+00
          2   -1    0    0  501    0  0.00000000000E+00  0.00000000000E+00  0.15443421556E+04  0.15443421556E+04  0.25500000000E-02 0.  1.
         -2   -1    0    0    0  501 -0.00000000000E+00 -0.00000000000E+00 -0.34259796549E+02  0.34259796644E+02  0.25500000000E-02 0. -1.
    5000001    1    1    2    0    0  0.40142993407E+02 -0.12011205568E+03  0.88910894511E+03  0.91754949845E+03  0.18800000000E+03 0.  0.
   -5000001    1    1    2    0    0 -0.40142993407E+02  0.12011205568E+03  0.62097341391E+03  0.66105245376E+03  0.18800000000E+03 0.  0.
<mgrwt>
<rscale>  0 0.46003847E+03</rscale>
<asrwt>0</asrwt>
<pdfrwt beam="1">  1        2 0.22062032E+00 0.46003847E+03</pdfrwt>
<pdfrwt beam="2">  1       -2 0.48942564E-02 0.46003847E+03</pdfrwt>
<totfact> 0.29958074E+03</totfact>
</mgrwt>
</event>
<event>
 4    1  0.5886875E-005  0.6198813E+03  0.7818608E-02  0.9864996E-01
         -2   -1    0    0    0  501 -0.00000000000E+00  0.00000000000E+00  0.30958670396E+02  0.30958670501E+02  0.25500000000E-02 0. -1.
          2   -1    0    0  501    0  0.00000000000E+00 -0.00000000000E+00 -0.31029503341E+04  0.31029503341E+04  0.25500000000E-02 0.  1.
    5000001    1    1    2    0    0 -0.42361650959E+02 -0.12013856347E+03 -0.46960593867E+03  0.52163351267E+03  0.18800000000E+03 0.  0.
   -5000001    1    1    2    0    0  0.42361650959E+02  0.12013856347E+03 -0.26023857250E+04  0.26122754919E+04  0.18800000000E+03 0.  0.
<mgrwt>
<rscale>  0 0.61988133E+03</rscale>
<asrwt>0</asrwt>
<pdfrwt beam="1">  1        2 0.44327842E+00 0.61988133E+03</pdfrwt>
<pdfrwt beam="2">  1       -2 0.44226692E-02 0.61988133E+03</pdfrwt>
<totfact> 0.54849696E+02</totfact>
</mgrwt>
</event>
<event>
 4    1  0.5886875E-005  0.4376690E+03  0.7818608E-02  0.1031464E+00
          2   -1    0    0  501    0  0.00000000000E+00  0.00000000000E+00  0.70784346973E+03  0.70784346973E+03  0.25500000000E-02 0.  1.
         -2   -1    0    0    0  501 -0.00000000000E+00 -0.00000000000E+00 -0.67654141144E+02  0.67654141192E+02  0.25500000000E-02 0. -1.
    5000001    1    1    2    0    0  0.10978852882E+03 -0.17516976633E+02  0.29604817017E+03  0.36789792686E+03  0.18800000000E+03 0.  0.
   -5000001    1    1    2    0    0 -0.10978852882E+03  0.17516976633E+02  0.34414115842E+03  0.40759968406E+03  0.18800000000E+03 0.  0.
<mgrwt>
<rscale>  0 0.43766902E+03</rscale>
<asrwt>0</asrwt>
<pdfrwt beam="1">  1        2 0.10112050E+00 0.43766902E+03</pdfrwt>
<pdfrwt beam="2">  1       -2 0.96648773E-02 0.43766902E+03</pdfrwt>
<totfact> 0.31947491E+03</totfact>
</mgrwt>
</event>
<event>
 4    1  0.5886875E-005  0.5382938E+03  0.7818608E-02  0.1004240E+00
          2   -1    0    0  501    0  0.00000000000E+00  0.00000000000E+00  0.29346984430E+03  0.29346984431E+03  0.25500000000E-02 0.  1.
         -2   -1    0    0    0  501 -0.00000000000E+00 -0.00000000000E+00 -0.24683988456E+03  0.24683988457E+03  0.25500000000E-02 0. -1.
    5000001    1    1    2    0    0 -0.10866039892E+03 -0.15391068998E+03 -0.16840837462E+02  0.26668932598E+03  0.18800000000E+03 0.  0.
   -5000001    1    1    2    0    0  0.10866039892E+03  0.15391068998E+03  0.63470797202E+02  0.27362040290E+03  0.18800000000E+03 0.  0.
<mgrwt>
<rscale>  0 0.53829383E+03</rscale>
<asrwt>0</asrwt>
<pdfrwt beam="1">  1        2 0.41924264E-01 0.53829383E+03</pdfrwt>
<pdfrwt beam="2">  1       -2 0.35262840E-01 0.53829383E+03</pdfrwt>
<totfact> 0.92531885E+02</totfact>
</mgrwt>
</event>
<event>
 4    1  0.5886875E-005  0.5067869E+03  0.7818608E-02  0.1012022E+00
          2   -1    0    0  501    0  0.00000000000E+00  0.00000000000E+00  0.10655815516E+04  0.10655815516E+04  0.25500000000E-02 0.  1.
         -2   -1    0    0    0  501 -0.00000000000E+00 -0.00000000000E+00 -0.60256535590E+02  0.60256535644E+02  0.25500000000E-02 0. -1.
    5000001    1    1    2    0    0  0.12626952917E+03  0.86319572889E+02  0.33837216997E+03  0.41621483403E+03  0.18800000000E+03 0.  0.
   -5000001    1    1    2    0    0 -0.12626952917E+03 -0.86319572889E+02  0.66695284607E+03  0.70962325324E+03  0.18800000000E+03 0.  0.
<mgrwt>
<rscale>  0 0.50678695E+03</rscale>
<asrwt>0</asrwt>
<pdfrwt beam="1">  1        2 0.15222592E+00 0.50678695E+03</pdfrwt>
<pdfrwt beam="2">  1       -2 0.86080771E-02 0.50678695E+03</pdfrwt>
<totfact> 0.22487180E+03</totfact>
</mgrwt>
</event>
<event>
 4    1  0.5886875E-005  0.5467314E+03  0.7818608E-02  0.1002253E+00
         -2   -1    0    0    0  501 -0.00000000000E+00  0.00000000000E+00  0.17708651352E+03  0.17708651354E+03  0.25500000000E-02 0. -1.
          2   -1    0    0  501    0  0.00000000000E+00 -0.00000000000E+00 -0.42199042483E+03  0.42199042484E+03  0.25500000000E-02 0.  1.
    5000001    1    1    2    0    0  0.18882079092E+03  0.58743206301E+02 -0.14081202886E+03  0.30704410570E+03  0.18800000000E+03 0.  0.
   -5000001    1    1    2    0    0 -0.18882079092E+03 -0.58743206301E+02 -0.10409188245E+03  0.29203283268E+03  0.18800000000E+03 0.  0.
<mgrwt>
<rscale>  0 0.54673143E+03</rscale>
<asrwt>0</asrwt>
<pdfrwt beam="1">  1        2 0.60284346E-01 0.54673143E+03</pdfrwt>
<pdfrwt beam="2">  1       -2 0.25298073E-01 0.54673143E+03</pdfrwt>
<totfact> 0.11428476E+03</totfact>
</mgrwt>
</event>
<event>
 4    1  0.5886875E-005  0.1772371E+04  0.7818608E-02  0.8721132E-01
         -2   -1    0    0    0  501 -0.00000000000E+00  0.00000000000E+00  0.25937982733E+03  0.25937982735E+03  0.25500000000E-02 0. -1.
          2   -1    0    0  501    0  0.00000000000E+00 -0.00000000000E+00 -0.30277023048E+04  0.30277023048E+04  0.25500000000E-02 0.  1.
    5000001    1    1    2    0    0 -0.21824863715E+03  0.72337533730E+03 -0.21689905983E+04  0.23045104820E+04  0.18800000000E+03 0.  0.
   -5000001    1    1    2    0    0  0.21824863715E+03 -0.72337533730E+03 -0.59933187913E+03  0.98257165010E+03  0.18800000000E+03 0.  0.
<mgrwt>
<rscale>  0 0.17723712E+04</rscale>
<asrwt>0</asrwt>
<pdfrwt beam="1">  1        2 0.43252888E+00 0.17723712E+04</pdfrwt>
<pdfrwt beam="2">  1       -2 0.37054263E-01 0.17723712E+04</pdfrwt>
<totfact> 0.14854427E+01</totfact>
</mgrwt>
</event>
<event>
 4    1  0.5886875E-005  0.6383293E+03  0.7818608E-02  0.9828928E-01
         -2   -1    0    0    0  501 -0.00000000000E+00  0.00000000000E+00  0.93598291357E+03  0.93598291358E+03  0.25500000000E-02 0. -1.
          2   -1    0    0  501    0  0.00000000000E+00 -0.00000000000E+00 -0.10883326397E+03  0.10883326400E+03  0.25500000000E-02 0.  1.
    5000001    1    1    2    0    0 -0.16424726582E+02  0.22996357437E+03  0.60282901971E+03  0.67223496204E+03  0.18800000000E+03 0.  0.
   -5000001    1    1    2    0    0  0.16424726582E+02 -0.22996357437E+03  0.22432062989E+03  0.37258121554E+03  0.18800000000E+03 0.  0.
<mgrwt>
<rscale>  0 0.63832931E+03</rscale>
<asrwt>0</asrwt>
<pdfrwt beam="1">  1        2 0.15547609E-01 0.63832931E+03</pdfrwt>
<pdfrwt beam="2">  1       -2 0.13371185E+00 0.63832931E+03</pdfrwt>
<totfact> 0.15732977E+02</totfact>
</mgrwt>
</event>
<event>
 4    1  0.5886875E-005  0.1466001E+04  0.7818608E-02  0.8907382E-01
         -2   -1    0    0    0  501 -0.00000000000E+00  0.00000000000E+00  0.19549144324E+03  0.19549144325E+03  0.25500000000E-02 0. -1.
          2   -1    0    0  501    0  0.00000000000E+00 -0.00000000000E+00 -0.27484069244E+04  0.27484069244E+04  0.25500000000E-02 0.  1.
    5000001    1    1    2    0    0  0.25075313843E+02 -0.66819927628E+03 -0.80625448278E+03  0.10641942187E+04  0.18800000000E+03 0.  0.
   -5000001    1    1    2    0    0 -0.25075313843E+02  0.66819927628E+03 -0.17466609984E+04  0.18797041489E+04  0.18800000000E+03 0.  0.
<mgrwt>
<rscale>  0 0.14660014E+04</rscale>
<asrwt>0</asrwt>
<pdfrwt beam="1">  1        2 0.39262954E+00 0.14660014E+04</pdfrwt>
<pdfrwt beam="2">  1       -2 0.27927351E-01 0.14660014E+04</pdfrwt>
<totfact> 0.37001368E+01</totfact>
</mgrwt>
</event>
<event>
 4    1  0.5886875E-005  0.4071944E+03  0.7818608E-02  0.1041317E+00
         -2   -1    0    0    0  501 -0.00000000000E+00  0.00000000000E+00  0.27049309084E+02  0.27049309204E+02  0.25500000000E-02 0. -1.
          2   -1    0    0  501    0  0.00000000000E+00 -0.00000000000E+00 -0.15324536952E+04  0.15324536952E+04  0.25500000000E-02 0.  1.
    5000001    1    1    2    0    0  0.48001489060E+02  0.14035139074E+02 -0.98270789278E+03  0.10017783840E+04  0.18800000000E+03 0.  0.
   -5000001    1    1    2    0    0 -0.48001489060E+02 -0.14035139074E+02 -0.52269649333E+03  0.55772462041E+03  0.18800000000E+03 0.  0.
<mgrwt>
<rscale>  0 0.40719437E+03</rscale>
<asrwt>0</asrwt>
<pdfrwt beam="1">  1        2 0.21892190E+00 0.40719437E+03</pdfrwt>
<pdfrwt beam="2">  1       -2 0.38641880E-02 0.40719437E+03</pdfrwt>
<totfact> 0.43617339E+03</totfact>
</mgrwt>
</event>
<event>
 4    1  0.5886875E-005  0.9777070E+03  0.7818608E-02  0.9333339E-01
         -2   -1    0    0    0  501 -0.00000000000E+00  0.00000000000E+00  0.35931254853E+03  0.35931254854E+03  0.25500000000E-02 0. -1.
          2   -1    0    0  501    0  0.00000000000E+00 -0.00000000000E+00 -0.66509709570E+03  0.66509709571E+03  0.25500000000E-02 0.  1.
    5000001    1    1    2    0    0  0.10856297102E+03  0.42045316741E+03 -0.28150311719E+03  0.55059494154E+03  0.18800000000E+03 0.  0.
   -5000001    1    1    2    0    0 -0.10856297102E+03 -0.42045316741E+03 -0.24281429985E+02  0.47381470271E+03  0.18800000000E+03 0.  0.
<mgrwt>
<rscale>  0 0.97770698E+03</rscale>
<asrwt>0</asrwt>
<pdfrwt beam="1">  1        2 0.95013870E-01 0.97770698E+03</pdfrwt>
<pdfrwt beam="2">  1       -2 0.51330364E-01 0.97770698E+03</pdfrwt>
<totfact> 0.17177327E+02</totfact>
</mgrwt>
</event>
<event>
 4    1  0.5886875E-005  0.5270214E+03  0.7818608E-02  0.1006957E+00
         -2   -1    0    0    0  501 -0.00000000000E+00  0.00000000000E+00  0.83261661763E+02  0.83261661802E+02  0.25500000000E-02 0. -1.
          2   -1    0    0  501    0  0.00000000000E+00 -0.00000000000E+00 -0.83397204696E+03  0.83397204696E+03  0.25500000000E-02 0.  1.
    5000001    1    1    2    0    0  0.15513757187E+03  0.35137083088E+02 -0.21216798006E+03  0.32505619911E+03  0.18800000000E+03 0.  0.
   -5000001    1    1    2    0    0 -0.15513757187E+03 -0.35137083088E+02 -0.53854240514E+03  0.59217750966E+03  0.18800000000E+03 0.  0.
<mgrwt>
<rscale>  0 0.52702144E+03</rscale>
<asrwt>0</asrwt>
<pdfrwt beam="1">  1        2 0.11913886E+00 0.52702144E+03</pdfrwt>
<pdfrwt beam="2">  1       -2 0.11894524E-01 0.52702144E+03</pdfrwt>
<totfact> 0.18600699E+03</totfact>
</mgrwt>
</event>
<event>
 4    1  0.5886875E-005  0.1269878E+04  0.7818608E-02  0.9053799E-01
         -2   -1    0    0    0  501 -0.00000000000E+00  0.00000000000E+00  0.32716498053E+03  0.32716498054E+03  0.25500000000E-02 0. -1.
          2   -1    0    0  501    0  0.00000000000E+00 -0.00000000000E+00 -0.12322455681E+04  0.12322455681E+04  0.25500000000E-02 0.  1.
    5000001    1    1    2    0    0 -0.51741866945E+03 -0.28098359947E+03 -0.63104326758E+03  0.88330825210E+03  0.18800000000E+03 0.  0.
   -5000001    1    1    2    0    0  0.51741866945E+03  0.28098359947E+03 -0.27403732003E+03  0.67610229658E+03  0.18800000000E+03 0.  0.
<mgrwt>
<rscale>  0 0.12698781E+04</rscale>
<asrwt>0</asrwt>
<pdfrwt beam="1">  1        2 0.17603508E+00 0.12698781E+04</pdfrwt>
<pdfrwt beam="2">  1       -2 0.46737855E-01 0.12698781E+04</pdfrwt>
<totfact> 0.87333115E+01</totfact>
</mgrwt>
</event>
<event>
 4    1  0.5886875E-005  0.6380941E+03  0.7818608E-02  0.9829380E-01
         -2   -1    0    0    0  501 -0.00000000000E+00  0.00000000000E+00  0.28240046141E+02  0.28240046256E+02  0.25500000000E-02 0. -1.
          2   -1    0    0  501    0  0.00000000000E+00 -0.00000000000E+00 -0.36044918652E+04  0.36044918652E+04  0.25500000000E-02 0.  1.
    5000001    1    1    2    0    0 -0.21208254042E+03 -0.95580745480E+02 -0.11559014917E+04  0.11939710807E+04  0.18800000000E+03 0.  0.
   -5000001    1    1    2    0    0  0.21208254042E+03  0.95580745480E+02 -0.24203503273E+04  0.24387608308E+04  0.18800000000E+03 0.  0.
<mgrwt>
<rscale>  0 0.63809409E+03</rscale>
<asrwt>0</asrwt>
<pdfrwt beam="1">  1        2 0.51492712E+00 0.63809409E+03</pdfrwt>
<pdfrwt beam="2">  1       -2 0.40342946E-02 0.63809409E+03</pdfrwt>
<totfact> 0.32324986E+02</totfact>
</mgrwt>
</event>
<event>
 4    1  0.5886875E-005  0.4116218E+03  0.7818608E-02  0.1039828E+00
          2   -1    0    0  501    0  0.00000000000E+00  0.00000000000E+00  0.30493673116E+04  0.30493673116E+04  0.25500000000E-02 0.  1.
         -2   -1    0    0    0  501 -0.00000000000E+00 -0.00000000000E+00 -0.13890793908E+02  0.13890794142E+02  0.25500000000E-02 0. -1.
    5000001    1    1    2    0    0  0.72329013266E+02  0.27537321553E+02  0.12795568331E+04  0.12956077644E+04  0.18800000000E+03 0.  0.
   -5000001    1    1    2    0    0 -0.72329013266E+02 -0.27537321553E+02  0.17559196846E+04  0.17676503412E+04  0.18800000000E+03 0.  0.
<mgrwt>
<rscale>  0 0.41162183E+03</rscale>
<asrwt>0</asrwt>
<pdfrwt beam="1">  1        2 0.43562456E+00 0.41162183E+03</pdfrwt>
<pdfrwt beam="2">  1       -2 0.19843961E-02 0.41162183E+03</pdfrwt>
<totfact> 0.20148006E+03</totfact>
</mgrwt>
</event>
<event>
 4    1  0.5886875E-005  0.6185987E+03  0.7818608E-02  0.9867554E-01
         -2   -1    0    0    0  501 -0.00000000000E+00  0.00000000000E+00  0.57483596236E+02  0.57483596293E+02  0.25500000000E-02 0. -1.
          2   -1    0    0  501    0  0.00000000000E+00 -0.00000000000E+00 -0.16642327452E+04  0.16642327452E+04  0.25500000000E-02 0.  1.
    5000001    1    1    2    0    0 -0.21853205805E+03 -0.97450067663E+02 -0.95757045948E+03  0.10047576628E+04  0.18800000000E+03 0.  0.
   -5000001    1    1    2    0    0  0.21853205805E+03  0.97450067663E+02 -0.64917868950E+03  0.71695867872E+03  0.18800000000E+03 0.  0.
<mgrwt>
<rscale>  0 0.61859868E+03</rscale>
<asrwt>0</asrwt>
<pdfrwt beam="1">  1        2 0.23774750E+00 0.61859868E+03</pdfrwt>
<pdfrwt beam="2">  1       -2 0.82119434E-02 0.61859868E+03</pdfrwt>
<totfact> 0.11502290E+03</totfact>
</mgrwt>
</event>
<event>
 4    1  0.5886875E-005  0.6476176E+03  0.7818608E-02  0.9811260E-01
         -2   -1    0    0    0  501 -0.00000000000E+00  0.00000000000E+00  0.11757472509E+03  0.11757472511E+03  0.25500000000E-02 0. -1.
          2   -1    0    0  501    0  0.00000000000E+00 -0.00000000000E+00 -0.89179154546E+03  0.89179154546E+03  0.25500000000E-02 0.  1.
    5000001    1    1    2    0    0  0.21174462856E+03 -0.64369557347E+02 -0.16379584373E+03  0.33339512003E+03  0.18800000000E+03 0.  0.
   -5000001    1    1    2    0    0 -0.21174462856E+03  0.64369557347E+02 -0.61042097664E+03  0.67597115054E+03  0.18800000000E+03 0.  0.
<mgrwt>
<rscale>  0 0.64761762E+03</rscale>
<asrwt>0</asrwt>
<pdfrwt beam="1">  1        2 0.12739879E+00 0.64761762E+03</pdfrwt>
<pdfrwt beam="2">  1       -2 0.16796390E-01 0.64761762E+03</pdfrwt>
<totfact> 0.95463820E+02</totfact>
</mgrwt>
</event>
<event>
 4    1  0.5886875E-005  0.7108733E+03  0.7818608E-02  0.9698816E-01
          2   -1    0    0  501    0  0.00000000000E+00  0.00000000000E+00  0.62287062290E+02  0.62287062342E+02  0.25500000000E-02 0.  1.
         -2   -1    0    0    0  501 -0.00000000000E+00 -0.00000000000E+00 -0.20282735491E+04  0.20282735491E+04  0.25500000000E-02 0. -1.
    5000001    1    1    2    0    0  0.24735451626E+03  0.91772673619E+02 -0.55293985835E+03  0.64085331183E+03  0.18800000000E+03 0.  0.
   -5000001    1    1    2    0    0 -0.24735451626E+03 -0.91772673619E+02 -0.14130466285E+04  0.14497072997E+04  0.18800000000E+03 0.  0.
<mgrwt>
<rscale>  0 0.71087327E+03</rscale>
<asrwt>0</asrwt>
<pdfrwt beam="1">  1        2 0.88981531E-02 0.71087327E+03</pdfrwt>
<pdfrwt beam="2">  1       -2 0.28975332E+00 0.71087327E+03</pdfrwt>
<totfact> 0.29545513E+01</totfact>
</mgrwt>
</event>
<event>
 4    1  0.5886875E-005  0.7062200E+03  0.7818608E-02  0.9706654E-01
          2   -1    0    0  501    0  0.00000000000E+00  0.00000000000E+00  0.32020793461E+03  0.32020793462E+03  0.25500000000E-02 0.  1.
         -2   -1    0    0    0  501 -0.00000000000E+00 -0.00000000000E+00 -0.38939284600E+03  0.38939284601E+03  0.25500000000E-02 0. -1.
    5000001    1    1    2    0    0  0.11294588997E+03 -0.27669757957E+03 -0.29633815902E+02  0.35431693107E+03  0.18800000000E+03 0.  0.
   -5000001    1    1    2    0    0 -0.11294588997E+03  0.27669757957E+03 -0.39551095496E+02  0.35528384956E+03  0.18800000000E+03 0.  0.
<mgrwt>
<rscale>  0 0.70622002E+03</rscale>
<asrwt>0</asrwt>
<pdfrwt beam="1">  1        2 0.45743991E-01 0.70622002E+03</pdfrwt>
<pdfrwt beam="2">  1       -2 0.55627550E-01 0.70622002E+03</pdfrwt>
<totfact> 0.33961470E+02</totfact>
</mgrwt>
</event>
<event>
 4    1  0.5886875E-005  0.9256477E+03  0.7818608E-02  0.9394077E-01
          2   -1    0    0  501    0  0.00000000000E+00  0.00000000000E+00  0.29065004875E+04  0.29065004875E+04  0.25500000000E-02 0.  1.
         -2   -1    0    0    0  501 -0.00000000000E+00 -0.00000000000E+00 -0.73698903883E+02  0.73698903927E+02  0.25500000000E-02 0. -1.
    5000001    1    1    2    0    0  0.31638019549E+03 -0.24112567909E+03  0.18787656163E+04  0.19295963987E+04  0.18800000000E+03 0.  0.
   -5000001    1    1    2    0    0 -0.31638019549E+03  0.24112567909E+03  0.95403596734E+03  0.10506029927E+04  0.18800000000E+03 0.  0.
<mgrwt>
<rscale>  0 0.92564767E+03</rscale>
<asrwt>0</asrwt>
<pdfrwt beam="1">  1        2 0.41521443E+00 0.92564767E+03</pdfrwt>
<pdfrwt beam="2">  1       -2 0.10528413E-01 0.92564767E+03</pdfrwt>
<totfact> 0.17230181E+02</totfact>
</mgrwt>
</event>
<event>
 4    1  0.5886875E-005  0.4627674E+03  0.7818608E-02  0.1023982E+00
          2   -1    0    0  501    0  0.00000000000E+00  0.00000000000E+00  0.16331175540E+04  0.16331175540E+04  0.25500000000E-02 0.  1.
         -2   -1    0    0    0  501 -0.00000000000E+00 -0.00000000000E+00 -0.32782954654E+02  0.32782954753E+02  0.25500000000E-02 0. -1.
    5000001    1    1    2    0    0 -0.11832283467E+02  0.11396117339E+03  0.10564227916E+04  0.10791201353E+04  0.18800000000E+03 0.  0.
   -5000001    1    1    2    0    0  0.11832283467E+02 -0.11396117339E+03  0.54391180779E+03  0.58678037341E+03  0.18800000000E+03 0.  0.
<mgrwt>
<rscale>  0 0.46276741E+03</rscale>
<asrwt>0</asrwt>
<pdfrwt beam="1">  1        2 0.23330259E+00 0.46276741E+03</pdfrwt>
<pdfrwt beam="2">  1       -2 0.46832776E-02 0.46276741E+03</pdfrwt>
<totfact> 0.28886578E+03</totfact>
</mgrwt>
</event>
<event>
 4    1  0.5886875E-005  0.9417205E+03  0.7818608E-02  0.9374881E-01
          2   -1    0    0  501    0  0.00000000000E+00  0.00000000000E+00  0.17686112468E+03  0.17686112470E+03  0.25500000000E-02 0.  1.
         -2   -1    0    0    0  501 -0.00000000000E+00 -0.00000000000E+00 -0.12535789495E+04  0.12535789495E+04  0.25500000000E-02 0. -1.
    5000001    1    1    2    0    0 -0.11201344262E+03 -0.40861786273E+03 -0.66407388937E+03  0.80984794845E+03  0.18800000000E+03 0.  0.
   -5000001    1    1    2    0    0  0.11201344262E+03  0.40861786273E+03 -0.41264393540E+03  0.62059212571E+03  0.18800000000E+03 0.  0.
<mgrwt>
<rscale>  0 0.94172052E+03</rscale>
<asrwt>0</asrwt>
<pdfrwt beam="1">  1        2 0.25265876E-01 0.94172052E+03</pdfrwt>
<pdfrwt beam="2">  1       -2 0.17908270E+00 0.94172052E+03</pdfrwt>
<totfact> 0.39957971E+01</totfact>
</mgrwt>
</event>
<event>
 4    1  0.5886875E-005  0.4751496E+03  0.7818608E-02  0.1020477E+00
          2   -1    0    0  501    0  0.00000000000E+00  0.00000000000E+00  0.37991349584E+03  0.37991349585E+03  0.25500000000E-02 0.  1.
         -2   -1    0    0    0  501 -0.00000000000E+00 -0.00000000000E+00 -0.14856484060E+03  0.14856484062E+03  0.25500000000E-02 0. -1.
    5000001    1    1    2    0    0 -0.12350222856E+03 -0.73716485766E+02  0.93129466618E+02  0.25436984547E+03  0.18800000000E+03 0.  0.
   -5000001    1    1    2    0    0  0.12350222856E+03  0.73716485766E+02  0.13821918863E+03  0.27410849100E+03  0.18800000000E+03 0.  0.
<mgrwt>
<rscale>  0 0.47514961E+03</rscale>
<asrwt>0</asrwt>
<pdfrwt beam="1">  1        2 0.54273356E-01 0.47514961E+03</pdfrwt>
<pdfrwt beam="2">  1       -2 0.21223549E-01 0.47514961E+03</pdfrwt>
<totfact> 0.17512204E+03</totfact>
</mgrwt>
</event>
<event>
 4    1  0.5886875E-005  0.6119993E+03  0.7818608E-02  0.9880819E-01
         -2   -1    0    0    0  501 -0.00000000000E+00  0.00000000000E+00  0.74684790742E+03  0.74684790743E+03  0.25500000000E-02 0. -1.
          2   -1    0    0  501    0  0.00000000000E+00 -0.00000000000E+00 -0.12537464378E+03  0.12537464381E+03  0.25500000000E-02 0.  1.
    5000001    1    1    2    0    0  0.90825182665E+02 -0.14737279266E+03  0.70879622210E+02  0.26520911498E+03  0.18800000000E+03 0.  0.
   -5000001    1    1    2    0    0 -0.90825182665E+02  0.14737279266E+03  0.55059364143E+03  0.60701343626E+03  0.18800000000E+03 0.  0.
<mgrwt>
<rscale>  0 0.61199931E+03</rscale>
<asrwt>0</asrwt>
<pdfrwt beam="1">  1        2 0.17910663E-01 0.61199931E+03</pdfrwt>
<pdfrwt beam="2">  1       -2 0.10669256E+00 0.61199931E+03</pdfrwt>
<totfact> 0.23181269E+02</totfact>
</mgrwt>
</event>
<event>
 4    1  0.5886875E-005  0.6174395E+03  0.7818608E-02  0.9869871E-01
          2   -1    0    0  501    0  0.00000000000E+00  0.00000000000E+00  0.59806350419E+03  0.59806350419E+03  0.25500000000E-02 0.  1.
         -2   -1    0    0    0  501 -0.00000000000E+00 -0.00000000000E+00 -0.15936082567E+03  0.15936082569E+03  0.25500000000E-02 0. -1.
    5000001    1    1    2    0    0 -0.14953553996E+03  0.47811955224E+02 -0.11183690382E+02  0.24518551284E+03  0.18800000000E+03 0.  0.
   -5000001    1    1    2    0    0  0.14953553996E+03 -0.47811955224E+02  0.44988636890E+03  0.51223881705E+03  0.18800000000E+03 0.  0.
<mgrwt>
<rscale>  0 0.61743953E+03</rscale>
<asrwt>0</asrwt>
<pdfrwt beam="1">  1        2 0.85437645E-01 0.61743953E+03</pdfrwt>
<pdfrwt beam="2">  1       -2 0.22765832E-01 0.61743953E+03</pdfrwt>
<totfact> 0.92631223E+02</totfact>
</mgrwt>
</event>
<event>
 4    1  0.5886875E-005  0.6282464E+03  0.7818608E-02  0.9848477E-01
          2   -1    0    0  501    0  0.00000000000E+00  0.00000000000E+00  0.35386055030E+03  0.35386055031E+03  0.25500000000E-02 0.  1.
         -2   -1    0    0    0  501 -0.00000000000E+00 -0.00000000000E+00 -0.27884821316E+03  0.27884821317E+03  0.25500000000E-02 0. -1.
    5000001    1    1    2    0    0 -0.10449783754E+03 -0.18904491844E+03  0.16754184641E+03  0.33177108002E+03  0.18800000000E+03 0.  0.
   -5000001    1    1    2    0    0  0.10449783754E+03  0.18904491844E+03 -0.92529509272E+02  0.30093768346E+03  0.18800000000E+03 0.  0.
<mgrwt>
<rscale>  0 0.62824639E+03</rscale>
<asrwt>0</asrwt>
<pdfrwt beam="1">  1        2 0.50551507E-01 0.62824639E+03</pdfrwt>
<pdfrwt beam="2">  1       -2 0.39835459E-01 0.62824639E+03</pdfrwt>
<totfact> 0.59524033E+02</totfact>
</mgrwt>
</event>
<event>
 4    1  0.5886875E-005  0.8823270E+03  0.7818608E-02  0.9447947E-01
         -2   -1    0    0    0  501 -0.00000000000E+00  0.00000000000E+00  0.24489879534E+03  0.24489879536E+03  0.25500000000E-02 0.  1.
          2   -1    0    0  501    0  0.00000000000E+00 -0.00000000000E+00 -0.79471696075E+03  0.79471696076E+03  0.25500000000E-02 0. -1.
    5000001    1    1    2    0    0  0.11755789880E+03  0.19046243024E+03  0.11442787881E+03  0.31390051984E+03  0.18800000000E+03 0.  0.
   -5000001    1    1    2    0    0 -0.11755789880E+03 -0.19046243024E+03 -0.66424604422E+03  0.72571523628E+03  0.18800000000E+03 0.  0.
<mgrwt>
<rscale>  0 0.88232698E+03</rscale>
<asrwt>0</asrwt>
<pdfrwt beam="1">  1        2 0.11353099E+00 0.88232698E+03</pdfrwt>
<pdfrwt beam="2">  1       -2 0.34985543E-01 0.88232698E+03</pdfrwt>
<totfact> 0.29425476E+02</totfact>
</mgrwt>
</event>
<event>
 4    1  0.5886875E-005  0.5048932E+03  0.7818608E-02  0.1012510E+00
          2   -1    0    0  501    0  0.00000000000E+00  0.00000000000E+00  0.51228211371E+02  0.51228211434E+02  0.25500000000E-02 0.  1.
         -2   -1    0    0    0  501 -0.00000000000E+00 -0.00000000000E+00 -0.12440270115E+04  0.12440270115E+04  0.25500000000E-02 0. -1.
    5000001    1    1    2    0    0 -0.49393372014E+02 -0.12259769797E+03 -0.86442436297E+03  0.89445144085E+03  0.18800000000E+03 0.  0.
   -5000001    1    1    2    0    0  0.49393372014E+02  0.12259769797E+03 -0.32837443712E+03  0.40080378204E+03  0.18800000000E+03 0.  0.
<mgrwt>
<rscale>  0 0.50489317E+03</rscale>
<asrwt>0</asrwt>
<pdfrwt beam="1">  1        2 0.73183167E-02 0.50489317E+03</pdfrwt>
<pdfrwt beam="2">  1       -2 0.17771813E+00 0.50489317E+03</pdfrwt>
<totfact> 0.19142870E+02</totfact>
</mgrwt>
</event>
<event>
 4    1  0.5886875E-005  0.9100519E+03  0.7818608E-02  0.9413103E-01
          2   -1    0    0  501    0  0.00000000000E+00  0.00000000000E+00  0.11785012544E+04  0.11785012544E+04  0.25500000000E-02 0.  1.
         -2   -1    0    0    0  501 -0.00000000000E+00 -0.00000000000E+00 -0.17568805640E+03  0.17568805642E+03  0.25500000000E-02 0. -1.
    5000001    1    1    2    0    0  0.72675766935E+02  0.32218827105E+03  0.87376509113E+03  0.95283602135E+03  0.18800000000E+03 0.  0.
   -5000001    1    1    2    0    0 -0.72675766935E+02 -0.32218827105E+03  0.12904810691E+03  0.40135328951E+03  0.18800000000E+03 0.  0.
<mgrwt>
<rscale>  0 0.91005186E+03</rscale>
<asrwt>0</asrwt>
<pdfrwt beam="1">  1        2 0.16835732E+00 0.91005186E+03</pdfrwt>
<pdfrwt beam="2">  1       -2 0.25098295E-01 0.91005186E+03</pdfrwt>
<totfact> 0.31277830E+02</totfact>
</mgrwt>
</event>
<event>
 4    1  0.5886875E-005  0.1353420E+04  0.7818608E-02  0.8988243E-01
          2   -1    0    0  501    0  0.00000000000E+00  0.00000000000E+00  0.24899369029E+04  0.24899369029E+04  0.25500000000E-02 0.  1.
         -2   -1    0    0    0  501 -0.00000000000E+00 -0.00000000000E+00 -0.18391485403E+03  0.18391485405E+03  0.25500000000E-02 0. -1.
    5000001    1    1    2    0    0 -0.57086382414E+03 -0.73114781931E+02  0.55585828712E+03  0.82192074582E+03  0.18800000000E+03 0.  0.
   -5000001    1    1    2    0    0  0.57086382414E+03  0.73114781931E+02  0.17501637617E+04  0.18519310111E+04  0.18800000000E+03 0.  0.
<mgrwt>
<rscale>  0 0.13534199E+04</rscale>
<asrwt>0</asrwt>
<pdfrwt beam="1">  1        2 0.35570523E+00 0.13534199E+04</pdfrwt>
<pdfrwt beam="2">  1       -2 0.26273553E-01 0.13534199E+04</pdfrwt>
<totfact> 0.57295255E+01</totfact>
</mgrwt>
</event>
<event>
 4    1  0.5886875E-005  0.6008663E+03  0.7818608E-02  0.9903610E-01
          2   -1    0    0  501    0  0.00000000000E+00  0.00000000000E+00  0.53913886425E+03  0.53913886426E+03  0.25500000000E-02 0.  1.
         -2   -1    0    0    0  501 -0.00000000000E+00 -0.00000000000E+00 -0.16741525671E+03  0.16741525673E+03  0.25500000000E-02 0. -1.
    5000001    1    1    2    0    0 -0.19928822264E+03 -0.10660676642E+03  0.11303927671E+03  0.31496456374E+03  0.18800000000E+03 0.  0.
   -5000001    1    1    2    0    0  0.19928822264E+03  0.10660676642E+03  0.25868433083E+03  0.39158955725E+03  0.18800000000E+03 0.  0.
<mgrwt>
<rscale>  0 0.60086628E+03</rscale>
<asrwt>0</asrwt>
<pdfrwt beam="1">  1        2 0.77019838E-01 0.60086628E+03</pdfrwt>
<pdfrwt beam="2">  1       -2 0.23916465E-01 0.60086628E+03</pdfrwt>
<totfact> 0.95768266E+02</totfact>
</mgrwt>
</event>
<event>
 4    1  0.5886875E-005  0.4866149E+03  0.7818608E-02  0.1017333E+00
         -2   -1    0    0    0  501 -0.00000000000E+00  0.00000000000E+00  0.34099533481E+02  0.34099533576E+02  0.25500000000E-02 0. -1.
          2   -1    0    0  501    0  0.00000000000E+00 -0.00000000000E+00 -0.17360507335E+04  0.17360507335E+04  0.25500000000E-02 0.  1.
    5000001    1    1    2    0    0 -0.38812397059E+02  0.13366866043E+03 -0.10944777752E+04  0.11191958333E+04  0.18800000000E+03 0.  0.
   -5000001    1    1    2    0    0  0.38812397059E+02 -0.13366866043E+03 -0.60747342479E+03  0.65095443371E+03  0.18800000000E+03 0.  0.
<mgrwt>
<rscale>  0 0.48661492E+03</rscale>
<asrwt>0</asrwt>
<pdfrwt beam="1">  1        2 0.24800719E+00 0.48661492E+03</pdfrwt>
<pdfrwt beam="2">  1       -2 0.48713630E-02 0.48661492E+03</pdfrwt>
<totfact> 0.24107733E+03</totfact>
</mgrwt>
</event>
<event>
 4    1  0.5886875E-005  0.1105386E+04  0.7818608E-02  0.9199958E-01
         -2   -1    0    0    0  501 -0.00000000000E+00  0.00000000000E+00  0.66984647339E+03  0.66984647339E+03  0.25500000000E-02 0. -1.
          2   -1    0    0  501    0  0.00000000000E+00 -0.00000000000E+00 -0.45602952234E+03  0.45602952235E+03  0.25500000000E-02 0.  1.
    5000001    1    1    2    0    0  0.49016629910E+03 -0.17273691525E+03  0.11197303304E+03  0.56389981627E+03  0.18800000000E+03 0.  0.
   -5000001    1    1    2    0    0 -0.49016629910E+03  0.17273691525E+03  0.10184391800E+03  0.56197617947E+03  0.18800000000E+03 0.  0.
<mgrwt>
<rscale>  0 0.11053864E+04</rscale>
<asrwt>0</asrwt>
<pdfrwt beam="1">  1        2 0.65147075E-01 0.11053864E+04</pdfrwt>
<pdfrwt beam="2">  1       -2 0.95692353E-01 0.11053864E+04</pdfrwt>
<totfact> 0.67906134E+01</totfact>
</mgrwt>
</event>
<event>
 4    1  0.5886875E-005  0.4495759E+03  0.7818608E-02  0.1027849E+00
         -2   -1    0    0    0  501 -0.00000000000E+00  0.00000000000E+00  0.36464275366E+02  0.36464275455E+02  0.25500000000E-02 0. -1.
          2   -1    0    0  501    0  0.00000000000E+00 -0.00000000000E+00 -0.13857294270E+04  0.13857294270E+04  0.25500000000E-02 0.  1.
    5000001    1    1    2    0    0  0.84961404180E+02  0.11722231106E+01 -0.95697138694E+03  0.97895763429E+03  0.18800000000E+03 0.  0.
   -5000001    1    1    2    0    0 -0.84961404180E+02 -0.11722231106E+01 -0.39229376467E+03  0.44323606815E+03  0.18800000000E+03 0.  0.
<mgrwt>
<rscale>  0 0.44957589E+03</rscale>
<asrwt>0</asrwt>
<pdfrwt beam="1">  1        2 0.19796131E+00 0.44957589E+03</pdfrwt>
<pdfrwt beam="2">  1       -2 0.52091831E-02 0.44957589E+03</pdfrwt>
<totfact> 0.32895254E+03</totfact>
</mgrwt>
</event>
<event>
 4    1  0.5886875E-005  0.1059636E+04  0.7818608E-02  0.9245452E-01
         -2   -1    0    0    0  501 -0.00000000000E+00  0.00000000000E+00  0.90974823948E+03  0.90974823948E+03  0.25500000000E-02 0. -1.
          2   -1    0    0  501    0  0.00000000000E+00 -0.00000000000E+00 -0.30855479041E+03  0.30855479042E+03  0.25500000000E-02 0.  1.
    5000001    1    1    2    0    0  0.20195363689E+03  0.32742920312E+03  0.65935898004E+03  0.78618917512E+03  0.18800000000E+03 0.  0.
   -5000001    1    1    2    0    0 -0.20195363689E+03 -0.32742920312E+03 -0.58165530975E+02  0.43211385479E+03  0.18800000000E+03 0.  0.
<mgrwt>
<rscale>  0 0.10596361E+04</rscale>
<asrwt>0</asrwt>
<pdfrwt beam="1">  1        2 0.44079256E-01 0.10596361E+04</pdfrwt>
<pdfrwt beam="2">  1       -2 0.12996403E+00 0.10596361E+04</pdfrwt>
<totfact> 0.49991677E+01</totfact>
</mgrwt>
</event>
<event>
 4    1  0.5886875E-005  0.1018656E+04  0.7818608E-02  0.9288316E-01
         -2   -1    0    0    0  501 -0.00000000000E+00  0.00000000000E+00  0.58945781561E+02  0.58945781616E+02  0.25500000000E-02 0. -1.
          2   -1    0    0  501    0  0.00000000000E+00 -0.00000000000E+00 -0.44009104339E+04  0.44009104339E+04  0.25500000000E-02 0.  1.
    5000001    1    1    2    0    0  0.24442547457E+03  0.35690651643E+03 -0.30125155176E+04  0.30492162629E+04  0.18800000000E+03 0.  0.
   -5000001    1    1    2    0    0 -0.24442547457E+03 -0.35690651643E+03 -0.13294491347E+04  0.14106399526E+04  0.18800000000E+03 0.  0.
<mgrwt>
<rscale>  0 0.10186562E+04</rscale>
<asrwt>0</asrwt>
<pdfrwt beam="1">  1        2 0.62870128E+00 0.10186562E+04</pdfrwt>
<pdfrwt beam="2">  1       -2 0.84208287E-02 0.10186562E+04</pdfrwt>
<totfact> 0.27948975E+01</totfact>
</mgrwt>
</event>
<event>
 4    1  0.5886875E-005  0.5325510E+03  0.7818608E-02  0.1005615E+00
         -2   -1    0    0    0  501 -0.00000000000E+00  0.00000000000E+00  0.55252909338E+02  0.55252909397E+02  0.25500000000E-02 0. -1.
          2   -1    0    0  501    0  0.00000000000E+00 -0.00000000000E+00 -0.12832380562E+04  0.12832380562E+04  0.25500000000E-02 0.  1.
    5000001    1    1    2    0    0 -0.14547683707E+03 -0.48390947354E+02 -0.33805566075E+03  0.41608992258E+03  0.18800000000E+03 0.  0.
   -5000001    1    1    2    0    0  0.14547683707E+03  0.48390947354E+02 -0.88992948611E+03  0.92240104301E+03  0.18800000000E+03 0.  0.
<mgrwt>
<rscale>  0 0.53255098E+03</rscale>
<asrwt>0</asrwt>
<pdfrwt beam="1">  1        2 0.18331970E+00 0.53255098E+03</pdfrwt>
<pdfrwt beam="2">  1       -2 0.78932736E-02 0.53255098E+03</pdfrwt>
<totfact> 0.19458780E+03</totfact>
</mgrwt>
</event>
<event>
 4    1  0.5886875E-005  0.7123901E+03  0.7818608E-02  0.9696275E-01
          2   -1    0    0  501    0  0.00000000000E+00  0.00000000000E+00  0.17814263571E+04  0.17814263571E+04  0.25500000000E-02 0.  1.
         -2   -1    0    0    0  501 -0.00000000000E+00 -0.00000000000E+00 -0.71220975628E+02  0.71220975674E+02  0.25500000000E-02 0. -1.
    5000001    1    1    2    0    0  0.28332154459E+03  0.10609690461E+03  0.85039824274E+03  0.92198092283E+03  0.18800000000E+03 0.  0.
   -5000001    1    1    2    0    0 -0.28332154459E+03 -0.10609690461E+03  0.85980713874E+03  0.93066640996E+03  0.18800000000E+03 0.  0.
<mgrwt>
<rscale>  0 0.71239013E+03</rscale>
<asrwt>0</asrwt>
<pdfrwt beam="1">  1        2 0.25448943E+00 0.71239013E+03</pdfrwt>
<pdfrwt beam="2">  1       -2 0.10174427E-01 0.71239013E+03</pdfrwt>
<totfact> 0.70621071E+02</totfact>
</mgrwt>
</event>
<event>
 4    1  0.5886875E-005  0.6010463E+03  0.7818608E-02  0.9903238E-01
         -2   -1    0    0    0  501 -0.00000000000E+00  0.00000000000E+00  0.10767725713E+04  0.10767725713E+04  0.25500000000E-02 0. -1.
          2   -1    0    0  501    0  0.00000000000E+00 -0.00000000000E+00 -0.83874879801E+02  0.83874879839E+02  0.25500000000E-02 0.  1.
    5000001    1    1    2    0    0  0.80788942117E+02 -0.14343912612E+03  0.17408269009E+03  0.30454953466E+03  0.18800000000E+03 0.  0.
   -5000001    1    1    2    0    0 -0.80788942117E+02  0.14343912612E+03  0.81881500141E+03  0.85609791648E+03  0.18800000000E+03 0.  0.
<mgrwt>
<rscale>  0 0.60104632E+03</rscale>
<asrwt>0</asrwt>
<pdfrwt beam="1">  1        2 0.11982127E-01 0.60104632E+03</pdfrwt>
<pdfrwt beam="2">  1       -2 0.15382464E+00 0.60104632E+03</pdfrwt>
<totfact> 0.15072089E+02</totfact>
</mgrwt>
</event>
<event>
 4    1  0.5886875E-005  0.4026585E+03  0.7818608E-02  0.1042863E+00
         -2   -1    0    0    0  501 -0.00000000000E+00  0.00000000000E+00  0.46023748913E+03  0.46023748914E+03  0.25500000000E-02 0. -1.
          2   -1    0    0  501    0  0.00000000000E+00 -0.00000000000E+00 -0.88070749324E+02  0.88070749361E+02  0.25500000000E-02 0.  1.
    5000001    1    1    2    0    0  0.46242278215E+02 -0.48465095178E+02  0.14999786228E+03  0.24966091491E+03  0.18800000000E+03 0.  0.
   -5000001    1    1    2    0    0 -0.46242278215E+02  0.48465095178E+02  0.22216887753E+03  0.29864732359E+03  0.18800000000E+03 0.  0.
<mgrwt>
<rscale>  0 0.40265847E+03</rscale>
<asrwt>0</asrwt>
<pdfrwt beam="1">  1        2 0.12581536E-01 0.40265847E+03</pdfrwt>
<pdfrwt beam="2">  1       -2 0.65748213E-01 0.40265847E+03</pdfrwt>
<totfact> 0.10598985E+03</totfact>
</mgrwt>
</event>
<event>
 4    1  0.5886875E-005  0.5199126E+03  0.7818608E-02  0.1008708E+00
         -2   -1    0    0    0  501 -0.00000000000E+00  0.00000000000E+00  0.28988329749E+02  0.28988329861E+02  0.25500000000E-02 0. -1.
          2   -1    0    0  501    0  0.00000000000E+00 -0.00000000000E+00 -0.23311894704E+04  0.23311894705E+04  0.25500000000E-02 0.  1.
    5000001    1    1    2    0    0 -0.15179103990E+03 -0.85473074613E+02 -0.95389715228E+03  0.98772969147E+03  0.18800000000E+03 0.  0.
   -5000001    1    1    2    0    0  0.15179103990E+03  0.85473074613E+02 -0.13483039884E+04  0.13724481088E+04  0.18800000000E+03 0.  0.
<mgrwt>
<rscale>  0 0.51991264E+03</rscale>
<asrwt>0</asrwt>
<pdfrwt beam="1">  1        2 0.33302695E+00 0.51991264E+03</pdfrwt>
<pdfrwt beam="2">  1       -2 0.41411915E-02 0.51991264E+03</pdfrwt>
<totfact> 0.15560288E+03</totfact>
</mgrwt>
</event>
<event>
 4    1  0.5886875E-005  0.4835275E+03  0.7818608E-02  0.1018170E+00
         -2   -1    0    0    0  501 -0.00000000000E+00  0.00000000000E+00  0.46422050821E+02  0.46422050891E+02  0.25500000000E-02 0. -1.
          2   -1    0    0  501    0  0.00000000000E+00 -0.00000000000E+00 -0.12590936691E+04  0.12590936691E+04  0.25500000000E-02 0.  1.
    5000001    1    1    2    0    0 -0.10908151988E+03  0.91547262995E+02 -0.74986802495E+03  0.78608252378E+03  0.18800000000E+03 0.  0.
   -5000001    1    1    2    0    0  0.10908151988E+03 -0.91547262995E+02 -0.46280359336E+03  0.51943319625E+03  0.18800000000E+03 0.  0.
<mgrwt>
<rscale>  0 0.48352750E+03</rscale>
<asrwt>0</asrwt>
<pdfrwt beam="1">  1        2 0.17987050E+00 0.48352750E+03</pdfrwt>
<pdfrwt beam="2">  1       -2 0.66317224E-02 0.48352750E+03</pdfrwt>
<totfact> 0.26415345E+03</totfact>
</mgrwt>
</event>
<event>
 4    1  0.5886875E-005  0.6098680E+03  0.7818608E-02  0.9885142E-01
         -2   -1    0    0    0  501 -0.00000000000E+00  0.00000000000E+00  0.54281989669E+02  0.54281989729E+02  0.25500000000E-02 0. -1.
          2   -1    0    0  501    0  0.00000000000E+00 -0.00000000000E+00 -0.17129945440E+04  0.17129945440E+04  0.25500000000E-02 0.  1.
    5000001    1    1    2    0    0 -0.10666683127E+03 -0.20238761469E+03 -0.61834950172E+03  0.68559365935E+03  0.18800000000E+03 0.  0.
   -5000001    1    1    2    0    0  0.10666683127E+03  0.20238761469E+03 -0.10403630526E+04  0.10816828744E+04  0.18800000000E+03 0.  0.
<mgrwt>
<rscale>  0 0.60986803E+03</rscale>
<asrwt>0</asrwt>
<pdfrwt beam="1">  1        2 0.24471347E+00 0.60986803E+03</pdfrwt>
<pdfrwt beam="2">  1       -2 0.77545710E-02 0.60986803E+03</pdfrwt>
<totfact> 0.11906515E+03</totfact>
</mgrwt>
</event>
<event>
 4    1  0.5886875E-005  0.5378349E+03  0.7818608E-02  0.1004350E+00
          2   -1    0    0  501    0  0.00000000000E+00  0.00000000000E+00  0.93936808992E+03  0.93936808992E+03  0.25500000000E-02 0.  1.
         -2   -1    0    0    0  501 -0.00000000000E+00 -0.00000000000E+00 -0.76984298419E+02  0.76984298461E+02  0.25500000000E-02 0. -1.
    5000001    1    1    2    0    0 -0.12451717085E+03  0.14567554851E+03  0.40151067419E+03  0.48299142100E+03  0.18800000000E+03 0.  0.
   -5000001    1    1    2    0    0  0.12451717085E+03 -0.14567554851E+03  0.46087311730E+03  0.53336096738E+03  0.18800000000E+03 0.  0.
<mgrwt>
<rscale>  0 0.53783489E+03</rscale>
<asrwt>0</asrwt>
<pdfrwt beam="1">  1        2 0.13419544E+00 0.53783489E+03</pdfrwt>
<pdfrwt beam="2">  1       -2 0.10997757E-01 0.53783489E+03</pdfrwt>
<totfact> 0.18061744E+03</totfact>
</mgrwt>
</event>
<event>
 4    1  0.5886875E-005  0.4011913E+03  0.7818608E-02  0.1043368E+00
          2   -1    0    0  501    0  0.00000000000E+00  0.00000000000E+00  0.85927088791E+02  0.85927088829E+02  0.25500000000E-02 0.  1.
         -2   -1    0    0    0  501 -0.00000000000E+00 -0.00000000000E+00 -0.46828797956E+03  0.46828797957E+03  0.25500000000E-02 0. -1.
    5000001    1    1    2    0    0  0.19409713911E+02 -0.67068481767E+02 -0.19731256012E+03  0.28133816773E+03  0.18800000000E+03 0.  0.
   -5000001    1    1    2    0    0 -0.19409713911E+02  0.67068481767E+02 -0.18504833065E+03  0.27287690067E+03  0.18800000000E+03 0.  0.
<mgrwt>
<rscale>  0 0.40119134E+03</rscale>
<asrwt>0</asrwt>
<pdfrwt beam="1">  1        2 0.12275299E-01 0.40119134E+03</pdfrwt>
<pdfrwt beam="2">  1       -2 0.66898281E-01 0.40119134E+03</pdfrwt>
<totfact> 0.10527217E+03</totfact>
</mgrwt>
</event>
<event>
 4    1  0.5886875E-005  0.8657322E+03  0.7818608E-02  0.9469462E-01
          2   -1    0    0  501    0  0.00000000000E+00  0.00000000000E+00  0.14872363660E+04  0.14872363660E+04  0.25500000000E-02 0.  1.
         -2   -1    0    0    0  501 -0.00000000000E+00 -0.00000000000E+00 -0.12598740217E+03  0.12598740220E+03  0.25500000000E-02 0. -1.
    5000001    1    1    2    0    0  0.27330377604E+03  0.55191244374E+02  0.11885153983E+04  0.12351736232E+04  0.18800000000E+03 0.  0.
   -5000001    1    1    2    0    0 -0.27330377604E+03 -0.55191244374E+02  0.17273356548E+03  0.37805014495E+03  0.18800000000E+03 0.  0.
<mgrwt>
<rscale>  0 0.86573217E+03</rscale>
<asrwt>0</asrwt>
<pdfrwt beam="1">  1        2 0.21246234E+00 0.86573217E+03</pdfrwt>
<pdfrwt beam="2">  1       -2 0.17998200E-01 0.86573217E+03</pdfrwt>
<totfact> 0.38232156E+02</totfact>
</mgrwt>
</event>
<event>
 4    1  0.5886875E-005  0.5599784E+03  0.7818608E-02  0.9992103E-01
          2   -1    0    0  501    0  0.00000000000E+00  0.00000000000E+00  0.68625619991E+03  0.68625619992E+03  0.25500000000E-02 0.  1.
         -2   -1    0    0    0  501 -0.00000000000E+00 -0.00000000000E+00 -0.11423424624E+03  0.11423424627E+03  0.25500000000E-02 0. -1.
    5000001    1    1    2    0    0  0.23021365445E+02  0.19365852380E+03  0.38725721263E+03  0.47259470569E+03  0.18800000000E+03 0.  0.
   -5000001    1    1    2    0    0 -0.23021365445E+02 -0.19365852380E+03  0.18476474104E+03  0.32789574050E+03  0.18800000000E+03 0.  0.
<mgrwt>
<rscale>  0 0.55997843E+03</rscale>
<asrwt>0</asrwt>
<pdfrwt beam="1">  1        2 0.98036601E-01 0.55997843E+03</pdfrwt>
<pdfrwt beam="2">  1       -2 0.16319178E-01 0.55997843E+03</pdfrwt>
<totfact> 0.14005109E+03</totfact>
</mgrwt>
</event>
<event>
 4    1  0.5886875E-005  0.5724945E+03  0.7818608E-02  0.9964174E-01
          2   -1    0    0  501    0  0.00000000000E+00  0.00000000000E+00  0.83737847172E+03  0.83737847172E+03  0.25500000000E-02 0.  1.
         -2   -1    0    0    0  501 -0.00000000000E+00 -0.00000000000E+00 -0.97849994090E+02  0.97849994123E+02  0.25500000000E-02 0. -1.
    5000001    1    1    2    0    0  0.86411292979E+02  0.91017896798E+02  0.82871293656E+02  0.24075468927E+03  0.18800000000E+03 0.  0.
   -5000001    1    1    2    0    0 -0.86411292979E+02 -0.91017896798E+02  0.65665718397E+03  0.69447377658E+03  0.18800000000E+03 0.  0.
<mgrwt>
<rscale>  0 0.57249447E+03</rscale>
<asrwt>0</asrwt>
<pdfrwt beam="1">  1        2 0.11962550E+00 0.57249447E+03</pdfrwt>
<pdfrwt beam="2">  1       -2 0.13978570E-01 0.57249447E+03</pdfrwt>
<totfact> 0.14160175E+03</totfact>
</mgrwt>
</event>
<event>
 4    1  0.5886875E-005  0.4999433E+03  0.7818608E-02  0.1013794E+00
         -2   -1    0    0    0  501 -0.00000000000E+00  0.00000000000E+00  0.32320904996E+03  0.32320904997E+03  0.25500000000E-02 0. -1.
          2   -1    0    0  501    0  0.00000000000E+00 -0.00000000000E+00 -0.19332943014E+03  0.19332943016E+03  0.25500000000E-02 0.  1.
    5000001    1    1    2    0    0  0.39899268564E+02 -0.15278787754E+03  0.16415592383E+02  0.24606819955E+03  0.18800000000E+03 0.  0.
   -5000001    1    1    2    0    0 -0.39899268564E+02  0.15278787754E+03  0.11346402744E+03  0.27047028058E+03  0.18800000000E+03 0.  0.
<mgrwt>
<rscale>  0 0.49994328E+03</rscale>
<asrwt>0</asrwt>
<pdfrwt beam="1">  1        2 0.27618490E-01 0.49994328E+03</pdfrwt>
<pdfrwt beam="2">  1       -2 0.46172722E-01 0.49994328E+03</pdfrwt>
<totfact> 0.87235105E+02</totfact>
</mgrwt>
</event>
<event>
 4    1  0.5886875E-005  0.7033309E+03  0.7818608E-02  0.9711553E-01
         -2   -1    0    0    0  501 -0.00000000000E+00  0.00000000000E+00  0.58498433097E+02  0.58498433153E+02  0.25500000000E-02 0. -1.
          2   -1    0    0  501    0  0.00000000000E+00 -0.00000000000E+00 -0.21140496897E+04  0.21140496897E+04  0.25500000000E-02 0.  1.
    5000001    1    1    2    0    0  0.30831747441E+02 -0.25530025204E+03 -0.56757745168E+03  0.65085864748E+03  0.18800000000E+03 0.  0.
   -5000001    1    1    2    0    0 -0.30831747441E+02  0.25530025204E+03 -0.14879738049E+04  0.15216894754E+04  0.18800000000E+03 0.  0.
<mgrwt>
<rscale>  0 0.70333092E+03</rscale>
<asrwt>0</asrwt>
<pdfrwt beam="1">  1        2 0.30200705E+00 0.70333092E+03</pdfrwt>
<pdfrwt beam="2">  1       -2 0.83569204E-02 0.70333092E+03</pdfrwt>
<totfact> 0.65924088E+02</totfact>
</mgrwt>
</event>
<event>
 4    1  0.5886875E-005  0.6526144E+03  0.7818608E-02  0.9801886E-01
         -2   -1    0    0    0  501 -0.00000000000E+00  0.00000000000E+00  0.49052158100E+02  0.49052158166E+02  0.25500000000E-02 0. -1.
          2   -1    0    0  501    0  0.00000000000E+00 -0.00000000000E+00 -0.21706768578E+04  0.21706768578E+04  0.25500000000E-02 0.  1.
    5000001    1    1    2    0    0  0.54086732265E+02  0.25730587885E+03 -0.12129489528E+04  0.12552772013E+04  0.18800000000E+03 0.  0.
   -5000001    1    1    2    0    0 -0.54086732265E+02 -0.25730587885E+03 -0.90867574690E+03  0.96445181471E+03  0.18800000000E+03 0.  0.
<mgrwt>
<rscale>  0 0.65261439E+03</rscale>
<asrwt>0</asrwt>
<pdfrwt beam="1">  1        2 0.31009663E+00 0.65261439E+03</pdfrwt>
<pdfrwt beam="2">  1       -2 0.70074525E-02 0.65261439E+03</pdfrwt>
<totfact> 0.81986901E+02</totfact>
</mgrwt>
</event>
<event>
 4    1  0.5886875E-005  0.4383320E+03  0.7818608E-02  0.1031260E+00
         -2   -1    0    0    0  501 -0.00000000000E+00  0.00000000000E+00  0.39065189863E+02  0.39065189946E+02  0.25500000000E-02 0. -1.
          2   -1    0    0  501    0  0.00000000000E+00 -0.00000000000E+00 -0.12295789036E+04  0.12295789036E+04  0.25500000000E-02 0.  1.
    5000001    1    1    2    0    0  0.43568485755E+02 -0.10378812610E+03 -0.58246133940E+03  0.62231455066E+03  0.18800000000E+03 0.  0.
   -5000001    1    1    2    0    0 -0.43568485755E+02  0.10378812610E+03 -0.60805237431E+03  0.64632954286E+03  0.18800000000E+03 0.  0.
<mgrwt>
<rscale>  0 0.43833199E+03</rscale>
<asrwt>0</asrwt>
<pdfrwt beam="1">  1        2 0.17565410E+00 0.43833199E+03</pdfrwt>
<pdfrwt beam="2">  1       -2 0.55807422E-02 0.43833199E+03</pdfrwt>
<totfact> 0.35867279E+03</totfact>
</mgrwt>
</event>
<event>
 4    1  0.5886875E-005  0.4687124E+03  0.7818608E-02  0.1022284E+00
          2   -1    0    0  501    0  0.00000000000E+00  0.00000000000E+00  0.88357798684E+03  0.88357798685E+03  0.25500000000E-02 0.  1.
         -2   -1    0    0    0  501 -0.00000000000E+00 -0.00000000000E+00 -0.62159569482E+02  0.62159569534E+02  0.25500000000E-02 0. -1.
    5000001    1    1    2    0    0 -0.13308042877E+03  0.42677043026E+02  0.42455633810E+03  0.48489567408E+03  0.18800000000E+03 0.  0.
   -5000001    1    1    2    0    0  0.13308042877E+03 -0.42677043026E+02  0.39686207926E+03  0.46084188230E+03  0.18800000000E+03 0.  0.
<mgrwt>
<rscale>  0 0.46871239E+03</rscale>
<asrwt>0</asrwt>
<pdfrwt beam="1">  1        2 0.12622544E+00 0.46871239E+03</pdfrwt>
<pdfrwt beam="2">  1       -2 0.88799377E-02 0.46871239E+03</pdfrwt>
<totfact> 0.27676926E+03</totfact>
</mgrwt>
</event>
<event>
 4    1  0.5886875E-005  0.4893136E+03  0.7818608E-02  0.1016606E+00
         -2   -1    0    0    0  501 -0.00000000000E+00  0.00000000000E+00  0.12275160086E+04  0.12275160086E+04  0.25500000000E-02 0. -1.
          2   -1    0    0  501    0  0.00000000000E+00 -0.00000000000E+00 -0.48762671075E+02  0.48762671142E+02  0.25500000000E-02 0.  1.
    5000001    1    1    2    0    0 -0.85724211798E+02  0.10751130178E+03  0.78466250797E+03  0.81850264013E+03  0.18800000000E+03 0.  0.
   -5000001    1    1    2    0    0  0.85724211798E+02 -0.10751130178E+03  0.39409082955E+03  0.45777603961E+03  0.18800000000E+03 0.  0.
<mgrwt>
<rscale>  0 0.48931364E+03</rscale>
<asrwt>0</asrwt>
<pdfrwt beam="1">  1        2 0.69660971E-02 0.48931364E+03</pdfrwt>
<pdfrwt beam="2">  1       -2 0.17535940E+00 0.48931364E+03</pdfrwt>
<totfact> 0.21204819E+02</totfact>
</mgrwt>
</event>
<event>
 4    1  0.5886875E-005  0.6831452E+03  0.7818608E-02  0.9746498E-01
          2   -1    0    0  501    0  0.00000000000E+00  0.00000000000E+00  0.43388327982E+04  0.43388327982E+04  0.25500000000E-02 0.  1.
         -2   -1    0    0    0  501 -0.00000000000E+00 -0.00000000000E+00 -0.26890145957E+02  0.26890146078E+02  0.25500000000E-02 0. -1.
    5000001    1    1    2    0    0 -0.43386830235E+02  0.16613047836E+03  0.70084344505E+03  0.74565896182E+03  0.18800000000E+03 0.  0.
   -5000001    1    1    2    0    0  0.43386830235E+02 -0.16613047836E+03  0.36110992072E+04  0.36200639825E+04  0.18800000000E+03 0.  0.
<mgrwt>
<rscale>  0 0.68314522E+03</rscale>
<asrwt>0</asrwt>
<pdfrwt beam="1">  1        2 0.61983373E+00 0.68314522E+03</pdfrwt>
<pdfrwt beam="2">  1       -2 0.38414465E-02 0.68314522E+03</pdfrwt>
<totfact> 0.11218335E+02</totfact>
</mgrwt>
</event>
<event>
 4    1  0.5886875E-005  0.4341139E+03  0.7818608E-02  0.1032568E+00
          2   -1    0    0  501    0  0.00000000000E+00  0.00000000000E+00  0.38227758253E+04  0.38227758253E+04  0.25500000000E-02 0.  1.
         -2   -1    0    0    0  501 -0.00000000000E+00 -0.00000000000E+00 -0.12324480461E+02  0.12324480725E+02  0.25500000000E-02 0. -1.
    5000001    1    1    2    0    0  0.61577934727E+02 -0.28475885615E+02  0.11573283830E+04  0.11744597499E+04  0.18800000000E+03 0.  0.
   -5000001    1    1    2    0    0 -0.61577934727E+02  0.28475885615E+02  0.26531229618E+04  0.26606405561E+04  0.18800000000E+03 0.  0.
<mgrwt>
<rscale>  0 0.43411393E+03</rscale>
<asrwt>0</asrwt>
<pdfrwt beam="1">  1        2 0.54611113E+00 0.43411393E+03</pdfrwt>
<pdfrwt beam="2">  1       -2 0.17606391E-02 0.43411393E+03</pdfrwt>
<totfact> 0.85121885E+02</totfact>
</mgrwt>
</event>
<event>
 4    1  0.5886875E-005  0.6408762E+03  0.7818608E-02  0.9824052E-01
          2   -1    0    0  501    0  0.00000000000E+00  0.00000000000E+00  0.70807479628E+03  0.70807479628E+03  0.25500000000E-02 0.  1.
         -2   -1    0    0    0  501 -0.00000000000E+00 -0.00000000000E+00 -0.14501374722E+03  0.14501374724E+03  0.25500000000E-02 0. -1.
    5000001    1    1    2    0    0 -0.19732160385E+03 -0.81529629979E+02  0.85200662045E+02  0.29696135898E+03  0.18800000000E+03 0.  0.
   -5000001    1    1    2    0    0  0.19732160385E+03  0.81529629979E+02  0.47786038702E+03  0.55612718455E+03  0.18800000000E+03 0.  0.
<mgrwt>
<rscale>  0 0.64087621E+03</rscale>
<asrwt>0</asrwt>
<pdfrwt beam="1">  1        2 0.10115354E+00 0.64087621E+03</pdfrwt>
<pdfrwt beam="2">  1       -2 0.20716249E-01 0.64087621E+03</pdfrwt>
<totfact> 0.89251102E+02</totfact>
</mgrwt>
</event>
<event>
 4    1  0.5886875E-005  0.5049976E+03  0.7818608E-02  0.1012483E+00
         -2   -1    0    0    0  501 -0.00000000000E+00  0.00000000000E+00  0.17745269093E+03  0.17745269095E+03  0.25500000000E-02 0. -1.
          2   -1    0    0  501    0  0.00000000000E+00 -0.00000000000E+00 -0.35928246847E+03  0.35928246848E+03  0.25500000000E-02 0.  1.
    5000001    1    1    2    0    0  0.20294558304E+02 -0.14900454052E+03 -0.17184088854E+03  0.29578288180E+03  0.18800000000E+03 0.  0.
   -5000001    1    1    2    0    0 -0.20294558304E+02  0.14900454052E+03 -0.99888890066E+01  0.24095227763E+03  0.18800000000E+03 0.  0.
<mgrwt>
<rscale>  0 0.50499759E+03</rscale>
<asrwt>0</asrwt>
<pdfrwt beam="1">  1        2 0.51326067E-01 0.50499759E+03</pdfrwt>
<pdfrwt beam="2">  1       -2 0.25350384E-01 0.50499759E+03</pdfrwt>
<totfact> 0.13603433E+03</totfact>
</mgrwt>
</event>
<event>
 4    1  0.5886875E-005  0.5248074E+03  0.7818608E-02  0.1007499E+00
          2   -1    0    0  501    0  0.00000000000E+00  0.00000000000E+00  0.12468285591E+04  0.12468285592E+04  0.25500000000E-02 0.  1.
         -2   -1    0    0    0  501 -0.00000000000E+00 -0.00000000000E+00 -0.55224666640E+02  0.55224666699E+02  0.25500000000E-02 0. -1.
    5000001    1    1    2    0    0 -0.88184955777E+02  0.15847075528E+03  0.65768441084E+03  0.70765977063E+03  0.18800000000E+03 0.  0.
   -5000001    1    1    2    0    0  0.88184955777E+02 -0.15847075528E+03  0.53391948167E+03  0.59439345522E+03  0.18800000000E+03 0.  0.
<mgrwt>
<rscale>  0 0.52480736E+03</rscale>
<asrwt>0</asrwt>
<pdfrwt beam="1">  1        2 0.17811834E+00 0.52480736E+03</pdfrwt>
<pdfrwt beam="2">  1       -2 0.78892392E-02 0.52480736E+03</pdfrwt>
<totfact> 0.20390489E+03</totfact>
</mgrwt>
</event>
<event>
 4    1  0.5886875E-005  0.6589006E+03  0.7818608E-02  0.9790220E-01
         -2   -1    0    0    0  501 -0.00000000000E+00  0.00000000000E+00  0.73227785503E+02  0.73227785547E+02  0.25500000000E-02 0. -1.
          2   -1    0    0  501    0  0.00000000000E+00 -0.00000000000E+00 -0.14821901448E+04  0.14821901448E+04  0.25500000000E-02 0.  1.
    5000001    1    1    2    0    0  0.59626556766E+02 -0.25040021070E+03 -0.90110744611E+03  0.95582122870E+03  0.18800000000E+03 0.  0.
   -5000001    1    1    2    0    0 -0.59626556766E+02  0.25040021070E+03 -0.50785491322E+03  0.59959670169E+03  0.18800000000E+03 0.  0.
<mgrwt>
<rscale>  0 0.65890061E+03</rscale>
<asrwt>0</asrwt>
<pdfrwt beam="1">  1        2 0.21174143E+00 0.65890061E+03</pdfrwt>
<pdfrwt beam="2">  1       -2 0.10461113E-01 0.65890061E+03</pdfrwt>
<totfact> 0.96504147E+02</totfact>
</mgrwt>
</event>
<event>
 4    1  0.5886875E-005  0.5370974E+03  0.7818608E-02  0.1004525E+00
         -2   -1    0    0    0  501 -0.00000000000E+00  0.00000000000E+00  0.19889556805E+03  0.19889556807E+03  0.25500000000E-02 0. -1.
          2   -1    0    0  501    0  0.00000000000E+00 -0.00000000000E+00 -0.36259436434E+03  0.36259436435E+03  0.25500000000E-02 0.  1.
    5000001    1    1    2    0    0  0.28021138271E+02 -0.12223706116E+03  0.69816308395E+02  0.23652780012E+03  0.18800000000E+03 0.  0.
   -5000001    1    1    2    0    0 -0.28021138271E+02  0.12223706116E+03 -0.23351510468E+03  0.32496213229E+03  0.18800000000E+03 0.  0.
<mgrwt>
<rscale>  0 0.53709743E+03</rscale>
<asrwt>0</asrwt>
<pdfrwt beam="1">  1        2 0.51799195E-01 0.53709743E+03</pdfrwt>
<pdfrwt beam="2">  1       -2 0.28413652E-01 0.53709743E+03</pdfrwt>
<totfact> 0.10955016E+03</totfact>
</mgrwt>
</event>
<event>
 4    1  0.5886875E-005  0.9648329E+03  0.7818608E-02  0.9347979E-01
          2   -1    0    0  501    0  0.00000000000E+00  0.00000000000E+00  0.59398624082E+03  0.59398624083E+03  0.25500000000E-02 0.  1.
         -2   -1    0    0    0  501 -0.00000000000E+00 -0.00000000000E+00 -0.39180303297E+03  0.39180303298E+03  0.25500000000E-02 0. -1.
    5000001    1    1    2    0    0 -0.36498419613E+03  0.90534811256E+02  0.34281341850E+03  0.54247124843E+03  0.18800000000E+03 0.  0.
   -5000001    1    1    2    0    0  0.36498419613E+03 -0.90534811256E+02 -0.14063021065E+03  0.44331802537E+03  0.18800000000E+03 0.  0.
<mgrwt>
<rscale>  0 0.96483286E+03</rscale>
<asrwt>0</asrwt>
<pdfrwt beam="1">  1        2 0.84855176E-01 0.96483286E+03</pdfrwt>
<pdfrwt beam="2">  1       -2 0.55971862E-01 0.96483286E+03</pdfrwt>
<totfact> 0.16467202E+02</totfact>
</mgrwt>
</event>
<event>
 4    1  0.5886875E-005  0.4740825E+03  0.7818608E-02  0.1020774E+00
          2   -1    0    0  501    0  0.00000000000E+00  0.00000000000E+00  0.26280095078E+03  0.26280095080E+03  0.25500000000E-02 0.  1.
         -2   -1    0    0    0  501 -0.00000000000E+00 -0.00000000000E+00 -0.21380652929E+03  0.21380652930E+03  0.25500000000E-02 0. -1.
    5000001    1    1    2    0    0 -0.72286564730E+02  0.11142283878E+03 -0.32409593033E+02  0.23245381942E+03  0.18800000000E+03 0.  0.
   -5000001    1    1    2    0    0  0.72286564730E+02 -0.11142283878E+03  0.81404014530E+02  0.24415366068E+03  0.18800000000E+03 0.  0.
<mgrwt>
<rscale>  0 0.47408252E+03</rscale>
<asrwt>0</asrwt>
<pdfrwt beam="1">  1        2 0.37542993E-01 0.47408252E+03</pdfrwt>
<pdfrwt beam="2">  1       -2 0.30543790E-01 0.47408252E+03</pdfrwt>
<totfact> 0.13663327E+03</totfact>
</mgrwt>
</event>
<event>
 4    1  0.5886875E-005  0.8295088E+03  0.7818608E-02  0.9518260E-01
         -2   -1    0    0    0  501 -0.00000000000E+00  0.00000000000E+00  0.55607330622E+02  0.55607330681E+02  0.25500000000E-02 0. -1.
          2   -1    0    0  501    0  0.00000000000E+00 -0.00000000000E+00 -0.30934988087E+04  0.30934988087E+04  0.25500000000E-02 0.  1.
    5000001    1    1    2    0    0 -0.33563104534E+03  0.69205001639E+02 -0.20455267910E+04  0.20825372466E+04  0.18800000000E+03 0.  0.
   -5000001    1    1    2    0    0  0.33563104534E+03 -0.69205001639E+02 -0.99236468707E+03  0.10665688928E+04  0.18800000000E+03 0.  0.
<mgrwt>
<rscale>  0 0.82950880E+03</rscale>
<asrwt>0</asrwt>
<pdfrwt beam="1">  1        2 0.44192829E+00 0.82950880E+03</pdfrwt>
<pdfrwt beam="2">  1       -2 0.79439063E-02 0.82950880E+03</pdfrwt>
<totfact> 0.21659312E+02</totfact>
</mgrwt>
</event>
<event>
 4    1  0.5886875E-005  0.5714381E+03  0.7818608E-02  0.9966501E-01
          2   -1    0    0  501    0  0.00000000000E+00  0.00000000000E+00  0.98194592756E+02  0.98194592789E+02  0.25500000000E-02 0.  1.
         -2   -1    0    0    0  501 -0.00000000000E+00 -0.00000000000E+00 -0.83136331514E+03  0.83136331514E+03  0.25500000000E-02 0. -1.
    5000001    1    1    2    0    0  0.97866424918E+01 -0.20407512107E+03 -0.25687018112E+03  0.37824426415E+03  0.18800000000E+03 0.  0.
   -5000001    1    1    2    0    0 -0.97866424918E+01  0.20407512107E+03 -0.47629854126E+03  0.55131364378E+03  0.18800000000E+03 0.  0.
<mgrwt>
<rscale>  0 0.57143812E+03</rscale>
<asrwt>0</asrwt>
<pdfrwt beam="1">  1        2 0.14027799E-01 0.57143812E+03</pdfrwt>
<pdfrwt beam="2">  1       -2 0.11876618E+00 0.57143812E+03</pdfrwt>
<totfact> 0.24024057E+02</totfact>
</mgrwt>
</event>
<event>
 4    1  0.5886875E-005  0.5501005E+03  0.7818608E-02  0.1001471E+00
          2   -1    0    0  501    0  0.00000000000E+00  0.00000000000E+00  0.42659192787E+03  0.42659192788E+03  0.25500000000E-02 0.  1.
         -2   -1    0    0    0  501 -0.00000000000E+00 -0.00000000000E+00 -0.17734192210E+03  0.17734192212E+03  0.25500000000E-02 0. -1.
    5000001    1    1    2    0    0 -0.11299901880E+03  0.16584560566E+03  0.13112831486E+03  0.30465091191E+03  0.18800000000E+03 0.  0.
   -5000001    1    1    2    0    0  0.11299901880E+03 -0.16584560566E+03  0.11812169091E+03  0.29928293809E+03  0.18800000000E+03 0.  0.
<mgrwt>
<rscale>  0 0.55010047E+03</rscale>
<asrwt>0</asrwt>
<pdfrwt beam="1">  1        2 0.60941705E-01 0.55010047E+03</pdfrwt>
<pdfrwt beam="2">  1       -2 0.25334560E-01 0.55010047E+03</pdfrwt>
<totfact> 0.11262041E+03</totfact>
</mgrwt>
</event>
<event>
 4    1  0.5886875E-005  0.6476320E+03  0.7818608E-02  0.9811233E-01
          2   -1    0    0  501    0  0.00000000000E+00  0.00000000000E+00  0.11140744543E+04  0.11140744543E+04  0.25500000000E-02 0.  1.
         -2   -1    0    0    0  501 -0.00000000000E+00 -0.00000000000E+00 -0.94120116266E+02  0.94120116301E+02  0.25500000000E-02 0. -1.
    5000001    1    1    2    0    0  0.24336250084E+03 -0.41622518571E+02  0.68252936580E+03  0.74976534733E+03  0.18800000000E+03 0.  0.
   -5000001    1    1    2    0    0 -0.24336250084E+03  0.41622518571E+02  0.33742497223E+03  0.45842922328E+03  0.18800000000E+03 0.  0.
<mgrwt>
<rscale>  0 0.64763205E+03</rscale>
<asrwt>0</asrwt>
<pdfrwt beam="1">  1        2 0.15915349E+00 0.64763205E+03</pdfrwt>
<pdfrwt beam="2">  1       -2 0.13445731E-01 0.64763205E+03</pdfrwt>
<totfact> 0.10158138E+03</totfact>
</mgrwt>
</event>
<event>
 4    1  0.5886875E-005  0.6730998E+03  0.7818608E-02  0.9764374E-01
          2   -1    0    0  501    0  0.00000000000E+00  0.00000000000E+00  0.17427745893E+04  0.17427745893E+04  0.25500000000E-02 0.  1.
         -2   -1    0    0    0  501 -0.00000000000E+00 -0.00000000000E+00 -0.64991666513E+02  0.64991666563E+02  0.25500000000E-02 0. -1.
    5000001    1    1    2    0    0  0.17727759095E+03  0.20958061846E+03  0.97505693403E+03  0.10302579311E+04  0.18800000000E+03 0.  0.
   -5000001    1    1    2    0    0 -0.17727759095E+03 -0.20958061846E+03  0.70272598879E+03  0.77750832485E+03  0.18800000000E+03 0.  0.
<mgrwt>
<rscale>  0 0.67309977E+03</rscale>
<asrwt>0</asrwt>
<pdfrwt beam="1">  1        2 0.24896782E+00 0.67309977E+03</pdfrwt>
<pdfrwt beam="2">  1       -2 0.92845228E-02 0.67309977E+03</pdfrwt>
<totfact> 0.85896832E+02</totfact>
</mgrwt>
</event>
<event>
 4    1  0.5886875E-005  0.4010371E+03  0.7818608E-02  0.1043421E+00
         -2   -1    0    0    0  501 -0.00000000000E+00  0.00000000000E+00  0.30065542701E+03  0.30065542702E+03  0.25500000000E-02 0. -1.
          2   -1    0    0  501    0  0.00000000000E+00 -0.00000000000E+00 -0.13373343332E+03  0.13373343334E+03  0.25500000000E-02 0.  1.
    5000001    1    1    2    0    0 -0.11120348432E+02  0.68117895065E+02  0.72630835186E+02  0.21303273926E+03  0.18800000000E+03 0.  0.
   -5000001    1    1    2    0    0  0.11120348432E+02 -0.68117895065E+02  0.94291158502E+02  0.22135612110E+03  0.18800000000E+03 0.  0.
<mgrwt>
<rscale>  0 0.40103707E+03</rscale>
<asrwt>0</asrwt>
<pdfrwt beam="1">  1        2 0.19104777E-01 0.40103707E+03</pdfrwt>
<pdfrwt beam="2">  1       -2 0.42950774E-01 0.40103707E+03</pdfrwt>
<totfact> 0.15319210E+03</totfact>
</mgrwt>
</event>
<event>
 4    1  0.5886875E-005  0.7684102E+03  0.7818608E-02  0.9606902E-01
         -2   -1    0    0    0  501 -0.00000000000E+00  0.00000000000E+00  0.38050558205E+02  0.38050558291E+02  0.25500000000E-02 0. -1.
          2   -1    0    0  501    0  0.00000000000E+00 -0.00000000000E+00 -0.38794058316E+04  0.38794058316E+04  0.25500000000E-02 0.  1.
    5000001    1    1    2    0    0 -0.10047610128E+03 -0.25830472368E+03 -0.96075507051E+03  0.10174532337E+04  0.18800000000E+03 0.  0.
   -5000001    1    1    2    0    0  0.10047610128E+03  0.25830472368E+03 -0.28806002029E+04  0.29000031562E+04  0.18800000000E+03 0.  0.
<mgrwt>
<rscale>  0 0.76841020E+03</rscale>
<asrwt>0</asrwt>
<pdfrwt beam="1">  1        2 0.55420058E+00 0.76841020E+03</pdfrwt>
<pdfrwt beam="2">  1       -2 0.54357965E-02 0.76841020E+03</pdfrwt>
<totfact> 0.13445985E+02</totfact>
</mgrwt>
</event>
<event>
 4    1  0.5886875E-005  0.5716447E+03  0.7818608E-02  0.9966046E-01
         -2   -1    0    0    0  501 -0.00000000000E+00  0.00000000000E+00  0.38412684454E+02  0.38412684539E+02  0.25500000000E-02 0. -1.
          2   -1    0    0  501    0  0.00000000000E+00 -0.00000000000E+00 -0.21267558511E+04  0.21267558511E+04  0.25500000000E-02 0.  1.
    5000001    1    1    2    0    0  0.99560493362E+02 -0.18804687160E+03 -0.91990072340E+03  0.96272283585E+03  0.18800000000E+03 0.  0.
   -5000001    1    1    2    0    0 -0.99560493362E+02  0.18804687160E+03 -0.11684424432E+04  0.12024456997E+04  0.18800000000E+03 0.  0.
<mgrwt>
<rscale>  0 0.57164465E+03</rscale>
<asrwt>0</asrwt>
<pdfrwt beam="1">  1        2 0.30382219E+00 0.57164465E+03</pdfrwt>
<pdfrwt beam="2">  1       -2 0.54875277E-02 0.57164465E+03</pdfrwt>
<totfact> 0.12724994E+03</totfact>
</mgrwt>
</event>
<event>
 4    1  0.5886875E-005  0.3937726E+03  0.7818608E-02  0.1045958E+00
          2   -1    0    0  501    0  0.00000000000E+00  0.00000000000E+00  0.96499004582E+03  0.96499004582E+03  0.25500000000E-02 0.  1.
         -2   -1    0    0    0  501 -0.00000000000E+00 -0.00000000000E+00 -0.40170583317E+02  0.40170583398E+02  0.25500000000E-02 0. -1.
    5000001    1    1    2    0    0  0.40796912661E+02  0.41446431298E+02  0.44667039214E+03  0.48809900016E+03  0.18800000000E+03 0.  0.
   -5000001    1    1    2    0    0 -0.40796912661E+02 -0.41446431298E+02  0.47814907036E+03  0.51706162905E+03  0.18800000000E+03 0.  0.
<mgrwt>
<rscale>  0 0.39377259E+03</rscale>
<asrwt>0</asrwt>
<pdfrwt beam="1">  1        2 0.13785571E+00 0.39377259E+03</pdfrwt>
<pdfrwt beam="2">  1       -2 0.57386551E-02 0.39377259E+03</pdfrwt>
<totfact> 0.48745734E+03</totfact>
</mgrwt>
</event>
<event>
 4    1  0.5886875E-005  0.7690421E+03  0.7818608E-02  0.9605941E-01
         -2   -1    0    0    0  501 -0.00000000000E+00  0.00000000000E+00  0.20644849862E+03  0.20644849864E+03  0.25500000000E-02 0.  1.
          2   -1    0    0  501    0  0.00000000000E+00 -0.00000000000E+00 -0.71619051323E+03  0.71619051323E+03  0.25500000000E-02 0. -1.
    5000001    1    1    2    0    0 -0.11691417726E+03 -0.31285802602E+03 -0.29210863807E+03  0.48189264958E+03  0.18800000000E+03 0.  0.
   -5000001    1    1    2    0    0  0.11691417726E+03  0.31285802602E+03 -0.21763337653E+03  0.44074636228E+03  0.18800000000E+03 0.  0.
<mgrwt>
<rscale>  0 0.76904215E+03</rscale>
<asrwt>0</asrwt>
<pdfrwt beam="1">  1        2 0.10231293E+00 0.76904215E+03</pdfrwt>
<pdfrwt beam="2">  1       -2 0.29492643E-01 0.76904215E+03</pdfrwt>
<totfact> 0.46454121E+02</totfact>
</mgrwt>
</event>
<event>
 4    1  0.5886875E-005  0.1017813E+04  0.7818608E-02  0.9289221E-01
         -2   -1    0    0    0  501 -0.00000000000E+00  0.00000000000E+00  0.28450579804E+03  0.28450579806E+03  0.25500000000E-02 0. -1.
          2   -1    0    0  501    0  0.00000000000E+00 -0.00000000000E+00 -0.91030051605E+03  0.91030051605E+03  0.25500000000E-02 0.  1.
    5000001    1    1    2    0    0 -0.32815473169E+03  0.30646436174E+03 -0.13863869446E+03  0.50613300678E+03  0.18800000000E+03 0.  0.
   -5000001    1    1    2    0    0  0.32815473169E+03 -0.30646436174E+03 -0.48715602355E+03  0.68867330733E+03  0.18800000000E+03 0.  0.
<mgrwt>
<rscale>  0 0.10178129E+04</rscale>
<asrwt>0</asrwt>
<pdfrwt beam="1">  1        2 0.13004293E+00 0.10178129E+04</pdfrwt>
<pdfrwt beam="2">  1       -2 0.40643686E-01 0.10178129E+04</pdfrwt>
<totfact> 0.18279488E+02</totfact>
</mgrwt>
</event>
<event>
 4    1  0.5886875E-005  0.6975733E+03  0.7818608E-02  0.9721391E-01
         -2   -1    0    0    0  501 -0.00000000000E+00  0.00000000000E+00  0.84153428097E+03  0.84153428098E+03  0.25500000000E-02 0. -1.
          2   -1    0    0  501    0  0.00000000000E+00 -0.00000000000E+00 -0.14455990770E+03  0.14455990772E+03  0.25500000000E-02 0.  1.
    5000001    1    1    2    0    0  0.15672716820E+03  0.20161636515E+03  0.14317060048E+03  0.34792870648E+03  0.18800000000E+03 0.  0.
   -5000001    1    1    2    0    0 -0.15672716820E+03 -0.20161636515E+03  0.55380377279E+03  0.63816548223E+03  0.18800000000E+03 0.  0.
<mgrwt>
<rscale>  0 0.69757327E+03</rscale>
<asrwt>0</asrwt>
<pdfrwt beam="1">  1        2 0.20651416E-01 0.69757327E+03</pdfrwt>
<pdfrwt beam="2">  1       -2 0.12021918E+00 0.69757327E+03</pdfrwt>
<totfact> 0.14624084E+02</totfact>
</mgrwt>
</event>
<event>
 4    1  0.5886875E-005  0.4804529E+03  0.7818608E-02  0.1019011E+00
          2   -1    0    0  501    0  0.00000000000E+00  0.00000000000E+00  0.33104684155E+03  0.33104684156E+03  0.25500000000E-02 0.  1.
         -2   -1    0    0    0  501 -0.00000000000E+00 -0.00000000000E+00 -0.17432200452E+03  0.17432200454E+03  0.25500000000E-02 0. -1.
    5000001    1    1    2    0    0  0.34908036590E+02  0.12392134479E+03 -0.16734859283E+01  0.22786371205E+03  0.18800000000E+03 0.  0.
   -5000001    1    1    2    0    0 -0.34908036590E+02 -0.12392134479E+03  0.15839832296E+03  0.27750513406E+03  0.18800000000E+03 0.  0.
<mgrwt>
<rscale>  0 0.48045291E+03</rscale>
<asrwt>0</asrwt>
<pdfrwt beam="1">  1        2 0.47292406E-01 0.48045291E+03</pdfrwt>
<pdfrwt beam="2">  1       -2 0.24903143E-01 0.48045291E+03</pdfrwt>
<totfact> 0.15361513E+03</totfact>
</mgrwt>
</event>
<event>
 4    1  0.5886875E-005  0.5563771E+03  0.7818608E-02  0.1000029E+00
         -2   -1    0    0    0  501 -0.00000000000E+00  0.00000000000E+00  0.12287508435E+03  0.12287508438E+03  0.25500000000E-02 0. -1.
          2   -1    0    0  501    0  0.00000000000E+00 -0.00000000000E+00 -0.62981736917E+03  0.62981736918E+03  0.25500000000E-02 0.  1.
    5000001    1    1    2    0    0  0.15083702294E+03  0.20506649544E+02 -0.67620775616E+02  0.25117503749E+03  0.18800000000E+03 0.  0.
   -5000001    1    1    2    0    0 -0.15083702294E+03 -0.20506649544E+02 -0.43932150920E+03  0.50151741606E+03  0.18800000000E+03 0.  0.
<mgrwt>
<rscale>  0 0.55637707E+03</rscale>
<asrwt>0</asrwt>
<pdfrwt beam="1">  1        2 0.89973908E-01 0.55637707E+03</pdfrwt>
<pdfrwt beam="2">  1       -2 0.17553584E-01 0.55637707E+03</pdfrwt>
<totfact> 0.13711395E+03</totfact>
</mgrwt>
</event>
<event>
 4    1  0.5886875E-005  0.4001645E+03  0.7818608E-02  0.1043723E+00
          2   -1    0    0  501    0  0.00000000000E+00  0.00000000000E+00  0.92697892184E+03  0.92697892184E+03  0.25500000000E-02 0.  1.
         -2   -1    0    0    0  501 -0.00000000000E+00 -0.00000000000E+00 -0.43186431958E+02  0.43186432034E+02  0.25500000000E-02 0. -1.
    5000001    1    1    2    0    0  0.65148238705E+02 -0.18736197522E+02  0.41844397249E+03  0.46371833716E+03  0.18800000000E+03 0.  0.
   -5000001    1    1    2    0    0 -0.65148238705E+02  0.18736197522E+02  0.46534851738E+03  0.50644701671E+03  0.18800000000E+03 0.  0.
<mgrwt>
<rscale>  0 0.40016453E+03</rscale>
<asrwt>0</asrwt>
<pdfrwt beam="1">  1        2 0.13242556E+00 0.40016453E+03</pdfrwt>
<pdfrwt beam="2">  1       -2 0.61694902E-02 0.40016453E+03</pdfrwt>
<totfact> 0.46006112E+03</totfact>
</mgrwt>
</event>
<event>
 4    1  0.5886875E-005  0.7956569E+03  0.7818608E-02  0.9566325E-01
         -2   -1    0    0    0  501 -0.00000000000E+00  0.00000000000E+00  0.76184327684E+02  0.76184327727E+02  0.25500000000E-02 0. -1.
          2   -1    0    0  501    0  0.00000000000E+00 -0.00000000000E+00 -0.20774281622E+04  0.20774281622E+04  0.25500000000E-02 0.  1.
    5000001    1    1    2    0    0  0.57820124858E+02 -0.33131707399E+03 -0.73254421495E+03  0.82769511127E+03  0.18800000000E+03 0.  0.
   -5000001    1    1    2    0    0 -0.57820124858E+02  0.33131707399E+03 -0.12686996196E+04  0.13259173787E+04  0.18800000000E+03 0.  0.
<mgrwt>
<rscale>  0 0.79565688E+03</rscale>
<asrwt>0</asrwt>
<pdfrwt beam="1">  1        2 0.29677542E+00 0.79565688E+03</pdfrwt>
<pdfrwt beam="2">  1       -2 0.10883477E-01 0.79565688E+03</pdfrwt>
<totfact> 0.44551925E+02</totfact>
</mgrwt>
</event>
<event>
 4    1  0.5886875E-005  0.5134850E+03  0.7818608E-02  0.1010318E+00
         -2   -1    0    0    0  501 -0.00000000000E+00  0.00000000000E+00  0.12024561927E+03  0.12024561930E+03  0.25500000000E-02 0.  1.
          2   -1    0    0  501    0  0.00000000000E+00 -0.00000000000E+00 -0.54818394513E+03  0.54818394514E+03  0.25500000000E-02 0. -1.
    5000001    1    1    2    0    0  0.39278138932E+02 -0.16417100648E+03 -0.15463121852E+03  0.29622576746E+03  0.18800000000E+03 0.  0.
   -5000001    1    1    2    0    0 -0.39278138932E+02  0.16417100648E+03 -0.27330710734E+03  0.37220379698E+03  0.18800000000E+03 0.  0.
<mgrwt>
<rscale>  0 0.51348503E+03</rscale>
<asrwt>0</asrwt>
<pdfrwt beam="1">  1        2 0.78311991E-01 0.51348503E+03</pdfrwt>
<pdfrwt beam="2">  1       -2 0.17177946E-01 0.51348503E+03</pdfrwt>
<totfact> 0.16730469E+03</totfact>
</mgrwt>
</event>
<event>
 4    1  0.5886875E-005  0.6315177E+03  0.7818608E-02  0.9842092E-01
          2   -1    0    0  501    0  0.00000000000E+00  0.00000000000E+00  0.17318131531E+04  0.17318131531E+04  0.25500000000E-02 0.  1.
         -2   -1    0    0    0  501 -0.00000000000E+00 -0.00000000000E+00 -0.57571830331E+02  0.57571830387E+02  0.25500000000E-02 0. -1.
    5000001    1    1    2    0    0 -0.30485772782E+02  0.24320805451E+03  0.10224934027E+04  0.10681368352E+04  0.18800000000E+03 0.  0.
   -5000001    1    1    2    0    0  0.30485772782E+02 -0.24320805451E+03  0.65174792008E+03  0.72124814832E+03  0.18800000000E+03 0.  0.
<mgrwt>
<rscale>  0 0.63151771E+03</rscale>
<asrwt>0</asrwt>
<pdfrwt beam="1">  1        2 0.24740185E+00 0.63151771E+03</pdfrwt>
<pdfrwt beam="2">  1       -2 0.82245482E-02 0.63151771E+03</pdfrwt>
<totfact> 0.10593334E+03</totfact>
</mgrwt>
</event>
<event>
 4    1  0.5886875E-005  0.7421750E+03  0.7818608E-02  0.9647707E-01
         -2   -1    0    0    0  501 -0.00000000000E+00  0.00000000000E+00  0.25166975546E+03  0.25166975548E+03  0.25500000000E-02 0. -1.
          2   -1    0    0  501    0  0.00000000000E+00 -0.00000000000E+00 -0.54716914087E+03  0.54716914087E+03  0.25500000000E-02 0.  1.
    5000001    1    1    2    0    0  0.22958795974E+03 -0.20029423206E+03 -0.42655339293E+02  0.36054387892E+03  0.18800000000E+03 0.  0.
   -5000001    1    1    2    0    0 -0.22958795974E+03  0.20029423206E+03 -0.25284404611E+03  0.43829501743E+03  0.18800000000E+03 0.  0.
<mgrwt>
<rscale>  0 0.74217498E+03</rscale>
<asrwt>0</asrwt>
<pdfrwt beam="1">  1        2 0.78167020E-01 0.74217498E+03</pdfrwt>
<pdfrwt beam="2">  1       -2 0.35952822E-01 0.74217498E+03</pdfrwt>
<totfact> 0.44236513E+02</totfact>
</mgrwt>
</event>
<event>
 4    1  0.5886875E-005  0.4133656E+03  0.7818608E-02  0.1039247E+00
         -2   -1    0    0    0  501 -0.00000000000E+00  0.00000000000E+00  0.28435322582E+02  0.28435322697E+02  0.25500000000E-02 0. -1.
          2   -1    0    0  501    0  0.00000000000E+00 -0.00000000000E+00 -0.15022788192E+04  0.15022788193E+04  0.25500000000E-02 0.  1.
    5000001    1    1    2    0    0 -0.63538891913E+02 -0.56885473565E+02 -0.77406965518E+03  0.80112482109E+03  0.18800000000E+03 0.  0.
   -5000001    1    1    2    0    0  0.63538891913E+02  0.56885473565E+02 -0.69977384149E+03  0.72958932086E+03  0.18800000000E+03 0.  0.
<mgrwt>
<rscale>  0 0.41336562E+03</rscale>
<asrwt>0</asrwt>
<pdfrwt beam="1">  1        2 0.21461121E+00 0.41336562E+03</pdfrwt>
<pdfrwt beam="2">  1       -2 0.40621899E-02 0.41336562E+03</pdfrwt>
<totfact> 0.41890980E+03</totfact>
</mgrwt>
</event>
<event>
 4    1  0.5886875E-005  0.6395380E+03  0.7818608E-02  0.9826611E-01
          2   -1    0    0  501    0  0.00000000000E+00  0.00000000000E+00  0.38190944052E+04  0.38190944052E+04  0.25500000000E-02 0.  1.
         -2   -1    0    0    0  501 -0.00000000000E+00 -0.00000000000E+00 -0.26773942480E+02  0.26773942602E+02  0.25500000000E-02 0. -1.
    5000001    1    1    2    0    0 -0.35045465598E+02 -0.24408445857E+03  0.23659384325E+04  0.23861714259E+04  0.18800000000E+03 0.  0.
   -5000001    1    1    2    0    0  0.35045465598E+02  0.24408445857E+03  0.14263820303E+04  0.14596969219E+04  0.18800000000E+03 0.  0.
<mgrwt>
<rscale>  0 0.63953800E+03</rscale>
<asrwt>0</asrwt>
<pdfrwt beam="1">  1        2 0.54558500E+00 0.63953800E+03</pdfrwt>
<pdfrwt beam="2">  1       -2 0.38248484E-02 0.63953800E+03</pdfrwt>
<totfact> 0.25786837E+02</totfact>
</mgrwt>
</event>
<event>
 4    1  0.5886875E-005  0.1115861E+04  0.7818608E-02  0.9189869E-01
          2   -1    0    0  501    0  0.00000000000E+00  0.00000000000E+00  0.56303288993E+03  0.56303288994E+03  0.25500000000E-02 0. -1.
         -2   -1    0    0    0  501 -0.00000000000E+00 -0.00000000000E+00 -0.55287476222E+03  0.55287476223E+03  0.25500000000E-02 0.  1.
    5000001    1    1    2    0    0 -0.17134382963E+03 -0.36004501057E+03 -0.33691691500E+03  0.55484063045E+03  0.18800000000E+03 0.  0.
   -5000001    1    1    2    0    0  0.17134382963E+03  0.36004501057E+03  0.34707504271E+03  0.56106702172E+03  0.18800000000E+03 0.  0.
<mgrwt>
<rscale>  0 0.11158614E+04</rscale>
<asrwt>0</asrwt>
<pdfrwt beam="1">  1        2 0.80433270E-01 0.11158614E+04</pdfrwt>
<pdfrwt beam="2">  1       -2 0.78982109E-01 0.11158614E+04</pdfrwt>
<totfact> 0.82646810E+01</totfact>
</mgrwt>
</event>
<event>
 4    1  0.5886875E-005  0.5990890E+03  0.7818608E-02  0.9907298E-01
          2   -1    0    0  501    0  0.00000000000E+00  0.00000000000E+00  0.25380946867E+03  0.25380946868E+03  0.25500000000E-02 0.  1.
         -2   -1    0    0    0  501 -0.00000000000E+00 -0.00000000000E+00 -0.35352076757E+03  0.35352076758E+03  0.25500000000E-02 0. -1.
    5000001    1    1    2    0    0 -0.27079108884E+02 -0.22524421076E+03  0.48748469482E+01  0.29467948139E+03  0.18800000000E+03 0.  0.
   -5000001    1    1    2    0    0  0.27079108884E+02  0.22524421076E+03 -0.10458614584E+03  0.31265075487E+03  0.18800000000E+03 0.  0.
<mgrwt>
<rscale>  0 0.59908904E+03</rscale>
<asrwt>0</asrwt>
<pdfrwt beam="1">  1        2 0.36258496E-01 0.59908904E+03</pdfrwt>
<pdfrwt beam="2">  1       -2 0.50502966E-01 0.59908904E+03</pdfrwt>
<totfact> 0.53706807E+02</totfact>
</mgrwt>
</event>
<event>
 4    1  0.5886875E-005  0.4840449E+03  0.7818608E-02  0.1018029E+00
          2   -1    0    0  501    0  0.00000000000E+00  0.00000000000E+00  0.68559666543E+03  0.68559666543E+03  0.25500000000E-02 0. -1.
         -2   -1    0    0    0  501 -0.00000000000E+00 -0.00000000000E+00 -0.85436319407E+02  0.85436319445E+02  0.25500000000E-02 0.  1.
    5000001    1    1    2    0    0 -0.87567738336E+02 -0.95236921924E+02  0.17172918951E+03  0.28561003943E+03  0.18800000000E+03 0.  0.
   -5000001    1    1    2    0    0  0.87567738336E+02  0.95236921924E+02  0.42843115651E+03  0.48542294545E+03  0.18800000000E+03 0.  0.
<mgrwt>
<rscale>  0 0.48404486E+03</rscale>
<asrwt>0</asrwt>
<pdfrwt beam="1">  1        2 0.97942381E-01 0.48404486E+03</pdfrwt>
<pdfrwt beam="2">  1       -2 0.12205189E-01 0.48404486E+03</pdfrwt>
<totfact> 0.22760601E+03</totfact>
</mgrwt>
</event>
<event>
 4    1  0.5886875E-005  0.4741856E+03  0.7818608E-02  0.1020745E+00
         -2   -1    0    0    0  501 -0.00000000000E+00  0.00000000000E+00  0.21796000325E+02  0.21796000474E+02  0.25500000000E-02 0. -1.
          2   -1    0    0  501    0  0.00000000000E+00 -0.00000000000E+00 -0.25790509603E+04  0.25790509603E+04  0.25500000000E-02 0.  1.
    5000001    1    1    2    0    0 -0.11012945219E+03 -0.86779137119E+02 -0.14694096326E+04  0.14880079916E+04  0.18800000000E+03 0.  0.
   -5000001    1    1    2    0    0  0.11012945219E+03  0.86779137119E+02 -0.10878453274E+04  0.11128389691E+04  0.18800000000E+03 0.  0.
<mgrwt>
<rscale>  0 0.47418560E+03</rscale>
<asrwt>0</asrwt>
<pdfrwt beam="1">  1        2 0.36843566E+00 0.47418560E+03</pdfrwt>
<pdfrwt beam="2">  1       -2 0.31137160E-02 0.47418560E+03</pdfrwt>
<totfact> 0.18027296E+03</totfact>
</mgrwt>
</event>
<event>
 4    1  0.5886875E-005  0.3985269E+03  0.7818608E-02  0.1044291E+00
          2   -1    0    0  501    0  0.00000000000E+00  0.00000000000E+00  0.10130818137E+04  0.10130818137E+04  0.25500000000E-02 0.  1.
         -2   -1    0    0    0  501 -0.00000000000E+00 -0.00000000000E+00 -0.39193199005E+02  0.39193199088E+02  0.25500000000E-02 0. -1.
    5000001    1    1    2    0    0  0.54188725312E+02  0.39098694514E+00  0.38725883961E+03  0.43387783958E+03  0.18800000000E+03 0.  0.
   -5000001    1    1    2    0    0 -0.54188725312E+02 -0.39098694514E+00  0.58662977509E+03  0.61839717322E+03  0.18800000000E+03 0.  0.
<mgrwt>
<rscale>  0 0.39852687E+03</rscale>
<asrwt>0</asrwt>
<pdfrwt beam="1">  1        2 0.14472597E+00 0.39852687E+03</pdfrwt>
<pdfrwt beam="2">  1       -2 0.55990285E-02 0.39852687E+03</pdfrwt>
<totfact> 0.47373221E+03</totfact>
</mgrwt>
</event>
<event>
 4    1  0.5886875E-005  0.7141207E+03  0.7818608E-02  0.9693384E-01
         -2   -1    0    0    0  501 -0.00000000000E+00  0.00000000000E+00  0.16093722089E+03  0.16093722091E+03  0.25500000000E-02 0. -1.
          2   -1    0    0  501    0  0.00000000000E+00 -0.00000000000E+00 -0.79218522865E+03  0.79218522865E+03  0.25500000000E-02 0.  1.
    5000001    1    1    2    0    0  0.10872196187E+03  0.21075925116E+03 -0.62709536122E+02  0.30905729705E+03  0.18800000000E+03 0.  0.
   -5000001    1    1    2    0    0 -0.10872196187E+03 -0.21075925116E+03 -0.56853847164E+03  0.64406515251E+03  0.18800000000E+03 0.  0.
<mgrwt>
<rscale>  0 0.71412069E+03</rscale>
<asrwt>0</asrwt>
<pdfrwt beam="1">  1        2 0.11316932E+00 0.71412069E+03</pdfrwt>
<pdfrwt beam="2">  1       -2 0.22991032E-01 0.71412069E+03</pdfrwt>
<totfact> 0.64380637E+02</totfact>
</mgrwt>
</event>
<event>
 4    1  0.5886875E-005  0.6531847E+03  0.7818608E-02  0.9800822E-01
         -2   -1    0    0    0  501 -0.00000000000E+00  0.00000000000E+00  0.10050268196E+03  0.10050268199E+03  0.25500000000E-02 0. -1.
          2   -1    0    0  501    0  0.00000000000E+00 -0.00000000000E+00 -0.10612905707E+04  0.10612905707E+04  0.25500000000E-02 0.  1.
    5000001    1    1    2    0    0 -0.21621865672E+03  0.11131831836E+03 -0.67666220226E+03  0.74320791942E+03  0.18800000000E+03 0.  0.
   -5000001    1    1    2    0    0  0.21621865672E+03 -0.11131831836E+03 -0.28412568649E+03  0.41858533329E+03  0.18800000000E+03 0.  0.
<mgrwt>
<rscale>  0 0.65318466E+03</rscale>
<asrwt>0</asrwt>
<pdfrwt beam="1">  1        2 0.15161293E+00 0.65318466E+03</pdfrwt>
<pdfrwt beam="2">  1       -2 0.14357527E-01 0.65318466E+03</pdfrwt>
<totfact> 0.97731025E+02</totfact>
</mgrwt>
</event>
<event>
 4    1  0.5886875E-005  0.1173988E+04  0.7818608E-02  0.9135934E-01
          2   -1    0    0  501    0  0.00000000000E+00  0.00000000000E+00  0.38055808744E+03  0.38055808745E+03  0.25500000000E-02 0.  1.
         -2   -1    0    0    0  501 -0.00000000000E+00 -0.00000000000E+00 -0.90541268380E+03  0.90541268381E+03  0.25500000000E-02 0. -1.
    5000001    1    1    2    0    0  0.37256187856E+03 -0.74517970666E+02  0.18233577541E+03  0.46146030848E+03  0.18800000000E+03 0.  0.
   -5000001    1    1    2    0    0 -0.37256187856E+03  0.74517970666E+02 -0.70719037177E+03  0.82451046278E+03  0.18800000000E+03 0.  0.
<mgrwt>
<rscale>  0 0.11739883E+04</rscale>
<asrwt>0</asrwt>
<pdfrwt beam="1">  1        2 0.54365441E-01 0.11739883E+04</pdfrwt>
<pdfrwt beam="2">  1       -2 0.12934467E+00 0.11739883E+04</pdfrwt>
<totfact> 0.39777920E+01</totfact>
</mgrwt>
</event>
<event>
 4    1  0.5886875E-005  0.1110615E+04  0.7818608E-02  0.9194907E-01
         -2   -1    0    0    0  501 -0.00000000000E+00  0.00000000000E+00  0.88693481386E+03  0.88693481387E+03  0.25500000000E-02 0. -1.
          2   -1    0    0  501    0  0.00000000000E+00 -0.00000000000E+00 -0.34767646736E+03  0.34767646737E+03  0.25500000000E-02 0.  1.
    5000001    1    1    2    0    0 -0.51755713137E+03  0.71273715515E+02  0.27938612024E+03  0.62156731811E+03  0.18800000000E+03 0.  0.
   -5000001    1    1    2    0    0  0.51755713137E+03 -0.71273715515E+02  0.25987222626E+03  0.61304396313E+03  0.18800000000E+03 0.  0.
<mgrwt>
<rscale>  0 0.11106149E+04</rscale>
<asrwt>0</asrwt>
<pdfrwt beam="1">  1        2 0.49668068E-01 0.11106149E+04</pdfrwt>
<pdfrwt beam="2">  1       -2 0.12670497E+00 0.11106149E+04</pdfrwt>
<totfact> 0.46533830E+01</totfact>
</mgrwt>
</event>
<event>
 4    1  0.5886875E-005  0.7027490E+03  0.7818608E-02  0.9712543E-01
         -2   -1    0    0    0  501 -0.00000000000E+00  0.00000000000E+00  0.10580864586E+03  0.10580864589E+03  0.25500000000E-02 0. -1.
          2   -1    0    0  501    0  0.00000000000E+00 -0.00000000000E+00 -0.11668614367E+04  0.11668614367E+04  0.25500000000E-02 0.  1.
    5000001    1    1    2    0    0 -0.23948302401E+03  0.11196723003E+03 -0.77505171249E+03  0.84020112855E+03  0.18800000000E+03 0.  0.
   -5000001    1    1    2    0    0  0.23948302401E+03 -0.11196723003E+03 -0.28600107833E+03  0.43246895402E+03  0.18800000000E+03 0.  0.
<mgrwt>
<rscale>  0 0.70274897E+03</rscale>
<asrwt>0</asrwt>
<pdfrwt beam="1">  1        2 0.16669448E+00 0.70274897E+03</pdfrwt>
<pdfrwt beam="2">  1       -2 0.15115522E-01 0.70274897E+03</pdfrwt>
<totfact> 0.77685004E+02</totfact>
</mgrwt>
</event>
<event>
 4    1  0.5886875E-005  0.8277795E+03  0.7818608E-02  0.9520656E-01
         -2   -1    0    0    0  501 -0.00000000000E+00  0.00000000000E+00  0.14094991134E+03  0.14094991136E+03  0.25500000000E-02 0. -1.
          2   -1    0    0  501    0  0.00000000000E+00 -0.00000000000E+00 -0.12153589839E+04  0.12153589839E+04  0.25500000000E-02 0.  1.
    5000001    1    1    2    0    0  0.32637958534E+03  0.10755084683E+03 -0.31817370094E+03  0.50464772104E+03  0.18800000000E+03 0.  0.
   -5000001    1    1    2    0    0 -0.32637958534E+03 -0.10755084683E+03 -0.75623537164E+03  0.85166117424E+03  0.18800000000E+03 0.  0.
<mgrwt>
<rscale>  0 0.82777954E+03</rscale>
<asrwt>0</asrwt>
<pdfrwt beam="1">  1        2 0.17362271E+00 0.82777954E+03</pdfrwt>
<pdfrwt beam="2">  1       -2 0.20135702E-01 0.82777954E+03</pdfrwt>
<totfact> 0.44292943E+02</totfact>
</mgrwt>
</event>
<event>
 4    1  0.5886875E-005  0.6282534E+03  0.7818608E-02  0.9848463E-01
          2   -1    0    0  501    0  0.00000000000E+00  0.00000000000E+00  0.42376016545E+03  0.42376016546E+03  0.25500000000E-02 0.  1.
         -2   -1    0    0    0  501 -0.00000000000E+00 -0.00000000000E+00 -0.23285715286E+03  0.23285715288E+03  0.25500000000E-02 0. -1.
    5000001    1    1    2    0    0  0.33446368917E+01  0.24391856281E+03  0.16008297393E+03  0.34709942441E+03  0.18800000000E+03 0.  0.
   -5000001    1    1    2    0    0 -0.33446368917E+01 -0.24391856281E+03  0.30820038655E+02  0.30951789393E+03  0.18800000000E+03 0.  0.
<mgrwt>
<rscale>  0 0.62825341E+03</rscale>
<asrwt>0</asrwt>
<pdfrwt beam="1">  1        2 0.60537167E-01 0.62825341E+03</pdfrwt>
<pdfrwt beam="2">  1       -2 0.33265308E-01 0.62825341E+03</pdfrwt>
<totfact> 0.68735470E+02</totfact>
</mgrwt>
</event>
<event>
 4    1  0.5886875E-005  0.5175609E+03  0.7818608E-02  0.1009294E+00
         -2   -1    0    0    0  501 -0.00000000000E+00  0.00000000000E+00  0.10671892873E+03  0.10671892876E+03  0.25500000000E-02 0. -1.
          2   -1    0    0  501    0  0.00000000000E+00 -0.00000000000E+00 -0.62751122998E+03  0.62751122999E+03  0.25500000000E-02 0.  1.
    5000001    1    1    2    0    0 -0.44416660370E+02 -0.63635903444E+02 -0.33410263791E+02  0.20611310888E+03  0.18800000000E+03 0.  0.
   -5000001    1    1    2    0    0  0.44416660370E+02  0.63635903444E+02 -0.48738203746E+03  0.52811704987E+03  0.18800000000E+03 0.  0.
<mgrwt>
<rscale>  0 0.51756092E+03</rscale>
<asrwt>0</asrwt>
<pdfrwt beam="1">  1        2 0.89644459E-01 0.51756092E+03</pdfrwt>
<pdfrwt beam="2">  1       -2 0.15245562E-01 0.51756092E+03</pdfrwt>
<totfact> 0.17490400E+03</totfact>
</mgrwt>
</event>
<event>
 4    1  0.5886875E-005  0.7751600E+03  0.7818608E-02  0.9596685E-01
         -2   -1    0    0    0  501 -0.00000000000E+00  0.00000000000E+00  0.19533541112E+03  0.19533541114E+03  0.25500000000E-02 0. -1.
          2   -1    0    0  501    0  0.00000000000E+00 -0.00000000000E+00 -0.76902725599E+03  0.76902725600E+03  0.25500000000E-02 0.  1.
    5000001    1    1    2    0    0  0.28689593602E+03 -0.85297732507E+02 -0.89004503779E+02  0.36448701345E+03  0.18800000000E+03 0.  0.
   -5000001    1    1    2    0    0 -0.28689593602E+03  0.85297732507E+02 -0.48468734109E+03  0.59987565369E+03  0.18800000000E+03 0.  0.
<mgrwt>
<rscale>  0 0.77516000E+03</rscale>
<asrwt>0</asrwt>
<pdfrwt beam="1">  1        2 0.10986103E+00 0.77516000E+03</pdfrwt>
<pdfrwt beam="2">  1       -2 0.27905059E-01 0.77516000E+03</pdfrwt>
<totfact> 0.47030707E+02</totfact>
</mgrwt>
</event>
<event>
 4    1  0.5886875E-005  0.4030547E+03  0.7818608E-02  0.1042727E+00
          2   -1    0    0  501    0  0.00000000000E+00  0.00000000000E+00  0.22676570928E+04  0.22676570928E+04  0.25500000000E-02 0.  1.
         -2   -1    0    0    0  501 -0.00000000000E+00 -0.00000000000E+00 -0.17909793966E+02  0.17909794148E+02  0.25500000000E-02 0. -1.
    5000001    1    1    2    0    0 -0.62788920360E+02  0.80247887622E+01  0.13263540838E+04  0.13411062603E+04  0.18800000000E+03 0.  0.
   -5000001    1    1    2    0    0  0.62788920360E+02 -0.80247887622E+01  0.92339321505E+03  0.94446062668E+03  0.18800000000E+03 0.  0.
<mgrwt>
<rscale>  0 0.40305469E+03</rscale>
<asrwt>0</asrwt>
<pdfrwt beam="1">  1        2 0.32395102E+00 0.40305469E+03</pdfrwt>
<pdfrwt beam="2">  1       -2 0.25585419E-02 0.40305469E+03</pdfrwt>
<totfact> 0.34925416E+03</totfact>
</mgrwt>
</event>
<event>
 4    1  0.5886875E-005  0.6193763E+03  0.7818608E-02  0.9866002E-01
         -2   -1    0    0    0  501 -0.00000000000E+00  0.00000000000E+00  0.93248601695E+02  0.93248601730E+02  0.25500000000E-02 0. -1.
          2   -1    0    0  501    0  0.00000000000E+00 -0.00000000000E+00 -0.10285060802E+04  0.10285060802E+04  0.25500000000E-02 0.  1.
    5000001    1    1    2    0    0 -0.12056780098E+03 -0.19538792210E+03 -0.30716742046E+03  0.42709350139E+03  0.18800000000E+03 0.  0.
   -5000001    1    1    2    0    0  0.12056780098E+03  0.19538792210E+03 -0.62809005803E+03  0.69466118053E+03  0.18800000000E+03 0.  0.
<mgrwt>
<rscale>  0 0.61937631E+03</rscale>
<asrwt>0</asrwt>
<pdfrwt beam="1">  1        2 0.14692943E+00 0.61937631E+03</pdfrwt>
<pdfrwt beam="2">  1       -2 0.13321229E-01 0.61937631E+03</pdfrwt>
<totfact> 0.11598231E+03</totfact>
</mgrwt>
</event>
<event>
 4    1  0.5886875E-005  0.4980177E+03  0.7818608E-02  0.1014298E+00
          2   -1    0    0  501    0  0.00000000000E+00  0.00000000000E+00  0.83520685766E+03  0.83520685767E+03  0.25500000000E-02 0.  1.
         -2   -1    0    0    0  501 -0.00000000000E+00 -0.00000000000E+00 -0.74239591785E+02  0.74239591829E+02  0.25500000000E-02 0. -1.
    5000001    1    1    2    0    0 -0.16272709161E+03  0.69923412835E+01  0.35946985143E+03  0.43714022152E+03  0.18800000000E+03 0.  0.
   -5000001    1    1    2    0    0  0.16272709161E+03 -0.69923412835E+01  0.40149741445E+03  0.47230622798E+03  0.18800000000E+03 0.  0.
<mgrwt>
<rscale>  0 0.49801774E+03</rscale>
<asrwt>0</asrwt>
<pdfrwt beam="1">  1        2 0.11931527E+00 0.49801774E+03</pdfrwt>
<pdfrwt beam="2">  1       -2 0.10605656E-01 0.49801774E+03</pdfrwt>
<totfact> 0.22384326E+03</totfact>
</mgrwt>
</event>
<event>
 4    1  0.5886875E-005  0.6186056E+03  0.7818608E-02  0.9867540E-01
          2   -1    0    0  501    0  0.00000000000E+00  0.00000000000E+00  0.11983782590E+04  0.11983782590E+04  0.25500000000E-02 0. -1.
         -2   -1    0    0    0  501 -0.00000000000E+00 -0.00000000000E+00 -0.79831397917E+02  0.79831397957E+02  0.25500000000E-02 0.  1.
    5000001    1    1    2    0    0 -0.19216922451E+03 -0.10305572854E+02  0.87460224207E+03  0.91504551664E+03  0.18800000000E+03 0.  0.
   -5000001    1    1    2    0    0  0.19216922451E+03  0.10305572854E+02  0.24394461905E+03  0.36316414036E+03  0.18800000000E+03 0.  0.
<mgrwt>
<rscale>  0 0.61860557E+03</rscale>
<asrwt>0</asrwt>
<pdfrwt beam="1">  1        2 0.17119691E+00 0.61860557E+03</pdfrwt>
<pdfrwt beam="2">  1       -2 0.11404484E-01 0.61860557E+03</pdfrwt>
<totfact> 0.11948398E+03</totfact>
</mgrwt>
</event>
<event>
 4    1  0.5886875E-005  0.4293120E+03  0.7818608E-02  0.1034078E+00
         -2   -1    0    0    0  501 -0.00000000000E+00  0.00000000000E+00  0.42792084485E+02  0.42792084561E+02  0.25500000000E-02 0. -1.
          2   -1    0    0  501    0  0.00000000000E+00 -0.00000000000E+00 -0.10767690431E+04  0.10767690431E+04  0.25500000000E-02 0.  1.
    5000001    1    1    2    0    0  0.89459064999E+02 -0.41221888304E+02 -0.60072387941E+03  0.63711486223E+03  0.18800000000E+03 0.  0.
   -5000001    1    1    2    0    0 -0.89459064999E+02  0.41221888304E+02 -0.43325307920E+03  0.48244626542E+03  0.18800000000E+03 0.  0.
<mgrwt>
<rscale>  0 0.42931197E+03</rscale>
<asrwt>0</asrwt>
<pdfrwt beam="1">  1        2 0.15382413E+00 0.42931197E+03</pdfrwt>
<pdfrwt beam="2">  1       -2 0.61131556E-02 0.42931197E+03</pdfrwt>
<totfact> 0.37959160E+03</totfact>
</mgrwt>
</event>
<event>
 4    1  0.5886875E-005  0.1263462E+04  0.7818608E-02  0.9059053E-01
         -2   -1    0    0    0  501 -0.00000000000E+00  0.00000000000E+00  0.15366393333E+03  0.15366393336E+03  0.25500000000E-02 0. -1.
          2   -1    0    0  501    0  0.00000000000E+00 -0.00000000000E+00 -0.25971233059E+04  0.25971233059E+04  0.25500000000E-02 0.  1.
    5000001    1    1    2    0    0  0.26504637847E+03  0.35537994796E+03 -0.33148930523E+03  0.58461410317E+03  0.18800000000E+03 0.  0.
   -5000001    1    1    2    0    0 -0.26504637847E+03 -0.35537994796E+03 -0.21119700673E+04  0.21661731361E+04  0.18800000000E+03 0.  0.
<mgrwt>
<rscale>  0 0.12634622E+04</rscale>
<asrwt>0</asrwt>
<pdfrwt beam="1">  1        2 0.37101759E+00 0.12634622E+04</pdfrwt>
<pdfrwt beam="2">  1       -2 0.21951992E-01 0.12634622E+04</pdfrwt>
<totfact> 0.70072089E+01</totfact>
</mgrwt>
</event>
<event>
 4    1  0.5886875E-005  0.7768189E+03  0.7818608E-02  0.9594191E-01
          2   -1    0    0  501    0  0.00000000000E+00  0.00000000000E+00  0.15219305543E+04  0.15219305543E+04  0.25500000000E-02 0.  1.
         -2   -1    0    0    0  501 -0.00000000000E+00 -0.00000000000E+00 -0.99125338773E+02  0.99125338806E+02  0.25500000000E-02 0. -1.
    5000001    1    1    2    0    0 -0.14213244380E+03  0.29728600233E+03  0.88521187977E+03  0.96308082260E+03  0.18800000000E+03 0.  0.
   -5000001    1    1    2    0    0  0.14213244380E+03 -0.29728600233E+03  0.53759333574E+03  0.65797507049E+03  0.18800000000E+03 0.  0.
<mgrwt>
<rscale>  0 0.77681885E+03</rscale>
<asrwt>0</asrwt>
<pdfrwt beam="1">  1        2 0.21741863E+00 0.77681885E+03</pdfrwt>
<pdfrwt beam="2">  1       -2 0.14160764E-01 0.77681885E+03</pdfrwt>
<totfact> 0.55427095E+02</totfact>
</mgrwt>
</event>
<event>
 4    1  0.5886875E-005  0.4996673E+03  0.7818608E-02  0.1013866E+00
         -2   -1    0    0    0  501 -0.00000000000E+00  0.00000000000E+00  0.10819568418E+03  0.10819568421E+03  0.25500000000E-02 0. -1.
          2   -1    0    0  501    0  0.00000000000E+00 -0.00000000000E+00 -0.57688855130E+03  0.57688855131E+03  0.25500000000E-02 0.  1.
    5000001    1    1    2    0    0  0.67178033532E+02  0.13075855124E+03 -0.33567815985E+03  0.41186710710E+03  0.18800000000E+03 0.  0.
   -5000001    1    1    2    0    0 -0.67178033532E+02 -0.13075855124E+03 -0.13301470727E+03  0.27321712842E+03  0.18800000000E+03 0.  0.
<mgrwt>
<rscale>  0 0.49966730E+03</rscale>
<asrwt>0</asrwt>
<pdfrwt beam="1">  1        2 0.82412649E-01 0.49966730E+03</pdfrwt>
<pdfrwt beam="2">  1       -2 0.15456527E-01 0.49966730E+03</pdfrwt>
<totfact> 0.18858195E+03</totfact>
</mgrwt>
</event>
<event>
 4    1  0.5886875E-005  0.6398193E+03  0.7818608E-02  0.9826072E-01
         -2   -1    0    0    0  501 -0.00000000000E+00  0.00000000000E+00  0.17446044689E+03  0.17446044691E+03  0.25500000000E-02 0. -1.
          2   -1    0    0  501    0  0.00000000000E+00 -0.00000000000E+00 -0.58662116028E+03  0.58662116029E+03  0.25500000000E-02 0.  1.
    5000001    1    1    2    0    0  0.12818212711E+03  0.17100090014E+03 -0.32367939333E+02  0.28646753578E+03  0.18800000000E+03 0.  0.
   -5000001    1    1    2    0    0 -0.12818212711E+03 -0.17100090014E+03 -0.37979277406E+03  0.47461407142E+03  0.18800000000E+03 0.  0.
<mgrwt>
<rscale>  0 0.63981932E+03</rscale>
<asrwt>0</asrwt>
<pdfrwt beam="1">  1        2 0.83803022E-01 0.63981932E+03</pdfrwt>
<pdfrwt beam="2">  1       -2 0.24922921E-01 0.63981932E+03</pdfrwt>
<totfact> 0.80588923E+02</totfact>
</mgrwt>
</event>
<event>
 4    1  0.5886875E-005  0.4730470E+03  0.7818608E-02  0.1021064E+00
         -2   -1    0    0    0  501 -0.00000000000E+00  0.00000000000E+00  0.38491783485E+03  0.38491783486E+03  0.25500000000E-02 0. -1.
          2   -1    0    0  501    0  0.00000000000E+00 -0.00000000000E+00 -0.14533844943E+03  0.14533844945E+03  0.25500000000E-02 0.  1.
    5000001    1    1    2    0    0 -0.64267643128E+02 -0.92621021474E+02  0.20219247998E+02  0.22014041329E+03  0.18800000000E+03 0.  0.
   -5000001    1    1    2    0    0  0.64267643128E+02  0.92621021474E+02  0.21936013742E+03  0.31011587102E+03  0.18800000000E+03 0.  0.
<mgrwt>
<rscale>  0 0.47304698E+03</rscale>
<asrwt>0</asrwt>
<pdfrwt beam="1">  1        2 0.20762636E-01 0.47304698E+03</pdfrwt>
<pdfrwt beam="2">  1       -2 0.54988260E-01 0.47304698E+03</pdfrwt>
<totfact> 0.84878553E+02</totfact>
</mgrwt>
</event>
<event>
 4    1  0.5886875E-005  0.7608053E+03  0.7818608E-02  0.9618549E-01
         -2   -1    0    0    0  501 -0.00000000000E+00  0.00000000000E+00  0.40511818932E+03  0.40511818932E+03  0.25500000000E-02 0. -1.
          2   -1    0    0  501    0  0.00000000000E+00 -0.00000000000E+00 -0.35719497153E+03  0.35719497154E+03  0.25500000000E-02 0.  1.
    5000001    1    1    2    0    0  0.17587415694E+03 -0.83240745518E+02 -0.24396588040E+03  0.36431317790E+03  0.18800000000E+03 0.  0.
   -5000001    1    1    2    0    0 -0.17587415694E+03  0.83240745518E+02  0.29188909819E+03  0.39799998296E+03  0.18800000000E+03 0.  0.
<mgrwt>
<rscale>  0 0.76080531E+03</rscale>
<asrwt>0</asrwt>
<pdfrwt beam="1">  1        2 0.51027853E-01 0.76080531E+03</pdfrwt>
<pdfrwt beam="2">  1       -2 0.57874027E-01 0.76080531E+03</pdfrwt>
<totfact> 0.27651247E+02</totfact>
</mgrwt>
</event>
<event>
 4    1  0.5886875E-005  0.6660926E+03  0.7818608E-02  0.9777043E-01
         -2   -1    0    0    0  501 -0.00000000000E+00  0.00000000000E+00  0.18187635344E+03  0.18187635346E+03  0.25500000000E-02 0. -1.
          2   -1    0    0  501    0  0.00000000000E+00 -0.00000000000E+00 -0.60986395174E+03  0.60986395174E+03  0.25500000000E-02 0.  1.
    5000001    1    1    2    0    0  0.17320139871E+03 -0.68174860993E+02  0.26478630911E+02  0.26587902152E+03  0.18800000000E+03 0.  0.
   -5000001    1    1    2    0    0 -0.17320139871E+03  0.68174860993E+02 -0.45446622921E+03  0.52586128368E+03  0.18800000000E+03 0.  0.
<mgrwt>
<rscale>  0 0.66609258E+03</rscale>
<asrwt>0</asrwt>
<pdfrwt beam="1">  1        2 0.87123421E-01 0.66609258E+03</pdfrwt>
<pdfrwt beam="2">  1       -2 0.25982336E-01 0.66609258E+03</pdfrwt>
<totfact> 0.71375703E+02</totfact>
</mgrwt>
</event>
<event>
 4    1  0.5886875E-005  0.5443419E+03  0.7818608E-02  0.1002812E+00
          2   -1    0    0  501    0  0.00000000000E+00  0.00000000000E+00  0.35300484545E+03  0.35300484546E+03  0.25500000000E-02 0.  1.
         -2   -1    0    0    0  501 -0.00000000000E+00 -0.00000000000E+00 -0.20984703504E+03  0.20984703506E+03  0.25500000000E-02 0. -1.
    5000001    1    1    2    0    0  0.18564743791E+03 -0.32801421361E+02  0.13158886995E+02  0.26656717869E+03  0.18800000000E+03 0.  0.
   -5000001    1    1    2    0    0 -0.18564743791E+03  0.32801421361E+02  0.12999892341E+03  0.29628470183E+03  0.18800000000E+03 0.  0.
<mgrwt>
<rscale>  0 0.54434188E+03</rscale>
<asrwt>0</asrwt>
<pdfrwt beam="1">  1        2 0.50429263E-01 0.54434188E+03</pdfrwt>
<pdfrwt beam="2">  1       -2 0.29978148E-01 0.54434188E+03</pdfrwt>
<totfact> 0.10226277E+03</totfact>
</mgrwt>
</event>
<event>
 4    1  0.5886875E-005  0.8449510E+03  0.7818608E-02  0.9497139E-01
          2   -1    0    0  501    0  0.00000000000E+00  0.00000000000E+00  0.37711727887E+03  0.37711727888E+03  0.25500000000E-02 0.  1.
         -2   -1    0    0    0  501 -0.00000000000E+00 -0.00000000000E+00 -0.47328927489E+03  0.47328927489E+03  0.25500000000E-02 0. -1.
    5000001    1    1    2    0    0  0.34540433178E+03 -0.13755188621E+03 -0.11865927546E+03  0.43318436890E+03  0.18800000000E+03 0.  0.
   -5000001    1    1    2    0    0 -0.34540433178E+03  0.13755188621E+03  0.22487279438E+02  0.41722218487E+03  0.18800000000E+03 0.  0.
<mgrwt>
<rscale>  0 0.84495104E+03</rscale>
<asrwt>0</asrwt>
<pdfrwt beam="1">  1        2 0.53873897E-01 0.84495104E+03</pdfrwt>
<pdfrwt beam="2">  1       -2 0.67612754E-01 0.84495104E+03</pdfrwt>
<totfact> 0.18631788E+02</totfact>
</mgrwt>
</event>
<event>
 4    1  0.5886875E-005  0.9007668E+03  0.7818608E-02  0.9424623E-01
         -2   -1    0    0    0  501 -0.00000000000E+00  0.00000000000E+00  0.23528880517E+03  0.23528880518E+03  0.25500000000E-02 0. -1.
          2   -1    0    0  501    0  0.00000000000E+00 -0.00000000000E+00 -0.86211168753E+03  0.86211168754E+03  0.25500000000E-02 0.  1.
    5000001    1    1    2    0    0  0.20654346921E+03 -0.30574423723E+03 -0.97661309089E+02  0.42546618499E+03  0.18800000000E+03 0.  0.
   -5000001    1    1    2    0    0 -0.20654346921E+03  0.30574423723E+03 -0.52916157328E+03  0.67193430773E+03  0.18800000000E+03 0.  0.
<mgrwt>
<rscale>  0 0.90076685E+03</rscale>
<asrwt>0</asrwt>
<pdfrwt beam="1">  1        2 0.12315881E+00 0.90076685E+03</pdfrwt>
<pdfrwt beam="2">  1       -2 0.33612687E-01 0.90076685E+03</pdfrwt>
<totfact> 0.28518122E+02</totfact>
</mgrwt>
</event>
<event>
 4    1  0.5886875E-005  0.4821616E+03  0.7818608E-02  0.1018543E+00
         -2   -1    0    0    0  501 -0.00000000000E+00  0.00000000000E+00  0.47949531915E+02  0.47949531982E+02  0.25500000000E-02 0. -1.
          2   -1    0    0  501    0  0.00000000000E+00 -0.00000000000E+00 -0.12121069132E+04  0.12121069132E+04  0.25500000000E-02 0.  1.
    5000001    1    1    2    0    0 -0.10339071540E+03  0.94966376263E+02 -0.43733346145E+03  0.49629911259E+03  0.18800000000E+03 0.  0.
   -5000001    1    1    2    0    0  0.10339071540E+03 -0.94966376263E+02 -0.72682391987E+03  0.76375733263E+03  0.18800000000E+03 0.  0.
<mgrwt>
<rscale>  0 0.48216163E+03</rscale>
<asrwt>0</asrwt>
<pdfrwt beam="1">  1        2 0.17315811E+00 0.48216163E+03</pdfrwt>
<pdfrwt beam="2">  1       -2 0.68499339E-02 0.48216163E+03</pdfrwt>
<totfact> 0.26645468E+03</totfact>
</mgrwt>
</event>
<event>
 4    1  0.5886875E-005  0.5000478E+03  0.7818608E-02  0.1013766E+00
         -2   -1    0    0    0  501 -0.00000000000E+00  0.00000000000E+00  0.44903850654E+03  0.44903850655E+03  0.25500000000E-02 0. -1.
          2   -1    0    0  501    0  0.00000000000E+00 -0.00000000000E+00 -0.13921292022E+03  0.13921292025E+03  0.25500000000E-02 0.  1.
    5000001    1    1    2    0    0  0.53373016985E+02  0.13681769928E+03  0.24294735330E+03  0.34049255242E+03  0.18800000000E+03 0.  0.
   -5000001    1    1    2    0    0 -0.53373016985E+02 -0.13681769928E+03  0.66878233018E+02  0.24775887437E+03  0.18800000000E+03 0.  0.
<mgrwt>
<rscale>  0 0.50004784E+03</rscale>
<asrwt>0</asrwt>
<pdfrwt beam="1">  1        2 0.19887560E-01 0.50004784E+03</pdfrwt>
<pdfrwt beam="2">  1       -2 0.64148358E-01 0.50004784E+03</pdfrwt>
<totfact> 0.64663494E+02</totfact>
</mgrwt>
</event>
<event>
 4    1  0.5886875E-005  0.4651189E+03  0.7818608E-02  0.1023307E+00
         -2   -1    0    0    0  501 -0.00000000000E+00  0.00000000000E+00  0.57225077430E+02  0.57225077486E+02  0.25500000000E-02 0. -1.
          2   -1    0    0  501    0  0.00000000000E+00 -0.00000000000E+00 -0.94510817294E+03  0.94510817295E+03  0.25500000000E-02 0.  1.
    5000001    1    1    2    0    0 -0.54000340156E+02  0.11173750743E+03 -0.31942440312E+03  0.39086731330E+03  0.18800000000E+03 0.  0.
   -5000001    1    1    2    0    0  0.54000340156E+02 -0.11173750743E+03 -0.56845869240E+03  0.61146593713E+03  0.18800000000E+03 0.  0.
<mgrwt>
<rscale>  0 0.46511886E+03</rscale>
<asrwt>0</asrwt>
<pdfrwt beam="1">  1        2 0.13501544E+00 0.46511886E+03</pdfrwt>
<pdfrwt beam="2">  1       -2 0.81750116E-02 0.46511886E+03</pdfrwt>
<totfact> 0.28858082E+03</totfact>
</mgrwt>
</event>
<event>
 4    1  0.5886875E-005  0.6460402E+03  0.7818608E-02  0.9814238E-01
          2   -1    0    0  501    0  0.00000000000E+00  0.00000000000E+00  0.10294498808E+03  0.10294498811E+03  0.25500000000E-02 0.  1.
         -2   -1    0    0    0  501 -0.00000000000E+00 -0.00000000000E+00 -0.10135701981E+04  0.10135701981E+04  0.25500000000E-02 0. -1.
    5000001    1    1    2    0    0 -0.14078614915E+03 -0.11805255842E+03 -0.77974794592E+03  0.82286572751E+03  0.18800000000E+03 0.  0.
   -5000001    1    1    2    0    0  0.14078614915E+03  0.11805255842E+03 -0.13087726409E+03  0.29364945870E+03  0.18800000000E+03 0.  0.
<mgrwt>
<rscale>  0 0.64604016E+03</rscale>
<asrwt>0</asrwt>
<pdfrwt beam="1">  1        2 0.14706427E-01 0.64604016E+03</pdfrwt>
<pdfrwt beam="2">  1       -2 0.14479574E+00 0.64604016E+03</pdfrwt>
<totfact> 0.13707058E+02</totfact>
</mgrwt>
</event>
<event>
 4    1  0.5886875E-005  0.5722359E+03  0.7818608E-02  0.9964743E-01
         -2   -1    0    0    0  501 -0.00000000000E+00  0.00000000000E+00  0.39642730138E+02  0.39642730220E+02  0.25500000000E-02 0. -1.
          2   -1    0    0  501    0  0.00000000000E+00 -0.00000000000E+00 -0.20650310872E+04  0.20650310872E+04  0.25500000000E-02 0.  1.
    5000001    1    1    2    0    0  0.41478056496E+02 -0.14438311679E+03 -0.44346695114E+03  0.50455311944E+03  0.18800000000E+03 0.  0.
   -5000001    1    1    2    0    0 -0.41478056496E+02  0.14438311679E+03 -0.15819214060E+04  0.16001206980E+04  0.18800000000E+03 0.  0.
<mgrwt>
<rscale>  0 0.57223586E+03</rscale>
<asrwt>0</asrwt>
<pdfrwt beam="1">  1        2 0.29500437E+00 0.57223586E+03</pdfrwt>
<pdfrwt beam="2">  1       -2 0.56632485E-02 0.57223586E+03</pdfrwt>
<totfact> 0.13009991E+03</totfact>
</mgrwt>
</event>
<event>
 4    1  0.5886875E-005  0.7261402E+03  0.7818608E-02  0.9673544E-01
         -2   -1    0    0    0  501 -0.00000000000E+00  0.00000000000E+00  0.12833066008E+03  0.12833066010E+03  0.25500000000E-02 0. -1.
          2   -1    0    0  501    0  0.00000000000E+00 -0.00000000000E+00 -0.10271895062E+04  0.10271895062E+04  0.25500000000E-02 0.  1.
    5000001    1    1    2    0    0  0.16320505531E+03  0.25893441221E+03 -0.36533028868E+03  0.51234084332E+03  0.18800000000E+03 0.  0.
   -5000001    1    1    2    0    0 -0.16320505531E+03 -0.25893441221E+03 -0.53352855743E+03  0.64317932297E+03  0.18800000000E+03 0.  0.
<mgrwt>
<rscale>  0 0.72614023E+03</rscale>
<asrwt>0</asrwt>
<pdfrwt beam="1">  1        2 0.14674135E+00 0.72614023E+03</pdfrwt>
<pdfrwt beam="2">  1       -2 0.18332952E-01 0.72614023E+03</pdfrwt>
<totfact> 0.67406085E+02</totfact>
</mgrwt>
</event>
<event>
 4    1  0.5886875E-005  0.1198991E+04  0.7818608E-02  0.9113740E-01
          2   -1    0    0  501    0  0.00000000000E+00  0.00000000000E+00  0.88813570669E+03  0.88813570669E+03  0.25500000000E-02 0.  1.
         -2   -1    0    0    0  501 -0.00000000000E+00 -0.00000000000E+00 -0.40466190244E+03  0.40466190245E+03  0.25500000000E-02 0. -1.
    5000001    1    1    2    0    0  0.27718808372E+03 -0.40799222655E+03  0.54815352446E+03  0.76099091786E+03  0.18800000000E+03 0.  0.
   -5000001    1    1    2    0    0 -0.27718808372E+03  0.40799222655E+03 -0.64679720219E+02  0.53180669128E+03  0.18800000000E+03 0.  0.
<mgrwt>
<rscale>  0 0.11989907E+04</rscale>
<asrwt>0</asrwt>
<pdfrwt beam="1">  1        2 0.12687653E+00 0.11989907E+04</pdfrwt>
<pdfrwt beam="2">  1       -2 0.57808843E-01 0.11989907E+04</pdfrwt>
<totfact> 0.91578134E+01</totfact>
</mgrwt>
</event>
<event>
 4    1  0.5886875E-005  0.1176782E+04  0.7818608E-02  0.9133426E-01
          2   -1    0    0  501    0  0.00000000000E+00  0.00000000000E+00  0.20851151983E+04  0.20851151983E+04  0.25500000000E-02 0.  1.
         -2   -1    0    0    0  501 -0.00000000000E+00 -0.00000000000E+00 -0.16603580366E+03  0.16603580367E+03  0.25500000000E-02 0. -1.
    5000001    1    1    2    0    0 -0.36824038247E+03  0.36689269936E+03  0.57385604076E+03  0.79678478126E+03  0.18800000000E+03 0.  0.
   -5000001    1    1    2    0    0  0.36824038247E+03 -0.36689269936E+03  0.13452233539E+04  0.14543662207E+04  0.18800000000E+03 0.  0.
<mgrwt>
<rscale>  0 0.11767817E+04</rscale>
<asrwt>0</asrwt>
<pdfrwt beam="1">  1        2 0.29787359E+00 0.11767817E+04</pdfrwt>
<pdfrwt beam="2">  1       -2 0.23719401E-01 0.11767817E+04</pdfrwt>
<totfact> 0.11318666E+02</totfact>
</mgrwt>
</event>
<event>
 4    1  0.5886875E-005  0.4680005E+03  0.7818608E-02  0.1022486E+00
         -2   -1    0    0    0  501 -0.00000000000E+00  0.00000000000E+00  0.61695341707E+02  0.61695341760E+02  0.25500000000E-02 0. -1.
          2   -1    0    0  501    0  0.00000000000E+00 -0.00000000000E+00 -0.88752420143E+03  0.88752420143E+03  0.25500000000E-02 0.  1.
    5000001    1    1    2    0    0 -0.39619594605E+02 -0.12495340222E+03 -0.31715540881E+03  0.39129863064E+03  0.18800000000E+03 0.  0.
   -5000001    1    1    2    0    0  0.39619594605E+02  0.12495340222E+03 -0.50867345091E+03  0.55792091256E+03  0.18800000000E+03 0.  0.
<mgrwt>
<rscale>  0 0.46800047E+03</rscale>
<asrwt>0</asrwt>
<pdfrwt beam="1">  1        2 0.12678916E+00 0.46800047E+03</pdfrwt>
<pdfrwt beam="2">  1       -2 0.88136208E-02 0.46800047E+03</pdfrwt>
<totfact> 0.27845968E+03</totfact>
</mgrwt>
</event>
<event>
 4    1  0.5886875E-005  0.6992877E+03  0.7818608E-02  0.9718451E-01
          2   -1    0    0  501    0  0.00000000000E+00  0.00000000000E+00  0.25687877724E+03  0.25687877725E+03  0.25500000000E-02 0.  1.
         -2   -1    0    0    0  501 -0.00000000000E+00 -0.00000000000E+00 -0.47590862280E+03  0.47590862281E+03  0.25500000000E-02 0. -1.
    5000001    1    1    2    0    0  0.20058288072E+03 -0.19559577397E+03 -0.20564633414E+03  0.39512733844E+03  0.18800000000E+03 0.  0.
   -5000001    1    1    2    0    0 -0.20058288072E+03  0.19559577397E+03 -0.13383511419E+02  0.33766006162E+03  0.18800000000E+03 0.  0.
<mgrwt>
<rscale>  0 0.69928771E+03</rscale>
<asrwt>0</asrwt>
<pdfrwt beam="1">  1        2 0.36696968E-01 0.69928771E+03</pdfrwt>
<pdfrwt beam="2">  1       -2 0.67986946E-01 0.69928771E+03</pdfrwt>
<totfact> 0.28356129E+02</totfact>
</mgrwt>
</event>
<event>
 4    1  0.5886875E-005  0.5645254E+03  0.7818608E-02  0.9981867E-01
          2   -1    0    0  501    0  0.00000000000E+00  0.00000000000E+00  0.11203552212E+04  0.11203552212E+04  0.25500000000E-02 0.  1.
         -2   -1    0    0    0  501 -0.00000000000E+00 -0.00000000000E+00 -0.71113364484E+02  0.71113364529E+02  0.25500000000E-02 0. -1.
    5000001    1    1    2    0    0 -0.91557542085E+02  0.18782679071E+03  0.47013140506E+03  0.54774923537E+03  0.18800000000E+03 0.  0.
   -5000001    1    1    2    0    0  0.91557542085E+02 -0.18782679071E+03  0.57911045168E+03  0.64371935039E+03  0.18800000000E+03 0.  0.
<mgrwt>
<rscale>  0 0.56452539E+03</rscale>
<asrwt>0</asrwt>
<pdfrwt beam="1">  1        2 0.16005072E+00 0.56452539E+03</pdfrwt>
<pdfrwt beam="2">  1       -2 0.10159053E-01 0.56452539E+03</pdfrwt>
<totfact> 0.15998525E+03</totfact>
</mgrwt>
</event>
<event>
 4    1  0.5886875E-005  0.7453589E+03  0.7818608E-02  0.9642660E-01
         -2   -1    0    0    0  501 -0.00000000000E+00  0.00000000000E+00  0.10440719414E+03  0.10440719417E+03  0.25500000000E-02 0. -1.
          2   -1    0    0  501    0  0.00000000000E+00 -0.00000000000E+00 -0.13302719392E+04  0.13302719393E+04  0.25500000000E-02 0.  1.
    5000001    1    1    2    0    0  0.22831477936E+01  0.27614755526E+03 -0.29499790424E+03  0.44567976008E+03  0.18800000000E+03 0.  0.
   -5000001    1    1    2    0    0 -0.22831477936E+01 -0.27614755526E+03 -0.93086684087E+03  0.98899937334E+03  0.18800000000E+03 0.  0.
<mgrwt>
<rscale>  0 0.74535887E+03</rscale>
<asrwt>0</asrwt>
<pdfrwt beam="1">  1        2 0.19003884E+00 0.74535887E+03</pdfrwt>
<pdfrwt beam="2">  1       -2 0.14915314E-01 0.74535887E+03</pdfrwt>
<totfact> 0.64346691E+02</totfact>
</mgrwt>
</event>
<event>
 4    1  0.5886875E-005  0.4952539E+03  0.7818608E-02  0.1015025E+00
         -2   -1    0    0    0  501 -0.00000000000E+00  0.00000000000E+00  0.14901482173E+02  0.14901482391E+02  0.25500000000E-02 0. -1.
          2   -1    0    0  501    0  0.00000000000E+00 -0.00000000000E+00 -0.41149662769E+04  0.41149662769E+04  0.25500000000E-02 0.  1.
    5000001    1    1    2    0    0 -0.83393502199E+02 -0.94546369771E+02 -0.28873170087E+04  0.28961762724E+04  0.18800000000E+03 0.  0.
   -5000001    1    1    2    0    0  0.83393502199E+02  0.94546369771E+02 -0.12127477861E+04  0.12336914869E+04  0.18800000000E+03 0.  0.
<mgrwt>
<rscale>  0 0.49525386E+03</rscale>
<asrwt>0</asrwt>
<pdfrwt beam="1">  1        2 0.58785160E+00 0.49525386E+03</pdfrwt>
<pdfrwt beam="2">  1       -2 0.21287858E-02 0.49525386E+03</pdfrwt>
<totfact> 0.40816310E+02</totfact>
</mgrwt>
</event>
<event>
 4    1  0.5886875E-005  0.4557866E+03  0.7818608E-02  0.1026010E+00
          2   -1    0    0  501    0  0.00000000000E+00  0.00000000000E+00  0.30496948234E+02  0.30496948340E+02  0.25500000000E-02 0.  1.
         -2   -1    0    0    0  501 -0.00000000000E+00 -0.00000000000E+00 -0.17029691236E+04  0.17029691236E+04  0.25500000000E-02 0. -1.
    5000001    1    1    2    0    0  0.84625661130E+02 -0.96682416683E+02 -0.80171886145E+03  0.83343033604E+03  0.18800000000E+03 0.  0.
   -5000001    1    1    2    0    0 -0.84625661130E+02  0.96682416683E+02 -0.87075331395E+03  0.90003573594E+03  0.18800000000E+03 0.  0.
<mgrwt>
<rscale>  0 0.45578662E+03</rscale>
<asrwt>0</asrwt>
<pdfrwt beam="1">  1        2 0.43567080E-02 0.45578662E+03</pdfrwt>
<pdfrwt beam="2">  1       -2 0.24328124E+00 0.45578662E+03</pdfrwt>
<totfact> 0.14714657E+02</totfact>
</mgrwt>
</event>
<event>
 4    1  0.5886875E-005  0.4205064E+03  0.7818608E-02  0.1036902E+00
          2   -1    0    0  501    0  0.00000000000E+00  0.00000000000E+00  0.30160481361E+03  0.30160481362E+03  0.25500000000E-02 0.  1.
         -2   -1    0    0    0  501 -0.00000000000E+00 -0.00000000000E+00 -0.14657061034E+03  0.14657061036E+03  0.25500000000E-02 0. -1.
    5000001    1    1    2    0    0 -0.56740088450E+02  0.69539970530E+02  0.10779699412E+03  0.23456222432E+03  0.18800000000E+03 0.  0.
   -5000001    1    1    2    0    0  0.56740088450E+02 -0.69539970530E+02  0.47237209159E+02  0.21361319966E+03  0.18800000000E+03 0.  0.
<mgrwt>
<rscale>  0 0.42050637E+03</rscale>
<asrwt>0</asrwt>
<pdfrwt beam="1">  1        2 0.43086402E-01 0.42050637E+03</pdfrwt>
<pdfrwt beam="2">  1       -2 0.20938659E-01 0.42050637E+03</pdfrwt>
<totfact> 0.23057413E+03</totfact>
</mgrwt>
</event>
<event>
 4    1  0.5886875E-005  0.5383436E+03  0.7818608E-02  0.1004229E+00
         -2   -1    0    0    0  501 -0.00000000000E+00  0.00000000000E+00  0.93955426499E+02  0.93955426533E+02  0.25500000000E-02 0. -1.
          2   -1    0    0  501    0  0.00000000000E+00 -0.00000000000E+00 -0.77114716710E+03  0.77114716710E+03  0.25500000000E-02 0.  1.
    5000001    1    1    2    0    0  0.56012072582E+02  0.92140836072E+02 -0.82072877667E+02  0.23174823235E+03  0.18800000000E+03 0.  0.
   -5000001    1    1    2    0    0 -0.56012072582E+02 -0.92140836072E+02 -0.59511886293E+03  0.63335436129E+03  0.18800000000E+03 0.  0.
<mgrwt>
<rscale>  0 0.53834361E+03</rscale>
<asrwt>0</asrwt>
<pdfrwt beam="1">  1        2 0.11016388E+00 0.53834361E+03</pdfrwt>
<pdfrwt beam="2">  1       -2 0.13422204E-01 0.53834361E+03</pdfrwt>
<totfact> 0.16835853E+03</totfact>
</mgrwt>
</event>
<event>
 4    1  0.5886875E-005  0.6734641E+03  0.7818608E-02  0.9763720E-01
          2   -1    0    0  501    0  0.00000000000E+00  0.00000000000E+00  0.76552078818E+03  0.76552078819E+03  0.25500000000E-02 0.  1.
         -2   -1    0    0    0  501 -0.00000000000E+00 -0.00000000000E+00 -0.14811939927E+03  0.14811939929E+03  0.25500000000E-02 0. -1.
    5000001    1    1    2    0    0  0.14924257234E+03  0.18164514607E+03  0.51343995329E+03  0.59517467194E+03  0.18800000000E+03 0.  0.
   -5000001    1    1    2    0    0 -0.14924257234E+03 -0.18164514607E+03  0.10396143563E+03  0.31846551554E+03  0.18800000000E+03 0.  0.
<mgrwt>
<rscale>  0 0.67346412E+03</rscale>
<asrwt>0</asrwt>
<pdfrwt beam="1">  1        2 0.10936012E+00 0.67346412E+03</pdfrwt>
<pdfrwt beam="2">  1       -2 0.21159914E-01 0.67346412E+03</pdfrwt>
<totfact> 0.77966745E+02</totfact>
</mgrwt>
</event>
<event>
 4    1  0.5886875E-005  0.5598697E+03  0.7818608E-02  0.9992349E-01
         -2   -1    0    0    0  501 -0.00000000000E+00  0.00000000000E+00  0.11514797135E+03  0.11514797138E+03  0.25500000000E-02 0. -1.
          2   -1    0    0  501    0  0.00000000000E+00 -0.00000000000E+00 -0.68054629158E+03  0.68054629159E+03  0.25500000000E-02 0.  1.
    5000001    1    1    2    0    0  0.78387425721E+02  0.95335209830E+02 -0.45794658190E+02  0.22950934940E+03  0.18800000000E+03 0.  0.
   -5000001    1    1    2    0    0 -0.78387425721E+02 -0.95335209830E+02 -0.51960366204E+03  0.56618491357E+03  0.18800000000E+03 0.  0.
<mgrwt>
<rscale>  0 0.55986972E+03</rscale>
<asrwt>0</asrwt>
<pdfrwt beam="1">  1        2 0.97220897E-01 0.55986972E+03</pdfrwt>
<pdfrwt beam="2">  1       -2 0.16449711E-01 0.55986972E+03</pdfrwt>
<totfact> 0.13957723E+03</totfact>
</mgrwt>
</event>
<event>
 4    1  0.5886875E-005  0.4826509E+03  0.7818608E-02  0.1018409E+00
         -2   -1    0    0    0  501 -0.00000000000E+00  0.00000000000E+00  0.16513758579E+04  0.16513758579E+04  0.25500000000E-02 0. -1.
          2   -1    0    0  501    0  0.00000000000E+00 -0.00000000000E+00 -0.35266333724E+02  0.35266333816E+02  0.25500000000E-02 0.  1.
    5000001    1    1    2    0    0  0.60302489366E+02 -0.13839344254E+03  0.77227419728E+03  0.80903681681E+03  0.18800000000E+03 0.  0.
   -5000001    1    1    2    0    0 -0.60302489366E+02  0.13839344254E+03  0.84383532694E+03  0.87760537495E+03  0.18800000000E+03 0.  0.
<mgrwt>
<rscale>  0 0.48265090E+03</rscale>
<asrwt>0</asrwt>
<pdfrwt beam="1">  1        2 0.50380454E-02 0.48265090E+03</pdfrwt>
<pdfrwt beam="2">  1       -2 0.23591094E+00 0.48265090E+03</pdfrwt>
<totfact> 0.13377631E+02</totfact>
</mgrwt>
</event>
<event>
 4    1  0.5886875E-005  0.4698101E+03  0.7818608E-02  0.1021974E+00
         -2   -1    0    0    0  501 -0.00000000000E+00  0.00000000000E+00  0.56669988450E+02  0.56669988507E+02  0.25500000000E-02 0. -1.
          2   -1    0    0  501    0  0.00000000000E+00 -0.00000000000E+00 -0.97371433315E+03  0.97371433315E+03  0.25500000000E-02 0.  1.
    5000001    1    1    2    0    0  0.13567390834E+03  0.33242857235E+02 -0.41905181714E+03  0.48006345665E+03  0.18800000000E+03 0.  0.
   -5000001    1    1    2    0    0 -0.13567390834E+03 -0.33242857235E+02 -0.49799252756E+03  0.55032086501E+03  0.18800000000E+03 0.  0.
<mgrwt>
<rscale>  0 0.46981009E+03</rscale>
<asrwt>0</asrwt>
<pdfrwt beam="1">  1        2 0.13910204E+00 0.46981009E+03</pdfrwt>
<pdfrwt beam="2">  1       -2 0.80957132E-02 0.46981009E+03</pdfrwt>
<totfact> 0.28141631E+03</totfact>
</mgrwt>
</event>
<event>
 4    1  0.5886875E-005  0.9680035E+03  0.7818608E-02  0.9344351E-01
         -2   -1    0    0    0  501 -0.00000000000E+00  0.00000000000E+00  0.15920622023E+03  0.15920622026E+03  0.25500000000E-02 0.  1.
          2   -1    0    0  501    0  0.00000000000E+00 -0.00000000000E+00 -0.14714104961E+04  0.14714104961E+04  0.25500000000E-02 0. -1.
    5000001    1    1    2    0    0  0.46493674061E+02  0.37255121214E+03 -0.10616389527E+04  0.11416555230E+04  0.18800000000E+03 0.  0.
   -5000001    1    1    2    0    0 -0.46493674061E+02 -0.37255121214E+03 -0.25056532316E+03  0.48896119331E+03  0.18800000000E+03 0.  0.
<mgrwt>
<rscale>  0 0.96800352E+03</rscale>
<asrwt>0</asrwt>
<pdfrwt beam="1">  1        2 0.21020149E+00 0.96800352E+03</pdfrwt>
<pdfrwt beam="2">  1       -2 0.22743747E-01 0.96800352E+03</pdfrwt>
<totfact> 0.25693088E+02</totfact>
</mgrwt>
</event>
<event>
 4    1  0.5886875E-005  0.1000929E+04  0.7818608E-02  0.9307527E-01
          2   -1    0    0  501    0  0.00000000000E+00  0.00000000000E+00  0.16502917703E+04  0.16502917703E+04  0.25500000000E-02 0.  1.
         -2   -1    0    0    0  501 -0.00000000000E+00 -0.00000000000E+00 -0.15176981746E+03  0.15176981748E+03  0.25500000000E-02 0. -1.
    5000001    1    1    2    0    0 -0.27204770170E+03 -0.26843258244E+03  0.27615058995E+03  0.50761122096E+03  0.18800000000E+03 0.  0.
   -5000001    1    1    2    0    0  0.27204770170E+03  0.26843258244E+03  0.12223713629E+04  0.12944503668E+04  0.18800000000E+03 0.  0.
<mgrwt>
<rscale>  0 0.10009285E+04</rscale>
<asrwt>0</asrwt>
<pdfrwt beam="1">  1        2 0.23575596E+00 0.10009285E+04</pdfrwt>
<pdfrwt beam="2">  1       -2 0.21681403E-01 0.10009285E+04</pdfrwt>
<totfact> 0.22491610E+02</totfact>
</mgrwt>
</event>
<event>
 4    1  0.5886875E-005  0.5104524E+03  0.7818608E-02  0.1011086E+00
          2   -1    0    0  501    0  0.00000000000E+00  0.00000000000E+00  0.71575017948E+03  0.71575017949E+03  0.25500000000E-02 0.  1.
         -2   -1    0    0    0  501 -0.00000000000E+00 -0.00000000000E+00 -0.91009981801E+02  0.91009981837E+02  0.25500000000E-02 0. -1.
    5000001    1    1    2    0    0 -0.72259484661E+02  0.11610235918E+03  0.14589198038E+03  0.27446249447E+03  0.18800000000E+03 0.  0.
   -5000001    1    1    2    0    0  0.72259484661E+02 -0.11610235918E+03  0.47884821730E+03  0.53229766686E+03  0.18800000000E+03 0.  0.
<mgrwt>
<rscale>  0 0.51045239E+03</rscale>
<asrwt>0</asrwt>
<pdfrwt beam="1">  1        2 0.10225003E+00 0.51045239E+03</pdfrwt>
<pdfrwt beam="2">  1       -2 0.13001426E-01 0.51045239E+03</pdfrwt>
<totfact> 0.19468398E+03</totfact>
</mgrwt>
</event>
<event>
 4    1  0.5886875E-005  0.4889992E+03  0.7818608E-02  0.1016691E+00
          2   -1    0    0  501    0  0.00000000000E+00  0.00000000000E+00  0.19289866645E+04  0.19289866645E+04  0.25500000000E-02 0.  1.
         -2   -1    0    0    0  501 -0.00000000000E+00 -0.00000000000E+00 -0.30990391351E+02  0.30990391455E+02  0.25500000000E-02 0. -1.
    5000001    1    1    2    0    0  0.14083672042E+03  0.29849407884E+02  0.70486054936E+03  0.74357135704E+03  0.18800000000E+03 0.  0.
   -5000001    1    1    2    0    0 -0.14083672042E+03 -0.29849407884E+02  0.11931357237E+04  0.12164056989E+04  0.18800000000E+03 0.  0.
<mgrwt>
<rscale>  0 0.48899919E+03</rscale>
<asrwt>0</asrwt>
<pdfrwt beam="1">  1        2 0.27556952E+00 0.48899919E+03</pdfrwt>
<pdfrwt beam="2">  1       -2 0.44271988E-02 0.48899919E+03</pdfrwt>
<totfact> 0.22357146E+03</totfact>
</mgrwt>
</event>
<event>
 4    1  0.5886875E-005  0.8861982E+03  0.7818608E-02  0.9443001E-01
          2   -1    0    0  501    0  0.00000000000E+00  0.00000000000E+00  0.17576368749E+04  0.17576368749E+04  0.25500000000E-02 0.  1.
         -2   -1    0    0    0  501 -0.00000000000E+00 -0.00000000000E+00 -0.11170499007E+03  0.11170499010E+03  0.25500000000E-02 0. -1.
    5000001    1    1    2    0    0  0.31904822444E+03 -0.17958591868E+03  0.47667848875E+03  0.62976920641E+03  0.18800000000E+03 0.  0.
   -5000001    1    1    2    0    0 -0.31904822444E+03  0.17958591868E+03  0.11692533961E+04  0.12395726586E+04  0.18800000000E+03 0.  0.
<mgrwt>
<rscale>  0 0.88619819E+03</rscale>
<asrwt>0</asrwt>
<pdfrwt beam="1">  1        2 0.25109096E+00 0.88619819E+03</pdfrwt>
<pdfrwt beam="2">  1       -2 0.15957857E-01 0.88619819E+03</pdfrwt>
<totfact> 0.33975119E+02</totfact>
</mgrwt>
</event>
<event>
 4    1  0.5886875E-005  0.9535122E+03  0.7818608E-02  0.9361055E-01
         -2   -1    0    0    0  501 -0.00000000000E+00  0.00000000000E+00  0.15376120123E+03  0.15376120125E+03  0.25500000000E-02 0. -1.
          2   -1    0    0  501    0  0.00000000000E+00 -0.00000000000E+00 -0.14782427429E+04  0.14782427429E+04  0.25500000000E-02 0.  1.
    5000001    1    1    2    0    0  0.35210058126E+03 -0.96046700337E+02 -0.10771073632E+04  0.11526942612E+04  0.18800000000E+03 0.  0.
   -5000001    1    1    2    0    0 -0.35210058126E+03  0.96046700337E+02 -0.24737417844E+03  0.47930968291E+03  0.18800000000E+03 0.  0.
<mgrwt>
<rscale>  0 0.95351220E+03</rscale>
<asrwt>0</asrwt>
<pdfrwt beam="1">  1        2 0.21117753E+00 0.95351220E+03</pdfrwt>
<pdfrwt beam="2">  1       -2 0.21965887E-01 0.95351220E+03</pdfrwt>
<totfact> 0.27130378E+02</totfact>
</mgrwt>
</event>
<event>
 4    1  0.5886875E-005  0.5336987E+03  0.7818608E-02  0.1005339E+00
          2   -1    0    0  501    0  0.00000000000E+00  0.00000000000E+00  0.23779489232E+03  0.23779489233E+03  0.25500000000E-02 0.  1.
         -2   -1    0    0    0  501 -0.00000000000E+00 -0.00000000000E+00 -0.29945381190E+03  0.29945381191E+03  0.25500000000E-02 0. -1.
    5000001    1    1    2    0    0  0.18824191028E+03  0.18102477541E+02 -0.20669233659E+02  0.26745828404E+03  0.18800000000E+03 0.  0.
   -5000001    1    1    2    0    0 -0.18824191028E+03 -0.18102477541E+02 -0.40989685919E+02  0.26979042020E+03  0.18800000000E+03 0.  0.
<mgrwt>
<rscale>  0 0.53369874E+03</rscale>
<asrwt>0</asrwt>
<pdfrwt beam="1">  1        2 0.33970699E-01 0.53369874E+03</pdfrwt>
<pdfrwt beam="2">  1       -2 0.42779116E-01 0.53369874E+03</pdfrwt>
<totfact> 0.80462657E+02</totfact>
</mgrwt>
</event>
<event>
 4    1  0.5886875E-005  0.5592502E+03  0.7818608E-02  0.9993753E-01
          2   -1    0    0  501    0  0.00000000000E+00  0.00000000000E+00  0.48979616260E+03  0.48979616261E+03  0.25500000000E-02 0.  1.
         -2   -1    0    0    0  501 -0.00000000000E+00 -0.00000000000E+00 -0.15963824870E+03  0.15963824872E+03  0.25500000000E-02 0. -1.
    5000001    1    1    2    0    0 -0.19094052119E+03 -0.77498785102E+02  0.18777131804E+03  0.33625349396E+03  0.18800000000E+03 0.  0.
   -5000001    1    1    2    0    0  0.19094052119E+03  0.77498785102E+02  0.14238659586E+03  0.31318091737E+03  0.18800000000E+03 0.  0.
<mgrwt>
<rscale>  0 0.55925022E+03</rscale>
<asrwt>0</asrwt>
<pdfrwt beam="1">  1        2 0.69970880E-01 0.55925022E+03</pdfrwt>
<pdfrwt beam="2">  1       -2 0.22805464E-01 0.55925022E+03</pdfrwt>
<totfact> 0.11632746E+03</totfact>
</mgrwt>
</event>
<event>
 4    1  0.5886875E-005  0.5745730E+03  0.7818608E-02  0.9959610E-01
         -2   -1    0    0    0  501 -0.00000000000E+00  0.00000000000E+00  0.12960694997E+03  0.12960694999E+03  0.25500000000E-02 0. -1.
          2   -1    0    0  501    0  0.00000000000E+00 -0.00000000000E+00 -0.63679874023E+03  0.63679874024E+03  0.25500000000E-02 0.  1.
    5000001    1    1    2    0    0 -0.21240879717E+03  0.37491851668E+02 -0.21916224457E+03  0.36041535136E+03  0.18800000000E+03 0.  0.
   -5000001    1    1    2    0    0  0.21240879717E+03 -0.37491851668E+02 -0.28802954570E+03  0.40599033886E+03  0.18800000000E+03 0.  0.
<mgrwt>
<rscale>  0 0.57457303E+03</rscale>
<asrwt>0</asrwt>
<pdfrwt beam="1">  1        2 0.90971247E-01 0.57457303E+03</pdfrwt>
<pdfrwt beam="2">  1       -2 0.18515279E-01 0.57457303E+03</pdfrwt>
<totfact> 0.12347343E+03</totfact>
</mgrwt>
</event>
<event>
 4    1  0.5886875E-005  0.7904119E+03  0.7818608E-02  0.9574000E-01
         -2   -1    0    0    0  501 -0.00000000000E+00  0.00000000000E+00  0.21652581660E+03  0.21652581661E+03  0.25500000000E-02 0. -1.
          2   -1    0    0  501    0  0.00000000000E+00 -0.00000000000E+00 -0.72133551861E+03  0.72133551862E+03  0.25500000000E-02 0.  1.
    5000001    1    1    2    0    0 -0.26580544803E+03 -0.21768114492E+03 -0.31525990467E+03  0.50276279153E+03  0.18800000000E+03 0.  0.
   -5000001    1    1    2    0    0  0.26580544803E+03  0.21768114492E+03 -0.18954979734E+03  0.43509854370E+03  0.18800000000E+03 0.  0.
<mgrwt>
<rscale>  0 0.79041195E+03</rscale>
<asrwt>0</asrwt>
<pdfrwt beam="1">  1        2 0.10304793E+00 0.79041195E+03</pdfrwt>
<pdfrwt beam="2">  1       -2 0.30932260E-01 0.79041195E+03</pdfrwt>
<totfact> 0.42110774E+02</totfact>
</mgrwt>
</event>
<event>
 4    1  0.5886875E-005  0.5571506E+03  0.7818608E-02  0.9998523E-01
          2   -1    0    0  501    0  0.00000000000E+00  0.00000000000E+00  0.18842338863E+04  0.18842338863E+04  0.25500000000E-02 0.  1.
         -2   -1    0    0    0  501 -0.00000000000E+00 -0.00000000000E+00 -0.41186073804E+02  0.41186073882E+02  0.25500000000E-02 0. -1.
    5000001    1    1    2    0    0 -0.11332498279E+03  0.14152205367E+03  0.12563860633E+04  0.12832462677E+04  0.18800000000E+03 0.  0.
   -5000001    1    1    2    0    0  0.11332498279E+03 -0.14152205367E+03  0.58666174915E+03  0.64217369248E+03  0.18800000000E+03 0.  0.
<mgrwt>
<rscale>  0 0.55715059E+03</rscale>
<asrwt>0</asrwt>
<pdfrwt beam="1">  1        2 0.26917627E+00 0.55715059E+03</pdfrwt>
<pdfrwt beam="2">  1       -2 0.58837249E-02 0.55715059E+03</pdfrwt>
<totfact> 0.15113265E+03</totfact>
</mgrwt>
</event>
<event>
 4    1  0.5886875E-005  0.5616510E+03  0.7818608E-02  0.9988326E-01
         -2   -1    0    0    0  501 -0.00000000000E+00  0.00000000000E+00  0.50603322821E+02  0.50603322885E+02  0.25500000000E-02 0. -1.
          2   -1    0    0  501    0  0.00000000000E+00 -0.00000000000E+00 -0.15584544623E+04  0.15584544623E+04  0.25500000000E-02 0.  1.
    5000001    1    1    2    0    0 -0.18639872405E+03  0.52280955684E+02 -0.53125317696E+03  0.59586216585E+03  0.18800000000E+03 0.  0.
   -5000001    1    1    2    0    0  0.18639872405E+03 -0.52280955684E+02 -0.97659796253E+03  0.10131956194E+04  0.18800000000E+03 0.  0.
<mgrwt>
<rscale>  0 0.56165105E+03</rscale>
<asrwt>0</asrwt>
<pdfrwt beam="1">  1        2 0.22263632E+00 0.56165105E+03</pdfrwt>
<pdfrwt beam="2">  1       -2 0.72290471E-02 0.56165105E+03</pdfrwt>
<totfact> 0.15995551E+03</totfact>
</mgrwt>
</event>
<event>
 4    1  0.5886875E-005  0.5808419E+03  0.7818608E-02  0.9945970E-01
         -2   -1    0    0    0  501 -0.00000000000E+00  0.00000000000E+00  0.26616145334E+03  0.26616145335E+03  0.25500000000E-02 0. -1.
          2   -1    0    0  501    0  0.00000000000E+00 -0.00000000000E+00 -0.31689154898E+03  0.31689154899E+03  0.25500000000E-02 0.  1.
    5000001    1    1    2    0    0  0.17364788287E+03 -0.93226953807E+02  0.75792897162E+02  0.28272498192E+03  0.18800000000E+03 0.  0.
   -5000001    1    1    2    0    0 -0.17364788287E+03  0.93226953807E+02 -0.12652299281E+03  0.30032802042E+03  0.18800000000E+03 0.  0.
<mgrwt>
<rscale>  0 0.58084186E+03</rscale>
<asrwt>0</asrwt>
<pdfrwt beam="1">  1        2 0.45270221E-01 0.58084186E+03</pdfrwt>
<pdfrwt beam="2">  1       -2 0.38023065E-01 0.58084186E+03</pdfrwt>
<totfact> 0.73618714E+02</totfact>
</mgrwt>
</event>
<event>
 4    1  0.5886875E-005  0.5129116E+03  0.7818608E-02  0.1010463E+00
          2   -1    0    0  501    0  0.00000000000E+00  0.00000000000E+00  0.28298007523E+03  0.28298007524E+03  0.25500000000E-02 0.  1.
         -2   -1    0    0    0  501 -0.00000000000E+00 -0.00000000000E+00 -0.23241770319E+03  0.23241770320E+03  0.25500000000E-02 0. -1.
    5000001    1    1    2    0    0  0.94375335053E+02 -0.14590213054E+03  0.40568197072E+02  0.25919859988E+03  0.18800000000E+03 0.  0.
   -5000001    1    1    2    0    0 -0.94375335053E+02  0.14590213054E+03  0.99941749696E+01  0.25619917856E+03  0.18800000000E+03 0.  0.
<mgrwt>
<rscale>  0 0.51291161E+03</rscale>
<asrwt>0</asrwt>
<pdfrwt beam="1">  1        2 0.40425725E-01 0.51291161E+03</pdfrwt>
<pdfrwt beam="2">  1       -2 0.33202529E-01 0.51291161E+03</pdfrwt>
<totfact> 0.10787950E+03</totfact>
</mgrwt>
</event>
<event>
 4    1  0.5886875E-005  0.4447623E+03  0.7818608E-02  0.1029296E+00
          2   -1    0    0  501    0  0.00000000000E+00  0.00000000000E+00  0.50008839235E+03  0.50008839235E+03  0.25500000000E-02 0.  1.
         -2   -1    0    0    0  501 -0.00000000000E+00 -0.00000000000E+00 -0.98889281811E+02  0.98889281844E+02  0.25500000000E-02 0. -1.
    5000001    1    1    2    0    0  0.11400031983E+03  0.26192160983E+02  0.22843760450E+03  0.31813494207E+03  0.18800000000E+03 0.  0.
   -5000001    1    1    2    0    0 -0.11400031983E+03 -0.26192160983E+02  0.17276150604E+03  0.28084273213E+03  0.18800000000E+03 0.  0.
<mgrwt>
<rscale>  0 0.44476233E+03</rscale>
<asrwt>0</asrwt>
<pdfrwt beam="1">  1        2 0.71441198E-01 0.44476233E+03</pdfrwt>
<pdfrwt beam="2">  1       -2 0.14127040E-01 0.44476233E+03</pdfrwt>
<totfact> 0.25780072E+03</totfact>
</mgrwt>
</event>
<event>
 4    1  0.5886875E-005  0.7541668E+03  0.7818608E-02  0.9628836E-01
          2   -1    0    0  501    0  0.00000000000E+00  0.00000000000E+00  0.45614271791E+03  0.45614271791E+03  0.25500000000E-02 0.  1.
         -2   -1    0    0    0  501 -0.00000000000E+00 -0.00000000000E+00 -0.31172673937E+03  0.31172673938E+03  0.25500000000E-02 0. -1.
    5000001    1    1    2    0    0 -0.94157940158E+02 -0.30884955253E+03  0.20350093625E+02  0.37418162716E+03  0.18800000000E+03 0.  0.
   -5000001    1    1    2    0    0  0.94157940158E+02  0.30884955253E+03  0.12406588491E+03  0.39368783013E+03  0.18800000000E+03 0.  0.
<mgrwt>
<rscale>  0 0.75416678E+03</rscale>
<asrwt>0</asrwt>
<pdfrwt beam="1">  1        2 0.65163245E-01 0.75416678E+03</pdfrwt>
<pdfrwt beam="2">  1       -2 0.44532392E-01 0.75416678E+03</pdfrwt>
<totfact> 0.35895776E+02</totfact>
</mgrwt>
</event>
<event>
 4    1  0.5886875E-005  0.1067767E+04  0.7818608E-02  0.9237191E-01
         -2   -1    0    0    0  501 -0.00000000000E+00  0.00000000000E+00  0.14881931721E+03  0.14881931723E+03  0.25500000000E-02 0. -1.
          2   -1    0    0  501    0  0.00000000000E+00 -0.00000000000E+00 -0.19152861384E+04  0.19152861384E+04  0.25500000000E-02 0.  1.
    5000001    1    1    2    0    0 -0.15767562477E+03  0.45156698659E+03 -0.60367925666E+03  0.79280955528E+03  0.18800000000E+03 0.  0.
   -5000001    1    1    2    0    0  0.15767562477E+03 -0.45156698659E+03 -0.11627875645E+04  0.12712959003E+04  0.18800000000E+03 0.  0.
<mgrwt>
<rscale>  0 0.10677670E+04</rscale>
<asrwt>0</asrwt>
<pdfrwt beam="1">  1        2 0.27361229E+00 0.10677670E+04</pdfrwt>
<pdfrwt beam="2">  1       -2 0.21259904E-01 0.10677670E+04</pdfrwt>
<totfact> 0.16938225E+02</totfact>
</mgrwt>
</event>
<event>
 4    1  0.5886875E-005  0.6849837E+03  0.7818608E-02  0.9743262E-01
         -2   -1    0    0    0  501 -0.00000000000E+00  0.00000000000E+00  0.73658286334E+02  0.73658286378E+02  0.25500000000E-02 0. -1.
          2   -1    0    0  501    0  0.00000000000E+00 -0.00000000000E+00 -0.15924981373E+04  0.15924981373E+04  0.25500000000E-02 0.  1.
    5000001    1    1    2    0    0  0.14877906451E+03  0.18521209270E+03 -0.11479802325E+04  0.11872831775E+04  0.18800000000E+03 0.  0.
   -5000001    1    1    2    0    0 -0.14877906451E+03 -0.18521209270E+03 -0.37085961849E+03  0.47887324623E+03  0.18800000000E+03 0.  0.
<mgrwt>
<rscale>  0 0.68498375E+03</rscale>
<asrwt>0</asrwt>
<pdfrwt beam="1">  1        2 0.22749971E+00 0.68498375E+03</pdfrwt>
<pdfrwt beam="2">  1       -2 0.10522613E-01 0.68498375E+03</pdfrwt>
<totfact> 0.83653100E+02</totfact>
</mgrwt>
</event>
<event>
 4    1  0.5886875E-005  0.5833532E+03  0.7818608E-02  0.9940558E-01
         -2   -1    0    0    0  501 -0.00000000000E+00  0.00000000000E+00  0.42080993584E+02  0.42080993661E+02  0.25500000000E-02 0. -1.
          2   -1    0    0  501    0  0.00000000000E+00 -0.00000000000E+00 -0.20217022927E+04  0.20217022927E+04  0.25500000000E-02 0.  1.
    5000001    1    1    2    0    0  0.12636919692E+03  0.16551766983E+03 -0.70754064027E+03  0.76113272863E+03  0.18800000000E+03 0.  0.
   -5000001    1    1    2    0    0 -0.12636919692E+03 -0.16551766983E+03 -0.12720806589E+04  0.13026505578E+04  0.18800000000E+03 0.  0.
<mgrwt>
<rscale>  0 0.58335321E+03</rscale>
<asrwt>0</asrwt>
<pdfrwt beam="1">  1        2 0.28881455E+00 0.58335321E+03</pdfrwt>
<pdfrwt beam="2">  1       -2 0.60115718E-02 0.58335321E+03</pdfrwt>
<totfact> 0.12452271E+03</totfact>
</mgrwt>
</event>
<event>
 4    1  0.5886875E-005  0.7323187E+03  0.7818608E-02  0.9663505E-01
         -2   -1    0    0    0  501 -0.00000000000E+00  0.00000000000E+00  0.76939333523E+02  0.76939333565E+02  0.25500000000E-02 0. -1.
          2   -1    0    0  501    0  0.00000000000E+00 -0.00000000000E+00 -0.17425764863E+04  0.17425764863E+04  0.25500000000E-02 0.  1.
    5000001    1    1    2    0    0 -0.27452444637E+03 -0.13604404402E+03 -0.65966133886E+03  0.75124479070E+03  0.18800000000E+03 0.  0.
   -5000001    1    1    2    0    0  0.27452444637E+03  0.13604404402E+03 -0.10059758139E+04  0.10682710291E+04  0.18800000000E+03 0.  0.
<mgrwt>
<rscale>  0 0.73231871E+03</rscale>
<asrwt>0</asrwt>
<pdfrwt beam="1">  1        2 0.24893947E+00 0.73231871E+03</pdfrwt>
<pdfrwt beam="2">  1       -2 0.10991334E-01 0.73231871E+03</pdfrwt>
<totfact> 0.65078998E+02</totfact>
</mgrwt>
</event>
<event>
 4    1  0.5886875E-005  0.6121677E+03  0.7818608E-02  0.9880479E-01
          2   -1    0    0  501    0  0.00000000000E+00  0.00000000000E+00  0.99358794459E+02  0.99358794491E+02  0.25500000000E-02 0.  1.
         -2   -1    0    0    0  501 -0.00000000000E+00 -0.00000000000E+00 -0.94291917252E+03  0.94291917252E+03  0.25500000000E-02 0. -1.
    5000001    1    1    2    0    0 -0.18326530654E+02 -0.84184908503E+02 -0.80598152348E+03  0.83208964465E+03  0.18800000000E+03 0.  0.
   -5000001    1    1    2    0    0  0.18326530654E+02  0.84184908503E+02 -0.37578854580E+02  0.21018832236E+03  0.18800000000E+03 0.  0.
<mgrwt>
<rscale>  0 0.61216766E+03</rscale>
<asrwt>0</asrwt>
<pdfrwt beam="1">  1        2 0.14194114E-01 0.61216766E+03</pdfrwt>
<pdfrwt beam="2">  1       -2 0.13470273E+00 0.61216766E+03</pdfrwt>
<totfact> 0.17262973E+02</totfact>
</mgrwt>
</event>
<event>
 4    1  0.5886875E-005  0.4750948E+03  0.7818608E-02  0.1020492E+00
         -2   -1    0    0    0  501 -0.00000000000E+00  0.00000000000E+00  0.64899393076E+02  0.64899393126E+02  0.25500000000E-02 0. -1.
          2   -1    0    0  501    0  0.00000000000E+00 -0.00000000000E+00 -0.86948084342E+03  0.86948084343E+03  0.25500000000E-02 0.  1.
    5000001    1    1    2    0    0 -0.41719833433E+02 -0.11874267056E+03 -0.25986391316E+03  0.34454842863E+03  0.18800000000E+03 0.  0.
   -5000001    1    1    2    0    0  0.41719833433E+02  0.11874267056E+03 -0.54471753719E+03  0.58983180792E+03  0.18800000000E+03 0.  0.
<mgrwt>
<rscale>  0 0.47509485E+03</rscale>
<asrwt>0</asrwt>
<pdfrwt beam="1">  1        2 0.12421154E+00 0.47509485E+03</pdfrwt>
<pdfrwt beam="2">  1       -2 0.92713424E-02 0.47509485E+03</pdfrwt>
<totfact> 0.26383839E+03</totfact>
</mgrwt>
</event>
<event>
 4    1  0.5886875E-005  0.4224171E+03  0.7818608E-02  0.1036282E+00
         -2   -1    0    0    0  501 -0.00000000000E+00  0.00000000000E+00  0.47714174785E+02  0.47714174853E+02  0.25500000000E-02 0. -1.
          2   -1    0    0  501    0  0.00000000000E+00 -0.00000000000E+00 -0.93492253143E+03  0.93492253144E+03  0.25500000000E-02 0.  1.
    5000001    1    1    2    0    0  0.79604064271E+02 -0.39472651313E+02 -0.35749745050E+03  0.41357384390E+03  0.18800000000E+03 0.  0.
   -5000001    1    1    2    0    0 -0.79604064271E+02  0.39472651313E+02 -0.52971090615E+03  0.56906286239E+03  0.18800000000E+03 0.  0.
<mgrwt>
<rscale>  0 0.42241713E+03</rscale>
<asrwt>0</asrwt>
<pdfrwt beam="1">  1        2 0.13356035E+00 0.42241713E+03</pdfrwt>
<pdfrwt beam="2">  1       -2 0.68163113E-02 0.42241713E+03</pdfrwt>
<totfact> 0.38963333E+03</totfact>
</mgrwt>
</event>
<event>
 4    1  0.5886875E-005  0.4124610E+03  0.7818608E-02  0.1039548E+00
         -2   -1    0    0    0  501 -0.00000000000E+00  0.00000000000E+00  0.58149795967E+02  0.58149796023E+02  0.25500000000E-02 0. -1.
          2   -1    0    0  501    0  0.00000000000E+00 -0.00000000000E+00 -0.73140449820E+03  0.73140449821E+03  0.25500000000E-02 0.  1.
    5000001    1    1    2    0    0  0.71866386790E+02 -0.33445710721E+02 -0.27908412155E+03  0.34570990731E+03  0.18800000000E+03 0.  0.
   -5000001    1    1    2    0    0 -0.71866386790E+02  0.33445710721E+02 -0.39417058069E+03  0.44384438692E+03  0.18800000000E+03 0.  0.
<mgrwt>
<rscale>  0 0.41246102E+03</rscale>
<asrwt>0</asrwt>
<pdfrwt beam="1">  1        2 0.10448635E+00 0.41246102E+03</pdfrwt>
<pdfrwt beam="2">  1       -2 0.83071142E-02 0.41246102E+03</pdfrwt>
<totfact> 0.39047157E+03</totfact>
</mgrwt>
</event>
<event>
 4    1  0.5886875E-005  0.4558925E+03  0.7818608E-02  0.1025979E+00
         -2   -1    0    0    0  501 -0.00000000000E+00  0.00000000000E+00  0.49110126297E+02  0.49110126364E+02  0.25500000000E-02 0. -1.
          2   -1    0    0  501    0  0.00000000000E+00 -0.00000000000E+00 -0.10580197314E+04  0.10580197315E+04  0.25500000000E-02 0.  1.
    5000001    1    1    2    0    0 -0.83612296834E+02 -0.32986809439E+00 -0.26621076763E+03  0.33645697763E+03  0.18800000000E+03 0.  0.
   -5000001    1    1    2    0    0  0.83612296834E+02  0.32986809439E+00 -0.74269883752E+03  0.77067288019E+03  0.18800000000E+03 0.  0.
<mgrwt>
<rscale>  0 0.45589246E+03</rscale>
<asrwt>0</asrwt>
<pdfrwt beam="1">  1        2 0.15114566E+00 0.45589246E+03</pdfrwt>
<pdfrwt beam="2">  1       -2 0.70157330E-02 0.45589246E+03</pdfrwt>
<totfact> 0.31400746E+03</totfact>
</mgrwt>
</event>
<event>
 4    1  0.5886875E-005  0.7747677E+03  0.7818608E-02  0.9597275E-01
         -2   -1    0    0    0  501 -0.00000000000E+00  0.00000000000E+00  0.75085894018E+02  0.75085894061E+02  0.25500000000E-02 0. -1.
          2   -1    0    0  501    0  0.00000000000E+00 -0.00000000000E+00 -0.19985943680E+04  0.19985943680E+04  0.25500000000E-02 0.  1.
    5000001    1    1    2    0    0 -0.25855972228E+03 -0.19473775409E+03 -0.12286867961E+04  0.12844419667E+04  0.18800000000E+03 0.  0.
   -5000001    1    1    2    0    0  0.25855972228E+03  0.19473775409E+03 -0.69482167788E+03  0.78923829539E+03  0.18800000000E+03 0.  0.
<mgrwt>
<rscale>  0 0.77476769E+03</rscale>
<asrwt>0</asrwt>
<pdfrwt beam="1">  1        2 0.28551345E+00 0.77476769E+03</pdfrwt>
<pdfrwt beam="2">  1       -2 0.10726558E-01 0.77476769E+03</pdfrwt>
<totfact> 0.50088397E+02</totfact>
</mgrwt>
</event>
<event>
 4    1  0.5886875E-005  0.4490462E+03  0.7818608E-02  0.1028007E+00
          2   -1    0    0  501    0  0.00000000000E+00  0.00000000000E+00  0.24488175987E+04  0.24488175987E+04  0.25500000000E-02 0.  1.
         -2   -1    0    0    0  501 -0.00000000000E+00 -0.00000000000E+00 -0.20585698652E+02  0.20585698810E+02  0.25500000000E-02 0. -1.
    5000001    1    1    2    0    0  0.85882670418E+02 -0.31902495790E+02  0.76489274266E+03  0.79296816461E+03  0.18800000000E+03 0.  0.
   -5000001    1    1    2    0    0 -0.85882670418E+02  0.31902495790E+02  0.16633391574E+04  0.16764351329E+04  0.18800000000E+03 0.  0.
<mgrwt>
<rscale>  0 0.44904620E+03</rscale>
<asrwt>0</asrwt>
<pdfrwt beam="1">  1        2 0.34983097E+00 0.44904620E+03</pdfrwt>
<pdfrwt beam="2">  1       -2 0.29408150E-02 0.44904620E+03</pdfrwt>
<totfact> 0.22931233E+03</totfact>
</mgrwt>
</event>
<event>
 4    1  0.5886875E-005  0.6088246E+03  0.7818608E-02  0.9887265E-01
          2   -1    0    0  501    0  0.00000000000E+00  0.00000000000E+00  0.91504428660E+03  0.91504428660E+03  0.25500000000E-02 0.  1.
         -2   -1    0    0    0  501 -0.00000000000E+00 -0.00000000000E+00 -0.10127035120E+03  0.10127035123E+03  0.25500000000E-02 0. -1.
    5000001    1    1    2    0    0 -0.20772094053E+03  0.11801705502E+03  0.38066016268E+03  0.48715723731E+03  0.18800000000E+03 0.  0.
   -5000001    1    1    2    0    0  0.20772094053E+03 -0.11801705502E+03  0.43311377272E+03  0.52915740052E+03  0.18800000000E+03 0.  0.
<mgrwt>
<rscale>  0 0.60882463E+03</rscale>
<asrwt>0</asrwt>
<pdfrwt beam="1">  1        2 0.13072062E+00 0.60882463E+03</pdfrwt>
<pdfrwt beam="2">  1       -2 0.14467192E-01 0.60882463E+03</pdfrwt>
<totfact> 0.11882714E+03</totfact>
</mgrwt>
</event>
<event>
 4    1  0.5886875E-005  0.5342603E+03  0.7818608E-02  0.1005204E+00
         -2   -1    0    0    0  501 -0.00000000000E+00  0.00000000000E+00  0.44498779708E+03  0.44498779708E+03  0.25500000000E-02 0. -1.
          2   -1    0    0  501    0  0.00000000000E+00 -0.00000000000E+00 -0.16036059702E+03  0.16036059704E+03  0.25500000000E-02 0.  1.
    5000001    1    1    2    0    0  0.16894848047E+02 -0.17566993334E+03  0.22137763581E+03  0.33984911211E+03  0.18800000000E+03 0.  0.
   -5000001    1    1    2    0    0 -0.16894848047E+02  0.17566993334E+03  0.63249564251E+02  0.26549928201E+03  0.18800000000E+03 0.  0.
<mgrwt>
<rscale>  0 0.53426027E+03</rscale>
<asrwt>0</asrwt>
<pdfrwt beam="1">  1        2 0.22908657E-01 0.53426027E+03</pdfrwt>
<pdfrwt beam="2">  1       -2 0.63569685E-01 0.53426027E+03</pdfrwt>
<totfact> 0.55946001E+02</totfact>
</mgrwt>
</event>
<event>
 4    1  0.5886875E-005  0.6379583E+03  0.7818608E-02  0.9829641E-01
          2   -1    0    0  501    0  0.00000000000E+00  0.00000000000E+00  0.21731066201E+04  0.21731066201E+04  0.25500000000E-02 0. -1.
         -2   -1    0    0    0  501 -0.00000000000E+00 -0.00000000000E+00 -0.46821309005E+02  0.46821309075E+02  0.25500000000E-02 0.  1.
    5000001    1    1    2    0    0 -0.12815156002E+03  0.19475730912E+03  0.14451295706E+04  0.14758376292E+04  0.18800000000E+03 0.  0.
   -5000001    1    1    2    0    0  0.12815156002E+03 -0.19475730912E+03  0.68115574053E+03  0.74409030006E+03  0.18800000000E+03 0.  0.
<mgrwt>
<rscale>  0 0.63795830E+03</rscale>
<asrwt>0</asrwt>
<pdfrwt beam="1">  1        2 0.31044378E+00 0.63795830E+03</pdfrwt>
<pdfrwt beam="2">  1       -2 0.66887589E-02 0.63795830E+03</pdfrwt>
<totfact> 0.88079657E+02</totfact>
</mgrwt>
</event>
<event>
 4    1  0.5886875E-005  0.5695070E+03  0.7818608E-02  0.9970770E-01
         -2   -1    0    0    0  501 -0.00000000000E+00  0.00000000000E+00  0.43775518479E+02  0.43775518554E+02  0.25500000000E-02 0. -1.
          2   -1    0    0  501    0  0.00000000000E+00 -0.00000000000E+00 -0.18522811266E+04  0.18522811266E+04  0.25500000000E-02 0.  1.
    5000001    1    1    2    0    0  0.18819875350E+03  0.72764401342E+02 -0.11403074803E+04  0.11731830968E+04  0.18800000000E+03 0.  0.
   -5000001    1    1    2    0    0 -0.18819875350E+03 -0.72764401342E+02 -0.66819812775E+03  0.72287354832E+03  0.18800000000E+03 0.  0.
<mgrwt>
<rscale>  0 0.56950704E+03</rscale>
<asrwt>0</asrwt>
<pdfrwt beam="1">  1        2 0.26461154E+00 0.56950704E+03</pdfrwt>
<pdfrwt beam="2">  1       -2 0.62536467E-02 0.56950704E+03</pdfrwt>
<totfact> 0.14247243E+03</totfact>
</mgrwt>
</event>
<event>
 4    1  0.5886875E-005  0.4043410E+03  0.7818608E-02  0.1042287E+00
          2   -1    0    0  501    0  0.00000000000E+00  0.00000000000E+00  0.45472561711E+02  0.45472561782E+02  0.25500000000E-02 0.  1.
         -2   -1    0    0    0  501 -0.00000000000E+00 -0.00000000000E+00 -0.89884779062E+03  0.89884779062E+03  0.25500000000E-02 0. -1.
    5000001    1    1    2    0    0 -0.54645175501E+02  0.43884854728E+02 -0.48469611193E+03  0.52458202085E+03  0.18800000000E+03 0.  0.
   -5000001    1    1    2    0    0  0.54645175501E+02 -0.43884854728E+02 -0.36867911698E+03  0.41973833156E+03  0.18800000000E+03 0.  0.
<mgrwt>
<rscale>  0 0.40434100E+03</rscale>
<asrwt>0</asrwt>
<pdfrwt beam="1">  1        2 0.64960808E-02 0.40434100E+03</pdfrwt>
<pdfrwt beam="2">  1       -2 0.12840682E+00 0.40434100E+03</pdfrwt>
<totfact> 0.52660556E+02</totfact>
</mgrwt>
</event>
<event>
 4    1  0.5886875E-005  0.5363055E+03  0.7818608E-02  0.1004714E+00
          2   -1    0    0  501    0  0.00000000000E+00  0.00000000000E+00  0.21514582776E+04  0.21514582776E+04  0.25500000000E-02 0.  1.
         -2   -1    0    0    0  501 -0.00000000000E+00 -0.00000000000E+00 -0.33421929479E+02  0.33421929576E+02  0.25500000000E-02 0. -1.
    5000001    1    1    2    0    0 -0.74678172325E+02  0.17174883020E+03  0.12161372219E+04  0.12447522776E+04  0.18800000000E+03 0.  0.
   -5000001    1    1    2    0    0  0.74678172325E+02 -0.17174883020E+03  0.90189912623E+03  0.94012792959E+03  0.18800000000E+03 0.  0.
<mgrwt>
<rscale>  0 0.53630546E+03</rscale>
<asrwt>0</asrwt>
<pdfrwt beam="1">  1        2 0.30735118E+00 0.53630546E+03</pdfrwt>
<pdfrwt beam="2">  1       -2 0.47745614E-02 0.53630546E+03</pdfrwt>
<totfact> 0.15375633E+03</totfact>
</mgrwt>
</event>
<event>
 4    1  0.5886875E-005  0.5929479E+03  0.7818608E-02  0.9920146E-01
         -2   -1    0    0    0  501 -0.00000000000E+00  0.00000000000E+00  0.13833867765E+04  0.13833867765E+04  0.25500000000E-02 0. -1.
          2   -1    0    0  501    0  0.00000000000E+00 -0.00000000000E+00 -0.63537393551E+02  0.63537393602E+02  0.25500000000E-02 0.  1.
    5000001    1    1    2    0    0  0.22251320970E+03  0.48892175601E+02  0.59770063075E+03  0.66670279535E+03  0.18800000000E+03 0.  0.
   -5000001    1    1    2    0    0 -0.22251320970E+03 -0.48892175601E+02  0.72214875222E+03  0.78022137478E+03  0.18800000000E+03 0.  0.
<mgrwt>
<rscale>  0 0.59294786E+03</rscale>
<asrwt>0</asrwt>
<pdfrwt beam="1">  1        2 0.90767706E-02 0.59294786E+03</pdfrwt>
<pdfrwt beam="2">  1       -2 0.19762668E+00 0.59294786E+03</pdfrwt>
<totfact> 0.10635981E+02</totfact>
</mgrwt>
</event>
<event>
 4    1  0.5886875E-005  0.6063339E+03  0.7818608E-02  0.9892352E-01
         -2   -1    0    0    0  501 -0.00000000000E+00  0.00000000000E+00  0.42978986908E+02  0.42978986984E+02  0.25500000000E-02 0. -1.
          2   -1    0    0  501    0  0.00000000000E+00 -0.00000000000E+00 -0.21384914627E+04  0.21384914627E+04  0.25500000000E-02 0.  1.
    5000001    1    1    2    0    0  0.36377889643E+02 -0.19654154539E+03 -0.15114999996E+04  0.15362057735E+04  0.18800000000E+03 0.  0.
   -5000001    1    1    2    0    0 -0.36377889643E+02  0.19654154539E+03 -0.58401247624E+03  0.64526467618E+03  0.18800000000E+03 0.  0.
<mgrwt>
<rscale>  0 0.60633389E+03</rscale>
<asrwt>0</asrwt>
<pdfrwt beam="1">  1        2 0.30549871E+00 0.60633389E+03</pdfrwt>
<pdfrwt beam="2">  1       -2 0.61398566E-02 0.60633389E+03</pdfrwt>
<totfact> 0.10511387E+03</totfact>
</mgrwt>
</event>
<event>
 4    1  0.5886875E-005  0.8609135E+03  0.7818608E-02  0.9475805E-01
          2   -1    0    0  501    0  0.00000000000E+00  0.00000000000E+00  0.91811438620E+03  0.91811438621E+03  0.25500000000E-02 0.  1.
         -2   -1    0    0    0  501 -0.00000000000E+00 -0.00000000000E+00 -0.20181909015E+03  0.20181909016E+03  0.25500000000E-02 0. -1.
    5000001    1    1    2    0    0 -0.39031182616E+02 -0.35496771412E+03  0.55294560666E+03  0.68455705037E+03  0.18800000000E+03 0.  0.
   -5000001    1    1    2    0    0  0.39031182616E+02  0.35496771412E+03  0.16334968939E+03  0.43537642600E+03  0.18800000000E+03 0.  0.
<mgrwt>
<rscale>  0 0.86091349E+03</rscale>
<asrwt>0</asrwt>
<pdfrwt beam="1">  1        2 0.13115920E+00 0.86091349E+03</pdfrwt>
<pdfrwt beam="2">  1       -2 0.28831298E-01 0.86091349E+03</pdfrwt>
<totfact> 0.34965758E+02</totfact>
</mgrwt>
</event>
<event>
 4    1  0.5886875E-005  0.8713034E+03  0.7818608E-02  0.9462182E-01
         -2   -1    0    0    0  501 -0.00000000000E+00  0.00000000000E+00  0.13598278924E+03  0.13598278927E+03  0.25500000000E-02 0. -1.
          2   -1    0    0  501    0  0.00000000000E+00 -0.00000000000E+00 -0.13957090275E+04  0.13957090275E+04  0.25500000000E-02 0.  1.
    5000001    1    1    2    0    0 -0.34919919897E+03  0.20044345314E+02 -0.31487164270E+03  0.50678398526E+03  0.18800000000E+03 0.  0.
   -5000001    1    1    2    0    0  0.34919919897E+03 -0.20044345314E+02 -0.94485459552E+03  0.10249078315E+04  0.18800000000E+03 0.  0.
<mgrwt>
<rscale>  0 0.87130341E+03</rscale>
<asrwt>0</asrwt>
<pdfrwt beam="1">  1        2 0.19938700E+00 0.87130341E+03</pdfrwt>
<pdfrwt beam="2">  1       -2 0.19426114E-01 0.87130341E+03</pdfrwt>
<totfact> 0.37453695E+02</totfact>
</mgrwt>
</event>
<event>
 4    1  0.5886875E-005  0.4327281E+03  0.7818608E-02  0.1033002E+00
          2   -1    0    0  501    0  0.00000000000E+00  0.00000000000E+00  0.55623049748E+03  0.55623049748E+03  0.25500000000E-02 0.  1.
         -2   -1    0    0    0  501 -0.00000000000E+00 -0.00000000000E+00 -0.84161887051E+02  0.84161887090E+02  0.25500000000E-02 0. -1.
    5000001    1    1    2    0    0  0.69027321782E+02  0.62253131498E+02  0.15731854592E+03  0.26217045681E+03  0.18800000000E+03 0.  0.
   -5000001    1    1    2    0    0 -0.69027321782E+02 -0.62253131498E+02  0.31475006451E+03  0.37822192776E+03  0.18800000000E+03 0.  0.
<mgrwt>
<rscale>  0 0.43272813E+03</rscale>
<asrwt>0</asrwt>
<pdfrwt beam="1">  1        2 0.79461500E-01 0.43272813E+03</pdfrwt>
<pdfrwt beam="2">  1       -2 0.12023127E-01 0.43272813E+03</pdfrwt>
<totfact> 0.29788562E+03</totfact>
</mgrwt>
</event>
<event>
 4    1  0.5886875E-005  0.4527296E+03  0.7818608E-02  0.1026911E+00
         -2   -1    0    0    0  501 -0.00000000000E+00  0.00000000000E+00  0.53310588168E+02  0.53310588229E+02  0.25500000000E-02 0. -1.
          2   -1    0    0  501    0  0.00000000000E+00 -0.00000000000E+00 -0.96117893282E+03  0.96117893282E+03  0.25500000000E-02 0.  1.
    5000001    1    1    2    0    0  0.34159676448E+02  0.12130899637E+03 -0.44547280085E+03  0.49967266524E+03  0.18800000000E+03 0.  0.
   -5000001    1    1    2    0    0 -0.34159676448E+02 -0.12130899637E+03 -0.46239554381E+03  0.51481685581E+03  0.18800000000E+03 0.  0.
<mgrwt>
<rscale>  0 0.45272956E+03</rscale>
<asrwt>0</asrwt>
<pdfrwt beam="1">  1        2 0.13731127E+00 0.45272956E+03</pdfrwt>
<pdfrwt beam="2">  1       -2 0.76157989E-02 0.45272956E+03</pdfrwt>
<totfact> 0.31546860E+03</totfact>
</mgrwt>
</event>
<event>
 4    1  0.5886875E-005  0.1059431E+04  0.7818608E-02  0.9245661E-01
         -2   -1    0    0    0  501 -0.00000000000E+00  0.00000000000E+00  0.17849939818E+03  0.17849939820E+03  0.25500000000E-02 0. -1.
          2   -1    0    0  501    0  0.00000000000E+00 -0.00000000000E+00 -0.15719845302E+04  0.15719845302E+04  0.25500000000E-02 0.  1.
    5000001    1    1    2    0    0 -0.23324583951E+03 -0.42042232571E+03 -0.50057394236E+03  0.71908054164E+03  0.18800000000E+03 0.  0.
   -5000001    1    1    2    0    0  0.23324583951E+03  0.42042232571E+03 -0.89291118965E+03  0.10314033868E+04  0.18800000000E+03 0.  0.
<mgrwt>
<rscale>  0 0.10594306E+04</rscale>
<asrwt>0</asrwt>
<pdfrwt beam="1">  1        2 0.22456921E+00 0.10594306E+04</pdfrwt>
<pdfrwt beam="2">  1       -2 0.25499915E-01 0.10594306E+04</pdfrwt>
<totfact> 0.18403838E+02</totfact>
</mgrwt>
</event>
<event>
 4    1  0.5886875E-005  0.5543974E+03  0.7818608E-02  0.1000481E+00
          2   -1    0    0  501    0  0.00000000000E+00  0.00000000000E+00  0.86928018112E+03  0.86928018113E+03  0.25500000000E-02 0.  1.
         -2   -1    0    0    0  501 -0.00000000000E+00 -0.00000000000E+00 -0.88393954040E+02  0.88393954077E+02  0.25500000000E-02 0. -1.
    5000001    1    1    2    0    0 -0.16024919359E+03  0.12480202026E+03  0.36369527693E+03  0.45702691690E+03  0.18800000000E+03 0.  0.
   -5000001    1    1    2    0    0  0.16024919359E+03 -0.12480202026E+03  0.41719095015E+03  0.50064721830E+03  0.18800000000E+03 0.  0.
<mgrwt>
<rscale>  0 0.55439738E+03</rscale>
<asrwt>0</asrwt>
<pdfrwt beam="1">  1        2 0.12418289E+00 0.55439738E+03</pdfrwt>
<pdfrwt beam="2">  1       -2 0.12627707E-01 0.55439738E+03</pdfrwt>
<totfact> 0.15967322E+03</totfact>
</mgrwt>
</event>
<event>
 4    1  0.5886875E-005  0.1273581E+04  0.7818608E-02  0.9050782E-01
          2   -1    0    0  501    0  0.00000000000E+00  0.00000000000E+00  0.18622013142E+04  0.18622013142E+04  0.25500000000E-02 0.  1.
         -2   -1    0    0    0  501 -0.00000000000E+00 -0.00000000000E+00 -0.21775408272E+03  0.21775408273E+03  0.25500000000E-02 0. -1.
    5000001    1    1    2    0    0  0.59557961607E+03 -0.84252229224E+02  0.67303843545E+03  0.92202942079E+03  0.18800000000E+03 0.  0.
   -5000001    1    1    2    0    0 -0.59557961607E+03  0.84252229224E+02  0.97140879601E+03  0.11579259761E+04  0.18800000000E+03 0.  0.
<mgrwt>
<rscale>  0 0.12735807E+04</rscale>
<asrwt>0</asrwt>
<pdfrwt beam="1">  1        2 0.26602877E+00 0.12735807E+04</pdfrwt>
<pdfrwt beam="2">  1       -2 0.31107725E-01 0.12735807E+04</pdfrwt>
<totfact> 0.88918819E+01</totfact>
</mgrwt>
</event>
<event>
 4    1  0.5886875E-005  0.4654284E+03  0.7818608E-02  0.1023218E+00
          2   -1    0    0  501    0  0.00000000000E+00  0.00000000000E+00  0.59675026086E+02  0.59675026140E+02  0.25500000000E-02 0.  1.
         -2   -1    0    0    0  501 -0.00000000000E+00 -0.00000000000E+00 -0.90751362395E+03  0.90751362396E+03  0.25500000000E-02 0. -1.
    5000001    1    1    2    0    0 -0.66046604908E+01  0.13673467029E+03 -0.44154091514E+03  0.49904145253E+03  0.18800000000E+03 0.  0.
   -5000001    1    1    2    0    0  0.66046604908E+01 -0.13673467029E+03 -0.40629768272E+03  0.46814719756E+03  0.18800000000E+03 0.  0.
<mgrwt>
<rscale>  0 0.46542840E+03</rscale>
<asrwt>0</asrwt>
<pdfrwt beam="1">  1        2 0.85250043E-02 0.46542840E+03</pdfrwt>
<pdfrwt beam="2">  1       -2 0.12964479E+00 0.46542840E+03</pdfrwt>
<totfact> 0.36131826E+02</totfact>
</mgrwt>
</event>
<event>
 4    1  0.5886875E-005  0.6725742E+03  0.7818608E-02  0.9765319E-01
          2   -1    0    0  501    0  0.00000000000E+00  0.00000000000E+00  0.11093404355E+04  0.11093404355E+04  0.25500000000E-02 0.  1.
         -2   -1    0    0    0  501 -0.00000000000E+00 -0.00000000000E+00 -0.10194255923E+03  0.10194255926E+03  0.25500000000E-02 0. -1.
    5000001    1    1    2    0    0  0.13391279626E+03 -0.24386944849E+03  0.47048793158E+03  0.57802062132E+03  0.18800000000E+03 0.  0.
   -5000001    1    1    2    0    0 -0.13391279626E+03  0.24386944849E+03  0.53690994467E+03  0.63326237342E+03  0.18800000000E+03 0.  0.
<mgrwt>
<rscale>  0 0.67257417E+03</rscale>
<asrwt>0</asrwt>
<pdfrwt beam="1">  1        2 0.15847720E+00 0.67257417E+03</pdfrwt>
<pdfrwt beam="2">  1       -2 0.14563223E-01 0.67257417E+03</pdfrwt>
<totfact> 0.89364188E+02</totfact>
</mgrwt>
</event>
<event>
 4    1  0.5886875E-005  0.6061864E+03  0.7818608E-02  0.9892654E-01
          2   -1    0    0  501    0  0.00000000000E+00  0.00000000000E+00  0.10795260941E+03  0.10795260944E+03  0.25500000000E-02 0.  1.
         -2   -1    0    0    0  501 -0.00000000000E+00 -0.00000000000E+00 -0.85097970699E+03  0.85097970699E+03  0.25500000000E-02 0. -1.
    5000001    1    1    2    0    0 -0.18836706662E+03  0.12578273223E+03 -0.25724277406E+03  0.39092364002E+03  0.18800000000E+03 0.  0.
   -5000001    1    1    2    0    0  0.18836706662E+03 -0.12578273223E+03 -0.48578432351E+03  0.56800867642E+03  0.18800000000E+03 0.  0.
<mgrwt>
<rscale>  0 0.60618637E+03</rscale>
<asrwt>0</asrwt>
<pdfrwt beam="1">  1        2 0.15421802E-01 0.60618637E+03</pdfrwt>
<pdfrwt beam="2">  1       -2 0.12156853E+00 0.60618637E+03</pdfrwt>
<totfact> 0.20194438E+02</totfact>
</mgrwt>
</event>
<event>
 4    1  0.5886875E-005  0.1121458E+04  0.7818608E-02  0.9184527E-01
         -2   -1    0    0    0  501 -0.00000000000E+00  0.00000000000E+00  0.49311327912E+03  0.49311327913E+03  0.25500000000E-02 0. -1.
          2   -1    0    0  501    0  0.00000000000E+00 -0.00000000000E+00 -0.63761562453E+03  0.63761562454E+03  0.25500000000E-02 0.  1.
    5000001    1    1    2    0    0 -0.33658184666E+02  0.52339232425E+03 -0.84800968600E+01  0.55721477953E+03  0.18800000000E+03 0.  0.
   -5000001    1    1    2    0    0  0.33658184666E+02 -0.52339232425E+03 -0.13602224855E+03  0.57351412414E+03  0.18800000000E+03 0.  0.
<mgrwt>
<rscale>  0 0.11214575E+04</rscale>
<asrwt>0</asrwt>
<pdfrwt beam="1">  1        2 0.91087946E-01 0.11214575E+04</pdfrwt>
<pdfrwt beam="2">  1       -2 0.70444754E-01 0.11214575E+04</pdfrwt>
<totfact> 0.91811244E+01</totfact>
</mgrwt>
</event>
<event>
 4    1  0.5886875E-005  0.4458395E+03  0.7818608E-02  0.1028970E+00
         -2   -1    0    0    0  501 -0.00000000000E+00  0.00000000000E+00  0.77515964232E+02  0.77515964274E+02  0.25500000000E-02 0. -1.
          2   -1    0    0  501    0  0.00000000000E+00 -0.00000000000E+00 -0.64107059836E+03  0.64107059837E+03  0.25500000000E-02 0.  1.
    5000001    1    1    2    0    0  0.14550931696E+02 -0.11772716372E+03 -0.25491400264E+03  0.33822561026E+03  0.18800000000E+03 0.  0.
   -5000001    1    1    2    0    0 -0.14550931696E+02  0.11772716372E+03 -0.30864063149E+03  0.38036095239E+03  0.18800000000E+03 0.  0.
<mgrwt>
<rscale>  0 0.44583946E+03</rscale>
<asrwt>0</asrwt>
<pdfrwt beam="1">  1        2 0.91581511E-01 0.44583946E+03</pdfrwt>
<pdfrwt beam="2">  1       -2 0.11073710E-01 0.44583946E+03</pdfrwt>
<totfact> 0.28885729E+03</totfact>
</mgrwt>
</event>
<event>
 4    1  0.5886875E-005  0.5862933E+03  0.7818608E-02  0.9934258E-01
          2   -1    0    0  501    0  0.00000000000E+00  0.00000000000E+00  0.16700529472E+04  0.16700529472E+04  0.25500000000E-02 0.  1.
         -2   -1    0    0    0  501 -0.00000000000E+00 -0.00000000000E+00 -0.51456430492E+02  0.51456430555E+02  0.25500000000E-02 0. -1.
    5000001    1    1    2    0    0  0.15242799458E+03 -0.14245528094E+03  0.56252729381E+03  0.62873584030E+03  0.18800000000E+03 0.  0.
   -5000001    1    1    2    0    0 -0.15242799458E+03  0.14245528094E+03  0.10560692229E+04  0.10927735374E+04  0.18800000000E+03 0.  0.
<mgrwt>
<rscale>  0 0.58629332E+03</rscale>
<asrwt>0</asrwt>
<pdfrwt beam="1">  1        2 0.23857901E+00 0.58629332E+03</pdfrwt>
<pdfrwt beam="2">  1       -2 0.73509180E-02 0.58629332E+03</pdfrwt>
<totfact> 0.13643857E+03</totfact>
</mgrwt>
</event>
<event>
 4    1  0.5886875E-005  0.5303972E+03  0.7818608E-02  0.1006136E+00
          2   -1    0    0  501    0  0.00000000000E+00  0.00000000000E+00  0.22457311198E+04  0.22457311198E+04  0.25500000000E-02 0.  1.
         -2   -1    0    0    0  501 -0.00000000000E+00 -0.00000000000E+00 -0.31317331421E+02  0.31317331525E+02  0.25500000000E-02 0. -1.
    5000001    1    1    2    0    0 -0.12126160828E+03 -0.12614515713E+03  0.13909846341E+04  0.14144961049E+04  0.18800000000E+03 0.  0.
   -5000001    1    1    2    0    0  0.12126160828E+03  0.12614515713E+03  0.82342915425E+03  0.86255234645E+03  0.18800000000E+03 0.  0.
<mgrwt>
<rscale>  0 0.53039723E+03</rscale>
<asrwt>0</asrwt>
<pdfrwt beam="1">  1        2 0.32081868E+00 0.53039723E+03</pdfrwt>
<pdfrwt beam="2">  1       -2 0.44739052E-02 0.53039723E+03</pdfrwt>
<totfact> 0.15248252E+03</totfact>
</mgrwt>
</event>
<event>
 4    1  0.5886875E-005  0.4156278E+03  0.7818608E-02  0.1038499E+00
         -2   -1    0    0    0  501 -0.00000000000E+00  0.00000000000E+00  0.34146864952E+03  0.34146864953E+03  0.25500000000E-02 0. -1.
          2   -1    0    0  501    0  0.00000000000E+00 -0.00000000000E+00 -0.12647313634E+03  0.12647313636E+03  0.25500000000E-02 0.  1.
    5000001    1    1    2    0    0  0.85532457922E+02 -0.21056921439E+02  0.11778055607E+03  0.23869531769E+03  0.18800000000E+03 0.  0.
   -5000001    1    1    2    0    0 -0.85532457922E+02  0.21056921439E+02  0.97214957117E+02  0.22924646821E+03  0.18800000000E+03 0.  0.
<mgrwt>
<rscale>  0 0.41562777E+03</rscale>
<asrwt>0</asrwt>
<pdfrwt beam="1">  1        2 0.18067591E-01 0.41562777E+03</pdfrwt>
<pdfrwt beam="2">  1       -2 0.48781235E-01 0.41562777E+03</pdfrwt>
<totfact> 0.12719629E+03</totfact>
</mgrwt>
</event>
<event>
 4    1  0.5886875E-005  0.7000678E+03  0.7818608E-02  0.9717116E-01
          2   -1    0    0  501    0  0.00000000000E+00  0.00000000000E+00  0.52022269847E+03  0.52022269847E+03  0.25500000000E-02 0.  1.
         -2   -1    0    0    0  501 -0.00000000000E+00 -0.00000000000E+00 -0.23552171277E+03  0.23552171278E+03  0.25500000000E-02 0. -1.
    5000001    1    1    2    0    0 -0.25888680593E+03  0.13448022608E+03  0.19149499211E+03  0.39638572312E+03  0.18800000000E+03 0.  0.
   -5000001    1    1    2    0    0  0.25888680593E+03 -0.13448022608E+03  0.93205993588E+02  0.35935868813E+03  0.18800000000E+03 0.  0.
<mgrwt>
<rscale>  0 0.70006783E+03</rscale>
<asrwt>0</asrwt>
<pdfrwt beam="1">  1        2 0.74317529E-01 0.70006783E+03</pdfrwt>
<pdfrwt beam="2">  1       -2 0.33645959E-01 0.70006783E+03</pdfrwt>
<totfact> 0.53253126E+02</totfact>
</mgrwt>
</event>
<event>
 4    1  0.5886875E-005  0.4567153E+03  0.7818608E-02  0.1025738E+00
         -2   -1    0    0    0  501 -0.00000000000E+00  0.00000000000E+00  0.33886154595E+02  0.33886154691E+02  0.25500000000E-02 0. -1.
          2   -1    0    0  501    0  0.00000000000E+00 -0.00000000000E+00 -0.15388944138E+04  0.15388944138E+04  0.25500000000E-02 0.  1.
    5000001    1    1    2    0    0 -0.78055270772E+02  0.88075067285E+02 -0.93965058666E+03  0.96547245833E+03  0.18800000000E+03 0.  0.
   -5000001    1    1    2    0    0  0.78055270772E+02 -0.88075067285E+02 -0.56535767257E+03  0.60730811020E+03  0.18800000000E+03 0.  0.
<mgrwt>
<rscale>  0 0.45671529E+03</rscale>
<asrwt>0</asrwt>
<pdfrwt beam="1">  1        2 0.21984202E+00 0.45671529E+03</pdfrwt>
<pdfrwt beam="2">  1       -2 0.48408802E-02 0.45671529E+03</pdfrwt>
<totfact> 0.30665909E+03</totfact>
</mgrwt>
</event>
<event>
 4    1  0.5886875E-005  0.1172810E+04  0.7818608E-02  0.9136994E-01
          2   -1    0    0  501    0  0.00000000000E+00  0.00000000000E+00  0.24715488799E+04  0.24715488800E+04  0.25500000000E-02 0.  1.
         -2   -1    0    0    0  501 -0.00000000000E+00 -0.00000000000E+00 -0.13913178747E+03  0.13913178749E+03  0.25500000000E-02 0. -1.
    5000001    1    1    2    0    0  0.12905178575E+03  0.24862354222E+03  0.22338995225E+04  0.22592297594E+04  0.18800000000E+03 0.  0.
   -5000001    1    1    2    0    0 -0.12905178575E+03 -0.24862354222E+03  0.98517569946E+02  0.35145090801E+03  0.18800000000E+03 0.  0.
<mgrwt>
<rscale>  0 0.11728103E+04</rscale>
<asrwt>0</asrwt>
<pdfrwt beam="1">  1        2 0.35307836E+00 0.11728103E+04</pdfrwt>
<pdfrwt beam="2">  1       -2 0.19875973E-01 0.11728103E+04</pdfrwt>
<totfact> 0.97945102E+01</totfact>
</mgrwt>
</event>
<event>
 4    1  0.5886875E-005  0.9370204E+03  0.7818608E-02  0.9380452E-01
         -2   -1    0    0    0  501 -0.00000000000E+00  0.00000000000E+00  0.12383530898E+04  0.12383530898E+04  0.25500000000E-02 0. -1.
          2   -1    0    0  501    0  0.00000000000E+00 -0.00000000000E+00 -0.17725300905E+03  0.17725300906E+03  0.25500000000E-02 0.  1.
    5000001    1    1    2    0    0 -0.36740662703E+03 -0.17163284667E+03  0.31843935283E+03  0.54881060947E+03  0.18800000000E+03 0.  0.
   -5000001    1    1    2    0    0  0.36740662703E+03  0.17163284667E+03  0.74266072795E+03  0.86679548942E+03  0.18800000000E+03 0.  0.
<mgrwt>
<rscale>  0 0.93702041E+03</rscale>
<asrwt>0</asrwt>
<pdfrwt beam="1">  1        2 0.25321858E-01 0.93702041E+03</pdfrwt>
<pdfrwt beam="2">  1       -2 0.17690759E+00 0.93702041E+03</pdfrwt>
<totfact> 0.41274985E+01</totfact>
</mgrwt>
</event>
<event>
 4    1  0.5886875E-005  0.4572378E+03  0.7818608E-02  0.1025585E+00
          2   -1    0    0  501    0  0.00000000000E+00  0.00000000000E+00  0.20762626946E+03  0.20762626947E+03  0.25500000000E-02 0.  1.
         -2   -1    0    0    0  501 -0.00000000000E+00 -0.00000000000E+00 -0.25173400977E+03  0.25173400978E+03  0.25500000000E-02 0. -1.
    5000001    1    1    2    0    0 -0.71149208473E+02 -0.90294501873E+02  0.39116261641E+02  0.22380658806E+03  0.18800000000E+03 0.  0.
   -5000001    1    1    2    0    0  0.71149208473E+02  0.90294501873E+02 -0.83224001950E+02  0.23555369119E+03  0.18800000000E+03 0.  0.
<mgrwt>
<rscale>  0 0.45723776E+03</rscale>
<asrwt>0</asrwt>
<pdfrwt beam="1">  1        2 0.29660896E-01 0.45723776E+03</pdfrwt>
<pdfrwt beam="2">  1       -2 0.35962001E-01 0.45723776E+03</pdfrwt>
<totfact> 0.13072667E+03</totfact>
</mgrwt>
</event>
<event>
 4    1  0.5886875E-005  0.1164039E+04  0.7818608E-02  0.9144929E-01
          2   -1    0    0  501    0  0.00000000000E+00  0.00000000000E+00  0.14520700313E+04  0.14520700313E+04  0.25500000000E-02 0.  1.
         -2   -1    0    0    0  501 -0.00000000000E+00 -0.00000000000E+00 -0.23328526787E+03  0.23328526788E+03  0.25500000000E-02 0. -1.
    5000001    1    1    2    0    0  0.43856277918E+03  0.32806829824E+03  0.69426694964E+03  0.90405570456E+03  0.18800000000E+03 0.  0.
   -5000001    1    1    2    0    0 -0.43856277918E+03 -0.32806829824E+03  0.52451781384E+03  0.78129959467E+03  0.18800000000E+03 0.  0.
<mgrwt>
<rscale>  0 0.11640387E+04</rscale>
<asrwt>0</asrwt>
<pdfrwt beam="1">  1        2 0.20743857E+00 0.11640387E+04</pdfrwt>
<pdfrwt beam="2">  1       -2 0.33326468E-01 0.11640387E+04</pdfrwt>
<totfact> 0.12885212E+02</totfact>
</mgrwt>
</event>
<event>
 4    1  0.5886875E-005  0.5395266E+03  0.7818608E-02  0.1003948E+00
         -2   -1    0    0    0  501 -0.00000000000E+00  0.00000000000E+00  0.22702134098E+02  0.22702134241E+02  0.25500000000E-02 0. -1.
          2   -1    0    0  501    0  0.00000000000E+00 -0.00000000000E+00 -0.32055245814E+04  0.32055245814E+04  0.25500000000E-02 0.  1.
    5000001    1    1    2    0    0  0.83522015643E+02  0.17441842419E+03 -0.15583474432E+04  0.15815146118E+04  0.18800000000E+03 0.  0.
   -5000001    1    1    2    0    0 -0.83522015643E+02 -0.17441842419E+03 -0.16244750042E+04  0.16467121039E+04  0.18800000000E+03 0.  0.
<mgrwt>
<rscale>  0 0.53952664E+03</rscale>
<asrwt>0</asrwt>
<pdfrwt beam="1">  1        2 0.45793180E+00 0.53952664E+03</pdfrwt>
<pdfrwt beam="2">  1       -2 0.32431641E-02 0.53952664E+03</pdfrwt>
<totfact> 0.77984445E+02</totfact>
</mgrwt>
</event>
<event>
 4    1  0.5886875E-005  0.6006099E+03  0.7818608E-02  0.9904141E-01
          2   -1    0    0  501    0  0.00000000000E+00  0.00000000000E+00  0.18777569328E+03  0.18777569330E+03  0.25500000000E-02 0.  1.
         -2   -1    0    0    0  501 -0.00000000000E+00 -0.00000000000E+00 -0.48027018093E+03  0.48027018093E+03  0.25500000000E-02 0. -1.
    5000001    1    1    2    0    0  0.12739874473E+03  0.13124738402E+03  0.16399575009E+02  0.26281031569E+03  0.18800000000E+03 0.  0.
   -5000001    1    1    2    0    0 -0.12739874473E+03 -0.13124738402E+03 -0.30889406265E+03  0.40523555855E+03  0.18800000000E+03 0.  0.
<mgrwt>
<rscale>  0 0.60060991E+03</rscale>
<asrwt>0</asrwt>
<pdfrwt beam="1">  1        2 0.26825099E-01 0.60060991E+03</pdfrwt>
<pdfrwt beam="2">  1       -2 0.68610025E-01 0.60060991E+03</pdfrwt>
<totfact> 0.39625127E+02</totfact>
</mgrwt>
</event>
<event>
 4    1  0.5886875E-005  0.4759371E+03  0.7818608E-02  0.1020258E+00
         -2   -1    0    0    0  501 -0.00000000000E+00  0.00000000000E+00  0.12657446796E+03  0.12657446799E+03  0.25500000000E-02 0. -1.
          2   -1    0    0  501    0  0.00000000000E+00 -0.00000000000E+00 -0.44739702756E+03  0.44739702757E+03  0.25500000000E-02 0.  1.
    5000001    1    1    2    0    0  0.61099535856E+02  0.13151087859E+03 -0.17973622059E+03  0.29778746358E+03  0.18800000000E+03 0.  0.
   -5000001    1    1    2    0    0 -0.61099535856E+02 -0.13151087859E+03 -0.14108633901E+03  0.27618403199E+03  0.18800000000E+03 0.  0.
<mgrwt>
<rscale>  0 0.47593714E+03</rscale>
<asrwt>0</asrwt>
<pdfrwt beam="1">  1        2 0.63913861E-01 0.47593714E+03</pdfrwt>
<pdfrwt beam="2">  1       -2 0.18082067E-01 0.47593714E+03</pdfrwt>
<totfact> 0.19276980E+03</totfact>
</mgrwt>
</event>
<event>
 4    1  0.5886875E-005  0.5922413E+03  0.7818608E-02  0.9921635E-01
          2   -1    0    0  501    0  0.00000000000E+00  0.00000000000E+00  0.12679833182E+04  0.12679833182E+04  0.25500000000E-02 0.  1.
         -2   -1    0    0    0  501 -0.00000000000E+00 -0.00000000000E+00 -0.69155042131E+02  0.69155042178E+02  0.25500000000E-02 0. -1.
    5000001    1    1    2    0    0 -0.20728716841E+03  0.96666822601E+02  0.58684447074E+03  0.65729968631E+03  0.18800000000E+03 0.  0.
   -5000001    1    1    2    0    0  0.20728716841E+03 -0.96666822601E+02  0.61198380528E+03  0.67983867403E+03  0.18800000000E+03 0.  0.
<mgrwt>
<rscale>  0 0.59224130E+03</rscale>
<asrwt>0</asrwt>
<pdfrwt beam="1">  1        2 0.18114047E+00 0.59224130E+03</pdfrwt>
<pdfrwt beam="2">  1       -2 0.98792919E-02 0.59224130E+03</pdfrwt>
<totfact> 0.13822911E+03</totfact>
</mgrwt>
</event>
<event>
 4    1  0.5886875E-005  0.6246787E+03  0.7818608E-02  0.9855488E-01
         -2   -1    0    0    0  501 -0.00000000000E+00  0.00000000000E+00  0.49998807493E+02  0.49998807558E+02  0.25500000000E-02 0. -1.
          2   -1    0    0  501    0  0.00000000000E+00 -0.00000000000E+00 -0.19511639538E+04  0.19511639538E+04  0.25500000000E-02 0.  1.
    5000001    1    1    2    0    0  0.22841737151E+03 -0.83735548178E+02 -0.77436831844E+03  0.83317250929E+03  0.18800000000E+03 0.  0.
   -5000001    1    1    2    0    0 -0.22841737151E+03  0.83735548178E+02 -0.11267968278E+04  0.11679902521E+04  0.18800000000E+03 0.  0.
<mgrwt>
<rscale>  0 0.62467870E+03</rscale>
<asrwt>0</asrwt>
<pdfrwt beam="1">  1        2 0.27873766E+00 0.62467870E+03</pdfrwt>
<pdfrwt beam="2">  1       -2 0.71426880E-02 0.62467870E+03</pdfrwt>
<totfact> 0.10276323E+03</totfact>
</mgrwt>
</event>
<event>
 4    1  0.5886875E-005  0.6218356E+03  0.7818608E-02  0.9861112E-01
         -2   -1    0    0    0  501 -0.00000000000E+00  0.00000000000E+00  0.77064389744E+02  0.77064389786E+02  0.25500000000E-02 0. -1.
          2   -1    0    0  501    0  0.00000000000E+00 -0.00000000000E+00 -0.12544038723E+04  0.12544038723E+04  0.25500000000E-02 0.  1.
    5000001    1    1    2    0    0 -0.16812066364E+03  0.17504955837E+03 -0.48335966754E+03  0.57261459433E+03  0.18800000000E+03 0.  0.
   -5000001    1    1    2    0    0  0.16812066364E+03 -0.17504955837E+03 -0.69397981501E+03  0.75885366776E+03  0.18800000000E+03 0.  0.
<mgrwt>
<rscale>  0 0.62183557E+03</rscale>
<asrwt>0</asrwt>
<pdfrwt beam="1">  1        2 0.17920054E+00 0.62183557E+03</pdfrwt>
<pdfrwt beam="2">  1       -2 0.11009199E-01 0.62183557E+03</pdfrwt>
<totfact> 0.11780980E+03</totfact>
</mgrwt>
</event>
<event>
 4    1  0.5886875E-005  0.5398584E+03  0.7818608E-02  0.1003869E+00
         -2   -1    0    0    0  501 -0.00000000000E+00  0.00000000000E+00  0.47639483513E+03  0.47639483514E+03  0.25500000000E-02 0. -1.
          2   -1    0    0  501    0  0.00000000000E+00 -0.00000000000E+00 -0.15294410443E+03  0.15294410445E+03  0.25500000000E-02 0.  1.
    5000001    1    1    2    0    0  0.17173070604E+03 -0.97425773025E+01  0.57905511138E+02  0.26131092865E+03  0.18800000000E+03 0.  0.
   -5000001    1    1    2    0    0 -0.17173070604E+03  0.97425773025E+01  0.26554521956E+03  0.36802801095E+03  0.18800000000E+03 0.  0.
<mgrwt>
<rscale>  0 0.53985843E+03</rscale>
<asrwt>0</asrwt>
<pdfrwt beam="1">  1        2 0.21849158E-01 0.53985843E+03</pdfrwt>
<pdfrwt beam="2">  1       -2 0.68056405E-01 0.53985843E+03</pdfrwt>
<totfact> 0.51059933E+02</totfact>
</mgrwt>
</event>
<event>
 4    1  0.5886875E-005  0.4853339E+03  0.7818608E-02  0.1017679E+00
          2   -1    0    0  501    0  0.00000000000E+00  0.00000000000E+00  0.10651174159E+04  0.10651174159E+04  0.25500000000E-02 0.  1.
         -2   -1    0    0    0  501 -0.00000000000E+00 -0.00000000000E+00 -0.55287094679E+02  0.55287094737E+02  0.25500000000E-02 0. -1.
    5000001    1    1    2    0    0 -0.14193503445E+03  0.57885296392E+02  0.52073922521E+03  0.57446462225E+03  0.18800000000E+03 0.  0.
   -5000001    1    1    2    0    0  0.14193503445E+03 -0.57885296392E+02  0.48909109602E+03  0.54593988840E+03  0.18800000000E+03 0.  0.
<mgrwt>
<rscale>  0 0.48533390E+03</rscale>
<asrwt>0</asrwt>
<pdfrwt beam="1">  1        2 0.15215962E+00 0.48533390E+03</pdfrwt>
<pdfrwt beam="2">  1       -2 0.78981570E-02 0.48533390E+03</pdfrwt>
<totfact> 0.25803505E+03</totfact>
</mgrwt>
</event>
<event>
 4    1  0.5886875E-005  0.1265427E+04  0.7818608E-02  0.9057440E-01
         -2   -1    0    0    0  501 -0.00000000000E+00  0.00000000000E+00  0.13604821694E+03  0.13604821697E+03  0.25500000000E-02 0. -1.
          2   -1    0    0  501    0  0.00000000000E+00 -0.00000000000E+00 -0.29425323342E+04  0.29425323342E+04  0.25500000000E-02 0.  1.
    5000001    1    1    2    0    0  0.55008759893E+03  0.22178753097E+03 -0.16827138344E+04  0.17940612932E+04  0.18800000000E+03 0.  0.
   -5000001    1    1    2    0    0 -0.55008759893E+03 -0.22178753097E+03 -0.11237702829E+04  0.12845192580E+04  0.18800000000E+03 0.  0.
<mgrwt>
<rscale>  0 0.12654268E+04</rscale>
<asrwt>0</asrwt>
<pdfrwt beam="1">  1        2 0.42036172E+00 0.12654268E+04</pdfrwt>
<pdfrwt beam="2">  1       -2 0.19435461E-01 0.12654268E+04</pdfrwt>
<totfact> 0.56597474E+01</totfact>
</mgrwt>
</event>
<event>
 4    1  0.5886875E-005  0.8927630E+03  0.7818608E-02  0.9434673E-01
         -2   -1    0    0    0  501 -0.00000000000E+00  0.00000000000E+00  0.27118992404E+03  0.27118992406E+03  0.25500000000E-02 0.  1.
          2   -1    0    0  501    0  0.00000000000E+00 -0.00000000000E+00 -0.73474877812E+03  0.73474877813E+03  0.25500000000E-02 0. -1.
    5000001    1    1    2    0    0 -0.29754670015E+02 -0.24430503364E+03  0.13044197780E+03  0.33604969785E+03  0.18800000000E+03 0.  0.
   -5000001    1    1    2    0    0  0.29754670015E+02  0.24430503364E+03 -0.59400083188E+03  0.66988900434E+03  0.18800000000E+03 0.  0.
<mgrwt>
<rscale>  0 0.89276305E+03</rscale>
<asrwt>0</asrwt>
<pdfrwt beam="1">  1        2 0.10496411E+00 0.89276305E+03</pdfrwt>
<pdfrwt beam="2">  1       -2 0.38741418E-01 0.89276305E+03</pdfrwt>
<totfact> 0.26711433E+02</totfact>
</mgrwt>
</event>
<event>
 4    1  0.5886875E-005  0.4894988E+03  0.7818608E-02  0.1016557E+00
          2   -1    0    0  501    0  0.00000000000E+00  0.00000000000E+00  0.40782865194E+03  0.40782865195E+03  0.25500000000E-02 0.  1.
         -2   -1    0    0    0  501 -0.00000000000E+00 -0.00000000000E+00 -0.14688095559E+03  0.14688095561E+03  0.25500000000E-02 0. -1.
    5000001    1    1    2    0    0 -0.68602448632E+02 -0.13639078793E+03  0.17053150449E+03  0.29619881332E+03  0.18800000000E+03 0.  0.
   -5000001    1    1    2    0    0  0.68602448632E+02  0.13639078793E+03  0.90416191866E+02  0.25851079424E+03  0.18800000000E+03 0.  0.
<mgrwt>
<rscale>  0 0.48949877E+03</rscale>
<asrwt>0</asrwt>
<pdfrwt beam="1">  1        2 0.58261237E-01 0.48949877E+03</pdfrwt>
<pdfrwt beam="2">  1       -2 0.20982993E-01 0.48949877E+03</pdfrwt>
<totfact> 0.16522917E+03</totfact>
</mgrwt>
</event>
<event>
 4    1  0.5886875E-005  0.5675831E+03  0.7818608E-02  0.9975041E-01
          2   -1    0    0  501    0  0.00000000000E+00  0.00000000000E+00  0.37273574503E+04  0.37273574503E+04  0.25500000000E-02 0.  1.
         -2   -1    0    0    0  501 -0.00000000000E+00 -0.00000000000E+00 -0.21607165946E+02  0.21607166096E+02  0.25500000000E-02 0. -1.
    5000001    1    1    2    0    0 -0.90959303672E+02 -0.19111672851E+03  0.19840553204E+04  0.20041503720E+04  0.18800000000E+03 0.  0.
   -5000001    1    1    2    0    0  0.90959303672E+02  0.19111672851E+03  0.17216949639E+04  0.17448142445E+04  0.18800000000E+03 0.  0.
<mgrwt>
<rscale>  0 0.56758306E+03</rscale>
<asrwt>0</asrwt>
<pdfrwt beam="1">  1        2 0.53248040E+00 0.56758306E+03</pdfrwt>
<pdfrwt beam="2">  1       -2 0.30867336E-02 0.56758306E+03</pdfrwt>
<totfact> 0.41266916E+02</totfact>
</mgrwt>
</event>
<event>
 4    1  0.5886875E-005  0.4398715E+03  0.7818608E-02  0.1030786E+00
          2   -1    0    0  501    0  0.00000000000E+00  0.00000000000E+00  0.20123629089E+04  0.20123629089E+04  0.25500000000E-02 0.  1.
         -2   -1    0    0    0  501 -0.00000000000E+00 -0.00000000000E+00 -0.24037280284E+02  0.24037280419E+02  0.25500000000E-02 0. -1.
    5000001    1    1    2    0    0 -0.83354252429E+02  0.73147445389E+02  0.11191817816E+04  0.11402676617E+04  0.18800000000E+03 0.  0.
   -5000001    1    1    2    0    0  0.83354252429E+02 -0.73147445389E+02  0.86914384700E+03  0.89613252756E+03  0.18800000000E+03 0.  0.
<mgrwt>
<rscale>  0 0.43987149E+03</rscale>
<asrwt>0</asrwt>
<pdfrwt beam="1">  1        2 0.28748045E+00 0.43987149E+03</pdfrwt>
<pdfrwt beam="2">  1       -2 0.34338968E-02 0.43987149E+03</pdfrwt>
<totfact> 0.29987812E+03</totfact>
</mgrwt>
</event>
<event>
 4    1  0.5886875E-005  0.5824710E+03  0.7818608E-02  0.9942456E-01
         -2   -1    0    0    0  501 -0.00000000000E+00  0.00000000000E+00  0.85823869124E+02  0.85823869162E+02  0.25500000000E-02 0. -1.
          2   -1    0    0  501    0  0.00000000000E+00 -0.00000000000E+00 -0.98828131810E+03  0.98828131811E+03  0.25500000000E-02 0.  1.
    5000001    1    1    2    0    0  0.13858337205E+03 -0.14488008912E+03 -0.62885703806E+03  0.68629495521E+03  0.18800000000E+03 0.  0.
   -5000001    1    1    2    0    0 -0.13858337205E+03  0.14488008912E+03 -0.27360041092E+03  0.38781023206E+03  0.18800000000E+03 0.  0.
<mgrwt>
<rscale>  0 0.58247103E+03</rscale>
<asrwt>0</asrwt>
<pdfrwt beam="1">  1        2 0.14118304E+00 0.58247103E+03</pdfrwt>
<pdfrwt beam="2">  1       -2 0.12260553E-01 0.58247103E+03</pdfrwt>
<totfact> 0.14087086E+03</totfact>
</mgrwt>
</event>
<event>
 4    1  0.5886875E-005  0.6626388E+03  0.7818608E-02  0.9783348E-01
          2   -1    0    0  501    0  0.00000000000E+00  0.00000000000E+00  0.32071245281E+04  0.32071245281E+04  0.25500000000E-02 0.  1.
         -2   -1    0    0    0  501 -0.00000000000E+00 -0.00000000000E+00 -0.34227718975E+02  0.34227719070E+02  0.25500000000E-02 0. -1.
    5000001    1    1    2    0    0 -0.11119255306E+02 -0.23598774829E+03  0.22538348590E+04  0.22739677717E+04  0.18800000000E+03 0.  0.
   -5000001    1    1    2    0    0  0.11119255306E+02  0.23598774829E+03  0.91906195020E+03  0.96738447552E+03  0.18800000000E+03 0.  0.
<mgrwt>
<rscale>  0 0.66263884E+03</rscale>
<asrwt>0</asrwt>
<pdfrwt beam="1">  1        2 0.45816075E+00 0.66263884E+03</pdfrwt>
<pdfrwt beam="2">  1       -2 0.48896730E-02 0.66263884E+03</pdfrwt>
<totfact> 0.40888378E+02</totfact>
</mgrwt>
</event>
<event>
 4    1  0.5886875E-005  0.4595778E+03  0.7818608E-02  0.1024904E+00
          2   -1    0    0  501    0  0.00000000000E+00  0.00000000000E+00  0.17894830763E+04  0.17894830763E+04  0.25500000000E-02 0.  1.
         -2   -1    0    0    0  501 -0.00000000000E+00 -0.00000000000E+00 -0.29507369453E+02  0.29507369563E+02  0.25500000000E-02 0. -1.
    5000001    1    1    2    0    0 -0.10593295482E+03 -0.73992694617E+02  0.77071456952E+03  0.80376716619E+03  0.18800000000E+03 0.  0.
   -5000001    1    1    2    0    0  0.10593295482E+03  0.73992694617E+02  0.98926113735E+03  0.10152232797E+04  0.18800000000E+03 0.  0.
<mgrwt>
<rscale>  0 0.45957780E+03</rscale>
<asrwt>0</asrwt>
<pdfrwt beam="1">  1        2 0.25564056E+00 0.45957780E+03</pdfrwt>
<pdfrwt beam="2">  1       -2 0.42153365E-02 0.45957780E+03</pdfrwt>
<totfact> 0.28321947E+03</totfact>
</mgrwt>
</event>
<event>
 4    1  0.5886875E-005  0.1074867E+04  0.7818608E-02  0.9230040E-01
         -2   -1    0    0    0  501 -0.00000000000E+00  0.00000000000E+00  0.61407655807E+03  0.61407655808E+03  0.25500000000E-02 0. -1.
          2   -1    0    0  501    0  0.00000000000E+00 -0.00000000000E+00 -0.47035670487E+03  0.47035670487E+03  0.25500000000E-02 0.  1.
    5000001    1    1    2    0    0  0.13889205888E+03 -0.37726003059E+03  0.37766615440E+03  0.58274510627E+03  0.18800000000E+03 0.  0.
   -5000001    1    1    2    0    0 -0.13889205888E+03  0.37726003059E+03 -0.23394630120E+03  0.50168815668E+03  0.18800000000E+03 0.  0.
<mgrwt>
<rscale>  0 0.10748675E+04</rscale>
<asrwt>0</asrwt>
<pdfrwt beam="1">  1        2 0.67193815E-01 0.10748675E+04</pdfrwt>
<pdfrwt beam="2">  1       -2 0.87725223E-01 0.10748675E+04</pdfrwt>
<totfact> 0.80348637E+01</totfact>
</mgrwt>
</event>
<event>
 4    1  0.5886875E-005  0.5648390E+03  0.7818608E-02  0.9981165E-01
         -2   -1    0    0    0  501 -0.00000000000E+00  0.00000000000E+00  0.95080032241E+02  0.95080032275E+02  0.25500000000E-02 0. -1.
          2   -1    0    0  501    0  0.00000000000E+00 -0.00000000000E+00 -0.83888040853E+03  0.83888040853E+03  0.25500000000E-02 0.  1.
    5000001    1    1    2    0    0 -0.16250171914E+03  0.12441212862E+03 -0.28870456644E+03  0.40072373670E+03  0.18800000000E+03 0.  0.
   -5000001    1    1    2    0    0  0.16250171914E+03 -0.12441212862E+03 -0.45509580985E+03  0.53323670411E+03  0.18800000000E+03 0.  0.
<mgrwt>
<rscale>  0 0.56483901E+03</rscale>
<asrwt>0</asrwt>
<pdfrwt beam="1">  1        2 0.11984005E+00 0.56483901E+03</pdfrwt>
<pdfrwt beam="2">  1       -2 0.13582862E-01 0.56483901E+03</pdfrwt>
<totfact> 0.14821253E+03</totfact>
</mgrwt>
</event>
<event>
 4    1  0.5886875E-005  0.4447601E+03  0.7818608E-02  0.1029296E+00
         -2   -1    0    0    0  501 -0.00000000000E+00  0.00000000000E+00  0.32065323939E+03  0.32065323940E+03  0.25500000000E-02 0. -1.
          2   -1    0    0  501    0  0.00000000000E+00 -0.00000000000E+00 -0.15422547053E+03  0.15422547055E+03  0.25500000000E-02 0.  1.
    5000001    1    1    2    0    0 -0.25401191038E+02 -0.11590351028E+03  0.89067138058E+02  0.23949070814E+03  0.18800000000E+03 0.  0.
   -5000001    1    1    2    0    0  0.25401191038E+02  0.11590351028E+03  0.77360630805E+02  0.23538800182E+03  0.18800000000E+03 0.  0.
<mgrwt>
<rscale>  0 0.44476015E+03</rscale>
<asrwt>0</asrwt>
<pdfrwt beam="1">  1        2 0.22032210E-01 0.44476015E+03</pdfrwt>
<pdfrwt beam="2">  1       -2 0.45807606E-01 0.44476015E+03</pdfrwt>
<totfact> 0.11455813E+03</totfact>
</mgrwt>
</event>
<event>
 4    1  0.5886875E-005  0.7394740E+03  0.7818608E-02  0.9652010E-01
          2   -1    0    0  501    0  0.00000000000E+00  0.00000000000E+00  0.44766411392E+04  0.44766411392E+04  0.25500000000E-02 0.  1.
         -2   -1    0    0    0  501 -0.00000000000E+00 -0.00000000000E+00 -0.30537504572E+02  0.30537504678E+02  0.25500000000E-02 0. -1.
    5000001    1    1    2    0    0 -0.22005612569E+03 -0.78065950327E+02  0.90387897282E+03  0.95229207103E+03  0.18800000000E+03 0.  0.
   -5000001    1    1    2    0    0  0.22005612569E+03  0.78065950327E+02  0.35422246619E+04  0.35548865729E+04  0.18800000000E+03 0.  0.
<mgrwt>
<rscale>  0 0.73947400E+03</rscale>
<asrwt>0</asrwt>
<pdfrwt beam="1">  1        2 0.63952045E+00 0.73947400E+03</pdfrwt>
<pdfrwt beam="2">  1       -2 0.43624987E-02 0.73947400E+03</pdfrwt>
<totfact> 0.71916057E+01</totfact>
</mgrwt>
</event>
<event>
 4    1  0.5886875E-005  0.8187305E+03  0.7818608E-02  0.9533294E-01
         -2   -1    0    0    0  501 -0.00000000000E+00  0.00000000000E+00  0.10551869676E+03  0.10551869679E+03  0.25500000000E-02 0. -1.
          2   -1    0    0  501    0  0.00000000000E+00 -0.00000000000E+00 -0.15881535195E+04  0.15881535195E+04  0.25500000000E-02 0.  1.
    5000001    1    1    2    0    0 -0.32150372201E+03  0.16794132264E+03 -0.79474158796E+03  0.89360344827E+03  0.18800000000E+03 0.  0.
   -5000001    1    1    2    0    0  0.32150372201E+03 -0.16794132264E+03 -0.68789323479E+03  0.80006876803E+03  0.18800000000E+03 0.  0.
<mgrwt>
<rscale>  0 0.81873046E+03</rscale>
<asrwt>0</asrwt>
<pdfrwt beam="1">  1        2 0.22687906E+00 0.81873046E+03</pdfrwt>
<pdfrwt beam="2">  1       -2 0.15074101E-01 0.81873046E+03</pdfrwt>
<totfact> 0.45960442E+02</totfact>
</mgrwt>
</event>
<event>
 4    1  0.5886875E-005  0.4415148E+03  0.7818608E-02  0.1030283E+00
          2   -1    0    0  501    0  0.00000000000E+00  0.00000000000E+00  0.14992185209E+04  0.14992185209E+04  0.25500000000E-02 0.  1.
         -2   -1    0    0    0  501 -0.00000000000E+00 -0.00000000000E+00 -0.32506155900E+02  0.32506156000E+02  0.25500000000E-02 0. -1.
    5000001    1    1    2    0    0  0.16916819575E+02  0.88734413194E+02  0.98424442534E+03  0.10061019152E+04  0.18800000000E+03 0.  0.
   -5000001    1    1    2    0    0 -0.16916819575E+02 -0.88734413194E+02  0.48246793971E+03  0.52562276179E+03  0.18800000000E+03 0.  0.
<mgrwt>
<rscale>  0 0.44151481E+03</rscale>
<asrwt>0</asrwt>
<pdfrwt beam="1">  1        2 0.21417413E+00 0.44151481E+03</pdfrwt>
<pdfrwt beam="2">  1       -2 0.46437354E-02 0.44151481E+03</pdfrwt>
<totfact> 0.34265205E+03</totfact>
</mgrwt>
</event>
<event>
 4    1  0.5886875E-005  0.6607767E+03  0.7818608E-02  0.9786765E-01
          2   -1    0    0  501    0  0.00000000000E+00  0.00000000000E+00  0.22850977717E+04  0.22850977717E+04  0.25500000000E-02 0.  1.
         -2   -1    0    0    0  501 -0.00000000000E+00 -0.00000000000E+00 -0.47768837715E+02  0.47768837783E+02  0.25500000000E-02 0. -1.
    5000001    1    1    2    0    0 -0.51095907811E+02 -0.25198662668E+03  0.14285526067E+04  0.14636306234E+04  0.18800000000E+03 0.  0.
   -5000001    1    1    2    0    0  0.51095907811E+02  0.25198662668E+03  0.80877632728E+03  0.86923598601E+03  0.18800000000E+03 0.  0.
<mgrwt>
<rscale>  0 0.66077671E+03</rscale>
<asrwt>0</asrwt>
<pdfrwt beam="1">  1        2 0.32644267E+00 0.66077671E+03</pdfrwt>
<pdfrwt beam="2">  1       -2 0.68241169E-02 0.66077671E+03</pdfrwt>
<totfact> 0.74789264E+02</totfact>
</mgrwt>
</event>
<event>
 4    1  0.5886875E-005  0.9492195E+03  0.7818608E-02  0.9366063E-01
          2   -1    0    0  501    0  0.00000000000E+00  0.00000000000E+00  0.22457059837E+03  0.22457059839E+03  0.25500000000E-02 0.  1.
         -2   -1    0    0    0  501 -0.00000000000E+00 -0.00000000000E+00 -0.10030450626E+04  0.10030450626E+04  0.25500000000E-02 0. -1.
    5000001    1    1    2    0    0 -0.23472135352E+03 -0.26491482497E+03 -0.71803927534E+03  0.82231282321E+03  0.18800000000E+03 0.  0.
   -5000001    1    1    2    0    0  0.23472135352E+03  0.26491482497E+03 -0.60435188929E+02  0.40530283782E+03  0.18800000000E+03 0.  0.
<mgrwt>
<rscale>  0 0.94921953E+03</rscale>
<asrwt>0</asrwt>
<pdfrwt beam="1">  1        2 0.32081515E-01 0.94921953E+03</pdfrwt>
<pdfrwt beam="2">  1       -2 0.14329215E+00 0.94921953E+03</pdfrwt>
<totfact> 0.55816796E+01</totfact>
</mgrwt>
</event>
<event>
 4    1  0.5886875E-005  0.3978750E+03  0.7818608E-02  0.1044518E+00
          2   -1    0    0  501    0  0.00000000000E+00  0.00000000000E+00  0.71711736308E+03  0.71711736309E+03  0.25500000000E-02 0.  1.
         -2   -1    0    0    0  501 -0.00000000000E+00 -0.00000000000E+00 -0.55187803272E+02  0.55187803331E+02  0.25500000000E-02 0. -1.
    5000001    1    1    2    0    0  0.54157928790E+02 -0.54691171628E+01  0.26181402110E+03  0.32688464959E+03  0.18800000000E+03 0.  0.
   -5000001    1    1    2    0    0 -0.54157928790E+02  0.54691171628E+01  0.40011553871E+03  0.44542051683E+03  0.18800000000E+03 0.  0.
<mgrwt>
<rscale>  0 0.39787502E+03</rscale>
<asrwt>0</asrwt>
<pdfrwt beam="1">  1        2 0.10244533E+00 0.39787502E+03</pdfrwt>
<pdfrwt beam="2">  1       -2 0.78839721E-02 0.39787502E+03</pdfrwt>
<totfact> 0.43415751E+03</totfact>
</mgrwt>
</event>
<event>
 4    1  0.5886875E-005  0.5719263E+03  0.7818608E-02  0.9965425E-01
         -2   -1    0    0    0  501 -0.00000000000E+00  0.00000000000E+00  0.37539363590E+02  0.37539363677E+02  0.25500000000E-02 0. -1.
          2   -1    0    0  501    0  0.00000000000E+00 -0.00000000000E+00 -0.21783777999E+04  0.21783777999E+04  0.25500000000E-02 0.  1.
    5000001    1    1    2    0    0  0.61237227225E+02  0.20657348823E+03 -0.10815897745E+04  0.11187506623E+04  0.18800000000E+03 0.  0.
   -5000001    1    1    2    0    0 -0.61237227225E+02 -0.20657348823E+03 -0.10592486617E+04  0.10971665012E+04  0.18800000000E+03 0.  0.
<mgrwt>
<rscale>  0 0.57192628E+03</rscale>
<asrwt>0</asrwt>
<pdfrwt beam="1">  1        2 0.31119675E+00 0.57192628E+03</pdfrwt>
<pdfrwt beam="2">  1       -2 0.53627676E-02 0.57192628E+03</pdfrwt>
<totfact> 0.12424121E+03</totfact>
</mgrwt>
</event>
<event>
 4    1  0.5886875E-005  0.9137928E+03  0.7818608E-02  0.9408502E-01
         -2   -1    0    0    0  501 -0.00000000000E+00  0.00000000000E+00  0.25750654344E+03  0.25750654345E+03  0.25500000000E-02 0. -1.
          2   -1    0    0  501    0  0.00000000000E+00 -0.00000000000E+00 -0.81067576287E+03  0.81067576287E+03  0.25500000000E-02 0.  1.
    5000001    1    1    2    0    0  0.40971213772E+03 -0.12981744433E+02 -0.19086147508E+03  0.48969854416E+03  0.18800000000E+03 0.  0.
   -5000001    1    1    2    0    0 -0.40971213772E+03  0.12981744433E+02 -0.36230774435E+03  0.57848376217E+03  0.18800000000E+03 0.  0.
<mgrwt>
<rscale>  0 0.91379279E+03</rscale>
<asrwt>0</asrwt>
<pdfrwt beam="1">  1        2 0.11581082E+00 0.91379279E+03</pdfrwt>
<pdfrwt beam="2">  1       -2 0.36786649E-01 0.91379279E+03</pdfrwt>
<totfact> 0.26013818E+02</totfact>
</mgrwt>
</event>
<event>
 4    1  0.5886875E-005  0.8723451E+03  0.7818608E-02  0.9460827E-01
         -2   -1    0    0    0  501 -0.00000000000E+00  0.00000000000E+00  0.94705907087E+02  0.94705907121E+02  0.25500000000E-02 0. -1.
          2   -1    0    0  501    0  0.00000000000E+00 -0.00000000000E+00 -0.20088136035E+04  0.20088136035E+04  0.25500000000E-02 0.  1.
    5000001    1    1    2    0    0 -0.47849838198E+02  0.38825369561E+03 -0.10613836200E+04  0.11466951330E+04  0.18800000000E+03 0.  0.
   -5000001    1    1    2    0    0  0.47849838198E+02 -0.38825369561E+03 -0.85272407637E+03  0.95682437761E+03  0.18800000000E+03 0.  0.
<mgrwt>
<rscale>  0 0.87234515E+03</rscale>
<asrwt>0</asrwt>
<pdfrwt beam="1">  1        2 0.28697335E+00 0.87234515E+03</pdfrwt>
<pdfrwt beam="2">  1       -2 0.13529417E-01 0.87234515E+03</pdfrwt>
<totfact> 0.33476235E+02</totfact>
</mgrwt>
</event>
<event>
 4    1  0.5886875E-005  0.4205768E+03  0.7818608E-02  0.1036879E+00
         -2   -1    0    0    0  501 -0.00000000000E+00  0.00000000000E+00  0.31255789432E+02  0.31255789536E+02  0.25500000000E-02 0. -1.
          2   -1    0    0  501    0  0.00000000000E+00 -0.00000000000E+00 -0.14148169490E+04  0.14148169490E+04  0.25500000000E-02 0.  1.
    5000001    1    1    2    0    0  0.63266964072E+02 -0.54497882184E+02 -0.84183004399E+03  0.86659941776E+03  0.18800000000E+03 0.  0.
   -5000001    1    1    2    0    0 -0.63266964072E+02  0.54497882184E+02 -0.54173111560E+03  0.57947332080E+03  0.18800000000E+03 0.  0.
<mgrwt>
<rscale>  0 0.42057685E+03</rscale>
<asrwt>0</asrwt>
<pdfrwt beam="1">  1        2 0.20211667E+00 0.42057685E+03</pdfrwt>
<pdfrwt beam="2">  1       -2 0.44651137E-02 0.42057685E+03</pdfrwt>
<totfact> 0.40246308E+03</totfact>
</mgrwt>
</event>
<event>
 4    1  0.5886875E-005  0.7587146E+03  0.7818608E-02  0.9621777E-01
          2   -1    0    0  501    0  0.00000000000E+00  0.00000000000E+00  0.14828451705E+04  0.14828451705E+04  0.25500000000E-02 0.  1.
         -2   -1    0    0    0  501 -0.00000000000E+00 -0.00000000000E+00 -0.97051229773E+02  0.97051229806E+02  0.25500000000E-02 0. -1.
    5000001    1    1    2    0    0  0.20114347000E+03  0.26055978044E+03  0.72363185912E+03  0.81690707075E+03  0.18800000000E+03 0.  0.
   -5000001    1    1    2    0    0 -0.20114347000E+03 -0.26055978044E+03  0.66216208162E+03  0.76298932957E+03  0.18800000000E+03 0.  0.
<mgrwt>
<rscale>  0 0.75871456E+03</rscale>
<asrwt>0</asrwt>
<pdfrwt beam="1">  1        2 0.21183504E+00 0.75871456E+03</pdfrwt>
<pdfrwt beam="2">  1       -2 0.13864461E-01 0.75871456E+03</pdfrwt>
<totfact> 0.60266331E+02</totfact>
</mgrwt>
</event>
<event>
 4    1  0.5886875E-005  0.4022574E+03  0.7818608E-02  0.1043001E+00
          2   -1    0    0  501    0  0.00000000000E+00  0.00000000000E+00  0.25941417078E+04  0.25941417078E+04  0.25500000000E-02 0.  1.
         -2   -1    0    0    0  501 -0.00000000000E+00 -0.00000000000E+00 -0.15593888599E+02  0.15593888807E+02  0.25500000000E-02 0. -1.
    5000001    1    1    2    0    0 -0.39187680517E+02  0.56812908801E+02  0.14098437346E+04  0.14239967475E+04  0.18800000000E+03 0.  0.
   -5000001    1    1    2    0    0  0.39187680517E+02 -0.56812908801E+02  0.11687040846E+04  0.11857388491E+04  0.18800000000E+03 0.  0.
<mgrwt>
<rscale>  0 0.40225742E+03</rscale>
<asrwt>0</asrwt>
<pdfrwt beam="1">  1        2 0.37059167E+00 0.40225742E+03</pdfrwt>
<pdfrwt beam="2">  1       -2 0.22276984E-02 0.40225742E+03</pdfrwt>
<totfact> 0.29417267E+03</totfact>
</mgrwt>
</event>
<event>
 4    1  0.5886875E-005  0.4168859E+03  0.7818608E-02  0.1038085E+00
          2   -1    0    0  501    0  0.00000000000E+00  0.00000000000E+00  0.13420510034E+03  0.13420510036E+03  0.25500000000E-02 0.  1.
         -2   -1    0    0    0  501 -0.00000000000E+00 -0.00000000000E+00 -0.32374669887E+03  0.32374669888E+03  0.25500000000E-02 0. -1.
    5000001    1    1    2    0    0 -0.22373759323E+02 -0.86843967625E+02 -0.10342033529E+03  0.23255585473E+03  0.18800000000E+03 0.  0.
   -5000001    1    1    2    0    0  0.22373759323E+02  0.86843967625E+02 -0.86121263250E+02  0.22539594451E+03  0.18800000000E+03 0.  0.
<mgrwt>
<rscale>  0 0.41688588E+03</rscale>
<asrwt>0</asrwt>
<pdfrwt beam="1">  1        2 0.19172157E-01 0.41688588E+03</pdfrwt>
<pdfrwt beam="2">  1       -2 0.46249528E-01 0.41688588E+03</pdfrwt>
<totfact> 0.13195962E+03</totfact>
</mgrwt>
</event>
<event>
 4    1  0.5886875E-005  0.9570593E+03  0.7818608E-02  0.9356937E-01
         -2   -1    0    0    0  501 -0.00000000000E+00  0.00000000000E+00  0.66086053118E+03  0.66086053119E+03  0.25500000000E-02 0. -1.
          2   -1    0    0  501    0  0.00000000000E+00 -0.00000000000E+00 -0.34650373959E+03  0.34650373959E+03  0.25500000000E-02 0.  1.
    5000001    1    1    2    0    0 -0.23830384243E+03 -0.18351722202E+03  0.49527754489E+03  0.60918891862E+03  0.18800000000E+03 0.  0.
   -5000001    1    1    2    0    0  0.23830384243E+03  0.18351722202E+03 -0.18092075330E+03  0.39817535216E+03  0.18800000000E+03 0.  0.
<mgrwt>
<rscale>  0 0.95705934E+03</rscale>
<asrwt>0</asrwt>
<pdfrwt beam="1">  1        2 0.49500535E-01 0.95705934E+03</pdfrwt>
<pdfrwt beam="2">  1       -2 0.94408646E-01 0.95705934E+03</pdfrwt>
<totfact> 0.96159606E+01</totfact>
</mgrwt>
</event>
<event>
 4    1  0.5886875E-005  0.5017686E+03  0.7818608E-02  0.1013318E+00
          2   -1    0    0  501    0  0.00000000000E+00  0.00000000000E+00  0.75729915668E+03  0.75729915668E+03  0.25500000000E-02 0.  1.
         -2   -1    0    0    0  501 -0.00000000000E+00 -0.00000000000E+00 -0.83115021014E+02  0.83115021053E+02  0.25500000000E-02 0. -1.
    5000001    1    1    2    0    0 -0.16179133857E+03 -0.31197680908E+02  0.37259065832E+03  0.44868422214E+03  0.18800000000E+03 0.  0.
   -5000001    1    1    2    0    0  0.16179133857E+03  0.31197680908E+02  0.30159347734E+03  0.39172995559E+03  0.18800000000E+03 0.  0.
<mgrwt>
<rscale>  0 0.50176861E+03</rscale>
<asrwt>0</asrwt>
<pdfrwt beam="1">  1        2 0.10818559E+00 0.50176861E+03</pdfrwt>
<pdfrwt beam="2">  1       -2 0.11873574E-01 0.50176861E+03</pdfrwt>
<totfact> 0.21081012E+03</totfact>
</mgrwt>
</event>
<event>
 4    1  0.5886875E-005  0.4513775E+03  0.7818608E-02  0.1027312E+00
          2   -1    0    0  501    0  0.00000000000E+00  0.00000000000E+00  0.10391259676E+04  0.10391259676E+04  0.25500000000E-02 0.  1.
         -2   -1    0    0    0  501 -0.00000000000E+00 -0.00000000000E+00 -0.49017561431E+02  0.49017561498E+02  0.25500000000E-02 0. -1.
    5000001    1    1    2    0    0 -0.46842062222E+02  0.10026574020E+03  0.63446002174E+03  0.67091796566E+03  0.18800000000E+03 0.  0.
   -5000001    1    1    2    0    0  0.46842062222E+02 -0.10026574020E+03  0.35564838446E+03  0.41722556348E+03  0.18800000000E+03 0.  0.
<mgrwt>
<rscale>  0 0.45137754E+03</rscale>
<asrwt>0</asrwt>
<pdfrwt beam="1">  1        2 0.14844656E+00 0.45137754E+03</pdfrwt>
<pdfrwt beam="2">  1       -2 0.70025090E-02 0.45137754E+03</pdfrwt>
<totfact> 0.32309545E+03</totfact>
</mgrwt>
</event>
<event>
 4    1  0.5886875E-005  0.1174437E+04  0.7818608E-02  0.9135531E-01
         -2   -1    0    0    0  501 -0.00000000000E+00  0.00000000000E+00  0.22248675775E+03  0.22248675777E+03  0.25500000000E-02 0. -1.
          2   -1    0    0  501    0  0.00000000000E+00 -0.00000000000E+00 -0.15498693356E+04  0.15498693356E+04  0.25500000000E-02 0.  1.
    5000001    1    1    2    0    0 -0.42952707811E+03  0.34870701175E+03 -0.57580820887E+03  0.82035918004E+03  0.18800000000E+03 0.  0.
   -5000001    1    1    2    0    0  0.42952707811E+03 -0.34870701175E+03 -0.75157436895E+03  0.95199691330E+03  0.18800000000E+03 0.  0.
<mgrwt>
<rscale>  0 0.11744367E+04</rscale>
<asrwt>0</asrwt>
<pdfrwt beam="1">  1        2 0.22140990E+00 0.11744367E+04</pdfrwt>
<pdfrwt beam="2">  1       -2 0.31783823E-01 0.11744367E+04</pdfrwt>
<totfact> 0.12493244E+02</totfact>
</mgrwt>
</event>
<event>
 4    1  0.5886875E-005  0.8117476E+03  0.7818608E-02  0.9543167E-01
          2   -1    0    0  501    0  0.00000000000E+00  0.00000000000E+00  0.15571872319E+03  0.15571872321E+03  0.25500000000E-02 0.  1.
         -2   -1    0    0    0  501 -0.00000000000E+00 -0.00000000000E+00 -0.10578915592E+04  0.10578915592E+04  0.25500000000E-02 0. -1.
    5000001    1    1    2    0    0  0.21470863737E+03  0.26451872247E+03 -0.62363180417E+03  0.73507182008E+03  0.18800000000E+03 0.  0.
   -5000001    1    1    2    0    0 -0.21470863737E+03 -0.26451872247E+03 -0.27854103180E+03  0.47853846229E+03  0.18800000000E+03 0.  0.
<mgrwt>
<rscale>  0 0.81174755E+03</rscale>
<asrwt>0</asrwt>
<pdfrwt beam="1">  1        2 0.22245533E-01 0.81174755E+03</pdfrwt>
<pdfrwt beam="2">  1       -2 0.15112736E+00 0.81174755E+03</pdfrwt>
<totfact> 0.74295237E+01</totfact>
</mgrwt>
</event>
<event>
 4    1  0.5886875E-005  0.6438685E+03  0.7818608E-02  0.9818353E-01
          2   -1    0    0  501    0  0.00000000000E+00  0.00000000000E+00  0.11614783899E+04  0.11614783899E+04  0.25500000000E-02 0.  1.
         -2   -1    0    0    0  501 -0.00000000000E+00 -0.00000000000E+00 -0.89232542711E+02  0.89232542747E+02  0.25500000000E-02 0. -1.
    5000001    1    1    2    0    0  0.45757565002E+02 -0.19976433018E+03  0.22111450237E+03  0.35529588447E+03  0.18800000000E+03 0.  0.
   -5000001    1    1    2    0    0 -0.45757565002E+02  0.19976433018E+03  0.85113134479E+03  0.89541504815E+03  0.18800000000E+03 0.  0.
<mgrwt>
<rscale>  0 0.64386853E+03</rscale>
<asrwt>0</asrwt>
<pdfrwt beam="1">  1        2 0.16592547E+00 0.64386853E+03</pdfrwt>
<pdfrwt beam="2">  1       -2 0.12747507E-01 0.64386853E+03</pdfrwt>
<totfact> 0.10426333E+03</totfact>
</mgrwt>
</event>
<event>
 4    1  0.5886875E-005  0.4227124E+03  0.7818608E-02  0.1036187E+00
         -2   -1    0    0    0  501 -0.00000000000E+00  0.00000000000E+00  0.45731570257E+02  0.45731570328E+02  0.25500000000E-02 0. -1.
          2   -1    0    0  501    0  0.00000000000E+00 -0.00000000000E+00 -0.97681826413E+03  0.97681826414E+03  0.25500000000E-02 0.  1.
    5000001    1    1    2    0    0  0.59228446455E+02 -0.65717541594E+02 -0.55925124739E+03  0.59660100725E+03  0.18800000000E+03 0.  0.
   -5000001    1    1    2    0    0 -0.59228446455E+02  0.65717541594E+02 -0.37183544648E+03  0.42594882721E+03  0.18800000000E+03 0.  0.
<mgrwt>
<rscale>  0 0.42271235E+03</rscale>
<asrwt>0</asrwt>
<pdfrwt beam="1">  1        2 0.13954545E+00 0.42271235E+03</pdfrwt>
<pdfrwt beam="2">  1       -2 0.65330821E-02 0.42271235E+03</pdfrwt>
<totfact> 0.39233331E+03</totfact>
</mgrwt>
</event>
<event>
 4    1  0.5886875E-005  0.6376698E+03  0.7818608E-02  0.9830195E-01
          2   -1    0    0  501    0  0.00000000000E+00  0.00000000000E+00  0.12395910871E+04  0.12395910871E+04  0.25500000000E-02 0.  1.
         -2   -1    0    0    0  501 -0.00000000000E+00 -0.00000000000E+00 -0.82007433831E+02  0.82007433870E+02  0.25500000000E-02 0. -1.
    5000001    1    1    2    0    0  0.14662815002E+03  0.12187557918E+03  0.22006680863E+03  0.34659323629E+03  0.18800000000E+03 0.  0.
   -5000001    1    1    2    0    0 -0.14662815002E+03 -0.12187557918E+03  0.93751684461E+03  0.97500528465E+03  0.18800000000E+03 0.  0.
<mgrwt>
<rscale>  0 0.63766977E+03</rscale>
<asrwt>0</asrwt>
<pdfrwt beam="1">  1        2 0.17708442E+00 0.63766977E+03</pdfrwt>
<pdfrwt beam="2">  1       -2 0.11715349E-01 0.63766977E+03</pdfrwt>
<totfact> 0.10836345E+03</totfact>
</mgrwt>
</event>
<event>
 4    1  0.5886875E-005  0.4964855E+03  0.7818608E-02  0.1014700E+00
         -2   -1    0    0    0  501 -0.00000000000E+00  0.00000000000E+00  0.80147209232E+02  0.80147209272E+02  0.25500000000E-02 0. -1.
          2   -1    0    0  501    0  0.00000000000E+00 -0.00000000000E+00 -0.76889104699E+03  0.76889104700E+03  0.25500000000E-02 0.  1.
    5000001    1    1    2    0    0  0.16200966994E+03  0.38666451010E+01 -0.35170493222E+03  0.43046770314E+03  0.18800000000E+03 0.  0.
   -5000001    1    1    2    0    0 -0.16200966994E+03 -0.38666451010E+01 -0.33703890554E+03  0.41857055313E+03  0.18800000000E+03 0.  0.
<mgrwt>
<rscale>  0 0.49648554E+03</rscale>
<asrwt>0</asrwt>
<pdfrwt beam="1">  1        2 0.10984157E+00 0.49648554E+03</pdfrwt>
<pdfrwt beam="2">  1       -2 0.11449602E-01 0.49648554E+03</pdfrwt>
<totfact> 0.21951610E+03</totfact>
</mgrwt>
</event>
<event>
 4    1  0.5886875E-005  0.4917540E+03  0.7818608E-02  0.1015954E+00
          2   -1    0    0  501    0  0.00000000000E+00  0.00000000000E+00  0.14018852463E+04  0.14018852463E+04  0.25500000000E-02 0.  1.
         -2   -1    0    0    0  501 -0.00000000000E+00 -0.00000000000E+00 -0.43124423490E+02  0.43124423566E+02  0.25500000000E-02 0. -1.
    5000001    1    1    2    0    0  0.11392697665E+03 -0.11014508626E+03  0.67807595727E+03  0.72127824026E+03  0.18800000000E+03 0.  0.
   -5000001    1    1    2    0    0 -0.11392697665E+03  0.11014508626E+03  0.68068486549E+03  0.72373142957E+03  0.18800000000E+03 0.  0.
<mgrwt>
<rscale>  0 0.49175398E+03</rscale>
<asrwt>0</asrwt>
<pdfrwt beam="1">  1        2 0.20026934E+00 0.49175398E+03</pdfrwt>
<pdfrwt beam="2">  1       -2 0.61606312E-02 0.49175398E+03</pdfrwt>
<totfact> 0.24853435E+03</totfact>
</mgrwt>
</event>
<event>
 4    1  0.5886875E-005  0.9075604E+03  0.7818608E-02  0.9416180E-01
         -2   -1    0    0    0  501 -0.00000000000E+00  0.00000000000E+00  0.14408983664E+03  0.14408983666E+03  0.25500000000E-02 0. -1.
          2   -1    0    0  501    0  0.00000000000E+00 -0.00000000000E+00 -0.14290839927E+04  0.14290839927E+04  0.25500000000E-02 0.  1.
    5000001    1    1    2    0    0  0.16027415997E+03  0.31441610813E+03 -0.27061233060E+03  0.48282536064E+03  0.18800000000E+03 0.  0.
   -5000001    1    1    2    0    0 -0.16027415997E+03 -0.31441610813E+03 -0.10143818255E+04  0.10903484687E+04  0.18800000000E+03 0.  0.
<mgrwt>
<rscale>  0 0.90756042E+03</rscale>
<asrwt>0</asrwt>
<pdfrwt beam="1">  1        2 0.20415485E+00 0.90756042E+03</pdfrwt>
<pdfrwt beam="2">  1       -2 0.20584263E-01 0.90756042E+03</pdfrwt>
<totfact> 0.32408184E+02</totfact>
</mgrwt>
</event>
<event>
 4    1  0.5886875E-005  0.4163255E+03  0.7818608E-02  0.1038269E+00
         -2   -1    0    0    0  501 -0.00000000000E+00  0.00000000000E+00  0.21334635340E+02  0.21334635492E+02  0.25500000000E-02 0. -1.
          2   -1    0    0  501    0  0.00000000000E+00 -0.00000000000E+00 -0.20310507210E+04  0.20310507210E+04  0.25500000000E-02 0.  1.
    5000001    1    1    2    0    0  0.74654571155E+02 -0.44345171614E+02 -0.90052311210E+03  0.92402687984E+03  0.18800000000E+03 0.  0.
   -5000001    1    1    2    0    0 -0.74654571155E+02  0.44345171614E+02 -0.11091929735E+04  0.11283584766E+04  0.18800000000E+03 0.  0.
<mgrwt>
<rscale>  0 0.41632548E+03</rscale>
<asrwt>0</asrwt>
<pdfrwt beam="1">  1        2 0.29014998E+00 0.41632548E+03</pdfrwt>
<pdfrwt beam="2">  1       -2 0.30478063E-02 0.41632548E+03</pdfrwt>
<totfact> 0.35176123E+03</totfact>
</mgrwt>
</event>
<event>
 4    1  0.5886875E-005  0.7839408E+03  0.7818608E-02  0.9583557E-01
          2   -1    0    0  501    0  0.00000000000E+00  0.00000000000E+00  0.76573022308E+03  0.76573022308E+03  0.25500000000E-02 0.  1.
         -2   -1    0    0    0  501 -0.00000000000E+00 -0.00000000000E+00 -0.20064613383E+03  0.20064613385E+03  0.25500000000E-02 0. -1.
    5000001    1    1    2    0    0 -0.32856902489E+03  0.10167709117E+03  0.28375853171E+03  0.48389951364E+03  0.18800000000E+03 0.  0.
   -5000001    1    1    2    0    0  0.32856902489E+03 -0.10167709117E+03  0.28132555754E+03  0.48247684329E+03  0.18800000000E+03 0.  0.
<mgrwt>
<rscale>  0 0.78394084E+03</rscale>
<asrwt>0</asrwt>
<pdfrwt beam="1">  1        2 0.10939003E+00 0.78394084E+03</pdfrwt>
<pdfrwt beam="2">  1       -2 0.28663733E-01 0.78394084E+03</pdfrwt>
<totfact> 0.44998880E+02</totfact>
</mgrwt>
</event>
<event>
 4    1  0.5886875E-005  0.6128212E+03  0.7818608E-02  0.9879157E-01
         -2   -1    0    0    0  501 -0.00000000000E+00  0.00000000000E+00  0.77972934426E+03  0.77972934426E+03  0.25500000000E-02 0. -1.
          2   -1    0    0  501    0  0.00000000000E+00 -0.00000000000E+00 -0.12041031537E+03  0.12041031540E+03  0.25500000000E-02 0.  1.
    5000001    1    1    2    0    0  0.21907670419E+03 -0.10222980774E+03  0.34419443278E+03  0.46071612026E+03  0.18800000000E+03 0.  0.
   -5000001    1    1    2    0    0 -0.21907670419E+03  0.10222980774E+03  0.31512459611E+03  0.43942353940E+03  0.18800000000E+03 0.  0.
<mgrwt>
<rscale>  0 0.61282120E+03</rscale>
<asrwt>0</asrwt>
<pdfrwt beam="1">  1        2 0.17201473E-01 0.61282120E+03</pdfrwt>
<pdfrwt beam="2">  1       -2 0.11138991E+00 0.61282120E+03</pdfrwt>
<totfact> 0.21926668E+02</totfact>
</mgrwt>
</event>
<event>
 4    1  0.5886875E-005  0.6388378E+03  0.7818608E-02  0.9827953E-01
          2   -1    0    0  501    0  0.00000000000E+00  0.00000000000E+00  0.57307534453E+03  0.57307534454E+03  0.25500000000E-02 0.  1.
         -2   -1    0    0    0  501 -0.00000000000E+00 -0.00000000000E+00 -0.17803669001E+03  0.17803669003E+03  0.25500000000E-02 0. -1.
    5000001    1    1    2    0    0  0.96905498977E+01 -0.43707615897E+02  0.49653895756E+03  0.53282192036E+03  0.18800000000E+03 0.  0.
   -5000001    1    1    2    0    0 -0.96905498977E+01  0.43707615897E+02 -0.10150030303E+03  0.21829011421E+03  0.18800000000E+03 0.  0.
<mgrwt>
<rscale>  0 0.63883781E+03</rscale>
<asrwt>0</asrwt>
<pdfrwt beam="1">  1        2 0.81867906E-01 0.63883781E+03</pdfrwt>
<pdfrwt beam="2">  1       -2 0.25433813E-01 0.63883781E+03</pdfrwt>
<totfact> 0.79854896E+02</totfact>
</mgrwt>
</event>
<event>
 4    1  0.5886875E-005  0.6514209E+03  0.7818608E-02  0.9804117E-01
          2   -1    0    0  501    0  0.00000000000E+00  0.00000000000E+00  0.21559106211E+03  0.21559106212E+03  0.25500000000E-02 0.  1.
         -2   -1    0    0    0  501 -0.00000000000E+00 -0.00000000000E+00 -0.49207650479E+03  0.49207650480E+03  0.25500000000E-02 0. -1.
    5000001    1    1    2    0    0  0.23203684029E+03 -0.95526611221E+02 -0.42441739855E+02  0.31640437732E+03  0.18800000000E+03 0.  0.
   -5000001    1    1    2    0    0 -0.23203684029E+03  0.95526611221E+02 -0.23404370283E+03  0.39126318960E+03  0.18800000000E+03 0.  0.
<mgrwt>
<rscale>  0 0.65142090E+03</rscale>
<asrwt>0</asrwt>
<pdfrwt beam="1">  1        2 0.30798723E-01 0.65142090E+03</pdfrwt>
<pdfrwt beam="2">  1       -2 0.70296643E-01 0.65142090E+03</pdfrwt>
<totfact> 0.32123608E+02</totfact>
</mgrwt>
</event>
<event>
 4    1  0.5886875E-005  0.5201823E+03  0.7818608E-02  0.1008641E+00
          2   -1    0    0  501    0  0.00000000000E+00  0.00000000000E+00  0.15081042639E+04  0.15081042639E+04  0.25500000000E-02 0.  1.
         -2   -1    0    0    0  501 -0.00000000000E+00 -0.00000000000E+00 -0.44855923814E+02  0.44855923887E+02  0.25500000000E-02 0. -1.
    5000001    1    1    2    0    0  0.12927509783E+03 -0.11528492879E+03  0.58842552229E+03  0.64155378652E+03  0.18800000000E+03 0.  0.
   -5000001    1    1    2    0    0 -0.12927509783E+03  0.11528492879E+03  0.87482281780E+03  0.91140640127E+03  0.18800000000E+03 0.  0.
<mgrwt>
<rscale>  0 0.52018231E+03</rscale>
<asrwt>0</asrwt>
<pdfrwt beam="1">  1        2 0.21544349E+00 0.52018231E+03</pdfrwt>
<pdfrwt beam="2">  1       -2 0.64079883E-02 0.52018231E+03</pdfrwt>
<totfact> 0.20556206E+03</totfact>
</mgrwt>
</event>
<event>
 4    1  0.5886875E-005  0.7086863E+03  0.7818608E-02  0.9702492E-01
          2   -1    0    0  501    0  0.00000000000E+00  0.00000000000E+00  0.11864977505E+04  0.11864977505E+04  0.25500000000E-02 0.  1.
         -2   -1    0    0    0  501 -0.00000000000E+00 -0.00000000000E+00 -0.10582327065E+03  0.10582327068E+03  0.25500000000E-02 0. -1.
    5000001    1    1    2    0    0  0.23569160128E+03 -0.14509005018E+03  0.75310213305E+03  0.82408038223E+03  0.18800000000E+03 0.  0.
   -5000001    1    1    2    0    0 -0.23569160128E+03  0.14509005018E+03  0.32757234678E+03  0.46824063894E+03  0.18800000000E+03 0.  0.
<mgrwt>
<rscale>  0 0.70868631E+03</rscale>
<asrwt>0</asrwt>
<pdfrwt beam="1">  1        2 0.16949966E+00 0.70868631E+03</pdfrwt>
<pdfrwt beam="2">  1       -2 0.15117611E-01 0.70868631E+03</pdfrwt>
<totfact> 0.75680510E+02</totfact>
</mgrwt>
</event>
<event>
 4    1  0.5886875E-005  0.5601019E+03  0.7818608E-02  0.9991824E-01
         -2   -1    0    0    0  501 -0.00000000000E+00  0.00000000000E+00  0.97948747174E+02  0.97948747207E+02  0.25500000000E-02 0. -1.
          2   -1    0    0  501    0  0.00000000000E+00 -0.00000000000E+00 -0.80070991959E+03  0.80070991959E+03  0.25500000000E-02 0.  1.
    5000001    1    1    2    0    0 -0.18017541646E+03  0.40381836118E+02 -0.50351361580E+03  0.56829907151E+03  0.18800000000E+03 0.  0.
   -5000001    1    1    2    0    0  0.18017541646E+03 -0.40381836118E+02 -0.19924755662E+03  0.33035959530E+03  0.18800000000E+03 0.  0.
<mgrwt>
<rscale>  0 0.56010190E+03</rscale>
<asrwt>0</asrwt>
<pdfrwt beam="1">  1        2 0.11438713E+00 0.56010190E+03</pdfrwt>
<pdfrwt beam="2">  1       -2 0.13992679E-01 0.56010190E+03</pdfrwt>
<totfact> 0.14976139E+03</totfact>
</mgrwt>
</event>
<event>
 4    1  0.5886875E-005  0.6976227E+03  0.7818608E-02  0.9721306E-01
         -2   -1    0    0    0  501 -0.00000000000E+00  0.00000000000E+00  0.20450310425E+03  0.20450310426E+03  0.25500000000E-02 0. -1.
          2   -1    0    0  501    0  0.00000000000E+00 -0.00000000000E+00 -0.59495123687E+03  0.59495123688E+03  0.25500000000E-02 0.  1.
    5000001    1    1    2    0    0  0.23894774468E+03  0.16935037400E+03 -0.22209456819E+03  0.41285054328E+03  0.18800000000E+03 0.  0.
   -5000001    1    1    2    0    0 -0.23894774468E+03 -0.16935037400E+03 -0.16835356443E+03  0.38660379786E+03  0.18800000000E+03 0.  0.
<mgrwt>
<rscale>  0 0.69762275E+03</rscale>
<asrwt>0</asrwt>
<pdfrwt beam="1">  1        2 0.84993033E-01 0.69762275E+03</pdfrwt>
<pdfrwt beam="2">  1       -2 0.29214729E-01 0.69762275E+03</pdfrwt>
<totfact> 0.59281385E+02</totfact>
</mgrwt>
</event>
<event>
 4    1  0.5886875E-005  0.1010159E+04  0.7818608E-02  0.9297473E-01
          2   -1    0    0  501    0  0.00000000000E+00  0.00000000000E+00  0.98443416949E+03  0.98443416949E+03  0.25500000000E-02 0.  1.
         -2   -1    0    0    0  501 -0.00000000000E+00 -0.00000000000E+00 -0.25913884901E+03  0.25913884902E+03  0.25500000000E-02 0. -1.
    5000001    1    1    2    0    0 -0.39925114353E+03 -0.24164855756E+03  0.41722763259E+03  0.65361945991E+03  0.18800000000E+03 0.  0.
   -5000001    1    1    2    0    0  0.39925114353E+03  0.24164855756E+03  0.30806768789E+03  0.58995355860E+03  0.18800000000E+03 0.  0.
<mgrwt>
<rscale>  0 0.10101587E+04</rscale>
<asrwt>0</asrwt>
<pdfrwt beam="1">  1        2 0.14063345E+00 0.10101587E+04</pdfrwt>
<pdfrwt beam="2">  1       -2 0.37019836E-01 0.10101587E+04</pdfrwt>
<totfact> 0.19667715E+02</totfact>
</mgrwt>
</event>
<event>
 4    1  0.5886875E-005  0.5928388E+03  0.7818608E-02  0.9920376E-01
          2   -1    0    0  501    0  0.00000000000E+00  0.00000000000E+00  0.82133859295E+03  0.82133859296E+03  0.25500000000E-02 0.  1.
         -2   -1    0    0    0  501 -0.00000000000E+00 -0.00000000000E+00 -0.10697713075E+03  0.10697713078E+03  0.25500000000E-02 0. -1.
    5000001    1    1    2    0    0  0.16767108320E+03 -0.48964580292E+02  0.12487363658E+03  0.28539191891E+03  0.18800000000E+03 0.  0.
   -5000001    1    1    2    0    0 -0.16767108320E+03  0.48964580292E+02  0.58948782562E+03  0.64292380483E+03  0.18800000000E+03 0.  0.
<mgrwt>
<rscale>  0 0.59283875E+03</rscale>
<asrwt>0</asrwt>
<pdfrwt beam="1">  1        2 0.11733408E+00 0.59283875E+03</pdfrwt>
<pdfrwt beam="2">  1       -2 0.15282447E-01 0.59283875E+03</pdfrwt>
<totfact> 0.12497740E+03</totfact>
</mgrwt>
</event>
<event>
 4    1  0.5886875E-005  0.1115827E+04  0.7818608E-02  0.9189902E-01
         -2   -1    0    0    0  501 -0.00000000000E+00  0.00000000000E+00  0.21608795586E+03  0.21608795588E+03  0.25500000000E-02 0. -1.
          2   -1    0    0  501    0  0.00000000000E+00 -0.00000000000E+00 -0.14404666801E+04  0.14404666801E+04  0.25500000000E-02 0.  1.
    5000001    1    1    2    0    0  0.10928291095E+03 -0.46999921913E+03 -0.30404502876E+03  0.60052427105E+03  0.18800000000E+03 0.  0.
   -5000001    1    1    2    0    0 -0.10928291095E+03  0.46999921913E+03 -0.92033369546E+03  0.10560303649E+04  0.18800000000E+03 0.  0.
<mgrwt>
<rscale>  0 0.11158270E+04</rscale>
<asrwt>0</asrwt>
<pdfrwt beam="1">  1        2 0.20578095E+00 0.11158270E+04</pdfrwt>
<pdfrwt beam="2">  1       -2 0.30869709E-01 0.11158270E+04</pdfrwt>
<totfact> 0.15143538E+02</totfact>
</mgrwt>
</event>
<event>
 4    1  0.5886875E-005  0.5129234E+03  0.7818608E-02  0.1010460E+00
         -2   -1    0    0    0  501 -0.00000000000E+00  0.00000000000E+00  0.40435994151E+02  0.40435994231E+02  0.25500000000E-02 0. -1.
          2   -1    0    0  501    0  0.00000000000E+00 -0.00000000000E+00 -0.16265854388E+04  0.16265854388E+04  0.25500000000E-02 0.  1.
    5000001    1    1    2    0    0 -0.21097042117E+02  0.17219539896E+03 -0.85231633844E+03  0.88987835201E+03  0.18800000000E+03 0.  0.
   -5000001    1    1    2    0    0  0.21097042117E+02 -0.17219539896E+03 -0.73383310621E+03  0.77714308103E+03  0.18800000000E+03 0.  0.
<mgrwt>
<rscale>  0 0.51292338E+03</rscale>
<asrwt>0</asrwt>
<pdfrwt beam="1">  1        2 0.23236931E+00 0.51292338E+03</pdfrwt>
<pdfrwt beam="2">  1       -2 0.57765716E-02 0.51292338E+03</pdfrwt>
<totfact> 0.21016833E+03</totfact>
</mgrwt>
</event>
<event>
 4    1  0.5886875E-005  0.4567256E+03  0.7818608E-02  0.1025735E+00
         -2   -1    0    0    0  501 -0.00000000000E+00  0.00000000000E+00  0.32536634108E+02  0.32536634208E+02  0.25500000000E-02 0. -1.
          2   -1    0    0  501    0  0.00000000000E+00 -0.00000000000E+00 -0.16027955735E+04  0.16027955735E+04  0.25500000000E-02 0.  1.
    5000001    1    1    2    0    0 -0.57982104565E+01 -0.10582014608E+03 -0.51780662710E+03  0.56098059291E+03  0.18800000000E+03 0.  0.
   -5000001    1    1    2    0    0  0.57982104565E+01  0.10582014608E+03 -0.10524523123E+04  0.10743516148E+04  0.18800000000E+03 0.  0.
<mgrwt>
<rscale>  0 0.45672562E+03</rscale>
<asrwt>0</asrwt>
<pdfrwt beam="1">  1        2 0.22897075E+00 0.45672562E+03</pdfrwt>
<pdfrwt beam="2">  1       -2 0.46480916E-02 0.45672562E+03</pdfrwt>
<totfact> 0.30280673E+03</totfact>
</mgrwt>
</event>
<event>
 4    1  0.5886875E-005  0.4991073E+03  0.7818608E-02  0.1014012E+00
          2   -1    0    0  501    0  0.00000000000E+00  0.00000000000E+00  0.25090003341E+04  0.25090003341E+04  0.25500000000E-02 0.  1.
         -2   -1    0    0    0  501 -0.00000000000E+00 -0.00000000000E+00 -0.24821452315E+02  0.24821452446E+02  0.25500000000E-02 0. -1.
    5000001    1    1    2    0    0  0.14816602732E+03 -0.70468337252E+02  0.12230439303E+04  0.12482385243E+04  0.18800000000E+03 0.  0.
   -5000001    1    1    2    0    0 -0.14816602732E+03  0.70468337252E+02  0.12611349515E+04  0.12855832622E+04  0.18800000000E+03 0.  0.
<mgrwt>
<rscale>  0 0.49910733E+03</rscale>
<asrwt>0</asrwt>
<pdfrwt beam="1">  1        2 0.35842883E+00 0.49910733E+03</pdfrwt>
<pdfrwt beam="2">  1       -2 0.35459197E-02 0.49910733E+03</pdfrwt>
<totfact> 0.16045128E+03</totfact>
</mgrwt>
</event>
<event>
 4    1  0.5886875E-005  0.5061210E+03  0.7818608E-02  0.1012193E+00
         -2   -1    0    0    0  501 -0.00000000000E+00  0.00000000000E+00  0.42463050520E+03  0.42463050520E+03  0.25500000000E-02 0. -1.
          2   -1    0    0  501    0  0.00000000000E+00 -0.00000000000E+00 -0.15081255385E+03  0.15081255387E+03  0.25500000000E-02 0.  1.
    5000001    1    1    2    0    0 -0.61315214113E+02  0.11891884296E+03  0.25503526245E+03  0.34393056245E+03  0.18800000000E+03 0.  0.
   -5000001    1    1    2    0    0  0.61315214113E+02 -0.11891884296E+03  0.18782688898E+02  0.23151249663E+03  0.18800000000E+03 0.  0.
<mgrwt>
<rscale>  0 0.50612098E+03</rscale>
<asrwt>0</asrwt>
<pdfrwt beam="1">  1        2 0.21544650E-01 0.50612098E+03</pdfrwt>
<pdfrwt beam="2">  1       -2 0.60661501E-01 0.50612098E+03</pdfrwt>
<totfact> 0.66309072E+02</totfact>
</mgrwt>
</event>
<event>
 4    1  0.5886875E-005  0.5256622E+03  0.7818608E-02  0.1007290E+00
          2   -1    0    0  501    0  0.00000000000E+00  0.00000000000E+00  0.16464565462E+03  0.16464565464E+03  0.25500000000E-02 0.  1.
         -2   -1    0    0    0  501 -0.00000000000E+00 -0.00000000000E+00 -0.41956890756E+03  0.41956890757E+03  0.25500000000E-02 0. -1.
    5000001    1    1    2    0    0 -0.15544164077E+03 -0.37468682954E+02 -0.27004276604E+02  0.24827250521E+03  0.18800000000E+03 0.  0.
   -5000001    1    1    2    0    0  0.15544164077E+03  0.37468682954E+02 -0.22791897634E+03  0.33594205700E+03  0.18800000000E+03 0.  0.
<mgrwt>
<rscale>  0 0.52566224E+03</rscale>
<asrwt>0</asrwt>
<pdfrwt beam="1">  1        2 0.23520808E-01 0.52566224E+03</pdfrwt>
<pdfrwt beam="2">  1       -2 0.59938415E-01 0.52566224E+03</pdfrwt>
<totfact> 0.61455430E+02</totfact>
</mgrwt>
</event>
<event>
 4    1  0.5886875E-005  0.6362013E+03  0.7818608E-02  0.9833022E-01
          2   -1    0    0  501    0  0.00000000000E+00  0.00000000000E+00  0.21256831490E+03  0.21256831492E+03  0.25500000000E-02 0.  1.
         -2   -1    0    0    0  501 -0.00000000000E+00 -0.00000000000E+00 -0.47602586984E+03  0.47602586985E+03  0.25500000000E-02 0. -1.
    5000001    1    1    2    0    0 -0.17329835114E+03  0.13512519806E+03  0.11669190228E+02  0.28943273426E+03  0.18800000000E+03 0.  0.
   -5000001    1    1    2    0    0  0.17329835114E+03 -0.13512519806E+03 -0.27512674517E+03  0.39916145050E+03  0.18800000000E+03 0.  0.
<mgrwt>
<rscale>  0 0.63620128E+03</rscale>
<asrwt>0</asrwt>
<pdfrwt beam="1">  1        2 0.30366902E-01 0.63620128E+03</pdfrwt>
<pdfrwt beam="2">  1       -2 0.68003695E-01 0.63620128E+03</pdfrwt>
<totfact> 0.35085605E+02</totfact>
</mgrwt>
</event>
<event>
 4    1  0.5886875E-005  0.4970528E+03  0.7818608E-02  0.1014551E+00
         -2   -1    0    0    0  501 -0.00000000000E+00  0.00000000000E+00  0.12380687467E+03  0.12380687469E+03  0.25500000000E-02 0. -1.
          2   -1    0    0  501    0  0.00000000000E+00 -0.00000000000E+00 -0.49888475149E+03  0.49888475150E+03  0.25500000000E-02 0.  1.
    5000001    1    1    2    0    0 -0.25715132697E+02 -0.11987519058E+03 -0.32123943399E+03  0.39188021552E+03  0.18800000000E+03 0.  0.
   -5000001    1    1    2    0    0  0.25715132697E+02  0.11987519058E+03 -0.53838442830E+02  0.23081141067E+03  0.18800000000E+03 0.  0.
<mgrwt>
<rscale>  0 0.49705276E+03</rscale>
<asrwt>0</asrwt>
<pdfrwt beam="1">  1        2 0.71269249E-01 0.49705276E+03</pdfrwt>
<pdfrwt beam="2">  1       -2 0.17686697E-01 0.49705276E+03</pdfrwt>
<totfact> 0.17721565E+03</totfact>
</mgrwt>
</event>
<event>
 4    1  0.5886875E-005  0.7381186E+03  0.7818608E-02  0.9654177E-01
         -2   -1    0    0    0  501 -0.00000000000E+00  0.00000000000E+00  0.11544439679E+03  0.11544439681E+03  0.25500000000E-02 0. -1.
          2   -1    0    0  501    0  0.00000000000E+00 -0.00000000000E+00 -0.11798300481E+04  0.11798300481E+04  0.25500000000E-02 0.  1.
    5000001    1    1    2    0    0 -0.22885114312E+03  0.19474946458E+03 -0.71252752342E+03  0.79582640776E+03  0.18800000000E+03 0.  0.
   -5000001    1    1    2    0    0  0.22885114312E+03 -0.19474946458E+03 -0.35185812793E+03  0.49944803719E+03  0.18800000000E+03 0.  0.
<mgrwt>
<rscale>  0 0.73811860E+03</rscale>
<asrwt>0</asrwt>
<pdfrwt beam="1">  1        2 0.16854714E+00 0.73811860E+03</pdfrwt>
<pdfrwt beam="2">  1       -2 0.16492057E-01 0.73811860E+03</pdfrwt>
<totfact> 0.65776404E+02</totfact>
</mgrwt>
</event>
<event>
 4    1  0.5886875E-005  0.6554567E+03  0.7818608E-02  0.9796594E-01
         -2   -1    0    0    0  501 -0.00000000000E+00  0.00000000000E+00  0.14963552289E+03  0.14963552292E+03  0.25500000000E-02 0. -1.
          2   -1    0    0  501    0  0.00000000000E+00 -0.00000000000E+00 -0.71778331468E+03  0.71778331468E+03  0.25500000000E-02 0.  1.
    5000001    1    1    2    0    0 -0.97454609006E+02  0.21628607950E+03 -0.11780747922E+03  0.32480712917E+03  0.18800000000E+03 0.  0.
   -5000001    1    1    2    0    0  0.97454609006E+02 -0.21628607950E+03 -0.45034031257E+03  0.54261170843E+03  0.18800000000E+03 0.  0.
<mgrwt>
<rscale>  0 0.65545673E+03</rscale>
<asrwt>0</asrwt>
<pdfrwt beam="1">  1        2 0.10254047E+00 0.65545673E+03</pdfrwt>
<pdfrwt beam="2">  1       -2 0.21376504E-01 0.65545673E+03</pdfrwt>
<totfact> 0.83034288E+02</totfact>
</mgrwt>
</event>
<event>
 4    1  0.5886875E-005  0.6085782E+03  0.7818608E-02  0.9887767E-01
         -2   -1    0    0    0  501 -0.00000000000E+00  0.00000000000E+00  0.23588381193E+03  0.23588381195E+03  0.25500000000E-02 0. -1.
          2   -1    0    0  501    0  0.00000000000E+00 -0.00000000000E+00 -0.39253156876E+03  0.39253156877E+03  0.25500000000E-02 0.  1.
    5000001    1    1    2    0    0 -0.21429347818E+03 -0.78541686945E+02 -0.15247945349E+03  0.33269276384E+03  0.18800000000E+03 0.  0.
   -5000001    1    1    2    0    0  0.21429347818E+03  0.78541686945E+02 -0.41683033400E+01  0.29572261687E+03  0.18800000000E+03 0.  0.
<mgrwt>
<rscale>  0 0.60857816E+03</rscale>
<asrwt>0</asrwt>
<pdfrwt beam="1">  1        2 0.56075938E-01 0.60857816E+03</pdfrwt>
<pdfrwt beam="2">  1       -2 0.33697687E-01 0.60857816E+03</pdfrwt>
<totfact> 0.73080741E+02</totfact>
</mgrwt>
</event>
<event>
 4    1  0.5886875E-005  0.4957989E+03  0.7818608E-02  0.1014881E+00
          2   -1    0    0  501    0  0.00000000000E+00  0.00000000000E+00  0.10743712997E+03  0.10743713000E+03  0.25500000000E-02 0.  1.
         -2   -1    0    0    0  501 -0.00000000000E+00 -0.00000000000E+00 -0.57200101756E+03  0.57200101757E+03  0.25500000000E-02 0. -1.
    5000001    1    1    2    0    0 -0.12534204218E+03  0.10058987871E+03 -0.20930198515E+03  0.32400659287E+03  0.18800000000E+03 0.  0.
   -5000001    1    1    2    0    0  0.12534204218E+03 -0.10058987871E+03 -0.25526190244E+03  0.35543155470E+03  0.18800000000E+03 0.  0.
<mgrwt>
<rscale>  0 0.49579894E+03</rscale>
<asrwt>0</asrwt>
<pdfrwt beam="1">  1        2 0.15348162E-01 0.49579894E+03</pdfrwt>
<pdfrwt beam="2">  1       -2 0.81714430E-01 0.49579894E+03</pdfrwt>
<totfact> 0.51822622E+02</totfact>
</mgrwt>
</event>
<event>
 4    1  0.5886875E-005  0.5701943E+03  0.7818608E-02  0.9969249E-01
         -2   -1    0    0    0  501 -0.00000000000E+00  0.00000000000E+00  0.50017967329E+03  0.50017967329E+03  0.25500000000E-02 0. -1.
          2   -1    0    0  501    0  0.00000000000E+00 -0.00000000000E+00 -0.16250237950E+03  0.16250237952E+03  0.25500000000E-02 0.  1.
    5000001    1    1    2    0    0  0.11840289048E+03 -0.14782117338E+03  0.28544218519E+03  0.39075770608E+03  0.18800000000E+03 0.  0.
   -5000001    1    1    2    0    0 -0.11840289048E+03  0.14782117338E+03  0.52235108597E+02  0.27192434673E+03  0.18800000000E+03 0.  0.
<mgrwt>
<rscale>  0 0.57019431E+03</rscale>
<asrwt>0</asrwt>
<pdfrwt beam="1">  1        2 0.23214626E-01 0.57019431E+03</pdfrwt>
<pdfrwt beam="2">  1       -2 0.71454239E-01 0.57019431E+03</pdfrwt>
<totfact> 0.42819581E+02</totfact>
</mgrwt>
</event>
<event>
 4    1  0.5886875E-005  0.7910872E+03  0.7818608E-02  0.9573008E-01
          2   -1    0    0  501    0  0.00000000000E+00  0.00000000000E+00  0.93782829372E+03  0.93782829372E+03  0.25500000000E-02 0.  1.
         -2   -1    0    0    0  501 -0.00000000000E+00 -0.00000000000E+00 -0.16682664953E+03  0.16682664955E+03  0.25500000000E-02 0. -1.
    5000001    1    1    2    0    0  0.14619953991E+03  0.30649129042E+03  0.27916027966E+03  0.47810634624E+03  0.18800000000E+03 0.  0.
   -5000001    1    1    2    0    0 -0.14619953991E+03 -0.30649129042E+03  0.49184136453E+03  0.62654859703E+03  0.18800000000E+03 0.  0.
<mgrwt>
<rscale>  0 0.79108723E+03</rscale>
<asrwt>0</asrwt>
<pdfrwt beam="1">  1        2 0.13397547E+00 0.79108723E+03</pdfrwt>
<pdfrwt beam="2">  1       -2 0.23832379E-01 0.79108723E+03</pdfrwt>
<totfact> 0.48150671E+02</totfact>
</mgrwt>
</event>
<event>
 4    1  0.5886875E-005  0.4447630E+03  0.7818608E-02  0.1029295E+00
         -2   -1    0    0    0  501 -0.00000000000E+00  0.00000000000E+00  0.22829148224E+02  0.22829148366E+02  0.25500000000E-02 0. -1.
          2   -1    0    0  501    0  0.00000000000E+00 -0.00000000000E+00 -0.21662450482E+04  0.21662450482E+04  0.25500000000E-02 0.  1.
    5000001    1    1    2    0    0 -0.77346760864E+02 -0.60621938727E+01 -0.62900438267E+03  0.66106715622E+03  0.18800000000E+03 0.  0.
   -5000001    1    1    2    0    0  0.77346760864E+02  0.60621938727E+01 -0.15144115173E+04  0.15280070403E+04  0.18800000000E+03 0.  0.
<mgrwt>
<rscale>  0 0.44476299E+03</rscale>
<asrwt>0</asrwt>
<pdfrwt beam="1">  1        2 0.30946345E+00 0.44476299E+03</pdfrwt>
<pdfrwt beam="2">  1       -2 0.32613083E-02 0.44476299E+03</pdfrwt>
<totfact> 0.27183944E+03</totfact>
</mgrwt>
</event>
<event>
 4    1  0.5886875E-005  0.6423560E+03  0.7818608E-02  0.9821229E-01
         -2   -1    0    0    0  501 -0.00000000000E+00  0.00000000000E+00  0.82752106220E+02  0.82752106259E+02  0.25500000000E-02 0. -1.
          2   -1    0    0  501    0  0.00000000000E+00 -0.00000000000E+00 -0.12465582463E+04  0.12465582463E+04  0.25500000000E-02 0.  1.
    5000001    1    1    2    0    0  0.32082843078E+02 -0.19951985580E+03 -0.92178020894E+03  0.96221631418E+03  0.18800000000E+03 0.  0.
   -5000001    1    1    2    0    0 -0.32082843078E+02  0.19951985580E+03 -0.24202593116E+03  0.36709403840E+03  0.18800000000E+03 0.  0.
<mgrwt>
<rscale>  0 0.64235604E+03</rscale>
<asrwt>0</asrwt>
<pdfrwt beam="1">  1        2 0.17807974E+00 0.64235604E+03</pdfrwt>
<pdfrwt beam="2">  1       -2 0.11821730E-01 0.64235604E+03</pdfrwt>
<totfact> 0.10580265E+03</totfact>
</mgrwt>
</event>
<event>
 4    1  0.5886875E-005  0.6824204E+03  0.7818608E-02  0.9747777E-01
          2   -1    0    0  501    0  0.00000000000E+00  0.00000000000E+00  0.82752691364E+03  0.82752691365E+03  0.25500000000E-02 0.  1.
         -2   -1    0    0    0  501 -0.00000000000E+00 -0.00000000000E+00 -0.14068955180E+03  0.14068955182E+03  0.25500000000E-02 0. -1.
    5000001    1    1    2    0    0  0.27031713290E+03 -0.89063649340E+02  0.35584467809E+03  0.49292303750E+03  0.18800000000E+03 0.  0.
   -5000001    1    1    2    0    0 -0.27031713290E+03  0.89063649340E+02  0.33099268375E+03  0.47529342797E+03  0.18800000000E+03 0.  0.
<mgrwt>
<rscale>  0 0.68242037E+03</rscale>
<asrwt>0</asrwt>
<pdfrwt beam="1">  1        2 0.11821813E+00 0.68242037E+03</pdfrwt>
<pdfrwt beam="2">  1       -2 0.20098508E-01 0.68242037E+03</pdfrwt>
<totfact> 0.77208282E+02</totfact>
</mgrwt>
</event>
<event>
 4    1  0.5886875E-005  0.3931067E+03  0.7818608E-02  0.1046193E+00
         -2   -1    0    0    0  501 -0.00000000000E+00  0.00000000000E+00  0.33025624836E+02  0.33025624935E+02  0.25500000000E-02 0. -1.
          2   -1    0    0  501    0  0.00000000000E+00 -0.00000000000E+00 -0.11697951837E+04  0.11697951837E+04  0.25500000000E-02 0.  1.
    5000001    1    1    2    0    0 -0.20071403173E+02 -0.52799714765E+02 -0.59875931342E+03  0.63011696256E+03  0.18800000000E+03 0.  0.
   -5000001    1    1    2    0    0  0.20071403173E+02  0.52799714765E+02 -0.53801024545E+03  0.57270384608E+03  0.18800000000E+03 0.  0.
<mgrwt>
<rscale>  0 0.39310669E+03</rscale>
<asrwt>0</asrwt>
<pdfrwt beam="1">  1        2 0.16711357E+00 0.39310669E+03</pdfrwt>
<pdfrwt beam="2">  1       -2 0.47179471E-02 0.39310669E+03</pdfrwt>
<totfact> 0.50080060E+03</totfact>
</mgrwt>
</event>
<event>
 4    1  0.5886875E-005  0.5567209E+03  0.7818608E-02  0.9999502E-01
         -2   -1    0    0    0  501 -0.00000000000E+00  0.00000000000E+00  0.30561005050E+02  0.30561005157E+02  0.25500000000E-02 0.  1.
          2   -1    0    0  501    0  0.00000000000E+00 -0.00000000000E+00 -0.25354054056E+04  0.25354054056E+04  0.25500000000E-02 0. -1.
    5000001    1    1    2    0    0 -0.53268641473E+02 -0.19774094532E+03 -0.13178495776E+04  0.13468520849E+04  0.18800000000E+03 0.  0.
   -5000001    1    1    2    0    0  0.53268641473E+02  0.19774094532E+03 -0.11869948230E+04  0.12191143258E+04  0.18800000000E+03 0.  0.
<mgrwt>
<rscale>  0 0.55672089E+03</rscale>
<asrwt>0</asrwt>
<pdfrwt beam="1">  1        2 0.36220064E+00 0.55672089E+03</pdfrwt>
<pdfrwt beam="2">  1       -2 0.43658595E-02 0.55672089E+03</pdfrwt>
<totfact> 0.11267233E+03</totfact>
</mgrwt>
</event>
<event>
 4    1  0.5886875E-005  0.7097376E+03  0.7818608E-02  0.9700723E-01
          2   -1    0    0  501    0  0.00000000000E+00  0.00000000000E+00  0.21103079017E+03  0.21103079018E+03  0.25500000000E-02 0.  1.
         -2   -1    0    0    0  501 -0.00000000000E+00 -0.00000000000E+00 -0.59674639170E+03  0.59674639171E+03  0.25500000000E-02 0. -1.
    5000001    1    1    2    0    0  0.34238633680E+02 -0.27928653362E+03 -0.31445521051E+03  0.46195165474E+03  0.18800000000E+03 0.  0.
   -5000001    1    1    2    0    0 -0.34238633680E+02  0.27928653362E+03 -0.71260391023E+02  0.34582552715E+03  0.18800000000E+03 0.  0.
<mgrwt>
<rscale>  0 0.70973759E+03</rscale>
<asrwt>0</asrwt>
<pdfrwt beam="1">  1        2 0.30147256E-01 0.70973759E+03</pdfrwt>
<pdfrwt beam="2">  1       -2 0.85249484E-01 0.70973759E+03</pdfrwt>
<totfact> 0.21383431E+02</totfact>
</mgrwt>
</event>
<event>
 4    1  0.5886875E-005  0.4331933E+03  0.7818608E-02  0.1032856E+00
         -2   -1    0    0    0  501 -0.00000000000E+00  0.00000000000E+00  0.14540967795E+03  0.14540967797E+03  0.25500000000E-02 0. -1.
          2   -1    0    0  501    0  0.00000000000E+00 -0.00000000000E+00 -0.32263407132E+03  0.32263407133E+03  0.25500000000E-02 0.  1.
    5000001    1    1    2    0    0  0.58074023628E+02  0.60955771614E+01 -0.18621438589E+03  0.27097886595E+03  0.18800000000E+03 0.  0.
   -5000001    1    1    2    0    0 -0.58074023628E+02 -0.60955771614E+01  0.89899925160E+01  0.19706488334E+03  0.18800000000E+03 0.  0.
<mgrwt>
<rscale>  0 0.43319334E+03</rscale>
<asrwt>0</asrwt>
<pdfrwt beam="1">  1        2 0.46090581E-01 0.43319334E+03</pdfrwt>
<pdfrwt beam="2">  1       -2 0.20772811E-01 0.43319334E+03</pdfrwt>
<totfact> 0.21727229E+03</totfact>
</mgrwt>
</event>
<event>
 4    1  0.5886875E-005  0.1591378E+04  0.7818608E-02  0.8825862E-01
         -2   -1    0    0    0  501 -0.00000000000E+00  0.00000000000E+00  0.67026672570E+03  0.67026672570E+03  0.25500000000E-02 0. -1.
          2   -1    0    0  501    0  0.00000000000E+00 -0.00000000000E+00 -0.94458073391E+03  0.94458073392E+03  0.25500000000E-02 0.  1.
    5000001    1    1    2    0    0 -0.49239294133E+03  0.32874110160E+03  0.36742427230E+03  0.72171054893E+03  0.18800000000E+03 0.  0.
   -5000001    1    1    2    0    0  0.49239294133E+03 -0.32874110160E+03 -0.64173828052E+03  0.89313691069E+03  0.18800000000E+03 0.  0.
<mgrwt>
<rscale>  0 0.15913781E+04</rscale>
<asrwt>0</asrwt>
<pdfrwt beam="1">  1        2 0.13494010E+00 0.15913781E+04</pdfrwt>
<pdfrwt beam="2">  1       -2 0.95752390E-01 0.15913781E+04</pdfrwt>
<totfact> 0.26783229E+01</totfact>
</mgrwt>
</event>
<event>
 4    1  0.5886875E-005  0.8038072E+03  0.7818608E-02  0.9554523E-01
          2   -1    0    0  501    0  0.00000000000E+00  0.00000000000E+00  0.21060736769E+03  0.21060736771E+03  0.25500000000E-02 0.  1.
         -2   -1    0    0    0  501 -0.00000000000E+00 -0.00000000000E+00 -0.76695557074E+03  0.76695557075E+03  0.25500000000E-02 0. -1.
    5000001    1    1    2    0    0 -0.82354022880E+02  0.34459496798E+03 -0.30929029349E+03  0.50649023948E+03  0.18800000000E+03 0.  0.
   -5000001    1    1    2    0    0  0.82354022880E+02 -0.34459496798E+03 -0.24705790956E+03  0.47107269897E+03  0.18800000000E+03 0.  0.
<mgrwt>
<rscale>  0 0.80380718E+03</rscale>
<asrwt>0</asrwt>
<pdfrwt beam="1">  1        2 0.30086767E-01 0.80380718E+03</pdfrwt>
<pdfrwt beam="2">  1       -2 0.10956508E+00 0.80380718E+03</pdfrwt>
<totfact> 0.11851313E+02</totfact>
</mgrwt>
</event>
<event>
 4    1  0.5886875E-005  0.5236858E+03  0.7818608E-02  0.1007775E+00
         -2   -1    0    0    0  501 -0.00000000000E+00  0.00000000000E+00  0.17416573013E+02  0.17416573200E+02  0.25500000000E-02 0. -1.
          2   -1    0    0  501    0  0.00000000000E+00 -0.00000000000E+00 -0.39365781920E+04  0.39365781920E+04  0.25500000000E-02 0.  1.
    5000001    1    1    2    0    0 -0.17367664825E+03  0.51940138988E+02 -0.18170525263E+04  0.18357247178E+04  0.18800000000E+03 0.  0.
   -5000001    1    1    2    0    0  0.17367664825E+03 -0.51940138988E+02 -0.21021090927E+04  0.21182700474E+04  0.18800000000E+03 0.  0.
<mgrwt>
<rscale>  0 0.52368579E+03</rscale>
<asrwt>0</asrwt>
<pdfrwt beam="1">  1        2 0.56236774E+00 0.52368579E+03</pdfrwt>
<pdfrwt beam="2">  1       -2 0.24880844E-02 0.52368579E+03</pdfrwt>
<totfact> 0.42315603E+02</totfact>
</mgrwt>
</event>
<event>
 4    1  0.5886875E-005  0.7725127E+03  0.7818608E-02  0.9600679E-01
         -2   -1    0    0    0  501 -0.00000000000E+00  0.00000000000E+00  0.10688160299E+03  0.10688160302E+03  0.25500000000E-02 0. -1.
          2   -1    0    0  501    0  0.00000000000E+00 -0.00000000000E+00 -0.13958807523E+04  0.13958807523E+04  0.25500000000E-02 0.  1.
    5000001    1    1    2    0    0  0.28524978209E+02 -0.29658259205E+03 -0.33646057879E+03  0.48715975754E+03  0.18800000000E+03 0.  0.
   -5000001    1    1    2    0    0 -0.28524978209E+02  0.29658259205E+03 -0.95253857053E+03  0.10156025978E+04  0.18800000000E+03 0.  0.
<mgrwt>
<rscale>  0 0.77251271E+03</rscale>
<asrwt>0</asrwt>
<pdfrwt beam="1">  1        2 0.19941152E+00 0.77251271E+03</pdfrwt>
<pdfrwt beam="2">  1       -2 0.15268801E-01 0.77251271E+03</pdfrwt>
<totfact> 0.56932506E+02</totfact>
</mgrwt>
</event>
<event>
 4    1  0.5886875E-005  0.4522110E+03  0.7818608E-02  0.1027065E+00
         -2   -1    0    0    0  501 -0.00000000000E+00  0.00000000000E+00  0.11903513325E+03  0.11903513328E+03  0.25500000000E-02 0. -1.
          2   -1    0    0  501    0  0.00000000000E+00 -0.00000000000E+00 -0.42948416919E+03  0.42948416920E+03  0.25500000000E-02 0.  1.
    5000001    1    1    2    0    0  0.51595008224E+02  0.70231087425E+02 -0.45484036908E+02  0.21214911767E+03  0.18800000000E+03 0.  0.
   -5000001    1    1    2    0    0 -0.51595008224E+02 -0.70231087425E+02 -0.26496499904E+03  0.33637018481E+03  0.18800000000E+03 0.  0.
<mgrwt>
<rscale>  0 0.45221104E+03</rscale>
<asrwt>0</asrwt>
<pdfrwt beam="1">  1        2 0.61354881E-01 0.45221104E+03</pdfrwt>
<pdfrwt beam="2">  1       -2 0.17005019E-01 0.45221104E+03</pdfrwt>
<totfact> 0.22385718E+03</totfact>
</mgrwt>
</event>
<event>
 4    1  0.5886875E-005  0.4586387E+03  0.7818608E-02  0.1025177E+00
         -2   -1    0    0    0  501 -0.00000000000E+00  0.00000000000E+00  0.78658644943E+03  0.78658644944E+03  0.25500000000E-02 0. -1.
          2   -1    0    0  501    0  0.00000000000E+00 -0.00000000000E+00 -0.66855159750E+02  0.66855159799E+02  0.25500000000E-02 0.  1.
    5000001    1    1    2    0    0  0.12706475292E+03 -0.15067795861E+02  0.30495197136E+03  0.38041056077E+03  0.18800000000E+03 0.  0.
   -5000001    1    1    2    0    0 -0.12706475292E+03  0.15067795861E+02  0.41477931832E+03  0.47303104847E+03  0.18800000000E+03 0.  0.
<mgrwt>
<rscale>  0 0.45863869E+03</rscale>
<asrwt>0</asrwt>
<pdfrwt beam="1">  1        2 0.95507375E-02 0.45863869E+03</pdfrwt>
<pdfrwt beam="2">  1       -2 0.11236949E+00 0.45863869E+03</pdfrwt>
<totfact> 0.44417023E+02</totfact>
</mgrwt>
</event>
<event>
 4    1  0.5886875E-005  0.6339299E+03  0.7818608E-02  0.9837410E-01
          2   -1    0    0  501    0  0.00000000000E+00  0.00000000000E+00  0.84219479365E+03  0.84219479366E+03  0.25500000000E-02 0.  1.
         -2   -1    0    0    0  501 -0.00000000000E+00 -0.00000000000E+00 -0.11929163081E+03  0.11929163084E+03  0.25500000000E-02 0. -1.
    5000001    1    1    2    0    0  0.10490387260E+03 -0.20779313095E+03  0.52009067274E+03  0.60001759610E+03  0.18800000000E+03 0.  0.
   -5000001    1    1    2    0    0 -0.10490387260E+03  0.20779313095E+03  0.20281249010E+03  0.36146882839E+03  0.18800000000E+03 0.  0.
<mgrwt>
<rscale>  0 0.63392993E+03</rscale>
<asrwt>0</asrwt>
<pdfrwt beam="1">  1        2 0.12031354E+00 0.63392993E+03</pdfrwt>
<pdfrwt beam="2">  1       -2 0.17041662E-01 0.63392993E+03</pdfrwt>
<totfact> 0.10046952E+03</totfact>
</mgrwt>
</event>
<event>
 4    1  0.5886875E-005  0.5767872E+03  0.7818608E-02  0.9954771E-01
          2   -1    0    0  501    0  0.00000000000E+00  0.00000000000E+00  0.12944305118E+04  0.12944305118E+04  0.25500000000E-02 0. -1.
         -2   -1    0    0    0  501 -0.00000000000E+00 -0.00000000000E+00 -0.64252854112E+02  0.64252854163E+02  0.25500000000E-02 0.  1.
    5000001    1    1    2    0    0 -0.18874230471E+03 -0.10899317231E+03  0.65746916693E+03  0.71771364392E+03  0.18800000000E+03 0.  0.
   -5000001    1    1    2    0    0  0.18874230471E+03  0.10899317231E+03  0.57270849077E+03  0.64096972206E+03  0.18800000000E+03 0.  0.
<mgrwt>
<rscale>  0 0.57678715E+03</rscale>
<asrwt>0</asrwt>
<pdfrwt beam="1">  1        2 0.18491866E+00 0.57678715E+03</pdfrwt>
<pdfrwt beam="2">  1       -2 0.91789785E-02 0.57678715E+03</pdfrwt>
<totfact> 0.15061324E+03</totfact>
</mgrwt>
</event>
<event>
 4    1  0.5886875E-005  0.7342091E+03  0.7818608E-02  0.9660455E-01
         -2   -1    0    0    0  501 -0.00000000000E+00  0.00000000000E+00  0.18317342590E+03  0.18317342591E+03  0.25500000000E-02 0. -1.
          2   -1    0    0  501    0  0.00000000000E+00 -0.00000000000E+00 -0.73572767568E+03  0.73572767569E+03  0.25500000000E-02 0.  1.
    5000001    1    1    2    0    0  0.26223634839E+03  0.16587322498E+03 -0.20614629809E+03  0.41727943323E+03  0.18800000000E+03 0.  0.
   -5000001    1    1    2    0    0 -0.26223634839E+03 -0.16587322498E+03 -0.34640795170E+03  0.50162166837E+03  0.18800000000E+03 0.  0.
<mgrwt>
<rscale>  0 0.73420912E+03</rscale>
<asrwt>0</asrwt>
<pdfrwt beam="1">  1        2 0.10510395E+00 0.73420912E+03</pdfrwt>
<pdfrwt beam="2">  1       -2 0.26167633E-01 0.73420912E+03</pdfrwt>
<totfact> 0.55991351E+02</totfact>
</mgrwt>
</event>
<event>
 4    1  0.5886875E-005  0.8860593E+03  0.7818608E-02  0.9443178E-01
          2   -1    0    0  501    0  0.00000000000E+00  0.00000000000E+00  0.13451586223E+04  0.13451586223E+04  0.25500000000E-02 0.  1.
         -2   -1    0    0    0  501 -0.00000000000E+00 -0.00000000000E+00 -0.14591235614E+03  0.14591235616E+03  0.25500000000E-02 0. -1.
    5000001    1    1    2    0    0  0.56834442722E+02 -0.39451815190E+03  0.67593707681E+03  0.80691366196E+03  0.18800000000E+03 0.  0.
   -5000001    1    1    2    0    0 -0.56834442722E+02  0.39451815190E+03  0.52330918933E+03  0.68415731648E+03  0.18800000000E+03 0.  0.
<mgrwt>
<rscale>  0 0.88605928E+03</rscale>
<asrwt>0</asrwt>
<pdfrwt beam="1">  1        2 0.19216552E+00 0.88605928E+03</pdfrwt>
<pdfrwt beam="2">  1       -2 0.20844623E-01 0.88605928E+03</pdfrwt>
<totfact> 0.35222953E+02</totfact>
</mgrwt>
</event>
<event>
 4    1  0.5886875E-005  0.8931570E+03  0.7818608E-02  0.9434176E-01
         -2   -1    0    0    0  501 -0.00000000000E+00  0.00000000000E+00  0.85100800097E+03  0.85100800097E+03  0.25500000000E-02 0. -1.
          2   -1    0    0  501    0  0.00000000000E+00 -0.00000000000E+00 -0.23434836738E+03  0.23434836740E+03  0.25500000000E-02 0.  1.
    5000001    1    1    2    0    0  0.16960900877E+03 -0.62941577146E+02 -0.13209854890E+03  0.29244295958E+03  0.18800000000E+03 0.  0.
   -5000001    1    1    2    0    0 -0.16960900877E+03  0.62941577146E+02  0.74875818249E+03  0.79291340879E+03  0.18800000000E+03 0.  0.
<mgrwt>
<rscale>  0 0.89315695E+03</rscale>
<asrwt>0</asrwt>
<pdfrwt beam="1">  1        2 0.33478338E-01 0.89315695E+03</pdfrwt>
<pdfrwt beam="2">  1       -2 0.12157257E+00 0.89315695E+03</pdfrwt>
<totfact> 0.81112726E+01</totfact>
</mgrwt>
</event>
<event>
 4    1  0.5886875E-005  0.4099179E+03  0.7818608E-02  0.1040399E+00
          2   -1    0    0  501    0  0.00000000000E+00  0.00000000000E+00  0.11799633254E+04  0.11799633254E+04  0.25500000000E-02 0.  1.
         -2   -1    0    0    0  501 -0.00000000000E+00 -0.00000000000E+00 -0.35601252726E+02  0.35601252817E+02  0.25500000000E-02 0. -1.
    5000001    1    1    2    0    0 -0.71098711165E+02 -0.24001765527E+02  0.66749228453E+03  0.69751061740E+03  0.18800000000E+03 0.  0.
   -5000001    1    1    2    0    0  0.71098711165E+02  0.24001765527E+02  0.47686978816E+03  0.51805396083E+03  0.18800000000E+03 0.  0.
<mgrwt>
<rscale>  0 0.40991791E+03</rscale>
<asrwt>0</asrwt>
<pdfrwt beam="1">  1        2 0.16856619E+00 0.40991791E+03</pdfrwt>
<pdfrwt beam="2">  1       -2 0.50858934E-02 0.40991791E+03</pdfrwt>
<totfact> 0.44070446E+03</totfact>
</mgrwt>
</event>
<event>
 4    1  0.5886875E-005  0.5705089E+03  0.7818608E-02  0.9968553E-01
          2   -1    0    0  501    0  0.00000000000E+00  0.00000000000E+00  0.14517266787E+04  0.14517266787E+04  0.25500000000E-02 0.  1.
         -2   -1    0    0    0  501 -0.00000000000E+00 -0.00000000000E+00 -0.56050567846E+02  0.56050567904E+02  0.25500000000E-02 0. -1.
    5000001    1    1    2    0    0  0.10059931532E+03  0.14881936373E+03  0.38783703117E+03  0.46693574292E+03  0.18800000000E+03 0.  0.
   -5000001    1    1    2    0    0 -0.10059931532E+03 -0.14881936373E+03  0.10078390797E+04  0.10408415037E+04  0.18800000000E+03 0.  0.
<mgrwt>
<rscale>  0 0.57050891E+03</rscale>
<asrwt>0</asrwt>
<pdfrwt beam="1">  1        2 0.20738953E+00 0.57050891E+03</pdfrwt>
<pdfrwt beam="2">  1       -2 0.80072237E-02 0.57050891E+03</pdfrwt>
<totfact> 0.15449387E+03</totfact>
</mgrwt>
</event>
<event>
 4    1  0.5886875E-005  0.7614090E+03  0.7818608E-02  0.9617620E-01
          2   -1    0    0  501    0  0.00000000000E+00  0.00000000000E+00  0.12988365105E+04  0.12988365105E+04  0.25500000000E-02 0.  1.
         -2   -1    0    0    0  501 -0.00000000000E+00 -0.00000000000E+00 -0.11158902799E+03  0.11158902802E+03  0.25500000000E-02 0. -1.
    5000001    1    1    2    0    0  0.39092082153E+02 -0.23938158283E+03  0.17628018464E+03  0.35390738419E+03  0.18800000000E+03 0.  0.
   -5000001    1    1    2    0    0 -0.39092082153E+02  0.23938158283E+03  0.10109672979E+04  0.10565181543E+04  0.18800000000E+03 0.  0.
<mgrwt>
<rscale>  0 0.76140897E+03</rscale>
<asrwt>0</asrwt>
<pdfrwt beam="1">  1        2 0.18554808E+00 0.76140897E+03</pdfrwt>
<pdfrwt beam="2">  1       -2 0.15941289E-01 0.76140897E+03</pdfrwt>
<totfact> 0.59757932E+02</totfact>
</mgrwt>
</event>
<event>
 4    1  0.5886875E-005  0.4878816E+03  0.7818608E-02  0.1016991E+00
         -2   -1    0    0    0  501 -0.00000000000E+00  0.00000000000E+00  0.21061534094E+02  0.21061534249E+02  0.25500000000E-02 0. -1.
          2   -1    0    0  501    0  0.00000000000E+00 -0.00000000000E+00 -0.28253930852E+04  0.28253930853E+04  0.25500000000E-02 0.  1.
    5000001    1    1    2    0    0 -0.34337520168E+02 -0.14982623604E+03 -0.12670731461E+04  0.12901338395E+04  0.18800000000E+03 0.  0.
   -5000001    1    1    2    0    0  0.34337520168E+02  0.14982623604E+03 -0.15372584051E+04  0.15563207800E+04  0.18800000000E+03 0.  0.
<mgrwt>
<rscale>  0 0.48788160E+03</rscale>
<asrwt>0</asrwt>
<pdfrwt beam="1">  1        2 0.40362734E+00 0.48788160E+03</pdfrwt>
<pdfrwt beam="2">  1       -2 0.30087924E-02 0.48788160E+03</pdfrwt>
<totfact> 0.14123443E+03</totfact>
</mgrwt>
</event>
<event>
 4    1  0.5886875E-005  0.5537119E+03  0.7818608E-02  0.1000638E+00
          2   -1    0    0  501    0  0.00000000000E+00  0.00000000000E+00  0.16851444949E+04  0.16851444949E+04  0.25500000000E-02 0.  1.
         -2   -1    0    0    0  501 -0.00000000000E+00 -0.00000000000E+00 -0.45485243319E+02  0.45485243391E+02  0.25500000000E-02 0. -1.
    5000001    1    1    2    0    0  0.12738744024E+03 -0.11678789363E+03  0.11541015086E+04  0.11820157631E+04  0.18800000000E+03 0.  0.
   -5000001    1    1    2    0    0 -0.12738744024E+03  0.11678789363E+03  0.48555774303E+03  0.54861397526E+03  0.18800000000E+03 0.  0.
<mgrwt>
<rscale>  0 0.55371187E+03</rscale>
<asrwt>0</asrwt>
<pdfrwt beam="1">  1        2 0.24073489E+00 0.55371187E+03</pdfrwt>
<pdfrwt beam="2">  1       -2 0.64978930E-02 0.55371187E+03</pdfrwt>
<totfact> 0.16304378E+03</totfact>
</mgrwt>
</event>
<event>
 4    1  0.5886875E-005  0.6274917E+03  0.7818608E-02  0.9849956E-01
         -2   -1    0    0    0  501 -0.00000000000E+00  0.00000000000E+00  0.64171204670E+02  0.64171204721E+02  0.25500000000E-02 0. -1.
          2   -1    0    0  501    0  0.00000000000E+00 -0.00000000000E+00 -0.15339664192E+04  0.15339664192E+04  0.25500000000E-02 0.  1.
    5000001    1    1    2    0    0  0.71582240291E+02 -0.23003738027E+03 -0.55388617535E+03  0.63259395246E+03  0.18800000000E+03 0.  0.
   -5000001    1    1    2    0    0 -0.71582240291E+02  0.23003738027E+03 -0.91590903920E+03  0.96554367148E+03  0.18800000000E+03 0.  0.
<mgrwt>
<rscale>  0 0.62749175E+03</rscale>
<asrwt>0</asrwt>
<pdfrwt beam="1">  1        2 0.21913804E+00 0.62749175E+03</pdfrwt>
<pdfrwt beam="2">  1       -2 0.91673159E-02 0.62749175E+03</pdfrwt>
<totfact> 0.11246088E+03</totfact>
</mgrwt>
</event>
<event>
 4    1  0.5886875E-005  0.9399735E+03  0.7818608E-02  0.9376947E-01
         -2   -1    0    0    0  501 -0.00000000000E+00  0.00000000000E+00  0.12374759509E+03  0.12374759512E+03  0.25500000000E-02 0. -1.
          2   -1    0    0  501    0  0.00000000000E+00 -0.00000000000E+00 -0.17849846719E+04  0.17849846719E+04  0.25500000000E-02 0.  1.
    5000001    1    1    2    0    0 -0.79085603113E+02 -0.39866133517E+03 -0.11203520523E+04  0.12065314392E+04  0.18800000000E+03 0.  0.
   -5000001    1    1    2    0    0  0.79085603113E+02  0.39866133517E+03 -0.54088502446E+03  0.70220082773E+03  0.18800000000E+03 0.  0.
<mgrwt>
<rscale>  0 0.93997353E+03</rscale>
<asrwt>0</asrwt>
<pdfrwt beam="1">  1        2 0.25499780E+00 0.93997353E+03</pdfrwt>
<pdfrwt beam="2">  1       -2 0.17678229E-01 0.93997353E+03</pdfrwt>
<totfact> 0.27501985E+02</totfact>
</mgrwt>
</event>
<event>
 4    1  0.5886875E-005  0.4652266E+03  0.7818608E-02  0.1023276E+00
          2   -1    0    0  501    0  0.00000000000E+00  0.00000000000E+00  0.76529220729E+03  0.76529220730E+03  0.25500000000E-02 0.  1.
         -2   -1    0    0    0  501 -0.00000000000E+00 -0.00000000000E+00 -0.70703648580E+02  0.70703648626E+02  0.25500000000E-02 0. -1.
    5000001    1    1    2    0    0  0.32850951682E+02  0.12644602101E+03  0.27326521672E+03  0.35649075714E+03  0.18800000000E+03 0.  0.
   -5000001    1    1    2    0    0 -0.32850951682E+02 -0.12644602101E+03  0.42132334199E+03  0.47950509879E+03  0.18800000000E+03 0.  0.
<mgrwt>
<rscale>  0 0.46522662E+03</rscale>
<asrwt>0</asrwt>
<pdfrwt beam="1">  1        2 0.10932746E+00 0.46522662E+03</pdfrwt>
<pdfrwt beam="2">  1       -2 0.10100521E-01 0.46522662E+03</pdfrwt>
<totfact> 0.27051920E+03</totfact>
</mgrwt>
</event>
<event>
 4    1  0.5886875E-005  0.4006000E+03  0.7818608E-02  0.1043572E+00
         -2   -1    0    0    0  501 -0.00000000000E+00  0.00000000000E+00  0.45982171901E+02  0.45982171971E+02  0.25500000000E-02 0. -1.
          2   -1    0    0  501    0  0.00000000000E+00 -0.00000000000E+00 -0.87251396932E+03  0.87251396932E+03  0.25500000000E-02 0.  1.
    5000001    1    1    2    0    0 -0.47378054365E+02  0.30248776769E+02 -0.32108448688E+03  0.37629631442E+03  0.18800000000E+03 0.  0.
   -5000001    1    1    2    0    0  0.47378054365E+02 -0.30248776769E+02 -0.50544731053E+03  0.54219982687E+03  0.18800000000E+03 0.  0.
<mgrwt>
<rscale>  0 0.40059999E+03</rscale>
<asrwt>0</asrwt>
<pdfrwt beam="1">  1        2 0.12464484E+00 0.40059999E+03</pdfrwt>
<pdfrwt beam="2">  1       -2 0.65688822E-02 0.40059999E+03</pdfrwt>
<totfact> 0.45192526E+03</totfact>
</mgrwt>
</event>
<event>
 4    1  0.5886875E-005  0.9113501E+03  0.7818608E-02  0.9411503E-01
         -2   -1    0    0    0  501 -0.00000000000E+00  0.00000000000E+00  0.17740430477E+03  0.17740430479E+03  0.25500000000E-02 0. -1.
          2   -1    0    0  501    0  0.00000000000E+00 -0.00000000000E+00 -0.11704323042E+04  0.11704323042E+04  0.25500000000E-02 0.  1.
    5000001    1    1    2    0    0 -0.24705601118E+03 -0.31781905071E+03 -0.64624655528E+03  0.78423480659E+03  0.18800000000E+03 0.  0.
   -5000001    1    1    2    0    0  0.24705601118E+03  0.31781905071E+03 -0.34678144413E+03  0.56360180238E+03  0.18800000000E+03 0.  0.
<mgrwt>
<rscale>  0 0.91135005E+03</rscale>
<asrwt>0</asrwt>
<pdfrwt beam="1">  1        2 0.16720461E+00 0.91135005E+03</pdfrwt>
<pdfrwt beam="2">  1       -2 0.25343473E-01 0.91135005E+03</pdfrwt>
<totfact> 0.31059287E+02</totfact>
</mgrwt>
</event>
<event>
 4    1  0.5886875E-005  0.4011761E+03  0.7818608E-02  0.1043373E+00
         -2   -1    0    0    0  501 -0.00000000000E+00  0.00000000000E+00  0.52907608398E+02  0.52907608459E+02  0.25500000000E-02 0. -1.
          2   -1    0    0  501    0  0.00000000000E+00 -0.00000000000E+00 -0.76048745042E+03  0.76048745042E+03  0.25500000000E-02 0.  1.
    5000001    1    1    2    0    0 -0.25492488026E+02  0.58185800368E+02 -0.29446553657E+03  0.35509070185E+03  0.18800000000E+03 0.  0.
   -5000001    1    1    2    0    0  0.25492488026E+02 -0.58185800368E+02 -0.41311430545E+03  0.45830435703E+03  0.18800000000E+03 0.  0.
<mgrwt>
<rscale>  0 0.40117613E+03</rscale>
<asrwt>0</asrwt>
<pdfrwt beam="1">  1        2 0.10864106E+00 0.40117613E+03</pdfrwt>
<pdfrwt beam="2">  1       -2 0.75582303E-02 0.40117613E+03</pdfrwt>
<totfact> 0.43183657E+03</totfact>
</mgrwt>
</event>
<event>
 4    1  0.5886875E-005  0.3929568E+03  0.7818608E-02  0.1046246E+00
         -2   -1    0    0    0  501 -0.00000000000E+00  0.00000000000E+00  0.48326681256E+02  0.48326681323E+02  0.25500000000E-02 0. -1.
          2   -1    0    0  501    0  0.00000000000E+00 -0.00000000000E+00 -0.79880847850E+03  0.79880847850E+03  0.25500000000E-02 0.  1.
    5000001    1    1    2    0    0  0.17280641549E+02 -0.44509523255E+02 -0.44272955709E+03  0.48335616160E+03  0.18800000000E+03 0.  0.
   -5000001    1    1    2    0    0 -0.17280641549E+02  0.44509523255E+02 -0.30775224014E+03  0.36377899822E+03  0.18800000000E+03 0.  0.
<mgrwt>
<rscale>  0 0.39295681E+03</rscale>
<asrwt>0</asrwt>
<pdfrwt beam="1">  1        2 0.11411549E+00 0.39295681E+03</pdfrwt>
<pdfrwt beam="2">  1       -2 0.69038121E-02 0.39295681E+03</pdfrwt>
<totfact> 0.46795437E+03</totfact>
</mgrwt>
</event>
<event>
 4    1  0.5886875E-005  0.5702316E+03  0.7818608E-02  0.9969166E-01
         -2   -1    0    0    0  501 -0.00000000000E+00  0.00000000000E+00  0.40219696259E+02  0.40219696340E+02  0.25500000000E-02 0. -1.
          2   -1    0    0  501    0  0.00000000000E+00 -0.00000000000E+00 -0.20211747029E+04  0.20211747029E+04  0.25500000000E-02 0.  1.
    5000001    1    1    2    0    0 -0.19532124922E+03 -0.73588758023E+01 -0.67238745521E+03  0.72501960895E+03  0.18800000000E+03 0.  0.
   -5000001    1    1    2    0    0  0.19532124922E+03  0.73588758023E+01 -0.13085675515E+04  0.13363747903E+04  0.18800000000E+03 0.  0.
<mgrwt>
<rscale>  0 0.57023165E+03</rscale>
<asrwt>0</asrwt>
<pdfrwt beam="1">  1        2 0.28873918E+00 0.57023165E+03</pdfrwt>
<pdfrwt beam="2">  1       -2 0.57456722E-02 0.57023165E+03</pdfrwt>
<totfact> 0.13381961E+03</totfact>
</mgrwt>
</event>
<event>
 4    1  0.5886875E-005  0.1398050E+04  0.7818608E-02  0.8955231E-01
         -2   -1    0    0    0  501 -0.00000000000E+00  0.00000000000E+00  0.64516062678E+03  0.64516062678E+03  0.25500000000E-02 0. -1.
          2   -1    0    0  501    0  0.00000000000E+00 -0.00000000000E+00 -0.75738703525E+03  0.75738703526E+03  0.25500000000E-02 0.  1.
    5000001    1    1    2    0    0  0.65561322929E+03  0.12455890550E+03 -0.14555529121E+03  0.70843063892E+03  0.18800000000E+03 0.  0.
   -5000001    1    1    2    0    0 -0.65561322929E+03 -0.12455890550E+03  0.33328882734E+02  0.69411702312E+03  0.18800000000E+03 0.  0.
<mgrwt>
<rscale>  0 0.13980505E+04</rscale>
<asrwt>0</asrwt>
<pdfrwt beam="1">  1        2 0.10819815E+00 0.13980505E+04</pdfrwt>
<pdfrwt beam="2">  1       -2 0.92165804E-01 0.13980505E+04</pdfrwt>
<totfact> 0.39773549E+01</totfact>
</mgrwt>
</event>
<event>
 4    1  0.5886875E-005  0.6329821E+03  0.7818608E-02  0.9839247E-01
         -2   -1    0    0    0  501 -0.00000000000E+00  0.00000000000E+00  0.12220933900E+03  0.12220933903E+03  0.25500000000E-02 0. -1.
          2   -1    0    0  501    0  0.00000000000E+00 -0.00000000000E+00 -0.81963113928E+03  0.81963113929E+03  0.25500000000E-02 0.  1.
    5000001    1    1    2    0    0 -0.23728432064E+03  0.84906364620E+02 -0.40255795207E+03  0.51079334799E+03  0.18800000000E+03 0.  0.
   -5000001    1    1    2    0    0  0.23728432064E+03 -0.84906364620E+02 -0.29486384821E+03  0.43104713032E+03  0.18800000000E+03 0.  0.
<mgrwt>
<rscale>  0 0.63298208E+03</rscale>
<asrwt>0</asrwt>
<pdfrwt beam="1">  1        2 0.11709016E+00 0.63298208E+03</pdfrwt>
<pdfrwt beam="2">  1       -2 0.17458477E-01 0.63298208E+03</pdfrwt>
<totfact> 0.99860016E+02</totfact>
</mgrwt>
</event>
<event>
 4    1  0.5886875E-005  0.4473582E+03  0.7818608E-02  0.1028513E+00
         -2   -1    0    0    0  501 -0.00000000000E+00  0.00000000000E+00  0.99939341619E+02  0.99939341651E+02  0.25500000000E-02 0. -1.
          2   -1    0    0  501    0  0.00000000000E+00 -0.00000000000E+00 -0.50062704243E+03  0.50062704244E+03  0.25500000000E-02 0.  1.
    5000001    1    1    2    0    0  0.11232654785E+03 -0.43725533110E+02 -0.18340731606E+03  0.28898342371E+03  0.18800000000E+03 0.  0.
   -5000001    1    1    2    0    0 -0.11232654785E+03  0.43725533110E+02 -0.21728038476E+03  0.31158296038E+03  0.18800000000E+03 0.  0.
<mgrwt>
<rscale>  0 0.44735819E+03</rscale>
<asrwt>0</asrwt>
<pdfrwt beam="1">  1        2 0.71518148E-01 0.44735819E+03</pdfrwt>
<pdfrwt beam="2">  1       -2 0.14277049E-01 0.44735819E+03</pdfrwt>
<totfact> 0.25302193E+03</totfact>
</mgrwt>
</event>
<event>
 4    1  0.5886875E-005  0.6064930E+03  0.7818608E-02  0.9892026E-01
         -2   -1    0    0    0  501 -0.00000000000E+00  0.00000000000E+00  0.26500340207E+02  0.26500340330E+02  0.25500000000E-02 0. -1.
          2   -1    0    0  501    0  0.00000000000E+00 -0.00000000000E+00 -0.34700848106E+04  0.34700848106E+04  0.25500000000E-02 0.  1.
    5000001    1    1    2    0    0  0.13115589494E+03 -0.84665359354E+02 -0.68654265026E+03  0.72873513877E+03  0.18800000000E+03 0.  0.
   -5000001    1    1    2    0    0 -0.13115589494E+03  0.84665359354E+02 -0.27570418202E+04  0.27678500122E+04  0.18800000000E+03 0.  0.
<mgrwt>
<rscale>  0 0.60649296E+03</rscale>
<asrwt>0</asrwt>
<pdfrwt beam="1">  1        2 0.49572611E+00 0.60649296E+03</pdfrwt>
<pdfrwt beam="2">  1       -2 0.37857651E-02 0.60649296E+03</pdfrwt>
<totfact> 0.43060987E+02</totfact>
</mgrwt>
</event>
<event>
 4    1  0.5886875E-005  0.4684824E+03  0.7818608E-02  0.1022349E+00
          2   -1    0    0  501    0  0.00000000000E+00  0.00000000000E+00  0.17571148876E+04  0.17571148876E+04  0.25500000000E-02 0.  1.
         -2   -1    0    0    0  501 -0.00000000000E+00 -0.00000000000E+00 -0.31226721851E+02  0.31226721955E+02  0.25500000000E-02 0. -1.
    5000001    1    1    2    0    0  0.73783173156E+02 -0.11796247961E+03  0.91210216514E+03  0.94161216160E+03  0.18800000000E+03 0.  0.
   -5000001    1    1    2    0    0 -0.73783173156E+02  0.11796247961E+03  0.81378600063E+03  0.84672944796E+03  0.18800000000E+03 0.  0.
<mgrwt>
<rscale>  0 0.46848239E+03</rscale>
<asrwt>0</asrwt>
<pdfrwt beam="1">  1        2 0.25101653E+00 0.46848239E+03</pdfrwt>
<pdfrwt beam="2">  1       -2 0.44609581E-02 0.46848239E+03</pdfrwt>
<totfact> 0.26950436E+03</totfact>
</mgrwt>
</event>
<event>
 4    1  0.5886875E-005  0.1146797E+04  0.7818608E-02  0.9160744E-01
          2   -1    0    0  501    0  0.00000000000E+00  0.00000000000E+00  0.14729658246E+04  0.14729658246E+04  0.25500000000E-02 0.  1.
         -2   -1    0    0    0  501 -0.00000000000E+00 -0.00000000000E+00 -0.22321337414E+03  0.22321337416E+03  0.25500000000E-02 0. -1.
    5000001    1    1    2    0    0 -0.43723418082E+03 -0.13587250004E+03  0.19669815182E+03  0.53260607213E+03  0.18800000000E+03 0.  0.
   -5000001    1    1    2    0    0  0.43723418082E+03  0.13587250004E+03  0.10530542986E+04  0.11635731266E+04  0.18800000000E+03 0.  0.
<mgrwt>
<rscale>  0 0.11467967E+04</rscale>
<asrwt>0</asrwt>
<pdfrwt beam="1">  1        2 0.21042369E+00 0.11467967E+04</pdfrwt>
<pdfrwt beam="2">  1       -2 0.31887624E-01 0.11467967E+04</pdfrwt>
<totfact> 0.13663820E+02</totfact>
</mgrwt>
</event>
<event>
 4    1  0.5886875E-005  0.5769636E+03  0.7818608E-02  0.9954387E-01
          2   -1    0    0  501    0  0.00000000000E+00  0.00000000000E+00  0.15179809999E+04  0.15179809999E+04  0.25500000000E-02 0.  1.
         -2   -1    0    0    0  501 -0.00000000000E+00 -0.00000000000E+00 -0.54823968235E+02  0.54823968295E+02  0.25500000000E-02 0. -1.
    5000001    1    1    2    0    0 -0.13971661195E+03  0.16776163707E+03  0.77136730872E+03  0.82341740538E+03  0.18800000000E+03 0.  0.
   -5000001    1    1    2    0    0  0.13971661195E+03 -0.16776163707E+03  0.69178972291E+03  0.74938756278E+03  0.18800000000E+03 0.  0.
<mgrwt>
<rscale>  0 0.57696358E+03</rscale>
<asrwt>0</asrwt>
<pdfrwt beam="1">  1        2 0.21685445E+00 0.57696358E+03</pdfrwt>
<pdfrwt beam="2">  1       -2 0.78319946E-02 0.57696358E+03</pdfrwt>
<totfact> 0.14775536E+03</totfact>
</mgrwt>
</event>
<event>
 4    1  0.5886875E-005  0.5026109E+03  0.7818608E-02  0.1013100E+00
          2   -1    0    0  501    0  0.00000000000E+00  0.00000000000E+00  0.53954445795E+03  0.53954445795E+03  0.25500000000E-02 0.  1.
         -2   -1    0    0    0  501 -0.00000000000E+00 -0.00000000000E+00 -0.11705140491E+03  0.11705140494E+03  0.25500000000E-02 0. -1.
    5000001    1    1    2    0    0  0.12206775677E+03 -0.10823587231E+03  0.16608889234E+03  0.29924080847E+03  0.18800000000E+03 0.  0.
   -5000001    1    1    2    0    0 -0.12206775677E+03  0.10823587231E+03  0.25640416069E+03  0.35735505442E+03  0.18800000000E+03 0.  0.
<mgrwt>
<rscale>  0 0.50261093E+03</rscale>
<asrwt>0</asrwt>
<pdfrwt beam="1">  1        2 0.77077780E-01 0.50261093E+03</pdfrwt>
<pdfrwt beam="2">  1       -2 0.16721629E-01 0.50261093E+03</pdfrwt>
<totfact> 0.17835349E+03</totfact>
</mgrwt>
</event>
<event>
 4    1  0.5886875E-005  0.8986222E+03  0.7818608E-02  0.9427305E-01
         -2   -1    0    0    0  501 -0.00000000000E+00  0.00000000000E+00  0.19716341015E+04  0.19716341015E+04  0.25500000000E-02 0. -1.
          2   -1    0    0  501    0  0.00000000000E+00 -0.00000000000E+00 -0.10239245763E+03  0.10239245766E+03  0.25500000000E-02 0.  1.
    5000001    1    1    2    0    0 -0.36880317353E+03 -0.80697587777E+02  0.12922396771E+04  0.13593216192E+04  0.18800000000E+03 0.  0.
   -5000001    1    1    2    0    0  0.36880317353E+03  0.80697587777E+02  0.57700196680E+03  0.71470493994E+03  0.18800000000E+03 0.  0.
<mgrwt>
<rscale>  0 0.89862219E+03</rscale>
<asrwt>0</asrwt>
<pdfrwt beam="1">  1        2 0.14627495E-01 0.89862219E+03</pdfrwt>
<pdfrwt beam="2">  1       -2 0.28166199E+00 0.89862219E+03</pdfrwt>
<totfact> 0.17394322E+01</totfact>
</mgrwt>
</event>
<event>
 4    1  0.5886875E-005  0.5778520E+03  0.7818608E-02  0.9952452E-01
         -2   -1    0    0    0  501 -0.00000000000E+00  0.00000000000E+00  0.43319098518E+02  0.43319098593E+02  0.25500000000E-02 0.  1.
          2   -1    0    0  501    0  0.00000000000E+00 -0.00000000000E+00 -0.19270540173E+04  0.19270540173E+04  0.25500000000E-02 0. -1.
    5000001    1    1    2    0    0 -0.11319641771E+03  0.17891433246E+03 -0.74567738996E+03  0.79762305460E+03  0.18800000000E+03 0.  0.
   -5000001    1    1    2    0    0  0.11319641771E+03 -0.17891433246E+03 -0.11380575288E+04  0.11727500613E+04  0.18800000000E+03 0.  0.
<mgrwt>
<rscale>  0 0.57785203E+03</rscale>
<asrwt>0</asrwt>
<pdfrwt beam="1">  1        2 0.27529338E+00 0.57785203E+03</pdfrwt>
<pdfrwt beam="2">  1       -2 0.61884439E-02 0.57785203E+03</pdfrwt>
<totfact> 0.13278040E+03</totfact>
</mgrwt>
</event>
<event>
 4    1  0.5886875E-005  0.6274566E+03  0.7818608E-02  0.9850025E-01
         -2   -1    0    0    0  501 -0.00000000000E+00  0.00000000000E+00  0.80662714022E+02  0.80662714063E+02  0.25500000000E-02 0. -1.
          2   -1    0    0  501    0  0.00000000000E+00 -0.00000000000E+00 -0.12202097800E+04  0.12202097800E+04  0.25500000000E-02 0.  1.
    5000001    1    1    2    0    0  0.87041697820E+02 -0.23488310049E+03 -0.53182096180E+03  0.61719029761E+03  0.18800000000E+03 0.  0.
   -5000001    1    1    2    0    0 -0.87041697820E+02  0.23488310049E+03 -0.60772610419E+03  0.68368219647E+03  0.18800000000E+03 0.  0.
<mgrwt>
<rscale>  0 0.62745656E+03</rscale>
<asrwt>0</asrwt>
<pdfrwt beam="1">  1        2 0.17431567E+00 0.62745656E+03</pdfrwt>
<pdfrwt beam="2">  1       -2 0.11523246E-01 0.62745656E+03</pdfrwt>
<totfact> 0.11418227E+03</totfact>
</mgrwt>
</event>
<event>
 4    1  0.5886875E-005  0.5608780E+03  0.7818608E-02  0.9990070E-01
         -2   -1    0    0    0  501 -0.00000000000E+00  0.00000000000E+00  0.33569189014E+02  0.33569189111E+02  0.25500000000E-02 0. -1.
          2   -1    0    0  501    0  0.00000000000E+00 -0.00000000000E+00 -0.23428037345E+04  0.23428037345E+04  0.25500000000E-02 0.  1.
    5000001    1    1    2    0    0  0.16898109612E+03 -0.80713322513E+02 -0.77018554969E+03  0.81461588017E+03  0.18800000000E+03 0.  0.
   -5000001    1    1    2    0    0 -0.16898109612E+03  0.80713322513E+02 -0.15390489958E+04  0.15617570434E+04  0.18800000000E+03 0.  0.
<mgrwt>
<rscale>  0 0.56087796E+03</rscale>
<asrwt>0</asrwt>
<pdfrwt beam="1">  1        2 0.33468614E+00 0.56087796E+03</pdfrwt>
<pdfrwt beam="2">  1       -2 0.47955999E-02 0.56087796E+03</pdfrwt>
<totfact> 0.12216158E+03</totfact>
</mgrwt>
</event>
<event>
 4    1  0.5886875E-005  0.4512027E+03  0.7818608E-02  0.1027364E+00
         -2   -1    0    0    0  501 -0.00000000000E+00  0.00000000000E+00  0.23921112592E+02  0.23921112728E+02  0.25500000000E-02 0. -1.
          2   -1    0    0  501    0  0.00000000000E+00 -0.00000000000E+00 -0.21276590599E+04  0.21276590599E+04  0.25500000000E-02 0.  1.
    5000001    1    1    2    0    0  0.33192466439E+02  0.18179302481E+02 -0.16184985779E+04  0.16298201967E+04  0.18800000000E+03 0.  0.
   -5000001    1    1    2    0    0 -0.33192466439E+02 -0.18179302481E+02 -0.48523936936E+03  0.52175997589E+03  0.18800000000E+03 0.  0.
<mgrwt>
<rscale>  0 0.45120271E+03</rscale>
<asrwt>0</asrwt>
<pdfrwt beam="1">  1        2 0.30395118E+00 0.45120271E+03</pdfrwt>
<pdfrwt beam="2">  1       -2 0.34173031E-02 0.45120271E+03</pdfrwt>
<totfact> 0.26464767E+03</totfact>
</mgrwt>
</event>
<event>
 4    1  0.5886875E-005  0.4399955E+03  0.7818608E-02  0.1030748E+00
         -2   -1    0    0    0  501 -0.00000000000E+00  0.00000000000E+00  0.63660741416E+02  0.63660741467E+02  0.25500000000E-02 0. -1.
          2   -1    0    0  501    0  0.00000000000E+00 -0.00000000000E+00 -0.76026468603E+03  0.76026468604E+03  0.25500000000E-02 0.  1.
    5000001    1    1    2    0    0 -0.73062115738E+02 -0.76643134150E+02 -0.26791691594E+03  0.34399958810E+03  0.18800000000E+03 0.  0.
   -5000001    1    1    2    0    0  0.73062115738E+02  0.76643134150E+02 -0.42868702868E+03  0.47992583940E+03  0.18800000000E+03 0.  0.
<mgrwt>
<rscale>  0 0.43999552E+03</rscale>
<asrwt>0</asrwt>
<pdfrwt beam="1">  1        2 0.10860924E+00 0.43999552E+03</pdfrwt>
<pdfrwt beam="2">  1       -2 0.90943921E-02 0.43999552E+03</pdfrwt>
<totfact> 0.32261644E+03</totfact>
</mgrwt>
</event>
<event>
 4    1  0.5886875E-005  0.6710751E+03  0.7818608E-02  0.9768018E-01
          2   -1    0    0  501    0  0.00000000000E+00  0.00000000000E+00  0.42451094957E+03  0.42451094958E+03  0.25500000000E-02 0.  1.
         -2   -1    0    0    0  501 -0.00000000000E+00 -0.00000000000E+00 -0.26521209119E+03  0.26521209121E+03  0.25500000000E-02 0. -1.
    5000001    1    1    2    0    0  0.24403413185E+03  0.10615448662E+03 -0.27020272382E+01  0.32584157729E+03  0.18800000000E+03 0.  0.
   -5000001    1    1    2    0    0 -0.24403413185E+03 -0.10615448662E+03  0.16200088561E+03  0.36388146350E+03  0.18800000000E+03 0.  0.
<mgrwt>
<rscale>  0 0.67107507E+03</rscale>
<asrwt>0</asrwt>
<pdfrwt beam="1">  1        2 0.60644422E-01 0.67107507E+03</pdfrwt>
<pdfrwt beam="2">  1       -2 0.37887442E-01 0.67107507E+03</pdfrwt>
<totfact> 0.53510233E+02</totfact>
</mgrwt>
</event>
<event>
 4    1  0.5886875E-005  0.6487769E+03  0.7818608E-02  0.9809077E-01
         -2   -1    0    0    0  501 -0.00000000000E+00  0.00000000000E+00  0.14324063904E+03  0.14324063907E+03  0.25500000000E-02 0. -1.
          2   -1    0    0  501    0  0.00000000000E+00 -0.00000000000E+00 -0.73462291872E+03  0.73462291872E+03  0.25500000000E-02 0.  1.
    5000001    1    1    2    0    0 -0.10041609710E+03 -0.23390004220E+03 -0.19914315922E+03  0.37389118760E+03  0.18800000000E+03 0.  0.
   -5000001    1    1    2    0    0  0.10041609710E+03  0.23390004220E+03 -0.39223912046E+03  0.50397237019E+03  0.18800000000E+03 0.  0.
<mgrwt>
<rscale>  0 0.64877687E+03</rscale>
<asrwt>0</asrwt>
<pdfrwt beam="1">  1        2 0.10494613E+00 0.64877687E+03</pdfrwt>
<pdfrwt beam="2">  1       -2 0.20462949E-01 0.64877687E+03</pdfrwt>
<totfact> 0.87118164E+02</totfact>
</mgrwt>
</event>
<event>
 4    1  0.5886875E-005  0.6948380E+03  0.7818608E-02  0.9726101E-01
          2   -1    0    0  501    0  0.00000000000E+00  0.00000000000E+00  0.10318304828E+04  0.10318304828E+04  0.25500000000E-02 0.  1.
         -2   -1    0    0    0  501 -0.00000000000E+00 -0.00000000000E+00 -0.11697654982E+03  0.11697654985E+03  0.25500000000E-02 0. -1.
    5000001    1    1    2    0    0 -0.25343968892E+03 -0.89674144534E+02  0.26831694085E+03  0.42380550830E+03  0.18800000000E+03 0.  0.
   -5000001    1    1    2    0    0  0.25343968892E+03  0.89674144534E+02  0.64653699212E+03  0.72500152434E+03  0.18800000000E+03 0.  0.
<mgrwt>
<rscale>  0 0.69483802E+03</rscale>
<asrwt>0</asrwt>
<pdfrwt beam="1">  1        2 0.14740436E+00 0.69483802E+03</pdfrwt>
<pdfrwt beam="2">  1       -2 0.16710935E-01 0.69483802E+03</pdfrwt>
<totfact> 0.78610021E+02</totfact>
</mgrwt>
</event>
<event>
 4    1  0.5886875E-005  0.6332208E+03  0.7818608E-02  0.9838784E-01
         -2   -1    0    0    0  501 -0.00000000000E+00  0.00000000000E+00  0.25355276264E+03  0.25355276265E+03  0.25500000000E-02 0. -1.
          2   -1    0    0  501    0  0.00000000000E+00 -0.00000000000E+00 -0.39535023915E+03  0.39535023916E+03  0.25500000000E-02 0.  1.
    5000001    1    1    2    0    0  0.96494715818E+02 -0.22413697354E+03 -0.14585061588E+03  0.34082989194E+03  0.18800000000E+03 0.  0.
   -5000001    1    1    2    0    0 -0.96494715818E+02  0.22413697354E+03  0.40531393668E+01  0.30807310987E+03  0.18800000000E+03 0.  0.
<mgrwt>
<rscale>  0 0.63322080E+03</rscale>
<asrwt>0</asrwt>
<pdfrwt beam="1">  1        2 0.56478605E-01 0.63322080E+03</pdfrwt>
<pdfrwt beam="2">  1       -2 0.36221823E-01 0.63322080E+03</pdfrwt>
<totfact> 0.63196128E+02</totfact>
</mgrwt>
</event>
<event>
 4    1  0.5886875E-005  0.8437636E+03  0.7818608E-02  0.9498746E-01
         -2   -1    0    0    0  501 -0.00000000000E+00  0.00000000000E+00  0.19789013092E+03  0.19789013093E+03  0.25500000000E-02 0. -1.
          2   -1    0    0  501    0  0.00000000000E+00 -0.00000000000E+00 -0.89940939733E+03  0.89940939733E+03  0.25500000000E-02 0.  1.
    5000001    1    1    2    0    0 -0.24825731901E+03 -0.26136670583E+03 -0.20422585784E+03  0.45496862790E+03  0.18800000000E+03 0.  0.
   -5000001    1    1    2    0    0  0.24825731901E+03  0.26136670583E+03 -0.49729340857E+03  0.64233090037E+03  0.18800000000E+03 0.  0.
<mgrwt>
<rscale>  0 0.84376358E+03</rscale>
<asrwt>0</asrwt>
<pdfrwt beam="1">  1        2 0.12848706E+00 0.84376358E+03</pdfrwt>
<pdfrwt beam="2">  1       -2 0.28270019E-01 0.84376358E+03</pdfrwt>
<totfact> 0.37310672E+02</totfact>
</mgrwt>
</event>
<event>
 4    1  0.5886875E-005  0.5125414E+03  0.7818608E-02  0.1010556E+00
          2   -1    0    0  501    0  0.00000000000E+00  0.00000000000E+00  0.28379255924E+04  0.28379255924E+04  0.25500000000E-02 0.  1.
         -2   -1    0    0    0  501 -0.00000000000E+00 -0.00000000000E+00 -0.23141789871E+02  0.23141790012E+02  0.25500000000E-02 0. -1.
    5000001    1    1    2    0    0 -0.15246617679E+03  0.74882622399E+02  0.11928368639E+04  0.12194495177E+04  0.18800000000E+03 0.  0.
   -5000001    1    1    2    0    0  0.15246617679E+03 -0.74882622399E+02  0.16219469386E+04  0.16416178648E+04  0.18800000000E+03 0.  0.
<mgrwt>
<rscale>  0 0.51254142E+03</rscale>
<asrwt>0</asrwt>
<pdfrwt beam="1">  1        2 0.40541803E+00 0.51254142E+03</pdfrwt>
<pdfrwt beam="2">  1       -2 0.33059693E-02 0.51254142E+03</pdfrwt>
<totfact> 0.12033964E+03</totfact>
</mgrwt>
</event>
<event>
 4    1  0.5886875E-005  0.8650883E+03  0.7818608E-02  0.9470307E-01
         -2   -1    0    0    0  501 -0.00000000000E+00  0.00000000000E+00  0.66812088790E+02  0.66812088839E+02  0.25500000000E-02 0. -1.
          2   -1    0    0  501    0  0.00000000000E+00 -0.00000000000E+00 -0.28003079948E+04  0.28003079948E+04  0.25500000000E-02 0.  1.
    5000001    1    1    2    0    0 -0.29883090646E+03 -0.24670288265E+03 -0.14988284020E+04  0.15594847872E+04  0.18800000000E+03 0.  0.
   -5000001    1    1    2    0    0  0.29883090646E+03  0.24670288265E+03 -0.12346675041E+04  0.13076352965E+04  0.18800000000E+03 0.  0.
<mgrwt>
<rscale>  0 0.86508826E+03</rscale>
<asrwt>0</asrwt>
<pdfrwt beam="1">  1        2 0.40004393E+00 0.86508826E+03</pdfrwt>
<pdfrwt beam="2">  1       -2 0.95445859E-02 0.86508826E+03</pdfrwt>
<totfact> 0.23199367E+02</totfact>
</mgrwt>
</event>
<event>
 4    1  0.5886875E-005  0.7975003E+03  0.7818608E-02  0.9563642E-01
          2   -1    0    0  501    0  0.00000000000E+00  0.00000000000E+00  0.19192512163E+04  0.19192512163E+04  0.25500000000E-02 0.  1.
         -2   -1    0    0    0  501 -0.00000000000E+00 -0.00000000000E+00 -0.82845677254E+02  0.82845677293E+02  0.25500000000E-02 0. -1.
    5000001    1    1    2    0    0 -0.22409161296E+02  0.30105730954E+03  0.13709225574E+04  0.14163016390E+04  0.18800000000E+03 0.  0.
   -5000001    1    1    2    0    0  0.22409161296E+02 -0.30105730954E+03  0.46548298159E+03  0.58579525458E+03  0.18800000000E+03 0.  0.
<mgrwt>
<rscale>  0 0.79750026E+03</rscale>
<asrwt>0</asrwt>
<pdfrwt beam="1">  1        2 0.27417879E+00 0.79750026E+03</pdfrwt>
<pdfrwt beam="2">  1       -2 0.11835095E-01 0.79750026E+03</pdfrwt>
<totfact> 0.46671383E+02</totfact>
</mgrwt>
</event>
<event>
 4    1  0.5886875E-005  0.6103273E+03  0.7818608E-02  0.9884209E-01
         -2   -1    0    0    0  501 -0.00000000000E+00  0.00000000000E+00  0.76720071815E+02  0.76720071858E+02  0.25500000000E-02 0. -1.
          2   -1    0    0  501    0  0.00000000000E+00 -0.00000000000E+00 -0.12138264654E+04  0.12138264654E+04  0.25500000000E-02 0.  1.
    5000001    1    1    2    0    0  0.13710375263E+03  0.10370345297E+03 -0.92382331849E+03  0.95830338042E+03  0.18800000000E+03 0.  0.
   -5000001    1    1    2    0    0 -0.13710375263E+03 -0.10370345297E+03 -0.21328307508E+03  0.33224315683E+03  0.18800000000E+03 0.  0.
<mgrwt>
<rscale>  0 0.61032730E+03</rscale>
<asrwt>0</asrwt>
<pdfrwt beam="1">  1        2 0.17340377E+00 0.61032730E+03</pdfrwt>
<pdfrwt beam="2">  1       -2 0.10960011E-01 0.61032730E+03</pdfrwt>
<totfact> 0.12503250E+03</totfact>
</mgrwt>
</event>
<event>
 4    1  0.5886875E-005  0.5492627E+03  0.7818608E-02  0.1001665E+00
          2   -1    0    0  501    0  0.00000000000E+00  0.00000000000E+00  0.89259575956E+03  0.89259575957E+03  0.25500000000E-02 0.  1.
         -2   -1    0    0    0  501 -0.00000000000E+00 -0.00000000000E+00 -0.84497787096E+02  0.84497787135E+02  0.25500000000E-02 0. -1.
    5000001    1    1    2    0    0  0.11235124924E+03  0.12544946650E+03  0.59661636512E+03  0.64780819614E+03  0.18800000000E+03 0.  0.
   -5000001    1    1    2    0    0 -0.11235124924E+03 -0.12544946650E+03  0.21148160735E+03  0.32928535057E+03  0.18800000000E+03 0.  0.
<mgrwt>
<rscale>  0 0.54926266E+03</rscale>
<asrwt>0</asrwt>
<pdfrwt beam="1">  1        2 0.12751368E+00 0.54926266E+03</pdfrwt>
<pdfrwt beam="2">  1       -2 0.12071112E-01 0.54926266E+03</pdfrwt>
<totfact> 0.16607736E+03</totfact>
</mgrwt>
</event>
<event>
 4    1  0.5886875E-005  0.4546418E+03  0.7818608E-02  0.1026347E+00
          2   -1    0    0  501    0  0.00000000000E+00  0.00000000000E+00  0.23597214180E+03  0.23597214182E+03  0.25500000000E-02 0.  1.
         -2   -1    0    0    0  501 -0.00000000000E+00 -0.00000000000E+00 -0.21898686212E+03  0.21898686214E+03  0.25500000000E-02 0. -1.
    5000001    1    1    2    0    0 -0.28247793021E+02  0.12359495906E+03 -0.75543563024E+01  0.22688040906E+03  0.18800000000E+03 0.  0.
   -5000001    1    1    2    0    0  0.28247793021E+02 -0.12359495906E+03  0.24539635986E+02  0.22807859490E+03  0.18800000000E+03 0.  0.
<mgrwt>
<rscale>  0 0.45464183E+03</rscale>
<asrwt>0</asrwt>
<pdfrwt beam="1">  1        2 0.33710306E-01 0.45464183E+03</pdfrwt>
<pdfrwt beam="2">  1       -2 0.31283837E-01 0.45464183E+03</pdfrwt>
<totfact> 0.14718231E+03</totfact>
</mgrwt>
</event>
<event>
 4    1  0.5886875E-005  0.3947718E+03  0.7818608E-02  0.1045605E+00
          2   -1    0    0  501    0  0.00000000000E+00  0.00000000000E+00  0.26138308550E+04  0.26138308550E+04  0.25500000000E-02 0.  1.
         -2   -1    0    0    0  501 -0.00000000000E+00 -0.00000000000E+00 -0.14905778626E+02  0.14905778844E+02  0.25500000000E-02 0. -1.
    5000001    1    1    2    0    0 -0.13266757124E+01  0.49315033710E+02  0.15285367952E+04  0.15408447251E+04  0.18800000000E+03 0.  0.
   -5000001    1    1    2    0    0  0.13266757124E+01 -0.49315033710E+02  0.10703882812E+04  0.10878919087E+04  0.18800000000E+03 0.  0.
<mgrwt>
<rscale>  0 0.39477175E+03</rscale>
<asrwt>0</asrwt>
<pdfrwt beam="1">  1        2 0.37340446E+00 0.39477175E+03</pdfrwt>
<pdfrwt beam="2">  1       -2 0.21293966E-02 0.39477175E+03</pdfrwt>
<totfact> 0.30756951E+03</totfact>
</mgrwt>
</event>
<event>
 4    1  0.5886875E-005  0.5169455E+03  0.7818608E-02  0.1009448E+00
         -2   -1    0    0    0  501 -0.00000000000E+00  0.00000000000E+00  0.10268653916E+03  0.10268653920E+03  0.25500000000E-02 0. -1.
          2   -1    0    0  501    0  0.00000000000E+00 -0.00000000000E+00 -0.65060282237E+03  0.65060282237E+03  0.25500000000E-02 0.  1.
    5000001    1    1    2    0    0  0.12940644951E+03 -0.14707673215E+02 -0.98477919818E+02  0.24900651702E+03  0.18800000000E+03 0.  0.
   -5000001    1    1    2    0    0 -0.12940644951E+03  0.14707673215E+02 -0.44943836338E+03  0.50428284455E+03  0.18800000000E+03 0.  0.
<mgrwt>
<rscale>  0 0.51694546E+03</rscale>
<asrwt>0</asrwt>
<pdfrwt beam="1">  1        2 0.92943258E-01 0.51694546E+03</pdfrwt>
<pdfrwt beam="2">  1       -2 0.14669506E-01 0.51694546E+03</pdfrwt>
<totfact> 0.17873743E+03</totfact>
</mgrwt>
</event>
<event>
 4    1  0.5886875E-005  0.4275030E+03  0.7818608E-02  0.1034652E+00
         -2   -1    0    0    0  501 -0.00000000000E+00  0.00000000000E+00  0.54938584615E+02  0.54938584674E+02  0.25500000000E-02 0. -1.
          2   -1    0    0  501    0  0.00000000000E+00 -0.00000000000E+00 -0.83165054600E+03  0.83165054600E+03  0.25500000000E-02 0.  1.
    5000001    1    1    2    0    0 -0.29310294035E+02 -0.71507927653E+02 -0.52550232596E+03  0.56344402707E+03  0.18800000000E+03 0.  0.
   -5000001    1    1    2    0    0  0.29310294035E+02  0.71507927653E+02 -0.25120963542E+03  0.32314510360E+03  0.18800000000E+03 0.  0.
<mgrwt>
<rscale>  0 0.42750300E+03</rscale>
<asrwt>0</asrwt>
<pdfrwt beam="1">  1        2 0.11880721E+00 0.42750300E+03</pdfrwt>
<pdfrwt beam="2">  1       -2 0.78483697E-02 0.42750300E+03</pdfrwt>
<totfact> 0.36396821E+03</totfact>
</mgrwt>
</event>
<event>
 4    1  0.5886875E-005  0.4227624E+03  0.7818608E-02  0.1036171E+00
         -2   -1    0    0    0  501 -0.00000000000E+00  0.00000000000E+00  0.81494095234E+02  0.81494095274E+02  0.25500000000E-02 0. -1.
          2   -1    0    0  501    0  0.00000000000E+00 -0.00000000000E+00 -0.54828519658E+03  0.54828519658E+03  0.25500000000E-02 0.  1.
    5000001    1    1    2    0    0 -0.33287294907E+01 -0.72824203705E+02 -0.13890305017E+03  0.24485200108E+03  0.18800000000E+03 0.  0.
   -5000001    1    1    2    0    0  0.33287294907E+01  0.72824203705E+02 -0.32788805117E+03  0.38492729078E+03  0.18800000000E+03 0.  0.
<mgrwt>
<rscale>  0 0.42276237E+03</rscale>
<asrwt>0</asrwt>
<pdfrwt beam="1">  1        2 0.78326455E-01 0.42276237E+03</pdfrwt>
<pdfrwt beam="2">  1       -2 0.11642014E-01 0.42276237E+03</pdfrwt>
<totfact> 0.31906630E+03</totfact>
</mgrwt>
</event>
<event>
 4    1  0.5886875E-005  0.5970006E+03  0.7818608E-02  0.9911648E-01
         -2   -1    0    0    0  501 -0.00000000000E+00  0.00000000000E+00  0.33822302017E+02  0.33822302113E+02  0.25500000000E-02 0. -1.
          2   -1    0    0  501    0  0.00000000000E+00 -0.00000000000E+00 -0.26344283576E+04  0.26344283576E+04  0.25500000000E-02 0.  1.
    5000001    1    1    2    0    0  0.84203773969E+02 -0.20032509876E+03 -0.93891424106E+03  0.98189835156E+03  0.18800000000E+03 0.  0.
   -5000001    1    1    2    0    0 -0.84203773969E+02  0.20032509876E+03 -0.16616918145E+04  0.16863523081E+04  0.18800000000E+03 0.  0.
<mgrwt>
<rscale>  0 0.59700061E+03</rscale>
<asrwt>0</asrwt>
<pdfrwt beam="1">  1        2 0.37634678E+00 0.59700061E+03</pdfrwt>
<pdfrwt beam="2">  1       -2 0.48317591E-02 0.59700061E+03</pdfrwt>
<totfact> 0.85374086E+02</totfact>
</mgrwt>
</event>
<event>
 4    1  0.5886875E-005  0.1508664E+04  0.7818608E-02  0.8878712E-01
          2   -1    0    0  501    0  0.00000000000E+00  0.00000000000E+00  0.81662307291E+03  0.81662307292E+03  0.25500000000E-02 0.  1.
         -2   -1    0    0    0  501 -0.00000000000E+00 -0.00000000000E+00 -0.69679281200E+03  0.69679281200E+03  0.25500000000E-02 0. -1.
    5000001    1    1    2    0    0 -0.47456108628E+03 -0.18715212140E+03 -0.46464565874E+03  0.71517391545E+03  0.18800000000E+03 0.  0.
   -5000001    1    1    2    0    0  0.47456108628E+03  0.18715212140E+03  0.58447591966E+03  0.79824196947E+03  0.18800000000E+03 0.  0.
<mgrwt>
<rscale>  0 0.15086644E+04</rscale>
<asrwt>0</asrwt>
<pdfrwt beam="1">  1        2 0.11666044E+00 0.15086644E+04</pdfrwt>
<pdfrwt beam="2">  1       -2 0.99541830E-01 0.15086644E+04</pdfrwt>
<totfact> 0.29905675E+01</totfact>
</mgrwt>
</event>
<event>
 4    1  0.5886875E-005  0.5157849E+03  0.7818608E-02  0.1009739E+00
         -2   -1    0    0    0  501 -0.00000000000E+00  0.00000000000E+00  0.48793773817E+02  0.48793773884E+02  0.25500000000E-02 0. -1.
          2   -1    0    0  501    0  0.00000000000E+00 -0.00000000000E+00 -0.13630534931E+04  0.13630534931E+04  0.25500000000E-02 0.  1.
    5000001    1    1    2    0    0 -0.94708285860E+02  0.12471335434E+03 -0.43405516047E+03  0.49826796254E+03  0.18800000000E+03 0.  0.
   -5000001    1    1    2    0    0  0.94708285860E+02 -0.12471335434E+03 -0.88020455881E+03  0.91357930445E+03  0.18800000000E+03 0.  0.
<mgrwt>
<rscale>  0 0.51578493E+03</rscale>
<asrwt>0</asrwt>
<pdfrwt beam="1">  1        2 0.19472190E+00 0.51578493E+03</pdfrwt>
<pdfrwt beam="2">  1       -2 0.69705399E-02 0.51578493E+03</pdfrwt>
<totfact> 0.21462559E+03</totfact>
</mgrwt>
</event>
<event>
 4    1  0.5886875E-005  0.4541883E+03  0.7818608E-02  0.1026480E+00
         -2   -1    0    0    0  501 -0.00000000000E+00  0.00000000000E+00  0.89986675177E+02  0.89986675213E+02  0.25500000000E-02 0.  1.
          2   -1    0    0  501    0  0.00000000000E+00 -0.00000000000E+00 -0.57310427751E+03  0.57310427751E+03  0.25500000000E-02 0. -1.
    5000001    1    1    2    0    0 -0.11236846841E+03  0.57946547416E+02 -0.26432992758E+03  0.34813615966E+03  0.18800000000E+03 0.  0.
   -5000001    1    1    2    0    0  0.11236846841E+03 -0.57946547416E+02 -0.21878767475E+03  0.31495479306E+03  0.18800000000E+03 0.  0.
<mgrwt>
<rscale>  0 0.45418828E+03</rscale>
<asrwt>0</asrwt>
<pdfrwt beam="1">  1        2 0.81872038E-01 0.45418828E+03</pdfrwt>
<pdfrwt beam="2">  1       -2 0.12855240E-01 0.45418828E+03</pdfrwt>
<totfact> 0.25804505E+03</totfact>
</mgrwt>
</event>
<event>
 4    1  0.5886875E-005  0.1214186E+04  0.7818608E-02  0.9100530E-01
          2   -1    0    0  501    0  0.00000000000E+00  0.00000000000E+00  0.14577130534E+04  0.14577130534E+04  0.25500000000E-02 0.  1.
         -2   -1    0    0    0  501 -0.00000000000E+00 -0.00000000000E+00 -0.25283558723E+03  0.25283558724E+03  0.25500000000E-02 0. -1.
    5000001    1    1    2    0    0 -0.53937270844E+03  0.20009199311E+03  0.66938300018E+03  0.90242857072E+03  0.18800000000E+03 0.  0.
   -5000001    1    1    2    0    0  0.53937270844E+03 -0.20009199311E+03  0.53549446600E+03  0.80812006994E+03  0.18800000000E+03 0.  0.
<mgrwt>
<rscale>  0 0.12141857E+04</rscale>
<asrwt>0</asrwt>
<pdfrwt beam="1">  1        2 0.20824472E+00 0.12141857E+04</pdfrwt>
<pdfrwt beam="2">  1       -2 0.36119369E-01 0.12141857E+04</pdfrwt>
<totfact> 0.10939569E+02</totfact>
</mgrwt>
</event>
<event>
 4    1  0.5886875E-005  0.1193467E+04  0.7818608E-02  0.9118594E-01
         -2   -1    0    0    0  501 -0.00000000000E+00  0.00000000000E+00  0.34765018850E+03  0.34765018851E+03  0.25500000000E-02 0. -1.
          2   -1    0    0  501    0  0.00000000000E+00 -0.00000000000E+00 -0.10242792284E+04  0.10242792284E+04  0.25500000000E-02 0.  1.
    5000001    1    1    2    0    0  0.41535406298E+03  0.19858520377E+03 -0.71747180822E+03  0.87296327322E+03  0.18800000000E+03 0.  0.
   -5000001    1    1    2    0    0 -0.41535406298E+03 -0.19858520377E+03  0.40842768355E+02  0.49896614366E+03  0.18800000000E+03 0.  0.
<mgrwt>
<rscale>  0 0.11934670E+04</rscale>
<asrwt>0</asrwt>
<pdfrwt beam="1">  1        2 0.14632560E+00 0.11934670E+04</pdfrwt>
<pdfrwt beam="2">  1       -2 0.49664313E-01 0.11934670E+04</pdfrwt>
<totfact> 0.10277106E+02</totfact>
</mgrwt>
</event>
<event>
 4    1  0.5886875E-005  0.8517706E+03  0.7818608E-02  0.9487964E-01
         -2   -1    0    0    0  501 -0.00000000000E+00  0.00000000000E+00  0.12960220359E+03  0.12960220361E+03  0.25500000000E-02 0.  1.
          2   -1    0    0  501    0  0.00000000000E+00 -0.00000000000E+00 -0.13995001842E+04  0.13995001842E+04  0.25500000000E-02 0. -1.
    5000001    1    1    2    0    0  0.24229289799E+03 -0.86924722677E+02 -0.11419871444E+04  0.11856392343E+04  0.18800000000E+03 0.  0.
   -5000001    1    1    2    0    0 -0.24229289799E+03  0.86924722677E+02 -0.12791083620E+03  0.34346315355E+03  0.18800000000E+03 0.  0.
<mgrwt>
<rscale>  0 0.85177064E+03</rscale>
<asrwt>0</asrwt>
<pdfrwt beam="1">  1        2 0.19992859E+00 0.85177064E+03</pdfrwt>
<pdfrwt beam="2">  1       -2 0.18514601E-01 0.85177064E+03</pdfrwt>
<totfact> 0.40572019E+02</totfact>
</mgrwt>
</event>
<event>
 4    1  0.5886875E-005  0.5257088E+03  0.7818608E-02  0.1007278E+00
         -2   -1    0    0    0  501 -0.00000000000E+00  0.00000000000E+00  0.28633067552E+02  0.28633067665E+02  0.25500000000E-02 0. -1.
          2   -1    0    0  501    0  0.00000000000E+00 -0.00000000000E+00 -0.24130295233E+04  0.24130295233E+04  0.25500000000E-02 0.  1.
    5000001    1    1    2    0    0 -0.39523507649E+02  0.15776940021E+03 -0.15888938394E+04  0.16082229088E+04  0.18800000000E+03 0.  0.
   -5000001    1    1    2    0    0  0.39523507649E+02 -0.15776940021E+03 -0.79550261634E+03  0.83343968222E+03  0.18800000000E+03 0.  0.
<mgrwt>
<rscale>  0 0.52570881E+03</rscale>
<asrwt>0</asrwt>
<pdfrwt beam="1">  1        2 0.34471838E+00 0.52570881E+03</pdfrwt>
<pdfrwt beam="2">  1       -2 0.40904398E-02 0.52570881E+03</pdfrwt>
<totfact> 0.14410128E+03</totfact>
</mgrwt>
</event>
<event>
 4    1  0.5886875E-005  0.4659998E+03  0.7818608E-02  0.1023055E+00
         -2   -1    0    0    0  501 -0.00000000000E+00  0.00000000000E+00  0.49619161355E+02  0.49619161421E+02  0.25500000000E-02 0. -1.
          2   -1    0    0  501    0  0.00000000000E+00 -0.00000000000E+00 -0.10941127429E+04  0.10941127429E+04  0.25500000000E-02 0.  1.
    5000001    1    1    2    0    0 -0.11319144091E+03  0.67674931222E+02 -0.42553255556E+03  0.48354333255E+03  0.18800000000E+03 0.  0.
   -5000001    1    1    2    0    0  0.11319144091E+03 -0.67674931222E+02 -0.61896102598E+03  0.66018857177E+03  0.18800000000E+03 0.  0.
<mgrwt>
<rscale>  0 0.46599981E+03</rscale>
<asrwt>0</asrwt>
<pdfrwt beam="1">  1        2 0.15630181E+00 0.46599981E+03</pdfrwt>
<pdfrwt beam="2">  1       -2 0.70884523E-02 0.46599981E+03</pdfrwt>
<totfact> 0.29439545E+03</totfact>
</mgrwt>
</event>
<event>
 4    1  0.5886875E-005  0.8187623E+03  0.7818608E-02  0.9533250E-01
         -2   -1    0    0    0  501 -0.00000000000E+00  0.00000000000E+00  0.30413882086E+03  0.30413882087E+03  0.25500000000E-02 0. -1.
          2   -1    0    0  501    0  0.00000000000E+00 -0.00000000000E+00 -0.55104082704E+03  0.55104082705E+03  0.25500000000E-02 0.  1.
    5000001    1    1    2    0    0  0.26830792317E+03 -0.17770248294E+03  0.53438140872E+02  0.37651952005E+03  0.18800000000E+03 0.  0.
   -5000001    1    1    2    0    0 -0.26830792317E+03  0.17770248294E+03 -0.30034014706E+03  0.47866012787E+03  0.18800000000E+03 0.  0.
<mgrwt>
<rscale>  0 0.81876225E+03</rscale>
<asrwt>0</asrwt>
<pdfrwt beam="1">  1        2 0.78720118E-01 0.81876225E+03</pdfrwt>
<pdfrwt beam="2">  1       -2 0.43448403E-01 0.81876225E+03</pdfrwt>
<totfact> 0.30278621E+02</totfact>
</mgrwt>
</event>
<event>
 4    1  0.5886875E-005  0.8254006E+03  0.7818608E-02  0.9523961E-01
         -2   -1    0    0    0  501 -0.00000000000E+00  0.00000000000E+00  0.63487453648E+03  0.63487453648E+03  0.25500000000E-02 0. -1.
          2   -1    0    0  501    0  0.00000000000E+00 -0.00000000000E+00 -0.26827588819E+03  0.26827588820E+03  0.25500000000E-02 0.  1.
    5000001    1    1    2    0    0  0.12173706833E+03  0.32651581750E+03  0.31064535761E+03  0.50326636197E+03  0.18800000000E+03 0.  0.
   -5000001    1    1    2    0    0 -0.12173706833E+03 -0.32651581750E+03  0.55953290671E+02  0.39988406272E+03  0.18800000000E+03 0.  0.
<mgrwt>
<rscale>  0 0.82540058E+03</rscale>
<asrwt>0</asrwt>
<pdfrwt beam="1">  1        2 0.38325127E-01 0.82540058E+03</pdfrwt>
<pdfrwt beam="2">  1       -2 0.90696363E-01 0.82540058E+03</pdfrwt>
<totfact> 0.14116581E+02</totfact>
</mgrwt>
</event>
<event>
 4    1  0.5886875E-005  0.3831000E+03  0.7818608E-02  0.1049794E+00
         -2   -1    0    0    0  501 -0.00000000000E+00  0.00000000000E+00  0.10004484296E+02  0.10004484621E+02  0.25500000000E-02 0. -1.
          2   -1    0    0  501    0  0.00000000000E+00 -0.00000000000E+00 -0.36674951465E+04  0.36674951465E+04  0.25500000000E-02 0.  1.
    5000001    1    1    2    0    0  0.24678415448E+02  0.26981622832E+02 -0.17978390379E+04  0.18080116810E+04  0.18800000000E+03 0.  0.
   -5000001    1    1    2    0    0 -0.24678415448E+02 -0.26981622832E+02 -0.18596516243E+04  0.18694879502E+04  0.18800000000E+03 0.  0.
<mgrwt>
<rscale>  0 0.38309998E+03</rscale>
<asrwt>0</asrwt>
<pdfrwt beam="1">  1        2 0.52392702E+00 0.38309998E+03</pdfrwt>
<pdfrwt beam="2">  1       -2 0.14292144E-02 0.38309998E+03</pdfrwt>
<totfact> 0.14567331E+03</totfact>
</mgrwt>
</event>
<event>
 4    1  0.5886875E-005  0.4963297E+03  0.7818608E-02  0.1014741E+00
          2   -1    0    0  501    0  0.00000000000E+00  0.00000000000E+00  0.24122415563E+03  0.24122415564E+03  0.25500000000E-02 0.  1.
         -2   -1    0    0    0  501 -0.00000000000E+00 -0.00000000000E+00 -0.25530526460E+03  0.25530526462E+03  0.25500000000E-02 0. -1.
    5000001    1    1    2    0    0  0.62596843360E+01  0.15553068366E+03  0.37841956215E+02  0.24699188419E+03  0.18800000000E+03 0.  0.
   -5000001    1    1    2    0    0 -0.62596843360E+01 -0.15553068366E+03 -0.51923065188E+02  0.24953753607E+03  0.18800000000E+03 0.  0.
<mgrwt>
<rscale>  0 0.49632972E+03</rscale>
<asrwt>0</asrwt>
<pdfrwt beam="1">  1        2 0.34460594E-01 0.49632972E+03</pdfrwt>
<pdfrwt beam="2">  1       -2 0.36472180E-01 0.49632972E+03</pdfrwt>
<totfact> 0.10776950E+03</totfact>
</mgrwt>
</event>
<event>
 4    1  0.5886875E-005  0.4502732E+03  0.7818608E-02  0.1027641E+00
          2   -1    0    0  501    0  0.00000000000E+00  0.00000000000E+00  0.51640981607E+03  0.51640981608E+03  0.25500000000E-02 0.  1.
         -2   -1    0    0    0  501 -0.00000000000E+00 -0.00000000000E+00 -0.98151685024E+02  0.98151685057E+02  0.25500000000E-02 0. -1.
    5000001    1    1    2    0    0 -0.11828189536E+03 -0.31822380289E+02  0.23426713106E+03  0.32438920967E+03  0.18800000000E+03 0.  0.
   -5000001    1    1    2    0    0  0.11828189536E+03  0.31822380289E+02  0.18399099999E+03  0.29017229146E+03  0.18800000000E+03 0.  0.
<mgrwt>
<rscale>  0 0.45027322E+03</rscale>
<asrwt>0</asrwt>
<pdfrwt beam="1">  1        2 0.73772829E-01 0.45027322E+03</pdfrwt>
<pdfrwt beam="2">  1       -2 0.14021670E-01 0.45027322E+03</pdfrwt>
<totfact> 0.25176079E+03</totfact>
</mgrwt>
</event>
<event>
 4    1  0.5886875E-005  0.1206249E+04  0.7818608E-02  0.9107405E-01
         -2   -1    0    0    0  501 -0.00000000000E+00  0.00000000000E+00  0.76968416268E+03  0.76968416268E+03  0.25500000000E-02 0. -1.
          2   -1    0    0  501    0  0.00000000000E+00 -0.00000000000E+00 -0.47260801967E+03  0.47260801967E+03  0.25500000000E-02 0.  1.
    5000001    1    1    2    0    0 -0.49778786091E+03  0.21986544345E+03  0.33357683444E+03  0.66539542542E+03  0.18800000000E+03 0.  0.
   -5000001    1    1    2    0    0  0.49778786091E+03 -0.21986544345E+03 -0.36500691428E+02  0.57689675694E+03  0.18800000000E+03 0.  0.
<mgrwt>
<rscale>  0 0.12062486E+04</rscale>
<asrwt>0</asrwt>
<pdfrwt beam="1">  1        2 0.67515432E-01 0.12062486E+04</pdfrwt>
<pdfrwt beam="2">  1       -2 0.10995488E+00 0.12062486E+04</pdfrwt>
<totfact> 0.46505960E+01</totfact>
</mgrwt>
</event>
<event>
 4    1  0.5886875E-005  0.4921590E+03  0.7818608E-02  0.1015846E+00
         -2   -1    0    0    0  501 -0.00000000000E+00  0.00000000000E+00  0.24881418904E+03  0.24881418905E+03  0.25500000000E-02 0. -1.
          2   -1    0    0  501    0  0.00000000000E+00 -0.00000000000E+00 -0.24337491398E+03  0.24337491399E+03  0.25500000000E-02 0.  1.
    5000001    1    1    2    0    0  0.12794924782E+03 -0.81164134749E+02  0.50183099294E+02  0.24661907923E+03  0.18800000000E+03 0.  0.
   -5000001    1    1    2    0    0 -0.12794924782E+03  0.81164134749E+02 -0.44743824231E+02  0.24557002381E+03  0.18800000000E+03 0.  0.
<mgrwt>
<rscale>  0 0.49215905E+03</rscale>
<asrwt>0</asrwt>
<pdfrwt beam="1">  1        2 0.34767845E-01 0.49215905E+03</pdfrwt>
<pdfrwt beam="2">  1       -2 0.35544884E-01 0.49215905E+03</pdfrwt>
<totfact> 0.11205761E+03</totfact>
</mgrwt>
</event>
<event>
 4    1  0.5886875E-005  0.5300794E+03  0.7818608E-02  0.1006213E+00
         -2   -1    0    0    0  501 -0.00000000000E+00  0.00000000000E+00  0.25646891012E+03  0.25646891013E+03  0.25500000000E-02 0. -1.
          2   -1    0    0  501    0  0.00000000000E+00 -0.00000000000E+00 -0.27389695718E+03  0.27389695719E+03  0.25500000000E-02 0.  1.
    5000001    1    1    2    0    0 -0.12583023501E+01  0.18657075528E+03  0.87364095161E+00  0.26486787895E+03  0.18800000000E+03 0.  0.
   -5000001    1    1    2    0    0  0.12583023501E+01 -0.18657075528E+03 -0.18301688014E+02  0.26549798838E+03  0.18800000000E+03 0.  0.
<mgrwt>
<rscale>  0 0.53007944E+03</rscale>
<asrwt>0</asrwt>
<pdfrwt beam="1">  1        2 0.39128137E-01 0.53007944E+03</pdfrwt>
<pdfrwt beam="2">  1       -2 0.36638416E-01 0.53007944E+03</pdfrwt>
<totfact> 0.92842068E+02</totfact>
</mgrwt>
</event>
<event>
 4    1  0.5886875E-005  0.4149825E+03  0.7818608E-02  0.1038712E+00
         -2   -1    0    0    0  501 -0.00000000000E+00  0.00000000000E+00  0.66186112930E+03  0.66186112931E+03  0.25500000000E-02 0.  1.
          2   -1    0    0  501    0  0.00000000000E+00 -0.00000000000E+00 -0.65047823884E+02  0.65047823934E+02  0.25500000000E-02 0. -1.
    5000001    1    1    2    0    0  0.70646489629E+02 -0.48797827819E+02  0.26627563601E+03  0.33707398124E+03  0.18800000000E+03 0.  0.
   -5000001    1    1    2    0    0 -0.70646489629E+02  0.48797827819E+02  0.33053766941E+03  0.38983497200E+03  0.18800000000E+03 0.  0.
<mgrwt>
<rscale>  0 0.41498254E+03</rscale>
<asrwt>0</asrwt>
<pdfrwt beam="1">  1        2 0.92925461E-02 0.41498254E+03</pdfrwt>
<pdfrwt beam="2">  1       -2 0.94551592E-01 0.41498254E+03</pdfrwt>
<totfact> 0.69130883E+02</totfact>
</mgrwt>
</event>
<event>
 4    1  0.5886875E-005  0.4376674E+03  0.7818608E-02  0.1031465E+00
         -2   -1    0    0    0  501 -0.00000000000E+00  0.00000000000E+00  0.17532691251E+02  0.17532691437E+02  0.25500000000E-02 0. -1.
          2   -1    0    0  501    0  0.00000000000E+00 -0.00000000000E+00 -0.27313650063E+04  0.27313650063E+04  0.25500000000E-02 0.  1.
    5000001    1    1    2    0    0  0.64645524137E+02  0.75812625462E+02 -0.10355763455E+04  0.10572080993E+04  0.18800000000E+03 0.  0.
   -5000001    1    1    2    0    0 -0.64645524137E+02 -0.75812625462E+02 -0.16782559696E+04  0.16916895985E+04  0.18800000000E+03 0.  0.
<mgrwt>
<rscale>  0 0.43766736E+03</rscale>
<asrwt>0</asrwt>
<pdfrwt beam="1">  1        2 0.39019473E+00 0.43766736E+03</pdfrwt>
<pdfrwt beam="2">  1       -2 0.25046719E-02 0.43766736E+03</pdfrwt>
<totfact> 0.20933006E+03</totfact>
</mgrwt>
</event>
<event>
 4    1  0.5886875E-005  0.1698293E+04  0.7818608E-02  0.8762338E-01
         -2   -1    0    0    0  501 -0.00000000000E+00  0.00000000000E+00  0.51667114615E+03  0.51667114615E+03  0.25500000000E-02 0. -1.
          2   -1    0    0  501    0  0.00000000000E+00 -0.00000000000E+00 -0.13955689218E+04  0.13955689218E+04  0.25500000000E-02 0.  1.
    5000001    1    1    2    0    0 -0.15496336928E+03  0.50731073640E+03 -0.11554221007E+04  0.12851933940E+04  0.18800000000E+03 0.  0.
   -5000001    1    1    2    0    0  0.15496336928E+03 -0.50731073640E+03  0.27652432501E+03  0.62704667403E+03  0.18800000000E+03 0.  0.
<mgrwt>
<rscale>  0 0.16982935E+04</rscale>
<asrwt>0</asrwt>
<pdfrwt beam="1">  1        2 0.19936699E+00 0.16982935E+04</pdfrwt>
<pdfrwt beam="2">  1       -2 0.73810165E-01 0.16982935E+04</pdfrwt>
<totfact> 0.26263642E+01</totfact>
</mgrwt>
</event>
<event>
 4    1  0.5886875E-005  0.6888224E+03  0.7818608E-02  0.9736541E-01
          2   -1    0    0  501    0  0.00000000000E+00  0.00000000000E+00  0.16852108289E+03  0.16852108291E+03  0.25500000000E-02 0. -1.
         -2   -1    0    0    0  501 -0.00000000000E+00 -0.00000000000E+00 -0.70388268580E+03  0.70388268580E+03  0.25500000000E-02 0.  1.
    5000001    1    1    2    0    0  0.10746413864E+03 -0.20476480013E+03 -0.48630748300E+03  0.57036491169E+03  0.18800000000E+03 0.  0.
   -5000001    1    1    2    0    0 -0.10746413864E+03  0.20476480013E+03 -0.49054119906E+02  0.30203885701E+03  0.18800000000E+03 0.  0.
<mgrwt>
<rscale>  0 0.68882239E+03</rscale>
<asrwt>0</asrwt>
<pdfrwt beam="1">  1        2 0.24074441E-01 0.68882239E+03</pdfrwt>
<pdfrwt beam="2">  1       -2 0.10055467E+00 0.68882239E+03</pdfrwt>
<totfact> 0.18853300E+02</totfact>
</mgrwt>
</event>
<event>
 4    1  0.5886875E-005  0.4885260E+03  0.7818608E-02  0.1016818E+00
         -2   -1    0    0    0  501 -0.00000000000E+00  0.00000000000E+00  0.12017370244E+03  0.12017370246E+03  0.25500000000E-02 0. -1.
          2   -1    0    0  501    0  0.00000000000E+00 -0.00000000000E+00 -0.49648469191E+03  0.49648469192E+03  0.25500000000E-02 0.  1.
    5000001    1    1    2    0    0 -0.91348409815E+02 -0.12574961379E+03 -0.20426662224E+03  0.31816088746E+03  0.18800000000E+03 0.  0.
   -5000001    1    1    2    0    0  0.91348409815E+02  0.12574961379E+03 -0.17204436723E+03  0.29849750693E+03  0.18800000000E+03 0.  0.
<mgrwt>
<rscale>  0 0.48852596E+03</rscale>
<asrwt>0</asrwt>
<pdfrwt beam="1">  1        2 0.70926383E-01 0.48852596E+03</pdfrwt>
<pdfrwt beam="2">  1       -2 0.17167672E-01 0.48852596E+03</pdfrwt>
<totfact> 0.18744592E+03</totfact>
</mgrwt>
</event>
<event>
 4    1  0.5886875E-005  0.9801144E+03  0.7818608E-02  0.9330628E-01
         -2   -1    0    0    0  501 -0.00000000000E+00  0.00000000000E+00  0.37544782961E+03  0.37544782962E+03  0.25500000000E-02 0. -1.
          2   -1    0    0  501    0  0.00000000000E+00 -0.00000000000E+00 -0.63965223165E+03  0.63965223166E+03  0.25500000000E-02 0.  1.
    5000001    1    1    2    0    0 -0.44427366463E+03  0.82676629064E+02 -0.10678525976E+03  0.50096068286E+03  0.18800000000E+03 0.  0.
   -5000001    1    1    2    0    0  0.44427366463E+03 -0.82676629064E+02 -0.15741914228E+03  0.51413937841E+03  0.18800000000E+03 0.  0.
<mgrwt>
<rscale>  0 0.98011436E+03</rscale>
<asrwt>0</asrwt>
<pdfrwt beam="1">  1        2 0.91378890E-01 0.98011436E+03</pdfrwt>
<pdfrwt beam="2">  1       -2 0.53635405E-01 0.98011436E+03</pdfrwt>
<totfact> 0.16452176E+02</totfact>
</mgrwt>
</event>
<event>
 4    1  0.5886875E-005  0.4926838E+03  0.7818608E-02  0.1015706E+00
          2   -1    0    0  501    0  0.00000000000E+00  0.00000000000E+00  0.25663782812E+04  0.25663782812E+04  0.25500000000E-02 0.  1.
         -2   -1    0    0    0  501 -0.00000000000E+00 -0.00000000000E+00 -0.23645898962E+02  0.23645899099E+02  0.25500000000E-02 0. -1.
    5000001    1    1    2    0    0  0.10545121002E+03  0.90862013561E+02  0.16773615630E+04  0.16935943069E+04  0.18800000000E+03 0.  0.
   -5000001    1    1    2    0    0 -0.10545121002E+03 -0.90862013561E+02  0.86537081917E+03  0.89642987337E+03  0.18800000000E+03 0.  0.
<mgrwt>
<rscale>  0 0.49268376E+03</rscale>
<asrwt>0</asrwt>
<pdfrwt beam="1">  1        2 0.36662523E+00 0.49268376E+03</pdfrwt>
<pdfrwt beam="2">  1       -2 0.33779877E-02 0.49268376E+03</pdfrwt>
<totfact> 0.16151826E+03</totfact>
</mgrwt>
</event>
<event>
 4    1  0.5886875E-005  0.5079575E+03  0.7818608E-02  0.1011723E+00
          2   -1    0    0  501    0  0.00000000000E+00  0.00000000000E+00  0.48531883445E+03  0.48531883446E+03  0.25500000000E-02 0.  1.
         -2   -1    0    0    0  501 -0.00000000000E+00 -0.00000000000E+00 -0.13291304880E+03  0.13291304882E+03  0.25500000000E-02 0. -1.
    5000001    1    1    2    0    0  0.84088369976E+02  0.12297958248E+01  0.35709118998E+03  0.41222625380E+03  0.18800000000E+03 0.  0.
   -5000001    1    1    2    0    0 -0.84088369976E+02 -0.12297958248E+01 -0.46854043237E+01  0.20600562948E+03  0.18800000000E+03 0.  0.
<mgrwt>
<rscale>  0 0.50795750E+03</rscale>
<asrwt>0</asrwt>
<pdfrwt beam="1">  1        2 0.69331263E-01 0.50795750E+03</pdfrwt>
<pdfrwt beam="2">  1       -2 0.18987578E-01 0.50795750E+03</pdfrwt>
<totfact> 0.16187038E+03</totfact>
</mgrwt>
</event>
<event>
 4    1  0.5886875E-005  0.6267044E+03  0.7818608E-02  0.9851501E-01
          2   -1    0    0  501    0  0.00000000000E+00  0.00000000000E+00  0.98186714568E+03  0.98186714569E+03  0.25500000000E-02 0.  1.
         -2   -1    0    0    0  501 -0.00000000000E+00 -0.00000000000E+00 -0.10000295093E+03  0.10000295097E+03  0.25500000000E-02 0. -1.
    5000001    1    1    2    0    0  0.16171707149E+03  0.16190093538E+03  0.26419827316E+03  0.39687410047E+03  0.18800000000E+03 0.  0.
   -5000001    1    1    2    0    0 -0.16171707149E+03 -0.16190093538E+03  0.61766592159E+03  0.68499599618E+03  0.18800000000E+03 0.  0.
<mgrwt>
<rscale>  0 0.62670443E+03</rscale>
<asrwt>0</asrwt>
<pdfrwt beam="1">  1        2 0.14026674E+00 0.62670443E+03</pdfrwt>
<pdfrwt beam="2">  1       -2 0.14286135E-01 0.62670443E+03</pdfrwt>
<totfact> 0.11014742E+03</totfact>
</mgrwt>
</event>
<event>
 4    1  0.5886875E-005  0.4267555E+03  0.7818608E-02  0.1034890E+00
         -2   -1    0    0    0  501 -0.00000000000E+00  0.00000000000E+00  0.71640354410E+02  0.71640354455E+02  0.25500000000E-02 0. -1.
          2   -1    0    0  501    0  0.00000000000E+00 -0.00000000000E+00 -0.63553657100E+03  0.63553657101E+03  0.25500000000E-02 0.  1.
    5000001    1    1    2    0    0 -0.55105217395E+02 -0.54593384453E+02 -0.17495221328E+03  0.26827094427E+03  0.18800000000E+03 0.  0.
   -5000001    1    1    2    0    0  0.55105217395E+02  0.54593384453E+02 -0.38894400331E+03  0.43890598119E+03  0.18800000000E+03 0.  0.
<mgrwt>
<rscale>  0 0.42675550E+03</rscale>
<asrwt>0</asrwt>
<pdfrwt beam="1">  1        2 0.90790935E-01 0.42675550E+03</pdfrwt>
<pdfrwt beam="2">  1       -2 0.10234337E-01 0.42675550E+03</pdfrwt>
<totfact> 0.33133177E+03</totfact>
</mgrwt>
</event>
<event>
 4    1  0.5886875E-005  0.9464859E+03  0.7818608E-02  0.9369268E-01
          2   -1    0    0  501    0  0.00000000000E+00  0.00000000000E+00  0.55374038459E+03  0.55374038460E+03  0.25500000000E-02 0.  1.
         -2   -1    0    0    0  501 -0.00000000000E+00 -0.00000000000E+00 -0.40444742657E+03  0.40444742658E+03  0.25500000000E-02 0. -1.
    5000001    1    1    2    0    0 -0.37232094207E+03  0.14805485114E+03  0.24426421352E+03  0.50552164034E+03  0.18800000000E+03 0.  0.
   -5000001    1    1    2    0    0  0.37232094207E+03 -0.14805485114E+03 -0.94971255505E+02  0.45266617084E+03  0.18800000000E+03 0.  0.
<mgrwt>
<rscale>  0 0.94648587E+03</rscale>
<asrwt>0</asrwt>
<pdfrwt beam="1">  1        2 0.79105769E-01 0.94648587E+03</pdfrwt>
<pdfrwt beam="2">  1       -2 0.57778204E-01 0.94648587E+03</pdfrwt>
<totfact> 0.16751347E+02</totfact>
</mgrwt>
</event>
<event>
 4    1  0.5886875E-005  0.7200316E+03  0.7818608E-02  0.9683576E-01
          2   -1    0    0  501    0  0.00000000000E+00  0.00000000000E+00  0.26338673046E+03  0.26338673047E+03  0.25500000000E-02 0.  1.
         -2   -1    0    0    0  501 -0.00000000000E+00 -0.00000000000E+00 -0.49209531120E+03  0.49209531121E+03  0.25500000000E-02 0. -1.
    5000001    1    1    2    0    0  0.87962756340E+02 -0.22713028860E+03  0.81776140520E+02  0.31836606550E+03  0.18800000000E+03 0.  0.
   -5000001    1    1    2    0    0 -0.87962756340E+02  0.22713028860E+03 -0.31048472126E+03  0.43711597619E+03  0.18800000000E+03 0.  0.
<mgrwt>
<rscale>  0 0.72003160E+03</rscale>
<asrwt>0</asrwt>
<pdfrwt beam="1">  1        2 0.37626676E-01 0.72003160E+03</pdfrwt>
<pdfrwt beam="2">  1       -2 0.70299329E-01 0.72003160E+03</pdfrwt>
<totfact> 0.25628117E+02</totfact>
</mgrwt>
</event>
<event>
 4    1  0.5886875E-005  0.5748023E+03  0.7818608E-02  0.9959108E-01
          2   -1    0    0  501    0  0.00000000000E+00  0.00000000000E+00  0.29935546817E+04  0.29935546817E+04  0.25500000000E-02 0.  1.
         -2   -1    0    0    0  501 -0.00000000000E+00 -0.00000000000E+00 -0.27592418351E+02  0.27592418469E+02  0.25500000000E-02 0. -1.
    5000001    1    1    2    0    0 -0.21103439957E+03  0.21717913142E+02  0.17321957696E+04  0.17552359869E+04  0.18800000000E+03 0.  0.
   -5000001    1    1    2    0    0  0.21103439957E+03 -0.21717913142E+02  0.12337664937E+04  0.12659111132E+04  0.18800000000E+03 0.  0.
<mgrwt>
<rscale>  0 0.57480227E+03</rscale>
<asrwt>0</asrwt>
<pdfrwt beam="1">  1        2 0.42765066E+00 0.57480227E+03</pdfrwt>
<pdfrwt beam="2">  1       -2 0.39417741E-02 0.57480227E+03</pdfrwt>
<totfact> 0.75500550E+02</totfact>
</mgrwt>
</event>
<event>
 4    1  0.5886875E-005  0.1055666E+04  0.7818608E-02  0.9249513E-01
         -2   -1    0    0    0  501 -0.00000000000E+00  0.00000000000E+00  0.90465161696E+02  0.90465161732E+02  0.25500000000E-02 0. -1.
          2   -1    0    0  501    0  0.00000000000E+00 -0.00000000000E+00 -0.30797257620E+04  0.30797257620E+04  0.25500000000E-02 0.  1.
    5000001    1    1    2    0    0 -0.11884699470E+03 -0.47867977835E+03 -0.15013121144E+04  0.15913959291E+04  0.18800000000E+03 0.  0.
   -5000001    1    1    2    0    0  0.11884699470E+03  0.47867977835E+03 -0.14879484859E+04  0.15787949946E+04  0.18800000000E+03 0.  0.
<mgrwt>
<rscale>  0 0.10556664E+04</rscale>
<asrwt>0</asrwt>
<pdfrwt beam="1">  1        2 0.43996076E+00 0.10556664E+04</pdfrwt>
<pdfrwt beam="2">  1       -2 0.12923596E-01 0.10556664E+04</pdfrwt>
<totfact> 0.97305528E+01</totfact>
</mgrwt>
</event>
<event>
 4    1  0.5886875E-005  0.9631851E+03  0.7818608E-02  0.9349871E-01
         -2   -1    0    0    0  501 -0.00000000000E+00  0.00000000000E+00  0.23540038966E+03  0.23540038967E+03  0.25500000000E-02 0. -1.
          2   -1    0    0  501    0  0.00000000000E+00 -0.00000000000E+00 -0.98526346512E+03  0.98526346512E+03  0.25500000000E-02 0.  1.
    5000001    1    1    2    0    0  0.40630212417E+03  0.16297815774E+03 -0.46404232250E+03  0.66507335916E+03  0.18800000000E+03 0.  0.
   -5000001    1    1    2    0    0 -0.40630212417E+03 -0.16297815774E+03 -0.28582075296E+03  0.55559049562E+03  0.18800000000E+03 0.  0.
<mgrwt>
<rscale>  0 0.96318514E+03</rscale>
<asrwt>0</asrwt>
<pdfrwt beam="1">  1        2 0.14075192E+00 0.96318514E+03</pdfrwt>
<pdfrwt beam="2">  1       -2 0.33628628E-01 0.96318514E+03</pdfrwt>
<totfact> 0.23659531E+02</totfact>
</mgrwt>
</event>
<event>
 4    1  0.5886875E-005  0.4687077E+03  0.7818608E-02  0.1022286E+00
          2   -1    0    0  501    0  0.00000000000E+00  0.00000000000E+00  0.64625341896E+03  0.64625341897E+03  0.25500000000E-02 0.  1.
         -2   -1    0    0    0  501 -0.00000000000E+00 -0.00000000000E+00 -0.84984826707E+02  0.84984826746E+02  0.25500000000E-02 0. -1.
    5000001    1    1    2    0    0  0.31620095144E+02  0.13609308121E+03  0.29236919333E+03  0.37462635035E+03  0.18800000000E+03 0.  0.
   -5000001    1    1    2    0    0 -0.31620095144E+02 -0.13609308121E+03  0.26889939893E+03  0.35661189536E+03  0.18800000000E+03 0.  0.
<mgrwt>
<rscale>  0 0.46870773E+03</rscale>
<asrwt>0</asrwt>
<pdfrwt beam="1">  1        2 0.92321918E-01 0.46870773E+03</pdfrwt>
<pdfrwt beam="2">  1       -2 0.12140689E-01 0.46870773E+03</pdfrwt>
<totfact> 0.24636738E+03</totfact>
</mgrwt>
</event>
<event>
 4    1  0.5886875E-005  0.6593446E+03  0.7818608E-02  0.9789401E-01
          2   -1    0    0  501    0  0.00000000000E+00  0.00000000000E+00  0.26870741078E+04  0.26870741078E+04  0.25500000000E-02 0.  1.
         -2   -1    0    0    0  501 -0.00000000000E+00 -0.00000000000E+00 -0.40446906393E+02  0.40446906474E+02  0.25500000000E-02 0. -1.
    5000001    1    1    2    0    0  0.21174614701E+03  0.15291988211E+03  0.10273457458E+04  0.10765705748E+04  0.18800000000E+03 0.  0.
   -5000001    1    1    2    0    0 -0.21174614701E+03 -0.15291988211E+03  0.16192814556E+04  0.16509504395E+04  0.18800000000E+03 0.  0.
<mgrwt>
<rscale>  0 0.65934463E+03</rscale>
<asrwt>0</asrwt>
<pdfrwt beam="1">  1        2 0.38386762E+00 0.65934463E+03</pdfrwt>
<pdfrwt beam="2">  1       -2 0.57781312E-02 0.65934463E+03</pdfrwt>
<totfact> 0.60353477E+02</totfact>
</mgrwt>
</event>
<event>
 4    1  0.5886875E-005  0.8821041E+03  0.7818608E-02  0.9448233E-01
          2   -1    0    0  501    0  0.00000000000E+00  0.00000000000E+00  0.78539729760E+03  0.78539729761E+03  0.25500000000E-02 0.  1.
         -2   -1    0    0    0  501 -0.00000000000E+00 -0.00000000000E+00 -0.24767964607E+03  0.24767964609E+03  0.25500000000E-02 0. -1.
    5000001    1    1    2    0    0  0.27512548879E+03 -0.42098612928E+02 -0.65927683353E+02  0.34228173662E+03  0.18800000000E+03 0.  0.
   -5000001    1    1    2    0    0 -0.27512548879E+03  0.42098612928E+02  0.60364533488E+03  0.69079520707E+03  0.18800000000E+03 0.  0.
<mgrwt>
<rscale>  0 0.88210413E+03</rscale>
<asrwt>0</asrwt>
<pdfrwt beam="1">  1        2 0.11219961E+00 0.88210413E+03</pdfrwt>
<pdfrwt beam="2">  1       -2 0.35382806E-01 0.88210413E+03</pdfrwt>
<totfact> 0.29238937E+02</totfact>
</mgrwt>
</event>
<event>
 4    1  0.5886875E-005  0.7327572E+03  0.7818608E-02  0.9662797E-01
         -2   -1    0    0    0  501 -0.00000000000E+00  0.00000000000E+00  0.61395043208E+02  0.61395043261E+02  0.25500000000E-02 0. -1.
          2   -1    0    0  501    0  0.00000000000E+00 -0.00000000000E+00 -0.21863860845E+04  0.21863860845E+04  0.25500000000E-02 0.  1.
    5000001    1    1    2    0    0  0.62733759486E+02  0.29141329331E+03 -0.75524793009E+03  0.83342706219E+03  0.18800000000E+03 0.  0.
   -5000001    1    1    2    0    0 -0.62733759486E+02 -0.29141329331E+03 -0.13697431112E+04  0.14143540656E+04  0.18800000000E+03 0.  0.
<mgrwt>
<rscale>  0 0.73275717E+03</rscale>
<asrwt>0</asrwt>
<pdfrwt beam="1">  1        2 0.31234082E+00 0.73275717E+03</pdfrwt>
<pdfrwt beam="2">  1       -2 0.87707218E-02 0.73275717E+03</pdfrwt>
<totfact> 0.55957356E+02</totfact>
</mgrwt>
</event>
<event>
 4    1  0.5886875E-005  0.5065546E+03  0.7818608E-02  0.1012082E+00
         -2   -1    0    0    0  501 -0.00000000000E+00  0.00000000000E+00  0.20009063205E+03  0.20009063207E+03  0.25500000000E-02 0. -1.
          2   -1    0    0  501    0  0.00000000000E+00 -0.00000000000E+00 -0.32060172507E+03  0.32060172508E+03  0.25500000000E-02 0.  1.
    5000001    1    1    2    0    0 -0.14416513092E+03 -0.73472549643E+02 -0.76048864841E+01  0.24816050214E+03  0.18800000000E+03 0.  0.
   -5000001    1    1    2    0    0  0.14416513092E+03  0.73472549643E+02 -0.11290620654E+03  0.27253185501E+03  0.18800000000E+03 0.  0.
<mgrwt>
<rscale>  0 0.50655464E+03</rscale>
<asrwt>0</asrwt>
<pdfrwt beam="1">  1        2 0.45800246E-01 0.50655464E+03</pdfrwt>
<pdfrwt beam="2">  1       -2 0.28584376E-01 0.50655464E+03</pdfrwt>
<totfact> 0.12406986E+03</totfact>
</mgrwt>
</event>
<event>
 4    1  0.5886875E-005  0.7616567E+03  0.7818608E-02  0.9617238E-01
          2   -1    0    0  501    0  0.00000000000E+00  0.00000000000E+00  0.12384528350E+04  0.12384528350E+04  0.25500000000E-02 0.  1.
         -2   -1    0    0    0  501 -0.00000000000E+00 -0.00000000000E+00 -0.11710597889E+03  0.11710597891E+03  0.25500000000E-02 0. -1.
    5000001    1    1    2    0    0 -0.26976909010E+03  0.16876896714E+03  0.72406096407E+03  0.81293702458E+03  0.18800000000E+03 0.  0.
   -5000001    1    1    2    0    0  0.26976909010E+03 -0.16876896714E+03  0.39728589203E+03  0.54262178932E+03  0.18800000000E+03 0.  0.
<mgrwt>
<rscale>  0 0.76165670E+03</rscale>
<asrwt>0</asrwt>
<pdfrwt beam="1">  1        2 0.17692184E+00 0.76165670E+03</pdfrwt>
<pdfrwt beam="2">  1       -2 0.16729425E-01 0.76165670E+03</pdfrwt>
<totfact> 0.59432987E+02</totfact>
</mgrwt>
</event>
<event>
 4    1  0.5886875E-005  0.5162528E+03  0.7818608E-02  0.1009622E+00
          2   -1    0    0  501    0  0.00000000000E+00  0.00000000000E+00  0.75567219424E+02  0.75567219467E+02  0.25500000000E-02 0.  1.
         -2   -1    0    0    0  501 -0.00000000000E+00 -0.00000000000E+00 -0.88172158725E+03  0.88172158726E+03  0.25500000000E-02 0. -1.
    5000001    1    1    2    0    0 -0.16530126693E+03  0.59628052834E+02 -0.36574923924E+03  0.44720970421E+03  0.18800000000E+03 0.  0.
   -5000001    1    1    2    0    0  0.16530126693E+03 -0.59628052834E+02 -0.44040512859E+03  0.51007910251E+03  0.18800000000E+03 0.  0.
<mgrwt>
<rscale>  0 0.51625284E+03</rscale>
<asrwt>0</asrwt>
<pdfrwt beam="1">  1        2 0.10795318E-01 0.51625284E+03</pdfrwt>
<pdfrwt beam="2">  1       -2 0.12596022E+00 0.51625284E+03</pdfrwt>
<totfact> 0.28753655E+02</totfact>
</mgrwt>
</event>
<event>
 4    1  0.5886875E-005  0.8866908E+03  0.7818608E-02  0.9442373E-01
         -2   -1    0    0    0  501 -0.00000000000E+00  0.00000000000E+00  0.10479308068E+03  0.10479308071E+03  0.25500000000E-02 0.  1.
          2   -1    0    0  501    0  0.00000000000E+00 -0.00000000000E+00 -0.18756501961E+04  0.18756501961E+04  0.25500000000E-02 0. -1.
    5000001    1    1    2    0    0 -0.39519640174E+03 -0.27284311281E+02 -0.73919627503E+03  0.85946481173E+03  0.18800000000E+03 0.  0.
   -5000001    1    1    2    0    0  0.39519640174E+03  0.27284311281E+02 -0.10316608404E+04  0.11209784651E+04  0.18800000000E+03 0.  0.
<mgrwt>
<rscale>  0 0.88669084E+03</rscale>
<asrwt>0</asrwt>
<pdfrwt beam="1">  1        2 0.26795001E+00 0.88669084E+03</pdfrwt>
<pdfrwt beam="2">  1       -2 0.14970441E-01 0.88669084E+03</pdfrwt>
<totfact> 0.32960444E+02</totfact>
</mgrwt>
</event>
<event>
 4    1  0.5886875E-005  0.6658197E+03  0.7818608E-02  0.9777539E-01
          2   -1    0    0  501    0  0.00000000000E+00  0.00000000000E+00  0.14975603786E+04  0.14975603786E+04  0.25500000000E-02 0.  1.
         -2   -1    0    0    0  501 -0.00000000000E+00 -0.00000000000E+00 -0.74006334962E+02  0.74006335006E+02  0.25500000000E-02 0. -1.
    5000001    1    1    2    0    0 -0.25714886724E+03  0.60091044636E+02  0.53281833899E+03  0.62367928932E+03  0.18800000000E+03 0.  0.
   -5000001    1    1    2    0    0  0.25714886724E+03 -0.60091044636E+02  0.89073570460E+03  0.94788742424E+03  0.18800000000E+03 0.  0.
<mgrwt>
<rscale>  0 0.66581966E+03</rscale>
<asrwt>0</asrwt>
<pdfrwt beam="1">  1        2 0.21393716E+00 0.66581966E+03</pdfrwt>
<pdfrwt beam="2">  1       -2 0.10572335E-01 0.66581966E+03</pdfrwt>
<totfact> 0.93084200E+02</totfact>
</mgrwt>
</event>
<event>
 4    1  0.5886875E-005  0.7173416E+03  0.7818608E-02  0.9688027E-01
          2   -1    0    0  501    0  0.00000000000E+00  0.00000000000E+00  0.25638570484E+04  0.25638570484E+04  0.25500000000E-02 0.  1.
         -2   -1    0    0    0  501 -0.00000000000E+00 -0.00000000000E+00 -0.50176252851E+02  0.50176252915E+02  0.25500000000E-02 0. -1.
    5000001    1    1    2    0    0 -0.78046209965E+02  0.14858392652E+03  0.32683929580E+03  0.41271820821E+03  0.18800000000E+03 0.  0.
   -5000001    1    1    2    0    0  0.78046209965E+02 -0.14858392652E+03  0.21868414997E+04  0.22013150931E+04  0.18800000000E+03 0.  0.
<mgrwt>
<rscale>  0 0.71734159E+03</rscale>
<asrwt>0</asrwt>
<pdfrwt beam="1">  1        2 0.36626534E+00 0.71734159E+03</pdfrwt>
<pdfrwt beam="2">  1       -2 0.71680352E-02 0.71734159E+03</pdfrwt>
<totfact> 0.49573467E+02</totfact>
</mgrwt>
</event>
<event>
 4    1  0.5886875E-005  0.5943513E+03  0.7818608E-02  0.9917195E-01
         -2   -1    0    0    0  501 -0.00000000000E+00  0.00000000000E+00  0.12755973617E+03  0.12755973619E+03  0.25500000000E-02 0. -1.
          2   -1    0    0  501    0  0.00000000000E+00 -0.00000000000E+00 -0.69232947946E+03  0.69232947947E+03  0.25500000000E-02 0.  1.
    5000001    1    1    2    0    0 -0.11486171604E+02  0.19968655046E+03 -0.12532691267E+03  0.30175732901E+03  0.18800000000E+03 0.  0.
   -5000001    1    1    2    0    0  0.11486171604E+02 -0.19968655046E+03 -0.43944283063E+03  0.51813188665E+03  0.18800000000E+03 0.  0.
<mgrwt>
<rscale>  0 0.59435130E+03</rscale>
<asrwt>0</asrwt>
<pdfrwt beam="1">  1        2 0.98904210E-01 0.59435130E+03</pdfrwt>
<pdfrwt beam="2">  1       -2 0.18222820E-01 0.59435130E+03</pdfrwt>
<totfact> 0.11471778E+03</totfact>
</mgrwt>
</event>
<event>
 4    1  0.5886875E-005  0.5290187E+03  0.7818608E-02  0.1006470E+00
         -2   -1    0    0    0  501 -0.00000000000E+00  0.00000000000E+00  0.10899462892E+04  0.10899462892E+04  0.25500000000E-02 0. -1.
          2   -1    0    0  501    0  0.00000000000E+00 -0.00000000000E+00 -0.64191418366E+02  0.64191418416E+02  0.25500000000E-02 0.  1.
    5000001    1    1    2    0    0  0.78767836475E+02  0.16355132322E+03  0.42378160120E+03  0.49788377450E+03  0.18800000000E+03 0.  0.
   -5000001    1    1    2    0    0 -0.78767836475E+02 -0.16355132322E+03  0.60197326964E+03  0.65625393313E+03  0.18800000000E+03 0.  0.
<mgrwt>
<rscale>  0 0.52901871E+03</rscale>
<asrwt>0</asrwt>
<pdfrwt beam="1">  1        2 0.91702036E-02 0.52901871E+03</pdfrwt>
<pdfrwt beam="2">  1       -2 0.15570660E+00 0.52901871E+03</pdfrwt>
<totfact> 0.20499272E+02</totfact>
</mgrwt>
</event>
<event>
 4    1  0.5886875E-005  0.5675890E+03  0.7818608E-02  0.9975028E-01
         -2   -1    0    0    0  501 -0.00000000000E+00  0.00000000000E+00  0.37206316423E+02  0.37206316510E+02  0.25500000000E-02 0. -1.
          2   -1    0    0  501    0  0.00000000000E+00 -0.00000000000E+00 -0.21646677836E+04  0.21646677836E+04  0.25500000000E-02 0.  1.
    5000001    1    1    2    0    0 -0.97542010853E+02 -0.18440521639E+03 -0.12225276261E+04  0.12543673801E+04  0.18800000000E+03 0.  0.
   -5000001    1    1    2    0    0  0.97542010853E+02  0.18440521639E+03 -0.90493384100E+03  0.94750671993E+03  0.18800000000E+03 0.  0.
<mgrwt>
<rscale>  0 0.56758899E+03</rscale>
<asrwt>0</asrwt>
<pdfrwt beam="1">  1        2 0.30923817E+00 0.56758899E+03</pdfrwt>
<pdfrwt beam="2">  1       -2 0.53151894E-02 0.56758899E+03</pdfrwt>
<totfact> 0.12802098E+03</totfact>
</mgrwt>
</event>
<event>
 4    1  0.5886875E-005  0.1042503E+04  0.7818608E-02  0.9263119E-01
          2   -1    0    0  501    0  0.00000000000E+00  0.00000000000E+00  0.75160088791E+03  0.75160088791E+03  0.25500000000E-02 0.  1.
         -2   -1    0    0    0  501 -0.00000000000E+00 -0.00000000000E+00 -0.36149913921E+03  0.36149913922E+03  0.25500000000E-02 0. -1.
    5000001    1    1    2    0    0 -0.72818055504E+02  0.22257322895E+03  0.64995145011E+03  0.71597639553E+03  0.18800000000E+03 0.  0.
   -5000001    1    1    2    0    0  0.72818055504E+02 -0.22257322895E+03 -0.25984970141E+03  0.39712363161E+03  0.18800000000E+03 0.  0.
<mgrwt>
<rscale>  0 0.10425029E+04</rscale>
<asrwt>0</asrwt>
<pdfrwt beam="1">  1        2 0.10737155E+00 0.10425029E+04</pdfrwt>
<pdfrwt beam="2">  1       -2 0.51642735E-01 0.10425029E+04</pdfrwt>
<totfact> 0.14524589E+02</totfact>
</mgrwt>
</event>
<event>
 4    1  0.5886875E-005  0.5726323E+03  0.7818608E-02  0.9963871E-01
          2   -1    0    0  501    0  0.00000000000E+00  0.00000000000E+00  0.21538925144E+04  0.21538925144E+04  0.25500000000E-02 0.  1.
         -2   -1    0    0    0  501 -0.00000000000E+00 -0.00000000000E+00 -0.38059899303E+02  0.38059899389E+02  0.25500000000E-02 0. -1.
    5000001    1    1    2    0    0  0.47789097549E+02  0.19764156758E+03  0.13362448211E+04  0.13646392230E+04  0.18800000000E+03 0.  0.
   -5000001    1    1    2    0    0 -0.47789097549E+02 -0.19764156758E+03  0.77958779404E+03  0.82731319081E+03  0.18800000000E+03 0.  0.
<mgrwt>
<rscale>  0 0.57263228E+03</rscale>
<asrwt>0</asrwt>
<pdfrwt beam="1">  1        2 0.30769884E+00 0.57263228E+03</pdfrwt>
<pdfrwt beam="2">  1       -2 0.54371300E-02 0.57263228E+03</pdfrwt>
<totfact> 0.12509670E+03</totfact>
</mgrwt>
</event>
<event>
 4    1  0.5886875E-005  0.4367836E+03  0.7818608E-02  0.1031738E+00
          2   -1    0    0  501    0  0.00000000000E+00  0.00000000000E+00  0.17535957235E+04  0.17535957235E+04  0.25500000000E-02 0.  1.
         -2   -1    0    0    0  501 -0.00000000000E+00 -0.00000000000E+00 -0.27198385601E+02  0.27198385720E+02  0.25500000000E-02 0. -1.
    5000001    1    1    2    0    0 -0.45501934140E+02 -0.40956968513E+02  0.12413574842E+04  0.12570044960E+04  0.18800000000E+03 0.  0.
   -5000001    1    1    2    0    0  0.45501934140E+02  0.40956968513E+02  0.48503985361E+03  0.52378961317E+03  0.18800000000E+03 0.  0.
<mgrwt>
<rscale>  0 0.43678357E+03</rscale>
<asrwt>0</asrwt>
<pdfrwt beam="1">  1        2 0.25051371E+00 0.43678357E+03</pdfrwt>
<pdfrwt beam="2">  1       -2 0.38854832E-02 0.43678357E+03</pdfrwt>
<totfact> 0.33440986E+03</totfact>
</mgrwt>
</event>
<event>
 4    1  0.5886875E-005  0.6018748E+03  0.7818608E-02  0.9901524E-01
         -2   -1    0    0    0  501 -0.00000000000E+00  0.00000000000E+00  0.59359722855E+02  0.59359722910E+02  0.25500000000E-02 0. -1.
          2   -1    0    0  501    0  0.00000000000E+00 -0.00000000000E+00 -0.15256696566E+04  0.15256696566E+04  0.25500000000E-02 0.  1.
    5000001    1    1    2    0    0  0.20565979690E+03  0.98326267897E+02 -0.88340965965E+03  0.93151523540E+03  0.18800000000E+03 0.  0.
   -5000001    1    1    2    0    0 -0.20565979690E+03 -0.98326267897E+02 -0.58290027413E+03  0.65351414415E+03  0.18800000000E+03 0.  0.
<mgrwt>
<rscale>  0 0.60187483E+03</rscale>
<asrwt>0</asrwt>
<pdfrwt beam="1">  1        2 0.21795278E+00 0.60187483E+03</pdfrwt>
<pdfrwt beam="2">  1       -2 0.84799613E-02 0.60187483E+03</pdfrwt>
<totfact> 0.12885353E+03</totfact>
</mgrwt>
</event>
<event>
 4    1  0.5886875E-005  0.4079470E+03  0.7818608E-02  0.1041062E+00
          2   -1    0    0  501    0  0.00000000000E+00  0.00000000000E+00  0.28983421647E+03  0.28983421648E+03  0.25500000000E-02 0.  1.
         -2   -1    0    0    0  501 -0.00000000000E+00 -0.00000000000E+00 -0.14354823586E+03  0.14354823588E+03  0.25500000000E-02 0. -1.
    5000001    1    1    2    0    0 -0.13318381764E+02 -0.43783341435E+02  0.14171872530E+03  0.23983860694E+03  0.18800000000E+03 0.  0.
   -5000001    1    1    2    0    0  0.13318381764E+02  0.43783341435E+02  0.45672553157E+01  0.19354384542E+03  0.18800000000E+03 0.  0.
<mgrwt>
<rscale>  0 0.40794701E+03</rscale>
<asrwt>0</asrwt>
<pdfrwt beam="1">  1        2 0.41404887E-01 0.40794701E+03</pdfrwt>
<pdfrwt beam="2">  1       -2 0.20506891E-01 0.40794701E+03</pdfrwt>
<totfact> 0.24957666E+03</totfact>
</mgrwt>
</event>
<event>
 4    1  0.5886875E-005  0.4407447E+03  0.7818608E-02  0.1030519E+00
          2   -1    0    0  501    0  0.00000000000E+00  0.00000000000E+00  0.38910544081E+03  0.38910544082E+03  0.25500000000E-02 0.  1.
         -2   -1    0    0    0  501 -0.00000000000E+00 -0.00000000000E+00 -0.12480926307E+03  0.12480926309E+03  0.25500000000E-02 0. -1.
    5000001    1    1    2    0    0 -0.43469898217E+02 -0.72315953828E+02  0.22322221971E+03  0.30379497791E+03  0.18800000000E+03 0.  0.
   -5000001    1    1    2    0    0  0.43469898217E+02  0.72315953828E+02  0.41073958032E+02  0.21011972601E+03  0.18800000000E+03 0.  0.
<mgrwt>
<rscale>  0 0.44074466E+03</rscale>
<asrwt>0</asrwt>
<pdfrwt beam="1">  1        2 0.55586492E-01 0.44074466E+03</pdfrwt>
<pdfrwt beam="2">  1       -2 0.17829895E-01 0.44074466E+03</pdfrwt>
<totfact> 0.23022932E+03</totfact>
</mgrwt>
</event>
<event>
 4    1  0.5886875E-005  0.3866493E+03  0.7818608E-02  0.1048503E+00
          2   -1    0    0  501    0  0.00000000000E+00  0.00000000000E+00  0.36716216547E+03  0.36716216548E+03  0.25500000000E-02 0.  1.
         -2   -1    0    0    0  501 -0.00000000000E+00 -0.00000000000E+00 -0.10179266167E+03  0.10179266170E+03  0.25500000000E-02 0. -1.
    5000001    1    1    2    0    0  0.39624845384E+02  0.52353242044E+01  0.10745016922E+03  0.22019781074E+03  0.18800000000E+03 0.  0.
   -5000001    1    1    2    0    0 -0.39624845384E+02 -0.52353242044E+01  0.15791933459E+03  0.24875701644E+03  0.18800000000E+03 0.  0.
<mgrwt>
<rscale>  0 0.38664927E+03</rscale>
<asrwt>0</asrwt>
<pdfrwt beam="1">  1        2 0.52451740E-01 0.38664927E+03</pdfrwt>
<pdfrwt beam="2">  1       -2 0.14541808E-01 0.38664927E+03</pdfrwt>
<totfact> 0.34500367E+03</totfact>
</mgrwt>
</event>
<event>
 4    1  0.5886875E-005  0.8364225E+03  0.7818608E-02  0.9508744E-01
         -2   -1    0    0    0  501 -0.00000000000E+00  0.00000000000E+00  0.12276605403E+03  0.12276605406E+03  0.25500000000E-02 0. -1.
          2   -1    0    0  501    0  0.00000000000E+00 -0.00000000000E+00 -0.14246661363E+04  0.14246661363E+04  0.25500000000E-02 0.  1.
    5000001    1    1    2    0    0 -0.32819376807E+03  0.64226034805E+02 -0.34292465108E+03  0.51456530127E+03  0.18800000000E+03 0.  0.
   -5000001    1    1    2    0    0  0.32819376807E+03 -0.64226034805E+02 -0.95897543115E+03  0.10328668891E+04  0.18800000000E+03 0.  0.
<mgrwt>
<rscale>  0 0.83642248E+03</rscale>
<asrwt>0</asrwt>
<pdfrwt beam="1">  1        2 0.20352372E+00 0.83642248E+03</pdfrwt>
<pdfrwt beam="2">  1       -2 0.17538009E-01 0.83642248E+03</pdfrwt>
<totfact> 0.43228441E+02</totfact>
</mgrwt>
</event>
<event>
 4    1  0.5886875E-005  0.4406482E+03  0.7818608E-02  0.1030548E+00
          2   -1    0    0  501    0  0.00000000000E+00  0.00000000000E+00  0.39945837519E+03  0.39945837520E+03  0.25500000000E-02 0.  1.
         -2   -1    0    0    0  501 -0.00000000000E+00 -0.00000000000E+00 -0.12152131690E+03  0.12152131692E+03  0.25500000000E-02 0. -1.
    5000001    1    1    2    0    0 -0.92438116355E+02 -0.17632272788E+02  0.21688405121E+03  0.30205693846E+03  0.18800000000E+03 0.  0.
   -5000001    1    1    2    0    0  0.92438116355E+02  0.17632272788E+02  0.61053007084E+02  0.21892275367E+03  0.18800000000E+03 0.  0.
<mgrwt>
<rscale>  0 0.44064819E+03</rscale>
<asrwt>0</asrwt>
<pdfrwt beam="1">  1        2 0.57065482E-01 0.44064819E+03</pdfrwt>
<pdfrwt beam="2">  1       -2 0.17360188E-01 0.44064819E+03</pdfrwt>
<totfact> 0.23406603E+03</totfact>
</mgrwt>
</event>
<event>
 4    1  0.5886875E-005  0.5025744E+03  0.7818608E-02  0.1013109E+00
         -2   -1    0    0    0  501 -0.00000000000E+00  0.00000000000E+00  0.55606634026E+02  0.55606634084E+02  0.25500000000E-02 0. -1.
          2   -1    0    0  501    0  0.00000000000E+00 -0.00000000000E+00 -0.11355707711E+04  0.11355707711E+04  0.25500000000E-02 0.  1.
    5000001    1    1    2    0    0 -0.13582095681E+03 -0.79882698528E+02 -0.66920836288E+03  0.71274989357E+03  0.18800000000E+03 0.  0.
   -5000001    1    1    2    0    0  0.13582095681E+03  0.79882698528E+02 -0.41075577415E+03  0.47842751158E+03  0.18800000000E+03 0.  0.
<mgrwt>
<rscale>  0 0.50257445E+03</rscale>
<asrwt>0</asrwt>
<pdfrwt beam="1">  1        2 0.16222438E+00 0.50257445E+03</pdfrwt>
<pdfrwt beam="2">  1       -2 0.79438056E-02 0.50257445E+03</pdfrwt>
<totfact> 0.23280483E+03</totfact>
</mgrwt>
</event>
<event>
 4    1  0.5886875E-005  0.5252834E+03  0.7818608E-02  0.1007382E+00
          2   -1    0    0  501    0  0.00000000000E+00  0.00000000000E+00  0.64037477441E+03  0.64037477442E+03  0.25500000000E-02 0.  1.
         -2   -1    0    0    0  501 -0.00000000000E+00 -0.00000000000E+00 -0.10771921834E+03  0.10771921837E+03  0.25500000000E-02 0. -1.
    5000001    1    1    2    0    0 -0.10019851737E+03 -0.10920956769E+03  0.42017922029E+03  0.48359182140E+03  0.18800000000E+03 0.  0.
   -5000001    1    1    2    0    0  0.10019851737E+03  0.10920956769E+03  0.11247633578E+03  0.26450217139E+03  0.18800000000E+03 0.  0.
<mgrwt>
<rscale>  0 0.52528343E+03</rscale>
<asrwt>0</asrwt>
<pdfrwt beam="1">  1        2 0.91482110E-01 0.52528343E+03</pdfrwt>
<pdfrwt beam="2">  1       -2 0.15388460E-01 0.52528343E+03</pdfrwt>
<totfact> 0.16808781E+03</totfact>
</mgrwt>
</event>
<event>
 4    1  0.5886875E-005  0.4664072E+03  0.7818608E-02  0.1022939E+00
          2   -1    0    0  501    0  0.00000000000E+00  0.00000000000E+00  0.91733187027E+03  0.91733187028E+03  0.25500000000E-02 0.  1.
         -2   -1    0    0    0  501 -0.00000000000E+00 -0.00000000000E+00 -0.59284894722E+02  0.59284894777E+02  0.25500000000E-02 0. -1.
    5000001    1    1    2    0    0  0.62913195574E+02 -0.92073268710E+02  0.25885682123E+03  0.33880143283E+03  0.18800000000E+03 0.  0.
   -5000001    1    1    2    0    0 -0.62913195574E+02  0.92073268710E+02  0.59919015432E+03  0.63781533222E+03  0.18800000000E+03 0.  0.
<mgrwt>
<rscale>  0 0.46640722E+03</rscale>
<asrwt>0</asrwt>
<pdfrwt beam="1">  1        2 0.13104741E+00 0.46640722E+03</pdfrwt>
<pdfrwt beam="2">  1       -2 0.84692707E-02 0.46640722E+03</pdfrwt>
<totfact> 0.28398447E+03</totfact>
</mgrwt>
</event>
<event>
 4    1  0.5886875E-005  0.5230355E+03  0.7818608E-02  0.1007935E+00
         -2   -1    0    0    0  501 -0.00000000000E+00  0.00000000000E+00  0.60121040743E+03  0.60121040743E+03  0.25500000000E-02 0. -1.
          2   -1    0    0  501    0  0.00000000000E+00 -0.00000000000E+00 -0.11375639294E+03  0.11375639296E+03  0.25500000000E-02 0.  1.
    5000001    1    1    2    0    0  0.17729097413E+03 -0.22344181338E+02  0.19805806489E+03  0.32634697641E+03  0.18800000000E+03 0.  0.
   -5000001    1    1    2    0    0 -0.17729097413E+03  0.22344181338E+02  0.28939594961E+03  0.38861982399E+03  0.18800000000E+03 0.  0.
<mgrwt>
<rscale>  0 0.52303548E+03</rscale>
<asrwt>0</asrwt>
<pdfrwt beam="1">  1        2 0.16250913E-01 0.52303548E+03</pdfrwt>
<pdfrwt beam="2">  1       -2 0.85887201E-01 0.52303548E+03</pdfrwt>
<totfact> 0.43237967E+02</totfact>
</mgrwt>
</event>
<event>
 4    1  0.5886875E-005  0.4383014E+03  0.7818608E-02  0.1031269E+00
         -2   -1    0    0    0  501 -0.00000000000E+00  0.00000000000E+00  0.34488329890E+02  0.34488329984E+02  0.25500000000E-02 0. -1.
          2   -1    0    0  501    0  0.00000000000E+00 -0.00000000000E+00 -0.13925587374E+04  0.13925587374E+04  0.25500000000E-02 0.  1.
    5000001    1    1    2    0    0 -0.16336603176E+01  0.10275404022E+03 -0.82901557352E+03  0.85625456656E+03  0.18800000000E+03 0.  0.
   -5000001    1    1    2    0    0  0.16336603176E+01 -0.10275404022E+03 -0.52905483402E+03  0.57079250085E+03  0.18800000000E+03 0.  0.
<mgrwt>
<rscale>  0 0.43830138E+03</rscale>
<asrwt>0</asrwt>
<pdfrwt beam="1">  1        2 0.19893693E+00 0.43830138E+03</pdfrwt>
<pdfrwt beam="2">  1       -2 0.49269051E-02 0.43830138E+03</pdfrwt>
<totfact> 0.35549415E+03</totfact>
</mgrwt>
</event>
<event>
 4    1  0.5886875E-005  0.1181579E+04  0.7818608E-02  0.9129135E-01
          2   -1    0    0  501    0  0.00000000000E+00  0.00000000000E+00  0.72057696885E+03  0.72057696885E+03  0.25500000000E-02 0. -1.
         -2   -1    0    0    0  501 -0.00000000000E+00 -0.00000000000E+00 -0.48437900121E+03  0.48437900122E+03  0.25500000000E-02 0.  1.
    5000001    1    1    2    0    0  0.44386620155E+03 -0.33053075527E+03  0.30251991377E+02  0.58525803544E+03  0.18800000000E+03 0.  0.
   -5000001    1    1    2    0    0 -0.44386620155E+03  0.33053075527E+03  0.20594597626E+03  0.61969793464E+03  0.18800000000E+03 0.  0.
<mgrwt>
<rscale>  0 0.11815792E+04</rscale>
<asrwt>0</asrwt>
<pdfrwt beam="1">  1        2 0.10293957E+00 0.11815792E+04</pdfrwt>
<pdfrwt beam="2">  1       -2 0.69197000E-01 0.11815792E+04</pdfrwt>
<totfact> 0.81856025E+01</totfact>
</mgrwt>
</event>
<event>
 4    1  0.5886875E-005  0.4459906E+03  0.7818608E-02  0.1028924E+00
         -2   -1    0    0    0  501 -0.00000000000E+00  0.00000000000E+00  0.77509640057E+03  0.77509640058E+03  0.25500000000E-02 0. -1.
          2   -1    0    0  501    0  0.00000000000E+00 -0.00000000000E+00 -0.64155757578E+02  0.64155757628E+02  0.25500000000E-02 0.  1.
    5000001    1    1    2    0    0  0.11357572408E+03  0.36860380572E+02  0.33445134763E+03  0.40182065239E+03  0.18800000000E+03 0.  0.
   -5000001    1    1    2    0    0 -0.11357572408E+03 -0.36860380572E+02  0.37648929536E+03  0.43743150581E+03  0.18800000000E+03 0.  0.
<mgrwt>
<rscale>  0 0.44599057E+03</rscale>
<asrwt>0</asrwt>
<pdfrwt beam="1">  1        2 0.91651080E-02 0.44599057E+03</pdfrwt>
<pdfrwt beam="2">  1       -2 0.11072806E+00 0.44599057E+03</pdfrwt>
<totfact> 0.48490207E+02</totfact>
</mgrwt>
</event>
<event>
 4    1  0.5886875E-005  0.4569750E+03  0.7818608E-02  0.1025662E+00
          2   -1    0    0  501    0  0.00000000000E+00  0.00000000000E+00  0.10951982513E+03  0.10951982516E+03  0.25500000000E-02 0.  1.
         -2   -1    0    0    0  501 -0.00000000000E+00 -0.00000000000E+00 -0.47668574939E+03  0.47668574940E+03  0.25500000000E-02 0. -1.
    5000001    1    1    2    0    0  0.81860898065E+02 -0.53855434074E+02 -0.29289134868E+03  0.36156736100E+03  0.18800000000E+03 0.  0.
   -5000001    1    1    2    0    0 -0.81860898065E+02  0.53855434074E+02 -0.74274575588E+02  0.22463821356E+03  0.18800000000E+03 0.  0.
<mgrwt>
<rscale>  0 0.45697501E+03</rscale>
<asrwt>0</asrwt>
<pdfrwt beam="1">  1        2 0.15645690E-01 0.45697501E+03</pdfrwt>
<pdfrwt beam="2">  1       -2 0.68097963E-01 0.45697501E+03</pdfrwt>
<totfact> 0.75563570E+02</totfact>
</mgrwt>
</event>
<event>
 4    1  0.5886875E-005  0.1070851E+04  0.7818608E-02  0.9234078E-01
          2   -1    0    0  501    0  0.00000000000E+00  0.00000000000E+00  0.25220835169E+04  0.25220835169E+04  0.25500000000E-02 0.  1.
         -2   -1    0    0    0  501 -0.00000000000E+00 -0.00000000000E+00 -0.11366801985E+03  0.11366801988E+03  0.25500000000E-02 0. -1.
    5000001    1    1    2    0    0  0.34957171208E+03  0.24728218661E+03  0.18459930089E+04  0.19043064487E+04  0.18800000000E+03 0.  0.
   -5000001    1    1    2    0    0 -0.34957171208E+03 -0.24728218661E+03  0.56242248820E+03  0.73144508812E+03  0.18800000000E+03 0.  0.
<mgrwt>
<rscale>  0 0.10708506E+04</rscale>
<asrwt>0</asrwt>
<pdfrwt beam="1">  1        2 0.36029757E+00 0.10708506E+04</pdfrwt>
<pdfrwt beam="2">  1       -2 0.16238292E-01 0.10708506E+04</pdfrwt>
<totfact> 0.13193891E+02</totfact>
</mgrwt>
</event>
<event>
 4    1  0.5886875E-005  0.4438708E+03  0.7818608E-02  0.1029566E+00
         -2   -1    0    0    0  501 -0.00000000000E+00  0.00000000000E+00  0.25183405591E+02  0.25183405720E+02  0.25500000000E-02 0. -1.
          2   -1    0    0  501    0  0.00000000000E+00 -0.00000000000E+00 -0.19558642018E+04  0.19558642018E+04  0.25500000000E-02 0.  1.
    5000001    1    1    2    0    0 -0.11440483759E+03  0.27015028026E+02 -0.92228970082E+03  0.94856764168E+03  0.18800000000E+03 0.  0.
   -5000001    1    1    2    0    0  0.11440483759E+03 -0.27015028026E+02 -0.10083910953E+04  0.10324799658E+04  0.18800000000E+03 0.  0.
<mgrwt>
<rscale>  0 0.44387080E+03</rscale>
<asrwt>0</asrwt>
<pdfrwt beam="1">  1        2 0.27940908E+00 0.44387080E+03</pdfrwt>
<pdfrwt beam="2">  1       -2 0.35976306E-02 0.44387080E+03</pdfrwt>
<totfact> 0.29803201E+03</totfact>
</mgrwt>
</event>
<event>
 4    1  0.5886875E-005  0.8423991E+03  0.7818608E-02  0.9500596E-01
          2   -1    0    0  501    0  0.00000000000E+00  0.00000000000E+00  0.10827015593E+03  0.10827015596E+03  0.25500000000E-02 0.  1.
         -2   -1    0    0    0  501 -0.00000000000E+00 -0.00000000000E+00 -0.16385775709E+04  0.16385775710E+04  0.25500000000E-02 0. -1.
    5000001    1    1    2    0    0  0.23020971937E+03  0.28788110532E+03 -0.60196585400E+03  0.73046487601E+03  0.18800000000E+03 0.  0.
   -5000001    1    1    2    0    0 -0.23020971937E+03 -0.28788110532E+03 -0.92834156102E+03  0.10163828509E+04  0.18800000000E+03 0.  0.
<mgrwt>
<rscale>  0 0.84239907E+03</rscale>
<asrwt>0</asrwt>
<pdfrwt beam="1">  1        2 0.15467166E-01 0.84239907E+03</pdfrwt>
<pdfrwt beam="2">  1       -2 0.23408250E+00 0.84239907E+03</pdfrwt>
<totfact> 0.31692829E+01</totfact>
</mgrwt>
</event>
<event>
 4    1  0.5886875E-005  0.6677804E+03  0.7818608E-02  0.9773976E-01
          2   -1    0    0  501    0  0.00000000000E+00  0.00000000000E+00  0.16727380694E+03  0.16727380696E+03  0.25500000000E-02 0.  1.
         -2   -1    0    0    0  501 -0.00000000000E+00 -0.00000000000E+00 -0.66646808466E+03  0.66646808466E+03  0.25500000000E-02 0. -1.
    5000001    1    1    2    0    0 -0.21417861655E+03  0.13904097178E+03 -0.11904524204E+03  0.33870435674E+03  0.18800000000E+03 0.  0.
   -5000001    1    1    2    0    0  0.21417861655E+03 -0.13904097178E+03 -0.38014903567E+03  0.49503753488E+03  0.18800000000E+03 0.  0.
<mgrwt>
<rscale>  0 0.66778036E+03</rscale>
<asrwt>0</asrwt>
<pdfrwt beam="1">  1        2 0.23896259E-01 0.66778036E+03</pdfrwt>
<pdfrwt beam="2">  1       -2 0.95209725E-01 0.66778036E+03</pdfrwt>
<totfact> 0.21632123E+02</totfact>
</mgrwt>
</event>
<event>
 4    1  0.5886875E-005  0.4777477E+03  0.7818608E-02  0.1019756E+00
          2   -1    0    0  501    0  0.00000000000E+00  0.00000000000E+00  0.16624583751E+04  0.16624583751E+04  0.25500000000E-02 0.  1.
         -2   -1    0    0    0  501 -0.00000000000E+00 -0.00000000000E+00 -0.34323096226E+02  0.34323096321E+02  0.25500000000E-02 0. -1.
    5000001    1    1    2    0    0 -0.56614840150E+02  0.75306721828E+02  0.12165215718E+04  0.12345627068E+04  0.18800000000E+03 0.  0.
   -5000001    1    1    2    0    0  0.56614840150E+02 -0.75306721828E+02  0.41161370708E+03  0.46221876459E+03  0.18800000000E+03 0.  0.
<mgrwt>
<rscale>  0 0.47774771E+03</rscale>
<asrwt>0</asrwt>
<pdfrwt beam="1">  1        2 0.23749412E+00 0.47774771E+03</pdfrwt>
<pdfrwt beam="2">  1       -2 0.49032981E-02 0.47774771E+03</pdfrwt>
<totfact> 0.26002343E+03</totfact>
</mgrwt>
</event>
<event>
 4    1  0.5886875E-005  0.1114972E+04  0.7818608E-02  0.9190721E-01
          2   -1    0    0  501    0  0.00000000000E+00  0.00000000000E+00  0.72235121087E+03  0.72235121088E+03  0.25500000000E-02 0.  1.
         -2   -1    0    0    0  501 -0.00000000000E+00 -0.00000000000E+00 -0.43024875738E+03  0.43024875739E+03  0.25500000000E-02 0. -1.
    5000001    1    1    2    0    0 -0.90429624754E+02  0.45413708638E+03  0.40142815237E+03  0.64101994647E+03  0.18800000000E+03 0.  0.
   -5000001    1    1    2    0    0  0.90429624754E+02 -0.45413708638E+03 -0.10932569889E+03  0.51158002179E+03  0.18800000000E+03 0.  0.
<mgrwt>
<rscale>  0 0.11149721E+04</rscale>
<asrwt>0</asrwt>
<pdfrwt beam="1">  1        2 0.10319303E+00 0.11149721E+04</pdfrwt>
<pdfrwt beam="2">  1       -2 0.61464108E-01 0.11149721E+04</pdfrwt>
<totfact> 0.10572824E+02</totfact>
</mgrwt>
</event>
<event>
 4    1  0.5886875E-005  0.6606493E+03  0.7818608E-02  0.9786999E-01
         -2   -1    0    0    0  501 -0.00000000000E+00  0.00000000000E+00  0.49810056533E+02  0.49810056599E+02  0.25500000000E-02 0. -1.
          2   -1    0    0  501    0  0.00000000000E+00 -0.00000000000E+00 -0.21906090736E+04  0.21906090736E+04  0.25500000000E-02 0.  1.
    5000001    1    1    2    0    0 -0.24609349861E+03 -0.47722602948E+02 -0.71584225250E+03  0.78141767792E+03  0.18800000000E+03 0.  0.
   -5000001    1    1    2    0    0  0.24609349861E+03  0.47722602948E+02 -0.14249567645E+04  0.14590014523E+04  0.18800000000E+03 0.  0.
<mgrwt>
<rscale>  0 0.66064926E+03</rscale>
<asrwt>0</asrwt>
<pdfrwt beam="1">  1        2 0.31294409E+00 0.66064926E+03</pdfrwt>
<pdfrwt beam="2">  1       -2 0.71157237E-02 0.66064926E+03</pdfrwt>
<totfact> 0.78145560E+02</totfact>
</mgrwt>
</event>
<event>
 4    1  0.5886875E-005  0.4988848E+03  0.7818608E-02  0.1014070E+00
         -2   -1    0    0    0  501 -0.00000000000E+00  0.00000000000E+00  0.31529412680E+03  0.31529412681E+03  0.25500000000E-02 0. -1.
          2   -1    0    0  501    0  0.00000000000E+00 -0.00000000000E+00 -0.19734434086E+03  0.19734434088E+03  0.25500000000E-02 0.  1.
    5000001    1    1    2    0    0  0.89318580947E+02 -0.10244388904E+03  0.15318088880E+03  0.27799450354E+03  0.18800000000E+03 0.  0.
   -5000001    1    1    2    0    0 -0.89318580947E+02  0.10244388904E+03 -0.35231102869E+02  0.23464396415E+03  0.18800000000E+03 0.  0.
<mgrwt>
<rscale>  0 0.49888480E+03</rscale>
<asrwt>0</asrwt>
<pdfrwt beam="1">  1        2 0.28192049E-01 0.49888480E+03</pdfrwt>
<pdfrwt beam="2">  1       -2 0.45042018E-01 0.49888480E+03</pdfrwt>
<totfact> 0.89536578E+02</totfact>
</mgrwt>
</event>
<event>
 4    1  0.5886875E-005  0.5269810E+03  0.7818608E-02  0.1006967E+00
          2   -1    0    0  501    0  0.00000000000E+00  0.00000000000E+00  0.83547054527E+03  0.83547054527E+03  0.25500000000E-02 0.  1.
         -2   -1    0    0    0  501 -0.00000000000E+00 -0.00000000000E+00 -0.83099565424E+02  0.83099565463E+02  0.25500000000E-02 0. -1.
    5000001    1    1    2    0    0  0.13655477955E+03 -0.10160098553E+03  0.25154280974E+03  0.35719427937E+03  0.18800000000E+03 0.  0.
   -5000001    1    1    2    0    0 -0.13655477955E+03  0.10160098553E+03  0.50082817010E+03  0.56137583137E+03  0.18800000000E+03 0.  0.
<mgrwt>
<rscale>  0 0.52698098E+03</rscale>
<asrwt>0</asrwt>
<pdfrwt beam="1">  1        2 0.11935294E+00 0.52698098E+03</pdfrwt>
<pdfrwt beam="2">  1       -2 0.11871366E-01 0.52698098E+03</pdfrwt>
<totfact> 0.18617014E+03</totfact>
</mgrwt>
</event>
<event>
 4    1  0.5886875E-005  0.4371569E+03  0.7818608E-02  0.1031623E+00
         -2   -1    0    0    0  501 -0.00000000000E+00  0.00000000000E+00  0.23988204634E+03  0.23988204636E+03  0.25500000000E-02 0. -1.
          2   -1    0    0  501    0  0.00000000000E+00 -0.00000000000E+00 -0.19916679760E+03  0.19916679762E+03  0.25500000000E-02 0.  1.
    5000001    1    1    2    0    0  0.74729113311E+02  0.58343123921E+02 -0.38583487592E+02  0.21405851069E+03  0.18800000000E+03 0.  0.
   -5000001    1    1    2    0    0 -0.74729113311E+02 -0.58343123921E+02  0.79298736337E+02  0.22499033328E+03  0.18800000000E+03 0.  0.
<mgrwt>
<rscale>  0 0.43715690E+03</rscale>
<asrwt>0</asrwt>
<pdfrwt beam="1">  1        2 0.28452400E-01 0.43715690E+03</pdfrwt>
<pdfrwt beam="2">  1       -2 0.34268864E-01 0.43715690E+03</pdfrwt>
<totfact> 0.14993171E+03</totfact>
</mgrwt>
</event>
<event>
 4    1  0.5886875E-005  0.5113611E+03  0.7818608E-02  0.1010855E+00
         -2   -1    0    0    0  501 -0.00000000000E+00  0.00000000000E+00  0.32205207562E+02  0.32205207662E+02  0.25500000000E-02 0. -1.
          2   -1    0    0  501    0  0.00000000000E+00 -0.00000000000E+00 -0.20298752458E+04  0.20298752458E+04  0.25500000000E-02 0.  1.
    5000001    1    1    2    0    0 -0.15523151711E+03  0.26460353748E+02 -0.70716331499E+03  0.74847907672E+03  0.18800000000E+03 0.  0.
   -5000001    1    1    2    0    0  0.15523151711E+03 -0.26460353748E+02 -0.12905067233E+04  0.13136013768E+04  0.18800000000E+03 0.  0.
<mgrwt>
<rscale>  0 0.51136114E+03</rscale>
<asrwt>0</asrwt>
<pdfrwt beam="1">  1        2 0.28998210E+00 0.51136114E+03</pdfrwt>
<pdfrwt beam="2">  1       -2 0.46007452E-02 0.51136114E+03</pdfrwt>
<totfact> 0.18749920E+03</totfact>
</mgrwt>
</event>
<event>
 4    1  0.5886875E-005  0.8343387E+03  0.7818608E-02  0.9511601E-01
         -2   -1    0    0    0  501 -0.00000000000E+00  0.00000000000E+00  0.62164437397E+02  0.62164437450E+02  0.25500000000E-02 0. -1.
          2   -1    0    0  501    0  0.00000000000E+00 -0.00000000000E+00 -0.27995151402E+04  0.27995151402E+04  0.25500000000E-02 0.  1.
    5000001    1    1    2    0    0  0.67209825360E+02  0.36618907519E+03 -0.13390343164E+04  0.14024865418E+04  0.18800000000E+03 0.  0.
   -5000001    1    1    2    0    0 -0.67209825360E+02 -0.36618907519E+03 -0.13983163864E+04  0.14591930359E+04  0.18800000000E+03 0.  0.
<mgrwt>
<rscale>  0 0.83433874E+03</rscale>
<asrwt>0</asrwt>
<pdfrwt beam="1">  1        2 0.39993065E+00 0.83433874E+03</pdfrwt>
<pdfrwt beam="2">  1       -2 0.88806357E-02 0.83433874E+03</pdfrwt>
<totfact> 0.26173117E+02</totfact>
</mgrwt>
</event>
<event>
 4    1  0.5886875E-005  0.6516546E+03  0.7818608E-02  0.9803679E-01
          2   -1    0    0  501    0  0.00000000000E+00  0.00000000000E+00  0.13840188737E+03  0.13840188740E+03  0.25500000000E-02 0.  1.
         -2   -1    0    0    0  501 -0.00000000000E+00 -0.00000000000E+00 -0.76706636378E+03  0.76706636379E+03  0.25500000000E-02 0. -1.
    5000001    1    1    2    0    0 -0.24855934521E+03 -0.34230963264E+02 -0.19109820235E+03  0.36717302444E+03  0.18800000000E+03 0.  0.
   -5000001    1    1    2    0    0  0.24855934521E+03  0.34230963264E+02 -0.43756627406E+03  0.53829522674E+03  0.18800000000E+03 0.  0.
<mgrwt>
<rscale>  0 0.65165461E+03</rscale>
<asrwt>0</asrwt>
<pdfrwt beam="1">  1        2 0.19771699E-01 0.65165461E+03</pdfrwt>
<pdfrwt beam="2">  1       -2 0.10958091E+00 0.65165461E+03</pdfrwt>
<totfact> 0.19320454E+02</totfact>
</mgrwt>
</event>
<event>
 4    1  0.5886875E-005  0.7124609E+03  0.7818608E-02  0.9696157E-01
          2   -1    0    0  501    0  0.00000000000E+00  0.00000000000E+00  0.33607288605E+04  0.33607288605E+04  0.25500000000E-02 0. -1.
         -2   -1    0    0    0  501 -0.00000000000E+00 -0.00000000000E+00 -0.37759708239E+02  0.37759708325E+02  0.25500000000E-02 0.  1.
    5000001    1    1    2    0    0 -0.25922719092E+03 -0.14539266480E+03  0.13908749237E+04  0.14346479767E+04  0.18800000000E+03 0.  0.
   -5000001    1    1    2    0    0  0.25922719092E+03  0.14539266480E+03  0.19320942285E+04  0.19638405921E+04  0.18800000000E+03 0.  0.
<mgrwt>
<rscale>  0 0.71246092E+03</rscale>
<asrwt>0</asrwt>
<pdfrwt beam="1">  1        2 0.48010369E+00 0.71246092E+03</pdfrwt>
<pdfrwt beam="2">  1       -2 0.53942490E-02 0.71246092E+03</pdfrwt>
<totfact> 0.28505498E+02</totfact>
</mgrwt>
</event>
<event>
 4    1  0.5886875E-005  0.4336071E+03  0.7818608E-02  0.1032727E+00
          2   -1    0    0  501    0  0.00000000000E+00  0.00000000000E+00  0.18401324475E+04  0.18401324475E+04  0.25500000000E-02 0.  1.
         -2   -1    0    0    0  501 -0.00000000000E+00 -0.00000000000E+00 -0.25543692648E+02  0.25543692775E+02  0.25500000000E-02 0. -1.
    5000001    1    1    2    0    0 -0.37226022870E+02 -0.98790876925E+02  0.10048775680E+04  0.10277491624E+04  0.18800000000E+03 0.  0.
   -5000001    1    1    2    0    0  0.37226022870E+02  0.98790876925E+02  0.80971118688E+03  0.83792697790E+03  0.18800000000E+03 0.  0.
<mgrwt>
<rscale>  0 0.43360709E+03</rscale>
<asrwt>0</asrwt>
<pdfrwt beam="1">  1        2 0.26287616E+00 0.43360709E+03</pdfrwt>
<pdfrwt beam="2">  1       -2 0.36490976E-02 0.43360709E+03</pdfrwt>
<totfact> 0.33308270E+03</totfact>
</mgrwt>
</event>
<event>
 4    1  0.5886875E-005  0.4974210E+03  0.7818608E-02  0.1014454E+00
         -2   -1    0    0    0  501 -0.00000000000E+00  0.00000000000E+00  0.15014528326E+03  0.15014528328E+03  0.25500000000E-02 0. -1.
          2   -1    0    0  501    0  0.00000000000E+00 -0.00000000000E+00 -0.41198031236E+03  0.41198031237E+03  0.25500000000E-02 0.  1.
    5000001    1    1    2    0    0  0.16002771893E+03 -0.29824078922E+02 -0.12660626284E+03  0.27905464035E+03  0.18800000000E+03 0.  0.
   -5000001    1    1    2    0    0 -0.16002771893E+03  0.29824078922E+02 -0.13522876627E+03  0.28307095530E+03  0.18800000000E+03 0.  0.
<mgrwt>
<rscale>  0 0.49742095E+03</rscale>
<asrwt>0</asrwt>
<pdfrwt beam="1">  1        2 0.58854330E-01 0.49742095E+03</pdfrwt>
<pdfrwt beam="2">  1       -2 0.21449326E-01 0.49742095E+03</pdfrwt>
<totfact> 0.15724227E+03</totfact>
</mgrwt>
</event>
<event>
 4    1  0.5886875E-005  0.4255040E+03  0.7818608E-02  0.1035290E+00
         -2   -1    0    0    0  501 -0.00000000000E+00  0.00000000000E+00  0.12951462986E+02  0.12951463237E+02  0.25500000000E-02 0. -1.
          2   -1    0    0  501    0  0.00000000000E+00 -0.00000000000E+00 -0.34948501320E+04  0.34948501320E+04  0.25500000000E-02 0.  1.
    5000001    1    1    2    0    0  0.40032154093E+02 -0.86984994676E+02 -0.19667863255E+04  0.19780701234E+04  0.18800000000E+03 0.  0.
   -5000001    1    1    2    0    0 -0.40032154093E+02  0.86984994676E+02 -0.15151123435E+04  0.15297314719E+04  0.18800000000E+03 0.  0.
<mgrwt>
<rscale>  0 0.42550404E+03</rscale>
<asrwt>0</asrwt>
<pdfrwt beam="1">  1        2 0.49926370E+00 0.42550404E+03</pdfrwt>
<pdfrwt beam="2">  1       -2 0.18502112E-02 0.42550404E+03</pdfrwt>
<totfact> 0.12533289E+03</totfact>
</mgrwt>
</event>
<event>
 4    1  0.5886875E-005  0.7093441E+03  0.7818608E-02  0.9701385E-01
          2   -1    0    0  501    0  0.00000000000E+00  0.00000000000E+00  0.26969651146E+04  0.26969651146E+04  0.25500000000E-02 0.  1.
         -2   -1    0    0    0  501 -0.00000000000E+00 -0.00000000000E+00 -0.46642160507E+02  0.46642160577E+02  0.25500000000E-02 0. -1.
    5000001    1    1    2    0    0  0.18742499349E+03  0.57615397655E+02  0.22071627399E+04  0.22238163194E+04  0.18800000000E+03 0.  0.
   -5000001    1    1    2    0    0 -0.18742499349E+03 -0.57615397655E+02  0.44316021427E+03  0.51979095581E+03  0.18800000000E+03 0.  0.
<mgrwt>
<rscale>  0 0.70934415E+03</rscale>
<asrwt>0</asrwt>
<pdfrwt beam="1">  1        2 0.38528071E+00 0.70934415E+03</pdfrwt>
<pdfrwt beam="2">  1       -2 0.66631661E-02 0.70934415E+03</pdfrwt>
<totfact> 0.47455128E+02</totfact>
</mgrwt>
</event>
<event>
 4    1  0.5886875E-005  0.6294766E+03  0.7818608E-02  0.9846071E-01
         -2   -1    0    0    0  501 -0.00000000000E+00  0.00000000000E+00  0.28089261898E+03  0.28089261899E+03  0.25500000000E-02 0. -1.
          2   -1    0    0  501    0  0.00000000000E+00 -0.00000000000E+00 -0.35266217184E+03  0.35266217185E+03  0.25500000000E-02 0.  1.
    5000001    1    1    2    0    0 -0.20176759360E+03  0.13273990178E+03  0.37981144063E+02  0.30840980960E+03  0.18800000000E+03 0.  0.
   -5000001    1    1    2    0    0  0.20176759360E+03 -0.13273990178E+03 -0.10975069693E+03  0.32514498124E+03  0.18800000000E+03 0.  0.
<mgrwt>
<rscale>  0 0.62947661E+03</rscale>
<asrwt>0</asrwt>
<pdfrwt beam="1">  1        2 0.50380310E-01 0.62947661E+03</pdfrwt>
<pdfrwt beam="2">  1       -2 0.40127517E-01 0.62947661E+03</pdfrwt>
<totfact> 0.58904826E+02</totfact>
</mgrwt>
</event>
<event>
 4    1  0.5886875E-005  0.1174969E+04  0.7818608E-02  0.9135053E-01
         -2   -1    0    0    0  501 -0.00000000000E+00  0.00000000000E+00  0.22915940911E+03  0.22915940913E+03  0.25500000000E-02 0. -1.
          2   -1    0    0  501    0  0.00000000000E+00 -0.00000000000E+00 -0.15061049970E+04  0.15061049970E+04  0.25500000000E-02 0.  1.
    5000001    1    1    2    0    0 -0.46914319015E+03 -0.29695324153E+03 -0.69600534801E+03  0.90996923298E+03  0.18800000000E+03 0.  0.
   -5000001    1    1    2    0    0  0.46914319015E+03  0.29695324153E+03 -0.58094023988E+03  0.82529517316E+03  0.18800000000E+03 0.  0.
<mgrwt>
<rscale>  0 0.11749692E+04</rscale>
<asrwt>0</asrwt>
<pdfrwt beam="1">  1        2 0.21515785E+00 0.11749692E+04</pdfrwt>
<pdfrwt beam="2">  1       -2 0.32737059E-01 0.11749692E+04</pdfrwt>
<totfact> 0.12463326E+02</totfact>
</mgrwt>
</event>
<event>
 4    1  0.5886875E-005  0.4792646E+03  0.7818608E-02  0.1019337E+00
          2   -1    0    0  501    0  0.00000000000E+00  0.00000000000E+00  0.16360571862E+04  0.16360571863E+04  0.25500000000E-02 0.  1.
         -2   -1    0    0    0  501 -0.00000000000E+00 -0.00000000000E+00 -0.35098798462E+02  0.35098798555E+02  0.25500000000E-02 0. -1.
    5000001    1    1    2    0    0  0.14365534251E+03 -0.15482294964E+02  0.67953379287E+03  0.71971295288E+03  0.18800000000E+03 0.  0.
   -5000001    1    1    2    0    0 -0.14365534251E+03  0.15482294964E+02  0.92142459492E+03  0.95144303193E+03  0.18800000000E+03 0.  0.
<mgrwt>
<rscale>  0 0.47926461E+03</rscale>
<asrwt>0</asrwt>
<pdfrwt beam="1">  1        2 0.23372251E+00 0.47926461E+03</pdfrwt>
<pdfrwt beam="2">  1       -2 0.50141128E-02 0.47926461E+03</pdfrwt>
<totfact> 0.25906379E+03</totfact>
</mgrwt>
</event>
<event>
 4    1  0.5886875E-005  0.9838060E+03  0.7818608E-02  0.9326487E-01
         -2   -1    0    0    0  501 -0.00000000000E+00  0.00000000000E+00  0.50485805370E+03  0.50485805371E+03  0.25500000000E-02 0. -1.
          2   -1    0    0  501    0  0.00000000000E+00 -0.00000000000E+00 -0.47928034209E+03  0.47928034209E+03  0.25500000000E-02 0.  1.
    5000001    1    1    2    0    0  0.39110227831E+03 -0.87826764952E+02 -0.20164310808E+03  0.48649612103E+03  0.18800000000E+03 0.  0.
   -5000001    1    1    2    0    0 -0.39110227831E+03  0.87826764952E+02  0.22722081970E+03  0.49764227478E+03  0.18800000000E+03 0.  0.
<mgrwt>
<rscale>  0 0.98380596E+03</rscale>
<asrwt>0</asrwt>
<pdfrwt beam="1">  1        2 0.68468621E-01 0.98380596E+03</pdfrwt>
<pdfrwt beam="2">  1       -2 0.72122579E-01 0.98380596E+03</pdfrwt>
<totfact> 0.12272389E+02</totfact>
</mgrwt>
</event>
<event>
 4    1  0.5886875E-005  0.5060676E+03  0.7818608E-02  0.1012207E+00
         -2   -1    0    0    0  501 -0.00000000000E+00  0.00000000000E+00  0.13940733478E+03  0.13940733480E+03  0.25500000000E-02 0. -1.
          2   -1    0    0  501    0  0.00000000000E+00 -0.00000000000E+00 -0.45927356500E+03  0.45927356500E+03  0.25500000000E-02 0.  1.
    5000001    1    1    2    0    0 -0.13135806404E+03  0.91467113210E+02 -0.94482526152E+02  0.26437118136E+03  0.18800000000E+03 0.  0.
   -5000001    1    1    2    0    0  0.13135806404E+03 -0.91467113210E+02 -0.22538370407E+03  0.33430971844E+03  0.18800000000E+03 0.  0.
<mgrwt>
<rscale>  0 0.50606760E+03</rscale>
<asrwt>0</asrwt>
<pdfrwt beam="1">  1        2 0.65610508E-01 0.50606760E+03</pdfrwt>
<pdfrwt beam="2">  1       -2 0.19915334E-01 0.50606760E+03</pdfrwt>
<totfact> 0.15857621E+03</totfact>
</mgrwt>
</event>
<event>
 4    1  0.5886875E-005  0.4911330E+03  0.7818608E-02  0.1016120E+00
          2   -1    0    0  501    0  0.00000000000E+00  0.00000000000E+00  0.11902298776E+04  0.11902298776E+04  0.25500000000E-02 0.  1.
         -2   -1    0    0    0  501 -0.00000000000E+00 -0.00000000000E+00 -0.50664914756E+02  0.50664914820E+02  0.25500000000E-02 0. -1.
    5000001    1    1    2    0    0  0.15251746339E+03 -0.92366038430E+01  0.67122474224E+03  0.71360601601E+03  0.18800000000E+03 0.  0.
   -5000001    1    1    2    0    0 -0.15251746339E+03  0.92366038430E+01  0.46834022056E+03  0.52728877637E+03  0.18800000000E+03 0.  0.
<mgrwt>
<rscale>  0 0.49113296E+03</rscale>
<asrwt>0</asrwt>
<pdfrwt beam="1">  1        2 0.17003284E+00 0.49113296E+03</pdfrwt>
<pdfrwt beam="2">  1       -2 0.72378450E-02 0.49113296E+03</pdfrwt>
<totfact> 0.25126359E+03</totfact>
</mgrwt>
</event>
<event>
 4    1  0.5886875E-005  0.4701831E+03  0.7818608E-02  0.1021869E+00
         -2   -1    0    0    0  501 -0.00000000000E+00  0.00000000000E+00  0.41295479705E+02  0.41295479784E+02  0.25500000000E-02 0. -1.
          2   -1    0    0  501    0  0.00000000000E+00 -0.00000000000E+00 -0.13383557348E+04  0.13383557348E+04  0.25500000000E-02 0.  1.
    5000001    1    1    2    0    0 -0.97090414148E+02 -0.10217166427E+03 -0.62609778553E+03  0.66873614718E+03  0.18800000000E+03 0.  0.
   -5000001    1    1    2    0    0  0.97090414148E+02  0.10217166427E+03 -0.67096246953E+03  0.71091506738E+03  0.18800000000E+03 0.  0.
<mgrwt>
<rscale>  0 0.47018312E+03</rscale>
<asrwt>0</asrwt>
<pdfrwt beam="1">  1        2 0.19119365E+00 0.47018312E+03</pdfrwt>
<pdfrwt beam="2">  1       -2 0.58993551E-02 0.47018312E+03</pdfrwt>
<totfact> 0.28739828E+03</totfact>
</mgrwt>
</event>
<event>
 4    1  0.5886875E-005  0.4598714E+03  0.7818608E-02  0.1024819E+00
          2   -1    0    0  501    0  0.00000000000E+00  0.00000000000E+00  0.89722769548E+03  0.89722769548E+03  0.25500000000E-02 0.  1.
         -2   -1    0    0    0  501 -0.00000000000E+00 -0.00000000000E+00 -0.58926427473E+02  0.58926427528E+02  0.25500000000E-02 0. -1.
    5000001    1    1    2    0    0 -0.22233800303E+02 -0.93722722991E+02  0.60797990570E+03  0.64363177083E+03  0.18800000000E+03 0.  0.
   -5000001    1    1    2    0    0  0.22233800303E+02  0.93722722991E+02  0.23032136230E+03  0.31252235218E+03  0.18800000000E+03 0.  0.
<mgrwt>
<rscale>  0 0.45987139E+03</rscale>
<asrwt>0</asrwt>
<pdfrwt beam="1">  1        2 0.12817536E+00 0.45987139E+03</pdfrwt>
<pdfrwt beam="2">  1       -2 0.84180625E-02 0.45987139E+03</pdfrwt>
<totfact> 0.29528603E+03</totfact>
</mgrwt>
</event>
<event>
 4    1  0.5886875E-005  0.1016217E+04  0.7818608E-02  0.9290935E-01
          2   -1    0    0  501    0  0.00000000000E+00  0.00000000000E+00  0.29454631620E+04  0.29454631620E+04  0.25500000000E-02 0.  1.
         -2   -1    0    0    0  501 -0.00000000000E+00 -0.00000000000E+00 -0.87651491695E+02  0.87651491732E+02  0.25500000000E-02 0. -1.
    5000001    1    1    2    0    0  0.36670125150E+02  0.29534059356E+03  0.33526466379E+03  0.48612463327E+03  0.18800000000E+03 0.  0.
   -5000001    1    1    2    0    0 -0.36670125150E+02 -0.29534059356E+03  0.25225470065E+04  0.25469900205E+04  0.18800000000E+03 0.  0.
<mgrwt>
<rscale>  0 0.10162170E+04</rscale>
<asrwt>0</asrwt>
<pdfrwt beam="1">  1        2 0.42078052E+00 0.10162170E+04</pdfrwt>
<pdfrwt beam="2">  1       -2 0.12521640E-01 0.10162170E+04</pdfrwt>
<totfact> 0.12216651E+02</totfact>
</mgrwt>
</event>
<event>
 4    1  0.5886875E-005  0.1875819E+04  0.7818608E-02  0.8666987E-01
          2   -1    0    0  501    0  0.00000000000E+00  0.00000000000E+00  0.13746051066E+04  0.13746051066E+04  0.25500000000E-02 0.  1.
         -2   -1    0    0    0  501 -0.00000000000E+00 -0.00000000000E+00 -0.63994714785E+03  0.63994714785E+03  0.25500000000E-02 0. -1.
    5000001    1    1    2    0    0 -0.36353023620E+03 -0.80654850825E+03  0.10065859229E+03  0.91002795616E+03  0.18800000000E+03 0.  0.
   -5000001    1    1    2    0    0  0.36353023620E+03  0.80654850825E+03  0.63399936642E+03  0.11045242982E+04  0.18800000000E+03 0.  0.
<mgrwt>
<rscale>  0 0.18758194E+04</rscale>
<asrwt>0</asrwt>
<pdfrwt beam="1">  1        2 0.19637216E+00 0.18758194E+04</pdfrwt>
<pdfrwt beam="2">  1       -2 0.91421021E-01 0.18758194E+04</pdfrwt>
<totfact> 0.16393861E+01</totfact>
</mgrwt>
</event>
<event>
 4    1  0.5886875E-005  0.6042642E+03  0.7818608E-02  0.9896599E-01
         -2   -1    0    0    0  501 -0.00000000000E+00  0.00000000000E+00  0.64977836008E+03  0.64977836008E+03  0.25500000000E-02 0. -1.
          2   -1    0    0  501    0  0.00000000000E+00 -0.00000000000E+00 -0.14048451382E+03  0.14048451385E+03  0.25500000000E-02 0.  1.
    5000001    1    1    2    0    0  0.37664905836E+02 -0.23311989127E+03  0.23728364596E+03  0.38394147663E+03  0.18800000000E+03 0.  0.
   -5000001    1    1    2    0    0 -0.37664905836E+02  0.23311989127E+03  0.27201020030E+03  0.40632139730E+03  0.18800000000E+03 0.  0.
<mgrwt>
<rscale>  0 0.60426417E+03</rscale>
<asrwt>0</asrwt>
<pdfrwt beam="1">  1        2 0.20069217E-01 0.60426417E+03</pdfrwt>
<pdfrwt beam="2">  1       -2 0.92825478E-01 0.60426417E+03</pdfrwt>
<totfact> 0.28148439E+02</totfact>
</mgrwt>
</event>
<event>
 4    1  0.5886875E-005  0.8163843E+03  0.7818608E-02  0.9536600E-01
         -2   -1    0    0    0  501 -0.00000000000E+00  0.00000000000E+00  0.10675171738E+03  0.10675171741E+03  0.25500000000E-02 0. -1.
          2   -1    0    0  501    0  0.00000000000E+00 -0.00000000000E+00 -0.15608256030E+04  0.15608256030E+04  0.25500000000E-02 0.  1.
    5000001    1    1    2    0    0 -0.14906786251E+03  0.28942027372E+03 -0.10518837308E+04  0.11170446301E+04  0.18800000000E+03 0.  0.
   -5000001    1    1    2    0    0  0.14906786251E+03 -0.28942027372E+03 -0.40219015479E+03  0.55053269029E+03  0.18800000000E+03 0.  0.
<mgrwt>
<rscale>  0 0.81638426E+03</rscale>
<asrwt>0</asrwt>
<pdfrwt beam="1">  1        2 0.22297507E+00 0.81638426E+03</pdfrwt>
<pdfrwt beam="2">  1       -2 0.15250246E-01 0.81638426E+03</pdfrwt>
<totfact> 0.46572123E+02</totfact>
</mgrwt>
</event>
<event>
 4    1  0.5886875E-005  0.6485484E+03  0.7818608E-02  0.9809507E-01
         -2   -1    0    0    0  501 -0.00000000000E+00  0.00000000000E+00  0.10090180470E+03  0.10090180473E+03  0.25500000000E-02 0. -1.
          2   -1    0    0  501    0  0.00000000000E+00 -0.00000000000E+00 -0.10421395539E+04  0.10421395539E+04  0.25500000000E-02 0.  1.
    5000001    1    1    2    0    0 -0.15910571421E+03 -0.21024555999E+03 -0.44050512522E+03  0.54672350337E+03  0.18800000000E+03 0.  0.
   -5000001    1    1    2    0    0  0.15910571421E+03  0.21024555999E+03 -0.50073262401E+03  0.59631785529E+03  0.18800000000E+03 0.  0.
<mgrwt>
<rscale>  0 0.64854842E+03</rscale>
<asrwt>0</asrwt>
<pdfrwt beam="1">  1        2 0.14887707E+00 0.64854842E+03</pdfrwt>
<pdfrwt beam="2">  1       -2 0.14414544E-01 0.64854842E+03</pdfrwt>
<totfact> 0.99681150E+02</totfact>
</mgrwt>
</event>
<event>
 4    1  0.5886875E-005  0.4627844E+03  0.7818608E-02  0.1023977E+00
         -2   -1    0    0    0  501 -0.00000000000E+00  0.00000000000E+00  0.72098852417E+02  0.72098852462E+02  0.25500000000E-02 0. -1.
          2   -1    0    0  501    0  0.00000000000E+00 -0.00000000000E+00 -0.74262426382E+03  0.74262426382E+03  0.25500000000E-02 0.  1.
    5000001    1    1    2    0    0  0.23300099062E+02 -0.11425087853E+03 -0.45469286546E+03  0.50565379437E+03  0.18800000000E+03 0.  0.
   -5000001    1    1    2    0    0 -0.23300099062E+02  0.11425087853E+03 -0.21583254594E+03  0.30906932191E+03  0.18800000000E+03 0.  0.
<mgrwt>
<rscale>  0 0.46278443E+03</rscale>
<asrwt>0</asrwt>
<pdfrwt beam="1">  1        2 0.10608918E+00 0.46278443E+03</pdfrwt>
<pdfrwt beam="2">  1       -2 0.10299836E-01 0.46278443E+03</pdfrwt>
<totfact> 0.27207069E+03</totfact>
</mgrwt>
</event>
<event>
 4    1  0.5886875E-005  0.4817126E+03  0.7818608E-02  0.1018666E+00
          2   -1    0    0  501    0  0.00000000000E+00  0.00000000000E+00  0.14389104565E+03  0.14389104568E+03  0.25500000000E-02 0.  1.
         -2   -1    0    0    0  501 -0.00000000000E+00 -0.00000000000E+00 -0.40316439453E+03  0.40316439454E+03  0.25500000000E-02 0. -1.
    5000001    1    1    2    0    0  0.35535227506E+02 -0.14594203793E+03 -0.14132421393E+03  0.27906695303E+03  0.18800000000E+03 0.  0.
   -5000001    1    1    2    0    0 -0.35535227506E+02  0.14594203793E+03 -0.11794913494E+03  0.26798848718E+03  0.18800000000E+03 0.  0.
<mgrwt>
<rscale>  0 0.48171255E+03</rscale>
<asrwt>0</asrwt>
<pdfrwt beam="1">  1        2 0.20555864E-01 0.48171255E+03</pdfrwt>
<pdfrwt beam="2">  1       -2 0.57594913E-01 0.48171255E+03</pdfrwt>
<totfact> 0.78033218E+02</totfact>
</mgrwt>
</event>
<event>
 4    1  0.5886875E-005  0.6632914E+03  0.7818608E-02  0.9782154E-01
          2   -1    0    0  501    0  0.00000000000E+00  0.00000000000E+00  0.20961939052E+03  0.20961939054E+03  0.25500000000E-02 0.  1.
         -2   -1    0    0    0  501 -0.00000000000E+00 -0.00000000000E+00 -0.52470757109E+03  0.52470757110E+03  0.25500000000E-02 0. -1.
    5000001    1    1    2    0    0 -0.17564747937E+03  0.20816454089E+03 -0.18129814374E+03  0.37735597255E+03  0.18800000000E+03 0.  0.
   -5000001    1    1    2    0    0  0.17564747937E+03 -0.20816454089E+03 -0.13379003683E+03  0.35697098909E+03  0.18800000000E+03 0.  0.
<mgrwt>
<rscale>  0 0.66329143E+03</rscale>
<asrwt>0</asrwt>
<pdfrwt beam="1">  1        2 0.29945628E-01 0.66329143E+03</pdfrwt>
<pdfrwt beam="2">  1       -2 0.74958224E-01 0.66329143E+03</pdfrwt>
<totfact> 0.28790097E+02</totfact>
</mgrwt>
</event>
<event>
 4    1  0.5886875E-005  0.5306311E+03  0.7818608E-02  0.1006079E+00
         -2   -1    0    0    0  501 -0.00000000000E+00  0.00000000000E+00  0.94862254158E+02  0.94862254192E+02  0.25500000000E-02 0. -1.
          2   -1    0    0  501    0  0.00000000000E+00 -0.00000000000E+00 -0.74204782168E+03  0.74204782169E+03  0.25500000000E-02 0.  1.
    5000001    1    1    2    0    0 -0.10201153106E+02 -0.11092969310E+03 -0.86284174550E+02  0.23494343812E+03  0.18800000000E+03 0.  0.
   -5000001    1    1    2    0    0  0.10201153106E+02  0.11092969310E+03 -0.56090139297E+03  0.60196663776E+03  0.18800000000E+03 0.  0.
<mgrwt>
<rscale>  0 0.53063105E+03</rscale>
<asrwt>0</asrwt>
<pdfrwt beam="1">  1        2 0.10600683E+00 0.53063105E+03</pdfrwt>
<pdfrwt beam="2">  1       -2 0.13551751E-01 0.53063105E+03</pdfrwt>
<totfact> 0.17384881E+03</totfact>
</mgrwt>
</event>
<event>
 4    1  0.5886875E-005  0.9177029E+03  0.7818608E-02  0.9403718E-01
          2   -1    0    0  501    0  0.00000000000E+00  0.00000000000E+00  0.12514169878E+04  0.12514169878E+04  0.25500000000E-02 0.  1.
         -2   -1    0    0    0  501 -0.00000000000E+00 -0.00000000000E+00 -0.16824501981E+03  0.16824501983E+03  0.25500000000E-02 0. -1.
    5000001    1    1    2    0    0  0.23369943763E+03 -0.34692252977E+03  0.51812460950E+03  0.69193047322E+03  0.18800000000E+03 0.  0.
   -5000001    1    1    2    0    0 -0.23369943763E+03  0.34692252977E+03  0.56504735847E+03  0.72773153437E+03  0.18800000000E+03 0.  0.
<mgrwt>
<rscale>  0 0.91770295E+03</rscale>
<asrwt>0</asrwt>
<pdfrwt beam="1">  1        2 0.17877386E+00 0.91770295E+03</pdfrwt>
<pdfrwt beam="2">  1       -2 0.24035003E-01 0.91770295E+03</pdfrwt>
<totfact> 0.30742655E+02</totfact>
</mgrwt>
</event>
<event>
 4    1  0.5886875E-005  0.4779584E+03  0.7818608E-02  0.1019698E+00
         -2   -1    0    0    0  501 -0.00000000000E+00  0.00000000000E+00  0.66244054002E+02  0.66244054051E+02  0.25500000000E-02 0. -1.
          2   -1    0    0  501    0  0.00000000000E+00 -0.00000000000E+00 -0.86213109484E+03  0.86213109484E+03  0.25500000000E-02 0.  1.
    5000001    1    1    2    0    0  0.76893487213E+02  0.11872821247E+03 -0.47938590861E+03  0.53400734657E+03  0.18800000000E+03 0.  0.
   -5000001    1    1    2    0    0 -0.76893487213E+02 -0.11872821247E+03 -0.31650113222E+03  0.39436780232E+03  0.18800000000E+03 0.  0.
<mgrwt>
<rscale>  0 0.47795840E+03</rscale>
<asrwt>0</asrwt>
<pdfrwt beam="1">  1        2 0.12316158E+00 0.47795840E+03</pdfrwt>
<pdfrwt beam="2">  1       -2 0.94634368E-02 0.47795840E+03</pdfrwt>
<totfact> 0.25815234E+03</totfact>
</mgrwt>
</event>
<event>
 4    1  0.5886875E-005  0.1110811E+04  0.7818608E-02  0.9194718E-01
         -2   -1    0    0    0  501 -0.00000000000E+00  0.00000000000E+00  0.26270762162E+03  0.26270762163E+03  0.25500000000E-02 0. -1.
          2   -1    0    0  501    0  0.00000000000E+00 -0.00000000000E+00 -0.11742157045E+04  0.11742157045E+04  0.25500000000E-02 0.  1.
    5000001    1    1    2    0    0 -0.36389720351E+03 -0.26458530153E+03 -0.11178611416E+03  0.50026662074E+03  0.18800000000E+03 0.  0.
   -5000001    1    1    2    0    0  0.36389720351E+03  0.26458530153E+03 -0.79972196873E+03  0.93665670541E+03  0.18800000000E+03 0.  0.
<mgrwt>
<rscale>  0 0.11108113E+04</rscale>
<asrwt>0</asrwt>
<pdfrwt beam="1">  1        2 0.16774510E+00 0.11108113E+04</pdfrwt>
<pdfrwt beam="2">  1       -2 0.37529661E-01 0.11108113E+04</pdfrwt>
<totfact> 0.14671964E+02</totfact>
</mgrwt>
</event>
<event>
 4    1  0.5886875E-005  0.7489031E+03  0.7818608E-02  0.9637073E-01
         -2   -1    0    0    0  501 -0.00000000000E+00  0.00000000000E+00  0.13965969453E+03  0.13965969455E+03  0.25500000000E-02 0. -1.
          2   -1    0    0  501    0  0.00000000000E+00 -0.00000000000E+00 -0.10039686541E+04  0.10039686541E+04  0.25500000000E-02 0.  1.
    5000001    1    1    2    0    0  0.93214120514E+02  0.30408898171E+03 -0.52518025137E+03  0.64211936389E+03  0.18800000000E+03 0.  0.
   -5000001    1    1    2    0    0 -0.93214120514E+02 -0.30408898171E+03 -0.33912870819E+03  0.50150898475E+03  0.18800000000E+03 0.  0.
<mgrwt>
<rscale>  0 0.74890308E+03</rscale>
<asrwt>0</asrwt>
<pdfrwt beam="1">  1        2 0.14342409E+00 0.74890308E+03</pdfrwt>
<pdfrwt beam="2">  1       -2 0.19951385E-01 0.74890308E+03</pdfrwt>
<totfact> 0.60063537E+02</totfact>
</mgrwt>
</event>
<event>
 4    1  0.5886875E-005  0.8732747E+03  0.7818608E-02  0.9459620E-01
          2   -1    0    0  501    0  0.00000000000E+00  0.00000000000E+00  0.24666851771E+04  0.24666851771E+04  0.25500000000E-02 0.  1.
         -2   -1    0    0    0  501 -0.00000000000E+00 -0.00000000000E+00 -0.77290835409E+02  0.77290835451E+02  0.25500000000E-02 0. -1.
    5000001    1    1    2    0    0 -0.99439085978E+01  0.38173018844E+03  0.91088833058E+03  0.10054244720E+04  0.18800000000E+03 0.  0.
   -5000001    1    1    2    0    0  0.99439085978E+01 -0.38173018844E+03  0.14785060111E+04  0.15385515406E+04  0.18800000000E+03 0.  0.
<mgrwt>
<rscale>  0 0.87327466E+03</rscale>
<asrwt>0</asrwt>
<pdfrwt beam="1">  1        2 0.35238364E+00 0.87327466E+03</pdfrwt>
<pdfrwt beam="2">  1       -2 0.11041547E-01 0.87327466E+03</pdfrwt>
<totfact> 0.27359851E+02</totfact>
</mgrwt>
</event>
<event>
 4    1  0.5886875E-005  0.5030610E+03  0.7818608E-02  0.1012983E+00
         -2   -1    0    0    0  501 -0.00000000000E+00  0.00000000000E+00  0.40692874163E+02  0.40692874243E+02  0.25500000000E-02 0. -1.
          2   -1    0    0  501    0  0.00000000000E+00 -0.00000000000E+00 -0.15547587994E+04  0.15547587994E+04  0.25500000000E-02 0.  1.
    5000001    1    1    2    0    0  0.11617529960E+03  0.11258044687E+03 -0.88980230347E+03  0.92372246726E+03  0.18800000000E+03 0.  0.
   -5000001    1    1    2    0    0 -0.11617529960E+03 -0.11258044687E+03 -0.62426362178E+03  0.67172920640E+03  0.18800000000E+03 0.  0.
<mgrwt>
<rscale>  0 0.50306105E+03</rscale>
<asrwt>0</asrwt>
<pdfrwt beam="1">  1        2 0.22210836E+00 0.50306105E+03</pdfrwt>
<pdfrwt beam="2">  1       -2 0.58132687E-02 0.50306105E+03</pdfrwt>
<totfact> 0.22653080E+03</totfact>
</mgrwt>
</event>
<event>
 4    1  0.5886875E-005  0.5921775E+03  0.7818608E-02  0.9921769E-01
          2   -1    0    0  501    0  0.00000000000E+00  0.00000000000E+00  0.13500011382E+04  0.13500011382E+04  0.25500000000E-02 0.  1.
         -2   -1    0    0    0  501 -0.00000000000E+00 -0.00000000000E+00 -0.64939611267E+02  0.64939611317E+02  0.25500000000E-02 0. -1.
    5000001    1    1    2    0    0 -0.83941436470E+02 -0.21106657237E+03  0.70705686317E+03  0.76607354118E+03  0.18800000000E+03 0.  0.
   -5000001    1    1    2    0    0  0.83941436470E+02  0.21106657237E+03  0.57800466373E+03  0.64886720831E+03  0.18800000000E+03 0.  0.
<mgrwt>
<rscale>  0 0.59217750E+03</rscale>
<asrwt>0</asrwt>
<pdfrwt beam="1">  1        2 0.19285730E+00 0.59217750E+03</pdfrwt>
<pdfrwt beam="2">  1       -2 0.92770877E-02 0.59217750E+03</pdfrwt>
<totfact> 0.13810856E+03</totfact>
</mgrwt>
</event>
<event>
 4    1  0.5886875E-005  0.1172350E+04  0.7818608E-02  0.9137409E-01
          2   -1    0    0  501    0  0.00000000000E+00  0.00000000000E+00  0.22690512291E+04  0.22690512291E+04  0.25500000000E-02 0. -1.
         -2   -1    0    0    0  501 -0.00000000000E+00 -0.00000000000E+00 -0.15142933289E+03  0.15142933291E+03  0.25500000000E-02 0.  1.
    5000001    1    1    2    0    0  0.24194930569E+03 -0.48927097776E+03  0.12686677974E+04  0.13938391358E+04  0.18800000000E+03 0.  0.
   -5000001    1    1    2    0    0 -0.24194930569E+03  0.48927097776E+03  0.84895409879E+03  0.10266414262E+04  0.18800000000E+03 0.  0.
<mgrwt>
<rscale>  0 0.11723496E+04</rscale>
<asrwt>0</asrwt>
<pdfrwt beam="1">  1        2 0.32415018E+00 0.11723496E+04</pdfrwt>
<pdfrwt beam="2">  1       -2 0.21632762E-01 0.11723496E+04</pdfrwt>
<totfact> 0.10738888E+02</totfact>
</mgrwt>
</event>
<event>
 4    1  0.5886875E-005  0.8509293E+03  0.7818608E-02  0.9489090E-01
         -2   -1    0    0    0  501 -0.00000000000E+00  0.00000000000E+00  0.11336037301E+03  0.11336037304E+03  0.25500000000E-02 0. -1.
          2   -1    0    0  501    0  0.00000000000E+00 -0.00000000000E+00 -0.15968559705E+04  0.15968559705E+04  0.25500000000E-02 0.  1.
    5000001    1    1    2    0    0 -0.20422680163E+03 -0.21384809615E+03 -0.25673239353E+03  0.43439051166E+03  0.18800000000E+03 0.  0.
   -5000001    1    1    2    0    0  0.20422680163E+03  0.21384809615E+03 -0.12267632040E+04  0.12758258319E+04  0.18800000000E+03 0.  0.
<mgrwt>
<rscale>  0 0.85092935E+03</rscale>
<asrwt>0</asrwt>
<pdfrwt beam="1">  1        2 0.22812227E+00 0.85092935E+03</pdfrwt>
<pdfrwt beam="2">  1       -2 0.16194340E-01 0.85092935E+03</pdfrwt>
<totfact> 0.40191427E+02</totfact>
</mgrwt>
</event>
<event>
 4    1  0.5886875E-005  0.6595183E+03  0.7818608E-02  0.9789081E-01
         -2   -1    0    0    0  501 -0.00000000000E+00  0.00000000000E+00  0.10738755830E+03  0.10738755833E+03  0.25500000000E-02 0.  1.
          2   -1    0    0  501    0  0.00000000000E+00 -0.00000000000E+00 -0.10126041441E+04  0.10126041441E+04  0.25500000000E-02 0. -1.
    5000001    1    1    2    0    0 -0.26857128710E+03  0.17016437739E+02 -0.50568858401E+03  0.60289720468E+03  0.18800000000E+03 0.  0.
   -5000001    1    1    2    0    0  0.26857128710E+03 -0.17016437739E+02 -0.39952800181E+03  0.51709449778E+03  0.18800000000E+03 0.  0.
<mgrwt>
<rscale>  0 0.65951827E+03</rscale>
<asrwt>0</asrwt>
<pdfrwt beam="1">  1        2 0.14465773E+00 0.65951827E+03</pdfrwt>
<pdfrwt beam="2">  1       -2 0.15341080E-01 0.65951827E+03</pdfrwt>
<totfact> 0.93476794E+02</totfact>
</mgrwt>
</event>
<event>
 4    1  0.5886875E-005  0.7898536E+03  0.7818608E-02  0.9574821E-01
          2   -1    0    0  501    0  0.00000000000E+00  0.00000000000E+00  0.34395604885E+03  0.34395604886E+03  0.25500000000E-02 0.  1.
         -2   -1    0    0    0  501 -0.00000000000E+00 -0.00000000000E+00 -0.45345090312E+03  0.45345090313E+03  0.25500000000E-02 0. -1.
    5000001    1    1    2    0    0 -0.17783049453E+03 -0.29771753005E+02  0.24492980375E+03  0.35755370342E+03  0.18800000000E+03 0.  0.
   -5000001    1    1    2    0    0  0.17783049453E+03  0.29771753005E+02 -0.35442465803E+03  0.43985324857E+03  0.18800000000E+03 0.  0.
<mgrwt>
<rscale>  0 0.78985361E+03</rscale>
<asrwt>0</asrwt>
<pdfrwt beam="1">  1        2 0.49136578E-01 0.78985361E+03</pdfrwt>
<pdfrwt beam="2">  1       -2 0.64778700E-01 0.78985361E+03</pdfrwt>
<totfact> 0.22687731E+02</totfact>
</mgrwt>
</event>
<event>
 4    1  0.5886875E-005  0.7910326E+03  0.7818608E-02  0.9573089E-01
         -2   -1    0    0    0  501 -0.00000000000E+00  0.00000000000E+00  0.27848533661E+03  0.27848533663E+03  0.25500000000E-02 0. -1.
          2   -1    0    0  501    0  0.00000000000E+00 -0.00000000000E+00 -0.56172848089E+03  0.56172848090E+03  0.25500000000E-02 0.  1.
    5000001    1    1    2    0    0 -0.20351399184E+03  0.14515158201E+03  0.11550825850E+03  0.33342628033E+03  0.18800000000E+03 0.  0.
   -5000001    1    1    2    0    0  0.20351399184E+03 -0.14515158201E+03 -0.39875140278E+03  0.50678753719E+03  0.18800000000E+03 0.  0.
<mgrwt>
<rscale>  0 0.79103260E+03</rscale>
<asrwt>0</asrwt>
<pdfrwt beam="1">  1        2 0.80246925E-01 0.79103260E+03</pdfrwt>
<pdfrwt beam="2">  1       -2 0.39783620E-01 0.79103260E+03</pdfrwt>
<totfact> 0.35235096E+02</totfact>
</mgrwt>
</event>
<event>
 4    1  0.5886875E-005  0.4316264E+03  0.7818608E-02  0.1033347E+00
          2   -1    0    0  501    0  0.00000000000E+00  0.00000000000E+00  0.37030259024E+03  0.37030259025E+03  0.25500000000E-02 0.  1.
         -2   -1    0    0    0  501 -0.00000000000E+00 -0.00000000000E+00 -0.12577644813E+03  0.12577644816E+03  0.25500000000E-02 0. -1.
    5000001    1    1    2    0    0  0.55732343610E+02 -0.83013333298E+02  0.16263754883E+03  0.26794081421E+03  0.18800000000E+03 0.  0.
   -5000001    1    1    2    0    0 -0.55732343610E+02  0.83013333298E+02  0.81888593276E+02  0.22813822419E+03  0.18800000000E+03 0.  0.
<mgrwt>
<rscale>  0 0.43162643E+03</rscale>
<asrwt>0</asrwt>
<pdfrwt beam="1">  1        2 0.52900369E-01 0.43162643E+03</pdfrwt>
<pdfrwt beam="2">  1       -2 0.17968064E-01 0.43162643E+03</pdfrwt>
<totfact> 0.23985924E+03</totfact>
</mgrwt>
</event>
<event>
 4    1  0.5886875E-005  0.4810717E+03  0.7818608E-02  0.1018841E+00
          2   -1    0    0  501    0  0.00000000000E+00  0.00000000000E+00  0.19053756986E+03  0.19053756988E+03  0.25500000000E-02 0.  1.
         -2   -1    0    0    0  501 -0.00000000000E+00 -0.00000000000E+00 -0.30365399616E+03  0.30365399617E+03  0.25500000000E-02 0. -1.
    5000001    1    1    2    0    0  0.14100728628E+03  0.19252553692E+02 -0.10539178572E+03  0.25827339024E+03  0.18800000000E+03 0.  0.
   -5000001    1    1    2    0    0 -0.14100728628E+03 -0.19252553692E+02 -0.77246405880E+01  0.23591817581E+03  0.18800000000E+03 0.  0.
<mgrwt>
<rscale>  0 0.48107170E+03</rscale>
<asrwt>0</asrwt>
<pdfrwt beam="1">  1        2 0.27219653E-01 0.48107170E+03</pdfrwt>
<pdfrwt beam="2">  1       -2 0.43379142E-01 0.48107170E+03</pdfrwt>
<totfact> 0.10030319E+03</totfact>
</mgrwt>
</event>
<event>
 4    1  0.5886875E-005  0.6648445E+03  0.7818608E-02  0.9779317E-01
         -2   -1    0    0    0  501 -0.00000000000E+00  0.00000000000E+00  0.81896088295E+02  0.81896088335E+02  0.25500000000E-02 0. -1.
          2   -1    0    0  501    0  0.00000000000E+00 -0.00000000000E+00 -0.13493262169E+04  0.13493262169E+04  0.25500000000E-02 0.  1.
    5000001    1    1    2    0    0  0.28540967884E+02  0.25103865016E+03 -0.40461951079E+03  0.51273378983E+03  0.18800000000E+03 0.  0.
   -5000001    1    1    2    0    0 -0.28540967884E+02 -0.25103865016E+03 -0.86281061777E+03  0.91848851536E+03  0.18800000000E+03 0.  0.
<mgrwt>
<rscale>  0 0.66484446E+03</rscale>
<asrwt>0</asrwt>
<pdfrwt beam="1">  1        2 0.19276087E+00 0.66484446E+03</pdfrwt>
<pdfrwt beam="2">  1       -2 0.11699442E-01 0.66484446E+03</pdfrwt>
<totfact> 0.94508628E+02</totfact>
</mgrwt>
</event>
<event>
 4    1  0.5886875E-005  0.5079014E+03  0.7818608E-02  0.1011737E+00
         -2   -1    0    0    0  501 -0.00000000000E+00  0.00000000000E+00  0.16962434340E+03  0.16962434342E+03  0.25500000000E-02 0.  1.
          2   -1    0    0  501    0  0.00000000000E+00 -0.00000000000E+00 -0.38019876707E+03  0.38019876708E+03  0.25500000000E-02 0. -1.
    5000001    1    1    2    0    0 -0.14208269573E+03  0.67070195622E+02 -0.17759127693E+03  0.30260298281E+03  0.18800000000E+03 0.  0.
   -5000001    1    1    2    0    0  0.14208269573E+03 -0.67070195622E+02 -0.32983146742E+02  0.24722012769E+03  0.18800000000E+03 0.  0.
<mgrwt>
<rscale>  0 0.50790143E+03</rscale>
<asrwt>0</asrwt>
<pdfrwt beam="1">  1        2 0.54314109E-01 0.50790143E+03</pdfrwt>
<pdfrwt beam="2">  1       -2 0.24232049E-01 0.50790143E+03</pdfrwt>
<totfact> 0.13854344E+03</totfact>
</mgrwt>
</event>
<event>
 4    1  0.5886875E-005  0.4612671E+03  0.7818608E-02  0.1024414E+00
         -2   -1    0    0    0  501 -0.00000000000E+00  0.00000000000E+00  0.32591437614E+02  0.32591437714E+02  0.25500000000E-02 0. -1.
          2   -1    0    0  501    0  0.00000000000E+00 -0.00000000000E+00 -0.16320801257E+04  0.16320801257E+04  0.25500000000E-02 0.  1.
    5000001    1    1    2    0    0  0.12250237005E+03 -0.25503684665E+02 -0.96865402627E+03  0.99463153540E+03  0.18800000000E+03 0.  0.
   -5000001    1    1    2    0    0 -0.12250237005E+03  0.25503684665E+02 -0.63083466186E+03  0.67004002806E+03  0.18800000000E+03 0.  0.
<mgrwt>
<rscale>  0 0.46126711E+03</rscale>
<asrwt>0</asrwt>
<pdfrwt beam="1">  1        2 0.23315425E+00 0.46126711E+03</pdfrwt>
<pdfrwt beam="2">  1       -2 0.46559207E-02 0.46126711E+03</pdfrwt>
<totfact> 0.29183943E+03</totfact>
</mgrwt>
</event>
<event>
 4    1  0.5886875E-005  0.4822181E+03  0.7818608E-02  0.1018527E+00
         -2   -1    0    0    0  501 -0.00000000000E+00  0.00000000000E+00  0.67203475944E+02  0.67203475992E+02  0.25500000000E-02 0. -1.
          2   -1    0    0  501    0  0.00000000000E+00 -0.00000000000E+00 -0.86503813006E+03  0.86503813006E+03  0.25500000000E-02 0.  1.
    5000001    1    1    2    0    0 -0.49617991566E+02 -0.13512473695E+03 -0.48685153275E+03  0.54137699855E+03  0.18800000000E+03 0.  0.
   -5000001    1    1    2    0    0  0.49617991566E+02  0.13512473695E+03 -0.31098312137E+03  0.39086460750E+03  0.18800000000E+03 0.  0.
<mgrwt>
<rscale>  0 0.48221808E+03</rscale>
<asrwt>0</asrwt>
<pdfrwt beam="1">  1        2 0.12357687E+00 0.48221808E+03</pdfrwt>
<pdfrwt beam="2">  1       -2 0.96004971E-02 0.48221808E+03</pdfrwt>
<totfact> 0.25116097E+03</totfact>
</mgrwt>
</event>
<event>
 4    1  0.5886875E-005  0.4729574E+03  0.7818608E-02  0.1021089E+00
          2   -1    0    0  501    0  0.00000000000E+00  0.00000000000E+00  0.40699630388E+02  0.40699630468E+02  0.25500000000E-02 0. -1.
         -2   -1    0    0    0  501 -0.00000000000E+00 -0.00000000000E+00 -0.13740217828E+04  0.13740217828E+04  0.25500000000E-02 0.  1.
    5000001    1    1    2    0    0  0.57314022594E+02 -0.13099544895E+03 -0.70121895833E+03  0.73993022128E+03  0.18800000000E+03 0.  0.
   -5000001    1    1    2    0    0 -0.57314022594E+02  0.13099544895E+03 -0.63210319412E+03  0.67479119203E+03  0.18800000000E+03 0.  0.
<mgrwt>
<rscale>  0 0.47295741E+03</rscale>
<asrwt>0</asrwt>
<pdfrwt beam="1">  1        2 0.58142338E-02 0.47295741E+03</pdfrwt>
<pdfrwt beam="2">  1       -2 0.19628880E+00 0.47295741E+03</pdfrwt>
<totfact> 0.19523167E+02</totfact>
</mgrwt>
</event>
<event>
 4    1  0.5886875E-005  0.4115743E+03  0.7818608E-02  0.1039844E+00
          2   -1    0    0  501    0  0.00000000000E+00  0.00000000000E+00  0.41104830574E+04  0.41104830574E+04  0.25500000000E-02 0.  1.
         -2   -1    0    0    0  501 -0.00000000000E+00 -0.00000000000E+00 -0.10302525479E+02  0.10302525794E+02  0.25500000000E-02 0. -1.
    5000001    1    1    2    0    0 -0.75383252143E+02 -0.27881791769E+02  0.22836844910E+04  0.22928189818E+04  0.18800000000E+03 0.  0.
   -5000001    1    1    2    0    0  0.75383252143E+02  0.27881791769E+02  0.18164960409E+04  0.18279666014E+04  0.18800000000E+03 0.  0.
<mgrwt>
<rscale>  0 0.41157433E+03</rscale>
<asrwt>0</asrwt>
<pdfrwt beam="1">  1        2 0.58721412E+00 0.41157433E+03</pdfrwt>
<pdfrwt beam="2">  1       -2 0.14717837E-02 0.41157433E+03</pdfrwt>
<totfact> 0.72179188E+02</totfact>
</mgrwt>
</event>
<event>
 4    1  0.5886875E-005  0.7321829E+03  0.7818608E-02  0.9663725E-01
          2   -1    0    0  501    0  0.00000000000E+00  0.00000000000E+00  0.11380348533E+04  0.11380348534E+04  0.25500000000E-02 0.  1.
         -2   -1    0    0    0  501 -0.00000000000E+00 -0.00000000000E+00 -0.11776699611E+03  0.11776699614E+03  0.25500000000E-02 0. -1.
    5000001    1    1    2    0    0  0.20998652234E+03 -0.15599845243E+03  0.80843697969E+03  0.87025525385E+03  0.18800000000E+03 0.  0.
   -5000001    1    1    2    0    0 -0.20998652234E+03  0.15599845243E+03  0.21183087755E+03  0.38554659564E+03  0.18800000000E+03 0.  0.
<mgrwt>
<rscale>  0 0.73218289E+03</rscale>
<asrwt>0</asrwt>
<pdfrwt beam="1">  1        2 0.16257641E+00 0.73218289E+03</pdfrwt>
<pdfrwt beam="2">  1       -2 0.16823856E-01 0.73218289E+03</pdfrwt>
<totfact> 0.67191672E+02</totfact>
</mgrwt>
</event>
<event>
 4    1  0.5886875E-005  0.7906843E+03  0.7818608E-02  0.9573600E-01
         -2   -1    0    0    0  501 -0.00000000000E+00  0.00000000000E+00  0.21330037851E+03  0.21330037853E+03  0.25500000000E-02 0. -1.
          2   -1    0    0  501    0  0.00000000000E+00 -0.00000000000E+00 -0.73274786244E+03  0.73274786245E+03  0.25500000000E-02 0.  1.
    5000001    1    1    2    0    0  0.24670395347E+03  0.11106355708E+03 -0.52118812318E+03  0.61658658282E+03  0.18800000000E+03 0.  0.
   -5000001    1    1    2    0    0 -0.24670395347E+03 -0.11106355708E+03  0.17406392559E+01  0.32946165815E+03  0.18800000000E+03 0.  0.
<mgrwt>
<rscale>  0 0.79068425E+03</rscale>
<asrwt>0</asrwt>
<pdfrwt beam="1">  1        2 0.10467826E+00 0.79068425E+03</pdfrwt>
<pdfrwt beam="2">  1       -2 0.30471483E-01 0.79068425E+03</pdfrwt>
<totfact> 0.42463924E+02</totfact>
</mgrwt>
</event>
<event>
 4    1  0.5886875E-005  0.6027763E+03  0.7818608E-02  0.9899663E-01
         -2   -1    0    0    0  501 -0.00000000000E+00  0.00000000000E+00  0.47110104118E+02  0.47110104187E+02  0.25500000000E-02 0. -1.
          2   -1    0    0  501    0  0.00000000000E+00 -0.00000000000E+00 -0.19281384741E+04  0.19281384741E+04  0.25500000000E-02 0.  1.
    5000001    1    1    2    0    0  0.12321307652E+03  0.18964479342E+03 -0.72453084768E+03  0.78194345009E+03  0.18800000000E+03 0.  0.
   -5000001    1    1    2    0    0 -0.12321307652E+03 -0.18964479342E+03 -0.11564975223E+04  0.11933051282E+04  0.18800000000E+03 0.  0.
<mgrwt>
<rscale>  0 0.60277626E+03</rscale>
<asrwt>0</asrwt>
<pdfrwt beam="1">  1        2 0.27544830E+00 0.60277626E+03</pdfrwt>
<pdfrwt beam="2">  1       -2 0.67300161E-02 0.60277626E+03</pdfrwt>
<totfact> 0.11608039E+03</totfact>
</mgrwt>
</event>
<event>
 4    1  0.5886875E-005  0.5750816E+03  0.7818608E-02  0.9958496E-01
          2   -1    0    0  501    0  0.00000000000E+00  0.00000000000E+00  0.10190462666E+03  0.10190462669E+03  0.25500000000E-02 0.  1.
         -2   -1    0    0    0  501 -0.00000000000E+00 -0.00000000000E+00 -0.81134391238E+03  0.81134391238E+03  0.25500000000E-02 0. -1.
    5000001    1    1    2    0    0  0.18856943419E+03  0.69358063283E+02 -0.22217141828E+03  0.35365677083E+03  0.18800000000E+03 0.  0.
   -5000001    1    1    2    0    0 -0.18856943419E+03 -0.69358063283E+02 -0.48726786743E+03  0.55959176824E+03  0.18800000000E+03 0.  0.
<mgrwt>
<rscale>  0 0.57508155E+03</rscale>
<asrwt>0</asrwt>
<pdfrwt beam="1">  1        2 0.14557804E-01 0.57508155E+03</pdfrwt>
<pdfrwt beam="2">  1       -2 0.11590627E+00 0.57508155E+03</pdfrwt>
<totfact> 0.24368613E+02</totfact>
</mgrwt>
</event>
<event>
 4    1  0.5886875E-005  0.5620585E+03  0.7818608E-02  0.9987408E-01
          2   -1    0    0  501    0  0.00000000000E+00  0.00000000000E+00  0.28818840780E+04  0.28818840780E+04  0.25500000000E-02 0.  1.
         -2   -1    0    0    0  501 -0.00000000000E+00 -0.00000000000E+00 -0.27404793404E+02  0.27404793523E+02  0.25500000000E-02 0. -1.
    5000001    1    1    2    0    0  0.13782201310E+03  0.87757449979E+02  0.21008761763E+04  0.21155899852E+04  0.18800000000E+03 0.  0.
   -5000001    1    1    2    0    0 -0.13782201310E+03 -0.87757449979E+02  0.75360310826E+03  0.79369888629E+03  0.18800000000E+03 0.  0.
<mgrwt>
<rscale>  0 0.56205849E+03</rscale>
<asrwt>0</asrwt>
<pdfrwt beam="1">  1        2 0.41169794E+00 0.56205849E+03</pdfrwt>
<pdfrwt beam="2">  1       -2 0.39149685E-02 0.56205849E+03</pdfrwt>
<totfact> 0.87724983E+02</totfact>
</mgrwt>
</event>
<event>
 4    1  0.5886875E-005  0.5303376E+03  0.7818608E-02  0.1006150E+00
         -2   -1    0    0    0  501 -0.00000000000E+00  0.00000000000E+00  0.33549744098E+02  0.33549744195E+02  0.25500000000E-02 0. -1.
          2   -1    0    0  501    0  0.00000000000E+00 -0.00000000000E+00 -0.20958277702E+04  0.20958277702E+04  0.25500000000E-02 0.  1.
    5000001    1    1    2    0    0  0.15174783439E+03 -0.92085745066E+02 -0.79484916754E+03  0.83584471574E+03  0.18800000000E+03 0.  0.
   -5000001    1    1    2    0    0 -0.15174783439E+03  0.92085745066E+02 -0.12674288585E+04  0.12935327986E+04  0.18800000000E+03 0.  0.
<mgrwt>
<rscale>  0 0.53033757E+03</rscale>
<asrwt>0</asrwt>
<pdfrwt beam="1">  1        2 0.29940388E+00 0.53033757E+03</pdfrwt>
<pdfrwt beam="2">  1       -2 0.47928219E-02 0.53033757E+03</pdfrwt>
<totfact> 0.16302680E+03</totfact>
</mgrwt>
</event>
<event>
 4    1  0.5886875E-005  0.5435043E+03  0.7818608E-02  0.1003009E+00
         -2   -1    0    0    0  501 -0.00000000000E+00  0.00000000000E+00  0.72681076376E+02  0.72681076421E+02  0.25500000000E-02 0.  1.
          2   -1    0    0  501    0  0.00000000000E+00 -0.00000000000E+00 -0.10160723918E+04  0.10160723918E+04  0.25500000000E-02 0. -1.
    5000001    1    1    2    0    0  0.10736737771E+03 -0.11082504351E+03 -0.71453310069E+03  0.75479235293E+03  0.18800000000E+03 0.  0.
   -5000001    1    1    2    0    0 -0.10736737771E+03  0.11082504351E+03 -0.22885821470E+03  0.33396111525E+03  0.18800000000E+03 0.  0.
<mgrwt>
<rscale>  0 0.54350432E+03</rscale>
<asrwt>0</asrwt>
<pdfrwt beam="1">  1        2 0.14515319E+00 0.54350432E+03</pdfrwt>
<pdfrwt beam="2">  1       -2 0.10383012E-01 0.54350432E+03</pdfrwt>
<totfact> 0.17791714E+03</totfact>
</mgrwt>
</event>
<event>
 4    1  0.5886875E-005  0.5243139E+03  0.7818608E-02  0.1007621E+00
          2   -1    0    0  501    0  0.00000000000E+00  0.00000000000E+00  0.19957045710E+03  0.19957045712E+03  0.25500000000E-02 0. -1.
         -2   -1    0    0    0  501 -0.00000000000E+00 -0.00000000000E+00 -0.34437090574E+03  0.34437090575E+03  0.25500000000E-02 0.  1.
    5000001    1    1    2    0    0 -0.11459559960E+03 -0.11808783616E+03 -0.15477913504E+03  0.29390044086E+03  0.18800000000E+03 0.  0.
   -5000001    1    1    2    0    0  0.11459559960E+03  0.11808783616E+03  0.99786864024E+01  0.25004092201E+03  0.18800000000E+03 0.  0.
<mgrwt>
<rscale>  0 0.52431387E+03</rscale>
<asrwt>0</asrwt>
<pdfrwt beam="1">  1        2 0.28510065E-01 0.52431387E+03</pdfrwt>
<pdfrwt beam="2">  1       -2 0.49195844E-01 0.52431387E+03</pdfrwt>
<totfact> 0.74132333E+02</totfact>
</mgrwt>
</event>
<event>
 4    1  0.5886875E-005  0.6328745E+03  0.7818608E-02  0.9839455E-01
          2   -1    0    0  501    0  0.00000000000E+00  0.00000000000E+00  0.12445286370E+03  0.12445286373E+03  0.25500000000E-02 0.  1.
         -2   -1    0    0    0  501 -0.00000000000E+00 -0.00000000000E+00 -0.80458203377E+03  0.80458203377E+03  0.25500000000E-02 0. -1.
    5000001    1    1    2    0    0 -0.13831254515E+03 -0.15873424438E+03 -0.13008145607E+03  0.31079270535E+03  0.18800000000E+03 0.  0.
   -5000001    1    1    2    0    0  0.13831254515E+03  0.15873424438E+03 -0.55004771400E+03  0.61824219216E+03  0.18800000000E+03 0.  0.
<mgrwt>
<rscale>  0 0.63287452E+03</rscale>
<asrwt>0</asrwt>
<pdfrwt beam="1">  1        2 0.17778981E-01 0.63287452E+03</pdfrwt>
<pdfrwt beam="2">  1       -2 0.11494029E+00 0.63287452E+03</pdfrwt>
<totfact> 0.19524944E+02</totfact>
</mgrwt>
</event>
<event>
 4    1  0.5886875E-005  0.1499560E+04  0.7818608E-02  0.8884746E-01
         -2   -1    0    0    0  501 -0.00000000000E+00  0.00000000000E+00  0.26119062457E+03  0.26119062458E+03  0.25500000000E-02 0. -1.
          2   -1    0    0  501    0  0.00000000000E+00 -0.00000000000E+00 -0.21523350703E+04  0.21523350703E+04  0.25500000000E-02 0.  1.
    5000001    1    1    2    0    0 -0.52547752575E+03 -0.34873898899E+03 -0.15238254449E+04  0.16598594817E+04  0.18800000000E+03 0.  0.
   -5000001    1    1    2    0    0  0.52547752575E+03  0.34873898899E+03 -0.36731900085E+03  0.75366621318E+03  0.18800000000E+03 0.  0.
<mgrwt>
<rscale>  0 0.14995596E+04</rscale>
<asrwt>0</asrwt>
<pdfrwt beam="1">  1        2 0.30747643E+00 0.14995596E+04</pdfrwt>
<pdfrwt beam="2">  1       -2 0.37312948E-01 0.14995596E+04</pdfrwt>
<totfact> 0.43879419E+01</totfact>
</mgrwt>
</event>
<event>
 4    1  0.5886875E-005  0.8412678E+03  0.7818608E-02  0.9502133E-01
         -2   -1    0    0    0  501 -0.00000000000E+00  0.00000000000E+00  0.13159614640E+03  0.13159614643E+03  0.25500000000E-02 0. -1.
          2   -1    0    0  501    0  0.00000000000E+00 -0.00000000000E+00 -0.13445141040E+04  0.13445141041E+04  0.25500000000E-02 0.  1.
    5000001    1    1    2    0    0  0.28685879645E+03  0.24249728300E+03 -0.56738264752E+03  0.70594615238E+03  0.18800000000E+03 0.  0.
   -5000001    1    1    2    0    0 -0.28685879645E+03 -0.24249728300E+03 -0.64553531013E+03  0.77016409809E+03  0.18800000000E+03 0.  0.
<mgrwt>
<rscale>  0 0.84126779E+03</rscale>
<asrwt>0</asrwt>
<pdfrwt beam="1">  1        2 0.19207344E+00 0.84126779E+03</pdfrwt>
<pdfrwt beam="2">  1       -2 0.18799450E-01 0.84126779E+03</pdfrwt>
<totfact> 0.42331667E+02</totfact>
</mgrwt>
</event>
<event>
 4    1  0.5886875E-005  0.6232195E+03  0.7818608E-02  0.9858370E-01
          2   -1    0    0  501    0  0.00000000000E+00  0.00000000000E+00  0.37481016846E+04  0.37481016846E+04  0.25500000000E-02 0.  1.
         -2   -1    0    0    0  501 -0.00000000000E+00 -0.00000000000E+00 -0.25906620697E+02  0.25906620822E+02  0.25500000000E-02 0. -1.
    5000001    1    1    2    0    0 -0.12287881666E+03  0.20938792338E+03  0.15398536532E+04  0.15701706211E+04  0.18800000000E+03 0.  0.
   -5000001    1    1    2    0    0  0.12287881666E+03 -0.20938792338E+03  0.21823414107E+04  0.22038376843E+04  0.18800000000E+03 0.  0.
<mgrwt>
<rscale>  0 0.62321954E+03</rscale>
<asrwt>0</asrwt>
<pdfrwt beam="1">  1        2 0.53544307E+00 0.62321954E+03</pdfrwt>
<pdfrwt beam="2">  1       -2 0.37009460E-02 0.62321954E+03</pdfrwt>
<totfact> 0.30142887E+02</totfact>
</mgrwt>
</event>
<event>
 4    1  0.5886875E-005  0.1093180E+04  0.7818608E-02  0.9211865E-01
          2   -1    0    0  501    0  0.00000000000E+00  0.00000000000E+00  0.11226634243E+04  0.11226634243E+04  0.25500000000E-02 0.  1.
         -2   -1    0    0    0  501 -0.00000000000E+00 -0.00000000000E+00 -0.26611759809E+03  0.26611759810E+03  0.25500000000E-02 0. -1.
    5000001    1    1    2    0    0 -0.11119306727E+03  0.49006009805E+03  0.56086872888E+03  0.77617042519E+03  0.18800000000E+03 0.  0.
   -5000001    1    1    2    0    0  0.11119306727E+03 -0.49006009805E+03  0.29567709731E+03  0.61261059718E+03  0.18800000000E+03 0.  0.
<mgrwt>
<rscale>  0 0.10931798E+04</rscale>
<asrwt>0</asrwt>
<pdfrwt beam="1">  1        2 0.16038049E+00 0.10931798E+04</pdfrwt>
<pdfrwt beam="2">  1       -2 0.38016799E-01 0.10931798E+04</pdfrwt>
<totfact> 0.15347094E+02</totfact>
</mgrwt>
</event>
<event>
 4    1  0.5886875E-005  0.5901709E+03  0.7818608E-02  0.9926011E-01
          2   -1    0    0  501    0  0.00000000000E+00  0.00000000000E+00  0.12868418419E+04  0.12868418419E+04  0.25500000000E-02 0.  1.
         -2   -1    0    0    0  501 -0.00000000000E+00 -0.00000000000E+00 -0.67665975270E+02  0.67665975318E+02  0.25500000000E-02 0. -1.
    5000001    1    1    2    0    0  0.37329753014E+02 -0.22289617381E+03  0.55084054585E+03  0.62437610598E+03  0.18800000000E+03 0.  0.
   -5000001    1    1    2    0    0 -0.37329753014E+02  0.22289617381E+03  0.66833532074E+03  0.73013171120E+03  0.18800000000E+03 0.  0.
<mgrwt>
<rscale>  0 0.59017085E+03</rscale>
<asrwt>0</asrwt>
<pdfrwt beam="1">  1        2 0.18383455E+00 0.59017085E+03</pdfrwt>
<pdfrwt beam="2">  1       -2 0.96665681E-02 0.59017085E+03</pdfrwt>
<totfact> 0.13982966E+03</totfact>
</mgrwt>
</event>
<event>
 4    1  0.5886875E-005  0.4238203E+03  0.7818608E-02  0.1035830E+00
         -2   -1    0    0    0  501 -0.00000000000E+00  0.00000000000E+00  0.10771956561E+02  0.10771956863E+02  0.25500000000E-02 0. -1.
          2   -1    0    0  501    0  0.00000000000E+00 -0.00000000000E+00 -0.41687803971E+04  0.41687803971E+04  0.25500000000E-02 0.  1.
    5000001    1    1    2    0    0  0.57391464499E+02  0.75644427670E+02 -0.23094501713E+04  0.23190342717E+04  0.18800000000E+03 0.  0.
   -5000001    1    1    2    0    0 -0.57391464499E+02 -0.75644427670E+02 -0.18485582692E+04  0.18605180823E+04  0.18800000000E+03 0.  0.
<mgrwt>
<rscale>  0 0.42382035E+03</rscale>
<asrwt>0</asrwt>
<pdfrwt beam="1">  1        2 0.59553902E+00 0.42382035E+03</pdfrwt>
<pdfrwt beam="2">  1       -2 0.15388536E-02 0.42382035E+03</pdfrwt>
<totfact> 0.61507661E+02</totfact>
</mgrwt>
</event>
<event>
 4    1  0.5886875E-005  0.8423883E+03  0.7818608E-02  0.9500610E-01
          2   -1    0    0  501    0  0.00000000000E+00  0.00000000000E+00  0.15523640195E+04  0.15523640195E+04  0.25500000000E-02 0.  1.
         -2   -1    0    0    0  501 -0.00000000000E+00 -0.00000000000E+00 -0.11428022142E+03  0.11428022145E+03  0.25500000000E-02 0. -1.
    5000001    1    1    2    0    0 -0.95173584729E+02  0.32822819529E+03  0.10335431821E+04  0.11046932917E+04  0.18800000000E+03 0.  0.
   -5000001    1    1    2    0    0  0.95173584729E+02 -0.32822819529E+03  0.40454061597E+03  0.56195094927E+03  0.18800000000E+03 0.  0.
<mgrwt>
<rscale>  0 0.84238828E+03</rscale>
<asrwt>0</asrwt>
<pdfrwt beam="1">  1        2 0.22176629E+00 0.84238828E+03</pdfrwt>
<pdfrwt beam="2">  1       -2 0.16325746E-01 0.84238828E+03</pdfrwt>
<totfact> 0.41835766E+02</totfact>
</mgrwt>
</event>
<event>
 4    1  0.5886875E-005  0.4028230E+03  0.7818608E-02  0.1042807E+00
         -2   -1    0    0    0  501 -0.00000000000E+00  0.00000000000E+00  0.61806445067E+02  0.61806445120E+02  0.25500000000E-02 0. -1.
          2   -1    0    0  501    0  0.00000000000E+00 -0.00000000000E+00 -0.65634879328E+03  0.65634879329E+03  0.25500000000E-02 0.  1.
    5000001    1    1    2    0    0 -0.15670620840E+01 -0.70309485851E+02 -0.26761510855E+03  0.33452612127E+03  0.18800000000E+03 0.  0.
   -5000001    1    1    2    0    0  0.15670620840E+01  0.70309485851E+02 -0.32692723966E+03  0.38362911714E+03  0.18800000000E+03 0.  0.
<mgrwt>
<rscale>  0 0.40282297E+03</rscale>
<asrwt>0</asrwt>
<pdfrwt beam="1">  1        2 0.93764109E-01 0.40282297E+03</pdfrwt>
<pdfrwt beam="2">  1       -2 0.88294926E-02 0.40282297E+03</pdfrwt>
<totfact> 0.40362752E+03</totfact>
</mgrwt>
</event>
<event>
 4    1  0.5886875E-005  0.7127887E+03  0.7818608E-02  0.9695608E-01
         -2   -1    0    0    0  501 -0.00000000000E+00  0.00000000000E+00  0.16935915578E+03  0.16935915579E+03  0.25500000000E-02 0. -1.
          2   -1    0    0  501    0  0.00000000000E+00 -0.00000000000E+00 -0.74998552931E+03  0.74998552931E+03  0.25500000000E-02 0.  1.
    5000001    1    1    2    0    0 -0.24979645649E+03 -0.16418321190E+03 -0.22820870319E+03  0.42044929416E+03  0.18800000000E+03 0.  0.
   -5000001    1    1    2    0    0  0.24979645649E+03  0.16418321190E+03 -0.35241767034E+03  0.49889539095E+03  0.18800000000E+03 0.  0.
<mgrwt>
<rscale>  0 0.71278865E+03</rscale>
<asrwt>0</asrwt>
<pdfrwt beam="1">  1        2 0.10714079E+00 0.71278865E+03</pdfrwt>
<pdfrwt beam="2">  1       -2 0.24194165E-01 0.71278865E+03</pdfrwt>
<totfact> 0.63002577E+02</totfact>
</mgrwt>
</event>
<event>
 4    1  0.5886875E-005  0.5196630E+03  0.7818608E-02  0.1008770E+00
         -2   -1    0    0    0  501 -0.00000000000E+00  0.00000000000E+00  0.72537817393E+02  0.72537817438E+02  0.25500000000E-02 0. -1.
          2   -1    0    0  501    0  0.00000000000E+00 -0.00000000000E+00 -0.93071998594E+03  0.93071998594E+03  0.25500000000E-02 0.  1.
    5000001    1    1    2    0    0 -0.98107216524E+01 -0.17855137878E+03 -0.40237127685E+03  0.47877289978E+03  0.18800000000E+03 0.  0.
   -5000001    1    1    2    0    0  0.98107216524E+01  0.17855137878E+03 -0.45581089169E+03  0.52448490360E+03  0.18800000000E+03 0.  0.
<mgrwt>
<rscale>  0 0.51966295E+03</rscale>
<asrwt>0</asrwt>
<pdfrwt beam="1">  1        2 0.13295999E+00 0.51966295E+03</pdfrwt>
<pdfrwt beam="2">  1       -2 0.10362546E-01 0.51966295E+03</pdfrwt>
<totfact> 0.20148208E+03</totfact>
</mgrwt>
</event>
<event>
 4    1  0.5886875E-005  0.4884712E+03  0.7818608E-02  0.1016833E+00
         -2   -1    0    0    0  501 -0.00000000000E+00  0.00000000000E+00  0.17502842604E+03  0.17502842606E+03  0.25500000000E-02 0. -1.
          2   -1    0    0  501    0  0.00000000000E+00 -0.00000000000E+00 -0.34080768756E+03  0.34080768757E+03  0.25500000000E-02 0.  1.
    5000001    1    1    2    0    0  0.13545471986E+03  0.44969072151E+02 -0.16630406727E+02  0.23662368650E+03  0.18800000000E+03 0.  0.
   -5000001    1    1    2    0    0 -0.13545471986E+03 -0.44969072151E+02 -0.14914885479E+03  0.27921242714E+03  0.18800000000E+03 0.  0.
<mgrwt>
<rscale>  0 0.48847122E+03</rscale>
<asrwt>0</asrwt>
<pdfrwt beam="1">  1        2 0.48686812E-01 0.48847122E+03</pdfrwt>
<pdfrwt beam="2">  1       -2 0.25004061E-01 0.48847122E+03</pdfrwt>
<totfact> 0.14773788E+03</totfact>
</mgrwt>
</event>
<event>
 4    1  0.5886875E-005  0.7327955E+03  0.7818608E-02  0.9662735E-01
          2   -1    0    0  501    0  0.00000000000E+00  0.00000000000E+00  0.36062703918E+03  0.36062703919E+03  0.25500000000E-02 0.  1.
         -2   -1    0    0    0  501 -0.00000000000E+00 -0.00000000000E+00 -0.37226076739E+03  0.37226076740E+03  0.25500000000E-02 0. -1.
    5000001    1    1    2    0    0  0.14027067574E+03  0.20614193068E+03  0.18586568212E+03  0.36340116930E+03  0.18800000000E+03 0.  0.
   -5000001    1    1    2    0    0 -0.14027067574E+03 -0.20614193068E+03 -0.19749941033E+03  0.36948663729E+03  0.18800000000E+03 0.  0.
<mgrwt>
<rscale>  0 0.73279546E+03</rscale>
<asrwt>0</asrwt>
<pdfrwt beam="1">  1        2 0.51518149E-01 0.73279546E+03</pdfrwt>
<pdfrwt beam="2">  1       -2 0.53180109E-01 0.73279546E+03</pdfrwt>
<totfact> 0.32639872E+02</totfact>
</mgrwt>
</event>
<event>
 4    1  0.5886875E-005  0.4223769E+03  0.7818608E-02  0.1036295E+00
         -2   -1    0    0    0  501 -0.00000000000E+00  0.00000000000E+00  0.38687618826E+02  0.38687618910E+02  0.25500000000E-02 0. -1.
          2   -1    0    0  501    0  0.00000000000E+00 -0.00000000000E+00 -0.11528380618E+04  0.11528380618E+04  0.25500000000E-02 0.  1.
    5000001    1    1    2    0    0  0.79772366902E+02 -0.36926787809E+02 -0.44675491067E+03  0.49260650461E+03  0.18800000000E+03 0.  0.
   -5000001    1    1    2    0    0 -0.79772366902E+02  0.36926787809E+02 -0.66739553228E+03  0.69891917608E+03  0.18800000000E+03 0.  0.
<mgrwt>
<rscale>  0 0.42237689E+03</rscale>
<asrwt>0</asrwt>
<pdfrwt beam="1">  1        2 0.16469113E+00 0.42237689E+03</pdfrwt>
<pdfrwt beam="2">  1       -2 0.55268034E-02 0.42237689E+03</pdfrwt>
<totfact> 0.40154522E+03</totfact>
</mgrwt>
</event>
<event>
 4    1  0.5886875E-005  0.7541427E+03  0.7818608E-02  0.9628873E-01
          2   -1    0    0  501    0  0.00000000000E+00  0.00000000000E+00  0.38685819408E+03  0.38685819409E+03  0.25500000000E-02 0.  1.
         -2   -1    0    0    0  501 -0.00000000000E+00 -0.00000000000E+00 -0.36753211950E+03  0.36753211951E+03  0.25500000000E-02 0. -1.
    5000001    1    1    2    0    0  0.30213885695E+03 -0.12016143646E+03  0.43022933988E+02  0.37804977521E+03  0.18800000000E+03 0.  0.
   -5000001    1    1    2    0    0 -0.30213885695E+03  0.12016143646E+03 -0.23696859409E+02  0.37634053839E+03  0.18800000000E+03 0.  0.
<mgrwt>
<rscale>  0 0.75414272E+03</rscale>
<asrwt>0</asrwt>
<pdfrwt beam="1">  1        2 0.55265456E-01 0.75414272E+03</pdfrwt>
<pdfrwt beam="2">  1       -2 0.52504589E-01 0.75414272E+03</pdfrwt>
<totfact> 0.30966507E+02</totfact>
</mgrwt>
</event>
<event>
 4    1  0.5886875E-005  0.6248427E+03  0.7818608E-02  0.9855165E-01
         -2   -1    0    0    0  501 -0.00000000000E+00  0.00000000000E+00  0.22591990382E+03  0.22591990384E+03  0.25500000000E-02 0. -1.
          2   -1    0    0  501    0  0.00000000000E+00 -0.00000000000E+00 -0.43204291167E+03  0.43204291168E+03  0.25500000000E-02 0.  1.
    5000001    1    1    2    0    0 -0.24218503165E+01 -0.19613605786E+03  0.59346894878E+02  0.27810298899E+03  0.18800000000E+03 0.  0.
   -5000001    1    1    2    0    0  0.24218503165E+01  0.19613605786E+03 -0.26546990273E+03  0.37985982652E+03  0.18800000000E+03 0.  0.
<mgrwt>
<rscale>  0 0.62484268E+03</rscale>
<asrwt>0</asrwt>
<pdfrwt beam="1">  1        2 0.61720416E-01 0.62484268E+03</pdfrwt>
<pdfrwt beam="2">  1       -2 0.32274272E-01 0.62484268E+03</pdfrwt>
<totfact> 0.71193597E+02</totfact>
</mgrwt>
</event>
<event>
 4    1  0.5886875E-005  0.7048277E+03  0.7818608E-02  0.9709012E-01
          2   -1    0    0  501    0  0.00000000000E+00  0.00000000000E+00  0.23090577599E+03  0.23090577601E+03  0.25500000000E-02 0.  1.
         -2   -1    0    0    0  501 -0.00000000000E+00 -0.00000000000E+00 -0.53786233326E+03  0.53786233326E+03  0.25500000000E-02 0. -1.
    5000001    1    1    2    0    0 -0.13191505842E+03  0.20224805249E+03 -0.34410648908E+03  0.46049878740E+03  0.18800000000E+03 0.  0.
   -5000001    1    1    2    0    0  0.13191505842E+03 -0.20224805249E+03  0.37149931813E+02  0.30826932187E+03  0.18800000000E+03 0.  0.
<mgrwt>
<rscale>  0 0.70482769E+03</rscale>
<asrwt>0</asrwt>
<pdfrwt beam="1">  1        2 0.32986540E-01 0.70482769E+03</pdfrwt>
<pdfrwt beam="2">  1       -2 0.76837476E-01 0.70482769E+03</pdfrwt>
<totfact> 0.24417163E+02</totfact>
</mgrwt>
</event>
<event>
 4    1  0.5886875E-005  0.5531656E+03  0.7818608E-02  0.1000764E+00
         -2   -1    0    0    0  501 -0.00000000000E+00  0.00000000000E+00  0.65743923588E+03  0.65743923588E+03  0.25500000000E-02 0. -1.
          2   -1    0    0  501    0  0.00000000000E+00 -0.00000000000E+00 -0.11635757559E+03  0.11635757562E+03  0.25500000000E-02 0.  1.
    5000001    1    1    2    0    0  0.10837369797E+03  0.16958926898E+03  0.30616783922E+03  0.41181078706E+03  0.18800000000E+03 0.  0.
   -5000001    1    1    2    0    0 -0.10837369797E+03 -0.16958926898E+03  0.23491382107E+03  0.36198602445E+03  0.18800000000E+03 0.  0.
<mgrwt>
<rscale>  0 0.55316557E+03</rscale>
<asrwt>0</asrwt>
<pdfrwt beam="1">  1        2 0.16622511E-01 0.55316557E+03</pdfrwt>
<pdfrwt beam="2">  1       -2 0.93919891E-01 0.55316557E+03</pdfrwt>
<totfact> 0.34271550E+02</totfact>
</mgrwt>
</event>
<event>
 4    1  0.5886875E-005  0.7688577E+03  0.7818608E-02  0.9606221E-01
          2   -1    0    0  501    0  0.00000000000E+00  0.00000000000E+00  0.58251848026E+03  0.58251848027E+03  0.25500000000E-02 0.  1.
         -2   -1    0    0    0  501 -0.00000000000E+00 -0.00000000000E+00 -0.25370101977E+03  0.25370101978E+03  0.25500000000E-02 0. -1.
    5000001    1    1    2    0    0 -0.55552311898E+02 -0.29842097379E+03  0.31937121968E+03  0.47904395719E+03  0.18800000000E+03 0.  0.
   -5000001    1    1    2    0    0  0.55552311898E+02  0.29842097379E+03  0.94462408072E+01  0.35717554286E+03  0.18800000000E+03 0.  0.
<mgrwt>
<rscale>  0 0.76885768E+03</rscale>
<asrwt>0</asrwt>
<pdfrwt beam="1">  1        2 0.83216925E-01 0.76885768E+03</pdfrwt>
<pdfrwt beam="2">  1       -2 0.36243003E-01 0.76885768E+03</pdfrwt>
<totfact> 0.40451168E+02</totfact>
</mgrwt>
</event>
<event>
 4    1  0.5886875E-005  0.7776711E+03  0.7818608E-02  0.9592912E-01
          2   -1    0    0  501    0  0.00000000000E+00  0.00000000000E+00  0.20960030090E+03  0.20960030092E+03  0.25500000000E-02 0. -1.
         -2   -1    0    0    0  501 -0.00000000000E+00 -0.00000000000E+00 -0.72134007374E+03  0.72134007374E+03  0.25500000000E-02 0.  1.
    5000001    1    1    2    0    0  0.20796480352E+03 -0.13052010695E+03 -0.53804816100E+03  0.62058414528E+03  0.18800000000E+03 0.  0.
   -5000001    1    1    2    0    0 -0.20796480352E+03  0.13052010695E+03  0.26308388164E+02  0.31035622937E+03  0.18800000000E+03 0.  0.
<mgrwt>
<rscale>  0 0.77767113E+03</rscale>
<asrwt>0</asrwt>
<pdfrwt beam="1">  1        2 0.29942900E-01 0.77767113E+03</pdfrwt>
<pdfrwt beam="2">  1       -2 0.10304858E+00 0.77767113E+03</pdfrwt>
<totfact> 0.13823218E+02</totfact>
</mgrwt>
</event>
<event>
 4    1  0.5886875E-005  0.7583738E+03  0.7818608E-02  0.9622304E-01
         -2   -1    0    0    0  501 -0.00000000000E+00  0.00000000000E+00  0.97751643666E+02  0.97751643699E+02  0.25500000000E-02 0. -1.
          2   -1    0    0  501    0  0.00000000000E+00 -0.00000000000E+00 -0.14708981762E+04  0.14708981762E+04  0.25500000000E-02 0.  1.
    5000001    1    1    2    0    0  0.17470200643E+03  0.27434265960E+03 -0.58001296014E+03  0.69104538191E+03  0.18800000000E+03 0.  0.
   -5000001    1    1    2    0    0 -0.17470200643E+03 -0.27434265960E+03 -0.79313357235E+03  0.87760443795E+03  0.18800000000E+03 0.  0.
<mgrwt>
<rscale>  0 0.75837382E+03</rscale>
<asrwt>0</asrwt>
<pdfrwt beam="1">  1        2 0.21012830E+00 0.75837382E+03</pdfrwt>
<pdfrwt beam="2">  1       -2 0.13964521E-01 0.75837382E+03</pdfrwt>
<totfact> 0.60414897E+02</totfact>
</mgrwt>
</event>
<event>
 4    1  0.5886875E-005  0.6170645E+03  0.7818608E-02  0.9870622E-01
         -2   -1    0    0    0  501 -0.00000000000E+00  0.00000000000E+00  0.18491712134E+03  0.18491712136E+03  0.25500000000E-02 0. -1.
          2   -1    0    0  501    0  0.00000000000E+00 -0.00000000000E+00 -0.51478281352E+03  0.51478281352E+03  0.25500000000E-02 0.  1.
    5000001    1    1    2    0    0  0.14385120105E+03  0.18432076724E+03 -0.24655000262E+03  0.38832746114E+03  0.18800000000E+03 0.  0.
   -5000001    1    1    2    0    0 -0.14385120105E+03 -0.18432076724E+03 -0.83315689558E+02  0.31137247375E+03  0.18800000000E+03 0.  0.
<mgrwt>
<rscale>  0 0.61706452E+03</rscale>
<asrwt>0</asrwt>
<pdfrwt beam="1">  1        2 0.73540401E-01 0.61706452E+03</pdfrwt>
<pdfrwt beam="2">  1       -2 0.26416732E-01 0.61706452E+03</pdfrwt>
<totfact> 0.84440306E+02</totfact>
</mgrwt>
</event>
<event>
 4    1  0.5886875E-005  0.5269080E+03  0.7818608E-02  0.1006985E+00
         -2   -1    0    0    0  501 -0.00000000000E+00  0.00000000000E+00  0.11016877903E+03  0.11016877906E+03  0.25500000000E-02 0. -1.
          2   -1    0    0  501    0  0.00000000000E+00 -0.00000000000E+00 -0.63001517098E+03  0.63001517098E+03  0.25500000000E-02 0.  1.
    5000001    1    1    2    0    0  0.17003166171E+02 -0.10501400389E+03 -0.47179175654E+03  0.51889161701E+03  0.18800000000E+03 0.  0.
   -5000001    1    1    2    0    0 -0.17003166171E+02  0.10501400389E+03 -0.48054635409E+02  0.22129233303E+03  0.18800000000E+03 0.  0.
<mgrwt>
<rscale>  0 0.52690797E+03</rscale>
<asrwt>0</asrwt>
<pdfrwt beam="1">  1        2 0.90002165E-01 0.52690797E+03</pdfrwt>
<pdfrwt beam="2">  1       -2 0.15738397E-01 0.52690797E+03</pdfrwt>
<totfact> 0.16500082E+03</totfact>
</mgrwt>
</event>
<event>
 4    1  0.5886875E-005  0.7218945E+03  0.7818608E-02  0.9680505E-01
         -2   -1    0    0    0  501 -0.00000000000E+00  0.00000000000E+00  0.12508456716E+03  0.12508456719E+03  0.25500000000E-02 0. -1.
          2   -1    0    0  501    0  0.00000000000E+00 -0.00000000000E+00 -0.10415587228E+04  0.10415587228E+04  0.25500000000E-02 0.  1.
    5000001    1    1    2    0    0 -0.12451648767E+00 -0.30728427246E+03 -0.42155220556E+03  0.55450329271E+03  0.18800000000E+03 0.  0.
   -5000001    1    1    2    0    0  0.12451648767E+00  0.30728427246E+03 -0.49492195008E+03  0.61213999729E+03  0.18800000000E+03 0.  0.
<mgrwt>
<rscale>  0 0.72189451E+03</rscale>
<asrwt>0</asrwt>
<pdfrwt beam="1">  1        2 0.14879410E+00 0.72189451E+03</pdfrwt>
<pdfrwt beam="2">  1       -2 0.17869224E-01 0.72189451E+03</pdfrwt>
<totfact> 0.69071562E+02</totfact>
</mgrwt>
</event>
<event>
 4    1  0.5886875E-005  0.7265710E+03  0.7818608E-02  0.9672841E-01
         -2   -1    0    0    0  501 -0.00000000000E+00  0.00000000000E+00  0.61324330354E+02  0.61324330407E+02  0.25500000000E-02 0. -1.
          2   -1    0    0  501    0  0.00000000000E+00 -0.00000000000E+00 -0.21521040339E+04  0.21521040339E+04  0.25500000000E-02 0.  1.
    5000001    1    1    2    0    0  0.12008024251E+03  0.26937614177E+03 -0.74613487511E+03  0.82404127460E+03  0.18800000000E+03 0.  0.
   -5000001    1    1    2    0    0 -0.12008024251E+03 -0.26937614177E+03 -0.13446448284E+04  0.13893870897E+04  0.18800000000E+03 0.  0.
<mgrwt>
<rscale>  0 0.72657096E+03</rscale>
<asrwt>0</asrwt>
<pdfrwt beam="1">  1        2 0.30744339E+00 0.72657096E+03</pdfrwt>
<pdfrwt beam="2">  1       -2 0.87606200E-02 0.72657096E+03</pdfrwt>
<totfact> 0.58372401E+02</totfact>
</mgrwt>
</event>
<event>
 4    1  0.5886875E-005  0.5617221E+03  0.7818608E-02  0.9988166E-01
          2   -1    0    0  501    0  0.00000000000E+00  0.00000000000E+00  0.12042749702E+04  0.12042749702E+04  0.25500000000E-02 0.  1.
         -2   -1    0    0    0  501 -0.00000000000E+00 -0.00000000000E+00 -0.65502431816E+02  0.65502431865E+02  0.25500000000E-02 0. -1.
    5000001    1    1    2    0    0  0.20510482484E+03  0.26734849991E+02  0.50722444430E+03  0.57914020605E+03  0.18800000000E+03 0.  0.
   -5000001    1    1    2    0    0 -0.20510482484E+03 -0.26734849991E+02  0.63154809413E+03  0.69063719605E+03  0.18800000000E+03 0.  0.
<mgrwt>
<rscale>  0 0.56172213E+03</rscale>
<asrwt>0</asrwt>
<pdfrwt beam="1">  1        2 0.17203927E+00 0.56172213E+03</pdfrwt>
<pdfrwt beam="2">  1       -2 0.93574911E-02 0.56172213E+03</pdfrwt>
<totfact> 0.16376053E+03</totfact>
</mgrwt>
</event>
<event>
 4    1  0.5886875E-005  0.7893727E+03  0.7818608E-02  0.9575528E-01
         -2   -1    0    0    0  501 -0.00000000000E+00  0.00000000000E+00  0.10430049187E+04  0.10430049187E+04  0.25500000000E-02 0. -1.
          2   -1    0    0  501    0  0.00000000000E+00 -0.00000000000E+00 -0.14935433178E+03  0.14935433180E+03  0.25500000000E-02 0.  1.
    5000001    1    1    2    0    0 -0.21709660779E+03  0.23504392684E+03  0.24384940641E+03  0.44405305726E+03  0.18800000000E+03 0.  0.
   -5000001    1    1    2    0    0  0.21709660779E+03 -0.23504392684E+03  0.64980118052E+03  0.74830619325E+03  0.18800000000E+03 0.  0.
<mgrwt>
<rscale>  0 0.78937267E+03</rscale>
<asrwt>0</asrwt>
<pdfrwt beam="1">  1        2 0.21336334E-01 0.78937267E+03</pdfrwt>
<pdfrwt beam="2">  1       -2 0.14900070E+00 0.78937267E+03</pdfrwt>
<totfact> 0.81067809E+01</totfact>
</mgrwt>
</event>
<event>
 4    1  0.5886875E-005  0.5475989E+03  0.7818608E-02  0.1002051E+00
          2   -1    0    0  501    0  0.00000000000E+00  0.00000000000E+00  0.39506774827E+03  0.39506774828E+03  0.25500000000E-02 0.  1.
         -2   -1    0    0    0  501 -0.00000000000E+00 -0.00000000000E+00 -0.18975512257E+03  0.18975512258E+03  0.25500000000E-02 0. -1.
    5000001    1    1    2    0    0 -0.15577438301E+03  0.37742743623E+02 -0.23400944937E+02  0.24815675957E+03  0.18800000000E+03 0.  0.
   -5000001    1    1    2    0    0  0.15577438301E+03 -0.37742743623E+02  0.22871357064E+03  0.33666611130E+03  0.18800000000E+03 0.  0.
<mgrwt>
<rscale>  0 0.54759886E+03</rscale>
<asrwt>0</asrwt>
<pdfrwt beam="1">  1        2 0.56438249E-01 0.54759886E+03</pdfrwt>
<pdfrwt beam="2">  1       -2 0.27107875E-01 0.54759886E+03</pdfrwt>
<totfact> 0.10854686E+03</totfact>
</mgrwt>
</event>
<event>
 4    1  0.5886875E-005  0.7350893E+03  0.7818608E-02  0.9659038E-01
          2   -1    0    0  501    0  0.00000000000E+00  0.00000000000E+00  0.18490394203E+04  0.18490394203E+04  0.25500000000E-02 0.  1.
         -2   -1    0    0    0  501 -0.00000000000E+00 -0.00000000000E+00 -0.73059045236E+02  0.73059045281E+02  0.25500000000E-02 0. -1.
    5000001    1    1    2    0    0 -0.26458018820E+03 -0.16617607522E+03  0.76737271702E+03  0.84960111276E+03  0.18800000000E+03 0.  0.
   -5000001    1    1    2    0    0  0.26458018820E+03  0.16617607522E+03  0.10086076581E+04  0.10724973529E+04  0.18800000000E+03 0.  0.
<mgrwt>
<rscale>  0 0.73508926E+03</rscale>
<asrwt>0</asrwt>
<pdfrwt beam="1">  1        2 0.26414845E+00 0.73508926E+03</pdfrwt>
<pdfrwt beam="2">  1       -2 0.10437008E-01 0.73508926E+03</pdfrwt>
<totfact> 0.62515983E+02</totfact>
</mgrwt>
</event>
<event>
 4    1  0.5886875E-005  0.7793054E+03  0.7818608E-02  0.9590464E-01
          2   -1    0    0  501    0  0.00000000000E+00  0.00000000000E+00  0.55370373273E+03  0.55370373273E+03  0.25500000000E-02 0.  1.
         -2   -1    0    0    0  501 -0.00000000000E+00 -0.00000000000E+00 -0.27420661815E+03  0.27420661816E+03  0.25500000000E-02 0. -1.
    5000001    1    1    2    0    0 -0.28762868778E+03  0.17885970894E+03  0.18437023578E+03  0.42901916199E+03  0.18800000000E+03 0.  0.
   -5000001    1    1    2    0    0  0.28762868778E+03 -0.17885970894E+03  0.95126878799E+02  0.39889118890E+03  0.18800000000E+03 0.  0.
<mgrwt>
<rscale>  0 0.77930540E+03</rscale>
<asrwt>0</asrwt>
<pdfrwt beam="1">  1        2 0.79100533E-01 0.77930540E+03</pdfrwt>
<pdfrwt beam="2">  1       -2 0.39172374E-01 0.77930540E+03</pdfrwt>
<totfact> 0.36942246E+02</totfact>
</mgrwt>
</event>
<event>
 4    1  0.5886875E-005  0.5031855E+03  0.7818608E-02  0.1012951E+00
         -2   -1    0    0    0  501 -0.00000000000E+00  0.00000000000E+00  0.16521837277E+03  0.16521837279E+03  0.25500000000E-02 0. -1.
          2   -1    0    0  501    0  0.00000000000E+00 -0.00000000000E+00 -0.38312277766E+03  0.38312277767E+03  0.25500000000E-02 0.  1.
    5000001    1    1    2    0    0 -0.62628893802E+02  0.22342639102E+02 -0.27612459726E+03  0.34060294343E+03  0.18800000000E+03 0.  0.
   -5000001    1    1    2    0    0  0.62628893802E+02 -0.22342639102E+02  0.58220192360E+02  0.20773820703E+03  0.18800000000E+03 0.  0.
<mgrwt>
<rscale>  0 0.50318554E+03</rscale>
<asrwt>0</asrwt>
<pdfrwt beam="1">  1        2 0.54731825E-01 0.50318554E+03</pdfrwt>
<pdfrwt beam="2">  1       -2 0.23602625E-01 0.50318554E+03</pdfrwt>
<totfact> 0.14395413E+03</totfact>
</mgrwt>
</event>
<event>
 4    1  0.5886875E-005  0.6455806E+03  0.7818608E-02  0.9815107E-01
         -2   -1    0    0    0  501 -0.00000000000E+00  0.00000000000E+00  0.71343865128E+03  0.71343865128E+03  0.25500000000E-02 0. -1.
          2   -1    0    0  501    0  0.00000000000E+00 -0.00000000000E+00 -0.14604418803E+03  0.14604418805E+03  0.25500000000E-02 0.  1.
    5000001    1    1    2    0    0 -0.35285178689E+02  0.23023073007E+03  0.44455366327E+03  0.53593207819E+03  0.18800000000E+03 0.  0.
   -5000001    1    1    2    0    0  0.35285178689E+02 -0.23023073007E+03  0.12284079997E+03  0.32355076115E+03  0.18800000000E+03 0.  0.
<mgrwt>
<rscale>  0 0.64558057E+03</rscale>
<asrwt>0</asrwt>
<pdfrwt beam="1">  1        2 0.20863455E-01 0.64558057E+03</pdfrwt>
<pdfrwt beam="2">  1       -2 0.10191981E+00 0.64558057E+03</pdfrwt>
<totfact> 0.21584578E+02</totfact>
</mgrwt>
</event>
<event>
 4    1  0.5886875E-005  0.6038236E+03  0.7818608E-02  0.9897505E-01
          2   -1    0    0  501    0  0.00000000000E+00  0.00000000000E+00  0.25034555204E+04  0.25034555204E+04  0.25500000000E-02 0.  1.
         -2   -1    0    0    0  501 -0.00000000000E+00 -0.00000000000E+00 -0.36409969398E+02  0.36409969487E+02  0.25500000000E-02 0. -1.
    5000001    1    1    2    0    0 -0.13303462722E+03  0.67989718933E+02  0.20032410101E+04  0.20175825531E+04  0.18800000000E+03 0.  0.
   -5000001    1    1    2    0    0  0.13303462722E+03 -0.67989718933E+02  0.46380454085E+03  0.52228293676E+03  0.18800000000E+03 0.  0.
<mgrwt>
<rscale>  0 0.60382361E+03</rscale>
<asrwt>0</asrwt>
<pdfrwt beam="1">  1        2 0.35763657E+00 0.60382361E+03</pdfrwt>
<pdfrwt beam="2">  1       -2 0.52014233E-02 0.60382361E+03</pdfrwt>
<totfact> 0.88931530E+02</totfact>
</mgrwt>
</event>
<event>
 4    1  0.5886875E-005  0.5938202E+03  0.7818608E-02  0.9918311E-01
         -2   -1    0    0    0  501 -0.00000000000E+00  0.00000000000E+00  0.78918969101E+02  0.78918969142E+02  0.25500000000E-02 0. -1.
          2   -1    0    0  501    0  0.00000000000E+00 -0.00000000000E+00 -0.11170394466E+04  0.11170394466E+04  0.25500000000E-02 0.  1.
    5000001    1    1    2    0    0 -0.10890408075E+03  0.18775332676E+03 -0.36700344313E+03  0.46599027649E+03  0.18800000000E+03 0.  0.
   -5000001    1    1    2    0    0  0.10890408075E+03 -0.18775332676E+03 -0.67111703441E+03  0.72996813930E+03  0.18800000000E+03 0.  0.
<mgrwt>
<rscale>  0 0.59382018E+03</rscale>
<asrwt>0</asrwt>
<pdfrwt beam="1">  1        2 0.15957705E+00 0.59382018E+03</pdfrwt>
<pdfrwt beam="2">  1       -2 0.11274139E-01 0.59382018E+03</pdfrwt>
<totfact> 0.13553979E+03</totfact>
</mgrwt>
</event>
<event>
 4    1  0.5886875E-005  0.6696416E+03  0.7818608E-02  0.9770606E-01
          2   -1    0    0  501    0  0.00000000000E+00  0.00000000000E+00  0.63536090642E+03  0.63536090643E+03  0.25500000000E-02 0.  1.
         -2   -1    0    0    0  501 -0.00000000000E+00 -0.00000000000E+00 -0.17644295071E+03  0.17644295073E+03  0.25500000000E-02 0. -1.
    5000001    1    1    2    0    0  0.12647198446E+03  0.13256992075E+03 -0.22485808583E+02  0.26347591603E+03  0.18800000000E+03 0.  0.
   -5000001    1    1    2    0    0 -0.12647198446E+03 -0.13256992075E+03  0.48140376430E+03  0.54832794113E+03  0.18800000000E+03 0.  0.
<mgrwt>
<rscale>  0 0.66964156E+03</rscale>
<asrwt>0</asrwt>
<pdfrwt beam="1">  1        2 0.90765844E-01 0.66964156E+03</pdfrwt>
<pdfrwt beam="2">  1       -2 0.25206136E-01 0.66964156E+03</pdfrwt>
<totfact> 0.71798630E+02</totfact>
</mgrwt>
</event>
<event>
 4    1  0.5886875E-005  0.5189992E+03  0.7818608E-02  0.1008935E+00
         -2   -1    0    0    0  501 -0.00000000000E+00  0.00000000000E+00  0.19229192110E+03  0.19229192112E+03  0.25500000000E-02 0. -1.
          2   -1    0    0  501    0  0.00000000000E+00 -0.00000000000E+00 -0.35019688843E+03  0.35019688844E+03  0.25500000000E-02 0.  1.
    5000001    1    1    2    0    0 -0.14543752361E+03 -0.10389902575E+03 -0.71639279930E+02  0.26911571350E+03  0.18800000000E+03 0.  0.
   -5000001    1    1    2    0    0  0.14543752361E+03  0.10389902575E+03 -0.86265687397E+02  0.27337309606E+03  0.18800000000E+03 0.  0.
<mgrwt>
<rscale>  0 0.51899916E+03</rscale>
<asrwt>0</asrwt>
<pdfrwt beam="1">  1        2 0.50028127E-01 0.51899916E+03</pdfrwt>
<pdfrwt beam="2">  1       -2 0.27470275E-01 0.51899916E+03</pdfrwt>
<totfact> 0.12105457E+03</totfact>
</mgrwt>
</event>
<event>
 4    1  0.5886875E-005  0.5014498E+03  0.7818608E-02  0.1013401E+00
          2   -1    0    0  501    0  0.00000000000E+00  0.00000000000E+00  0.10210755587E+03  0.10210755590E+03  0.25500000000E-02 0.  1.
         -2   -1    0    0    0  501 -0.00000000000E+00 -0.00000000000E+00 -0.61565447791E+03  0.61565447792E+03  0.25500000000E-02 0. -1.
    5000001    1    1    2    0    0 -0.99668241004E+02  0.13240407159E+03 -0.26732857548E+03  0.36643302759E+03  0.18800000000E+03 0.  0.
   -5000001    1    1    2    0    0  0.99668241004E+02 -0.13240407159E+03 -0.24621834656E+03  0.35132900623E+03  0.18800000000E+03 0.  0.
<mgrwt>
<rscale>  0 0.50144979E+03</rscale>
<asrwt>0</asrwt>
<pdfrwt beam="1">  1        2 0.14586794E-01 0.50144979E+03</pdfrwt>
<pdfrwt beam="2">  1       -2 0.87950638E-01 0.50144979E+03</pdfrwt>
<totfact> 0.46667042E+02</totfact>
</mgrwt>
</event>
<event>
 4    1  0.5886875E-005  0.4433696E+03  0.7818608E-02  0.1029718E+00
          2   -1    0    0  501    0  0.00000000000E+00  0.00000000000E+00  0.96451763788E+03  0.96451763788E+03  0.25500000000E-02 0.  1.
         -2   -1    0    0    0  501 -0.00000000000E+00 -0.00000000000E+00 -0.50952041991E+02  0.50952042055E+02  0.25500000000E-02 0. -1.
    5000001    1    1    2    0    0 -0.24302846952E+02  0.64929763740E+02  0.67398731165E+03  0.70314251675E+03  0.18800000000E+03 0.  0.
   -5000001    1    1    2    0    0  0.24302846952E+02 -0.64929763740E+02  0.23957828423E+03  0.31232716319E+03  0.18800000000E+03 0.  0.
<mgrwt>
<rscale>  0 0.44336957E+03</rscale>
<asrwt>0</asrwt>
<pdfrwt beam="1">  1        2 0.13778823E+00 0.44336957E+03</pdfrwt>
<pdfrwt beam="2">  1       -2 0.72788632E-02 0.44336957E+03</pdfrwt>
<totfact> 0.33713555E+03</totfact>
</mgrwt>
</event>
<event>
 4    1  0.5886875E-005  0.4103175E+03  0.7818608E-02  0.1040264E+00
         -2   -1    0    0    0  501 -0.00000000000E+00  0.00000000000E+00  0.49822734570E+02  0.49822734635E+02  0.25500000000E-02 0. -1.
          2   -1    0    0  501    0  0.00000000000E+00 -0.00000000000E+00 -0.84479751514E+03  0.84479751514E+03  0.25500000000E-02 0.  1.
    5000001    1    1    2    0    0 -0.22764126423E+01  0.80813627335E+02 -0.36588429886E+03  0.41922707996E+03  0.18800000000E+03 0.  0.
   -5000001    1    1    2    0    0  0.22764126423E+01 -0.80813627335E+02 -0.42909048171E+03  0.47539316982E+03  0.18800000000E+03 0.  0.
<mgrwt>
<rscale>  0 0.41031755E+03</rscale>
<asrwt>0</asrwt>
<pdfrwt beam="1">  1        2 0.12068535E+00 0.41031755E+03</pdfrwt>
<pdfrwt beam="2">  1       -2 0.71175340E-02 0.41031755E+03</pdfrwt>
<totfact> 0.41580860E+03</totfact>
</mgrwt>
</event>
<event>
 4    1  0.5886875E-005  0.6669806E+03  0.7818608E-02  0.9775428E-01
          2   -1    0    0  501    0  0.00000000000E+00  0.00000000000E+00  0.17103452736E+04  0.17103452736E+04  0.25500000000E-02 0.  1.
         -2   -1    0    0    0  501 -0.00000000000E+00 -0.00000000000E+00 -0.65025340621E+02  0.65025340671E+02  0.25500000000E-02 0. -1.
    5000001    1    1    2    0    0  0.27350322681E+03  0.26826757848E+02  0.87232195488E+03  0.93370942106E+03  0.18800000000E+03 0.  0.
   -5000001    1    1    2    0    0 -0.27350322681E+03 -0.26826757848E+02  0.77299797810E+03  0.84166119321E+03  0.18800000000E+03 0.  0.
<mgrwt>
<rscale>  0 0.66698061E+03</rscale>
<asrwt>0</asrwt>
<pdfrwt beam="1">  1        2 0.24433506E+00 0.66698061E+03</pdfrwt>
<pdfrwt beam="2">  1       -2 0.92893335E-02 0.66698061E+03</pdfrwt>
<totfact> 0.89180471E+02</totfact>
</mgrwt>
</event>
<event>
 4    1  0.5886875E-005  0.6503326E+03  0.7818608E-02  0.9806155E-01
          2   -1    0    0  501    0  0.00000000000E+00  0.00000000000E+00  0.19293494838E+04  0.19293494838E+04  0.25500000000E-02 0.  1.
         -2   -1    0    0    0  501 -0.00000000000E+00 -0.00000000000E+00 -0.54802477214E+02  0.54802477273E+02  0.25500000000E-02 0. -1.
    5000001    1    1    2    0    0 -0.14997509956E+03  0.19426189061E+03  0.62976075310E+03  0.70155029669E+03  0.18800000000E+03 0.  0.
   -5000001    1    1    2    0    0  0.14997509956E+03 -0.19426189061E+03  0.12447862535E+04  0.12826016644E+04  0.18800000000E+03 0.  0.
<mgrwt>
<rscale>  0 0.65033263E+03</rscale>
<asrwt>0</asrwt>
<pdfrwt beam="1">  1        2 0.27562133E+00 0.65033263E+03</pdfrwt>
<pdfrwt beam="2">  1       -2 0.78289261E-02 0.65033263E+03</pdfrwt>
<totfact> 0.90972103E+02</totfact>
</mgrwt>
</event>
<event>
 4    1  0.5886875E-005  0.9192668E+03  0.7818608E-02  0.9401812E-01
         -2   -1    0    0    0  501 -0.00000000000E+00  0.00000000000E+00  0.73335830565E+02  0.73335830609E+02  0.25500000000E-02 0.  1.
          2   -1    0    0  501    0  0.00000000000E+00 -0.00000000000E+00 -0.28807590513E+04  0.28807590513E+04  0.25500000000E-02 0. -1.
    5000001    1    1    2    0    0 -0.38831020987E+03  0.15747257188E+03 -0.13447690785E+04  0.14210314227E+04  0.18800000000E+03 0.  0.
   -5000001    1    1    2    0    0  0.38831020987E+03 -0.15747257188E+03 -0.14626541423E+04  0.15330634592E+04  0.18800000000E+03 0.  0.
<mgrwt>
<rscale>  0 0.91926679E+03</rscale>
<asrwt>0</asrwt>
<pdfrwt beam="1">  1        2 0.41153694E+00 0.91926679E+03</pdfrwt>
<pdfrwt beam="2">  1       -2 0.10476549E-01 0.91926679E+03</pdfrwt>
<totfact> 0.17948325E+02</totfact>
</mgrwt>
</event>
<event>
 4    1  0.5886875E-005  0.4955624E+03  0.7818608E-02  0.1014944E+00
          2   -1    0    0  501    0  0.00000000000E+00  0.00000000000E+00  0.11613662621E+04  0.11613662621E+04  0.25500000000E-02 0.  1.
         -2   -1    0    0    0  501 -0.00000000000E+00 -0.00000000000E+00 -0.52864911368E+02  0.52864911429E+02  0.25500000000E-02 0. -1.
    5000001    1    1    2    0    0 -0.43223627346E+02  0.12854147135E+03  0.76870106656E+03  0.80289259652E+03  0.18800000000E+03 0.  0.
   -5000001    1    1    2    0    0  0.43223627346E+02 -0.12854147135E+03  0.33980028419E+03  0.41133857703E+03  0.18800000000E+03 0.  0.
<mgrwt>
<rscale>  0 0.49556241E+03</rscale>
<asrwt>0</asrwt>
<pdfrwt beam="1">  1        2 0.16590946E+00 0.49556241E+03</pdfrwt>
<pdfrwt beam="2">  1       -2 0.75521303E-02 0.49556241E+03</pdfrwt>
<totfact> 0.24387673E+03</totfact>
</mgrwt>
</event>
<event>
 4    1  0.5886875E-005  0.6405234E+03  0.7818608E-02  0.9824726E-01
          2   -1    0    0  501    0  0.00000000000E+00  0.00000000000E+00  0.40029589700E+03  0.40029589701E+03  0.25500000000E-02 0.  1.
         -2   -1    0    0    0  501 -0.00000000000E+00 -0.00000000000E+00 -0.25622932409E+03  0.25622932410E+03  0.25500000000E-02 0. -1.
    5000001    1    1    2    0    0  0.12361448277E+03  0.43960888334E+02  0.30125027510E+03  0.37856152512E+03  0.18800000000E+03 0.  0.
   -5000001    1    1    2    0    0 -0.12361448277E+03 -0.43960888334E+02 -0.15718370219E+03  0.27796369599E+03  0.18800000000E+03 0.  0.
<mgrwt>
<rscale>  0 0.64052337E+03</rscale>
<asrwt>0</asrwt>
<pdfrwt beam="1">  1        2 0.57185128E-01 0.64052337E+03</pdfrwt>
<pdfrwt beam="2">  1       -2 0.36604189E-01 0.64052337E+03</pdfrwt>
<totfact> 0.61080598E+02</totfact>
</mgrwt>
</event>
<event>
 4    1  0.5886875E-005  0.1196705E+04  0.7818608E-02  0.9115745E-01
         -2   -1    0    0    0  501 -0.00000000000E+00  0.00000000000E+00  0.19658808710E+03  0.19658808711E+03  0.25500000000E-02 0. -1.
          2   -1    0    0  501    0  0.00000000000E+00 -0.00000000000E+00 -0.18211986987E+04  0.18211986987E+04  0.25500000000E-02 0.  1.
    5000001    1    1    2    0    0  0.49311071394E+03  0.24361865109E+03 -0.10517919386E+04  0.12017148187E+04  0.18800000000E+03 0.  0.
   -5000001    1    1    2    0    0 -0.49311071394E+03 -0.24361865109E+03 -0.57281867294E+03  0.81607196706E+03  0.18800000000E+03 0.  0.
<mgrwt>
<rscale>  0 0.11967054E+04</rscale>
<asrwt>0</asrwt>
<pdfrwt beam="1">  1        2 0.26017123E+00 0.11967054E+04</pdfrwt>
<pdfrwt beam="2">  1       -2 0.28084013E-01 0.11967054E+04</pdfrwt>
<totfact> 0.11349911E+02</totfact>
</mgrwt>
</event>
<event>
 4    1  0.5886875E-005  0.4619964E+03  0.7818608E-02  0.1024204E+00
          2   -1    0    0  501    0  0.00000000000E+00  0.00000000000E+00  0.47077065463E+03  0.47077065464E+03  0.25500000000E-02 0.  1.
         -2   -1    0    0    0  501 -0.00000000000E+00 -0.00000000000E+00 -0.11334640124E+03  0.11334640127E+03  0.25500000000E-02 0. -1.
    5000001    1    1    2    0    0 -0.62137879505E+02 -0.11871486321E+03  0.18865340800E+03  0.29814164950E+03  0.18800000000E+03 0.  0.
   -5000001    1    1    2    0    0  0.62137879505E+02  0.11871486321E+03  0.16877084539E+03  0.28597540641E+03  0.18800000000E+03 0.  0.
<mgrwt>
<rscale>  0 0.46199636E+03</rscale>
<asrwt>0</asrwt>
<pdfrwt beam="1">  1        2 0.67252951E-01 0.46199636E+03</pdfrwt>
<pdfrwt beam="2">  1       -2 0.16192343E-01 0.46199636E+03</pdfrwt>
<totfact> 0.21962714E+03</totfact>
</mgrwt>
</event>
<event>
 4    1  0.5886875E-005  0.5061696E+03  0.7818608E-02  0.1012181E+00
          2   -1    0    0  501    0  0.00000000000E+00  0.00000000000E+00  0.10096915691E+04  0.10096915691E+04  0.25500000000E-02 0.  1.
         -2   -1    0    0    0  501 -0.00000000000E+00 -0.00000000000E+00 -0.63437117868E+02  0.63437117919E+02  0.25500000000E-02 0. -1.
    5000001    1    1    2    0    0  0.77035009054E+02 -0.13319595062E+03  0.32272925674E+03  0.40394767859E+03  0.18800000000E+03 0.  0.
   -5000001    1    1    2    0    0 -0.77035009054E+02  0.13319595062E+03  0.62352519452E+03  0.66918100846E+03  0.18800000000E+03 0.  0.
<mgrwt>
<rscale>  0 0.50616963E+03</rscale>
<asrwt>0</asrwt>
<pdfrwt beam="1">  1        2 0.14424164E+00 0.50616963E+03</pdfrwt>
<pdfrwt beam="2">  1       -2 0.90624461E-02 0.50616963E+03</pdfrwt>
<totfact> 0.22358379E+03</totfact>
</mgrwt>
</event>
<event>
 4    1  0.5886875E-005  0.5022297E+03  0.7818608E-02  0.1013199E+00
          2   -1    0    0  501    0  0.00000000000E+00  0.00000000000E+00  0.91479552694E+03  0.91479552694E+03  0.25500000000E-02 0.  1.
         -2   -1    0    0    0  501 -0.00000000000E+00 -0.00000000000E+00 -0.68931989657E+02  0.68931989705E+02  0.25500000000E-02 0. -1.
    5000001    1    1    2    0    0  0.15725672472E+03 -0.52734487023E+02  0.45091284138E+03  0.51592343823E+03  0.18800000000E+03 0.  0.
   -5000001    1    1    2    0    0 -0.15725672472E+03  0.52734487023E+02  0.39495069590E+03  0.46780407842E+03  0.18800000000E+03 0.  0.
<mgrwt>
<rscale>  0 0.50222973E+03</rscale>
<asrwt>0</asrwt>
<pdfrwt beam="1">  1        2 0.13068507E+00 0.50222973E+03</pdfrwt>
<pdfrwt beam="2">  1       -2 0.98474277E-02 0.50222973E+03</pdfrwt>
<totfact> 0.22393655E+03</totfact>
</mgrwt>
</event>
<event>
 4    1  0.5886875E-005  0.6012892E+03  0.7818608E-02  0.9902735E-01
          2   -1    0    0  501    0  0.00000000000E+00  0.00000000000E+00  0.53283995219E+03  0.53283995219E+03  0.25500000000E-02 0.  1.
         -2   -1    0    0    0  501 -0.00000000000E+00 -0.00000000000E+00 -0.16963286795E+03  0.16963286797E+03  0.25500000000E-02 0. -1.
    5000001    1    1    2    0    0 -0.22651315344E+03 -0.73853374007E+01  0.11072828090E+03  0.31459101081E+03  0.18800000000E+03 0.  0.
   -5000001    1    1    2    0    0  0.22651315344E+03  0.73853374007E+01  0.25247880333E+03  0.38788180935E+03  0.18800000000E+03 0.  0.
<mgrwt>
<rscale>  0 0.60128918E+03</rscale>
<asrwt>0</asrwt>
<pdfrwt beam="1">  1        2 0.76119993E-01 0.60128918E+03</pdfrwt>
<pdfrwt beam="2">  1       -2 0.24233267E-01 0.60128918E+03</pdfrwt>
<totfact> 0.94817369E+02</totfact>
</mgrwt>
</event>
<event>
 4    1  0.5886875E-005  0.5237372E+03  0.7818608E-02  0.1007762E+00
         -2   -1    0    0    0  501 -0.00000000000E+00  0.00000000000E+00  0.62412644971E+02  0.62412645023E+02  0.25500000000E-02 0. -1.
          2   -1    0    0  501    0  0.00000000000E+00 -0.00000000000E+00 -0.10987385040E+04  0.10987385040E+04  0.25500000000E-02 0.  1.
    5000001    1    1    2    0    0 -0.12986360276E+03 -0.10949793998E+03 -0.37148838854E+03  0.44966874141E+03  0.18800000000E+03 0.  0.
   -5000001    1    1    2    0    0  0.12986360276E+03  0.10949793998E+03 -0.66483747051E+03  0.71148240764E+03  0.18800000000E+03 0.  0.
<mgrwt>
<rscale>  0 0.52373725E+03</rscale>
<asrwt>0</asrwt>
<pdfrwt beam="1">  1        2 0.15696263E+00 0.52373725E+03</pdfrwt>
<pdfrwt beam="2">  1       -2 0.89160928E-02 0.52373725E+03</pdfrwt>
<totfact> 0.20330052E+03</totfact>
</mgrwt>
</event>
<event>
 4    1  0.5886875E-005  0.5336562E+03  0.7818608E-02  0.1005349E+00
         -2   -1    0    0    0  501 -0.00000000000E+00  0.00000000000E+00  0.40199112942E+02  0.40199113023E+02  0.25500000000E-02 0. -1.
          2   -1    0    0  501    0  0.00000000000E+00 -0.00000000000E+00 -0.17711148793E+04  0.17711148793E+04  0.25500000000E-02 0.  1.
    5000001    1    1    2    0    0 -0.48627241902E+02 -0.15977919965E+03 -0.56264935302E+03  0.61628913324E+03  0.18800000000E+03 0.  0.
   -5000001    1    1    2    0    0  0.48627241902E+02  0.15977919965E+03 -0.11682664133E+04  0.11950248591E+04  0.18800000000E+03 0.  0.
<mgrwt>
<rscale>  0 0.53365625E+03</rscale>
<asrwt>0</asrwt>
<pdfrwt beam="1">  1        2 0.25301636E+00 0.53365625E+03</pdfrwt>
<pdfrwt beam="2">  1       -2 0.57427315E-02 0.53365625E+03</pdfrwt>
<totfact> 0.17909105E+03</totfact>
</mgrwt>
</event>
<event>
 4    1  0.5886875E-005  0.5058426E+03  0.7818608E-02  0.1012265E+00
         -2   -1    0    0    0  501 -0.00000000000E+00  0.00000000000E+00  0.56617674274E+02  0.56617674332E+02  0.25500000000E-02 0. -1.
          2   -1    0    0  501    0  0.00000000000E+00 -0.00000000000E+00 -0.11298448828E+04  0.11298448828E+04  0.25500000000E-02 0.  1.
    5000001    1    1    2    0    0  0.13614645440E+03 -0.78827716333E+02 -0.39059647206E+03  0.46114994297E+03  0.18800000000E+03 0.  0.
   -5000001    1    1    2    0    0 -0.13614645440E+03  0.78827716333E+02 -0.68263073646E+03  0.72531261417E+03  0.18800000000E+03 0.  0.
<mgrwt>
<rscale>  0 0.50584262E+03</rscale>
<asrwt>0</asrwt>
<pdfrwt beam="1">  1        2 0.16140640E+00 0.50584262E+03</pdfrwt>
<pdfrwt beam="2">  1       -2 0.80882399E-02 0.50584262E+03</pdfrwt>
<totfact> 0.22794087E+03</totfact>
</mgrwt>
</event>
<event>
 4    1  0.5886875E-005  0.4570117E+03  0.7818608E-02  0.1025651E+00
          2   -1    0    0  501    0  0.00000000000E+00  0.00000000000E+00  0.25570806547E+03  0.25570806548E+03  0.25500000000E-02 0.  1.
         -2   -1    0    0    0  501 -0.00000000000E+00 -0.00000000000E+00 -0.20419739419E+03  0.20419739420E+03  0.25500000000E-02 0. -1.
    5000001    1    1    2    0    0  0.88735867029E+02  0.64126607592E+02  0.96088110210E+02  0.23783019325E+03  0.18800000000E+03 0.  0.
   -5000001    1    1    2    0    0 -0.88735867029E+02 -0.64126607592E+02 -0.44577438930E+02  0.22207526643E+03  0.18800000000E+03 0.  0.
<mgrwt>
<rscale>  0 0.45701169E+03</rscale>
<asrwt>0</asrwt>
<pdfrwt beam="1">  1        2 0.36529724E-01 0.45701169E+03</pdfrwt>
<pdfrwt beam="2">  1       -2 0.29171056E-01 0.45701169E+03</pdfrwt>
<totfact> 0.15318298E+03</totfact>
</mgrwt>
</event>
<event>
 4    1  0.5886875E-005  0.5719280E+03  0.7818608E-02  0.9965421E-01
         -2   -1    0    0    0  501 -0.00000000000E+00  0.00000000000E+00  0.13730656227E+03  0.13730656230E+03  0.25500000000E-02 0. -1.
          2   -1    0    0  501    0  0.00000000000E+00 -0.00000000000E+00 -0.59556819606E+03  0.59556819606E+03  0.25500000000E-02 0.  1.
    5000001    1    1    2    0    0  0.19406927514E+03  0.79717598982E+02 -0.16617659769E+03  0.32707253135E+03  0.18800000000E+03 0.  0.
   -5000001    1    1    2    0    0 -0.19406927514E+03 -0.79717598982E+02 -0.29208503609E+03  0.40580222701E+03  0.18800000000E+03 0.  0.
<mgrwt>
<rscale>  0 0.57192804E+03</rscale>
<asrwt>0</asrwt>
<pdfrwt beam="1">  1        2 0.85081170E-01 0.57192804E+03</pdfrwt>
<pdfrwt beam="2">  1       -2 0.19615223E-01 0.57192804E+03</pdfrwt>
<totfact> 0.12094732E+03</totfact>
</mgrwt>
</event>
<event>
 4    1  0.5886875E-005  0.4612498E+03  0.7818608E-02  0.1024419E+00
          2   -1    0    0  501    0  0.00000000000E+00  0.00000000000E+00  0.63757877363E+03  0.63757877364E+03  0.25500000000E-02 0.  1.
         -2   -1    0    0    0  501 -0.00000000000E+00 -0.00000000000E+00 -0.83421596378E+02  0.83421596417E+02  0.25500000000E-02 0. -1.
    5000001    1    1    2    0    0  0.10429760320E+03  0.46898774019E+02  0.38499623626E+03  0.44344513412E+03  0.18800000000E+03 0.  0.
   -5000001    1    1    2    0    0 -0.10429760320E+03 -0.46898774019E+02  0.16916094100E+03  0.27755523594E+03  0.18800000000E+03 0.  0.
<mgrwt>
<rscale>  0 0.46124978E+03</rscale>
<asrwt>0</asrwt>
<pdfrwt beam="1">  1        2 0.91082683E-01 0.46124978E+03</pdfrwt>
<pdfrwt beam="2">  1       -2 0.11917371E-01 0.46124978E+03</pdfrwt>
<totfact> 0.25803407E+03</totfact>
</mgrwt>
</event>
<event>
 4    1  0.5886875E-005  0.3989162E+03  0.7818608E-02  0.1044156E+00
          2   -1    0    0  501    0  0.00000000000E+00  0.00000000000E+00  0.35838387632E+02  0.35838387723E+02  0.25500000000E-02 0.  1.
         -2   -1    0    0    0  501 -0.00000000000E+00 -0.00000000000E+00 -0.11100816315E+04  0.11100816315E+04  0.25500000000E-02 0. -1.
    5000001    1    1    2    0    0 -0.15220338407E+02  0.52932771773E+02 -0.64483387301E+03  0.67393490843E+03  0.18800000000E+03 0.  0.
   -5000001    1    1    2    0    0  0.15220338407E+02 -0.52932771773E+02 -0.42940937090E+03  0.47198511083E+03  0.18800000000E+03 0.  0.
<mgrwt>
<rscale>  0 0.39891621E+03</rscale>
<asrwt>0</asrwt>
<pdfrwt beam="1">  1        2 0.51197703E-02 0.39891621E+03</pdfrwt>
<pdfrwt beam="2">  1       -2 0.15858307E+00 0.39891621E+03</pdfrwt>
<totfact> 0.41947075E+02</totfact>
</mgrwt>
</event>
<event>
 4    1  0.5886875E-005  0.1688921E+04  0.7818608E-02  0.8767708E-01
         -2   -1    0    0    0  501 -0.00000000000E+00  0.00000000000E+00  0.85348295709E+03  0.85348295709E+03  0.25500000000E-02 0. -1.
          2   -1    0    0  501    0  0.00000000000E+00 -0.00000000000E+00 -0.83553385193E+03  0.83553385194E+03  0.25500000000E-02 0.  1.
    5000001    1    1    2    0    0 -0.66869625414E+03  0.46729020837E+03 -0.10173437984E+03  0.84333190570E+03  0.18800000000E+03 0.  0.
   -5000001    1    1    2    0    0  0.66869625414E+03 -0.46729020837E+03  0.11968348499E+03  0.84568490333E+03  0.18800000000E+03 0.  0.
<mgrwt>
<rscale>  0 0.16889214E+04</rscale>
<asrwt>0</asrwt>
<pdfrwt beam="1">  1        2 0.11936198E+00 0.16889214E+04</pdfrwt>
<pdfrwt beam="2">  1       -2 0.12192614E+00 0.16889214E+04</pdfrwt>
<totfact> 0.17501973E+01</totfact>
</mgrwt>
</event>
<event>
 4    1  0.5886875E-005  0.4425346E+03  0.7818608E-02  0.1029972E+00
         -2   -1    0    0    0  501 -0.00000000000E+00  0.00000000000E+00  0.38498628660E+02  0.38498628744E+02  0.25500000000E-02 0. -1.
          2   -1    0    0  501    0  0.00000000000E+00 -0.00000000000E+00 -0.12717130453E+04  0.12717130453E+04  0.25500000000E-02 0.  1.
    5000001    1    1    2    0    0 -0.35612191526E+02  0.51358496713E+02 -0.32487263527E+03  0.38051564031E+03  0.18800000000E+03 0.  0.
   -5000001    1    1    2    0    0  0.35612191526E+02 -0.51358496713E+02 -0.90834178134E+03  0.92969603371E+03  0.18800000000E+03 0.  0.
<mgrwt>
<rscale>  0 0.44253456E+03</rscale>
<asrwt>0</asrwt>
<pdfrwt beam="1">  1        2 0.18167327E+00 0.44253456E+03</pdfrwt>
<pdfrwt beam="2">  1       -2 0.54998049E-02 0.44253456E+03</pdfrwt>
<totfact> 0.34798940E+03</totfact>
</mgrwt>
</event>
<event>
 4    1  0.5886875E-005  0.4441458E+03  0.7818608E-02  0.1029482E+00
          2   -1    0    0  501    0  0.00000000000E+00  0.00000000000E+00  0.67845916057E+02  0.67845916105E+02  0.25500000000E-02 0.  1.
         -2   -1    0    0    0  501 -0.00000000000E+00 -0.00000000000E+00 -0.72688775935E+03  0.72688775935E+03  0.25500000000E-02 0. -1.
    5000001    1    1    2    0    0  0.80180854161E+02 -0.48836322857E+02 -0.45803598094E+03  0.50393939680E+03  0.18800000000E+03 0.  0.
   -5000001    1    1    2    0    0 -0.80180854161E+02  0.48836322857E+02 -0.20100586235E+03  0.29079427866E+03  0.18800000000E+03 0.  0.
<mgrwt>
<rscale>  0 0.44414577E+03</rscale>
<asrwt>0</asrwt>
<pdfrwt beam="1">  1        2 0.96922741E-02 0.44414577E+03</pdfrwt>
<pdfrwt beam="2">  1       -2 0.10384110E+00 0.44414577E+03</pdfrwt>
<totfact> 0.52647739E+02</totfact>
</mgrwt>
</event>
<event>
 4    1  0.5886875E-005  0.5136257E+03  0.7818608E-02  0.1010282E+00
         -2   -1    0    0    0  501 -0.00000000000E+00  0.00000000000E+00  0.61349518799E+02  0.61349518852E+02  0.25500000000E-02 0. -1.
          2   -1    0    0  501    0  0.00000000000E+00 -0.00000000000E+00 -0.10750344962E+04  0.10750344962E+04  0.25500000000E-02 0.  1.
    5000001    1    1    2    0    0  0.13373224663E+03  0.12499072282E+02 -0.75487965177E+03  0.78944780020E+03  0.18800000000E+03 0.  0.
   -5000001    1    1    2    0    0 -0.13373224663E+03 -0.12499072282E+02 -0.25880532563E+03  0.34693621485E+03  0.18800000000E+03 0.  0.
<mgrwt>
<rscale>  0 0.51362574E+03</rscale>
<asrwt>0</asrwt>
<pdfrwt beam="1">  1        2 0.15357635E+00 0.51362574E+03</pdfrwt>
<pdfrwt beam="2">  1       -2 0.87642176E-02 0.51362574E+03</pdfrwt>
<totfact> 0.21572901E+03</totfact>
</mgrwt>
</event>
<event>
 4    1  0.5886875E-005  0.4129515E+03  0.7818608E-02  0.1039385E+00
         -2   -1    0    0    0  501 -0.00000000000E+00  0.00000000000E+00  0.46221530891E+02  0.46221530961E+02  0.25500000000E-02 0. -1.
          2   -1    0    0  501    0  0.00000000000E+00 -0.00000000000E+00 -0.92234563710E+03  0.92234563710E+03  0.25500000000E-02 0.  1.
    5000001    1    1    2    0    0 -0.39497367936E+01  0.82758689428E+02 -0.48633704300E+03  0.52795105880E+03  0.18800000000E+03 0.  0.
   -5000001    1    1    2    0    0  0.39497367936E+01 -0.82758689428E+02 -0.38978706321E+03  0.44061610926E+03  0.18800000000E+03 0.  0.
<mgrwt>
<rscale>  0 0.41295146E+03</rscale>
<asrwt>0</asrwt>
<pdfrwt beam="1">  1        2 0.13176365E+00 0.41295146E+03</pdfrwt>
<pdfrwt beam="2">  1       -2 0.66030764E-02 0.41295146E+03</pdfrwt>
<totfact> 0.41685148E+03</totfact>
</mgrwt>
</event>
<event>
 4    1  0.5886875E-005  0.1052719E+04  0.7818608E-02  0.9252541E-01
          2   -1    0    0  501    0  0.00000000000E+00  0.00000000000E+00  0.12152346025E+04  0.12152346025E+04  0.25500000000E-02 0.  1.
         -2   -1    0    0    0  501 -0.00000000000E+00 -0.00000000000E+00 -0.22798427674E+03  0.22798427676E+03  0.25500000000E-02 0. -1.
    5000001    1    1    2    0    0 -0.11869205818E+03 -0.43906143709E+03  0.74954640098E+03  0.89667527982E+03  0.18800000000E+03 0.  0.
   -5000001    1    1    2    0    0  0.11869205818E+03  0.43906143709E+03  0.23770392473E+03  0.54654359940E+03  0.18800000000E+03 0.  0.
<mgrwt>
<rscale>  0 0.10527191E+04</rscale>
<asrwt>0</asrwt>
<pdfrwt beam="1">  1        2 0.17360494E+00 0.10527191E+04</pdfrwt>
<pdfrwt beam="2">  1       -2 0.32569182E-01 0.10527191E+04</pdfrwt>
<totfact> 0.18283440E+02</totfact>
</mgrwt>
</event>
<event>
 4    1  0.5886875E-005  0.5691542E+03  0.7818608E-02  0.9971552E-01
          2   -1    0    0  501    0  0.00000000000E+00  0.00000000000E+00  0.19012985705E+04  0.19012985705E+04  0.25500000000E-02 0. -1.
         -2   -1    0    0    0  501 -0.00000000000E+00 -0.00000000000E+00 -0.42594109709E+02  0.42594109786E+02  0.25500000000E-02 0.  1.
    5000001    1    1    2    0    0  0.18915054855E+03  0.36971224039E+02  0.61455406734E+03  0.67094374064E+03  0.18800000000E+03 0.  0.
   -5000001    1    1    2    0    0 -0.18915054855E+03 -0.36971224039E+02  0.12441503935E+04  0.12729489397E+04  0.18800000000E+03 0.  0.
<mgrwt>
<rscale>  0 0.56915418E+03</rscale>
<asrwt>0</asrwt>
<pdfrwt beam="1">  1        2 0.27161417E+00 0.56915418E+03</pdfrwt>
<pdfrwt beam="2">  1       -2 0.60848708E-02 0.56915418E+03</pdfrwt>
<totfact> 0.14051649E+03</totfact>
</mgrwt>
</event>
<event>
 4    1  0.5886875E-005  0.4949767E+03  0.7818608E-02  0.1015098E+00
          2   -1    0    0  501    0  0.00000000000E+00  0.00000000000E+00  0.19362786674E+04  0.19362786674E+04  0.25500000000E-02 0.  1.
         -2   -1    0    0    0  501 -0.00000000000E+00 -0.00000000000E+00 -0.31633097455E+02  0.31633097557E+02  0.25500000000E-02 0. -1.
    5000001    1    1    2    0    0 -0.29294779514E+02  0.10074684295E+03  0.14376005360E+04  0.14536324885E+04  0.18800000000E+03 0.  0.
   -5000001    1    1    2    0    0  0.29294779514E+02 -0.10074684295E+03  0.46704503389E+03  0.51427927642E+03  0.18800000000E+03 0.  0.
<mgrwt>
<rscale>  0 0.49497673E+03</rscale>
<asrwt>0</asrwt>
<pdfrwt beam="1">  1        2 0.27661125E+00 0.49497673E+03</pdfrwt>
<pdfrwt beam="2">  1       -2 0.45190138E-02 0.49497673E+03</pdfrwt>
<totfact> 0.21477449E+03</totfact>
</mgrwt>
</event>
<event>
 4    1  0.5886875E-005  0.6836787E+03  0.7818608E-02  0.9745558E-01
         -2   -1    0    0    0  501 -0.00000000000E+00  0.00000000000E+00  0.15006513838E+03  0.15006513840E+03  0.25500000000E-02 0. -1.
          2   -1    0    0  501    0  0.00000000000E+00 -0.00000000000E+00 -0.77868940949E+03  0.77868940950E+03  0.25500000000E-02 0.  1.
    5000001    1    1    2    0    0 -0.26585006857E+03 -0.10995553265E+02 -0.17370611427E+03  0.36920857965E+03  0.18800000000E+03 0.  0.
   -5000001    1    1    2    0    0  0.26585006857E+03  0.10995553265E+02 -0.45491815685E+03  0.55954596825E+03  0.18800000000E+03 0.  0.
<mgrwt>
<rscale>  0 0.68367868E+03</rscale>
<asrwt>0</asrwt>
<pdfrwt beam="1">  1        2 0.11124134E+00 0.68367868E+03</pdfrwt>
<pdfrwt beam="2">  1       -2 0.21437877E-01 0.68367868E+03</pdfrwt>
<totfact> 0.74547710E+02</totfact>
</mgrwt>
</event>
<event>
 4    1  0.5886875E-005  0.7144317E+03  0.7818608E-02  0.9692866E-01
         -2   -1    0    0    0  501 -0.00000000000E+00  0.00000000000E+00  0.60676973197E+02  0.60676973250E+02  0.25500000000E-02 0. -1.
          2   -1    0    0  501    0  0.00000000000E+00 -0.00000000000E+00 -0.21029913911E+04  0.21029913911E+04  0.25500000000E-02 0.  1.
    5000001    1    1    2    0    0  0.28370698641E+03 -0.10396703042E+03 -0.11150097095E+04  0.11704227654E+04  0.18800000000E+03 0.  0.
   -5000001    1    1    2    0    0 -0.28370698641E+03  0.10396703042E+03 -0.92730470841E+03  0.99324559893E+03  0.18800000000E+03 0.  0.
<mgrwt>
<rscale>  0 0.71443167E+03</rscale>
<asrwt>0</asrwt>
<pdfrwt beam="1">  1        2 0.30042730E+00 0.71443167E+03</pdfrwt>
<pdfrwt beam="2">  1       -2 0.86681403E-02 0.71443167E+03</pdfrwt>
<totfact> 0.62923395E+02</totfact>
</mgrwt>
</event>
<event>
 4    1  0.5886875E-005  0.5942653E+03  0.7818608E-02  0.9917376E-01
         -2   -1    0    0    0  501 -0.00000000000E+00  0.00000000000E+00  0.19703324679E+02  0.19703324844E+02  0.25500000000E-02 0. -1.
          2   -1    0    0  501    0  0.00000000000E+00 -0.00000000000E+00 -0.44808592544E+04  0.44808592544E+04  0.25500000000E-02 0.  1.
    5000001    1    1    2    0    0  0.10252750290E+03 -0.20596617946E+03 -0.22067861966E+04  0.22266978406E+04  0.18800000000E+03 0.  0.
   -5000001    1    1    2    0    0 -0.10252750290E+03  0.20596617946E+03 -0.22543697332E+04  0.22738647387E+04  0.18800000000E+03 0.  0.
<mgrwt>
<rscale>  0 0.59426535E+03</rscale>
<asrwt>0</asrwt>
<pdfrwt beam="1">  1        2 0.64012210E+00 0.59426535E+03</pdfrwt>
<pdfrwt beam="2">  1       -2 0.28147635E-02 0.59426535E+03</pdfrwt>
<totfact> 0.14305459E+02</totfact>
</mgrwt>
</event>
<event>
 4    1  0.5886875E-005  0.6618645E+03  0.7818608E-02  0.9784767E-01
         -2   -1    0    0    0  501 -0.00000000000E+00  0.00000000000E+00  0.12201469500E+03  0.12201469503E+03  0.25500000000E-02 0. -1.
          2   -1    0    0  501    0  0.00000000000E+00 -0.00000000000E+00 -0.89756536905E+03  0.89756536906E+03  0.25500000000E-02 0.  1.
    5000001    1    1    2    0    0  0.13947632726E+03 -0.18725139659E+03 -0.17180528240E+03  0.34551090641E+03  0.18800000000E+03 0.  0.
   -5000001    1    1    2    0    0 -0.13947632726E+03  0.18725139659E+03 -0.60374539164E+03  0.67406915767E+03  0.18800000000E+03 0.  0.
<mgrwt>
<rscale>  0 0.66186453E+03</rscale>
<asrwt>0</asrwt>
<pdfrwt beam="1">  1        2 0.12822362E+00 0.66186453E+03</pdfrwt>
<pdfrwt beam="2">  1       -2 0.17430671E-01 0.66186453E+03</pdfrwt>
<totfact> 0.88794579E+02</totfact>
</mgrwt>
</event>
<event>
 4    1  0.5886875E-005  0.5180702E+03  0.7818608E-02  0.1009167E+00
         -2   -1    0    0    0  501 -0.00000000000E+00  0.00000000000E+00  0.92956176329E+02  0.92956176364E+02  0.25500000000E-02 0. -1.
          2   -1    0    0  501    0  0.00000000000E+00 -0.00000000000E+00 -0.72183679703E+03  0.72183679703E+03  0.25500000000E-02 0.  1.
    5000001    1    1    2    0    0  0.17795504164E+03  0.29182814074E+01 -0.30049018530E+03  0.39662937948E+03  0.18800000000E+03 0.  0.
   -5000001    1    1    2    0    0 -0.17795504164E+03 -0.29182814074E+01 -0.32839043541E+03  0.41816359392E+03  0.18800000000E+03 0.  0.
<mgrwt>
<rscale>  0 0.51807022E+03</rscale>
<asrwt>0</asrwt>
<pdfrwt beam="1">  1        2 0.10311954E+00 0.51807022E+03</pdfrwt>
<pdfrwt beam="2">  1       -2 0.13279454E-01 0.51807022E+03</pdfrwt>
<totfact> 0.18604198E+03</totfact>
</mgrwt>
</event>
<event>
 4    1  0.5886875E-005  0.6386014E+03  0.7818608E-02  0.9828406E-01
          2   -1    0    0  501    0  0.00000000000E+00  0.00000000000E+00  0.11629999028E+04  0.11629999028E+04  0.25500000000E-02 0.  1.
         -2   -1    0    0    0  501 -0.00000000000E+00 -0.00000000000E+00 -0.87663748161E+02  0.87663748198E+02  0.25500000000E-02 0. -1.
    5000001    1    1    2    0    0  0.22115533294E+03  0.12970466499E+03  0.59563098157E+03  0.67516905113E+03  0.18800000000E+03 0.  0.
   -5000001    1    1    2    0    0 -0.22115533294E+03 -0.12970466499E+03  0.47970517308E+03  0.57549459988E+03  0.18800000000E+03 0.  0.
<mgrwt>
<rscale>  0 0.63860138E+03</rscale>
<asrwt>0</asrwt>
<pdfrwt beam="1">  1        2 0.16614284E+00 0.63860138E+03</pdfrwt>
<pdfrwt beam="2">  1       -2 0.12523393E-01 0.63860138E+03</pdfrwt>
<totfact> 0.10717509E+03</totfact>
</mgrwt>
</event>
<event>
 4    1  0.5886875E-005  0.6456579E+03  0.7818608E-02  0.9814961E-01
         -2   -1    0    0    0  501 -0.00000000000E+00  0.00000000000E+00  0.32916364831E+03  0.32916364832E+03  0.25500000000E-02 0. -1.
          2   -1    0    0  501    0  0.00000000000E+00 -0.00000000000E+00 -0.31661616197E+03  0.31661616198E+03  0.25500000000E-02 0.  1.
    5000001    1    1    2    0    0  0.22120638686E+03 -0.13916402143E+03  0.30270783598E+02  0.32335616708E+03  0.18800000000E+03 0.  0.
   -5000001    1    1    2    0    0 -0.22120638686E+03  0.13916402143E+03 -0.17723297263E+02  0.32242364323E+03  0.18800000000E+03 0.  0.
<mgrwt>
<rscale>  0 0.64565790E+03</rscale>
<asrwt>0</asrwt>
<pdfrwt beam="1">  1        2 0.45230880E-01 0.64565790E+03</pdfrwt>
<pdfrwt beam="2">  1       -2 0.47023378E-01 0.64565790E+03</pdfrwt>
<totfact> 0.48515689E+02</totfact>
</mgrwt>
</event>
<event>
 4    1  0.5886875E-005  0.1154139E+04  0.7818608E-02  0.9153974E-01
          2   -1    0    0  501    0  0.00000000000E+00  0.00000000000E+00  0.60538071261E+03  0.60538071261E+03  0.25500000000E-02 0.  1.
         -2   -1    0    0    0  501 -0.00000000000E+00 -0.00000000000E+00 -0.55008222825E+03  0.55008222826E+03  0.25500000000E-02 0. -1.
    5000001    1    1    2    0    0  0.98718342477E+02 -0.50956479260E+03 -0.14066138233E+03  0.56967641120E+03  0.18800000000E+03 0.  0.
   -5000001    1    1    2    0    0 -0.98718342477E+02  0.50956479260E+03  0.19595986669E+03  0.58578652967E+03  0.18800000000E+03 0.  0.
<mgrwt>
<rscale>  0 0.11541389E+04</rscale>
<asrwt>0</asrwt>
<pdfrwt beam="1">  1        2 0.86482959E-01 0.11541389E+04</pdfrwt>
<pdfrwt beam="2">  1       -2 0.78583175E-01 0.11541389E+04</pdfrwt>
<totfact> 0.76546675E+01</totfact>
</mgrwt>
</event>
<event>
 4    1  0.5886875E-005  0.5538011E+03  0.7818608E-02  0.1000618E+00
         -2   -1    0    0    0  501 -0.00000000000E+00  0.00000000000E+00  0.18525801253E+03  0.18525801255E+03  0.25500000000E-02 0. -1.
          2   -1    0    0  501    0  0.00000000000E+00 -0.00000000000E+00 -0.41387642823E+03  0.41387642824E+03  0.25500000000E-02 0.  1.
    5000001    1    1    2    0    0  0.11818079684E+03  0.13524323172E+03 -0.11262590089E+02  0.26024657232E+03  0.18800000000E+03 0.  0.
   -5000001    1    1    2    0    0 -0.11818079684E+03 -0.13524323172E+03 -0.21735582561E+03  0.33888786847E+03  0.18800000000E+03 0.  0.
<mgrwt>
<rscale>  0 0.55380114E+03</rscale>
<asrwt>0</asrwt>
<pdfrwt beam="1">  1        2 0.59125204E-01 0.55380114E+03</pdfrwt>
<pdfrwt beam="2">  1       -2 0.26465430E-01 0.55380114E+03</pdfrwt>
<totfact> 0.10766100E+03</totfact>
</mgrwt>
</event>
<event>
 4    1  0.5886875E-005  0.4672500E+03  0.7818608E-02  0.1022699E+00
          2   -1    0    0  501    0  0.00000000000E+00  0.00000000000E+00  0.19709468464E+04  0.19709468464E+04  0.25500000000E-02 0.  1.
         -2   -1    0    0    0  501 -0.00000000000E+00 -0.00000000000E+00 -0.27692600177E+02  0.27692600294E+02  0.25500000000E-02 0. -1.
    5000001    1    1    2    0    0 -0.13249594056E+03 -0.57130778724E+01  0.79793784107E+03  0.83044362345E+03  0.18800000000E+03 0.  0.
   -5000001    1    1    2    0    0  0.13249594056E+03  0.57130778724E+01  0.11453164052E+04  0.11681958232E+04  0.18800000000E+03 0.  0.
<mgrwt>
<rscale>  0 0.46725001E+03</rscale>
<asrwt>0</asrwt>
<pdfrwt beam="1">  1        2 0.28156387E+00 0.46725001E+03</pdfrwt>
<pdfrwt beam="2">  1       -2 0.39560852E-02 0.46725001E+03</pdfrwt>
<totfact> 0.25330575E+03</totfact>
</mgrwt>
</event>
<event>
 4    1  0.5886875E-005  0.4113993E+03  0.7818608E-02  0.1039902E+00
         -2   -1    0    0    0  501 -0.00000000000E+00  0.00000000000E+00  0.17950734771E+02  0.17950734952E+02  0.25500000000E-02 0. -1.
          2   -1    0    0  501    0  0.00000000000E+00 -0.00000000000E+00 -0.23571370290E+04  0.23571370290E+04  0.25500000000E-02 0.  1.
    5000001    1    1    2    0    0  0.50398747458E+02  0.65232031976E+02 -0.12455474274E+04  0.12623500487E+04  0.18800000000E+03 0.  0.
   -5000001    1    1    2    0    0 -0.50398747458E+02 -0.65232031976E+02 -0.10936388669E+04  0.11127377152E+04  0.18800000000E+03 0.  0.
<mgrwt>
<rscale>  0 0.41139928E+03</rscale>
<asrwt>0</asrwt>
<pdfrwt beam="1">  1        2 0.33673366E+00 0.41139928E+03</pdfrwt>
<pdfrwt beam="2">  1       -2 0.25643922E-02 0.41139928E+03</pdfrwt>
<totfact> 0.31391404E+03</totfact>
</mgrwt>
</event>
<event>
 4    1  0.5886875E-005  0.6907199E+03  0.7818608E-02  0.9733235E-01
          2   -1    0    0  501    0  0.00000000000E+00  0.00000000000E+00  0.12464380143E+04  0.12464380143E+04  0.25500000000E-02 0.  1.
         -2   -1    0    0    0  501 -0.00000000000E+00 -0.00000000000E+00 -0.95691473155E+02  0.95691473189E+02  0.25500000000E-02 0. -1.
    5000001    1    1    2    0    0  0.27197159330E+03 -0.26368690268E+02  0.38833518878E+03  0.51069763484E+03  0.18800000000E+03 0.  0.
   -5000001    1    1    2    0    0 -0.27197159330E+03  0.26368690268E+02  0.76241135237E+03  0.83143185266E+03  0.18800000000E+03 0.  0.
<mgrwt>
<rscale>  0 0.69071988E+03</rscale>
<asrwt>0</asrwt>
<pdfrwt beam="1">  1        2 0.17806256E+00 0.69071988E+03</pdfrwt>
<pdfrwt beam="2">  1       -2 0.13670212E-01 0.69071988E+03</pdfrwt>
<totfact> 0.83015127E+02</totfact>
</mgrwt>
</event>
<event>
 4    1  0.5886875E-005  0.7658309E+03  0.7818608E-02  0.9610836E-01
          2   -1    0    0  501    0  0.00000000000E+00  0.00000000000E+00  0.73142729150E+03  0.73142729151E+03  0.25500000000E-02 0.  1.
         -2   -1    0    0    0  501 -0.00000000000E+00 -0.00000000000E+00 -0.20046318570E+03  0.20046318571E+03  0.25500000000E-02 0. -1.
    5000001    1    1    2    0    0 -0.15555787012E+03  0.28752698594E+03  0.34629155381E+03  0.51198814326E+03  0.18800000000E+03 0.  0.
   -5000001    1    1    2    0    0  0.15555787012E+03 -0.28752698594E+03  0.18467255200E+03  0.41990233396E+03  0.18800000000E+03 0.  0.
<mgrwt>
<rscale>  0 0.76583091E+03</rscale>
<asrwt>0</asrwt>
<pdfrwt beam="1">  1        2 0.10448961E+00 0.76583091E+03</pdfrwt>
<pdfrwt beam="2">  1       -2 0.28637598E-01 0.76583091E+03</pdfrwt>
<totfact> 0.47782121E+02</totfact>
</mgrwt>
</event>
<event>
 4    1  0.5886875E-005  0.5907693E+03  0.7818608E-02  0.9924744E-01
          2   -1    0    0  501    0  0.00000000000E+00  0.00000000000E+00  0.82749054637E+03  0.82749054638E+03  0.25500000000E-02 0.  1.
         -2   -1    0    0    0  501 -0.00000000000E+00 -0.00000000000E+00 -0.10544181230E+03  0.10544181233E+03  0.25500000000E-02 0. -1.
    5000001    1    1    2    0    0  0.47988339597E+01 -0.22746004985E+03  0.34187781481E+03  0.45164758755E+03  0.18800000000E+03 0.  0.
   -5000001    1    1    2    0    0 -0.47988339597E+01  0.22746004985E+03  0.38017091927E+03  0.48128477115E+03  0.18800000000E+03 0.  0.
<mgrwt>
<rscale>  0 0.59076934E+03</rscale>
<asrwt>0</asrwt>
<pdfrwt beam="1">  1        2 0.11821294E+00 0.59076934E+03</pdfrwt>
<pdfrwt beam="2">  1       -2 0.15063116E-01 0.59076934E+03</pdfrwt>
<totfact> 0.12683499E+03</totfact>
</mgrwt>
</event>
<event>
 4    1  0.5886875E-005  0.6652869E+03  0.7818608E-02  0.9778510E-01
         -2   -1    0    0    0  501 -0.00000000000E+00  0.00000000000E+00  0.10732846478E+03  0.10732846481E+03  0.25500000000E-02 0. -1.
          2   -1    0    0  501    0  0.00000000000E+00 -0.00000000000E+00 -0.10309629357E+04  0.10309629357E+04  0.25500000000E-02 0.  1.
    5000001    1    1    2    0    0 -0.18561198377E+03 -0.20069150064E+03 -0.42065470538E+03  0.53574552551E+03  0.18800000000E+03 0.  0.
   -5000001    1    1    2    0    0  0.18561198377E+03  0.20069150064E+03 -0.50297976556E+03  0.60254587502E+03  0.18800000000E+03 0.  0.
<mgrwt>
<rscale>  0 0.66528691E+03</rscale>
<asrwt>0</asrwt>
<pdfrwt beam="1">  1        2 0.14728041E+00 0.66528691E+03</pdfrwt>
<pdfrwt beam="2">  1       -2 0.15332638E-01 0.66528691E+03</pdfrwt>
<totfact> 0.91186537E+02</totfact>
</mgrwt>
</event>
<event>
 4    1  0.5886875E-005  0.5912668E+03  0.7818608E-02  0.9923692E-01
          2   -1    0    0  501    0  0.00000000000E+00  0.00000000000E+00  0.10341615553E+04  0.10341615553E+04  0.25500000000E-02 0.  1.
         -2   -1    0    0    0  501 -0.00000000000E+00 -0.00000000000E+00 -0.84512032926E+02  0.84512032964E+02  0.25500000000E-02 0. -1.
    5000001    1    1    2    0    0 -0.71125854311E+02  0.19769037594E+03  0.30650395800E+03  0.41644813382E+03  0.18800000000E+03 0.  0.
   -5000001    1    1    2    0    0  0.71125854311E+02 -0.19769037594E+03  0.64314556433E+03  0.70222545440E+03  0.18800000000E+03 0.  0.
<mgrwt>
<rscale>  0 0.59126676E+03</rscale>
<asrwt>0</asrwt>
<pdfrwt beam="1">  1        2 0.14773736E+00 0.59126676E+03</pdfrwt>
<pdfrwt beam="2">  1       -2 0.12073148E-01 0.59126676E+03</pdfrwt>
<totfact> 0.13551567E+03</totfact>
</mgrwt>
</event>
<event>
 4    1  0.5886875E-005  0.5352554E+03  0.7818608E-02  0.1004966E+00
          2   -1    0    0  501    0  0.00000000000E+00  0.00000000000E+00  0.12580642904E+04  0.12580642904E+04  0.25500000000E-02 0. -1.
         -2   -1    0    0    0  501 -0.00000000000E+00 -0.00000000000E+00 -0.56932381207E+02  0.56932381264E+02  0.25500000000E-02 0.  1.
    5000001    1    1    2    0    0 -0.20020542407E+02 -0.18494558811E+03  0.70111047615E+03  0.74933676838E+03  0.18800000000E+03 0.  0.
   -5000001    1    1    2    0    0  0.20020542407E+02  0.18494558811E+03  0.50002143304E+03  0.56565990328E+03  0.18800000000E+03 0.  0.
<mgrwt>
<rscale>  0 0.53525544E+03</rscale>
<asrwt>0</asrwt>
<pdfrwt beam="1">  1        2 0.17972348E+00 0.53525544E+03</pdfrwt>
<pdfrwt beam="2">  1       -2 0.81331969E-02 0.53525544E+03</pdfrwt>
<totfact> 0.19149702E+03</totfact>
</mgrwt>
</event>
<event>
 4    1  0.5886875E-005  0.4149978E+03  0.7818608E-02  0.1038707E+00
         -2   -1    0    0    0  501 -0.00000000000E+00  0.00000000000E+00  0.38333699560E+02  0.38333699644E+02  0.25500000000E-02 0. -1.
          2   -1    0    0  501    0  0.00000000000E+00 -0.00000000000E+00 -0.11231836756E+04  0.11231836756E+04  0.25500000000E-02 0.  1.
    5000001    1    1    2    0    0  0.16714867090E+02  0.74641537192E+02 -0.42168315003E+03  0.46798656485E+03  0.18800000000E+03 0.  0.
   -5000001    1    1    2    0    0 -0.16714867090E+02 -0.74641537192E+02 -0.66316682600E+03  0.69353081039E+03  0.18800000000E+03 0.  0.
<mgrwt>
<rscale>  0 0.41499776E+03</rscale>
<asrwt>0</asrwt>
<pdfrwt beam="1">  1        2 0.16045479E+00 0.41499776E+03</pdfrwt>
<pdfrwt beam="2">  1       -2 0.54762435E-02 0.41499776E+03</pdfrwt>
<totfact> 0.42325315E+03</totfact>
</mgrwt>
</event>
<event>
 4    1  0.5886875E-005  0.5380108E+03  0.7818608E-02  0.1004308E+00
          2   -1    0    0  501    0  0.00000000000E+00  0.00000000000E+00  0.15694749341E+04  0.15694749341E+04  0.25500000000E-02 0.  1.
         -2   -1    0    0    0  501 -0.00000000000E+00 -0.00000000000E+00 -0.46107084351E+02  0.46107084421E+02  0.25500000000E-02 0. -1.
    5000001    1    1    2    0    0 -0.34505804505E+02 -0.12996064461E+03  0.11749427853E+04  0.11974618860E+04  0.18800000000E+03 0.  0.
   -5000001    1    1    2    0    0  0.34505804505E+02  0.12996064461E+03  0.34842506450E+03  0.41812013258E+03  0.18800000000E+03 0.  0.
<mgrwt>
<rscale>  0 0.53801083E+03</rscale>
<asrwt>0</asrwt>
<pdfrwt beam="1">  1        2 0.22421070E+00 0.53801083E+03</pdfrwt>
<pdfrwt beam="2">  1       -2 0.65867266E-02 0.53801083E+03</pdfrwt>
<totfact> 0.18295075E+03</totfact>
</mgrwt>
</event>
<event>
 4    1  0.5886875E-005  0.6324451E+03  0.7818608E-02  0.9840289E-01
         -2   -1    0    0    0  501 -0.00000000000E+00  0.00000000000E+00  0.71663938682E+02  0.71663938728E+02  0.25500000000E-02 0. -1.
          2   -1    0    0  501    0  0.00000000000E+00 -0.00000000000E+00 -0.13953557073E+04  0.13953557073E+04  0.25500000000E-02 0.  1.
    5000001    1    1    2    0    0 -0.16824414032E+03 -0.17774729214E+03 -0.82175527835E+03  0.87779606294E+03  0.18800000000E+03 0.  0.
   -5000001    1    1    2    0    0  0.16824414032E+03  0.17774729214E+03 -0.50193649030E+03  0.58922358312E+03  0.18800000000E+03 0.  0.
<mgrwt>
<rscale>  0 0.63244505E+03</rscale>
<asrwt>0</asrwt>
<pdfrwt beam="1">  1        2 0.19933651E+00 0.63244505E+03</pdfrwt>
<pdfrwt beam="2">  1       -2 0.10237706E-01 0.63244505E+03</pdfrwt>
<totfact> 0.11120885E+03</totfact>
</mgrwt>
</event>
<event>
 4    1  0.5886875E-005  0.5395240E+03  0.7818608E-02  0.1003948E+00
         -2   -1    0    0    0  501 -0.00000000000E+00  0.00000000000E+00  0.37956382999E+02  0.37956383084E+02  0.25500000000E-02 0. -1.
          2   -1    0    0  501    0  0.00000000000E+00 -0.00000000000E+00 -0.19172412885E+04  0.19172412885E+04  0.25500000000E-02 0.  1.
    5000001    1    1    2    0    0 -0.58177806594E+02  0.18376157506E+03 -0.87959324535E+03  0.91988110694E+03  0.18800000000E+03 0.  0.
   -5000001    1    1    2    0    0  0.58177806594E+02 -0.18376157506E+03 -0.99969166020E+03  0.10353165647E+04  0.18800000000E+03 0.  0.
<mgrwt>
<rscale>  0 0.53952403E+03</rscale>
<asrwt>0</asrwt>
<pdfrwt beam="1">  1        2 0.27389155E+00 0.53952403E+03</pdfrwt>
<pdfrwt beam="2">  1       -2 0.54223416E-02 0.53952403E+03</pdfrwt>
<totfact> 0.16534698E+03</totfact>
</mgrwt>
</event>
<event>
 4    1  0.5886875E-005  0.8498541E+03  0.7818608E-02  0.9490533E-01
          2   -1    0    0  501    0  0.00000000000E+00  0.00000000000E+00  0.13600808654E+04  0.13600808654E+04  0.25500000000E-02 0.  1.
         -2   -1    0    0    0  501 -0.00000000000E+00 -0.00000000000E+00 -0.13275902784E+03  0.13275902786E+03  0.25500000000E-02 0. -1.
    5000001    1    1    2    0    0  0.15875278473E+03 -0.18233375062E+03  0.11310962339E+04  0.11718236786E+04  0.18800000000E+03 0.  0.
   -5000001    1    1    2    0    0 -0.15875278473E+03  0.18233375062E+03  0.96225603587E+02  0.32101621464E+03  0.18800000000E+03 0.  0.
<mgrwt>
<rscale>  0 0.84985414E+03</rscale>
<asrwt>0</asrwt>
<pdfrwt beam="1">  1        2 0.19429726E+00 0.84985414E+03</pdfrwt>
<pdfrwt beam="2">  1       -2 0.18965576E-01 0.84985414E+03</pdfrwt>
<totfact> 0.40867745E+02</totfact>
</mgrwt>
</event>
<event>
 4    1  0.5886875E-005  0.7171834E+03  0.7818608E-02  0.9688289E-01
         -2   -1    0    0    0  501 -0.00000000000E+00  0.00000000000E+00  0.35890112249E+03  0.35890112250E+03  0.25500000000E-02 0. -1.
          2   -1    0    0  501    0  0.00000000000E+00 -0.00000000000E+00 -0.35828256513E+03  0.35828256514E+03  0.25500000000E-02 0.  1.
    5000001    1    1    2    0    0 -0.17351404585E+03  0.14409973485E+03 -0.20553578108E+03  0.35841430635E+03  0.18800000000E+03 0.  0.
   -5000001    1    1    2    0    0  0.17351404585E+03 -0.14409973485E+03  0.20615433844E+03  0.35876938129E+03  0.18800000000E+03 0.  0.
<mgrwt>
<rscale>  0 0.71718342E+03</rscale>
<asrwt>0</asrwt>
<pdfrwt beam="1">  1        2 0.51183223E-01 0.71718342E+03</pdfrwt>
<pdfrwt beam="2">  1       -2 0.51271589E-01 0.71718342E+03</pdfrwt>
<totfact> 0.35451633E+02</totfact>
</mgrwt>
</event>
<event>
 4    1  0.5886875E-005  0.5633411E+03  0.7818608E-02  0.9984523E-01
          2   -1    0    0  501    0  0.00000000000E+00  0.00000000000E+00  0.25199823963E+04  0.25199823964E+04  0.25500000000E-02 0.  1.
         -2   -1    0    0    0  501 -0.00000000000E+00 -0.00000000000E+00 -0.31483674522E+02  0.31483674625E+02  0.25500000000E-02 0. -1.
    5000001    1    1    2    0    0  0.13655200382E+03  0.84486685845E+02  0.18554328244E+04  0.18718331698E+04  0.18800000000E+03 0.  0.
   -5000001    1    1    2    0    0 -0.13655200382E+03 -0.84486685845E+02  0.63306589747E+03  0.67963290118E+03  0.18800000000E+03 0.  0.
<mgrwt>
<rscale>  0 0.56334112E+03</rscale>
<asrwt>0</asrwt>
<pdfrwt beam="1">  1        2 0.35999765E+00 0.56334112E+03</pdfrwt>
<pdfrwt beam="2">  1       -2 0.44976657E-02 0.56334112E+03</pdfrwt>
<totfact> 0.10955188E+03</totfact>
</mgrwt>
</event>
<event>
 4    1  0.5886875E-005  0.6658853E+03  0.7818608E-02  0.9777420E-01
         -2   -1    0    0    0  501 -0.00000000000E+00  0.00000000000E+00  0.87415901122E+02  0.87415901159E+02  0.25500000000E-02 0. -1.
          2   -1    0    0  501    0  0.00000000000E+00 -0.00000000000E+00 -0.12680851382E+04  0.12680851382E+04  0.25500000000E-02 0.  1.
    5000001    1    1    2    0    0 -0.12091207842E+03  0.21681067595E+03 -0.83016178495E+03  0.88664490587E+03  0.18800000000E+03 0.  0.
   -5000001    1    1    2    0    0  0.12091207842E+03 -0.21681067595E+03 -0.35050745212E+03  0.46885613349E+03  0.18800000000E+03 0.  0.
<mgrwt>
<rscale>  0 0.66588529E+03</rscale>
<asrwt>0</asrwt>
<pdfrwt beam="1">  1        2 0.18115501E+00 0.66588529E+03</pdfrwt>
<pdfrwt beam="2">  1       -2 0.12487987E-01 0.66588529E+03</pdfrwt>
<totfact> 0.93961182E+02</totfact>
</mgrwt>
</event>
<event>
 4    1  0.5886875E-005  0.5088264E+03  0.7818608E-02  0.1011500E+00
          2   -1    0    0  501    0  0.00000000000E+00  0.00000000000E+00  0.60804875527E+03  0.60804875528E+03  0.25500000000E-02 0.  1.
         -2   -1    0    0    0  501 -0.00000000000E+00 -0.00000000000E+00 -0.10644880705E+03  0.10644880708E+03  0.25500000000E-02 0. -1.
    5000001    1    1    2    0    0 -0.13882476975E+03  0.72863226434E+02  0.34809336857E+03  0.42555182963E+03  0.18800000000E+03 0.  0.
   -5000001    1    1    2    0    0  0.13882476975E+03 -0.72863226434E+02  0.15350657965E+03  0.28894573273E+03  0.18800000000E+03 0.  0.
<mgrwt>
<rscale>  0 0.50882635E+03</rscale>
<asrwt>0</asrwt>
<pdfrwt beam="1">  1        2 0.86864110E-01 0.50882635E+03</pdfrwt>
<pdfrwt beam="2">  1       -2 0.15206972E-01 0.50882635E+03</pdfrwt>
<totfact> 0.18228754E+03</totfact>
</mgrwt>
</event>
